<event>
 4    1  0.1701380E-008  0.1001197E+04  0.7818608E-02  0.9307233E-01
         -2   -1    0    0    0  501 -0.00000000000E+00  0.00000000000E+00  0.94636380070E+03  0.94636380071E+03  0.25500000000E-02 0.  1.
          2   -1    0    0  501    0  0.00000000000E+00 -0.00000000000E+00 -0.12937679379E+04  0.12937679379E+04  0.25500000000E-02 0. -1.
    8880022    1    1    2    0    0 -0.86222303071E+03 -0.48536032024E+03 -0.65061985936E+03  0.11940272399E+04  0.15294330000E+03 0.  0.
    8880022    1    1    2    0    0  0.86222303071E+03  0.48536032024E+03  0.30321572215E+03  0.10461044988E+04  0.15294330000E+03 0.  0.
<mgrwt>
<rscale>  0 0.10011967E+04</rscale>
<asrwt>0</asrwt>
<pdfrwt beam="1">  1        2 0.19904122E+00 0.10011967E+04</pdfrwt>
<pdfrwt beam="2">  1       -2 0.14559443E+00 0.10011967E+04</pdfrwt>
<totfact> 0.53589488E+00</totfact>
</mgrwt>
</event>
<event>
 4    1  0.1701380E-008  0.6702205E+03  0.7818608E-02  0.9769560E-01
         -2   -1    0    0    0  501 -0.00000000000E+00  0.00000000000E+00  0.43097788164E+03  0.43097788165E+03  0.25500000000E-02 0.  1.
          2   -1    0    0  501    0  0.00000000000E+00 -0.00000000000E+00 -0.16713408062E+04  0.16713408062E+04  0.25500000000E-02 0. -1.
    8880022    1    1    2    0    0  0.40920478208E+03  0.50828660259E+03 -0.12650715235E+04  0.14316429152E+04  0.15294330000E+03 0.  1.
    8880022    1    1    2    0    0 -0.40920478208E+03 -0.50828660259E+03  0.24708599029E+02  0.67067577258E+03  0.15294330000E+03 0.  0.
<mgrwt>
<rscale>  0 0.67022047E+03</rscale>
<asrwt>0</asrwt>
<pdfrwt beam="1">  1        2 0.25712935E+00 0.67022047E+03</pdfrwt>
<pdfrwt beam="2">  1       -2 0.66304291E-01 0.67022047E+03</pdfrwt>
<totfact> 0.22089586E+01</totfact>
</mgrwt>
</event>
<event>
 4    1  0.1701380E-008  0.6789727E+03  0.7818608E-02  0.9753883E-01
         -2   -1    0    0    0  501 -0.00000000000E+00  0.00000000000E+00  0.25361542000E+04  0.25361542000E+04  0.25500000000E-02 0.  1.
          2   -1    0    0  501    0  0.00000000000E+00 -0.00000000000E+00 -0.22215635436E+03  0.22215635438E+03  0.25500000000E-02 0. -1.
    8880022    1    1    2    0    0 -0.62688410705E+03 -0.21125490528E+03  0.17450104072E+04  0.18724490095E+04  0.15294330000E+03 0.  0.
    8880022    1    1    2    0    0  0.62688410705E+03  0.21125490528E+03  0.56898743840E+03  0.88586154490E+03  0.15294330000E+03 0. -1.
<mgrwt>
<rscale>  0 0.67897273E+03</rscale>
<asrwt>0</asrwt>
<pdfrwt beam="1">  1        2 0.34177899E-01 0.67897273E+03</pdfrwt>
<pdfrwt beam="2">  1       -2 0.39017758E+00 0.67897273E+03</pdfrwt>
<totfact> 0.14170771E+00</totfact>
</mgrwt>
</event>
<event>
 4    1  0.1701380E-008  0.7337443E+03  0.7818608E-02  0.9661204E-01
         -2   -1    0    0    0  501 -0.00000000000E+00  0.00000000000E+00  0.40738704379E+03  0.40738704379E+03  0.25500000000E-02 0.  1.
          2   -1    0    0  501    0  0.00000000000E+00 -0.00000000000E+00 -0.23819371666E+04  0.23819371666E+04  0.25500000000E-02 0. -1.
    8880022    1    1    2    0    0  0.63961740472E+03  0.32538990653E+03 -0.56731034616E+02  0.73593415398E+03  0.15294330000E+03 0.  0.
    8880022    1    1    2    0    0 -0.63961740472E+03 -0.32538990653E+03 -0.19178190882E+04  0.20533900564E+04  0.15294330000E+03 0. -1.
<mgrwt>
<rscale>  0 0.73374428E+03</rscale>
<asrwt>0</asrwt>
<pdfrwt beam="1">  1        2 0.36645186E+00 0.73374428E+03</pdfrwt>
<pdfrwt beam="2">  1       -2 0.62674931E-01 0.73374428E+03</pdfrwt>
<totfact> 0.10072166E+01</totfact>
</mgrwt>
</event>
<event>
 4    1  0.1701380E-008  0.1221389E+04  0.7818608E-02  0.9094338E-01
         -2   -1    0    0    0  501 -0.00000000000E+00  0.00000000000E+00  0.10682594294E+04  0.10682594294E+04  0.25500000000E-02 0.  1.
          2   -1    0    0  501    0  0.00000000000E+00 -0.00000000000E+00 -0.15099960382E+04  0.15099960382E+04  0.25500000000E-02 0. -1.
    8880022    1    1    2    0    0 -0.27358952326E+03  0.11804861691E+04 -0.57434351146E+03  0.13496892031E+04  0.15294330000E+03 0.  0.
    8880022    1    1    2    0    0  0.27358952326E+03 -0.11804861691E+04  0.13260690273E+03  0.12285662645E+04  0.15294330000E+03 0.  0.
<mgrwt>
<rscale>  0 0.12213887E+04</rscale>
<asrwt>0</asrwt>
<pdfrwt beam="1">  1        2 0.23230708E+00 0.12213887E+04</pdfrwt>
<pdfrwt beam="2">  1       -2 0.16434760E+00 0.12213887E+04</pdfrwt>
<totfact> 0.28418488E+00</totfact>
</mgrwt>
</event>
<event>
 4    1  0.1701380E-008  0.1024375E+04  0.7818608E-02  0.9282208E-01
          2   -1    0    0  501    0  0.00000000000E+00  0.00000000000E+00  0.32145751283E+04  0.32145751283E+04  0.25500000000E-02 0. -1.
         -2   -1    0    0    0  501 -0.00000000000E+00 -0.00000000000E+00 -0.69000629099E+03  0.69000629099E+03  0.25500000000E-02 0.  1.
    8880022    1    1    2    0    0 -0.90831126407E+03 -0.44824377336E+03  0.26794282566E+04  0.28685674592E+04  0.15294330000E+03 0.  0.
    8880022    1    1    2    0    0  0.90831126407E+03  0.44824377336E+03 -0.15485941927E+03  0.10360139601E+04  0.15294330000E+03 0.  0.
<mgrwt>
<rscale>  0 0.10243747E+04</rscale>
<asrwt>0</asrwt>
<pdfrwt beam="1">  1        2 0.49455003E+00 0.10243747E+04</pdfrwt>
<pdfrwt beam="2">  1       -2 0.10615481E+00 0.10243747E+04</pdfrwt>
<totfact> 0.92688785E-01</totfact>
</mgrwt>
</event>
<event>
 4    1  0.1701380E-008  0.5881017E+03  0.7818608E-02  0.9930403E-01
          2   -1    0    0  501    0  0.00000000000E+00  0.00000000000E+00  0.20762377522E+04  0.20762377522E+04  0.25500000000E-02 0. -1.
         -2   -1    0    0    0  501 -0.00000000000E+00 -0.00000000000E+00 -0.21619684046E+03  0.21619684048E+03  0.25500000000E-02 0.  1.
    8880022    1    1    2    0    0  0.56638050106E+03 -0.41049743288E+02  0.14791168256E+04  0.15917443859E+04  0.15294330000E+03 0.  0.
    8880022    1    1    2    0    0 -0.56638050106E+03  0.41049743288E+02  0.38092408615E+03  0.70069020675E+03  0.15294330000E+03 0.  0.
<mgrwt>
<rscale>  0 0.58810170E+03</rscale>
<asrwt>0</asrwt>
<pdfrwt beam="1">  1        2 0.31942120E+00 0.58810170E+03</pdfrwt>
<pdfrwt beam="2">  1       -2 0.33261051E-01 0.58810170E+03</pdfrwt>
<totfact> 0.53910308E+01</totfact>
</mgrwt>
</event>
<event>
 4    1  0.1701380E-008  0.1064958E+04  0.7818608E-02  0.9240035E-01
         -2   -1    0    0    0  501 -0.00000000000E+00  0.00000000000E+00  0.38177129037E+03  0.38177129037E+03  0.25500000000E-02 0.  1.
          2   -1    0    0  501    0  0.00000000000E+00 -0.00000000000E+00 -0.38514665509E+04  0.38514665509E+04  0.25500000000E-02 0. -1.
    8880022    1    1    2    0    0  0.87435042294E+03  0.58843499111E+03 -0.27470207422E+04  0.29462279294E+04  0.15294330000E+03 0.  0.
    8880022    1    1    2    0    0 -0.87435042294E+03 -0.58843499111E+03 -0.72267451838E+03  0.12870099119E+04  0.15294330000E+03 0.  0.
<mgrwt>
<rscale>  0 0.10649582E+04</rscale>
<asrwt>0</asrwt>
<pdfrwt beam="1">  1        2 0.59253329E+00 0.10649582E+04</pdfrwt>
<pdfrwt beam="2">  1       -2 0.58734047E-01 0.10649582E+04</pdfrwt>
<totfact> 0.12600682E+00</totfact>
</mgrwt>
</event>
<event>
 4    1  0.1701380E-008  0.5209013E+03  0.7818608E-02  0.1008463E+00
          2   -1    0    0  501    0  0.00000000000E+00  0.00000000000E+00  0.20208953522E+04  0.20208953522E+04  0.25500000000E-02 0. -1.
         -2   -1    0    0    0  501 -0.00000000000E+00 -0.00000000000E+00 -0.15435539252E+03  0.15435539254E+03  0.25500000000E-02 0.  1.
    8880022    1    1    2    0    0  0.55119104569E+02 -0.49488223107E+03  0.13256422623E+04  0.14243123249E+04  0.15294330000E+03 0.  0.
    8880022    1    1    2    0    0 -0.55119104569E+02  0.49488223107E+03  0.54089769742E+03  0.75093841985E+03  0.15294330000E+03 0.  0.
<mgrwt>
<rscale>  0 0.52090133E+03</rscale>
<asrwt>0</asrwt>
<pdfrwt beam="1">  1        2 0.31090697E+00 0.52090133E+03</pdfrwt>
<pdfrwt beam="2">  1       -2 0.23746984E-01 0.52090133E+03</pdfrwt>
<totfact> 0.10806007E+02</totfact>
</mgrwt>
</event>
<event>
 4    1  0.1701380E-008  0.5265799E+03  0.7818608E-02  0.1007065E+00
          2   -1    0    0  501    0  0.00000000000E+00  0.00000000000E+00  0.20712195766E+04  0.20712195767E+04  0.25500000000E-02 0. -1.
         -2   -1    0    0    0  501 -0.00000000000E+00 -0.00000000000E+00 -0.26936200687E+03  0.26936200688E+03  0.25500000000E-02 0.  1.
    8880022    1    1    2    0    0 -0.15343441759E+03  0.47995067771E+03  0.17309189915E+04  0.18092448650E+04  0.15294330000E+03 0.  0.
    8880022    1    1    2    0    0  0.15343441759E+03 -0.47995067771E+03  0.70938578311E+02  0.53133671851E+03  0.15294330000E+03 0.  0.
<mgrwt>
<rscale>  0 0.52657993E+03</rscale>
<asrwt>0</asrwt>
<pdfrwt beam="1">  1        2 0.31864917E+00 0.52657993E+03</pdfrwt>
<pdfrwt beam="2">  1       -2 0.41440309E-01 0.52657993E+03</pdfrwt>
<totfact> 0.35979348E+01</totfact>
</mgrwt>
</event>
<event>
 4    1  0.1701380E-008  0.8271637E+03  0.7818608E-02  0.9521510E-01
         -2   -1    0    0    0  501 -0.00000000000E+00  0.00000000000E+00  0.29568987325E+03  0.29568987326E+03  0.25500000000E-02 0.  1.
          2   -1    0    0  501    0  0.00000000000E+00 -0.00000000000E+00 -0.37637294354E+04  0.37637294354E+04  0.25500000000E-02 0. -1.
    8880022    1    1    2    0    0  0.33334500412E+03 -0.74141029694E+03 -0.47427760738E+03  0.95348781956E+03  0.15294330000E+03 0.  0.
    8880022    1    1    2    0    0 -0.33334500412E+03  0.74141029694E+03 -0.29937619548E+04  0.31059314891E+04  0.15294330000E+03 0.  0.
<mgrwt>
<rscale>  0 0.82716369E+03</rscale>
<asrwt>0</asrwt>
<pdfrwt beam="1">  1        2 0.57903526E+00 0.82716369E+03</pdfrwt>
<pdfrwt beam="2">  1       -2 0.45490752E-01 0.82716369E+03</pdfrwt>
<totfact> 0.25885354E+00</totfact>
</mgrwt>
</event>
<event>
 4    1  0.1701380E-008  0.5660092E+03  0.7818608E-02  0.9978549E-01
          2   -1    0    0  501    0  0.00000000000E+00  0.00000000000E+00  0.32534926518E+04  0.32534926518E+04  0.25500000000E-02 0. -1.
         -2   -1    0    0    0  501 -0.00000000000E+00 -0.00000000000E+00 -0.33448573229E+03  0.33448573230E+03  0.25500000000E-02 0.  1.
    8880022    1    1    2    0    0 -0.47870175571E+03  0.26042146362E+03 -0.47460724695E+02  0.56799549561E+03  0.15294330000E+03 0.  0.
    8880022    1    1    2    0    0  0.47870175571E+03 -0.26042146362E+03  0.29664676442E+04  0.30199828885E+04  0.15294330000E+03 0.  0.
<mgrwt>
<rscale>  0 0.56600915E+03</rscale>
<asrwt>0</asrwt>
<pdfrwt beam="1">  1        2 0.50053733E+00 0.56600915E+03</pdfrwt>
<pdfrwt beam="2">  1       -2 0.51459343E-01 0.56600915E+03</pdfrwt>
<totfact> 0.47892950E+00</totfact>
</mgrwt>
</event>
<event>
 4    1  0.1701380E-008  0.5751320E+03  0.7818608E-02  0.9958386E-01
          2   -1    0    0  501    0  0.00000000000E+00  0.00000000000E+00  0.51167563201E+03  0.51167563202E+03  0.25500000000E-02 0. -1.
         -2   -1    0    0    0  501 -0.00000000000E+00 -0.00000000000E+00 -0.14565945770E+04  0.14565945770E+04  0.25500000000E-02 0.  1.
    8880022    1    1    2    0    0 -0.39863206895E+03 -0.38532791378E+03 -0.12064061566E+04  0.13364851646E+04  0.15294330000E+03 0.  0.
    8880022    1    1    2    0    0  0.39863206895E+03  0.38532791378E+03  0.26148721158E+03  0.63178504444E+03  0.15294330000E+03 0.  0.
<mgrwt>
<rscale>  0 0.57513197E+03</rscale>
<asrwt>0</asrwt>
<pdfrwt beam="1">  1        2 0.78719329E-01 0.57513197E+03</pdfrwt>
<pdfrwt beam="2">  1       -2 0.22409147E+00 0.57513197E+03</pdfrwt>
<totfact> 0.58563225E+00</totfact>
</mgrwt>
</event>
<event>
 4    1  0.1701380E-008  0.1082075E+04  0.7818608E-02  0.9222841E-01
         -2   -1    0    0    0  501 -0.00000000000E+00  0.00000000000E+00  0.79974679845E+03  0.79974679845E+03  0.25500000000E-02 0.  1.
          2   -1    0    0  501    0  0.00000000000E+00 -0.00000000000E+00 -0.34529728811E+04  0.34529728811E+04  0.25500000000E-02 0. -1.
    8880022    1    1    2    0    0  0.26358746087E+03  0.10382760242E+04  0.28717583961E+03  0.11195343085E+04  0.15294330000E+03 0.  0.
    8880022    1    1    2    0    0 -0.26358746087E+03 -0.10382760242E+04 -0.29404019223E+04  0.31331853711E+04  0.15294330000E+03 0.  0.
<mgrwt>
<rscale>  0 0.10820754E+04</rscale>
<asrwt>0</asrwt>
<pdfrwt beam="1">  1        2 0.53122659E+00 0.10820754E+04</pdfrwt>
<pdfrwt beam="2">  1       -2 0.12303797E+00 0.10820754E+04</pdfrwt>
<totfact> 0.44410745E-01</totfact>
</mgrwt>
</event>
<event>
 4    1  0.1701380E-008  0.7399508E+03  0.7818608E-02  0.9651249E-01
          2   -1    0    0  501    0  0.00000000000E+00  0.00000000000E+00  0.10353889273E+04  0.10353889273E+04  0.25500000000E-02 0. -1.
         -2   -1    0    0    0  501 -0.00000000000E+00 -0.00000000000E+00 -0.87494541808E+03  0.87494541808E+03  0.25500000000E-02 0.  1.
    8880022    1    1    2    0    0  0.71334032060E+03 -0.12361708454E+03  0.68099415118E+03  0.10056243252E+04  0.15294330000E+03 0.  0.
    8880022    1    1    2    0    0 -0.71334032060E+03  0.12361708454E+03 -0.52055064199E+03  0.90471002010E+03  0.15294330000E+03 0.  0.
<mgrwt>
<rscale>  0 0.73995084E+03</rscale>
<asrwt>0</asrwt>
<pdfrwt beam="1">  1        2 0.15929060E+00 0.73995084E+03</pdfrwt>
<pdfrwt beam="2">  1       -2 0.13460699E+00 0.73995084E+03</pdfrwt>
<totfact> 0.96866342E+00</totfact>
</mgrwt>
</event>
<event>
 4    1  0.2118711E-008  0.1101599E+04  0.7818608E-02  0.9203634E-01
          2   -1    0    0  501    0  0.00000000000E+00  0.00000000000E+00  0.25719067454E+04  0.25719067454E+04  0.25500000000E-02 0. -1.
         -2   -1    0    0    0  501 -0.00000000000E+00 -0.00000000000E+00 -0.11980957118E+04  0.11980957118E+04  0.25500000000E-02 0.  1.
    8880022    1    1    2    0    0 -0.36717096567E+03 -0.10272852223E+04 -0.78070737884E+03  0.13501944713E+04  0.15294330000E+03 0.  0.
    8880022    1    1    2    0    0  0.36717096567E+03  0.10272852223E+04  0.21545184124E+04  0.24198079859E+04  0.15294330000E+03 0.  0.
<mgrwt>
<rscale>  0 0.11015993E+04</rscale>
<asrwt>0</asrwt>
<pdfrwt beam="1">  1        2 0.39567796E+00 0.11015993E+04</pdfrwt>
<pdfrwt beam="2">  1       -2 0.18432242E+00 0.11015993E+04</pdfrwt>
<totfact> 0.53048088E-01</totfact>
</mgrwt>
</event>
<event>
 4    1  0.1701380E-008  0.1069091E+04  0.7818608E-02  0.9235852E-01
          2   -1    0    0  501    0  0.00000000000E+00  0.00000000000E+00  0.45339043006E+04  0.45339043006E+04  0.25500000000E-02 0. -1.
         -2   -1    0    0    0  501 -0.00000000000E+00 -0.00000000000E+00 -0.68376625886E+03  0.68376625887E+03  0.25500000000E-02 0.  1.
    8880022    1    1    2    0    0  0.62762913644E+03  0.85184863866E+03 -0.14779802355E+03  0.10792591648E+04  0.15294330000E+03 0.  1.
    8880022    1    1    2    0    0 -0.62762913644E+03 -0.85184863866E+03  0.39979360652E+04  0.41384113946E+04  0.15294330000E+03 0.  0.
<mgrwt>
<rscale>  0 0.10690912E+04</rscale>
<asrwt>0</asrwt>
<pdfrwt beam="1">  1        2 0.69752373E+00 0.10690912E+04</pdfrwt>
<pdfrwt beam="2">  1       -2 0.10519481E+00 0.10690912E+04</pdfrwt>
<totfact> 0.88193293E-02</totfact>
</mgrwt>
</event>
<event>
 4    1  0.1701380E-008  0.7172333E+03  0.7818608E-02  0.9688207E-01
         -2   -1    0    0    0  501 -0.00000000000E+00  0.00000000000E+00  0.80876827966E+03  0.80876827966E+03  0.25500000000E-02 0.  1.
          2   -1    0    0  501    0  0.00000000000E+00 -0.00000000000E+00 -0.76042150855E+03  0.76042150855E+03  0.25500000000E-02 0. -1.
    8880022    1    1    2    0    0  0.68236563904E+03 -0.15940211271E+03  0.34146948009E+03  0.79437079360E+03  0.15294330000E+03 0.  0.
    8880022    1    1    2    0    0 -0.68236563904E+03  0.15940211271E+03 -0.29312270897E+03  0.77481899461E+03  0.15294330000E+03 0.  0.
<mgrwt>
<rscale>  0 0.71723326E+03</rscale>
<asrwt>0</asrwt>
<pdfrwt beam="1">  1        2 0.11698792E+00 0.71723326E+03</pdfrwt>
<pdfrwt beam="2">  1       -2 0.12442589E+00 0.71723326E+03</pdfrwt>
<totfact> 0.18183039E+01</totfact>
</mgrwt>
</event>
<event>
 4    1  0.1701380E-008  0.1270714E+04  0.7818608E-02  0.9053117E-01
          2   -1    0    0  501    0  0.00000000000E+00  0.00000000000E+00  0.29556334810E+04  0.29556334810E+04  0.25500000000E-02 0. -1.
         -2   -1    0    0    0  501 -0.00000000000E+00 -0.00000000000E+00 -0.72879934364E+03  0.72879934364E+03  0.25500000000E-02 0.  1.
    8880022    1    1    2    0    0 -0.72532005544E+03  0.10321008341E+04  0.20352389756E+04  0.23993563002E+04  0.15294330000E+03 0.  0.
    8880022    1    1    2    0    0  0.72532005544E+03 -0.10321008341E+04  0.19159516178E+03  0.12850765244E+04  0.15294330000E+03 0.  0.
<mgrwt>
<rscale>  0 0.12707136E+04</rscale>
<asrwt>0</asrwt>
<pdfrwt beam="1">  1        2 0.45471284E+00 0.12707136E+04</pdfrwt>
<pdfrwt beam="2">  1       -2 0.11212298E+00 0.12707136E+04</pdfrwt>
<totfact> 0.11397470E+00</totfact>
</mgrwt>
</event>
<event>
 4    1  0.1701380E-008  0.1233794E+04  0.7818608E-02  0.9083780E-01
         -2   -1    0    0    0  501 -0.00000000000E+00  0.00000000000E+00  0.21178324840E+04  0.21178324840E+04  0.25500000000E-02 0.  1.
          2   -1    0    0  501    0  0.00000000000E+00 -0.00000000000E+00 -0.11203882298E+04  0.11203882299E+04  0.25500000000E-02 0. -1.
    8880022    1    1    2    0    0 -0.12063816226E+04 -0.20856654289E+03 -0.47066079060E+03  0.13205187825E+04  0.15294330000E+03 0.  0.
    8880022    1    1    2    0    0  0.12063816226E+04  0.20856654289E+03  0.14681050448E+04  0.19177019314E+04  0.15294330000E+03 0.  0.
<mgrwt>
<rscale>  0 0.12337943E+04</rscale>
<asrwt>0</asrwt>
<pdfrwt beam="1">  1        2 0.17236742E+00 0.12337943E+04</pdfrwt>
<pdfrwt beam="2">  1       -2 0.32582038E+00 0.12337943E+04</pdfrwt>
<totfact> 0.45491626E-01</totfact>
</mgrwt>
</event>
<event>
 4    1  0.1701380E-008  0.1309526E+04  0.7818608E-02  0.9022045E-01
          2   -1    0    0  501    0  0.00000000000E+00  0.00000000000E+00  0.11244219549E+04  0.11244219549E+04  0.25500000000E-02 0. -1.
         -2   -1    0    0    0  501 -0.00000000000E+00 -0.00000000000E+00 -0.18771453889E+04  0.18771453889E+04  0.25500000000E-02 0.  1.
    8880022    1    1    2    0    0  0.11611591633E+04  0.58581121830E+03  0.27357019077E+03  0.13377958321E+04  0.15294330000E+03 0.  0.
    8880022    1    1    2    0    0 -0.11611591633E+04 -0.58581121830E+03 -0.10262936247E+04  0.16637715117E+04  0.15294330000E+03 0.  0.
<mgrwt>
<rscale>  0 0.13095255E+04</rscale>
<asrwt>0</asrwt>
<pdfrwt beam="1">  1        2 0.17298799E+00 0.13095255E+04</pdfrwt>
<pdfrwt beam="2">  1       -2 0.28879160E+00 0.13095255E+04</pdfrwt>
<totfact> 0.75502007E-01</totfact>
</mgrwt>
</event>
<event>
 4    1  0.1701380E-008  0.6230308E+03  0.7818608E-02  0.9858744E-01
         -2   -1    0    0    0  501 -0.00000000000E+00  0.00000000000E+00  0.13091401984E+04  0.13091401984E+04  0.25500000000E-02 0.  1.
          2   -1    0    0  501    0  0.00000000000E+00 -0.00000000000E+00 -0.46000972001E+03  0.46000972002E+03  0.25500000000E-02 0. -1.
    8880022    1    1    2    0    0  0.53897853684E+03  0.27253956328E+03 -0.10280492788E+03  0.63145560647E+03  0.15294330000E+03 0.  0.
    8880022    1    1    2    0    0 -0.53897853684E+03 -0.27253956328E+03  0.95193540625E+03  0.11376943119E+04  0.15294330000E+03 0.  0.
<mgrwt>
<rscale>  0 0.62303076E+03</rscale>
<asrwt>0</asrwt>
<pdfrwt beam="1">  1        2 0.70770727E-01 0.62303076E+03</pdfrwt>
<pdfrwt beam="2">  1       -2 0.20140618E+00 0.62303076E+03</pdfrwt>
<totfact> 0.91360968E+00</totfact>
</mgrwt>
</event>
<event>
 4    1  0.1701380E-008  0.7045571E+03  0.7818608E-02  0.9709471E-01
          2   -1    0    0  501    0  0.00000000000E+00  0.00000000000E+00  0.73325386102E+03  0.73325386102E+03  0.25500000000E-02 0. -1.
         -2   -1    0    0    0  501 -0.00000000000E+00 -0.00000000000E+00 -0.12764018650E+04  0.12764018650E+04  0.25500000000E-02 0.  1.
    8880022    1    1    2    0    0 -0.65230681799E+02 -0.68465610986E+03 -0.96016765735E+03  0.11909335052E+04  0.15294330000E+03 0.  0.
    8880022    1    1    2    0    0  0.65230681799E+02  0.68465610986E+03  0.41701965333E+03  0.81872222084E+03  0.15294330000E+03 0.  0.
<mgrwt>
<rscale>  0 0.70455708E+03</rscale>
<asrwt>0</asrwt>
<pdfrwt beam="1">  1        2 0.11280829E+00 0.70455708E+03</pdfrwt>
<pdfrwt beam="2">  1       -2 0.19636952E+00 0.70455708E+03</pdfrwt>
<totfact> 0.55723392E+00</totfact>
</mgrwt>
</event>
<event>
 4    1  0.1701380E-008  0.9375702E+03  0.7818608E-02  0.9379798E-01
          2   -1    0    0  501    0  0.00000000000E+00  0.00000000000E+00  0.15064156242E+04  0.15064156242E+04  0.25500000000E-02 0. -1.
         -2   -1    0    0    0  501 -0.00000000000E+00 -0.00000000000E+00 -0.13450397699E+04  0.13450397699E+04  0.25500000000E-02 0.  1.
    8880022    1    1    2    0    0  0.82235988254E+03  0.42352144325E+03 -0.99208283267E+03  0.13650150875E+04  0.15294330000E+03 0.  0.
    8880022    1    1    2    0    0 -0.82235988254E+03 -0.42352144325E+03  0.11534586870E+04  0.14864403065E+04  0.15294330000E+03 0.  0.
<mgrwt>
<rscale>  0 0.93757018E+03</rscale>
<asrwt>0</asrwt>
<pdfrwt beam="1">  1        2 0.23175625E+00 0.93757018E+03</pdfrwt>
<pdfrwt beam="2">  1       -2 0.20692920E+00 0.93757018E+03</pdfrwt>
<totfact> 0.15129878E+00</totfact>
</mgrwt>
</event>
<event>
 4    1  0.1701380E-008  0.5732453E+03  0.7818608E-02  0.9962523E-01
          2   -1    0    0  501    0  0.00000000000E+00  0.00000000000E+00  0.30453681993E+03  0.30453681994E+03  0.25500000000E-02 0. -1.
         -2   -1    0    0    0  501 -0.00000000000E+00 -0.00000000000E+00 -0.19966345913E+04  0.19966345913E+04  0.25500000000E-02 0.  1.
    8880022    1    1    2    0    0 -0.49022319958E+03  0.25475427890E+03 -0.16260459140E+04  0.17241332592E+04  0.15294330000E+03 0.  0.
    8880022    1    1    2    0    0  0.49022319958E+03 -0.25475427890E+03 -0.66051857350E+02  0.57703815203E+03  0.15294330000E+03 0.  0.
<mgrwt>
<rscale>  0 0.57324531E+03</rscale>
<asrwt>0</asrwt>
<pdfrwt beam="1">  1        2 0.46851820E-01 0.57324531E+03</pdfrwt>
<pdfrwt beam="2">  1       -2 0.30717454E+00 0.57324531E+03</pdfrwt>
<totfact> 0.33225922E+00</totfact>
</mgrwt>
</event>
<event>
 4    1  0.1701380E-008  0.6350725E+03  0.7818608E-02  0.9835200E-01
         -2   -1    0    0    0  501 -0.00000000000E+00  0.00000000000E+00  0.24939014284E+04  0.24939014284E+04  0.25500000000E-02 0.  1.
          2   -1    0    0  501    0  0.00000000000E+00 -0.00000000000E+00 -0.32315176022E+03  0.32315176023E+03  0.25500000000E-02 0. -1.
    8880022    1    1    2    0    0 -0.54608351326E+03  0.28586391497E+03  0.20809051784E+04  0.21756570032E+04  0.15294330000E+03 0.  0.
    8880022    1    1    2    0    0  0.54608351326E+03 -0.28586391497E+03  0.89844489843E+02  0.64139618544E+03  0.15294330000E+03 0.  0.
<mgrwt>
<rscale>  0 0.63507246E+03</rscale>
<asrwt>0</asrwt>
<pdfrwt beam="1">  1        2 0.49715656E-01 0.63507246E+03</pdfrwt>
<pdfrwt beam="2">  1       -2 0.38367713E+00 0.63507246E+03</pdfrwt>
<totfact> 0.10370562E+00</totfact>
</mgrwt>
</event>
<event>
 4    1  0.1701380E-008  0.1051057E+04  0.7818608E-02  0.9254253E-01
         -2   -1    0    0    0  501 -0.00000000000E+00  0.00000000000E+00  0.69739584181E+03  0.69739584182E+03  0.25500000000E-02 0.  1.
          2   -1    0    0  501    0  0.00000000000E+00 -0.00000000000E+00 -0.22648672666E+04  0.22648672666E+04  0.25500000000E-02 0. -1.
    8880022    1    1    2    0    0  0.62351467359E+03  0.83220145553E+03 -0.15957847223E+04  0.19108245193E+04  0.15294330000E+03 0.  0.
    8880022    1    1    2    0    0 -0.62351467359E+03 -0.83220145553E+03  0.28313297515E+02  0.10514385891E+04  0.15294330000E+03 0.  0.
<mgrwt>
<rscale>  0 0.10510573E+04</rscale>
<asrwt>0</asrwt>
<pdfrwt beam="1">  1        2 0.34844111E+00 0.10510573E+04</pdfrwt>
<pdfrwt beam="2">  1       -2 0.10729167E+00 0.10510573E+04</pdfrwt>
<totfact> 0.33029263E+00</totfact>
</mgrwt>
</event>
<event>
 4    1  0.1701380E-008  0.6447642E+03  0.7818608E-02  0.9816654E-01
         -2   -1    0    0    0  501 -0.00000000000E+00  0.00000000000E+00  0.60581541900E+03  0.60581541900E+03  0.25500000000E-02 0.  1.
          2   -1    0    0  501    0  0.00000000000E+00 -0.00000000000E+00 -0.40291645183E+04  0.40291645183E+04  0.25500000000E-02 0. -1.
    8880022    1    1    2    0    0 -0.37107597419E+03 -0.50461059420E+03  0.39926179390E+03  0.75837382832E+03  0.15294330000E+03 0.  0.
    8880022    1    1    2    0    0  0.37107597419E+03  0.50461059420E+03 -0.38226108932E+04  0.38766061090E+04  0.15294330000E+03 0.  0.
<mgrwt>
<rscale>  0 0.64476421E+03</rscale>
<asrwt>0</asrwt>
<pdfrwt beam="1">  1        2 0.61987145E+00 0.64476421E+03</pdfrwt>
<pdfrwt beam="2">  1       -2 0.93202375E-01 0.64476421E+03</pdfrwt>
<totfact> 0.36333339E-01</totfact>
</mgrwt>
</event>
<event>
 4    1  0.1701380E-008  0.1814286E+04  0.7818608E-02  0.8698739E-01
          2   -1    0    0  501    0  0.00000000000E+00  0.00000000000E+00  0.20375541560E+04  0.20375541560E+04  0.25500000000E-02 0. -1.
         -2   -1    0    0    0  501 -0.00000000000E+00 -0.00000000000E+00 -0.29207462484E+04  0.29207462484E+04  0.25500000000E-02 0.  1.
    8880022    1    1    2    0    0  0.16712581652E+04  0.68930154600E+03 -0.20989113549E+04  0.27743577644E+04  0.15294330000E+03 0.  0.
    8880022    1    1    2    0    0 -0.16712581652E+04 -0.68930154600E+03  0.12157192626E+04  0.21839426400E+04  0.15294330000E+03 0.  0.
<mgrwt>
<rscale>  0 0.18142856E+04</rscale>
<asrwt>0</asrwt>
<pdfrwt beam="1">  1        2 0.31346987E+00 0.18142856E+04</pdfrwt>
<pdfrwt beam="2">  1       -2 0.44934558E+00 0.18142856E+04</pdfrwt>
<totfact> 0.20098028E-02</totfact>
</mgrwt>
</event>
<event>
 4    1  0.1701380E-008  0.3520489E+03  0.7818608E-02  0.1061777E+00
          2   -1    0    0  501    0  0.00000000000E+00  0.00000000000E+00  0.25214887456E+04  0.25214887456E+04  0.25500000000E-02 0. -1.
         -2   -1    0    0    0  501 -0.00000000000E+00 -0.00000000000E+00 -0.96138851229E+02  0.96138851263E+02  0.25500000000E-02 0.  1.
    8880022    1    1    2    0    0  0.94949375302E+02 -0.30254150932E+03  0.21276569749E+04  0.21565858677E+04  0.15294330000E+03 0.  0.
    8880022    1    1    2    0    0 -0.94949375302E+02  0.30254150932E+03  0.29769291941E+03  0.46104172915E+03  0.15294330000E+03 0.  0.
<mgrwt>
<rscale>  0 0.35204886E+03</rscale>
<asrwt>0</asrwt>
<pdfrwt beam="1">  1        2 0.38792138E+00 0.35204886E+03</pdfrwt>
<pdfrwt beam="2">  1       -2 0.14790591E-01 0.35204886E+03</pdfrwt>
<totfact> 0.13439011E+02</totfact>
</mgrwt>
</event>
<event>
 4    1  0.1701380E-008  0.1075218E+04  0.7818608E-02  0.9229688E-01
          2   -1    0    0  501    0  0.00000000000E+00  0.00000000000E+00  0.89726389553E+03  0.89726389553E+03  0.25500000000E-02 0. -1.
         -2   -1    0    0    0  501 -0.00000000000E+00 -0.00000000000E+00 -0.14546511629E+04  0.14546511629E+04  0.25500000000E-02 0.  1.
    8880022    1    1    2    0    0  0.62047275929E+03  0.86470552253E+03 -0.67616765128E+03  0.12701560658E+04  0.15294330000E+03 0.  0.
    8880022    1    1    2    0    0 -0.62047275929E+03 -0.86470552253E+03  0.11878038386E+03  0.10817589927E+04  0.15294330000E+03 0.  0.
<mgrwt>
<rscale>  0 0.10752180E+04</rscale>
<asrwt>0</asrwt>
<pdfrwt beam="1">  1        2 0.13804060E+00 0.10752180E+04</pdfrwt>
<pdfrwt beam="2">  1       -2 0.22379249E+00 0.10752180E+04</pdfrwt>
<totfact> 0.27159727E+00</totfact>
</mgrwt>
</event>
<event>
 4    1  0.1701380E-008  0.4398069E+03  0.7818608E-02  0.1030806E+00
         -2   -1    0    0    0  501 -0.00000000000E+00  0.00000000000E+00  0.19343688156E+03  0.19343688158E+03  0.25500000000E-02 0.  1.
          2   -1    0    0  501    0  0.00000000000E+00 -0.00000000000E+00 -0.13318351038E+04  0.13318351038E+04  0.25500000000E-02 0. -1.
    8880022    1    1    2    0    0 -0.31546714232E+03 -0.26555397728E+03 -0.94989327689E+03  0.10467699476E+04  0.15294330000E+03 0.  0.
    8880022    1    1    2    0    0  0.31546714232E+03  0.26555397728E+03 -0.18850494539E+03  0.47850203781E+03  0.15294330000E+03 0.  0.
<mgrwt>
<rscale>  0 0.43980687E+03</rscale>
<asrwt>0</asrwt>
<pdfrwt beam="1">  1        2 0.20489770E+00 0.43980687E+03</pdfrwt>
<pdfrwt beam="2">  1       -2 0.29759521E-01 0.43980687E+03</pdfrwt>
<totfact> 0.17207069E+02</totfact>
</mgrwt>
</event>
<event>
 4    1  0.1701380E-008  0.7241533E+03  0.7818608E-02  0.9676796E-01
          2   -1    0    0  501    0  0.00000000000E+00  0.00000000000E+00  0.13661034901E+04  0.13661034901E+04  0.25500000000E-02 0. -1.
         -2   -1    0    0    0  501 -0.00000000000E+00 -0.00000000000E+00 -0.82844425850E+03  0.82844425851E+03  0.25500000000E-02 0.  1.
    8880022    1    1    2    0    0  0.34532226826E+02 -0.70697511089E+03 -0.53498978700E+03  0.90033993986E+03  0.15294330000E+03 0.  0.
    8880022    1    1    2    0    0 -0.34532226826E+02  0.70697511089E+03  0.10726490186E+04  0.12942078087E+04  0.15294330000E+03 0.  0.
<mgrwt>
<rscale>  0 0.72415325E+03</rscale>
<asrwt>0</asrwt>
<pdfrwt beam="1">  1        2 0.21016977E+00 0.72415325E+03</pdfrwt>
<pdfrwt beam="2">  1       -2 0.12745296E+00 0.72415325E+03</pdfrwt>
<totfact> 0.70938273E+00</totfact>
</mgrwt>
</event>
<event>
 4    1  0.1701380E-008  0.1151764E+04  0.7818608E-02  0.9156158E-01
          2   -1    0    0  501    0  0.00000000000E+00  0.00000000000E+00  0.37183277337E+04  0.37183277337E+04  0.25500000000E-02 0. -1.
         -2   -1    0    0    0  501 -0.00000000000E+00 -0.00000000000E+00 -0.11004486817E+04  0.11004486817E+04  0.25500000000E-02 0.  1.
    8880022    1    1    2    0    0  0.51698212064E+03 -0.10177903078E+04  0.32896307987E+04  0.34854311166E+04  0.15294330000E+03 0.  0.
    8880022    1    1    2    0    0 -0.51698212064E+03  0.10177903078E+04 -0.67175174670E+03  0.13333452989E+04  0.15294330000E+03 0.  0.
<mgrwt>
<rscale>  0 0.11517636E+04</rscale>
<asrwt>0</asrwt>
<pdfrwt beam="1">  1        2 0.57205042E+00 0.11517636E+04</pdfrwt>
<pdfrwt beam="2">  1       -2 0.16929980E+00 0.11517636E+04</pdfrwt>
<totfact> 0.12287460E-01</totfact>
</mgrwt>
</event>
<event>
 4    1  0.1701380E-008  0.2128826E+03  0.7818608E-02  0.1139303E+00
          2   -1    0    0  501    0  0.00000000000E+00  0.00000000000E+00  0.26077704065E+03  0.26077704066E+03  0.25500000000E-02 0. -1.
         -2   -1    0    0    0  501 -0.00000000000E+00 -0.00000000000E+00 -0.33734790575E+03  0.33734790576E+03  0.25500000000E-02 0.  1.
    8880022    1    1    2    0    0  0.21957861531E+02  0.14644177687E+03 -0.24652634094E+03  0.32572109463E+03  0.15294330000E+03 0.  0.
    8880022    1    1    2    0    0 -0.21957861531E+02 -0.14644177687E+03  0.16995547583E+03  0.27240385180E+03  0.15294330000E+03 0.  0.
<mgrwt>
<rscale>  0 0.21288258E+03</rscale>
<asrwt>0</asrwt>
<pdfrwt beam="1">  1        2 0.40119545E-01 0.21288258E+03</pdfrwt>
<pdfrwt beam="2">  1       -2 0.51899678E-01 0.21288258E+03</pdfrwt>
<totfact> 0.45573795E+02</totfact>
</mgrwt>
</event>
<event>
 4    1  0.1701380E-008  0.1048824E+04  0.7818608E-02  0.9256559E-01
         -2   -1    0    0    0  501 -0.00000000000E+00  0.00000000000E+00  0.10947438846E+04  0.10947438846E+04  0.25500000000E-02 0.  1.
          2   -1    0    0  501    0  0.00000000000E+00 -0.00000000000E+00 -0.15879553991E+04  0.15879553991E+04  0.25500000000E-02 0. -1.
    8880022    1    1    2    0    0  0.53489943753E+03  0.88911391211E+03 -0.10594427273E+04  0.14907888859E+04  0.15294330000E+03 0.  0.
    8880022    1    1    2    0    0 -0.53489943753E+03 -0.88911391211E+03  0.56623121281E+03  0.11919103978E+04  0.15294330000E+03 0.  0.
<mgrwt>
<rscale>  0 0.10488244E+04</rscale>
<asrwt>0</asrwt>
<pdfrwt beam="1">  1        2 0.24430083E+00 0.10488244E+04</pdfrwt>
<pdfrwt beam="2">  1       -2 0.16842214E+00 0.10488244E+04</pdfrwt>
<totfact> 0.24459420E+00</totfact>
</mgrwt>
</event>
<event>
 4    1  0.1701380E-008  0.7920951E+03  0.7818608E-02  0.9571530E-01
          2   -1    0    0  501    0  0.00000000000E+00  0.00000000000E+00  0.14237930643E+04  0.14237930643E+04  0.25500000000E-02 0. -1.
         -2   -1    0    0    0  501 -0.00000000000E+00 -0.00000000000E+00 -0.77744920797E+03  0.77744920798E+03  0.25500000000E-02 0.  1.
    8880022    1    1    2    0    0 -0.26763216763E+03  0.72965476864E+03  0.10475714834E+04  0.13133243028E+04  0.15294330000E+03 0.  0.
    8880022    1    1    2    0    0  0.26763216763E+03 -0.72965476864E+03 -0.40122762715E+03  0.88791796938E+03  0.15294330000E+03 0.  0.
<mgrwt>
<rscale>  0 0.79209514E+03</rscale>
<asrwt>0</asrwt>
<pdfrwt beam="1">  1        2 0.21904508E+00 0.79209514E+03</pdfrwt>
<pdfrwt beam="2">  1       -2 0.11960757E+00 0.79209514E+03</pdfrwt>
<totfact> 0.76416211E+00</totfact>
</mgrwt>
</event>
<event>
 4    1  0.1701380E-008  0.9350012E+03  0.7818608E-02  0.9382856E-01
          2   -1    0    0  501    0  0.00000000000E+00  0.00000000000E+00  0.25697278996E+04  0.25697278996E+04  0.25500000000E-02 0. -1.
         -2   -1    0    0    0  501 -0.00000000000E+00 -0.00000000000E+00 -0.65698858912E+03  0.65698858913E+03  0.25500000000E-02 0.  1.
    8880022    1    1    2    0    0 -0.84516314293E+03  0.36950623536E+03  0.20766716581E+04  0.22774530565E+04  0.15294330000E+03 0.  0.
    8880022    1    1    2    0    0  0.84516314293E+03 -0.36950623536E+03 -0.16393234760E+03  0.94926343222E+03  0.15294330000E+03 0.  0.
<mgrwt>
<rscale>  0 0.93500120E+03</rscale>
<asrwt>0</asrwt>
<pdfrwt beam="1">  1        2 0.39534275E+00 0.93500120E+03</pdfrwt>
<pdfrwt beam="2">  1       -2 0.10107517E+00 0.93500120E+03</pdfrwt>
<totfact> 0.26030296E+00</totfact>
</mgrwt>
</event>
<event>
 4    1  0.1701380E-008  0.1285316E+04  0.7818608E-02  0.9041291E-01
         -2   -1    0    0    0  501 -0.00000000000E+00  0.00000000000E+00  0.18916714511E+04  0.18916714511E+04  0.25500000000E-02 0.  1.
          2   -1    0    0  501    0  0.00000000000E+00 -0.00000000000E+00 -0.10317627917E+04  0.10317627917E+04  0.25500000000E-02 0. -1.
    8880022    1    1    2    0    0 -0.66769182798E+03 -0.10875819156E+04 -0.14285065704E+03  0.12932303598E+04  0.15294330000E+03 0.  0.
    8880022    1    1    2    0    0  0.66769182798E+03  0.10875819156E+04  0.10027593165E+04  0.16302038830E+04  0.15294330000E+03 0.  0.
<mgrwt>
<rscale>  0 0.12853165E+04</rscale>
<asrwt>0</asrwt>
<pdfrwt beam="1">  1        2 0.15873274E+00 0.12853165E+04</pdfrwt>
<pdfrwt beam="2">  1       -2 0.29102638E+00 0.12853165E+04</pdfrwt>
<totfact> 0.83893898E-01</totfact>
</mgrwt>
</event>
<event>
 4    1  0.1701380E-008  0.4792725E+03  0.7818608E-02  0.1019335E+00
          2   -1    0    0  501    0  0.00000000000E+00  0.00000000000E+00  0.10361033915E+04  0.10361033915E+04  0.25500000000E-02 0. -1.
         -2   -1    0    0    0  501 -0.00000000000E+00 -0.00000000000E+00 -0.91821033582E+03  0.91821033583E+03  0.25500000000E-02 0.  1.
    8880022    1    1    2    0    0  0.23829129315E+03 -0.38668811928E+03 -0.79210840052E+03  0.92581737572E+03  0.15294330000E+03 0.  1.
    8880022    1    1    2    0    0 -0.23829129315E+03  0.38668811928E+03  0.91000145619E+03  0.10284963516E+04  0.15294330000E+03 0.  0.
<mgrwt>
<rscale>  0 0.47927246E+03</rscale>
<asrwt>0</asrwt>
<pdfrwt beam="1">  1        2 0.15940052E+00 0.47927246E+03</pdfrwt>
<pdfrwt beam="2">  1       -2 0.14126313E+00 0.47927246E+03</pdfrwt>
<totfact> 0.89006536E+00</totfact>
</mgrwt>
</event>
<event>
 4    1  0.1701380E-008  0.2099934E+03  0.7818608E-02  0.1141571E+00
         -2   -1    0    0    0  501 -0.00000000000E+00  0.00000000000E+00  0.33111231234E+03  0.33111231235E+03  0.25500000000E-02 0.  1.
          2   -1    0    0  501    0  0.00000000000E+00 -0.00000000000E+00 -0.37230332409E+04  0.37230332409E+04  0.25500000000E-02 0. -1.
    8880022    1    1    2    0    0 -0.43938826481E+02 -0.13702170016E+03 -0.36864472074E+04  0.36924233550E+04  0.15294330000E+03 0.  0.
    8880022    1    1    2    0    0  0.43938826481E+02  0.13702170016E+03  0.29452627881E+03  0.36172219826E+03  0.15294330000E+03 0.  0.
<mgrwt>
<rscale>  0 0.20999338E+03</rscale>
<asrwt>0</asrwt>
<pdfrwt beam="1">  1        2 0.57277431E+00 0.20999338E+03</pdfrwt>
<pdfrwt beam="2">  1       -2 0.50940358E-01 0.20999338E+03</pdfrwt>
<totfact> 0.28157056E+00</totfact>
</mgrwt>
</event>
<event>
 4    1  0.1701380E-008  0.1053318E+04  0.7818608E-02  0.9251925E-01
          2   -1    0    0  501    0  0.00000000000E+00  0.00000000000E+00  0.18511318299E+04  0.18511318299E+04  0.25500000000E-02 0. -1.
         -2   -1    0    0    0  501 -0.00000000000E+00 -0.00000000000E+00 -0.88435599131E+03  0.88435599131E+03  0.25500000000E-02 0.  1.
    8880022    1    1    2    0    0  0.37272182018E+03  0.97322446164E+03  0.12598440207E+04  0.16421589501E+04  0.15294330000E+03 0.  0.
    8880022    1    1    2    0    0 -0.37272182018E+03 -0.97322446164E+03 -0.29306818211E+03  0.10933288711E+04  0.15294330000E+03 0.  0.
<mgrwt>
<rscale>  0 0.10533181E+04</rscale>
<asrwt>0</asrwt>
<pdfrwt beam="1">  1        2 0.28478951E+00 0.10533181E+04</pdfrwt>
<pdfrwt beam="2">  1       -2 0.13605477E+00 0.10533181E+04</pdfrwt>
<totfact> 0.30940449E+00</totfact>
</mgrwt>
</event>
<event>
 4    1  0.1701380E-008  0.2618600E+03  0.7818608E-02  0.1106031E+00
          2   -1    0    0  501    0  0.00000000000E+00  0.00000000000E+00  0.25171976477E+04  0.25171976477E+04  0.25500000000E-02 0. -1.
         -2   -1    0    0    0  501 -0.00000000000E+00 -0.00000000000E+00 -0.10300226656E+04  0.10300226656E+04  0.25500000000E-02 0.  1.
    8880022    1    1    2    0    0 -0.13820251248E+03  0.16149023143E+03  0.24935872730E+04  0.25072989791E+04  0.15294330000E+03 0.  0.
    8880022    1    1    2    0    0  0.13820251248E+03 -0.16149023143E+03 -0.10064122909E+04  0.10399213343E+04  0.15294330000E+03 0.  1.
<mgrwt>
<rscale>  0 0.26186004E+03</rscale>
<asrwt>0</asrwt>
<pdfrwt beam="1">  1        2 0.38726117E+00 0.26186004E+03</pdfrwt>
<pdfrwt beam="2">  1       -2 0.15846503E+00 0.26186004E+03</pdfrwt>
<totfact> 0.11061132E+00</totfact>
</mgrwt>
</event>
<event>
 4    1  0.1701380E-008  0.5966479E+03  0.7818608E-02  0.9912385E-01
          2   -1    0    0  501    0  0.00000000000E+00  0.00000000000E+00  0.19544221565E+04  0.19544221565E+04  0.25500000000E-02 0. -1.
         -2   -1    0    0    0  501 -0.00000000000E+00 -0.00000000000E+00 -0.25931751812E+03  0.25931751813E+03  0.25500000000E-02 0.  1.
    8880022    1    1    2    0    0 -0.51667638460E+03 -0.25620809745E+03  0.24372711978E+03  0.64450883433E+03  0.15294330000E+03 0.  0.
    8880022    1    1    2    0    0  0.51667638460E+03  0.25620809745E+03  0.14513775186E+04  0.15692308403E+04  0.15294330000E+03 0.  0.
<mgrwt>
<rscale>  0 0.59664791E+03</rscale>
<asrwt>0</asrwt>
<pdfrwt beam="1">  1        2 0.30068034E+00 0.59664791E+03</pdfrwt>
<pdfrwt beam="2">  1       -2 0.39895002E-01 0.59664791E+03</pdfrwt>
<totfact> 0.44278041E+01</totfact>
</mgrwt>
</event>
<event>
 4    1  0.1701380E-008  0.6174590E+03  0.7818608E-02  0.9869832E-01
          2   -1    0    0  501    0  0.00000000000E+00  0.00000000000E+00  0.26003204869E+04  0.26003204869E+04  0.25500000000E-02 0. -1.
         -2   -1    0    0    0  501 -0.00000000000E+00 -0.00000000000E+00 -0.33821782826E+03  0.33821782827E+03  0.25500000000E-02 0.  1.
    8880022    1    1    2    0    0  0.32399180922E+03  0.50288492728E+03  0.25192004684E+02  0.61797267952E+03  0.15294330000E+03 0.  0.
    8880022    1    1    2    0    0 -0.32399180922E+03 -0.50288492728E+03  0.22369106540E+04  0.23205656357E+04  0.15294330000E+03 0.  0.
<mgrwt>
<rscale>  0 0.61745898E+03</rscale>
<asrwt>0</asrwt>
<pdfrwt beam="1">  1        2 0.40004931E+00 0.61745898E+03</pdfrwt>
<pdfrwt beam="2">  1       -2 0.52033511E-01 0.61745898E+03</pdfrwt>
<totfact> 0.11424959E+01</totfact>
</mgrwt>
</event>
<event>
 4    1  0.1701380E-008  0.4350386E+03  0.7818608E-02  0.1032280E+00
         -2   -1    0    0    0  501 -0.00000000000E+00  0.00000000000E+00  0.77433210428E+03  0.77433210429E+03  0.25500000000E-02 0.  1.
          2   -1    0    0  501    0  0.00000000000E+00 -0.00000000000E+00 -0.24651169912E+03  0.24651169913E+03  0.25500000000E-02 0. -1.
    8880022    1    1    2    0    0  0.30419064440E+03  0.27080437964E+03  0.21683983712E+03  0.48608448664E+03  0.15294330000E+03 0.  0.
    8880022    1    1    2    0    0 -0.30419064440E+03 -0.27080437964E+03  0.31098056804E+03  0.53475931678E+03  0.15294330000E+03 0.  0.
<mgrwt>
<rscale>  0 0.43503863E+03</rscale>
<asrwt>0</asrwt>
<pdfrwt beam="1">  1        2 0.37924877E-01 0.43503863E+03</pdfrwt>
<pdfrwt beam="2">  1       -2 0.11912802E+00 0.43503863E+03</pdfrwt>
<totfact> 0.76045041E+01</totfact>
</mgrwt>
</event>
<event>
 4    1  0.1701380E-008  0.1539070E+04  0.7818608E-02  0.8858880E-01
          2   -1    0    0  501    0  0.00000000000E+00  0.00000000000E+00  0.19537399819E+04  0.19537399819E+04  0.25500000000E-02 0. -1.
         -2   -1    0    0    0  501 -0.00000000000E+00 -0.00000000000E+00 -0.14242146730E+04  0.14242146730E+04  0.25500000000E-02 0.  1.
    8880022    1    1    2    0    0 -0.12278683023E+04  0.91525070744E+03 -0.38656979162E+03  0.15868750052E+04  0.15294330000E+03 0.  0.
    8880022    1    1    2    0    0  0.12278683023E+04 -0.91525070744E+03  0.91609510060E+03  0.17910796497E+04  0.15294330000E+03 0.  0.
<mgrwt>
<rscale>  0 0.15390699E+04</rscale>
<asrwt>0</asrwt>
<pdfrwt beam="1">  1        2 0.30057538E+00 0.15390699E+04</pdfrwt>
<pdfrwt beam="2">  1       -2 0.21910995E+00 0.15390699E+04</pdfrwt>
<totfact> 0.66351098E-01</totfact>
</mgrwt>
</event>
<event>
 4    1  0.1701380E-008  0.5895758E+03  0.7818608E-02  0.9927272E-01
          2   -1    0    0  501    0  0.00000000000E+00  0.00000000000E+00  0.67123083614E+03  0.67123083615E+03  0.25500000000E-02 0. -1.
         -2   -1    0    0    0  501 -0.00000000000E+00 -0.00000000000E+00 -0.65009618589E+03  0.65009618590E+03  0.25500000000E-02 0.  1.
    8880022    1    1    2    0    0 -0.53172437023E+03 -0.20365948175E+03  0.30853993883E+03  0.66542958851E+03  0.15294330000E+03 0.  0.
    8880022    1    1    2    0    0  0.53172437023E+03  0.20365948175E+03 -0.28740528858E+03  0.65589743353E+03  0.15294330000E+03 0.  0.
<mgrwt>
<rscale>  0 0.58957582E+03</rscale>
<asrwt>0</asrwt>
<pdfrwt beam="1">  1        2 0.10326628E+00 0.58957582E+03</pdfrwt>
<pdfrwt beam="2">  1       -2 0.10001480E+00 0.58957582E+03</pdfrwt>
<totfact> 0.36661082E+01</totfact>
</mgrwt>
</event>
<event>
 4    1  0.1701380E-008  0.6933691E+03  0.7818608E-02  0.9728640E-01
          2   -1    0    0  501    0  0.00000000000E+00  0.00000000000E+00  0.44787870378E+03  0.44787870379E+03  0.25500000000E-02 0. -1.
         -2   -1    0    0    0  501 -0.00000000000E+00 -0.00000000000E+00 -0.10763351258E+04  0.10763351258E+04  0.25500000000E-02 0.  1.
    8880022    1    1    2    0    0 -0.55694171149E+03  0.38364690150E+03 -0.35390945394E+03  0.77846809159E+03  0.15294330000E+03 0.  1.
    8880022    1    1    2    0    0  0.55694171149E+03 -0.38364690150E+03 -0.27454696804E+03  0.74574573797E+03  0.15294330000E+03 0. -1.
<mgrwt>
<rscale>  0 0.69336907E+03</rscale>
<asrwt>0</asrwt>
<pdfrwt beam="1">  1        2 0.68904416E-01 0.69336907E+03</pdfrwt>
<pdfrwt beam="2">  1       -2 0.16559002E+00 0.69336907E+03</pdfrwt>
<totfact> 0.16351300E+01</totfact>
</mgrwt>
</event>
<event>
 4    1  0.1701380E-008  0.1134625E+04  0.7818608E-02  0.9172086E-01
         -2   -1    0    0    0  501 -0.00000000000E+00  0.00000000000E+00  0.22216452346E+04  0.22216452346E+04  0.25500000000E-02 0.  1.
          2   -1    0    0  501    0  0.00000000000E+00 -0.00000000000E+00 -0.11335928960E+04  0.11335928960E+04  0.25500000000E-02 0. -1.
    8880022    1    1    2    0    0 -0.11222180512E+04  0.67889138867E+02  0.17169460312E+04  0.20579790127E+04  0.15294330000E+03 0.  0.
    8880022    1    1    2    0    0  0.11222180512E+04 -0.67889138867E+02 -0.62889369259E+03  0.12972591180E+04  0.15294330000E+03 0.  0.
<mgrwt>
<rscale>  0 0.11346250E+04</rscale>
<asrwt>0</asrwt>
<pdfrwt beam="1">  1        2 0.17439891E+00 0.11346250E+04</pdfrwt>
<pdfrwt beam="2">  1       -2 0.34179157E+00 0.11346250E+04</pdfrwt>
<totfact> 0.36031000E-01</totfact>
</mgrwt>
</event>
<event>
 4    1  0.1701380E-008  0.5160470E+03  0.7818608E-02  0.1009673E+00
         -2   -1    0    0    0  501 -0.00000000000E+00  0.00000000000E+00  0.66293518103E+03  0.66293518103E+03  0.25500000000E-02 0.  1.
          2   -1    0    0  501    0  0.00000000000E+00 -0.00000000000E+00 -0.50790565807E+03  0.50790565807E+03  0.25500000000E-02 0. -1.
    8880022    1    1    2    0    0  0.28157493839E+03 -0.40451007633E+03 -0.19017980916E+03  0.54997532727E+03  0.15294330000E+03 0.  0.
    8880022    1    1    2    0    0 -0.28157493839E+03  0.40451007633E+03  0.34520933212E+03  0.62086551183E+03  0.15294330000E+03 0.  0.
<mgrwt>
<rscale>  0 0.51604699E+03</rscale>
<asrwt>0</asrwt>
<pdfrwt beam="1">  1        2 0.78139332E-01 0.51604699E+03</pdfrwt>
<pdfrwt beam="2">  1       -2 0.10199003E+00 0.51604699E+03</pdfrwt>
<totfact> 0.49133807E+01</totfact>
</mgrwt>
</event>
<event>
 4    1  0.1701380E-008  0.1277957E+04  0.7818608E-02  0.9047230E-01
         -2   -1    0    0    0  501 -0.00000000000E+00  0.00000000000E+00  0.14313195070E+04  0.14313195070E+04  0.25500000000E-02 0.  1.
          2   -1    0    0  501    0  0.00000000000E+00 -0.00000000000E+00 -0.24209033706E+04  0.24209033706E+04  0.25500000000E-02 0. -1.
    8880022    1    1    2    0    0  0.12309032931E+04  0.30766898792E+03  0.90568714718E+03  0.15663473385E+04  0.15294330000E+03 0.  0.
    8880022    1    1    2    0    0 -0.12309032931E+04 -0.30766898792E+03 -0.18952710108E+04  0.22858755392E+04  0.15294330000E+03 0.  0.
<mgrwt>
<rscale>  0 0.12779573E+04</rscale>
<asrwt>0</asrwt>
<pdfrwt beam="1">  1        2 0.37244667E+00 0.12779573E+04</pdfrwt>
<pdfrwt beam="2">  1       -2 0.22020300E+00 0.12779573E+04</pdfrwt>
<totfact> 0.36756200E-01</totfact>
</mgrwt>
</event>
<event>
 4    1  0.1701380E-008  0.7710507E+03  0.7818608E-02  0.9602892E-01
         -2   -1    0    0    0  501 -0.00000000000E+00  0.00000000000E+00  0.64938396438E+03  0.64938396438E+03  0.25500000000E-02 0.  1.
          2   -1    0    0  501    0  0.00000000000E+00 -0.00000000000E+00 -0.25869165486E+04  0.25869165486E+04  0.25500000000E-02 0. -1.
    8880022    1    1    2    0    0  0.93911948345E+02  0.74987203890E+03 -0.22694399741E+04  0.23968472997E+04  0.15294330000E+03 0.  0.
    8880022    1    1    2    0    0 -0.93911948345E+02 -0.74987203890E+03  0.33190738994E+03  0.83945321327E+03  0.15294330000E+03 0.  0.
<mgrwt>
<rscale>  0 0.77105070E+03</rscale>
<asrwt>0</asrwt>
<pdfrwt beam="1">  1        2 0.39798715E+00 0.77105070E+03</pdfrwt>
<pdfrwt beam="2">  1       -2 0.99905227E-01 0.77105070E+03</pdfrwt>
<totfact> 0.26898844E+00</totfact>
</mgrwt>
</event>
<event>
 4    1  0.1701380E-008  0.1100239E+04  0.7818608E-02  0.9204959E-01
         -2   -1    0    0    0  501 -0.00000000000E+00  0.00000000000E+00  0.11711358733E+04  0.11711358733E+04  0.25500000000E-02 0.  1.
          2   -1    0    0  501    0  0.00000000000E+00 -0.00000000000E+00 -0.11564014559E+04  0.11564014559E+04  0.25500000000E-02 0. -1.
    8880022    1    1    2    0    0  0.54506142698E+03 -0.94342034593E+03  0.38655506409E+03  0.11661691039E+04  0.15294330000E+03 0.  0.
    8880022    1    1    2    0    0 -0.54506142698E+03  0.94342034593E+03 -0.37182064670E+03  0.11613682252E+04  0.15294330000E+03 0.  0.
<mgrwt>
<rscale>  0 0.11002389E+04</rscale>
<asrwt>0</asrwt>
<pdfrwt beam="1">  1        2 0.17790792E+00 0.11002389E+04</pdfrwt>
<pdfrwt beam="2">  1       -2 0.18017475E+00 0.11002389E+04</pdfrwt>
<totfact> 0.35692558E+00</totfact>
</mgrwt>
</event>
<event>
 4    1  0.1701380E-008  0.8828288E+03  0.7818608E-02  0.9447305E-01
         -2   -1    0    0    0  501 -0.00000000000E+00  0.00000000000E+00  0.53179771059E+03  0.53179771060E+03  0.25500000000E-02 0.  1.
          2   -1    0    0  501    0  0.00000000000E+00 -0.00000000000E+00 -0.24290733341E+04  0.24290733341E+04  0.25500000000E-02 0. -1.
    8880022    1    1    2    0    0 -0.82321160747E+03  0.27985293185E+03 -0.18810240156E+04  0.20778926860E+04  0.15294330000E+03 0.  0.
    8880022    1    1    2    0    0  0.82321160747E+03 -0.27985293185E+03 -0.16251607865E+02  0.88297835869E+03  0.15294330000E+03 0.  0.
<mgrwt>
<rscale>  0 0.88282879E+03</rscale>
<asrwt>0</asrwt>
<pdfrwt beam="1">  1        2 0.37370358E+00 0.88282879E+03</pdfrwt>
<pdfrwt beam="2">  1       -2 0.81815034E-01 0.88282879E+03</pdfrwt>
<totfact> 0.51543207E+00</totfact>
</mgrwt>
</event>
<event>
 4    1  0.1701380E-008  0.7653452E+03  0.7818608E-02  0.9611579E-01
         -2   -1    0    0    0  501 -0.00000000000E+00  0.00000000000E+00  0.94880497881E+03  0.94880497881E+03  0.25500000000E-02 0.  1.
          2   -1    0    0  501    0  0.00000000000E+00 -0.00000000000E+00 -0.10700317066E+04  0.10700317066E+04  0.25500000000E-02 0. -1.
    8880022    1    1    2    0    0 -0.23185346814E+02 -0.74954928053E+03 -0.71715912475E+03  0.10488424798E+04  0.15294330000E+03 0.  0.
    8880022    1    1    2    0    0  0.23185346814E+02  0.74954928053E+03  0.59593239692E+03  0.96999420563E+03  0.15294330000E+03 0.  0.
<mgrwt>
<rscale>  0 0.76534524E+03</rscale>
<asrwt>0</asrwt>
<pdfrwt beam="1">  1        2 0.16462026E+00 0.76534524E+03</pdfrwt>
<pdfrwt beam="2">  1       -2 0.14597000E+00 0.76534524E+03</pdfrwt>
<totfact> 0.74474865E+00</totfact>
</mgrwt>
</event>
<event>
 4    1  0.1701380E-008  0.8797549E+03  0.7818608E-02  0.9451249E-01
          2   -1    0    0  501    0  0.00000000000E+00  0.00000000000E+00  0.18991061227E+04  0.18991061227E+04  0.25500000000E-02 0. -1.
         -2   -1    0    0    0  501 -0.00000000000E+00 -0.00000000000E+00 -0.65437151269E+03  0.65437151270E+03  0.25500000000E-02 0.  1.
    8880022    1    1    2    0    0 -0.86634439929E+03  0.49399816870E+01 -0.16176066633E+03  0.89450276008E+03  0.15294330000E+03 0.  1.
    8880022    1    1    2    0    0  0.86634439929E+03 -0.49399816870E+01  0.14064952764E+04  0.16589748754E+04  0.15294330000E+03 0.  0.
<mgrwt>
<rscale>  0 0.87975489E+03</rscale>
<asrwt>0</asrwt>
<pdfrwt beam="1">  1        2 0.29217017E+00 0.87975489E+03</pdfrwt>
<pdfrwt beam="2">  1       -2 0.10067254E+00 0.87975489E+03</pdfrwt>
<totfact> 0.62679269E+00</totfact>
</mgrwt>
</event>
<event>
 4    1  0.1701380E-008  0.9347358E+03  0.7818608E-02  0.9383172E-01
         -2   -1    0    0    0  501 -0.00000000000E+00  0.00000000000E+00  0.37753989632E+03  0.37753989632E+03  0.25500000000E-02 0.  1.
          2   -1    0    0  501    0  0.00000000000E+00 -0.00000000000E+00 -0.30476067052E+04  0.30476067052E+04  0.25500000000E-02 0. -1.
    8880022    1    1    2    0    0 -0.64593654712E+03  0.65810740580E+03 -0.49495460253E+03  0.10576913974E+04  0.15294330000E+03 0.  0.
    8880022    1    1    2    0    0  0.64593654712E+03 -0.65810740580E+03 -0.21751122064E+04  0.23674552042E+04  0.15294330000E+03 0.  0.
<mgrwt>
<rscale>  0 0.93473581E+03</rscale>
<asrwt>0</asrwt>
<pdfrwt beam="1">  1        2 0.46886255E+00 0.93473581E+03</pdfrwt>
<pdfrwt beam="2">  1       -2 0.58083063E-01 0.93473581E+03</pdfrwt>
<totfact> 0.46605921E+00</totfact>
</mgrwt>
</event>
<event>
 4    1  0.1701380E-008  0.2666953E+03  0.7818608E-02  0.1103186E+00
          2   -1    0    0  501    0  0.00000000000E+00  0.00000000000E+00  0.97815786752E+03  0.97815786752E+03  0.25500000000E-02 0. -1.
         -2   -1    0    0    0  501 -0.00000000000E+00 -0.00000000000E+00 -0.77800023137E+03  0.77800023137E+03  0.25500000000E-02 0.  1.
    8880022    1    1    2    0    0  0.21142657341E+03  0.55077375799E+02  0.93611729931E+03  0.97336630533E+03  0.15294330000E+03 0. -1.
    8880022    1    1    2    0    0 -0.21142657341E+03 -0.55077375799E+02 -0.73595966316E+03  0.78279179357E+03  0.15294330000E+03 0.  0.
<mgrwt>
<rscale>  0 0.26669527E+03</rscale>
<asrwt>0</asrwt>
<pdfrwt beam="1">  1        2 0.15048583E+00 0.26669527E+03</pdfrwt>
<pdfrwt beam="2">  1       -2 0.11969234E+00 0.26669527E+03</pdfrwt>
<totfact> 0.15419828E+01</totfact>
</mgrwt>
</event>
<event>
 4    1  0.1701380E-008  0.1869559E+04  0.7818608E-02  0.8670159E-01
         -2   -1    0    0    0  501 -0.00000000000E+00  0.00000000000E+00  0.10839425843E+04  0.10839425843E+04  0.25500000000E-02 0.  1.
          2   -1    0    0  501    0  0.00000000000E+00 -0.00000000000E+00 -0.38576431578E+04  0.38576431578E+04  0.25500000000E-02 0. -1.
    8880022    1    1    2    0    0 -0.13102057454E+04 -0.13248468928E+04 -0.23877760150E+04  0.30326101522E+04  0.15294330000E+03 0.  0.
    8880022    1    1    2    0    0  0.13102057454E+04  0.13248468928E+04 -0.38592455857E+03  0.19089755898E+04  0.15294330000E+03 0.  0.
<mgrwt>
<rscale>  0 0.18695588E+04</rscale>
<asrwt>0</asrwt>
<pdfrwt beam="1">  1        2 0.59348356E+00 0.18695588E+04</pdfrwt>
<pdfrwt beam="2">  1       -2 0.16676040E+00 0.18695588E+04</pdfrwt>
<totfact> 0.91099466E-02</totfact>
</mgrwt>
</event>
<event>
 4    1  0.1701380E-008  0.1781500E+04  0.7818608E-02  0.8716200E-01
         -2   -1    0    0    0  501 -0.00000000000E+00  0.00000000000E+00  0.17238311521E+04  0.17238311521E+04  0.25500000000E-02 0.  1.
          2   -1    0    0  501    0  0.00000000000E+00 -0.00000000000E+00 -0.29796023223E+04  0.29796023223E+04  0.25500000000E-02 0. -1.
    8880022    1    1    2    0    0 -0.93736957622E+03  0.15072128252E+04  0.82580842826E+03  0.19635945193E+04  0.15294330000E+03 0.  0.
    8880022    1    1    2    0    0  0.93736957622E+03 -0.15072128252E+04 -0.20815795984E+04  0.27398389552E+04  0.15294330000E+03 0.  0.
<mgrwt>
<rscale>  0 0.17815005E+04</rscale>
<asrwt>0</asrwt>
<pdfrwt beam="1">  1        2 0.45840036E+00 0.17815005E+04</pdfrwt>
<pdfrwt beam="2">  1       -2 0.26520479E+00 0.17815005E+04</pdfrwt>
<totfact> 0.84414317E-02</totfact>
</mgrwt>
</event>
<event>
 4    1  0.1701380E-008  0.3092697E+03  0.7818608E-02  0.1080696E+00
          2   -1    0    0  501    0  0.00000000000E+00  0.00000000000E+00  0.14605667188E+04  0.14605667188E+04  0.25500000000E-02 0. -1.
         -2   -1    0    0    0  501 -0.00000000000E+00 -0.00000000000E+00 -0.22157917760E+03  0.22157917762E+03  0.25500000000E-02 0.  1.
    8880022    1    1    2    0    0 -0.23035912071E+03 -0.13853080916E+03 -0.86433751219E+02  0.32112078093E+03  0.15294330000E+03 0.  0.
    8880022    1    1    2    0    0  0.23035912071E+03  0.13853080916E+03  0.13254212924E+04  0.13610251155E+04  0.15294330000E+03 0.  0.
<mgrwt>
<rscale>  0 0.30926972E+03</rscale>
<asrwt>0</asrwt>
<pdfrwt beam="1">  1        2 0.22470258E+00 0.30926972E+03</pdfrwt>
<pdfrwt beam="2">  1       -2 0.34089103E-01 0.30926972E+03</pdfrwt>
<totfact> 0.11602685E+02</totfact>
</mgrwt>
</event>
<event>
 4    1  0.1701380E-008  0.3019561E+03  0.7818608E-02  0.1084267E+00
          2   -1    0    0  501    0  0.00000000000E+00  0.00000000000E+00  0.24171701185E+04  0.24171701185E+04  0.25500000000E-02 0. -1.
         -2   -1    0    0    0  501 -0.00000000000E+00 -0.00000000000E+00 -0.60506211621E+02  0.60506211675E+02  0.25500000000E-02 0.  1.
    8880022    1    1    2    0    0 -0.19590234138E+03  0.17148794016E+03  0.41810473319E+03  0.51574127420E+03  0.15294330000E+03 0.  0.
    8880022    1    1    2    0    0  0.19590234138E+03 -0.17148794016E+03  0.19385591737E+04  0.19619350560E+04  0.15294330000E+03 0.  0.
<mgrwt>
<rscale>  0 0.30195611E+03</rscale>
<asrwt>0</asrwt>
<pdfrwt beam="1">  1        2 0.37187226E+00 0.30195611E+03</pdfrwt>
<pdfrwt beam="2">  1       -2 0.93086496E-02 0.30195611E+03</pdfrwt>
<totfact> 0.32939811E+02</totfact>
</mgrwt>
</event>
<event>
 4    1  0.1701380E-008  0.5250071E+03  0.7818608E-02  0.1007450E+00
          2   -1    0    0  501    0  0.00000000000E+00  0.00000000000E+00  0.17127371381E+04  0.17127371381E+04  0.25500000000E-02 0. -1.
         -2   -1    0    0    0  501 -0.00000000000E+00 -0.00000000000E+00 -0.63245923230E+03  0.63245923231E+03  0.25500000000E-02 0.  1.
    8880022    1    1    2    0    0  0.41814228250E+03  0.27820470922E+03 -0.47234186707E+03  0.70621478394E+03  0.15294330000E+03 0.  0.
    8880022    1    1    2    0    0 -0.41814228250E+03 -0.27820470922E+03  0.15526197728E+04  0.16389815864E+04  0.15294330000E+03 0.  0.
<mgrwt>
<rscale>  0 0.52500713E+03</rscale>
<asrwt>0</asrwt>
<pdfrwt beam="1">  1        2 0.26349802E+00 0.52500713E+03</pdfrwt>
<pdfrwt beam="2">  1       -2 0.97301421E-01 0.52500713E+03</pdfrwt>
<totfact> 0.90972258E+00</totfact>
</mgrwt>
</event>
<event>
 4    1  0.1701380E-008  0.5101777E+03  0.7818608E-02  0.1011156E+00
         -2   -1    0    0    0  501 -0.00000000000E+00  0.00000000000E+00  0.49519413195E+03  0.49519413196E+03  0.25500000000E-02 0.  1.
          2   -1    0    0  501    0  0.00000000000E+00 -0.00000000000E+00 -0.87010707870E+03  0.87010707870E+03  0.25500000000E-02 0. -1.
    8880022    1    1    2    0    0 -0.23034470462E+03  0.42875510747E+03  0.24208191662E+03  0.56469897512E+03  0.15294330000E+03 0.  0.
    8880022    1    1    2    0    0  0.23034470462E+03 -0.42875510747E+03 -0.61699486337E+03  0.80060223555E+03  0.15294330000E+03 0.  0.
<mgrwt>
<rscale>  0 0.51017769E+03</rscale>
<asrwt>0</asrwt>
<pdfrwt beam="1">  1        2 0.13386263E+00 0.51017769E+03</pdfrwt>
<pdfrwt beam="2">  1       -2 0.76183712E-01 0.51017769E+03</pdfrwt>
<totfact> 0.49235060E+01</totfact>
</mgrwt>
</event>
<event>
 4    1  0.1701380E-008  0.1087670E+04  0.7818608E-02  0.9217294E-01
         -2   -1    0    0    0  501 -0.00000000000E+00  0.00000000000E+00  0.17213440292E+04  0.17213440292E+04  0.25500000000E-02 0.  1.
          2   -1    0    0  501    0  0.00000000000E+00 -0.00000000000E+00 -0.13097438557E+04  0.13097438557E+04  0.25500000000E-02 0. -1.
    8880022    1    1    2    0    0 -0.10427321519E+04 -0.26896839443E+03 -0.83900754351E+03  0.13736664984E+04  0.15294330000E+03 0.  0.
    8880022    1    1    2    0    0  0.10427321519E+04  0.26896839443E+03  0.12506077170E+04  0.16574213866E+04  0.15294330000E+03 0.  0.
<mgrwt>
<rscale>  0 0.10876700E+04</rscale>
<asrwt>0</asrwt>
<pdfrwt beam="1">  1        2 0.20149906E+00 0.10876700E+04</pdfrwt>
<pdfrwt beam="2">  1       -2 0.26482216E+00 0.10876700E+04</pdfrwt>
<totfact> 0.83955858E-01</totfact>
</mgrwt>
</event>
<event>
 4    1  0.1701380E-008  0.1391610E+04  0.7818608E-02  0.8959914E-01
          2   -1    0    0  501    0  0.00000000000E+00  0.00000000000E+00  0.11140252179E+04  0.11140252179E+04  0.25500000000E-02 0. -1.
         -2   -1    0    0    0  501 -0.00000000000E+00 -0.00000000000E+00 -0.30394786068E+04  0.30394786068E+04  0.25500000000E-02 0.  1.
    8880022    1    1    2    0    0 -0.55497315392E+03 -0.12669617458E+04  0.39603473861E+03  0.14468664189E+04  0.15294330000E+03 0.  0.
    8880022    1    1    2    0    0  0.55497315392E+03  0.12669617458E+04 -0.23214881275E+04  0.27066374057E+04  0.15294330000E+03 0.  0.
<mgrwt>
<rscale>  0 0.13916102E+04</rscale>
<asrwt>0</asrwt>
<pdfrwt beam="1">  1        2 0.17138850E+00 0.13916102E+04</pdfrwt>
<pdfrwt beam="2">  1       -2 0.46761209E+00 0.13916102E+04</pdfrwt>
<totfact> 0.54300851E-02</totfact>
</mgrwt>
</event>
<event>
 4    1  0.1701380E-008  0.5752505E+03  0.7818608E-02  0.9958127E-01
          2   -1    0    0  501    0  0.00000000000E+00  0.00000000000E+00  0.32964899884E+04  0.32964899884E+04  0.25500000000E-02 0. -1.
         -2   -1    0    0    0  501 -0.00000000000E+00 -0.00000000000E+00 -0.11307293445E+03  0.11307293448E+03  0.25500000000E-02 0.  1.
    8880022    1    1    2    0    0 -0.54568700608E+03  0.98728015281E+02  0.21628065025E+04  0.22380002569E+04  0.15294330000E+03 0.  0.
    8880022    1    1    2    0    0  0.54568700608E+03 -0.98728015281E+02  0.10206105515E+04  0.11715626660E+04  0.15294330000E+03 0.  0.
<mgrwt>
<rscale>  0 0.57525054E+03</rscale>
<asrwt>0</asrwt>
<pdfrwt beam="1">  1        2 0.50715224E+00 0.57525054E+03</pdfrwt>
<pdfrwt beam="2">  1       -2 0.17395838E-01 0.57525054E+03</pdfrwt>
<totfact> 0.33577890E+01</totfact>
</mgrwt>
</event>
<event>
 4    1  0.1701380E-008  0.1107217E+04  0.7818608E-02  0.9198186E-01
         -2   -1    0    0    0  501 -0.00000000000E+00  0.00000000000E+00  0.10749454187E+04  0.10749454187E+04  0.25500000000E-02 0.  1.
          2   -1    0    0  501    0  0.00000000000E+00 -0.00000000000E+00 -0.27524295873E+04  0.27524295873E+04  0.25500000000E-02 0. -1.
    8880022    1    1    2    0    0 -0.91673519688E+03  0.60177591106E+03 -0.23032499249E+04  0.25555605135E+04  0.15294330000E+03 0.  0.
    8880022    1    1    2    0    0  0.91673519688E+03 -0.60177591106E+03  0.62576575636E+03  0.12718144924E+04  0.15294330000E+03 0.  0.
<mgrwt>
<rscale>  0 0.11072169E+04</rscale>
<asrwt>0</asrwt>
<pdfrwt beam="1">  1        2 0.42345070E+00 0.11072169E+04</pdfrwt>
<pdfrwt beam="2">  1       -2 0.16537622E+00 0.11072169E+04</pdfrwt>
<totfact> 0.56464019E-01</totfact>
</mgrwt>
</event>
<event>
 4    1  0.1701380E-008  0.7761927E+03  0.7818608E-02  0.9595131E-01
          2   -1    0    0  501    0  0.00000000000E+00  0.00000000000E+00  0.26690599624E+04  0.26690599624E+04  0.25500000000E-02 0. -1.
         -2   -1    0    0    0  501 -0.00000000000E+00 -0.00000000000E+00 -0.48977001194E+03  0.48977001195E+03  0.25500000000E-02 0.  1.
    8880022    1    1    2    0    0 -0.47702853374E+03  0.59289728059E+03 -0.70036396890E+02  0.77934598045E+03  0.15294330000E+03 0.  0.
    8880022    1    1    2    0    0  0.47702853374E+03 -0.59289728059E+03  0.22493263473E+04  0.23794839939E+04  0.15294330000E+03 0.  0.
<mgrwt>
<rscale>  0 0.77619267E+03</rscale>
<asrwt>0</asrwt>
<pdfrwt beam="1">  1        2 0.41062462E+00 0.77619267E+03</pdfrwt>
<pdfrwt beam="2">  1       -2 0.75349231E-01 0.77619267E+03</pdfrwt>
<totfact> 0.45982763E+00</totfact>
</mgrwt>
</event>
<event>
 4    1  0.1701380E-008  0.8106775E+03  0.7818608E-02  0.9544689E-01
          2   -1    0    0  501    0  0.00000000000E+00  0.00000000000E+00  0.28457395905E+04  0.28457395905E+04  0.25500000000E-02 0. -1.
         -2   -1    0    0    0  501 -0.00000000000E+00 -0.00000000000E+00 -0.10687824053E+04  0.10687824053E+04  0.25500000000E-02 0.  1.
    8880022    1    1    2    0    0  0.37778941823E+03 -0.70077205629E+03  0.26214244785E+04  0.27439140418E+04  0.15294330000E+03 0.  0.
    8880022    1    1    2    0    0 -0.37778941823E+03  0.70077205629E+03 -0.84446729329E+03  0.11706079540E+04  0.15294330000E+03 0.  0.
<mgrwt>
<rscale>  0 0.81067748E+03</rscale>
<asrwt>0</asrwt>
<pdfrwt beam="1">  1        2 0.43780609E+00 0.81067748E+03</pdfrwt>
<pdfrwt beam="2">  1       -2 0.16442806E+00 0.81067748E+03</pdfrwt>
<totfact> 0.53278520E-01</totfact>
</mgrwt>
</event>
<event>
 4    1  0.1701380E-008  0.6923490E+03  0.7818608E-02  0.9730407E-01
         -2   -1    0    0    0  501 -0.00000000000E+00  0.00000000000E+00  0.11754772629E+04  0.11754772629E+04  0.25500000000E-02 0.  1.
          2   -1    0    0  501    0  0.00000000000E+00 -0.00000000000E+00 -0.60617634431E+03  0.60617634432E+03  0.25500000000E-02 0. -1.
    8880022    1    1    2    0    0 -0.66600313979E+03 -0.11133423488E+03  0.79427501639E+03  0.10536697532E+04  0.15294330000E+03 0.  0.
    8880022    1    1    2    0    0  0.66600313979E+03  0.11133423488E+03 -0.22497409780E+03  0.72798385405E+03  0.15294330000E+03 0. -1.
<mgrwt>
<rscale>  0 0.69234901E+03</rscale>
<asrwt>0</asrwt>
<pdfrwt beam="1">  1        2 0.93257899E-01 0.69234901E+03</pdfrwt>
<pdfrwt beam="2">  1       -2 0.18084266E+00 0.69234901E+03</pdfrwt>
<totfact> 0.89767811E+00</totfact>
</mgrwt>
</event>
<event>
 4    1  0.1701380E-008  0.9175810E+03  0.7818608E-02  0.9403867E-01
          2   -1    0    0  501    0  0.00000000000E+00  0.00000000000E+00  0.28305721629E+04  0.28305721629E+04  0.25500000000E-02 0. -1.
         -2   -1    0    0    0  501 -0.00000000000E+00 -0.00000000000E+00 -0.43833302816E+03  0.43833302817E+03  0.25500000000E-02 0.  1.
    8880022    1    1    2    0    0  0.86433194677E+03 -0.26738273162E+03  0.21227336907E+04  0.23125642076E+04  0.15294330000E+03 0.  0.
    8880022    1    1    2    0    0 -0.86433194677E+03  0.26738273162E+03  0.26950544403E+03  0.95634098351E+03  0.15294330000E+03 0.  0.
<mgrwt>
<rscale>  0 0.91758100E+03</rscale>
<asrwt>0</asrwt>
<pdfrwt beam="1">  1        2 0.43547264E+00 0.91758100E+03</pdfrwt>
<pdfrwt beam="2">  1       -2 0.67435851E-01 0.91758100E+03</pdfrwt>
<totfact> 0.46041308E+00</totfact>
</mgrwt>
</event>
<event>
 4    1  0.1701380E-008  0.8742741E+03  0.7818608E-02  0.9458324E-01
          2   -1    0    0  501    0  0.00000000000E+00  0.00000000000E+00  0.31051749640E+04  0.31051749640E+04  0.25500000000E-02 0. -1.
         -2   -1    0    0    0  501 -0.00000000000E+00 -0.00000000000E+00 -0.27410937717E+03  0.27410937718E+03  0.25500000000E-02 0.  1.
    8880022    1    1    2    0    0  0.83479536647E+03 -0.20995314370E+03  0.87595339182E+03  0.12375983291E+04  0.15294330000E+03 0.  0.
    8880022    1    1    2    0    0 -0.83479536647E+03  0.20995314370E+03  0.19551121950E+04  0.21416860121E+04  0.15294330000E+03 0.  0.
<mgrwt>
<rscale>  0 0.87427414E+03</rscale>
<asrwt>0</asrwt>
<pdfrwt beam="1">  1        2 0.47771921E+00 0.87427414E+03</pdfrwt>
<pdfrwt beam="2">  1       -2 0.42170675E-01 0.87427414E+03</pdfrwt>
<totfact> 0.83162068E+00</totfact>
</mgrwt>
</event>
<event>
 4    1  0.1701380E-008  0.7620403E+03  0.7818608E-02  0.9616648E-01
         -2   -1    0    0    0  501 -0.00000000000E+00  0.00000000000E+00  0.12861181379E+04  0.12861181379E+04  0.25500000000E-02 0.  1.
          2   -1    0    0  501    0  0.00000000000E+00 -0.00000000000E+00 -0.16178624047E+04  0.16178624047E+04  0.25500000000E-02 0. -1.
    8880022    1    1    2    0    0 -0.12744274124E+03 -0.73557601361E+03  0.10669667864E+04  0.13111535000E+04  0.15294330000E+03 0.  1.
    8880022    1    1    2    0    0  0.12744274124E+03  0.73557601361E+03 -0.13987110532E+04  0.15928270426E+04  0.15294330000E+03 0.  0.
<mgrwt>
<rscale>  0 0.76204027E+03</rscale>
<asrwt>0</asrwt>
<pdfrwt beam="1">  1        2 0.24890191E+00 0.76204027E+03</pdfrwt>
<pdfrwt beam="2">  1       -2 0.19786433E+00 0.76204027E+03</pdfrwt>
<totfact> 0.15453969E+00</totfact>
</mgrwt>
</event>
<event>
 4    1  0.1701380E-008  0.8466798E+03  0.7818608E-02  0.9494804E-01
         -2   -1    0    0    0  501 -0.00000000000E+00  0.00000000000E+00  0.10464631411E+04  0.10464631411E+04  0.25500000000E-02 0.  1.
          2   -1    0    0  501    0  0.00000000000E+00 -0.00000000000E+00 -0.91429340871E+03  0.91429340871E+03  0.25500000000E-02 0. -1.
    8880022    1    1    2    0    0  0.20289463446E+03  0.80765636716E+03 -0.42483541352E+03  0.94728655733E+03  0.15294330000E+03 0.  0.
    8880022    1    1    2    0    0 -0.20289463446E+03 -0.80765636716E+03  0.55700514594E+03  0.10134699925E+04  0.15294330000E+03 0.  0.
<mgrwt>
<rscale>  0 0.84667981E+03</rscale>
<asrwt>0</asrwt>
<pdfrwt beam="1">  1        2 0.14066052E+00 0.84667981E+03</pdfrwt>
<pdfrwt beam="2">  1       -2 0.16099433E+00 0.84667981E+03</pdfrwt>
<totfact> 0.71508916E+00</totfact>
</mgrwt>
</event>
<event>
 4    1  0.1701380E-008  0.8877531E+03  0.7818608E-02  0.9441021E-01
         -2   -1    0    0    0  501 -0.00000000000E+00  0.00000000000E+00  0.70501602908E+03  0.70501602909E+03  0.25500000000E-02 0.  1.
          2   -1    0    0  501    0  0.00000000000E+00 -0.00000000000E+00 -0.16963924709E+04  0.16963924709E+04  0.25500000000E-02 0. -1.
    8880022    1    1    2    0    0 -0.58805885411E+03 -0.64722540451E+03 -0.11968830089E+04  0.14901793618E+04  0.15294330000E+03 0.  0.
    8880022    1    1    2    0    0  0.58805885411E+03  0.64722540451E+03  0.20550656714E+03  0.91122913820E+03  0.15294330000E+03 0.  0.
<mgrwt>
<rscale>  0 0.88775311E+03</rscale>
<asrwt>0</asrwt>
<pdfrwt beam="1">  1        2 0.26098346E+00 0.88775311E+03</pdfrwt>
<pdfrwt beam="2">  1       -2 0.10846400E+00 0.88775311E+03</pdfrwt>
<totfact> 0.67621193E+00</totfact>
</mgrwt>
</event>
<event>
 4    1  0.1701380E-008  0.9192499E+03  0.7818608E-02  0.9401833E-01
          2   -1    0    0  501    0  0.00000000000E+00  0.00000000000E+00  0.34712440230E+04  0.34712440230E+04  0.25500000000E-02 0. -1.
         -2   -1    0    0    0  501 -0.00000000000E+00 -0.00000000000E+00 -0.33087739613E+03  0.33087739614E+03  0.25500000000E-02 0.  1.
    8880022    1    1    2    0    0 -0.89834468248E+03 -0.12085332297E+03  0.59289017352E+03  0.10938642992E+04  0.15294330000E+03 0.  0.
    8880022    1    1    2    0    0  0.89834468248E+03  0.12085332297E+03  0.25474764533E+04  0.27082571199E+04  0.15294330000E+03 0.  0.
<mgrwt>
<rscale>  0 0.91924988E+03</rscale>
<asrwt>0</asrwt>
<pdfrwt beam="1">  1        2 0.53403757E+00 0.91924988E+03</pdfrwt>
<pdfrwt beam="2">  1       -2 0.50904212E-01 0.91924988E+03</pdfrwt>
<totfact> 0.32615811E+00</totfact>
</mgrwt>
</event>
<event>
 4    1  0.1701380E-008  0.3864134E+03  0.7818608E-02  0.1048588E+00
         -2   -1    0    0    0  501 -0.00000000000E+00  0.00000000000E+00  0.49042506357E+03  0.49042506357E+03  0.25500000000E-02 0.  1.
          2   -1    0    0  501    0  0.00000000000E+00 -0.00000000000E+00 -0.84296677530E+03  0.84296677530E+03  0.25500000000E-02 0. -1.
    8880022    1    1    2    0    0 -0.86709860794E+02  0.34410040327E+03  0.35659478990E+03  0.52580907627E+03  0.15294330000E+03 0.  0.
    8880022    1    1    2    0    0  0.86709860794E+02 -0.34410040327E+03 -0.70913650163E+03  0.80758276260E+03  0.15294330000E+03 0.  0.
<mgrwt>
<rscale>  0 0.38641343E+03</rscale>
<asrwt>0</asrwt>
<pdfrwt beam="1">  1        2 0.12968720E+00 0.38641343E+03</pdfrwt>
<pdfrwt beam="2">  1       -2 0.75450010E-01 0.38641343E+03</pdfrwt>
<totfact> 0.53368879E+01</totfact>
</mgrwt>
</event>
<event>
 4    1  0.1701380E-008  0.5848004E+03  0.7818608E-02  0.9937452E-01
          2   -1    0    0  501    0  0.00000000000E+00  0.00000000000E+00  0.48347531807E+03  0.48347531808E+03  0.25500000000E-02 0. -1.
         -2   -1    0    0    0  501 -0.00000000000E+00 -0.00000000000E+00 -0.12725296500E+04  0.12725296500E+04  0.25500000000E-02 0.  1.
    8880022    1    1    2    0    0 -0.21702052174E+03 -0.52105849006E+03  0.19060083359E+03  0.61507738351E+03  0.15294330000E+03 0. -1.
    8880022    1    1    2    0    0  0.21702052174E+03  0.52105849006E+03 -0.97965516555E+03  0.11409275846E+04  0.15294330000E+03 0.  0.
<mgrwt>
<rscale>  0 0.58480040E+03</rscale>
<asrwt>0</asrwt>
<pdfrwt beam="1">  1        2 0.74380819E-01 0.58480040E+03</pdfrwt>
<pdfrwt beam="2">  1       -2 0.19577379E+00 0.58480040E+03</pdfrwt>
<totfact> 0.94376685E+00</totfact>
</mgrwt>
</event>
<event>
 4    1  0.1701380E-008  0.6859565E+03  0.7818608E-02  0.9741554E-01
         -2   -1    0    0    0  501 -0.00000000000E+00  0.00000000000E+00  0.13416130882E+04  0.13416130882E+04  0.25500000000E-02 0.  1.
          2   -1    0    0  501    0  0.00000000000E+00 -0.00000000000E+00 -0.25609016533E+04  0.25609016533E+04  0.25500000000E-02 0. -1.
    8880022    1    1    2    0    0  0.65419613403E+03 -0.13846332810E+03  0.12030796451E+04  0.13848960107E+04  0.15294330000E+03 0.  0.
    8880022    1    1    2    0    0 -0.65419613403E+03  0.13846332810E+03 -0.24223682102E+04  0.25176187308E+04  0.15294330000E+03 0.  0.
<mgrwt>
<rscale>  0 0.68595651E+03</rscale>
<asrwt>0</asrwt>
<pdfrwt beam="1">  1        2 0.39398487E+00 0.68595651E+03</pdfrwt>
<pdfrwt beam="2">  1       -2 0.20640201E+00 0.68595651E+03</pdfrwt>
<totfact> 0.41803128E-01</totfact>
</mgrwt>
</event>
<event>
 4    1  0.1701380E-008  0.4082172E+03  0.7818608E-02  0.1040971E+00
          2   -1    0    0  501    0  0.00000000000E+00  0.00000000000E+00  0.18125784369E+04  0.18125784369E+04  0.25500000000E-02 0. -1.
         -2   -1    0    0    0  501 -0.00000000000E+00 -0.00000000000E+00 -0.15129974542E+03  0.15129974544E+03  0.25500000000E-02 0.  1.
    8880022    1    1    2    0    0  0.21022071378E+03  0.31473305906E+03  0.21556739982E+03  0.46163904065E+03  0.15294330000E+03 0.  0.
    8880022    1    1    2    0    0 -0.21022071378E+03 -0.31473305906E+03  0.14457112916E+04  0.15022391416E+04  0.15294330000E+03 0.  0.
<mgrwt>
<rscale>  0 0.40821722E+03</rscale>
<asrwt>0</asrwt>
<pdfrwt beam="1">  1        2 0.27885823E+00 0.40821722E+03</pdfrwt>
<pdfrwt beam="2">  1       -2 0.23276884E-01 0.40821722E+03</pdfrwt>
<totfact> 0.14742293E+02</totfact>
</mgrwt>
</event>
<event>
 4    1  0.1701380E-008  0.1054426E+04  0.7818608E-02  0.9250786E-01
          2   -1    0    0  501    0  0.00000000000E+00  0.00000000000E+00  0.28809776060E+04  0.28809776060E+04  0.25500000000E-02 0. -1.
         -2   -1    0    0    0  501 -0.00000000000E+00 -0.00000000000E+00 -0.70599930138E+03  0.70599930139E+03  0.25500000000E-02 0.  1.
    8880022    1    1    2    0    0  0.19390574629E+03  0.10250970981E+04 -0.12012447688E+03  0.10612469278E+04  0.15294330000E+03 0.  0.
    8880022    1    1    2    0    0 -0.19390574629E+03 -0.10250970981E+04  0.22951027815E+04  0.25257299795E+04  0.15294330000E+03 0.  0.
<mgrwt>
<rscale>  0 0.10544265E+04</rscale>
<asrwt>0</asrwt>
<pdfrwt beam="1">  1        2 0.44322733E+00 0.10544265E+04</pdfrwt>
<pdfrwt beam="2">  1       -2 0.10861528E+00 0.10544265E+04</pdfrwt>
<totfact> 0.14087839E+00</totfact>
</mgrwt>
</event>
<event>
 4    1  0.1701380E-008  0.2881195E+03  0.7818608E-02  0.1091335E+00
          2   -1    0    0  501    0  0.00000000000E+00  0.00000000000E+00  0.12380936572E+04  0.12380936572E+04  0.25500000000E-02 0. -1.
         -2   -1    0    0    0  501 -0.00000000000E+00 -0.00000000000E+00 -0.10868853139E+04  0.10868853139E+04  0.25500000000E-02 0.  1.
    8880022    1    1    2    0    0 -0.24387498132E+03 -0.12090891838E+02 -0.10504581449E+04  0.10892544071E+04  0.15294330000E+03 0.  1.
    8880022    1    1    2    0    0  0.24387498132E+03  0.12090891838E+02  0.12016664882E+04  0.12357245640E+04  0.15294330000E+03 0.  0.
<mgrwt>
<rscale>  0 0.28811951E+03</rscale>
<asrwt>0</asrwt>
<pdfrwt beam="1">  1        2 0.19047595E+00 0.28811951E+03</pdfrwt>
<pdfrwt beam="2">  1       -2 0.16721313E+00 0.28811951E+03</pdfrwt>
<totfact> 0.45762081E+00</totfact>
</mgrwt>
</event>
<event>
 4    1  0.2149436E-008  0.1078664E+04  0.7818608E-02  0.9226241E-01
          2   -1    0    0  501    0  0.00000000000E+00  0.00000000000E+00  0.14899053034E+04  0.14899053034E+04  0.25500000000E-02 0. -1.
         -2   -1    0    0    0  501 -0.00000000000E+00 -0.00000000000E+00 -0.18390125358E+04  0.18390125358E+04  0.25500000000E-02 0.  1.
    8880022    1    1    2    0    0  0.83275319022E+03  0.66831571688E+03  0.10879714301E+04  0.15320565456E+04  0.15294330000E+03 0.  0.
    8880022    1    1    2    0    0 -0.83275319022E+03 -0.66831571688E+03 -0.14370786625E+04  0.17968612936E+04  0.15294330000E+03 0.  0.
<mgrwt>
<rscale>  0 0.10786637E+04</rscale>
<asrwt>0</asrwt>
<pdfrwt beam="1">  1        2 0.22921620E+00 0.10786637E+04</pdfrwt>
<pdfrwt beam="2">  1       -2 0.28292501E+00 0.10786637E+04</pdfrwt>
<totfact> 0.51498039E-01</totfact>
</mgrwt>
</event>
<event>
 4    1  0.1701380E-008  0.6872569E+03  0.7818608E-02  0.9739276E-01
          2   -1    0    0  501    0  0.00000000000E+00  0.00000000000E+00  0.20941062546E+04  0.20941062546E+04  0.25500000000E-02 0. -1.
         -2   -1    0    0    0  501 -0.00000000000E+00 -0.00000000000E+00 -0.54917526211E+03  0.54917526212E+03  0.25500000000E-02 0.  1.
    8880022    1    1    2    0    0 -0.65125594753E+03 -0.15746789518E+03  0.17870314643E+04  0.19146288294E+04  0.15294330000E+03 0.  0.
    8880022    1    1    2    0    0  0.65125594753E+03  0.15746789518E+03 -0.24210047179E+03  0.72865268727E+03  0.15294330000E+03 0.  0.
<mgrwt>
<rscale>  0 0.68725694E+03</rscale>
<asrwt>0</asrwt>
<pdfrwt beam="1">  1        2 0.32217019E+00 0.68725694E+03</pdfrwt>
<pdfrwt beam="2">  1       -2 0.84488503E-01 0.68725694E+03</pdfrwt>
<totfact> 0.75871882E+00</totfact>
</mgrwt>
</event>
<event>
 4    1  0.1701380E-008  0.9405856E+03  0.7818608E-02  0.9376223E-01
         -2   -1    0    0    0  501 -0.00000000000E+00  0.00000000000E+00  0.10036852860E+04  0.10036852860E+04  0.25500000000E-02 0.  1.
          2   -1    0    0  501    0  0.00000000000E+00 -0.00000000000E+00 -0.10713949374E+04  0.10713949374E+04  0.25500000000E-02 0. -1.
    8880022    1    1    2    0    0  0.59616697122E+03  0.71126269850E+03  0.40300349472E+03  0.10232854703E+04  0.15294330000E+03 0.  0.
    8880022    1    1    2    0    0 -0.59616697122E+03 -0.71126269850E+03 -0.47071314612E+03  0.10517947532E+04  0.15294330000E+03 0.  0.
<mgrwt>
<rscale>  0 0.94058564E+03</rscale>
<asrwt>0</asrwt>
<pdfrwt beam="1">  1        2 0.16482999E+00 0.94058564E+03</pdfrwt>
<pdfrwt beam="2">  1       -2 0.15441312E+00 0.94058564E+03</pdfrwt>
<totfact> 0.62764360E+00</totfact>
</mgrwt>
</event>
<event>
 4    1  0.1701380E-008  0.2277661E+04  0.7818608E-02  0.8486781E-01
          2   -1    0    0  501    0  0.00000000000E+00  0.00000000000E+00  0.39077017211E+04  0.39077017211E+04  0.25500000000E-02 0. -1.
         -2   -1    0    0    0  501 -0.00000000000E+00 -0.00000000000E+00 -0.17196089919E+04  0.17196089919E+04  0.25500000000E-02 0.  1.
    8880022    1    1    2    0    0 -0.19520014678E+04 -0.11636317547E+04 -0.24940428294E+03  0.22912753523E+04  0.15294330000E+03 0.  0.
    8880022    1    1    2    0    0  0.19520014678E+04  0.11636317547E+04  0.24374970121E+04  0.33360353607E+04  0.15294330000E+03 0.  0.
<mgrwt>
<rscale>  0 0.22776611E+04</rscale>
<asrwt>0</asrwt>
<pdfrwt beam="1">  1        2 0.60118488E+00 0.22776611E+04</pdfrwt>
<pdfrwt beam="2">  1       -2 0.26455523E+00 0.22776611E+04</pdfrwt>
<totfact> 0.18280805E-02</totfact>
</mgrwt>
</event>
<event>
 4    1  0.1701380E-008  0.9971838E+03  0.7818608E-02  0.9311639E-01
          2   -1    0    0  501    0  0.00000000000E+00  0.00000000000E+00  0.22620927747E+04  0.22620927747E+04  0.25500000000E-02 0. -1.
         -2   -1    0    0    0  501 -0.00000000000E+00 -0.00000000000E+00 -0.63880417540E+03  0.63880417541E+03  0.25500000000E-02 0.  1.
    8880022    1    1    2    0    0 -0.42236657813E+03 -0.89027546143E+03  0.16216482224E+04  0.19037117780E+04  0.15294330000E+03 0.  0.
    8880022    1    1    2    0    0  0.42236657813E+03  0.89027546143E+03  0.16403768811E+01  0.99718517207E+03  0.15294330000E+03 0.  0.
<mgrwt>
<rscale>  0 0.99718382E+03</rscale>
<asrwt>0</asrwt>
<pdfrwt beam="1">  1        2 0.34801428E+00 0.99718382E+03</pdfrwt>
<pdfrwt beam="2">  1       -2 0.98277564E-01 0.99718382E+03</pdfrwt>
<totfact> 0.41197371E+00</totfact>
</mgrwt>
</event>
<event>
 4    1  0.1701380E-008  0.1564212E+04  0.7818608E-02  0.8842841E-01
         -2   -1    0    0    0  501 -0.00000000000E+00  0.00000000000E+00  0.15464401073E+04  0.15464401073E+04  0.25500000000E-02 0.  1.
          2   -1    0    0  501    0  0.00000000000E+00 -0.00000000000E+00 -0.24094840093E+04  0.24094840093E+04  0.25500000000E-02 0. -1.
    8880022    1    1    2    0    0 -0.13553518867E+04 -0.76575967559E+03  0.72748627292E+03  0.17251071120E+04  0.15294330000E+03 0.  0.
    8880022    1    1    2    0    0  0.13553518867E+04  0.76575967559E+03 -0.15905301749E+04  0.22308170046E+04  0.15294330000E+03 0.  0.
<mgrwt>
<rscale>  0 0.15642117E+04</rscale>
<asrwt>0</asrwt>
<pdfrwt beam="1">  1        2 0.37068985E+00 0.15642117E+04</pdfrwt>
<pdfrwt beam="2">  1       -2 0.23791386E+00 0.15642117E+04</pdfrwt>
<totfact> 0.27890060E-01</totfact>
</mgrwt>
</event>
<event>
 4    1  0.1701380E-008  0.1106768E+04  0.7818608E-02  0.9198620E-01
         -2   -1    0    0    0  501 -0.00000000000E+00  0.00000000000E+00  0.15608514479E+04  0.15608514479E+04  0.25500000000E-02 0.  1.
          2   -1    0    0  501    0  0.00000000000E+00 -0.00000000000E+00 -0.12342762586E+04  0.12342762586E+04  0.25500000000E-02 0. -1.
    8880022    1    1    2    0    0  0.92681360342E+03 -0.58528702257E+03  0.10066711047E+04  0.14961025099E+04  0.15294330000E+03 0.  0.
    8880022    1    1    2    0    0 -0.92681360342E+03  0.58528702257E+03 -0.68009591532E+03  0.12990251966E+04  0.15294330000E+03 0.  0.
<mgrwt>
<rscale>  0 0.11067683E+04</rscale>
<asrwt>0</asrwt>
<pdfrwt beam="1">  1        2 0.18988866E+00 0.11067683E+04</pdfrwt>
<pdfrwt beam="2">  1       -2 0.24013099E+00 0.11067683E+04</pdfrwt>
<totfact> 0.13126520E+00</totfact>
</mgrwt>
</event>
<event>
 4    1  0.1701380E-008  0.5402480E+03  0.7818608E-02  0.1003777E+00
          2   -1    0    0  501    0  0.00000000000E+00  0.00000000000E+00  0.18955296896E+04  0.18955296896E+04  0.25500000000E-02 0. -1.
         -2   -1    0    0    0  501 -0.00000000000E+00 -0.00000000000E+00 -0.18206575121E+03  0.18206575122E+03  0.25500000000E-02 0.  1.
    8880022    1    1    2    0    0 -0.19484761859E+03  0.48011521089E+03  0.44871001555E+03  0.70228807570E+03  0.15294330000E+03 0.  0.
    8880022    1    1    2    0    0  0.19484761859E+03 -0.48011521089E+03  0.12647539228E+04  0.13753073651E+04  0.15294330000E+03 0.  0.
<mgrwt>
<rscale>  0 0.54024796E+03</rscale>
<asrwt>0</asrwt>
<pdfrwt beam="1">  1        2 0.29161994E+00 0.54024796E+03</pdfrwt>
<pdfrwt beam="2">  1       -2 0.28010116E-01 0.54024796E+03</pdfrwt>
<totfact> 0.93491068E+01</totfact>
</mgrwt>
</event>
<event>
 4    1  0.1701380E-008  0.9699772E+03  0.7818608E-02  0.9342100E-01
          2   -1    0    0  501    0  0.00000000000E+00  0.00000000000E+00  0.18871631631E+04  0.18871631631E+04  0.25500000000E-02 0. -1.
         -2   -1    0    0    0  501 -0.00000000000E+00 -0.00000000000E+00 -0.99099679720E+03  0.99099679720E+03  0.25500000000E-02 0.  1.
    8880022    1    1    2    0    0 -0.82768103680E+03 -0.48208730409E+03 -0.56635597589E+03  0.11232162801E+04  0.15294330000E+03 0.  0.
    8880022    1    1    2    0    0  0.82768103680E+03  0.48208730409E+03  0.14625223418E+04  0.17549436802E+04  0.15294330000E+03 0.  0.
<mgrwt>
<rscale>  0 0.96997718E+03</rscale>
<asrwt>0</asrwt>
<pdfrwt beam="1">  1        2 0.29033280E+00 0.96997718E+03</pdfrwt>
<pdfrwt beam="2">  1       -2 0.15246105E+00 0.96997718E+03</pdfrwt>
<totfact> 0.22154928E+00</totfact>
</mgrwt>
</event>
<event>
 4    1  0.1701380E-008  0.1092259E+04  0.7818608E-02  0.9212770E-01
         -2   -1    0    0    0  501 -0.00000000000E+00  0.00000000000E+00  0.10526834577E+04  0.10526834577E+04  0.25500000000E-02 0.  1.
          2   -1    0    0  501    0  0.00000000000E+00 -0.00000000000E+00 -0.20246856408E+04  0.20246856408E+04  0.25500000000E-02 0. -1.
    8880022    1    1    2    0    0 -0.10744774215E+04  0.12303125230E+03 -0.15069360510E+04  0.18611518834E+04  0.15294330000E+03 0.  0.
    8880022    1    1    2    0    0  0.10744774215E+04 -0.12303125230E+03  0.53493386786E+03  0.12162172151E+04  0.15294330000E+03 0.  0.
<mgrwt>
<rscale>  0 0.10922592E+04</rscale>
<asrwt>0</asrwt>
<pdfrwt beam="1">  1        2 0.31149010E+00 0.10922592E+04</pdfrwt>
<pdfrwt beam="2">  1       -2 0.16195130E+00 0.10922592E+04</pdfrwt>
<totfact> 0.15546465E+00</totfact>
</mgrwt>
</event>
<event>
 4    1  0.1701380E-008  0.4969854E+03  0.7818608E-02  0.1014569E+00
         -2   -1    0    0    0  501 -0.00000000000E+00  0.00000000000E+00  0.24590575204E+03  0.24590575205E+03  0.25500000000E-02 0.  1.
          2   -1    0    0  501    0  0.00000000000E+00 -0.00000000000E+00 -0.10815204906E+04  0.10815204907E+04  0.25500000000E-02 0. -1.
    8880022    1    1    2    0    0 -0.47248452557E+03 -0.19004569530E+02 -0.59501034203E+03  0.77526238185E+03  0.15294330000E+03 0.  0.
    8880022    1    1    2    0    0  0.47248452557E+03  0.19004569530E+02 -0.24060439658E+03  0.55216386086E+03  0.15294330000E+03 0.  0.
<mgrwt>
<rscale>  0 0.49698537E+03</rscale>
<asrwt>0</asrwt>
<pdfrwt beam="1">  1        2 0.16638777E+00 0.49698537E+03</pdfrwt>
<pdfrwt beam="2">  1       -2 0.37831655E-01 0.49698537E+03</pdfrwt>
<totfact> 0.15242385E+02</totfact>
</mgrwt>
</event>
<event>
 4    1  0.1701380E-008  0.8452353E+03  0.7818608E-02  0.9496754E-01
         -2   -1    0    0    0  501 -0.00000000000E+00  0.00000000000E+00  0.25864606726E+04  0.25864606726E+04  0.25500000000E-02 0.  1.
          2   -1    0    0  501    0  0.00000000000E+00 -0.00000000000E+00 -0.35365694990E+03  0.35365694991E+03  0.25500000000E-02 0. -1.
    8880022    1    1    2    0    0  0.82323087763E+03 -0.11542088039E+03  0.18043060954E+04  0.19924716300E+04  0.15294330000E+03 0.  0.
    8880022    1    1    2    0    0 -0.82323087763E+03  0.11542088039E+03  0.42849762731E+03  0.94764599252E+03  0.15294330000E+03 0.  0.
<mgrwt>
<rscale>  0 0.84523530E+03</rscale>
<asrwt>0</asrwt>
<pdfrwt beam="1">  1        2 0.54408760E-01 0.84523530E+03</pdfrwt>
<pdfrwt beam="2">  1       -2 0.39791704E+00 0.84523530E+03</pdfrwt>
<totfact> 0.73110781E-01</totfact>
</mgrwt>
</event>
<event>
 4    1  0.1701380E-008  0.7459356E+03  0.7818608E-02  0.9641748E-01
          2   -1    0    0  501    0  0.00000000000E+00  0.00000000000E+00  0.13602529324E+04  0.13602529324E+04  0.25500000000E-02 0. -1.
         -2   -1    0    0    0  501 -0.00000000000E+00 -0.00000000000E+00 -0.69007090130E+03  0.69007090130E+03  0.25500000000E-02 0.  1.
    8880022    1    1    2    0    0  0.36966338306E+03  0.62958503904E+03 -0.31910828155E+03  0.81132612834E+03  0.15294330000E+03 0.  1.
    8880022    1    1    2    0    0 -0.36966338306E+03 -0.62958503904E+03  0.98929031261E+03  0.12389977053E+04  0.15294330000E+03 0.  0.
<mgrwt>
<rscale>  0 0.74593565E+03</rscale>
<asrwt>0</asrwt>
<pdfrwt beam="1">  1        2 0.20926968E+00 0.74593565E+03</pdfrwt>
<pdfrwt beam="2">  1       -2 0.10616475E+00 0.74593565E+03</pdfrwt>
<totfact> 0.11165916E+01</totfact>
</mgrwt>
</event>
<event>
 4    1  0.1701380E-008  0.1638536E+04  0.7818608E-02  0.8797217E-01
          2   -1    0    0  501    0  0.00000000000E+00  0.00000000000E+00  0.27721014560E+04  0.27721014560E+04  0.25500000000E-02 0. -1.
         -2   -1    0    0    0  501 -0.00000000000E+00 -0.00000000000E+00 -0.12692208978E+04  0.12692208978E+04  0.25500000000E-02 0.  1.
    8880022    1    1    2    0    0  0.93499137981E+03  0.13368620194E+04  0.17350015030E+04  0.23864263675E+04  0.15294330000E+03 0.  0.
    8880022    1    1    2    0    0 -0.93499137981E+03 -0.13368620194E+04 -0.23212094482E+03  0.16548959862E+04  0.15294330000E+03 0.  0.
<mgrwt>
<rscale>  0 0.16385361E+04</rscale>
<asrwt>0</asrwt>
<pdfrwt beam="1">  1        2 0.42647715E+00 0.16385361E+04</pdfrwt>
<pdfrwt beam="2">  1       -2 0.19526475E+00 0.16385361E+04</pdfrwt>
<totfact> 0.31847477E-01</totfact>
</mgrwt>
</event>
<event>
 4    1  0.1701380E-008  0.1173915E+04  0.7818608E-02  0.9136000E-01
         -2   -1    0    0    0  501 -0.00000000000E+00  0.00000000000E+00  0.86453503806E+03  0.86453503806E+03  0.25500000000E-02 0.  1.
          2   -1    0    0  501    0  0.00000000000E+00 -0.00000000000E+00 -0.22622495208E+04  0.22622495208E+04  0.25500000000E-02 0. -1.
    8880022    1    1    2    0    0 -0.87633622708E+03  0.76597675509E+03  0.15083937874E+03  0.11835665353E+04  0.15294330000E+03 0.  0.
    8880022    1    1    2    0    0  0.87633622708E+03 -0.76597675509E+03 -0.15485538614E+04  0.19432180236E+04  0.15294330000E+03 0.  0.
<mgrwt>
<rscale>  0 0.11739153E+04</rscale>
<asrwt>0</asrwt>
<pdfrwt beam="1">  1        2 0.34803839E+00 0.11739153E+04</pdfrwt>
<pdfrwt beam="2">  1       -2 0.13300539E+00 0.11739153E+04</pdfrwt>
<totfact> 0.19123508E+00</totfact>
</mgrwt>
</event>
<event>
 4    1  0.1701380E-008  0.7438965E+03  0.7818608E-02  0.9644975E-01
         -2   -1    0    0    0  501 -0.00000000000E+00  0.00000000000E+00  0.15204183244E+04  0.15204183244E+04  0.25500000000E-02 0.  1.
          2   -1    0    0  501    0  0.00000000000E+00 -0.00000000000E+00 -0.11097735394E+04  0.11097735394E+04  0.25500000000E-02 0. -1.
    8880022    1    1    2    0    0  0.16778887242E+03  0.70840471115E+03 -0.87276350419E+03  0.11467772791E+04  0.15294330000E+03 0.  0.
    8880022    1    1    2    0    0 -0.16778887242E+03 -0.70840471115E+03  0.12834082892E+04  0.14834145847E+04  0.15294330000E+03 0.  0.
<mgrwt>
<rscale>  0 0.74389649E+03</rscale>
<asrwt>0</asrwt>
<pdfrwt beam="1">  1        2 0.17073439E+00 0.74389649E+03</pdfrwt>
<pdfrwt beam="2">  1       -2 0.23391051E+00 0.74389649E+03</pdfrwt>
<totfact> 0.17939299E+00</totfact>
</mgrwt>
</event>
<event>
 4    1  0.1701380E-008  0.1074552E+04  0.7818608E-02  0.9230356E-01
          2   -1    0    0  501    0  0.00000000000E+00  0.00000000000E+00  0.76417615896E+03  0.76417615896E+03  0.25500000000E-02 0. -1.
         -2   -1    0    0    0  501 -0.00000000000E+00 -0.00000000000E+00 -0.21988242276E+04  0.21988242276E+04  0.25500000000E-02 0.  1.
    8880022    1    1    2    0    0  0.95610145823E+03  0.46598337001E+03 -0.15459308571E+04  0.18827013485E+04  0.15294330000E+03 0.  0.
    8880022    1    1    2    0    0 -0.95610145823E+03 -0.46598337001E+03  0.11128278852E+03  0.10802990380E+04  0.15294330000E+03 0.  0.
<mgrwt>
<rscale>  0 0.10745521E+04</rscale>
<asrwt>0</asrwt>
<pdfrwt beam="1">  1        2 0.11756556E+00 0.10745521E+04</pdfrwt>
<pdfrwt beam="2">  1       -2 0.33828065E+00 0.10745521E+04</pdfrwt>
<totfact> 0.67468132E-01</totfact>
</mgrwt>
</event>
<event>
 4    1  0.1701380E-008  0.7475533E+03  0.7818608E-02  0.9639197E-01
         -2   -1    0    0    0  501 -0.00000000000E+00  0.00000000000E+00  0.26067720059E+03  0.26067720060E+03  0.25500000000E-02 0.  1.
          2   -1    0    0  501    0  0.00000000000E+00 -0.00000000000E+00 -0.30854374702E+04  0.30854374702E+04  0.25500000000E-02 0. -1.
    8880022    1    1    2    0    0 -0.59410138688E+03 -0.42718587536E+03 -0.48811245773E+03  0.89279877598E+03  0.15294330000E+03 0.  0.
    8880022    1    1    2    0    0  0.59410138688E+03  0.42718587536E+03 -0.23366478119E+04  0.24533158949E+04  0.15294330000E+03 0.  0.
<mgrwt>
<rscale>  0 0.74755326E+03</rscale>
<asrwt>0</asrwt>
<pdfrwt beam="1">  1        2 0.47468266E+00 0.74755326E+03</pdfrwt>
<pdfrwt beam="2">  1       -2 0.40104187E-01 0.74755326E+03</pdfrwt>
<totfact> 0.96482806E+00</totfact>
</mgrwt>
</event>
<event>
 4    1  0.1701380E-008  0.1415693E+04  0.7818608E-02  0.8942537E-01
          2   -1    0    0  501    0  0.00000000000E+00  0.00000000000E+00  0.23063341007E+04  0.23063341007E+04  0.25500000000E-02 0. -1.
         -2   -1    0    0    0  501 -0.00000000000E+00 -0.00000000000E+00 -0.10075063448E+04  0.10075063448E+04  0.25500000000E-02 0.  1.
    8880022    1    1    2    0    0  0.13922437112E+04  0.20604161986E+03  0.12637755022E+04  0.18977133276E+04  0.15294330000E+03 0.  0.
    8880022    1    1    2    0    0 -0.13922437112E+04 -0.20604161986E+03  0.35052253653E+02  0.14161271179E+04  0.15294330000E+03 0.  0.
<mgrwt>
<rscale>  0 0.14156932E+04</rscale>
<asrwt>0</asrwt>
<pdfrwt beam="1">  1        2 0.35482063E+00 0.14156932E+04</pdfrwt>
<pdfrwt beam="2">  1       -2 0.15500098E+00 0.14156932E+04</pdfrwt>
<totfact> 0.11748417E+00</totfact>
</mgrwt>
</event>
<event>
 4    1  0.1701380E-008  0.5395390E+03  0.7818608E-02  0.1003945E+00
         -2   -1    0    0    0  501 -0.00000000000E+00  0.00000000000E+00  0.93813767782E+03  0.93813767782E+03  0.25500000000E-02 0.  1.
          2   -1    0    0  501    0  0.00000000000E+00 -0.00000000000E+00 -0.64975755872E+03  0.64975755872E+03  0.25500000000E-02 0. -1.
    8880022    1    1    2    0    0 -0.51649316071E+03 -0.30748048462E+02  0.71805563975E+03  0.89816823721E+03  0.15294330000E+03 0.  0.
    8880022    1    1    2    0    0  0.51649316071E+03  0.30748048462E+02 -0.42967552065E+03  0.68972699933E+03  0.15294330000E+03 0.  0.
<mgrwt>
<rscale>  0 0.53953895E+03</rscale>
<asrwt>0</asrwt>
<pdfrwt beam="1">  1        2 0.99962701E-01 0.53953895E+03</pdfrwt>
<pdfrwt beam="2">  1       -2 0.14432887E+00 0.53953895E+03</pdfrwt>
<totfact> 0.15509007E+01</totfact>
</mgrwt>
</event>
<event>
 4    1  0.1701380E-008  0.1940896E+04  0.7818608E-02  0.8634763E-01
          2   -1    0    0  501    0  0.00000000000E+00  0.00000000000E+00  0.24820028065E+04  0.24820028065E+04  0.25500000000E-02 0. -1.
         -2   -1    0    0    0  501 -0.00000000000E+00 -0.00000000000E+00 -0.17307792763E+04  0.17307792763E+04  0.25500000000E-02 0.  1.
    8880022    1    1    2    0    0  0.14485754274E+04  0.12826980649E+04 -0.36336507028E+03  0.19746166519E+04  0.15294330000E+03 0.  0.
    8880022    1    1    2    0    0 -0.14485754274E+04 -0.12826980649E+04  0.11145886005E+04  0.22381654309E+04  0.15294330000E+03 0.  0.
<mgrwt>
<rscale>  0 0.19408959E+04</rscale>
<asrwt>0</asrwt>
<pdfrwt beam="1">  1        2 0.38184658E+00 0.19408959E+04</pdfrwt>
<pdfrwt beam="2">  1       -2 0.26627374E+00 0.19408959E+04</pdfrwt>
<totfact> 0.16278116E-01</totfact>
</mgrwt>
</event>
<event>
 4    1  0.1701380E-008  0.4565639E+03  0.7818608E-02  0.1025783E+00
         -2   -1    0    0    0  501 -0.00000000000E+00  0.00000000000E+00  0.10032053757E+04  0.10032053757E+04  0.25500000000E-02 0.  1.
          2   -1    0    0  501    0  0.00000000000E+00 -0.00000000000E+00 -0.61350965156E+03  0.61350965156E+03  0.25500000000E-02 0. -1.
    8880022    1    1    2    0    0 -0.21485433778E+03 -0.37268825093E+03 -0.46252038368E+03  0.64990436002E+03  0.15294330000E+03 0.  0.
    8880022    1    1    2    0    0  0.21485433778E+03  0.37268825093E+03  0.85221610784E+03  0.96681066726E+03  0.15294330000E+03 0.  0.
<mgrwt>
<rscale>  0 0.45656387E+03</rscale>
<asrwt>0</asrwt>
<pdfrwt beam="1">  1        2 0.94386101E-01 0.45656387E+03</pdfrwt>
<pdfrwt beam="2">  1       -2 0.15433929E+00 0.45656387E+03</pdfrwt>
<totfact> 0.14119450E+01</totfact>
</mgrwt>
</event>
<event>
 4    1  0.1701380E-008  0.8564620E+03  0.7818608E-02  0.9481705E-01
          2   -1    0    0  501    0  0.00000000000E+00  0.00000000000E+00  0.65856113942E+03  0.65856113943E+03  0.25500000000E-02 0. -1.
         -2   -1    0    0    0  501 -0.00000000000E+00 -0.00000000000E+00 -0.14610126881E+04  0.14610126881E+04  0.25500000000E-02 0.  1.
    8880022    1    1    2    0    0  0.78197442954E+03  0.31408849085E+03 -0.91784267158E+03  0.12553734151E+04  0.15294330000E+03 0.  0.
    8880022    1    1    2    0    0 -0.78197442954E+03 -0.31408849085E+03  0.11539112294E+03  0.86420041241E+03  0.15294330000E+03 0.  0.
<mgrwt>
<rscale>  0 0.85646205E+03</rscale>
<asrwt>0</asrwt>
<pdfrwt beam="1">  1        2 0.10131710E+00 0.85646205E+03</pdfrwt>
<pdfrwt beam="2">  1       -2 0.22477118E+00 0.85646205E+03</pdfrwt>
<totfact> 0.41254186E+00</totfact>
</mgrwt>
</event>
<event>
 4    1  0.1701380E-008  0.5194253E+03  0.7818608E-02  0.1008829E+00
         -2   -1    0    0    0  501 -0.00000000000E+00  0.00000000000E+00  0.28310048513E+03  0.28310048514E+03  0.25500000000E-02 0.  1.
          2   -1    0    0  501    0  0.00000000000E+00 -0.00000000000E+00 -0.30938794042E+04  0.30938794042E+04  0.25500000000E-02 0. -1.
    8880022    1    1    2    0    0 -0.32496341355E+03  0.37524623800E+03 -0.28099487526E+04  0.28575539548E+04  0.15294330000E+03 0.  0.
    8880022    1    1    2    0    0  0.32496341355E+03 -0.37524623800E+03 -0.83016644928E+00  0.51942593454E+03  0.15294330000E+03 0.  0.
<mgrwt>
<rscale>  0 0.51942527E+03</rscale>
<asrwt>0</asrwt>
<pdfrwt beam="1">  1        2 0.47598142E+00 0.51942527E+03</pdfrwt>
<pdfrwt beam="2">  1       -2 0.43553923E-01 0.51942527E+03</pdfrwt>
<totfact> 0.85326876E+00</totfact>
</mgrwt>
</event>
<event>
 4    1  0.1701380E-008  0.4626327E+03  0.7818608E-02  0.1024020E+00
         -2   -1    0    0    0  501 -0.00000000000E+00  0.00000000000E+00  0.11284653442E+04  0.11284653443E+04  0.25500000000E-02 0.  1.
          2   -1    0    0  501    0  0.00000000000E+00 -0.00000000000E+00 -0.39368186736E+03  0.39368186736E+03  0.25500000000E-02 0. -1.
    8880022    1    1    2    0    0 -0.34977220285E+03 -0.26133643792E+03 -0.18049187515E+03  0.49659470163E+03  0.15294330000E+03 0.  0.
    8880022    1    1    2    0    0  0.34977220285E+03  0.26133643792E+03  0.91527535204E+03  0.10255525100E+04  0.15294330000E+03 0.  0.
<mgrwt>
<rscale>  0 0.46263266E+03</rscale>
<asrwt>0</asrwt>
<pdfrwt beam="1">  1        2 0.60566440E-01 0.46263266E+03</pdfrwt>
<pdfrwt beam="2">  1       -2 0.17361006E+00 0.46263266E+03</pdfrwt>
<totfact> 0.17051604E+01</totfact>
</mgrwt>
</event>
<event>
 4    1  0.1701380E-008  0.1332509E+04  0.7818608E-02  0.9004175E-01
          2   -1    0    0  501    0  0.00000000000E+00  0.00000000000E+00  0.15304350146E+04  0.15304350146E+04  0.25500000000E-02 0. -1.
         -2   -1    0    0    0  501 -0.00000000000E+00 -0.00000000000E+00 -0.13710623342E+04  0.13710623342E+04  0.25500000000E-02 0.  1.
    8880022    1    1    2    0    0 -0.12544328530E+04  0.42259527776E+03 -0.48927611492E+03  0.14194968549E+04  0.15294330000E+03 0.  0.
    8880022    1    1    2    0    0  0.12544328530E+04 -0.42259527776E+03  0.64864879533E+03  0.14820004939E+04  0.15294330000E+03 0.  0.
<mgrwt>
<rscale>  0 0.13325090E+04</rscale>
<asrwt>0</asrwt>
<pdfrwt beam="1">  1        2 0.23545154E+00 0.13325090E+04</pdfrwt>
<pdfrwt beam="2">  1       -2 0.21093267E+00 0.13325090E+04</pdfrwt>
<totfact> 0.13180536E+00</totfact>
</mgrwt>
</event>
<event>
 4    1  0.1701380E-008  0.1272087E+04  0.7818608E-02  0.9051998E-01
          2   -1    0    0  501    0  0.00000000000E+00  0.00000000000E+00  0.18714218145E+04  0.18714218145E+04  0.25500000000E-02 0. -1.
         -2   -1    0    0    0  501 -0.00000000000E+00 -0.00000000000E+00 -0.11560307800E+04  0.11560307800E+04  0.25500000000E-02 0.  1.
    8880022    1    1    2    0    0 -0.41255089725E+01  0.12628527129E+04 -0.40221234713E+03  0.13341590683E+04  0.15294330000E+03 0.  0.
    8880022    1    1    2    0    0  0.41255089725E+01 -0.12628527129E+04  0.11176033817E+04  0.16932935262E+04  0.15294330000E+03 0.  0.
<mgrwt>
<rscale>  0 0.12720871E+04</rscale>
<asrwt>0</asrwt>
<pdfrwt beam="1">  1        2 0.28791105E+00 0.12720871E+04</pdfrwt>
<pdfrwt beam="2">  1       -2 0.17785089E+00 0.12720871E+04</pdfrwt>
<totfact> 0.14237271E+00</totfact>
</mgrwt>
</event>
<event>
 4    1  0.1701380E-008  0.1016640E+04  0.7818608E-02  0.9290480E-01
         -2   -1    0    0    0  501 -0.00000000000E+00  0.00000000000E+00  0.20270195601E+04  0.20270195601E+04  0.25500000000E-02 0.  1.
          2   -1    0    0  501    0  0.00000000000E+00 -0.00000000000E+00 -0.23681958699E+04  0.23681958699E+04  0.25500000000E-02 0. -1.
    8880022    1    1    2    0    0 -0.95613490928E+03  0.30979208015E+03 -0.21172923973E+04  0.23487196185E+04  0.15294330000E+03 0.  0.
    8880022    1    1    2    0    0  0.95613490928E+03 -0.30979208015E+03  0.17761160874E+04  0.20464958115E+04  0.15294330000E+03 0.  0.
<mgrwt>
<rscale>  0 0.10166399E+04</rscale>
<asrwt>0</asrwt>
<pdfrwt beam="1">  1        2 0.36433783E+00 0.10166399E+04</pdfrwt>
<pdfrwt beam="2">  1       -2 0.31184916E+00 0.10166399E+04</pdfrwt>
<totfact> 0.11306103E-01</totfact>
</mgrwt>
</event>
<event>
 4    1  0.1701380E-008  0.1603137E+04  0.7818608E-02  0.8818623E-01
          2   -1    0    0  501    0  0.00000000000E+00  0.00000000000E+00  0.13209452341E+04  0.13209452341E+04  0.25500000000E-02 0. -1.
         -2   -1    0    0    0  501 -0.00000000000E+00 -0.00000000000E+00 -0.28690114513E+04  0.28690114513E+04  0.25500000000E-02 0.  1.
    8880022    1    1    2    0    0  0.75072850234E+03 -0.14082129435E+04  0.41449072327E+03  0.16558536141E+04  0.15294330000E+03 0.  0.
    8880022    1    1    2    0    0 -0.75072850234E+03  0.14082129435E+04 -0.19625569405E+04  0.25341030714E+04  0.15294330000E+03 0.  0.
<mgrwt>
<rscale>  0 0.16031371E+04</rscale>
<asrwt>0</asrwt>
<pdfrwt beam="1">  1        2 0.20322234E+00 0.16031371E+04</pdfrwt>
<pdfrwt beam="2">  1       -2 0.44138638E+00 0.16031371E+04</pdfrwt>
<totfact> 0.59272199E-02</totfact>
</mgrwt>
</event>
<event>
 4    1  0.1701380E-008  0.1323098E+04  0.7818608E-02  0.9011446E-01
          2   -1    0    0  501    0  0.00000000000E+00  0.00000000000E+00  0.22253998447E+04  0.22253998447E+04  0.25500000000E-02 0. -1.
         -2   -1    0    0    0  501 -0.00000000000E+00 -0.00000000000E+00 -0.10139859174E+04  0.10139859174E+04  0.25500000000E-02 0.  1.
    8880022    1    1    2    0    0 -0.12556142007E+04 -0.38810999045E+03 -0.16123147315E+03  0.13328854515E+04  0.15294330000E+03 0.  0.
    8880022    1    1    2    0    0  0.12556142007E+04  0.38810999045E+03  0.13726454005E+04  0.19065003106E+04  0.15294330000E+03 0.  0.
<mgrwt>
<rscale>  0 0.13230979E+04</rscale>
<asrwt>0</asrwt>
<pdfrwt beam="1">  1        2 0.34236920E+00 0.13230979E+04</pdfrwt>
<pdfrwt beam="2">  1       -2 0.15599784E+00 0.13230979E+04</pdfrwt>
<totfact> 0.12952665E+00</totfact>
</mgrwt>
</event>
<event>
 4    1  0.1701380E-008  0.5529293E+03  0.7818608E-02  0.1000818E+00
         -2   -1    0    0    0  501 -0.00000000000E+00  0.00000000000E+00  0.10382958304E+04  0.10382958304E+04  0.25500000000E-02 0.  1.
          2   -1    0    0  501    0  0.00000000000E+00 -0.00000000000E+00 -0.28773352140E+04  0.28773352140E+04  0.25500000000E-02 0. -1.
    8880022    1    1    2    0    0  0.34874640417E+03  0.40089293505E+03  0.93541538547E+03  0.10866152936E+04  0.15294330000E+03 0.  0.
    8880022    1    1    2    0    0 -0.34874640417E+03 -0.40089293505E+03 -0.27744547691E+04  0.28290157509E+04  0.15294330000E+03 0.  0.
<mgrwt>
<rscale>  0 0.55292934E+03</rscale>
<asrwt>0</asrwt>
<pdfrwt beam="1">  1        2 0.44266695E+00 0.55292934E+03</pdfrwt>
<pdfrwt beam="2">  1       -2 0.15973782E+00 0.55292934E+03</pdfrwt>
<totfact> 0.59102360E-01</totfact>
</mgrwt>
</event>
<event>
 4    1  0.1701380E-008  0.6550656E+03  0.7818608E-02  0.9797320E-01
          2   -1    0    0  501    0  0.00000000000E+00  0.00000000000E+00  0.25779596804E+04  0.25779596804E+04  0.25500000000E-02 0. -1.
         -2   -1    0    0    0  501 -0.00000000000E+00 -0.00000000000E+00 -0.39858876147E+03  0.39858876148E+03  0.25500000000E-02 0.  1.
    8880022    1    1    2    0    0  0.58982525390E+03 -0.24046935078E+03  0.22254564754E+04  0.23198636847E+04  0.15294330000E+03 0.  0.
    8880022    1    1    2    0    0 -0.58982525390E+03  0.24046935078E+03 -0.46085556422E+02  0.65668475720E+03  0.15294330000E+03 0.  0.
<mgrwt>
<rscale>  0 0.65506564E+03</rscale>
<asrwt>0</asrwt>
<pdfrwt beam="1">  1        2 0.39660916E+00 0.65506564E+03</pdfrwt>
<pdfrwt beam="2">  1       -2 0.61321351E-01 0.65506564E+03</pdfrwt>
<totfact> 0.82960202E+00</totfact>
</mgrwt>
</event>
<event>
 4    1  0.1701380E-008  0.7740705E+03  0.7818608E-02  0.9598326E-01
          2   -1    0    0  501    0  0.00000000000E+00  0.00000000000E+00  0.21729461571E+04  0.21729461571E+04  0.25500000000E-02 0. -1.
         -2   -1    0    0    0  501 -0.00000000000E+00 -0.00000000000E+00 -0.39904855026E+03  0.39904855027E+03  0.25500000000E-02 0.  1.
    8880022    1    1    2    0    0 -0.49341896943E+02 -0.75720458852E+03  0.17210671893E+03  0.79297275325E+03  0.15294330000E+03 0.  0.
    8880022    1    1    2    0    0  0.49341896943E+02  0.75720458852E+03  0.16017908879E+04  0.17790219541E+04  0.15294330000E+03 0.  0.
<mgrwt>
<rscale>  0 0.77407045E+03</rscale>
<asrwt>0</asrwt>
<pdfrwt beam="1">  1        2 0.33429942E+00 0.77407045E+03</pdfrwt>
<pdfrwt beam="2">  1       -2 0.61392082E-01 0.77407045E+03</pdfrwt>
<totfact> 0.13659713E+01</totfact>
</mgrwt>
</event>
<event>
 4    1  0.1701380E-008  0.1568602E+04  0.7818608E-02  0.8840073E-01
          2   -1    0    0  501    0  0.00000000000E+00  0.00000000000E+00  0.23068874444E+04  0.23068874444E+04  0.25500000000E-02 0. -1.
         -2   -1    0    0    0  501 -0.00000000000E+00 -0.00000000000E+00 -0.12205350927E+04  0.12205350927E+04  0.25500000000E-02 0.  1.
    8880022    1    1    2    0    0 -0.15610325685E+04 -0.17215388571E+02  0.11695456981E+04  0.19566164270E+04  0.15294330000E+03 0.  0.
    8880022    1    1    2    0    0  0.15610325685E+04  0.17215388571E+02 -0.83193346384E+02  0.15708061101E+04  0.15294330000E+03 0.  0.
<mgrwt>
<rscale>  0 0.15686015E+04</rscale>
<asrwt>0</asrwt>
<pdfrwt beam="1">  1        2 0.35490576E+00 0.15686015E+04</pdfrwt>
<pdfrwt beam="2">  1       -2 0.18777463E+00 0.15686015E+04</pdfrwt>
<totfact> 0.67302385E-01</totfact>
</mgrwt>
</event>
<event>
 4    1  0.1701380E-008  0.7162851E+03  0.7818608E-02  0.9689781E-01
         -2   -1    0    0    0  501 -0.00000000000E+00  0.00000000000E+00  0.17775802321E+04  0.17775802321E+04  0.25500000000E-02 0.  1.
          2   -1    0    0  501    0  0.00000000000E+00 -0.00000000000E+00 -0.56468316552E+03  0.56468316552E+03  0.25500000000E-02 0. -1.
    8880022    1    1    2    0    0  0.65427255244E+03  0.24819375211E+03 -0.21239150511E+03  0.74711077888E+03  0.15294330000E+03 0.  0.
    8880022    1    1    2    0    0 -0.65427255244E+03 -0.24819375211E+03  0.14252885717E+04  0.15951526187E+04  0.15294330000E+03 0.  0.
<mgrwt>
<rscale>  0 0.71628511E+03</rscale>
<asrwt>0</asrwt>
<pdfrwt beam="1">  1        2 0.86874334E-01 0.71628511E+03</pdfrwt>
<pdfrwt beam="2">  1       -2 0.27347388E+00 0.71628511E+03</pdfrwt>
<totfact> 0.25625446E+00</totfact>
</mgrwt>
</event>
<event>
 4    1  0.1701380E-008  0.6154428E+03  0.7818608E-02  0.9873875E-01
          2   -1    0    0  501    0  0.00000000000E+00  0.00000000000E+00  0.39898706589E+04  0.39898706589E+04  0.25500000000E-02 0. -1.
         -2   -1    0    0    0  501 -0.00000000000E+00 -0.00000000000E+00 -0.40049942633E+03  0.40049942634E+03  0.25500000000E-02 0.  1.
    8880022    1    1    2    0    0  0.55647330108E+03  0.21381227235E+03 -0.12276017652E+03  0.62756667899E+03  0.15294330000E+03 0.  1.
    8880022    1    1    2    0    0 -0.55647330108E+03 -0.21381227235E+03  0.37121314091E+04  0.37628034063E+04  0.15294330000E+03 0.  0.
<mgrwt>
<rscale>  0 0.61544283E+03</rscale>
<asrwt>0</asrwt>
<pdfrwt beam="1">  1        2 0.61382627E+00 0.61544283E+03</pdfrwt>
<pdfrwt beam="2">  1       -2 0.61615295E-01 0.61544283E+03</pdfrwt>
<totfact> 0.98552496E-01</totfact>
</mgrwt>
</event>
<event>
 4    1  0.1701380E-008  0.7229000E+03  0.7818608E-02  0.9678852E-01
         -2   -1    0    0    0  501 -0.00000000000E+00  0.00000000000E+00  0.15926358427E+04  0.15926358427E+04  0.25500000000E-02 0.  1.
          2   -1    0    0  501    0  0.00000000000E+00 -0.00000000000E+00 -0.22280686448E+04  0.22280686448E+04  0.25500000000E-02 0. -1.
    8880022    1    1    2    0    0  0.15797128683E+03 -0.68864925981E+03 -0.20818012718E+04  0.22037424801E+04  0.15294330000E+03 0. -1.
    8880022    1    1    2    0    0 -0.15797128683E+03  0.68864925981E+03  0.14463684696E+04  0.16169620074E+04  0.15294330000E+03 0.  0.
<mgrwt>
<rscale>  0 0.72289998E+03</rscale>
<asrwt>0</asrwt>
<pdfrwt beam="1">  1        2 0.34277979E+00 0.72289998E+03</pdfrwt>
<pdfrwt beam="2">  1       -2 0.24502090E+00 0.72289998E+03</pdfrwt>
<totfact> 0.36604395E-01</totfact>
</mgrwt>
</event>
<event>
 4    1  0.1701380E-008  0.3485927E+03  0.7818608E-02  0.1063194E+00
          2   -1    0    0  501    0  0.00000000000E+00  0.00000000000E+00  0.73481626855E+03  0.73481626855E+03  0.25500000000E-02 0. -1.
         -2   -1    0    0    0  501 -0.00000000000E+00 -0.00000000000E+00 -0.49448590064E+03  0.49448590065E+03  0.25500000000E-02 0.  1.
    8880022    1    1    2    0    0  0.19452876919E+03 -0.24552754576E+03 -0.38128275996E+03  0.51661727984E+03  0.15294330000E+03 0.  0.
    8880022    1    1    2    0    0 -0.19452876919E+03  0.24552754576E+03  0.62161312787E+03  0.71268488936E+03  0.15294330000E+03 0.  0.
<mgrwt>
<rscale>  0 0.34859270E+03</rscale>
<asrwt>0</asrwt>
<pdfrwt beam="1">  1        2 0.11304866E+00 0.34859270E+03</pdfrwt>
<pdfrwt beam="2">  1       -2 0.76074754E-01 0.34859270E+03</pdfrwt>
<totfact> 0.62894476E+01</totfact>
</mgrwt>
</event>
<event>
 4    1  0.1701380E-008  0.7739848E+03  0.7818608E-02  0.9598456E-01
         -2   -1    0    0    0  501 -0.00000000000E+00  0.00000000000E+00  0.61919593041E+03  0.61919593041E+03  0.25500000000E-02 0.  1.
          2   -1    0    0  501    0  0.00000000000E+00 -0.00000000000E+00 -0.16123279036E+04  0.16123279036E+04  0.25500000000E-02 0. -1.
    8880022    1    1    2    0    0 -0.20064254387E+02 -0.75845781340E+03  0.20906461834E+03  0.80172345399E+03  0.15294330000E+03 0.  0.
    8880022    1    1    2    0    0  0.20064254387E+02  0.75845781340E+03 -0.12021965915E+04  0.14298003800E+04  0.15294330000E+03 0.  0.
<mgrwt>
<rscale>  0 0.77398481E+03</rscale>
<asrwt>0</asrwt>
<pdfrwt beam="1">  1        2 0.24805044E+00 0.77398481E+03</pdfrwt>
<pdfrwt beam="2">  1       -2 0.95260913E-01 0.77398481E+03</pdfrwt>
<totfact> 0.10402650E+01</totfact>
</mgrwt>
</event>
<event>
 4    1  0.1701380E-008  0.1127607E+04  0.7818608E-02  0.9178694E-01
         -2   -1    0    0    0  501 -0.00000000000E+00  0.00000000000E+00  0.75574445220E+03  0.75574445221E+03  0.25500000000E-02 0.  1.
          2   -1    0    0  501    0  0.00000000000E+00 -0.00000000000E+00 -0.25756674726E+04  0.25756674726E+04  0.25500000000E-02 0. -1.
    8880022    1    1    2    0    0  0.10122013411E+04 -0.47281632572E+03  0.70957746906E+02  0.11298378148E+04  0.15294330000E+03 0.  0.
    8880022    1    1    2    0    0 -0.10122013411E+04  0.47281632572E+03 -0.18908807673E+04  0.22015741100E+04  0.15294330000E+03 0.  0.
<mgrwt>
<rscale>  0 0.11276074E+04</rscale>
<asrwt>0</asrwt>
<pdfrwt beam="1">  1        2 0.39625653E+00 0.11276074E+04</pdfrwt>
<pdfrwt beam="2">  1       -2 0.11626838E+00 0.11276074E+04</pdfrwt>
<totfact> 0.17893277E+00</totfact>
</mgrwt>
</event>
<event>
 4    1  0.1701380E-008  0.1735576E+04  0.7818608E-02  0.8741330E-01
         -2   -1    0    0    0  501 -0.00000000000E+00  0.00000000000E+00  0.87512926471E+03  0.87512926471E+03  0.25500000000E-02 0.  1.
          2   -1    0    0  501    0  0.00000000000E+00 -0.00000000000E+00 -0.44104290557E+04  0.44104290557E+04  0.25500000000E-02 0. -1.
    8880022    1    1    2    0    0  0.10634564916E+04 -0.13630459228E+04 -0.30060087473E+04  0.34710681553E+04  0.15294330000E+03 0.  0.
    8880022    1    1    2    0    0 -0.10634564916E+04  0.13630459228E+04 -0.52929104366E+03  0.18144901650E+04  0.15294330000E+03 0.  0.
<mgrwt>
<rscale>  0 0.17355764E+04</rscale>
<asrwt>0</asrwt>
<pdfrwt beam="1">  1        2 0.67852753E+00 0.17355764E+04</pdfrwt>
<pdfrwt beam="2">  1       -2 0.13463527E+00 0.17355764E+04</pdfrwt>
<totfact> 0.56070094E-02</totfact>
</mgrwt>
</event>
<event>
 4    1  0.1701380E-008  0.7055868E+03  0.7818608E-02  0.9707725E-01
         -2   -1    0    0    0  501 -0.00000000000E+00  0.00000000000E+00  0.63398637418E+03  0.63398637419E+03  0.25500000000E-02 0.  1.
          2   -1    0    0  501    0  0.00000000000E+00 -0.00000000000E+00 -0.24482746391E+04  0.24482746391E+04  0.25500000000E-02 0. -1.
    8880022    1    1    2    0    0 -0.65963042823E+03  0.19836524606E+03 -0.21772959040E+04  0.22887704514E+04  0.15294330000E+03 0.  0.
    8880022    1    1    2    0    0  0.65963042823E+03 -0.19836524606E+03  0.36300763910E+03  0.79349056185E+03  0.15294330000E+03 0.  0.
<mgrwt>
<rscale>  0 0.70558680E+03</rscale>
<asrwt>0</asrwt>
<pdfrwt beam="1">  1        2 0.37665763E+00 0.70558680E+03</pdfrwt>
<pdfrwt beam="2">  1       -2 0.97536366E-01 0.70558680E+03</pdfrwt>
<totfact> 0.34555831E+00</totfact>
</mgrwt>
</event>
<event>
 4    1  0.1701380E-008  0.1373236E+04  0.7818608E-02  0.8973423E-01
          2   -1    0    0  501    0  0.00000000000E+00  0.00000000000E+00  0.31672104773E+04  0.31672104773E+04  0.25500000000E-02 0. -1.
         -2   -1    0    0    0  501 -0.00000000000E+00 -0.00000000000E+00 -0.14102350053E+04  0.14102350053E+04  0.25500000000E-02 0.  1.
    8880022    1    1    2    0    0 -0.52313799681E+03 -0.12604409238E+04 -0.86123749204E+03  0.16209584686E+04  0.15294330000E+03 0.  0.
    8880022    1    1    2    0    0  0.52313799681E+03  0.12604409238E+04  0.26182129640E+04  0.29564870140E+04  0.15294330000E+03 0.  0.
<mgrwt>
<rscale>  0 0.13732357E+04</rscale>
<asrwt>0</asrwt>
<pdfrwt beam="1">  1        2 0.48726315E+00 0.13732357E+04</pdfrwt>
<pdfrwt beam="2">  1       -2 0.21695923E+00 0.13732357E+04</pdfrwt>
<totfact> 0.13509735E-01</totfact>
</mgrwt>
</event>
<event>
 4    1  0.1701380E-008  0.1495979E+04  0.7818608E-02  0.8887131E-01
          2   -1    0    0  501    0  0.00000000000E+00  0.00000000000E+00  0.38825065237E+04  0.38825065237E+04  0.25500000000E-02 0. -1.
         -2   -1    0    0    0  501 -0.00000000000E+00 -0.00000000000E+00 -0.71038618356E+03  0.71038618357E+03  0.25500000000E-02 0.  1.
    8880022    1    1    2    0    0 -0.14880675657E+04  0.14759232060E+02  0.58880435306E+03  0.16076831573E+04  0.15294330000E+03 0.  0.
    8880022    1    1    2    0    0  0.14880675657E+04 -0.14759232060E+02  0.25833159871E+04  0.29852095500E+04  0.15294330000E+03 0.  0.
<mgrwt>
<rscale>  0 0.14959795E+04</rscale>
<asrwt>0</asrwt>
<pdfrwt beam="1">  1        2 0.59730870E+00 0.14959795E+04</pdfrwt>
<pdfrwt beam="2">  1       -2 0.10929018E+00 0.14959795E+04</pdfrwt>
<totfact> 0.27364810E-01</totfact>
</mgrwt>
</event>
<event>
 4    1  0.1701380E-008  0.4447508E+03  0.7818608E-02  0.1029299E+00
          2   -1    0    0  501    0  0.00000000000E+00  0.00000000000E+00  0.13431678868E+04  0.13431678869E+04  0.25500000000E-02 0. -1.
         -2   -1    0    0    0  501 -0.00000000000E+00 -0.00000000000E+00 -0.31429661942E+03  0.31429661943E+03  0.25500000000E-02 0.  1.
    8880022    1    1    2    0    0  0.30768695711E+03 -0.28238339746E+03  0.11185819133E+04  0.12037561200E+04  0.15294330000E+03 0.  0.
    8880022    1    1    2    0    0 -0.30768695711E+03  0.28238339746E+03 -0.89710645882E+02  0.45370838623E+03  0.15294330000E+03 0.  0.
<mgrwt>
<rscale>  0 0.44475083E+03</rscale>
<asrwt>0</asrwt>
<pdfrwt beam="1">  1        2 0.20664121E+00 0.44475083E+03</pdfrwt>
<pdfrwt beam="2">  1       -2 0.48353326E-01 0.44475083E+03</pdfrwt>
<totfact> 0.66817156E+01</totfact>
</mgrwt>
</event>
<event>
 4    1  0.1701380E-008  0.2954681E+03  0.7818608E-02  0.1087528E+00
         -2   -1    0    0    0  501 -0.00000000000E+00  0.00000000000E+00  0.19373581510E+03  0.19373581511E+03  0.25500000000E-02 0.  1.
          2   -1    0    0  501    0  0.00000000000E+00 -0.00000000000E+00 -0.56614725964E+03  0.56614725965E+03  0.25500000000E-02 0. -1.
    8880022    1    1    2    0    0  0.23852985314E+03 -0.83745105651E+02 -0.14575874649E+02  0.29582738666E+03  0.15294330000E+03 0.  0.
    8880022    1    1    2    0    0 -0.23852985314E+03  0.83745105651E+02 -0.35783556990E+03  0.46405568810E+03  0.15294330000E+03 0.  0.
<mgrwt>
<rscale>  0 0.29546808E+03</rscale>
<asrwt>0</asrwt>
<pdfrwt beam="1">  1        2 0.87099578E-01 0.29546808E+03</pdfrwt>
<pdfrwt beam="2">  1       -2 0.29805510E-01 0.29546808E+03</pdfrwt>
<totfact> 0.56107508E+02</totfact>
</mgrwt>
</event>
<event>
 4    1  0.1701380E-008  0.1314743E+04  0.7818608E-02  0.9017955E-01
          2   -1    0    0  501    0  0.00000000000E+00  0.00000000000E+00  0.44912628380E+04  0.44912628380E+04  0.25500000000E-02 0. -1.
         -2   -1    0    0    0  501 -0.00000000000E+00 -0.00000000000E+00 -0.93780663737E+03  0.93780663737E+03  0.25500000000E-02 0.  1.
    8880022    1    1    2    0    0 -0.11916647077E+04  0.53394042319E+03 -0.30765116489E+03  0.13502585099E+04  0.15294330000E+03 0.  0.
    8880022    1    1    2    0    0  0.11916647077E+04 -0.53394042319E+03  0.38611073655E+04  0.40788109655E+04  0.15294330000E+03 0.  0.
<mgrwt>
<rscale>  0 0.13147429E+04</rscale>
<asrwt>0</asrwt>
<pdfrwt beam="1">  1        2 0.69096351E+00 0.13147429E+04</pdfrwt>
<pdfrwt beam="2">  1       -2 0.14427795E+00 0.13147429E+04</pdfrwt>
<totfact> 0.41772897E-02</totfact>
</mgrwt>
</event>
<event>
 4    1  0.1702122E-008  0.8952874E+03  0.7818608E-02  0.9431492E-01
          2   -1    0    0  501    0  0.00000000000E+00  0.00000000000E+00  0.22844466017E+04  0.22844466017E+04  0.25500000000E-02 0. -1.
         -2   -1    0    0    0  501 -0.00000000000E+00 -0.00000000000E+00 -0.12228952590E+04  0.12228952590E+04  0.25500000000E-02 0.  1.
    8880022    1    1    2    0    0  0.32468055838E+03  0.82020143732E+03  0.20116509032E+04  0.22018807580E+04  0.15294330000E+03 0.  0.
    8880022    1    1    2    0    0 -0.32468055838E+03 -0.82020143732E+03 -0.95009956051E+03  0.13054611027E+04  0.15294330000E+03 0.  0.
<mgrwt>
<rscale>  0 0.89528739E+03</rscale>
<asrwt>0</asrwt>
<pdfrwt beam="1">  1        2 0.35145332E+00 0.89528739E+03</pdfrwt>
<pdfrwt beam="2">  1       -2 0.18813773E+00 0.89528739E+03</pdfrwt>
<totfact> 0.75305995E-01</totfact>
</mgrwt>
</event>
<event>
 4    1  0.1701380E-008  0.8835034E+03  0.7818608E-02  0.9446441E-01
         -2   -1    0    0    0  501 -0.00000000000E+00  0.00000000000E+00  0.14896369653E+04  0.14896369653E+04  0.25500000000E-02 0.  1.
          2   -1    0    0  501    0  0.00000000000E+00 -0.00000000000E+00 -0.30384833074E+04  0.30384833074E+04  0.25500000000E-02 0. -1.
    8880022    1    1    2    0    0 -0.24232243014E+03 -0.83574309754E+03  0.12851793388E+04  0.15595718230E+04  0.15294330000E+03 0.  0.
    8880022    1    1    2    0    0  0.24232243014E+03  0.83574309754E+03 -0.28340256809E+04  0.29685484497E+04  0.15294330000E+03 0.  0.
<mgrwt>
<rscale>  0 0.88350345E+03</rscale>
<asrwt>0</asrwt>
<pdfrwt beam="1">  1        2 0.46745897E+00 0.88350345E+03</pdfrwt>
<pdfrwt beam="2">  1       -2 0.22917492E+00 0.88350345E+03</pdfrwt>
<totfact> 0.14917029E-01</totfact>
</mgrwt>
</event>
<event>
 4    1  0.1701380E-008  0.5094015E+03  0.7818608E-02  0.1011354E+00
         -2   -1    0    0    0  501 -0.00000000000E+00  0.00000000000E+00  0.15024719811E+04  0.15024719811E+04  0.25500000000E-02 0.  1.
          2   -1    0    0  501    0  0.00000000000E+00 -0.00000000000E+00 -0.30028265437E+04  0.30028265437E+04  0.25500000000E-02 0. -1.
    8880022    1    1    2    0    0  0.46322522739E+03  0.14669895259E+03 -0.29370863268E+04  0.29809337359E+04  0.15294330000E+03 0.  0.
    8880022    1    1    2    0    0 -0.46322522739E+03 -0.14669895259E+03  0.14367317642E+04  0.15243647888E+04  0.15294330000E+03 0.  0.
<mgrwt>
<rscale>  0 0.50940146E+03</rscale>
<asrwt>0</asrwt>
<pdfrwt beam="1">  1        2 0.46197331E+00 0.50940146E+03</pdfrwt>
<pdfrwt beam="2">  1       -2 0.23114954E+00 0.50940146E+03</pdfrwt>
<totfact> 0.17109751E-01</totfact>
</mgrwt>
</event>
<event>
 4    1  0.1701380E-008  0.5164343E+03  0.7818608E-02  0.1009576E+00
          2   -1    0    0  501    0  0.00000000000E+00  0.00000000000E+00  0.11869232183E+04  0.11869232183E+04  0.25500000000E-02 0. -1.
         -2   -1    0    0    0  501 -0.00000000000E+00 -0.00000000000E+00 -0.26946011508E+03  0.26946011509E+03  0.25500000000E-02 0.  1.
    8880022    1    1    2    0    0  0.32060550785E+03 -0.37486637157E+03  0.75551046786E+03  0.91515048395E+03  0.15294330000E+03 0. -1.
    8880022    1    1    2    0    0 -0.32060550785E+03  0.37486637157E+03  0.16195263535E+03  0.54123284944E+03  0.15294330000E+03 0.  1.
<mgrwt>
<rscale>  0 0.51643426E+03</rscale>
<asrwt>0</asrwt>
<pdfrwt beam="1">  1        2 0.18260357E+00 0.51643426E+03</pdfrwt>
<pdfrwt beam="2">  1       -2 0.41455403E-01 0.51643426E+03</pdfrwt>
<totfact> 0.11026275E+02</totfact>
</mgrwt>
</event>
<event>
 4    1  0.1701380E-008  0.4332397E+03  0.7818608E-02  0.1032841E+00
         -2   -1    0    0    0  501 -0.00000000000E+00  0.00000000000E+00  0.10908624703E+04  0.10908624703E+04  0.25500000000E-02 0.  1.
          2   -1    0    0  501    0  0.00000000000E+00 -0.00000000000E+00 -0.13205893912E+04  0.13205893912E+04  0.25500000000E-02 0. -1.
    8880022    1    1    2    0    0  0.12263692192E+03  0.38634846495E+03 -0.12393008265E+04  0.13128454375E+04  0.15294330000E+03 0. -1.
    8880022    1    1    2    0    0 -0.12263692192E+03 -0.38634846495E+03  0.10095739057E+04  0.10986064241E+04  0.15294330000E+03 0.  0.
<mgrwt>
<rscale>  0 0.43323966E+03</rscale>
<asrwt>0</asrwt>
<pdfrwt beam="1">  1        2 0.20316760E+00 0.43323966E+03</pdfrwt>
<pdfrwt beam="2">  1       -2 0.16782499E+00 0.43323966E+03</pdfrwt>
<totfact> 0.38814570E+00</totfact>
</mgrwt>
</event>
<event>
 4    1  0.1701380E-008  0.1521418E+04  0.7818608E-02  0.8870334E-01
          2   -1    0    0  501    0  0.00000000000E+00  0.00000000000E+00  0.22014326192E+04  0.22014326192E+04  0.25500000000E-02 0. -1.
         -2   -1    0    0    0  501 -0.00000000000E+00 -0.00000000000E+00 -0.14169490005E+04  0.14169490005E+04  0.25500000000E-02 0.  1.
    8880022    1    1    2    0    0  0.14855228373E+04  0.29076027047E+03 -0.52661179381E+03  0.16099786550E+04  0.15294330000E+03 0.  0.
    8880022    1    1    2    0    0 -0.14855228373E+04 -0.29076027047E+03  0.13110954124E+04  0.20084029647E+04  0.15294330000E+03 0.  0.
<mgrwt>
<rscale>  0 0.15214175E+04</rscale>
<asrwt>0</asrwt>
<pdfrwt beam="1">  1        2 0.33868194E+00 0.15214175E+04</pdfrwt>
<pdfrwt beam="2">  1       -2 0.21799215E+00 0.15214175E+04</pdfrwt>
<totfact> 0.49100495E-01</totfact>
</mgrwt>
</event>
<event>
 4    1  0.1701380E-008  0.8881570E+03  0.7818608E-02  0.9440508E-01
         -2   -1    0    0    0  501 -0.00000000000E+00  0.00000000000E+00  0.11796855964E+04  0.11796855964E+04  0.25500000000E-02 0.  1.
          2   -1    0    0  501    0  0.00000000000E+00 -0.00000000000E+00 -0.25105905233E+04  0.25105905233E+04  0.25500000000E-02 0. -1.
    8880022    1    1    2    0    0 -0.37013507717E+02 -0.87410598471E+03 -0.22458855478E+04  0.24151241830E+04  0.15294330000E+03 0.  0.
    8880022    1    1    2    0    0  0.37013507717E+02  0.87410598471E+03  0.91498062082E+03  0.12751519367E+04  0.15294330000E+03 0.  0.
<mgrwt>
<rscale>  0 0.88815704E+03</rscale>
<asrwt>0</asrwt>
<pdfrwt beam="1">  1        2 0.38624469E+00 0.88815704E+03</pdfrwt>
<pdfrwt beam="2">  1       -2 0.18149009E+00 0.88815704E+03</pdfrwt>
<totfact> 0.62372513E-01</totfact>
</mgrwt>
</event>
<event>
 4    1  0.1701380E-008  0.2719711E+03  0.7818608E-02  0.1100157E+00
         -2   -1    0    0    0  501 -0.00000000000E+00  0.00000000000E+00  0.18850651848E+03  0.18850651850E+03  0.25500000000E-02 0.  1.
          2   -1    0    0  501    0  0.00000000000E+00 -0.00000000000E+00 -0.90100464081E+03  0.90100464081E+03  0.25500000000E-02 0. -1.
    8880022    1    1    2    0    0  0.10170029615E+03  0.20058331030E+03 -0.76554002891E+03  0.81241602857E+03  0.15294330000E+03 0.  0.
    8880022    1    1    2    0    0 -0.10170029615E+03 -0.20058331030E+03  0.53041906584E+02  0.27709513073E+03  0.15294330000E+03 0.  0.
<mgrwt>
<rscale>  0 0.27197108E+03</rscale>
<asrwt>0</asrwt>
<pdfrwt beam="1">  1        2 0.13861610E+00 0.27197108E+03</pdfrwt>
<pdfrwt beam="2">  1       -2 0.29001003E-01 0.27197108E+03</pdfrwt>
<totfact> 0.33247524E+02</totfact>
</mgrwt>
</event>
<event>
 4    1  0.1701380E-008  0.7414961E+03  0.7818608E-02  0.9648787E-01
          2   -1    0    0  501    0  0.00000000000E+00  0.00000000000E+00  0.12785980561E+04  0.12785980561E+04  0.25500000000E-02 0. -1.
         -2   -1    0    0    0  501 -0.00000000000E+00 -0.00000000000E+00 -0.46680592623E+03  0.46680592623E+03  0.25500000000E-02 0.  1.
    8880022    1    1    2    0    0  0.44425150891E+03 -0.57364223689E+03  0.65089689270E+03  0.98665254120E+03  0.15294330000E+03 0.  0.
    8880022    1    1    2    0    0 -0.44425150891E+03  0.57364223689E+03  0.16089523721E+03  0.75875144118E+03  0.15294330000E+03 0.  0.
<mgrwt>
<rscale>  0 0.74149610E+03</rscale>
<asrwt>0</asrwt>
<pdfrwt beam="1">  1        2 0.19670739E+00 0.74149610E+03</pdfrwt>
<pdfrwt beam="2">  1       -2 0.71816297E-01 0.74149610E+03</pdfrwt>
<totfact> 0.30521035E+01</totfact>
</mgrwt>
</event>
<event>
 4    1  0.1701380E-008  0.1020565E+04  0.7818608E-02  0.9286273E-01
          2   -1    0    0  501    0  0.00000000000E+00  0.00000000000E+00  0.22441883372E+04  0.22441883372E+04  0.25500000000E-02 0. -1.
         -2   -1    0    0    0  501 -0.00000000000E+00 -0.00000000000E+00 -0.61881235532E+03  0.61881235533E+03  0.25500000000E-02 0.  1.
    8880022    1    1    2    0    0 -0.43659574739E+03  0.90969499661E+03  0.15284341611E+04  0.18378420692E+04  0.15294330000E+03 0.  0.
    8880022    1    1    2    0    0  0.43659574739E+03 -0.90969499661E+03  0.96941820860E+02  0.10251586234E+04  0.15294330000E+03 0. -1.
<mgrwt>
<rscale>  0 0.10205648E+04</rscale>
<asrwt>0</asrwt>
<pdfrwt beam="1">  1        2 0.34525974E+00 0.10205648E+04</pdfrwt>
<pdfrwt beam="2">  1       -2 0.95201902E-01 0.10205648E+04</pdfrwt>
<totfact> 0.45301729E+00</totfact>
</mgrwt>
</event>
<event>
 4    1  0.1701380E-008  0.9938821E+03  0.7818608E-02  0.9315280E-01
         -2   -1    0    0    0  501 -0.00000000000E+00  0.00000000000E+00  0.38221320836E+03  0.38221320837E+03  0.25500000000E-02 0.  1.
          2   -1    0    0  501    0  0.00000000000E+00 -0.00000000000E+00 -0.42030125217E+04  0.42030125217E+04  0.25500000000E-02 0. -1.
    8880022    1    1    2    0    0 -0.58635328993E+03  0.78778152486E+03 -0.48768302252E+03  0.11070845925E+04  0.15294330000E+03 0.  0.
    8880022    1    1    2    0    0  0.58635328993E+03 -0.78778152486E+03 -0.33331162908E+04  0.34781411376E+04  0.15294330000E+03 0.  0.
<mgrwt>
<rscale>  0 0.99388207E+03</rscale>
<asrwt>0</asrwt>
<pdfrwt beam="1">  1        2 0.64661728E+00 0.99388207E+03</pdfrwt>
<pdfrwt beam="2">  1       -2 0.58802035E-01 0.99388207E+03</pdfrwt>
<totfact> 0.66465589E-01</totfact>
</mgrwt>
</event>
<event>
 4    1  0.1701380E-008  0.1329432E+04  0.7818608E-02  0.9006545E-01
         -2   -1    0    0    0  501 -0.00000000000E+00  0.00000000000E+00  0.15707078427E+04  0.15707078427E+04  0.25500000000E-02 0.  1.
          2   -1    0    0  501    0  0.00000000000E+00 -0.00000000000E+00 -0.14654914762E+04  0.14654914762E+04  0.25500000000E-02 0. -1.
    8880022    1    1    2    0    0 -0.13197616264E+04  0.47200868074E+02 -0.67890479927E+03  0.14927498290E+04  0.15294330000E+03 0.  0.
    8880022    1    1    2    0    0  0.13197616264E+04 -0.47200868074E+02  0.78412116569E+03  0.15434494899E+04  0.15294330000E+03 0.  0.
<mgrwt>
<rscale>  0 0.13294323E+04</rscale>
<asrwt>0</asrwt>
<pdfrwt beam="1">  1        2 0.22546023E+00 0.13294323E+04</pdfrwt>
<pdfrwt beam="2">  1       -2 0.24164736E+00 0.13294323E+04</pdfrwt>
<totfact> 0.91961453E-01</totfact>
</mgrwt>
</event>
<event>
 4    1  0.1701380E-008  0.4020430E+03  0.7818608E-02  0.1043075E+00
          2   -1    0    0  501    0  0.00000000000E+00  0.00000000000E+00  0.36797061846E+04  0.36797061846E+04  0.25500000000E-02 0. -1.
         -2   -1    0    0    0  501 -0.00000000000E+00 -0.00000000000E+00 -0.33160645247E+03  0.33160645248E+03  0.25500000000E-02 0.  1.
    8880022    1    1    2    0    0 -0.22586021795E+03 -0.29535417509E+03 -0.19404714516E+03  0.44642230495E+03  0.15294330000E+03 0.  1.
    8880022    1    1    2    0    0  0.22586021795E+03  0.29535417509E+03  0.35421468772E+04  0.35648903321E+04  0.15294330000E+03 0.  0.
<mgrwt>
<rscale>  0 0.40204301E+03</rscale>
<asrwt>0</asrwt>
<pdfrwt beam="1">  1        2 0.56610867E+00 0.40204301E+03</pdfrwt>
<pdfrwt beam="2">  1       -2 0.51016375E-01 0.40204301E+03</pdfrwt>
<totfact> 0.26745750E+00</totfact>
</mgrwt>
</event>
<event>
 4    1  0.1701380E-008  0.2427998E+03  0.7818608E-02  0.1117942E+00
          2   -1    0    0  501    0  0.00000000000E+00  0.00000000000E+00  0.10263653756E+04  0.10263653756E+04  0.25500000000E-02 0. -1.
         -2   -1    0    0    0  501 -0.00000000000E+00 -0.00000000000E+00 -0.17144710570E+03  0.17144710572E+03  0.25500000000E-02 0.  1.
    8880022    1    1    2    0    0  0.76529338623E+02  0.17234666051E+03 -0.60928502064E+02  0.25032787787E+03  0.15294330000E+03 0.  0.
    8880022    1    1    2    0    0 -0.76529338623E+02 -0.17234666051E+03  0.91584677195E+03  0.94748460344E+03  0.15294330000E+03 0. -1.
<mgrwt>
<rscale>  0 0.24279984E+03</rscale>
<asrwt>0</asrwt>
<pdfrwt beam="1">  1        2 0.15790237E+00 0.24279984E+03</pdfrwt>
<pdfrwt beam="2">  1       -2 0.26376478E-01 0.24279984E+03</pdfrwt>
<totfact> 0.33031290E+02</totfact>
</mgrwt>
</event>
<event>
 4    1  0.1701380E-008  0.8568502E+03  0.7818608E-02  0.9481189E-01
         -2   -1    0    0    0  501 -0.00000000000E+00  0.00000000000E+00  0.10425282320E+04  0.10425282320E+04  0.25500000000E-02 0.  1.
          2   -1    0    0  501    0  0.00000000000E+00 -0.00000000000E+00 -0.87375062523E+03  0.87375062523E+03  0.25500000000E-02 0. -1.
    8880022    1    1    2    0    0  0.70617889166E+03 -0.46055622946E+03  0.50640651170E+03  0.99530893477E+03  0.15294330000E+03 0.  0.
    8880022    1    1    2    0    0 -0.70617889166E+03  0.46055622946E+03 -0.33762890497E+03  0.92096992242E+03  0.15294330000E+03 0.  0.
<mgrwt>
<rscale>  0 0.85685023E+03</rscale>
<asrwt>0</asrwt>
<pdfrwt beam="1">  1        2 0.13442317E+00 0.85685023E+03</pdfrwt>
<pdfrwt beam="2">  1       -2 0.16038896E+00 0.85685023E+03</pdfrwt>
<totfact> 0.76882882E+00</totfact>
</mgrwt>
</event>
<event>
 4    1  0.1701380E-008  0.7525308E+03  0.7818608E-02  0.9631388E-01
          2   -1    0    0  501    0  0.00000000000E+00  0.00000000000E+00  0.87452864120E+03  0.87452864120E+03  0.25500000000E-02 0. -1.
         -2   -1    0    0    0  501 -0.00000000000E+00 -0.00000000000E+00 -0.11459897137E+04  0.11459897137E+04  0.25500000000E-02 0.  1.
    8880022    1    1    2    0    0  0.24073967847E+03 -0.69638734658E+03 -0.80199704958E+03  0.10997735448E+04  0.15294330000E+03 0.  0.
    8880022    1    1    2    0    0 -0.24073967847E+03  0.69638734658E+03  0.53053597712E+03  0.92074481008E+03  0.15294330000E+03 0.  0.
<mgrwt>
<rscale>  0 0.75253078E+03</rscale>
<asrwt>0</asrwt>
<pdfrwt beam="1">  1        2 0.13454287E+00 0.75253078E+03</pdfrwt>
<pdfrwt beam="2">  1       -2 0.17630611E+00 0.75253078E+03</pdfrwt>
<totfact> 0.59834839E+00</totfact>
</mgrwt>
</event>
<event>
 4    1  0.1701380E-008  0.4407930E+03  0.7818608E-02  0.1030504E+00
         -2   -1    0    0    0  501 -0.00000000000E+00  0.00000000000E+00  0.31302856550E+03  0.31302856551E+03  0.25500000000E-02 0.  1.
          2   -1    0    0  501    0  0.00000000000E+00 -0.00000000000E+00 -0.19661036833E+04  0.19661036833E+04  0.25500000000E-02 0. -1.
    8880022    1    1    2    0    0  0.10255520704E+02  0.41328154783E+03  0.11613699669E+03  0.45583579115E+03  0.15294330000E+03 0.  0.
    8880022    1    1    2    0    0 -0.10255520704E+02 -0.41328154783E+03 -0.17692121145E+04  0.18232964577E+04  0.15294330000E+03 0.  0.
<mgrwt>
<rscale>  0 0.44079300E+03</rscale>
<asrwt>0</asrwt>
<pdfrwt beam="1">  1        2 0.30247748E+00 0.44079300E+03</pdfrwt>
<pdfrwt beam="2">  1       -2 0.48158242E-01 0.44079300E+03</pdfrwt>
<totfact> 0.30988868E+01</totfact>
</mgrwt>
</event>
<event>
 4    1  0.1701380E-008  0.2048979E+03  0.7818608E-02  0.1145671E+00
          2   -1    0    0  501    0  0.00000000000E+00  0.00000000000E+00  0.98384289745E+03  0.98384289746E+03  0.25500000000E-02 0. -1.
         -2   -1    0    0    0  501 -0.00000000000E+00 -0.00000000000E+00 -0.29781934483E+03  0.29781934484E+03  0.25500000000E-02 0.  1.
    8880022    1    1    2    0    0 -0.32827640065E+02 -0.13233991601E+03  0.93615850041E+03  0.95831930912E+03  0.15294330000E+03 0.  0.
    8880022    1    1    2    0    0  0.32827640065E+02  0.13233991601E+03 -0.25013494778E+03  0.32334293318E+03  0.15294330000E+03 0.  0.
<mgrwt>
<rscale>  0 0.20489793E+03</rscale>
<asrwt>0</asrwt>
<pdfrwt beam="1">  1        2 0.15136045E+00 0.20489793E+03</pdfrwt>
<pdfrwt beam="2">  1       -2 0.45818361E-01 0.20489793E+03</pdfrwt>
<totfact> 0.12602678E+02</totfact>
</mgrwt>
</event>
<event>
 4    1  0.1701380E-008  0.5769435E+03  0.7818608E-02  0.9954430E-01
         -2   -1    0    0    0  501 -0.00000000000E+00  0.00000000000E+00  0.46293334246E+03  0.46293334246E+03  0.25500000000E-02 0.  1.
          2   -1    0    0  501    0  0.00000000000E+00 -0.00000000000E+00 -0.18345111411E+04  0.18345111411E+04  0.25500000000E-02 0. -1.
    8880022    1    1    2    0    0 -0.36667131381E+03  0.41835903544E+03  0.20995863577E+03  0.61395962135E+03  0.15294330000E+03 0.  0.
    8880022    1    1    2    0    0  0.36667131381E+03 -0.41835903544E+03 -0.15815364344E+04  0.16834848622E+04  0.15294330000E+03 0.  0.
<mgrwt>
<rscale>  0 0.57694349E+03</rscale>
<asrwt>0</asrwt>
<pdfrwt beam="1">  1        2 0.28223248E+00 0.57694349E+03</pdfrwt>
<pdfrwt beam="2">  1       -2 0.71220515E-01 0.57694349E+03</pdfrwt>
<totfact> 0.15658896E+01</totfact>
</mgrwt>
</event>
<event>
 4    1  0.1701380E-008  0.3646688E+03  0.7818608E-02  0.1056750E+00
         -2   -1    0    0    0  501 -0.00000000000E+00  0.00000000000E+00  0.18900988677E+03  0.18900988679E+03  0.25500000000E-02 0.  1.
          2   -1    0    0  501    0  0.00000000000E+00 -0.00000000000E+00 -0.40495319108E+04  0.40495319108E+04  0.25500000000E-02 0. -1.
    8880022    1    1    2    0    0  0.27997937094E+03 -0.17664440962E+03 -0.38566500014E+04  0.38738524213E+04  0.15294330000E+03 0.  0.
    8880022    1    1    2    0    0 -0.27997937094E+03  0.17664440962E+03 -0.38720226192E+01  0.36468937629E+03  0.15294330000E+03 0.  0.
<mgrwt>
<rscale>  0 0.36466882E+03</rscale>
<asrwt>0</asrwt>
<pdfrwt beam="1">  1        2 0.62300485E+00 0.36466882E+03</pdfrwt>
<pdfrwt beam="2">  1       -2 0.29078447E-01 0.36466882E+03</pdfrwt>
<totfact> 0.42521063E+00</totfact>
</mgrwt>
</event>
<event>
 4    1  0.3069179E-008  0.1692457E+04  0.7818608E-02  0.8765678E-01
         -2   -1    0    0    0  501 -0.00000000000E+00  0.00000000000E+00  0.20110794061E+04  0.20110794061E+04  0.25500000000E-02 0.  1.
          2   -1    0    0  501    0  0.00000000000E+00 -0.00000000000E+00 -0.31357543762E+04  0.31357543762E+04  0.25500000000E-02 0. -1.
    8880022    1    1    2    0    0 -0.96129282040E+03  0.13845341842E+04 -0.24635028598E+04  0.29888554309E+04  0.15294330000E+03 0.  0.
    8880022    1    1    2    0    0  0.96129282040E+03 -0.13845341842E+04  0.13388278897E+04  0.21579783514E+04  0.15294330000E+03 0.  0.
<mgrwt>
<rscale>  0 0.16924569E+04</rscale>
<asrwt>0</asrwt>
<pdfrwt beam="1">  1        2 0.48242375E+00 0.16924569E+04</pdfrwt>
<pdfrwt beam="2">  1       -2 0.30939683E+00 0.16924569E+04</pdfrwt>
<totfact> 0.36445965E-02</totfact>
</mgrwt>
</event>
<event>
 4    1  0.1701380E-008  0.7531280E+03  0.7818608E-02  0.9630456E-01
          2   -1    0    0  501    0  0.00000000000E+00  0.00000000000E+00  0.25168646932E+04  0.25168646932E+04  0.25500000000E-02 0. -1.
         -2   -1    0    0    0  501 -0.00000000000E+00 -0.00000000000E+00 -0.39726797481E+03  0.39726797482E+03  0.25500000000E-02 0.  1.
    8880022    1    1    2    0    0 -0.71045268755E+03  0.19765417084E+03  0.10131418569E+03  0.75991210659E+03  0.15294330000E+03 0.  0.
    8880022    1    1    2    0    0  0.71045268755E+03 -0.19765417084E+03  0.20182825327E+04  0.21542205615E+04  0.15294330000E+03 0.  0.
<mgrwt>
<rscale>  0 0.75312804E+03</rscale>
<asrwt>0</asrwt>
<pdfrwt beam="1">  1        2 0.38720995E+00 0.75312804E+03</pdfrwt>
<pdfrwt beam="2">  1       -2 0.61118151E-01 0.75312804E+03</pdfrwt>
<totfact> 0.88897926E+00</totfact>
</mgrwt>
</event>
<event>
 4    1  0.1701380E-008  0.1135778E+04  0.7818608E-02  0.9171005E-01
          2   -1    0    0  501    0  0.00000000000E+00  0.00000000000E+00  0.40681361534E+04  0.40681361534E+04  0.25500000000E-02 0. -1.
         -2   -1    0    0    0  501 -0.00000000000E+00 -0.00000000000E+00 -0.41295799133E+03  0.41295799133E+03  0.25500000000E-02 0.  1.
    8880022    1    1    2    0    0 -0.46630817944E+03 -0.10242831614E+04  0.29070915859E+04  0.31210851406E+04  0.15294330000E+03 0.  1.
    8880022    1    1    2    0    0  0.46630817944E+03  0.10242831614E+04  0.74808657615E+03  0.13600090041E+04  0.15294330000E+03 0.  0.
<mgrwt>
<rscale>  0 0.11357777E+04</rscale>
<asrwt>0</asrwt>
<pdfrwt beam="1">  1        2 0.62586710E+00 0.11357777E+04</pdfrwt>
<pdfrwt beam="2">  1       -2 0.63531999E-01 0.11357777E+04</pdfrwt>
<totfact> 0.71177275E-01</totfact>
</mgrwt>
</event>
<event>
 4    1  0.1701380E-008  0.8036524E+03  0.7818608E-02  0.9554745E-01
          2   -1    0    0  501    0  0.00000000000E+00  0.00000000000E+00  0.12535278385E+04  0.12535278385E+04  0.25500000000E-02 0. -1.
         -2   -1    0    0    0  501 -0.00000000000E+00 -0.00000000000E+00 -0.17640670734E+04  0.17640670734E+04  0.25500000000E-02 0.  1.
    8880022    1    1    2    0    0  0.67761002973E+03 -0.40411660916E+03 -0.15247500103E+04  0.17235776261E+04  0.15294330000E+03 0.  0.
    8880022    1    1    2    0    0 -0.67761002973E+03  0.40411660916E+03  0.10142107753E+04  0.12940172858E+04  0.15294330000E+03 0.  0.
<mgrwt>
<rscale>  0 0.80365244E+03</rscale>
<asrwt>0</asrwt>
<pdfrwt beam="1">  1        2 0.19285044E+00 0.80365244E+03</pdfrwt>
<pdfrwt beam="2">  1       -2 0.27139493E+00 0.80365244E+03</pdfrwt>
<totfact> 0.86368475E-01</totfact>
</mgrwt>
</event>
<event>
 4    1  0.1701380E-008  0.3155799E+03  0.7818608E-02  0.1077702E+00
         -2   -1    0    0    0  501 -0.00000000000E+00  0.00000000000E+00  0.18465095643E+03  0.18465095645E+03  0.25500000000E-02 0.  1.
          2   -1    0    0  501    0  0.00000000000E+00 -0.00000000000E+00 -0.34858394844E+04  0.34858394844E+04  0.25500000000E-02 0. -1.
    8880022    1    1    2    0    0 -0.19699274618E+03  0.19337246075E+03  0.36709099332E+02  0.31770782428E+03  0.15294330000E+03 0.  1.
    8880022    1    1    2    0    0  0.19699274618E+03 -0.19337246075E+03 -0.33378976273E+04  0.33527826166E+04  0.15294330000E+03 0.  0.
<mgrwt>
<rscale>  0 0.31557995E+03</rscale>
<asrwt>0</asrwt>
<pdfrwt beam="1">  1        2 0.53628295E+00 0.31557995E+03</pdfrwt>
<pdfrwt beam="2">  1       -2 0.28407842E-01 0.31557995E+03</pdfrwt>
<totfact> 0.11564523E+01</totfact>
</mgrwt>
</event>
<event>
 4    1  0.1701380E-008  0.1315030E+04  0.7818608E-02  0.9017731E-01
         -2   -1    0    0    0  501 -0.00000000000E+00  0.00000000000E+00  0.86567065317E+03  0.86567065317E+03  0.25500000000E-02 0.  1.
          2   -1    0    0  501    0  0.00000000000E+00 -0.00000000000E+00 -0.20600634493E+04  0.20600634493E+04  0.25500000000E-02 0. -1.
    8880022    1    1    2    0    0 -0.12661982694E+04  0.32039507163E+03 -0.34255981082E+03  0.13589149849E+04  0.15294330000E+03 0.  0.
    8880022    1    1    2    0    0  0.12661982694E+04 -0.32039507163E+03 -0.85183298532E+03  0.15668191176E+04  0.15294330000E+03 0.  0.
<mgrwt>
<rscale>  0 0.13150295E+04</rscale>
<asrwt>0</asrwt>
<pdfrwt beam="1">  1        2 0.31693284E+00 0.13150295E+04</pdfrwt>
<pdfrwt beam="2">  1       -2 0.13318010E+00 0.13150295E+04</pdfrwt>
<totfact> 0.24342249E+00</totfact>
</mgrwt>
</event>
<event>
 4    1  0.1701380E-008  0.6472811E+03  0.7818608E-02  0.9811894E-01
         -2   -1    0    0    0  501 -0.00000000000E+00  0.00000000000E+00  0.33458335905E+03  0.33458335906E+03  0.25500000000E-02 0.  1.
          2   -1    0    0  501    0  0.00000000000E+00 -0.00000000000E+00 -0.40124725273E+04  0.40124725273E+04  0.25500000000E-02 0. -1.
    8880022    1    1    2    0    0 -0.59644094199E+03  0.19959805795E+03 -0.36416858395E+04  0.36987631160E+04  0.15294330000E+03 0.  0.
    8880022    1    1    2    0    0  0.59644094199E+03 -0.19959805795E+03 -0.36203328773E+02  0.64829277032E+03  0.15294330000E+03 0.  0.
<mgrwt>
<rscale>  0 0.64728111E+03</rscale>
<asrwt>0</asrwt>
<pdfrwt beam="1">  1        2 0.61730343E+00 0.64728111E+03</pdfrwt>
<pdfrwt beam="2">  1       -2 0.51474366E-01 0.64728111E+03</pdfrwt>
<totfact> 0.13622089E+00</totfact>
</mgrwt>
</event>
<event>
 4    1  0.1701380E-008  0.8838467E+03  0.7818608E-02  0.9446002E-01
          2   -1    0    0  501    0  0.00000000000E+00  0.00000000000E+00  0.23677136712E+04  0.23677136712E+04  0.25500000000E-02 0. -1.
         -2   -1    0    0    0  501 -0.00000000000E+00 -0.00000000000E+00 -0.45510505202E+03  0.45510505203E+03  0.25500000000E-02 0.  1.
    8880022    1    1    2    0    0  0.47154402834E+03  0.73173739720E+03  0.21609900331E+03  0.90988121278E+03  0.15294330000E+03 0.  0.
    8880022    1    1    2    0    0 -0.47154402834E+03 -0.73173739720E+03  0.16965096159E+04  0.19129375104E+04  0.15294330000E+03 0.  0.
<mgrwt>
<rscale>  0 0.88384673E+03</rscale>
<asrwt>0</asrwt>
<pdfrwt beam="1">  1        2 0.36426364E+00 0.88384673E+03</pdfrwt>
<pdfrwt beam="2">  1       -2 0.70016161E-01 0.88384673E+03</pdfrwt>
<totfact> 0.78934769E+00</totfact>
</mgrwt>
</event>
<event>
 4    1  0.1701380E-008  0.8551956E+03  0.7818608E-02  0.9483390E-01
          2   -1    0    0  501    0  0.00000000000E+00  0.00000000000E+00  0.22151267506E+04  0.22151267506E+04  0.25500000000E-02 0. -1.
         -2   -1    0    0    0  501 -0.00000000000E+00 -0.00000000000E+00 -0.60447047585E+03  0.60447047586E+03  0.25500000000E-02 0.  1.
    8880022    1    1    2    0    0 -0.12284436519E+03 -0.83239240842E+03 -0.14437088001E+03  0.86729606459E+03  0.15294330000E+03 0.  1.
    8880022    1    1    2    0    0  0.12284436519E+03  0.83239240842E+03  0.17550271547E+04  0.19523011618E+04  0.15294330000E+03 0.  0.
<mgrwt>
<rscale>  0 0.85519560E+03</rscale>
<asrwt>0</asrwt>
<pdfrwt beam="1">  1        2 0.34078873E+00 0.85519560E+03</pdfrwt>
<pdfrwt beam="2">  1       -2 0.92995458E-01 0.85519560E+03</pdfrwt>
<totfact> 0.50803591E+00</totfact>
</mgrwt>
</event>
<event>
 4    1  0.1701380E-008  0.1030649E+04  0.7818608E-02  0.9275554E-01
         -2   -1    0    0    0  501 -0.00000000000E+00  0.00000000000E+00  0.11640903166E+04  0.11640903166E+04  0.25500000000E-02 0.  1.
          2   -1    0    0  501    0  0.00000000000E+00 -0.00000000000E+00 -0.18507061161E+04  0.18507061161E+04  0.25500000000E-02 0. -1.
    8880022    1    1    2    0    0  0.10017021539E+04 -0.18824960103E+03  0.72995849333E+03  0.12629632506E+04  0.15294330000E+03 0.  0.
    8880022    1    1    2    0    0 -0.10017021539E+04  0.18824960103E+03 -0.14165742928E+04  0.17518331820E+04  0.15294330000E+03 0.  0.
<mgrwt>
<rscale>  0 0.10306487E+04</rscale>
<asrwt>0</asrwt>
<pdfrwt beam="1">  1        2 0.28472402E+00 0.10306487E+04</pdfrwt>
<pdfrwt beam="2">  1       -2 0.17909082E+00 0.10306487E+04</pdfrwt>
<totfact> 0.14755236E+00</totfact>
</mgrwt>
</event>
<event>
 4    1  0.1701380E-008  0.1605795E+03  0.7818608E-02  0.1188044E+00
         -2   -1    0    0    0  501 -0.00000000000E+00  0.00000000000E+00  0.11824811660E+04  0.11824811660E+04  0.25500000000E-02 0.  1.
          2   -1    0    0  501    0  0.00000000000E+00 -0.00000000000E+00 -0.13595708900E+04  0.13595708900E+04  0.25500000000E-02 0. -1.
    8880022    1    1    2    0    0  0.45503211754E+02 -0.17988208459E+02  0.11722468108E+04  0.11831941330E+04  0.15294330000E+03 0.  0.
    8880022    1    1    2    0    0 -0.45503211754E+02  0.17988208459E+02 -0.13493365347E+04  0.13588579230E+04  0.15294330000E+03 0. -1.
<mgrwt>
<rscale>  0 0.16057948E+03</rscale>
<asrwt>0</asrwt>
<pdfrwt beam="1">  1        2 0.20916475E+00 0.16057948E+03</pdfrwt>
<pdfrwt beam="2">  1       -2 0.18192018E+00 0.16057948E+03</pdfrwt>
<totfact> 0.33492184E+00</totfact>
</mgrwt>
</event>
<event>
 4    1  0.1701380E-008  0.9612812E+03  0.7818608E-02  0.9352061E-01
         -2   -1    0    0    0  501 -0.00000000000E+00  0.00000000000E+00  0.14015182683E+04  0.14015182683E+04  0.25500000000E-02 0.  1.
          2   -1    0    0  501    0  0.00000000000E+00 -0.00000000000E+00 -0.84267866906E+03  0.84267866906E+03  0.25500000000E-02 0. -1.
    8880022    1    1    2    0    0 -0.94842229659E+03 -0.34131973198E+02 -0.24398795629E+03  0.99176187671E+03  0.15294330000E+03 0.  0.
    8880022    1    1    2    0    0  0.94842229659E+03  0.34131973198E+02  0.80282755557E+03  0.12524350607E+04  0.15294330000E+03 0.  0.
<mgrwt>
<rscale>  0 0.96128117E+03</rscale>
<asrwt>0</asrwt>
<pdfrwt beam="1">  1        2 0.12964287E+00 0.96128117E+03</pdfrwt>
<pdfrwt beam="2">  1       -2 0.21561819E+00 0.96128117E+03</pdfrwt>
<totfact> 0.33777482E+00</totfact>
</mgrwt>
</event>
<event>
 4    1  0.1701380E-008  0.6684986E+03  0.7818608E-02  0.9772674E-01
         -2   -1    0    0    0  501 -0.00000000000E+00  0.00000000000E+00  0.13336472219E+03  0.13336472221E+03  0.25500000000E-02 0.  1.
          2   -1    0    0  501    0  0.00000000000E+00 -0.00000000000E+00 -0.36619448821E+04  0.36619448821E+04  0.25500000000E-02 0. -1.
    8880022    1    1    2    0    0 -0.62679414960E+03  0.17500793597E+03 -0.23173609072E+04  0.24118565279E+04  0.15294330000E+03 0.  0.
    8880022    1    1    2    0    0  0.62679414960E+03 -0.17500793597E+03 -0.12112192527E+04  0.13834530764E+04  0.15294330000E+03 0.  0.
<mgrwt>
<rscale>  0 0.66849857E+03</rscale>
<asrwt>0</asrwt>
<pdfrwt beam="1">  1        2 0.56337606E+00 0.66849857E+03</pdfrwt>
<pdfrwt beam="2">  1       -2 0.20517652E-01 0.66849857E+03</pdfrwt>
<totfact> 0.14005224E+01</totfact>
</mgrwt>
</event>
<event>
 4    1  0.1701380E-008  0.1300770E+04  0.7818608E-02  0.9028955E-01
          2   -1    0    0  501    0  0.00000000000E+00  0.00000000000E+00  0.17604539203E+04  0.17604539203E+04  0.25500000000E-02 0. -1.
         -2   -1    0    0    0  501 -0.00000000000E+00 -0.00000000000E+00 -0.13022992061E+04  0.13022992061E+04  0.25500000000E-02 0.  1.
    8880022    1    1    2    0    0  0.11858772324E+04 -0.51215905565E+03  0.10129028268E+04  0.16486283688E+04  0.15294330000E+03 0.  0.
    8880022    1    1    2    0    0 -0.11858772324E+04  0.51215905565E+03 -0.55474811258E+03  0.14141247576E+04  0.15294330000E+03 0.  0.
<mgrwt>
<rscale>  0 0.13007703E+04</rscale>
<asrwt>0</asrwt>
<pdfrwt beam="1">  1        2 0.27083906E+00 0.13007703E+04</pdfrwt>
<pdfrwt beam="2">  1       -2 0.20035372E+00 0.13007703E+04</pdfrwt>
<totfact> 0.11518903E+00</totfact>
</mgrwt>
</event>
<event>
 4    1  0.1701380E-008  0.7057385E+03  0.7818608E-02  0.9707469E-01
          2   -1    0    0  501    0  0.00000000000E+00  0.00000000000E+00  0.31841613035E+04  0.31841613035E+04  0.25500000000E-02 0. -1.
         -2   -1    0    0    0  501 -0.00000000000E+00 -0.00000000000E+00 -0.34523488654E+03  0.34523488655E+03  0.25500000000E-02 0.  1.
    8880022    1    1    2    0    0  0.66617618459E+03  0.17573969241E+03  0.27245250461E+04  0.28144455099E+04  0.15294330000E+03 0.  0.
    8880022    1    1    2    0    0 -0.66617618459E+03 -0.17573969241E+03  0.11440137089E+03  0.71495068017E+03  0.15294330000E+03 0.  0.
<mgrwt>
<rscale>  0 0.70573848E+03</rscale>
<asrwt>0</asrwt>
<pdfrwt beam="1">  1        2 0.48987095E+00 0.70573848E+03</pdfrwt>
<pdfrwt beam="2">  1       -2 0.53113061E-01 0.70573848E+03</pdfrwt>
<totfact> 0.48042847E+00</totfact>
</mgrwt>
</event>
<event>
 4    1  0.1701380E-008  0.1128821E+04  0.7818608E-02  0.9177548E-01
         -2   -1    0    0    0  501 -0.00000000000E+00  0.00000000000E+00  0.12920803304E+04  0.12920803304E+04  0.25500000000E-02 0.  1.
          2   -1    0    0  501    0  0.00000000000E+00 -0.00000000000E+00 -0.22920277237E+04  0.22920277237E+04  0.25500000000E-02 0. -1.
    8880022    1    1    2    0    0  0.10314173813E+04  0.43246199093E+03 -0.18526246805E+04  0.21694365738E+04  0.15294330000E+03 0.  0.
    8880022    1    1    2    0    0 -0.10314173813E+04 -0.43246199093E+03  0.85267728717E+03  0.14146714803E+04  0.15294330000E+03 0.  0.
<mgrwt>
<rscale>  0 0.11288210E+04</rscale>
<asrwt>0</asrwt>
<pdfrwt beam="1">  1        2 0.35261965E+00 0.11288210E+04</pdfrwt>
<pdfrwt beam="2">  1       -2 0.19878159E+00 0.11288210E+04</pdfrwt>
<totfact> 0.61028903E-01</totfact>
</mgrwt>
</event>
<event>
 4    1  0.1809066E-008  0.7987333E+03  0.7818608E-02  0.9561852E-01
         -2   -1    0    0    0  501 -0.00000000000E+00  0.00000000000E+00  0.71392699569E+03  0.71392699569E+03  0.25500000000E-02 0.  1.
          2   -1    0    0  501    0  0.00000000000E+00 -0.00000000000E+00 -0.37115018742E+04  0.37115018742E+04  0.25500000000E-02 0. -1.
    8880022    1    1    2    0    0 -0.32571030883E+03  0.71308911651E+03  0.42923641977E+03  0.90676284135E+03  0.15294330000E+03 0.  0.
    8880022    1    1    2    0    0  0.32571030883E+03 -0.71308911651E+03 -0.34268112983E+04  0.35186660285E+04  0.15294330000E+03 0.  0.
<mgrwt>
<rscale>  0 0.79873334E+03</rscale>
<asrwt>0</asrwt>
<pdfrwt beam="1">  1        2 0.57100028E+00 0.79873334E+03</pdfrwt>
<pdfrwt beam="2">  1       -2 0.10983492E+00 0.79873334E+03</pdfrwt>
<totfact> 0.40982641E-01</totfact>
</mgrwt>
</event>
<event>
 4    1  0.1701380E-008  0.9647260E+03  0.7818608E-02  0.9348102E-01
          2   -1    0    0  501    0  0.00000000000E+00  0.00000000000E+00  0.11060368719E+04  0.11060368719E+04  0.25500000000E-02 0. -1.
         -2   -1    0    0    0  501 -0.00000000000E+00 -0.00000000000E+00 -0.12606055663E+04  0.12606055663E+04  0.25500000000E-02 0.  1.
    8880022    1    1    2    0    0  0.92627733005E+03  0.22206975620E+03 -0.75960818694E+03  0.12278847338E+04  0.15294330000E+03 0.  0.
    8880022    1    1    2    0    0 -0.92627733005E+03 -0.22206975620E+03  0.60503949249E+03  0.11387577044E+04  0.15294330000E+03 0.  0.
<mgrwt>
<rscale>  0 0.96472603E+03</rscale>
<asrwt>0</asrwt>
<pdfrwt beam="1">  1        2 0.17015952E+00 0.96472603E+03</pdfrwt>
<pdfrwt beam="2">  1       -2 0.19393932E+00 0.96472603E+03</pdfrwt>
<totfact> 0.31377884E+00</totfact>
</mgrwt>
</event>
<event>
 4    1  0.1701380E-008  0.1437221E+04  0.7818608E-02  0.8927308E-01
         -2   -1    0    0    0  501 -0.00000000000E+00  0.00000000000E+00  0.13156962447E+04  0.13156962447E+04  0.25500000000E-02 0.  1.
          2   -1    0    0  501    0  0.00000000000E+00 -0.00000000000E+00 -0.33942477723E+04  0.33942477723E+04  0.25500000000E-02 0. -1.
    8880022    1    1    2    0    0  0.12819169256E+04  0.63158721968E+03  0.68719541034E+03  0.15930607663E+04  0.15294330000E+03 0.  0.
    8880022    1    1    2    0    0 -0.12819169256E+04 -0.63158721968E+03 -0.27657469380E+04  0.31168832506E+04  0.15294330000E+03 0.  0.
<mgrwt>
<rscale>  0 0.14372213E+04</rscale>
<asrwt>0</asrwt>
<pdfrwt beam="1">  1        2 0.52219196E+00 0.14372213E+04</pdfrwt>
<pdfrwt beam="2">  1       -2 0.20241481E+00 0.14372213E+04</pdfrwt>
<totfact> 0.11778381E-01</totfact>
</mgrwt>
</event>
<event>
 4    1  0.1701380E-008  0.1677803E+03  0.7818608E-02  0.1180183E+00
         -2   -1    0    0    0  501 -0.00000000000E+00  0.00000000000E+00  0.75571163807E+02  0.75571163850E+02  0.25500000000E-02 0.  1.
          2   -1    0    0  501    0  0.00000000000E+00 -0.00000000000E+00 -0.55663149443E+03  0.55663149444E+03  0.25500000000E-02 0. -1.
    8880022    1    1    2    0    0  0.68880824755E+02  0.37429048945E+01 -0.58724709136E+02  0.17776057446E+03  0.15294330000E+03 0.  0.
    8880022    1    1    2    0    0 -0.68880824755E+02 -0.37429048945E+01 -0.42233562149E+03  0.45444208382E+03  0.15294330000E+03 0. -1.
<mgrwt>
<rscale>  0 0.16778030E+03</rscale>
<asrwt>0</asrwt>
<pdfrwt beam="1">  1        2 0.85635612E-01 0.16778030E+03</pdfrwt>
<pdfrwt beam="2">  1       -2 0.11626333E-01 0.16778030E+03</pdfrwt>
<totfact> 0.28187730E+03</totfact>
</mgrwt>
</event>
<event>
 4    1  0.1701380E-008  0.8670681E+03  0.7818608E-02  0.9467711E-01
          2   -1    0    0  501    0  0.00000000000E+00  0.00000000000E+00  0.24470136230E+04  0.24470136230E+04  0.25500000000E-02 0. -1.
         -2   -1    0    0    0  501 -0.00000000000E+00 -0.00000000000E+00 -0.86846126261E+03  0.86846126261E+03  0.25500000000E-02 0.  1.
    8880022    1    1    2    0    0  0.57361005345E+03 -0.63197064480E+03 -0.54335417543E+03  0.10232501172E+04  0.15294330000E+03 0.  0.
    8880022    1    1    2    0    0 -0.57361005345E+03  0.63197064480E+03  0.21219065358E+04  0.22922247684E+04  0.15294330000E+03 0.  0.
<mgrwt>
<rscale>  0 0.86706807E+03</rscale>
<asrwt>0</asrwt>
<pdfrwt beam="1">  1        2 0.37646364E+00 0.86706807E+03</pdfrwt>
<pdfrwt beam="2">  1       -2 0.13360942E+00 0.86706807E+03</pdfrwt>
<totfact> 0.15540346E+00</totfact>
</mgrwt>
</event>
<event>
 4    1  0.1701380E-008  0.1633917E+03  0.7818608E-02  0.1184920E+00
         -2   -1    0    0    0  501 -0.00000000000E+00  0.00000000000E+00  0.64699551011E+02  0.64699551061E+02  0.25500000000E-02 0.  1.
          2   -1    0    0  501    0  0.00000000000E+00 -0.00000000000E+00 -0.19577309375E+04  0.19577309375E+04  0.25500000000E-02 0. -1.
    8880022    1    1    2    0    0 -0.12612361657E+02 -0.56090368634E+02 -0.48165225455E+02  0.17034301594E+03  0.15294330000E+03 0.  1.
    8880022    1    1    2    0    0  0.12612361657E+02  0.56090368634E+02 -0.18448661610E+04  0.18520874726E+04  0.15294330000E+03 0.  0.
<mgrwt>
<rscale>  0 0.16339172E+03</rscale>
<asrwt>0</asrwt>
<pdfrwt beam="1">  1        2 0.30118933E+00 0.16339172E+03</pdfrwt>
<pdfrwt beam="2">  1       -2 0.99537786E-02 0.16339172E+03</pdfrwt>
<totfact> 0.53564372E+02</totfact>
</mgrwt>
</event>
<event>
 4    1  0.1701380E-008  0.1238981E+04  0.7818608E-02  0.9079405E-01
         -2   -1    0    0    0  501 -0.00000000000E+00  0.00000000000E+00  0.25519884287E+04  0.25519884287E+04  0.25500000000E-02 0.  1.
          2   -1    0    0  501    0  0.00000000000E+00 -0.00000000000E+00 -0.17847955226E+04  0.17847955226E+04  0.25500000000E-02 0. -1.
    8880022    1    1    2    0    0 -0.57523389966E+03  0.10866406769E+04 -0.13819794172E+04  0.18560551615E+04  0.15294330000E+03 0.  0.
    8880022    1    1    2    0    0  0.57523389966E+03 -0.10866406769E+04  0.21491723232E+04  0.24807287897E+04  0.15294330000E+03 0.  0.
<mgrwt>
<rscale>  0 0.12389809E+04</rscale>
<asrwt>0</asrwt>
<pdfrwt beam="1">  1        2 0.27458393E+00 0.12389809E+04</pdfrwt>
<pdfrwt beam="2">  1       -2 0.39261360E+00 0.12389809E+04</pdfrwt>
<totfact> 0.71297766E-02</totfact>
</mgrwt>
</event>
<event>
 4    1  0.1701380E-008  0.5266562E+03  0.7818608E-02  0.1007046E+00
         -2   -1    0    0    0  501 -0.00000000000E+00  0.00000000000E+00  0.35639113650E+03  0.35639113651E+03  0.25500000000E-02 0.  1.
          2   -1    0    0  501    0  0.00000000000E+00 -0.00000000000E+00 -0.13398244725E+04  0.13398244725E+04  0.25500000000E-02 0. -1.
    8880022    1    1    2    0    0 -0.20375444644E+03 -0.46093302402E+03  0.57349836220E+02  0.52976955726E+03  0.15294330000E+03 0.  0.
    8880022    1    1    2    0    0  0.20375444644E+03  0.46093302402E+03 -0.10407831722E+04  0.11664460518E+04  0.15294330000E+03 0.  0.
<mgrwt>
<rscale>  0 0.52665623E+03</rscale>
<asrwt>0</asrwt>
<pdfrwt beam="1">  1        2 0.20612684E+00 0.52665623E+03</pdfrwt>
<pdfrwt beam="2">  1       -2 0.54829406E-01 0.52665623E+03</pdfrwt>
<totfact> 0.51333204E+01</totfact>
</mgrwt>
</event>
<event>
 4    1  0.3817200E-008  0.1215600E+04  0.7818608E-02  0.9099311E-01
          2   -1    0    0  501    0  0.00000000000E+00  0.00000000000E+00  0.39894919266E+04  0.39894919266E+04  0.25500000000E-02 0. -1.
         -2   -1    0    0    0  501 -0.00000000000E+00 -0.00000000000E+00 -0.20071453379E+04  0.20071453379E+04  0.25500000000E-02 0.  1.
    8880022    1    1    2    0    0  0.55832645869E+03  0.10689073929E+04  0.36987436531E+04  0.38933774173E+04  0.15294330000E+03 0.  0.
    8880022    1    1    2    0    0 -0.55832645869E+03 -0.10689073929E+04 -0.17163970644E+04  0.21032598472E+04  0.15294330000E+03 0.  0.
<mgrwt>
<rscale>  0 0.12155999E+04</rscale>
<asrwt>0</asrwt>
<pdfrwt beam="1">  1        2 0.61376798E+00 0.12155999E+04</pdfrwt>
<pdfrwt beam="2">  1       -2 0.30879159E+00 0.12155999E+04</pdfrwt>
<totfact> 0.98776611E-03</totfact>
</mgrwt>
</event>
<event>
 4    1  0.1701380E-008  0.5176467E+03  0.7818608E-02  0.1009273E+00
          2   -1    0    0  501    0  0.00000000000E+00  0.00000000000E+00  0.79136338127E+03  0.79136338127E+03  0.25500000000E-02 0. -1.
         -2   -1    0    0    0  501 -0.00000000000E+00 -0.00000000000E+00 -0.75906323638E+03  0.75906323639E+03  0.25500000000E-02 0.  1.
    8880022    1    1    2    0    0 -0.29735335926E+03  0.39515497693E+03  0.59310864660E+03  0.78723312668E+03  0.15294330000E+03 0. -1.
    8880022    1    1    2    0    0  0.29735335926E+03 -0.39515497693E+03 -0.56080850172E+03  0.76319349098E+03  0.15294330000E+03 0.  0.
<mgrwt>
<rscale>  0 0.51764672E+03</rscale>
<asrwt>0</asrwt>
<pdfrwt beam="1">  1        2 0.12174821E+00 0.51764672E+03</pdfrwt>
<pdfrwt beam="2">  1       -2 0.11677896E+00 0.51764672E+03</pdfrwt>
<totfact> 0.20684828E+01</totfact>
</mgrwt>
</event>
<event>
 4    1  0.1701380E-008  0.2756167E+03  0.7818608E-02  0.1098107E+00
         -2   -1    0    0    0  501 -0.00000000000E+00  0.00000000000E+00  0.51607586334E+02  0.51607586397E+02  0.25500000000E-02 0.  1.
          2   -1    0    0  501    0  0.00000000000E+00 -0.00000000000E+00 -0.15764699536E+04  0.15764699536E+04  0.25500000000E-02 0. -1.
    8880022    1    1    2    0    0 -0.11139321735E+03 -0.20041080122E+03 -0.97202065407E+03  0.10103409044E+04  0.15294330000E+03 0.  0.
    8880022    1    1    2    0    0  0.11139321735E+03  0.20041080122E+03 -0.55284171319E+03  0.61773663561E+03  0.15294330000E+03 0.  0.
<mgrwt>
<rscale>  0 0.27561675E+03</rscale>
<asrwt>0</asrwt>
<pdfrwt beam="1">  1        2 0.24253380E+00 0.27561675E+03</pdfrwt>
<pdfrwt beam="2">  1       -2 0.79396299E-02 0.27561675E+03</pdfrwt>
<totfact> 0.11891299E+03</totfact>
</mgrwt>
</event>
<event>
 4    1  0.1701380E-008  0.1070828E+04  0.7818608E-02  0.9234101E-01
         -2   -1    0    0    0  501 -0.00000000000E+00  0.00000000000E+00  0.55250796682E+03  0.55250796682E+03  0.25500000000E-02 0.  1.
          2   -1    0    0  501    0  0.00000000000E+00 -0.00000000000E+00 -0.27439683470E+04  0.27439683470E+04  0.25500000000E-02 0. -1.
    8880022    1    1    2    0    0 -0.41717151194E+03 -0.97429424158E+03 -0.19093181654E+04  0.21891022930E+04  0.15294330000E+03 0.  0.
    8880022    1    1    2    0    0  0.41717151194E+03  0.97429424158E+03 -0.28214221477E+03  0.11073740208E+04  0.15294330000E+03 0.  0.
<mgrwt>
<rscale>  0 0.10708282E+04</rscale>
<asrwt>0</asrwt>
<pdfrwt beam="1">  1        2 0.42214897E+00 0.10708282E+04</pdfrwt>
<pdfrwt beam="2">  1       -2 0.85001227E-01 0.10708282E+04</pdfrwt>
<totfact> 0.30262529E+00</totfact>
</mgrwt>
</event>
<event>
 4    1  0.1701380E-008  0.2125015E+03  0.7818608E-02  0.1139600E+00
         -2   -1    0    0    0  501 -0.00000000000E+00  0.00000000000E+00  0.67810488536E+02  0.67810488584E+02  0.25500000000E-02 0.  1.
          2   -1    0    0  501    0  0.00000000000E+00 -0.00000000000E+00 -0.15004395869E+04  0.15004395869E+04  0.25500000000E-02 0. -1.
    8880022    1    1    2    0    0 -0.84191035078E+02  0.12114904656E+03 -0.13153475505E+03  0.24991651940E+03  0.15294330000E+03 0.  1.
    8880022    1    1    2    0    0  0.84191035078E+02 -0.12114904656E+03 -0.13010943434E+04  0.13183335561E+04  0.15294330000E+03 0.  0.
<mgrwt>
<rscale>  0 0.21250147E+03</rscale>
<asrwt>0</asrwt>
<pdfrwt beam="1">  1        2 0.23083684E+00 0.21250147E+03</pdfrwt>
<pdfrwt beam="2">  1       -2 0.10432384E-01 0.21250147E+03</pdfrwt>
<totfact> 0.85242083E+02</totfact>
</mgrwt>
</event>
<event>
 4    1  0.1701380E-008  0.8953534E+03  0.7818608E-02  0.9431409E-01
         -2   -1    0    0    0  501 -0.00000000000E+00  0.00000000000E+00  0.12770526363E+04  0.12770526363E+04  0.25500000000E-02 0.  1.
          2   -1    0    0  501    0  0.00000000000E+00 -0.00000000000E+00 -0.20099115216E+04  0.20099115216E+04  0.25500000000E-02 0. -1.
    8880022    1    1    2    0    0  0.56350625194E+03 -0.67876853676E+03 -0.17293087344E+04  0.19473485498E+04  0.15294330000E+03 0.  0.
    8880022    1    1    2    0    0 -0.56350625194E+03  0.67876853676E+03  0.99644984914E+03  0.13396156080E+04  0.15294330000E+03 0.  0.
<mgrwt>
<rscale>  0 0.89535338E+03</rscale>
<asrwt>0</asrwt>
<pdfrwt beam="1">  1        2 0.30921716E+00 0.89535338E+03</pdfrwt>
<pdfrwt beam="2">  1       -2 0.19646964E+00 0.89535338E+03</pdfrwt>
<totfact> 0.94008154E-01</totfact>
</mgrwt>
</event>
<event>
 4    1  0.1701380E-008  0.6515110E+03  0.7818608E-02  0.9803948E-01
          2   -1    0    0  501    0  0.00000000000E+00  0.00000000000E+00  0.85146900073E+03  0.85146900074E+03  0.25500000000E-02 0. -1.
         -2   -1    0    0    0  501 -0.00000000000E+00 -0.00000000000E+00 -0.15041908026E+04  0.15041908026E+04  0.25500000000E-02 0.  1.
    8880022    1    1    2    0    0 -0.63122254625E+03 -0.51312722702E+02 -0.12894378838E+04  0.14446856432E+04  0.15294330000E+03 0.  0.
    8880022    1    1    2    0    0  0.63122254625E+03  0.51312722702E+02  0.63671608196E+03  0.91097416014E+03  0.15294330000E+03 0.  0.
<mgrwt>
<rscale>  0 0.65151098E+03</rscale>
<asrwt>0</asrwt>
<pdfrwt beam="1">  1        2 0.13099523E+00 0.65151098E+03</pdfrwt>
<pdfrwt beam="2">  1       -2 0.23141397E+00 0.65151098E+03</pdfrwt>
<totfact> 0.27718358E+00</totfact>
</mgrwt>
</event>
<event>
 4    1  0.1701380E-008  0.1294237E+04  0.7818608E-02  0.9034148E-01
          2   -1    0    0  501    0  0.00000000000E+00  0.00000000000E+00  0.94722869409E+03  0.94722869410E+03  0.25500000000E-02 0. -1.
         -2   -1    0    0    0  501 -0.00000000000E+00 -0.00000000000E+00 -0.33733981614E+04  0.33733981614E+04  0.25500000000E-02 0.  1.
    8880022    1    1    2    0    0 -0.11195428551E+04 -0.63109569549E+03  0.27704629791E+03  0.13235574356E+04  0.15294330000E+03 0.  0.
    8880022    1    1    2    0    0  0.11195428551E+04  0.63109569549E+03 -0.27032157652E+04  0.29970694199E+04  0.15294330000E+03 0.  0.
<mgrwt>
<rscale>  0 0.12942371E+04</rscale>
<asrwt>0</asrwt>
<pdfrwt beam="1">  1        2 0.14572749E+00 0.12942371E+04</pdfrwt>
<pdfrwt beam="2">  1       -2 0.51898433E+00 0.12942371E+04</pdfrwt>
<totfact> 0.33172594E-02</totfact>
</mgrwt>
</event>
<event>
 4    1  0.1701380E-008  0.9721758E+03  0.7818608E-02  0.9339600E-01
          2   -1    0    0  501    0  0.00000000000E+00  0.00000000000E+00  0.39369851498E+04  0.39369851498E+04  0.25500000000E-02 0. -1.
         -2   -1    0    0    0  501 -0.00000000000E+00 -0.00000000000E+00 -0.40443333641E+03  0.40443333642E+03  0.25500000000E-02 0.  1.
    8880022    1    1    2    0    0  0.53450473714E+03 -0.79752045725E+03  0.31501272547E+04  0.32967298293E+04  0.15294330000E+03 0.  0.
    8880022    1    1    2    0    0 -0.53450473714E+03  0.79752045725E+03  0.38242455871E+03  0.10446886569E+04  0.15294330000E+03 0.  0.
<mgrwt>
<rscale>  0 0.97217583E+03</rscale>
<asrwt>0</asrwt>
<pdfrwt beam="1">  1        2 0.60569001E+00 0.97217583E+03</pdfrwt>
<pdfrwt beam="2">  1       -2 0.62220515E-01 0.97217583E+03</pdfrwt>
<totfact> 0.97427146E-01</totfact>
</mgrwt>
</event>
<event>
 4    1  0.1701380E-008  0.6404483E+03  0.7818608E-02  0.9824869E-01
         -2   -1    0    0    0  501 -0.00000000000E+00  0.00000000000E+00  0.41355232855E+03  0.41355232856E+03  0.25500000000E-02 0.  1.
          2   -1    0    0  501    0  0.00000000000E+00 -0.00000000000E+00 -0.23550115827E+04  0.23550115827E+04  0.25500000000E-02 0. -1.
    8880022    1    1    2    0    0  0.62154993798E+03 -0.21401784166E+02  0.82455534362E+02  0.64573441129E+03  0.15294330000E+03 0.  0.
    8880022    1    1    2    0    0 -0.62154993798E+03  0.21401784166E+02 -0.20239147885E+04  0.21228294999E+04  0.15294330000E+03 0.  0.
<mgrwt>
<rscale>  0 0.64044829E+03</rscale>
<asrwt>0</asrwt>
<pdfrwt beam="1">  1        2 0.36230947E+00 0.64044829E+03</pdfrwt>
<pdfrwt beam="2">  1       -2 0.63623437E-01 0.64044829E+03</pdfrwt>
<totfact> 0.10267814E+01</totfact>
</mgrwt>
</event>
<event>
 4    1  0.1701380E-008  0.9468038E+03  0.7818608E-02  0.9368894E-01
         -2   -1    0    0    0  501 -0.00000000000E+00  0.00000000000E+00  0.62474899366E+03  0.62474899367E+03  0.25500000000E-02 0.  1.
          2   -1    0    0  501    0  0.00000000000E+00 -0.00000000000E+00 -0.28600094836E+04  0.28600094836E+04  0.25500000000E-02 0. -1.
    8880022    1    1    2    0    0  0.85879679267E+03  0.36812208384E+03 -0.23475780867E+04  0.25313159278E+04  0.15294330000E+03 0.  0.
    8880022    1    1    2    0    0 -0.85879679267E+03 -0.36812208384E+03  0.11231759678E+03  0.95344254954E+03  0.15294330000E+03 0.  0.
<mgrwt>
<rscale>  0 0.94680381E+03</rscale>
<asrwt>0</asrwt>
<pdfrwt beam="1">  1        2 0.44000145E+00 0.94680381E+03</pdfrwt>
<pdfrwt beam="2">  1       -2 0.96115232E-01 0.94680381E+03</pdfrwt>
<totfact> 0.19762429E+00</totfact>
</mgrwt>
</event>
<event>
 4    1  0.1701380E-008  0.1803775E+04  0.7818608E-02  0.8704295E-01
         -2   -1    0    0    0  501 -0.00000000000E+00  0.00000000000E+00  0.82152586497E+03  0.82152586498E+03  0.25500000000E-02 0.  1.
          2   -1    0    0  501    0  0.00000000000E+00 -0.00000000000E+00 -0.45793857381E+04  0.45793857381E+04  0.25500000000E-02 0. -1.
    8880022    1    1    2    0    0 -0.13260618652E+04 -0.12131659827E+04 -0.88613409406E+03  0.20096858107E+04  0.15294330000E+03 0.  0.
    8880022    1    1    2    0    0  0.13260618652E+04  0.12131659827E+04 -0.28717257791E+04  0.33912257925E+04  0.15294330000E+03 0.  0.
<mgrwt>
<rscale>  0 0.18037748E+04</rscale>
<asrwt>0</asrwt>
<pdfrwt beam="1">  1        2 0.70452087E+00 0.18037748E+04</pdfrwt>
<pdfrwt beam="2">  1       -2 0.12638860E+00 0.18037748E+04</pdfrwt>
<totfact> 0.44810396E-02</totfact>
</mgrwt>
</event>
<event>
 4    1  0.1701380E-008  0.4258058E+03  0.7818608E-02  0.1035193E+00
         -2   -1    0    0    0  501 -0.00000000000E+00  0.00000000000E+00  0.62334086181E+03  0.62334086181E+03  0.25500000000E-02 0.  1.
          2   -1    0    0  501    0  0.00000000000E+00 -0.00000000000E+00 -0.26863897328E+04  0.26863897328E+04  0.25500000000E-02 0. -1.
    8880022    1    1    2    0    0 -0.28883267667E+03 -0.27293694972E+03 -0.25942334032E+04  0.26289460811E+04  0.15294330000E+03 0.  0.
    8880022    1    1    2    0    0  0.28883267667E+03  0.27293694972E+03  0.53118453222E+03  0.68078451358E+03  0.15294330000E+03 0.  1.
<mgrwt>
<rscale>  0 0.42580576E+03</rscale>
<asrwt>0</asrwt>
<pdfrwt beam="1">  1        2 0.41329072E+00 0.42580576E+03</pdfrwt>
<pdfrwt beam="2">  1       -2 0.95898596E-01 0.42580576E+03</pdfrwt>
<totfact> 0.28379242E+00</totfact>
</mgrwt>
</event>
<event>
 4    1  0.1701380E-008  0.3485821E+03  0.7818608E-02  0.1063199E+00
          2   -1    0    0  501    0  0.00000000000E+00  0.00000000000E+00  0.23021515707E+04  0.23021515707E+04  0.25500000000E-02 0. -1.
         -2   -1    0    0    0  501 -0.00000000000E+00 -0.00000000000E+00 -0.70095890447E+02  0.70095890493E+02  0.25500000000E-02 0.  1.
    8880022    1    1    2    0    0 -0.31323746262E+03  0.37292512525E+00  0.52651188667E+03  0.63144617101E+03  0.15294330000E+03 0.  0.
    8880022    1    1    2    0    0  0.31323746262E+03 -0.37292512525E+00  0.17055437936E+04  0.17408012902E+04  0.15294330000E+03 0.  0.
<mgrwt>
<rscale>  0 0.34858213E+03</rscale>
<asrwt>0</asrwt>
<pdfrwt beam="1">  1        2 0.35417716E+00 0.34858213E+03</pdfrwt>
<pdfrwt beam="2">  1       -2 0.10783983E-01 0.34858213E+03</pdfrwt>
<totfact> 0.29766677E+02</totfact>
</mgrwt>
</event>
<event>
 4    1  0.1701380E-008  0.5503486E+03  0.7818608E-02  0.1001413E+00
          2   -1    0    0  501    0  0.00000000000E+00  0.00000000000E+00  0.29190947066E+04  0.29190947066E+04  0.25500000000E-02 0. -1.
         -2   -1    0    0    0  501 -0.00000000000E+00 -0.00000000000E+00 -0.89295737077E+03  0.89295737077E+03  0.25500000000E-02 0.  1.
    8880022    1    1    2    0    0  0.42788984103E+03  0.31048703112E+03 -0.77880109647E+03  0.95363237856E+03  0.15294330000E+03 0.  0.
    8880022    1    1    2    0    0 -0.42788984103E+03 -0.31048703112E+03  0.28049384323E+04  0.28584196988E+04  0.15294330000E+03 0.  0.
<mgrwt>
<rscale>  0 0.55034859E+03</rscale>
<asrwt>0</asrwt>
<pdfrwt beam="1">  1        2 0.44909149E+00 0.55034859E+03</pdfrwt>
<pdfrwt beam="2">  1       -2 0.13737806E+00 0.55034859E+03</pdfrwt>
<totfact> 0.82960467E-01</totfact>
</mgrwt>
</event>
<event>
 4    1  0.1701380E-008  0.5234862E+03  0.7818608E-02  0.1007824E+00
         -2   -1    0    0    0  501 -0.00000000000E+00  0.00000000000E+00  0.39380814377E+03  0.39380814378E+03  0.25500000000E-02 0.  1.
          2   -1    0    0  501    0  0.00000000000E+00 -0.00000000000E+00 -0.20413598960E+04  0.20413598960E+04  0.25500000000E-02 0. -1.
    8880022    1    1    2    0    0 -0.47979760328E+03 -0.14297006723E+03 -0.18122833580E+04  0.18863745129E+04  0.15294330000E+03 0.  0.
    8880022    1    1    2    0    0  0.47979760328E+03  0.14297006723E+03  0.16473160574E+03  0.54879352691E+03  0.15294330000E+03 0.  0.
<mgrwt>
<rscale>  0 0.52348623E+03</rscale>
<asrwt>0</asrwt>
<pdfrwt beam="1">  1        2 0.31405536E+00 0.52348623E+03</pdfrwt>
<pdfrwt beam="2">  1       -2 0.60585870E-01 0.52348623E+03</pdfrwt>
<totfact> 0.17306078E+01</totfact>
</mgrwt>
</event>
<event>
 4    1  0.1701380E-008  0.4699301E+03  0.7818608E-02  0.1021940E+00
          2   -1    0    0  501    0  0.00000000000E+00  0.00000000000E+00  0.15968897354E+04  0.15968897354E+04  0.25500000000E-02 0. -1.
         -2   -1    0    0    0  501 -0.00000000000E+00 -0.00000000000E+00 -0.29951979209E+03  0.29951979210E+03  0.25500000000E-02 0.  1.
    8880022    1    1    2    0    0 -0.16478444372E+03  0.41266057355E+03  0.13443683893E+04  0.14241350641E+04  0.15294330000E+03 0. -1.
    8880022    1    1    2    0    0  0.16478444372E+03 -0.41266057355E+03 -0.46998445894E+02  0.47227446341E+03  0.15294330000E+03 0.  0.
<mgrwt>
<rscale>  0 0.46993012E+03</rscale>
<asrwt>0</asrwt>
<pdfrwt beam="1">  1        2 0.24567534E+00 0.46993012E+03</pdfrwt>
<pdfrwt beam="2">  1       -2 0.46079969E-01 0.46993012E+03</pdfrwt>
<totfact> 0.53119358E+01</totfact>
</mgrwt>
</event>
<event>
 4    1  0.1701380E-008  0.1210605E+04  0.7818608E-02  0.9103624E-01
         -2   -1    0    0    0  501 -0.00000000000E+00  0.00000000000E+00  0.12381906513E+04  0.12381906513E+04  0.25500000000E-02 0.  1.
          2   -1    0    0  501    0  0.00000000000E+00 -0.00000000000E+00 -0.17853979551E+04  0.17853979551E+04  0.25500000000E-02 0. -1.
    8880022    1    1    2    0    0  0.87875260275E+03 -0.81851504919E+03  0.60408046181E+03  0.13529515438E+04  0.15294330000E+03 0.  0.
    8880022    1    1    2    0    0 -0.87875260275E+03  0.81851504919E+03 -0.11512877656E+04  0.16706370626E+04  0.15294330000E+03 0.  0.
<mgrwt>
<rscale>  0 0.12106051E+04</rscale>
<asrwt>0</asrwt>
<pdfrwt beam="1">  1        2 0.27467661E+00 0.12106051E+04</pdfrwt>
<pdfrwt beam="2">  1       -2 0.19049087E+00 0.12106051E+04</pdfrwt>
<totfact> 0.13108561E+00</totfact>
</mgrwt>
</event>
<event>
 4    1  0.1701380E-008  0.1227814E+04  0.7818608E-02  0.9088853E-01
         -2   -1    0    0    0  501 -0.00000000000E+00  0.00000000000E+00  0.11365532587E+04  0.11365532587E+04  0.25500000000E-02 0.  1.
          2   -1    0    0  501    0  0.00000000000E+00 -0.00000000000E+00 -0.17314351985E+04  0.17314351985E+04  0.25500000000E-02 0. -1.
    8880022    1    1    2    0    0  0.90383470576E+03  0.81683435909E+03  0.39612738729E+03  0.12901333673E+04  0.15294330000E+03 0.  0.
    8880022    1    1    2    0    0 -0.90383470576E+03 -0.81683435909E+03 -0.99100932708E+03  0.15778550900E+04  0.15294330000E+03 0.  0.
<mgrwt>
<rscale>  0 0.12278140E+04</rscale>
<asrwt>0</asrwt>
<pdfrwt beam="1">  1        2 0.26637465E+00 0.12278140E+04</pdfrwt>
<pdfrwt beam="2">  1       -2 0.17485435E+00 0.12278140E+04</pdfrwt>
<totfact> 0.17954597E+00</totfact>
</mgrwt>
</event>
<event>
 4    1  0.1701380E-008  0.5251352E+03  0.7818608E-02  0.1007419E+00
         -2   -1    0    0    0  501 -0.00000000000E+00  0.00000000000E+00  0.24728272343E+03  0.24728272344E+03  0.25500000000E-02 0.  1.
          2   -1    0    0  501    0  0.00000000000E+00 -0.00000000000E+00 -0.26617309481E+04  0.26617309481E+04  0.25500000000E-02 0. -1.
    8880022    1    1    2    0    0 -0.19221024037E+03  0.46414501681E+03 -0.98522927824E+02  0.53429747656E+03  0.15294330000E+03 0.  0.
    8880022    1    1    2    0    0  0.19221024037E+03 -0.46414501681E+03 -0.23159252969E+04  0.23747161950E+04  0.15294330000E+03 0.  0.
<mgrwt>
<rscale>  0 0.52513525E+03</rscale>
<asrwt>0</asrwt>
<pdfrwt beam="1">  1        2 0.40949705E+00 0.52513525E+03</pdfrwt>
<pdfrwt beam="2">  1       -2 0.38043498E-01 0.52513525E+03</pdfrwt>
<totfact> 0.19998889E+01</totfact>
</mgrwt>
</event>
<event>
 4    1  0.1701380E-008  0.7638193E+03  0.7818608E-02  0.9613916E-01
          2   -1    0    0  501    0  0.00000000000E+00  0.00000000000E+00  0.43405159455E+04  0.43405159455E+04  0.25500000000E-02 0. -1.
         -2   -1    0    0    0  501 -0.00000000000E+00 -0.00000000000E+00 -0.55735395774E+03  0.55735395775E+03  0.25500000000E-02 0.  1.
    8880022    1    1    2    0    0 -0.11089101539E+03  0.74008881401E+03 -0.24171832923E+03  0.80115396374E+03  0.15294330000E+03 0.  0.
    8880022    1    1    2    0    0  0.11089101539E+03 -0.74008881401E+03  0.40248803170E+04  0.40967159395E+04  0.15294330000E+03 0.  0.
<mgrwt>
<rscale>  0 0.76381930E+03</rscale>
<asrwt>0</asrwt>
<pdfrwt beam="1">  1        2 0.66777170E+00 0.76381930E+03</pdfrwt>
<pdfrwt beam="2">  1       -2 0.85746761E-01 0.76381930E+03</pdfrwt>
<totfact> 0.23253460E-01</totfact>
</mgrwt>
</event>
<event>
 4    1  0.1701380E-008  0.1071341E+04  0.7818608E-02  0.9233584E-01
         -2   -1    0    0    0  501 -0.00000000000E+00  0.00000000000E+00  0.12192569399E+04  0.12192569399E+04  0.25500000000E-02 0.  1.
          2   -1    0    0  501    0  0.00000000000E+00 -0.00000000000E+00 -0.11541226591E+04  0.11541226591E+04  0.25500000000E-02 0. -1.
    8880022    1    1    2    0    0 -0.54346062081E+03 -0.91051088854E+03 -0.47693889555E+03  0.11727070766E+04  0.15294330000E+03 0.  0.
    8880022    1    1    2    0    0  0.54346062081E+03  0.91051088854E+03  0.54207317637E+03  0.12006725224E+04  0.15294330000E+03 0.  0.
<mgrwt>
<rscale>  0 0.10713408E+04</rscale>
<asrwt>0</asrwt>
<pdfrwt beam="1">  1        2 0.17755733E+00 0.10713408E+04</pdfrwt>
<pdfrwt beam="2">  1       -2 0.18757799E+00 0.10713408E+04</pdfrwt>
<totfact> 0.31963736E+00</totfact>
</mgrwt>
</event>
<event>
 4    1  0.1701380E-008  0.1377626E+04  0.7818608E-02  0.8970175E-01
          2   -1    0    0  501    0  0.00000000000E+00  0.00000000000E+00  0.22319880768E+04  0.22319880768E+04  0.25500000000E-02 0. -1.
         -2   -1    0    0    0  501 -0.00000000000E+00 -0.00000000000E+00 -0.16180539488E+04  0.16180539488E+04  0.25500000000E-02 0.  1.
    8880022    1    1    2    0    0  0.71484258354E+03  0.11676735870E+04  0.16329892833E+04  0.21364707294E+04  0.15294330000E+03 0.  0.
    8880022    1    1    2    0    0 -0.71484258354E+03 -0.11676735870E+04 -0.10190551553E+04  0.17135712963E+04  0.15294330000E+03 0.  0.
<mgrwt>
<rscale>  0 0.13776259E+04</rscale>
<asrwt>0</asrwt>
<pdfrwt beam="1">  1        2 0.34338278E+00 0.13776259E+04</pdfrwt>
<pdfrwt beam="2">  1       -2 0.24893138E+00 0.13776259E+04</pdfrwt>
<totfact> 0.30748156E-01</totfact>
</mgrwt>
</event>
<event>
 4    1  0.1701380E-008  0.9144009E+03  0.7818608E-02  0.9407756E-01
         -2   -1    0    0    0  501 -0.00000000000E+00  0.00000000000E+00  0.12750728404E+04  0.12750728404E+04  0.25500000000E-02 0.  1.
          2   -1    0    0  501    0  0.00000000000E+00 -0.00000000000E+00 -0.15513124769E+04  0.15513124769E+04  0.25500000000E-02 0. -1.
    8880022    1    1    2    0    0 -0.86555912863E+03  0.25208092209E+03 -0.12118611426E+04  0.15181358564E+04  0.15294330000E+03 0.  0.
    8880022    1    1    2    0    0  0.86555912863E+03 -0.25208092209E+03  0.93562150613E+03  0.13082494610E+04  0.15294330000E+03 0.  0.
<mgrwt>
<rscale>  0 0.91440092E+03</rscale>
<asrwt>0</asrwt>
<pdfrwt beam="1">  1        2 0.23866346E+00 0.91440092E+03</pdfrwt>
<pdfrwt beam="2">  1       -2 0.19616505E+00 0.91440092E+03</pdfrwt>
<totfact> 0.16838331E+00</totfact>
</mgrwt>
</event>
<event>
 4    1  0.1701380E-008  0.1267986E+04  0.7818608E-02  0.9055345E-01
         -2   -1    0    0    0  501 -0.00000000000E+00  0.00000000000E+00  0.91257243726E+03  0.91257243727E+03  0.25500000000E-02 0.  1.
          2   -1    0    0  501    0  0.00000000000E+00 -0.00000000000E+00 -0.24992979436E+04  0.24992979436E+04  0.25500000000E-02 0. -1.
    8880022    1    1    2    0    0  0.12570347630E+04  0.65276627699E+02  0.13331299935E+03  0.12749750752E+04  0.15294330000E+03 0.  0.
    8880022    1    1    2    0    0 -0.12570347630E+04 -0.65276627699E+02 -0.17200385057E+04  0.21368953057E+04  0.15294330000E+03 0.  0.
<mgrwt>
<rscale>  0 0.12679862E+04</rscale>
<asrwt>0</asrwt>
<pdfrwt beam="1">  1        2 0.38450737E+00 0.12679862E+04</pdfrwt>
<pdfrwt beam="2">  1       -2 0.14039576E+00 0.12679862E+04</pdfrwt>
<totfact> 0.12055140E+00</totfact>
</mgrwt>
</event>
<event>
 4    1  0.1701380E-008  0.6483409E+03  0.7818608E-02  0.9809897E-01
          2   -1    0    0  501    0  0.00000000000E+00  0.00000000000E+00  0.12729728887E+04  0.12729728887E+04  0.25500000000E-02 0. -1.
         -2   -1    0    0    0  501 -0.00000000000E+00 -0.00000000000E+00 -0.50008700838E+03  0.50008700839E+03  0.25500000000E-02 0.  1.
    8880022    1    1    2    0    0  0.62302996161E+03  0.93744120268E+02  0.90314520944E+03  0.11117631112E+04  0.15294330000E+03 0.  0.
    8880022    1    1    2    0    0 -0.62302996161E+03 -0.93744120268E+02 -0.13025932913E+03  0.66129678586E+03  0.15294330000E+03 0.  1.
<mgrwt>
<rscale>  0 0.64834092E+03</rscale>
<asrwt>0</asrwt>
<pdfrwt beam="1">  1        2 0.19584198E+00 0.64834092E+03</pdfrwt>
<pdfrwt beam="2">  1       -2 0.76936464E-01 0.64834092E+03</pdfrwt>
<totfact> 0.26698755E+01</totfact>
</mgrwt>
</event>
<event>
 4    1  0.1701380E-008  0.1436806E+04  0.7818608E-02  0.8927599E-01
          2   -1    0    0  501    0  0.00000000000E+00  0.00000000000E+00  0.12345870151E+04  0.12345870151E+04  0.25500000000E-02 0. -1.
         -2   -1    0    0    0  501 -0.00000000000E+00 -0.00000000000E+00 -0.22808476263E+04  0.22808476263E+04  0.25500000000E-02 0.  1.
    8880022    1    1    2    0    0 -0.11796455620E+04  0.80588913982E+03 -0.14311646960E+04  0.20279657290E+04  0.15294330000E+03 0.  0.
    8880022    1    1    2    0    0  0.11796455620E+04 -0.80588913982E+03  0.38490408482E+03  0.14874689124E+04  0.15294330000E+03 0.  0.
<mgrwt>
<rscale>  0 0.14368064E+04</rscale>
<asrwt>0</asrwt>
<pdfrwt beam="1">  1        2 0.18993646E+00 0.14368064E+04</pdfrwt>
<pdfrwt beam="2">  1       -2 0.35089963E+00 0.14368064E+04</pdfrwt>
<totfact> 0.26411025E-01</totfact>
</mgrwt>
</event>
<event>
 4    1  0.1701380E-008  0.1818919E+03  0.7818608E-02  0.1165984E+00
         -2   -1    0    0    0  501 -0.00000000000E+00  0.00000000000E+00  0.10975807520E+03  0.10975807523E+03  0.25500000000E-02 0.  1.
          2   -1    0    0  501    0  0.00000000000E+00 -0.00000000000E+00 -0.91168219449E+03  0.91168219450E+03  0.25500000000E-02 0. -1.
    8880022    1    1    2    0    0  0.12288752626E+02  0.97683208233E+02  0.16882689597E+02  0.18267375519E+03  0.15294330000E+03 0.  1.
    8880022    1    1    2    0    0 -0.12288752626E+02 -0.97683208233E+02 -0.81880680889E+03  0.83876651454E+03  0.15294330000E+03 0.  0.
<mgrwt>
<rscale>  0 0.18189193E+03</rscale>
<asrwt>0</asrwt>
<pdfrwt beam="1">  1        2 0.14025879E+00 0.18189193E+03</pdfrwt>
<pdfrwt beam="2">  1       -2 0.16885858E-01 0.18189193E+03</pdfrwt>
<totfact> 0.84306366E+02</totfact>
</mgrwt>
</event>
<event>
 4    1  0.1701380E-008  0.7336203E+03  0.7818608E-02  0.9661404E-01
         -2   -1    0    0    0  501 -0.00000000000E+00  0.00000000000E+00  0.14792923081E+04  0.14792923081E+04  0.25500000000E-02 0.  1.
          2   -1    0    0  501    0  0.00000000000E+00 -0.00000000000E+00 -0.95280721298E+03  0.95280721298E+03  0.25500000000E-02 0. -1.
    8880022    1    1    2    0    0  0.31744053984E+03  0.64345828882E+03  0.12193376989E+04  0.14230190240E+04  0.15294330000E+03 0.  1.
    8880022    1    1    2    0    0 -0.31744053984E+03 -0.64345828882E+03 -0.69285260382E+03  0.10090804970E+04  0.15294330000E+03 0.  0.
<mgrwt>
<rscale>  0 0.73362028E+03</rscale>
<asrwt>0</asrwt>
<pdfrwt beam="1">  1        2 0.14658573E+00 0.73362028E+03</pdfrwt>
<pdfrwt beam="2">  1       -2 0.22758343E+00 0.73362028E+03</pdfrwt>
<totfact> 0.24682578E+00</totfact>
</mgrwt>
</event>
<event>
 4    1  0.1701380E-008  0.5605485E+03  0.7818608E-02  0.9990814E-01
          2   -1    0    0  501    0  0.00000000000E+00  0.00000000000E+00  0.19705728021E+04  0.19705728021E+04  0.25500000000E-02 0. -1.
         -2   -1    0    0    0  501 -0.00000000000E+00 -0.00000000000E+00 -0.33395847521E+03  0.33395847521E+03  0.25500000000E-02 0.  1.
    8880022    1    1    2    0    0  0.26734955993E+03 -0.46834509260E+03  0.16512407736E+04  0.17437920341E+04  0.15294330000E+03 0.  0.
    8880022    1    1    2    0    0 -0.26734955993E+03  0.46834509260E+03 -0.14626446626E+02  0.56073924324E+03  0.15294330000E+03 0.  0.
<mgrwt>
<rscale>  0 0.56054845E+03</rscale>
<asrwt>0</asrwt>
<pdfrwt beam="1">  1        2 0.30316505E+00 0.56054845E+03</pdfrwt>
<pdfrwt beam="2">  1       -2 0.51378227E-01 0.56054845E+03</pdfrwt>
<totfact> 0.26398667E+01</totfact>
</mgrwt>
</event>
<event>
 4    1  0.1701380E-008  0.7168300E+03  0.7818608E-02  0.9688876E-01
         -2   -1    0    0    0  501 -0.00000000000E+00  0.00000000000E+00  0.15669530519E+04  0.15669530519E+04  0.25500000000E-02 0.  1.
          2   -1    0    0  501    0  0.00000000000E+00 -0.00000000000E+00 -0.91275176288E+03  0.91275176289E+03  0.25500000000E-02 0. -1.
    8880022    1    1    2    0    0 -0.67598625958E+03  0.18301967415E+03  0.13195463298E+04  0.15016816552E+04  0.15294330000E+03 0.  0.
    8880022    1    1    2    0    0  0.67598625958E+03 -0.18301967415E+03 -0.66534504077E+03  0.97802315952E+03  0.15294330000E+03 0. -1.
<mgrwt>
<rscale>  0 0.71683002E+03</rscale>
<asrwt>0</asrwt>
<pdfrwt beam="1">  1        2 0.14042335E+00 0.71683002E+03</pdfrwt>
<pdfrwt beam="2">  1       -2 0.24106970E+00 0.71683002E+03</pdfrwt>
<totfact> 0.21738238E+00</totfact>
</mgrwt>
</event>
<event>
 4    1  0.1701380E-008  0.6900168E+03  0.7818608E-02  0.9734459E-01
         -2   -1    0    0    0  501 -0.00000000000E+00  0.00000000000E+00  0.46900610825E+03  0.46900610826E+03  0.25500000000E-02 0.  1.
          2   -1    0    0  501    0  0.00000000000E+00 -0.00000000000E+00 -0.16635566657E+04  0.16635566657E+04  0.25500000000E-02 0. -1.
    8880022    1    1    2    0    0 -0.50762260562E+02  0.67093568424E+03  0.68409274995E+02  0.69339958278E+03  0.15294330000E+03 0.  0.
    8880022    1    1    2    0    0  0.50762260562E+02 -0.67093568424E+03 -0.12629598325E+04  0.14391631912E+04  0.15294330000E+03 0.  0.
<mgrwt>
<rscale>  0 0.69001678E+03</rscale>
<asrwt>0</asrwt>
<pdfrwt beam="1">  1        2 0.25593179E+00 0.69001678E+03</pdfrwt>
<pdfrwt beam="2">  1       -2 0.72154787E-01 0.69001678E+03</pdfrwt>
<totfact> 0.18508594E+01</totfact>
</mgrwt>
</event>
<event>
 4    1  0.1701380E-008  0.2921077E+03  0.7818608E-02  0.1089254E+00
          2   -1    0    0  501    0  0.00000000000E+00  0.00000000000E+00  0.60695077780E+03  0.60695077781E+03  0.25500000000E-02 0. -1.
         -2   -1    0    0    0  501 -0.00000000000E+00 -0.00000000000E+00 -0.47391307024E+03  0.47391307025E+03  0.25500000000E-02 0.  1.
    8880022    1    1    2    0    0 -0.19460554630E+03  0.15512557932E+03 -0.38672189312E+03  0.48464496247E+03  0.15294330000E+03 0.  1.
    8880022    1    1    2    0    0  0.19460554630E+03 -0.15512557932E+03  0.51975960069E+03  0.59621888559E+03  0.15294330000E+03 0.  0.
<mgrwt>
<rscale>  0 0.29210771E+03</rscale>
<asrwt>0</asrwt>
<pdfrwt beam="1">  1        2 0.93377043E-01 0.29210771E+03</pdfrwt>
<pdfrwt beam="2">  1       -2 0.72909703E-01 0.29210771E+03</pdfrwt>
<totfact> 0.87723741E+01</totfact>
</mgrwt>
</event>
<event>
 4    1  0.1701380E-008  0.6837495E+03  0.7818608E-02  0.9745433E-01
          2   -1    0    0  501    0  0.00000000000E+00  0.00000000000E+00  0.15583079297E+04  0.15583079297E+04  0.25500000000E-02 0. -1.
         -2   -1    0    0    0  501 -0.00000000000E+00 -0.00000000000E+00 -0.11820623971E+04  0.11820623971E+04  0.25500000000E-02 0.  1.
    8880022    1    1    2    0    0  0.66486344609E+03  0.45588401392E+02  0.13717239736E+04  0.15326904505E+04  0.15294330000E+03 0.  0.
    8880022    1    1    2    0    0 -0.66486344609E+03 -0.45588401392E+02 -0.99547844094E+03  0.12076798763E+04  0.15294330000E+03 0.  0.
<mgrwt>
<rscale>  0 0.68374948E+03</rscale>
<asrwt>0</asrwt>
<pdfrwt beam="1">  1        2 0.23973968E+00 0.68374948E+03</pdfrwt>
<pdfrwt beam="2">  1       -2 0.18185575E+00 0.68374948E+03</pdfrwt>
<totfact> 0.21622250E+00</totfact>
</mgrwt>
</event>
<event>
 4    1  0.1701380E-008  0.5528095E+03  0.7818608E-02  0.1000846E+00
         -2   -1    0    0    0  501 -0.00000000000E+00  0.00000000000E+00  0.95945715879E+03  0.95945715880E+03  0.25500000000E-02 0.  1.
          2   -1    0    0  501    0  0.00000000000E+00 -0.00000000000E+00 -0.52138823649E+03  0.52138823650E+03  0.25500000000E-02 0. -1.
    8880022    1    1    2    0    0 -0.51956838579E+03  0.11070394124E+03  0.68089943568E+03  0.87705322794E+03  0.15294330000E+03 0.  0.
    8880022    1    1    2    0    0  0.51956838579E+03 -0.11070394124E+03 -0.24283051338E+03  0.60379216736E+03  0.15294330000E+03 0.  0.
<mgrwt>
<rscale>  0 0.55280948E+03</rscale>
<asrwt>0</asrwt>
<pdfrwt beam="1">  1        2 0.80213575E-01 0.55280948E+03</pdfrwt>
<pdfrwt beam="2">  1       -2 0.14760879E+00 0.55280948E+03</pdfrwt>
<totfact> 0.18965441E+01</totfact>
</mgrwt>
</event>
<event>
 4    1  0.1701380E-008  0.4567888E+03  0.7818608E-02  0.1025717E+00
          2   -1    0    0  501    0  0.00000000000E+00  0.00000000000E+00  0.61783032613E+03  0.61783032614E+03  0.25500000000E-02 0. -1.
         -2   -1    0    0    0  501 -0.00000000000E+00 -0.00000000000E+00 -0.10812780051E+04  0.10812780051E+04  0.25500000000E-02 0.  1.
    8880022    1    1    2    0    0 -0.33523046002E+03  0.26997200156E+03  0.47277245124E+03  0.65739621737E+03  0.15294330000E+03 0.  0.
    8880022    1    1    2    0    0  0.33523046002E+03 -0.26997200156E+03 -0.93622013017E+03  0.10417121138E+04  0.15294330000E+03 0.  0.
<mgrwt>
<rscale>  0 0.45678879E+03</rscale>
<asrwt>0</asrwt>
<pdfrwt beam="1">  1        2 0.95050819E-01 0.45678879E+03</pdfrwt>
<pdfrwt beam="2">  1       -2 0.16635046E+00 0.45678879E+03</pdfrwt>
<totfact> 0.11448580E+01</totfact>
</mgrwt>
</event>
<event>
 4    1  0.1701380E-008  0.1578319E+04  0.7818608E-02  0.8833979E-01
          2   -1    0    0  501    0  0.00000000000E+00  0.00000000000E+00  0.19096228070E+04  0.19096228070E+04  0.25500000000E-02 0. -1.
         -2   -1    0    0    0  501 -0.00000000000E+00 -0.00000000000E+00 -0.18543791987E+04  0.18543791987E+04  0.25500000000E-02 0.  1.
    8880022    1    1    2    0    0  0.13893339923E+04 -0.73310961422E+03 -0.99722001469E+03  0.18669595762E+04  0.15294330000E+03 0.  0.
    8880022    1    1    2    0    0 -0.13893339923E+04  0.73310961422E+03  0.10524636230E+04  0.18970424295E+04  0.15294330000E+03 0.  0.
<mgrwt>
<rscale>  0 0.15783188E+04</rscale>
<asrwt>0</asrwt>
<pdfrwt beam="1">  1        2 0.29378812E+00 0.15783188E+04</pdfrwt>
<pdfrwt beam="2">  1       -2 0.28528911E+00 0.15783188E+04</pdfrwt>
<totfact> 0.27266583E-01</totfact>
</mgrwt>
</event>
<event>
 4    1  0.1701380E-008  0.7385599E+03  0.7818608E-02  0.9653471E-01
         -2   -1    0    0    0  501 -0.00000000000E+00  0.00000000000E+00  0.35079314917E+03  0.35079314918E+03  0.25500000000E-02 0.  1.
          2   -1    0    0  501    0  0.00000000000E+00 -0.00000000000E+00 -0.27624659700E+04  0.27624659700E+04  0.25500000000E-02 0. -1.
    8880022    1    1    2    0    0 -0.17522623515E+03 -0.70098133218E+03 -0.22349912740E+04  0.23538599596E+04  0.15294330000E+03 0.  0.
    8880022    1    1    2    0    0  0.17522623515E+03  0.70098133218E+03 -0.17668154682E+03  0.75939915957E+03  0.15294330000E+03 0.  0.
<mgrwt>
<rscale>  0 0.73855989E+03</rscale>
<asrwt>0</asrwt>
<pdfrwt beam="1">  1        2 0.42499475E+00 0.73855989E+03</pdfrwt>
<pdfrwt beam="2">  1       -2 0.53968179E-01 0.73855989E+03</pdfrwt>
<totfact> 0.83424774E+00</totfact>
</mgrwt>
</event>
<event>
 4    1  0.1701380E-008  0.4320663E+03  0.7818608E-02  0.1033209E+00
          2   -1    0    0  501    0  0.00000000000E+00  0.00000000000E+00  0.25780441584E+04  0.25780441584E+04  0.25500000000E-02 0. -1.
         -2   -1    0    0    0  501 -0.00000000000E+00 -0.00000000000E+00 -0.22822004596E+03  0.22822004598E+03  0.25500000000E-02 0.  1.
    8880022    1    1    2    0    0 -0.22579488217E+02  0.40345976290E+03  0.23342676010E+04  0.23739179640E+04  0.15294330000E+03 0.  0.
    8880022    1    1    2    0    0  0.22579488217E+02 -0.40345976290E+03  0.15556511482E+02  0.43234624045E+03  0.15294330000E+03 0.  0.
<mgrwt>
<rscale>  0 0.43206628E+03</rscale>
<asrwt>0</asrwt>
<pdfrwt beam="1">  1        2 0.39662217E+00 0.43206628E+03</pdfrwt>
<pdfrwt beam="2">  1       -2 0.35110777E-01 0.43206628E+03</pdfrwt>
<totfact> 0.26597892E+01</totfact>
</mgrwt>
</event>
<event>
 4    1  0.1701380E-008  0.2560742E+03  0.7818608E-02  0.1109525E+00
         -2   -1    0    0    0  501 -0.00000000000E+00  0.00000000000E+00  0.14379271611E+04  0.14379271611E+04  0.25500000000E-02 0.  1.
          2   -1    0    0  501    0  0.00000000000E+00 -0.00000000000E+00 -0.96015640674E+03  0.96015640674E+03  0.25500000000E-02 0. -1.
    8880022    1    1    2    0    0  0.87749470114E+02  0.18569424359E+03  0.14091062260E+04  0.14321851594E+04  0.15294330000E+03 0.  0.
    8880022    1    1    2    0    0 -0.87749470114E+02 -0.18569424359E+03 -0.93133547166E+03  0.96589840843E+03  0.15294330000E+03 0. -1.
<mgrwt>
<rscale>  0 0.25607416E+03</rscale>
<asrwt>0</asrwt>
<pdfrwt beam="1">  1        2 0.14771637E+00 0.25607416E+03</pdfrwt>
<pdfrwt beam="2">  1       -2 0.22121956E+00 0.25607416E+03</pdfrwt>
<totfact> 0.30306138E+00</totfact>
</mgrwt>
</event>
<event>
 4    1  0.1701380E-008  0.1363571E+04  0.7818608E-02  0.8980618E-01
         -2   -1    0    0    0  501 -0.00000000000E+00  0.00000000000E+00  0.84667998762E+03  0.84667998762E+03  0.25500000000E-02 0.  1.
          2   -1    0    0  501    0  0.00000000000E+00 -0.00000000000E+00 -0.33183670884E+04  0.33183670884E+04  0.25500000000E-02 0. -1.
    8880022    1    1    2    0    0  0.83483920822E+03  0.10672286778E+04 -0.24711433427E+02  0.13637946554E+04  0.15294330000E+03 0.  0.
    8880022    1    1    2    0    0 -0.83483920822E+03 -0.10672286778E+04 -0.24469756673E+04  0.28012524206E+04  0.15294330000E+03 0.  0.
<mgrwt>
<rscale>  0 0.13635708E+04</rscale>
<asrwt>0</asrwt>
<pdfrwt beam="1">  1        2 0.51051801E+00 0.13635708E+04</pdfrwt>
<pdfrwt beam="2">  1       -2 0.13025846E+00 0.13635708E+04</pdfrwt>
<totfact> 0.45400161E-01</totfact>
</mgrwt>
</event>
<event>
 4    1  0.1701380E-008  0.1397951E+04  0.7818608E-02  0.8955303E-01
         -2   -1    0    0    0  501 -0.00000000000E+00  0.00000000000E+00  0.30739622022E+04  0.30739622022E+04  0.25500000000E-02 0.  1.
          2   -1    0    0  501    0  0.00000000000E+00 -0.00000000000E+00 -0.95159182171E+03  0.95159182172E+03  0.25500000000E-02 0. -1.
    8880022    1    1    2    0    0  0.13823328749E+04 -0.14153183592E+03  0.22207795938E+04  0.26241434974E+04  0.15294330000E+03 0.  0.
    8880022    1    1    2    0    0 -0.13823328749E+04  0.14153183592E+03 -0.98409213275E+02  0.14014105266E+04  0.15294330000E+03 0.  0.
<mgrwt>
<rscale>  0 0.13979510E+04</rscale>
<asrwt>0</asrwt>
<pdfrwt beam="1">  1        2 0.14639874E+00 0.13979510E+04</pdfrwt>
<pdfrwt beam="2">  1       -2 0.47291726E+00 0.13979510E+04</pdfrwt>
<totfact> 0.63659397E-02</totfact>
</mgrwt>
</event>
<event>
 4    1  0.1701380E-008  0.3467377E+03  0.7818608E-02  0.1063962E+00
         -2   -1    0    0    0  501 -0.00000000000E+00  0.00000000000E+00  0.29268980453E+03  0.29268980454E+03  0.25500000000E-02 0.  1.
          2   -1    0    0  501    0  0.00000000000E+00 -0.00000000000E+00 -0.57113290777E+03  0.57113290778E+03  0.25500000000E-02 0. -1.
    8880022    1    1    2    0    0  0.30652396382E+03  0.53650825203E+02  0.89645608923E+02  0.35813871566E+03  0.15294330000E+03 0.  1.
    8880022    1    1    2    0    0 -0.30652396382E+03 -0.53650825203E+02 -0.36808871216E+03  0.50568399666E+03  0.15294330000E+03 0.  0.
<mgrwt>
<rscale>  0 0.34673766E+03</rscale>
<asrwt>0</asrwt>
<pdfrwt beam="1">  1        2 0.87866601E-01 0.34673766E+03</pdfrwt>
<pdfrwt beam="2">  1       -2 0.45029201E-01 0.34673766E+03</pdfrwt>
<totfact> 0.25351392E+02</totfact>
</mgrwt>
</event>
<event>
 4    1  0.1701380E-008  0.1006554E+04  0.7818608E-02  0.9301386E-01
          2   -1    0    0  501    0  0.00000000000E+00  0.00000000000E+00  0.16701825986E+04  0.16701825986E+04  0.25500000000E-02 0. -1.
         -2   -1    0    0    0  501 -0.00000000000E+00 -0.00000000000E+00 -0.11278054173E+04  0.11278054173E+04  0.25500000000E-02 0.  1.
    8880022    1    1    2    0    0  0.99315633293E+03 -0.58305852251E+02  0.12222285085E+04  0.15833487468E+04  0.15294330000E+03 0.  0.
    8880022    1    1    2    0    0 -0.99315633293E+03  0.58305852251E+02 -0.67985132713E+03  0.12146392691E+04  0.15294330000E+03 0.  0.
<mgrwt>
<rscale>  0 0.10065539E+04</rscale>
<asrwt>0</asrwt>
<pdfrwt beam="1">  1        2 0.25695117E+00 0.10065539E+04</pdfrwt>
<pdfrwt beam="2">  1       -2 0.17350853E+00 0.10065539E+04</pdfrwt>
<totfact> 0.20368719E+00</totfact>
</mgrwt>
</event>
<event>
 4    1  0.1701380E-008  0.5526229E+03  0.7818608E-02  0.1000889E+00
          2   -1    0    0  501    0  0.00000000000E+00  0.00000000000E+00  0.18077352969E+04  0.18077352969E+04  0.25500000000E-02 0. -1.
         -2   -1    0    0    0  501 -0.00000000000E+00 -0.00000000000E+00 -0.28313844732E+03  0.28313844733E+03  0.25500000000E-02 0.  1.
    8880022    1    1    2    0    0 -0.45362220086E+03 -0.27609285034E+03  0.98348040484E+02  0.56130593548E+03  0.15294330000E+03 0.  0.
    8880022    1    1    2    0    0  0.45362220086E+03  0.27609285034E+03  0.14262488091E+04  0.15295678088E+04  0.15294330000E+03 0.  0.
<mgrwt>
<rscale>  0 0.55262285E+03</rscale>
<asrwt>0</asrwt>
<pdfrwt beam="1">  1        2 0.27811312E+00 0.55262285E+03</pdfrwt>
<pdfrwt beam="2">  1       -2 0.43559762E-01 0.55262285E+03</pdfrwt>
<totfact> 0.45054323E+01</totfact>
</mgrwt>
</event>
<event>
 4    1  0.1701380E-008  0.1381631E+04  0.7818608E-02  0.8967223E-01
          2   -1    0    0  501    0  0.00000000000E+00  0.00000000000E+00  0.10847960411E+04  0.10847960411E+04  0.25500000000E-02 0. -1.
         -2   -1    0    0    0  501 -0.00000000000E+00 -0.00000000000E+00 -0.22441411013E+04  0.22441411013E+04  0.25500000000E-02 0.  1.
    8880022    1    1    2    0    0  0.10805621646E+04 -0.84728898135E+03  0.19367632090E+03  0.13951399140E+04  0.15294330000E+03 0.  0.
    8880022    1    1    2    0    0 -0.10805621646E+04  0.84728898135E+03 -0.13530213812E+04  0.19337972284E+04  0.15294330000E+03 0.  0.
<mgrwt>
<rscale>  0 0.13816312E+04</rscale>
<asrwt>0</asrwt>
<pdfrwt beam="1">  1        2 0.16689170E+00 0.13816312E+04</pdfrwt>
<pdfrwt beam="2">  1       -2 0.34525248E+00 0.13816312E+04</pdfrwt>
<totfact> 0.35621582E-01</totfact>
</mgrwt>
</event>
<event>
 4    1  0.1701380E-008  0.8302797E+03  0.7818608E-02  0.9517194E-01
         -2   -1    0    0    0  501 -0.00000000000E+00  0.00000000000E+00  0.31844343989E+03  0.31844343990E+03  0.25500000000E-02 0.  1.
          2   -1    0    0  501    0  0.00000000000E+00 -0.00000000000E+00 -0.22691551409E+04  0.22691551409E+04  0.25500000000E-02 0. -1.
    8880022    1    1    2    0    0 -0.18409389636E+03 -0.79503599912E+03 -0.12528182730E+04  0.15029697538E+04  0.15294330000E+03 0.  0.
    8880022    1    1    2    0    0  0.18409389636E+03  0.79503599912E+03 -0.69789342801E+03  0.10846288270E+04  0.15294330000E+03 0.  0.
<mgrwt>
<rscale>  0 0.83027975E+03</rscale>
<asrwt>0</asrwt>
<pdfrwt beam="1">  1        2 0.34910078E+00 0.83027975E+03</pdfrwt>
<pdfrwt beam="2">  1       -2 0.48991300E-01 0.83027975E+03</pdfrwt>
<totfact> 0.19154102E+01</totfact>
</mgrwt>
</event>
<event>
 4    1  0.1701380E-008  0.6483769E+03  0.7818608E-02  0.9809830E-01
          2   -1    0    0  501    0  0.00000000000E+00  0.00000000000E+00  0.19420455854E+04  0.19420455855E+04  0.25500000000E-02 0. -1.
         -2   -1    0    0    0  501 -0.00000000000E+00 -0.00000000000E+00 -0.11288368119E+04  0.11288368119E+04  0.25500000000E-02 0.  1.
    8880022    1    1    2    0    0  0.53074350276E+03  0.33957665805E+03 -0.97378811021E+03  0.11698956830E+04  0.15294330000E+03 0.  0.
    8880022    1    1    2    0    0 -0.53074350276E+03 -0.33957665805E+03  0.17869968838E+04  0.19009867144E+04  0.15294330000E+03 0.  0.
<mgrwt>
<rscale>  0 0.64837692E+03</rscale>
<asrwt>0</asrwt>
<pdfrwt beam="1">  1        2 0.29877624E+00 0.64837692E+03</pdfrwt>
<pdfrwt beam="2">  1       -2 0.17366720E+00 0.64837692E+03</pdfrwt>
<totfact> 0.15326350E+00</totfact>
</mgrwt>
</event>
<event>
 4    1  0.1701380E-008  0.2182633E+04  0.7818608E-02  0.8525691E-01
         -2   -1    0    0    0  501 -0.00000000000E+00  0.00000000000E+00  0.18688977071E+04  0.18688977071E+04  0.25500000000E-02 0.  1.
          2   -1    0    0  501    0  0.00000000000E+00 -0.00000000000E+00 -0.34970806164E+04  0.34970806164E+04  0.25500000000E-02 0. -1.
    8880022    1    1    2    0    0 -0.20253798654E+04  0.79895786567E+03  0.58285678402E+03  0.22591172953E+04  0.15294330000E+03 0.  0.
    8880022    1    1    2    0    0  0.20253798654E+04 -0.79895786567E+03 -0.22110396933E+04  0.31068610282E+04  0.15294330000E+03 0.  0.
<mgrwt>
<rscale>  0 0.21826335E+04</rscale>
<asrwt>0</asrwt>
<pdfrwt beam="1">  1        2 0.53801240E+00 0.21826335E+04</pdfrwt>
<pdfrwt beam="2">  1       -2 0.28752273E+00 0.21826335E+04</pdfrwt>
<totfact> 0.26861818E-02</totfact>
</mgrwt>
</event>
<event>
 4    1  0.1701380E-008  0.2361022E+03  0.7818608E-02  0.1122417E+00
          2   -1    0    0  501    0  0.00000000000E+00  0.00000000000E+00  0.21708941709E+04  0.21708941709E+04  0.25500000000E-02 0. -1.
         -2   -1    0    0    0  501 -0.00000000000E+00 -0.00000000000E+00 -0.90627590175E+02  0.90627590211E+02  0.25500000000E-02 0.  1.
    8880022    1    1    2    0    0 -0.11127713127E+03 -0.14131526506E+03  0.19973906424E+04  0.20112965061E+04  0.15294330000E+03 0.  0.
    8880022    1    1    2    0    0  0.11127713127E+03  0.14131526506E+03  0.82875938337E+02  0.25022525503E+03  0.15294330000E+03 0.  1.
<mgrwt>
<rscale>  0 0.23610222E+03</rscale>
<asrwt>0</asrwt>
<pdfrwt beam="1">  1        2 0.33398370E+00 0.23610222E+03</pdfrwt>
<pdfrwt beam="2">  1       -2 0.13942707E-01 0.23610222E+03</pdfrwt>
<totfact> 0.23632634E+02</totfact>
</mgrwt>
</event>
<event>
 4    1  0.1701380E-008  0.9281654E+03  0.7818608E-02  0.9391042E-01
          2   -1    0    0  501    0  0.00000000000E+00  0.00000000000E+00  0.32298645019E+04  0.32298645019E+04  0.25500000000E-02 0. -1.
         -2   -1    0    0    0  501 -0.00000000000E+00 -0.00000000000E+00 -0.55763909649E+03  0.55763909649E+03  0.25500000000E-02 0.  1.
    8880022    1    1    2    0    0 -0.42860120653E+03  0.80895010627E+03 -0.31703066312E+02  0.92870663081E+03  0.15294330000E+03 0.  0.
    8880022    1    1    2    0    0  0.42860120653E+03 -0.80895010627E+03  0.27039284717E+04  0.28587969676E+04  0.15294330000E+03 0.  0.
<mgrwt>
<rscale>  0 0.92816535E+03</rscale>
<asrwt>0</asrwt>
<pdfrwt beam="1">  1        2 0.49690223E+00 0.92816535E+03</pdfrwt>
<pdfrwt beam="2">  1       -2 0.85790630E-01 0.92816535E+03</pdfrwt>
<totfact> 0.15200157E+00</totfact>
</mgrwt>
</event>
<event>
 4    1  0.1701380E-008  0.2512024E+03  0.7818608E-02  0.1112547E+00
         -2   -1    0    0    0  501 -0.00000000000E+00  0.00000000000E+00  0.72085392750E+03  0.72085392750E+03  0.25500000000E-02 0.  1.
          2   -1    0    0  501    0  0.00000000000E+00 -0.00000000000E+00 -0.28608391475E+04  0.28608391475E+04  0.25500000000E-02 0. -1.
    8880022    1    1    2    0    0  0.19457049929E+03 -0.43050035746E+02 -0.28332272531E+04  0.28443416295E+04  0.15294330000E+03 0. -1.
    8880022    1    1    2    0    0 -0.19457049929E+03  0.43050035746E+02  0.69324203306E+03  0.73735144550E+03  0.15294330000E+03 0.  0.
<mgrwt>
<rscale>  0 0.25120238E+03</rscale>
<asrwt>0</asrwt>
<pdfrwt beam="1">  1        2 0.44012909E+00 0.25120238E+03</pdfrwt>
<pdfrwt beam="2">  1       -2 0.11090061E+00 0.25120238E+03</pdfrwt>
<totfact> 0.17440992E+00</totfact>
</mgrwt>
</event>
<event>
 4    1  0.1737393E-008  0.1271984E+04  0.7818608E-02  0.9052082E-01
          2   -1    0    0  501    0  0.00000000000E+00  0.00000000000E+00  0.25689454806E+04  0.25689454806E+04  0.25500000000E-02 0. -1.
         -2   -1    0    0    0  501 -0.00000000000E+00 -0.00000000000E+00 -0.14065195664E+04  0.14065195664E+04  0.25500000000E-02 0.  1.
    8880022    1    1    2    0    0 -0.27106568593E+03  0.12333189693E+04  0.20583295444E+04  0.24196413892E+04  0.15294330000E+03 0.  0.
    8880022    1    1    2    0    0  0.27106568593E+03 -0.12333189693E+04 -0.89590363023E+03  0.15558236577E+04  0.15294330000E+03 0.  0.
<mgrwt>
<rscale>  0 0.12719843E+04</rscale>
<asrwt>0</asrwt>
<pdfrwt beam="1">  1        2 0.39522238E+00 0.12719843E+04</pdfrwt>
<pdfrwt beam="2">  1       -2 0.21638763E+00 0.12719843E+04</pdfrwt>
<totfact> 0.31966827E-01</totfact>
</mgrwt>
</event>
<event>
 4    1  0.1701380E-008  0.7293193E+03  0.7818608E-02  0.9668366E-01
          2   -1    0    0  501    0  0.00000000000E+00  0.00000000000E+00  0.10723647468E+04  0.10723647468E+04  0.25500000000E-02 0. -1.
         -2   -1    0    0    0  501 -0.00000000000E+00 -0.00000000000E+00 -0.76967138909E+03  0.76967138909E+03  0.25500000000E-02 0.  1.
    8880022    1    1    2    0    0 -0.40384803261E+03  0.58772596948E+03 -0.39783997574E+03  0.83077274147E+03  0.15294330000E+03 0.  0.
    8880022    1    1    2    0    0  0.40384803261E+03 -0.58772596948E+03  0.70053333349E+03  0.10112633945E+04  0.15294330000E+03 0.  0.
<mgrwt>
<rscale>  0 0.72931934E+03</rscale>
<asrwt>0</asrwt>
<pdfrwt beam="1">  1        2 0.16497919E+00 0.72931934E+03</pdfrwt>
<pdfrwt beam="2">  1       -2 0.11841098E+00 0.72931934E+03</pdfrwt>
<totfact> 0.12692976E+01</totfact>
</mgrwt>
</event>
<event>
 4    1  0.1701380E-008  0.1462332E+04  0.7818608E-02  0.8909895E-01
          2   -1    0    0  501    0  0.00000000000E+00  0.00000000000E+00  0.98199002766E+03  0.98199002766E+03  0.25500000000E-02 0. -1.
         -2   -1    0    0    0  501 -0.00000000000E+00 -0.00000000000E+00 -0.25498312406E+04  0.25498312406E+04  0.25500000000E-02 0.  1.
    8880022    1    1    2    0    0 -0.11449166158E+04  0.89676619465E+03 -0.10923831314E+03  0.14664066036E+04  0.15294330000E+03 0.  0.
    8880022    1    1    2    0    0  0.11449166158E+04 -0.89676619465E+03 -0.14586028998E+04  0.20654146647E+04  0.15294330000E+03 0.  0.
<mgrwt>
<rscale>  0 0.14623322E+04</rscale>
<asrwt>0</asrwt>
<pdfrwt beam="1">  1        2 0.15107539E+00 0.14623322E+04</pdfrwt>
<pdfrwt beam="2">  1       -2 0.39228173E+00 0.14623322E+04</pdfrwt>
<totfact> 0.20577432E-01</totfact>
</mgrwt>
</event>
<event>
 4    1  0.1701380E-008  0.7678772E+03  0.7818608E-02  0.9607714E-01
          2   -1    0    0  501    0  0.00000000000E+00  0.00000000000E+00  0.18414596353E+04  0.18414596353E+04  0.25500000000E-02 0. -1.
         -2   -1    0    0    0  501 -0.00000000000E+00 -0.00000000000E+00 -0.64349097792E+03  0.64349097792E+03  0.25500000000E-02 0.  1.
    8880022    1    1    2    0    0 -0.57819644640E+03 -0.48159377780E+03  0.14796546007E+04  0.16670372185E+04  0.15294330000E+03 0.  0.
    8880022    1    1    2    0    0  0.57819644640E+03  0.48159377780E+03 -0.28168594339E+03  0.81791339466E+03  0.15294330000E+03 0.  0.
<mgrwt>
<rscale>  0 0.76787717E+03</rscale>
<asrwt>0</asrwt>
<pdfrwt beam="1">  1        2 0.28330148E+00 0.76787717E+03</pdfrwt>
<pdfrwt beam="2">  1       -2 0.98998612E-01 0.76787717E+03</pdfrwt>
<totfact> 0.71248161E+00</totfact>
</mgrwt>
</event>
<event>
 4    1  0.1701380E-008  0.1253597E+04  0.7818608E-02  0.9067195E-01
          2   -1    0    0  501    0  0.00000000000E+00  0.00000000000E+00  0.20377113764E+04  0.20377113764E+04  0.25500000000E-02 0. -1.
         -2   -1    0    0    0  501 -0.00000000000E+00 -0.00000000000E+00 -0.15078946023E+04  0.15078946024E+04  0.25500000000E-02 0.  1.
    8880022    1    1    2    0    0 -0.11571571724E+04  0.45727521948E+03 -0.97421782918E+03  0.15876414518E+04  0.15294330000E+03 0.  0.
    8880022    1    1    2    0    0  0.11571571724E+04 -0.45727521948E+03  0.15040346032E+04  0.19579645269E+04  0.15294330000E+03 0.  0.
<mgrwt>
<rscale>  0 0.12535968E+04</rscale>
<asrwt>0</asrwt>
<pdfrwt beam="1">  1        2 0.31349406E+00 0.12535968E+04</pdfrwt>
<pdfrwt beam="2">  1       -2 0.23198379E+00 0.12535968E+04</pdfrwt>
<totfact> 0.51060036E-01</totfact>
</mgrwt>
</event>
<event>
 4    1  0.1701380E-008  0.9042716E+03  0.7818608E-02  0.9420257E-01
          2   -1    0    0  501    0  0.00000000000E+00  0.00000000000E+00  0.26922260456E+04  0.26922260456E+04  0.25500000000E-02 0. -1.
         -2   -1    0    0    0  501 -0.00000000000E+00 -0.00000000000E+00 -0.48452060889E+03  0.48452060890E+03  0.25500000000E-02 0.  1.
    8880022    1    1    2    0    0  0.14712026390E+03 -0.87901711356E+03  0.13359836660E+03  0.91408732326E+03  0.15294330000E+03 0.  0.
    8880022    1    1    2    0    0 -0.14712026390E+03  0.87901711356E+03  0.20741070701E+04  0.22626593313E+04  0.15294330000E+03 0.  0.
<mgrwt>
<rscale>  0 0.90427159E+03</rscale>
<asrwt>0</asrwt>
<pdfrwt beam="1">  1        2 0.41418862E+00 0.90427159E+03</pdfrwt>
<pdfrwt beam="2">  1       -2 0.74541632E-01 0.90427159E+03</pdfrwt>
<totfact> 0.44695895E+00</totfact>
</mgrwt>
</event>
<event>
 4    1  0.1701380E-008  0.5147864E+03  0.7818608E-02  0.1009990E+00
          2   -1    0    0  501    0  0.00000000000E+00  0.00000000000E+00  0.11561988514E+04  0.11561988514E+04  0.25500000000E-02 0. -1.
         -2   -1    0    0    0  501 -0.00000000000E+00 -0.00000000000E+00 -0.44564384868E+03  0.44564384869E+03  0.25500000000E-02 0.  1.
    8880022    1    1    2    0    0  0.45945657281E+03 -0.17467978045E+03  0.91344539732E+03  0.10485168167E+04  0.15294330000E+03 0.  0.
    8880022    1    1    2    0    0 -0.45945657281E+03  0.17467978045E+03 -0.20289039460E+03  0.55332588339E+03  0.15294330000E+03 0.  0.
<mgrwt>
<rscale>  0 0.51478638E+03</rscale>
<asrwt>0</asrwt>
<pdfrwt beam="1">  1        2 0.17787675E+00 0.51478638E+03</pdfrwt>
<pdfrwt beam="2">  1       -2 0.68560592E-01 0.51478638E+03</pdfrwt>
<totfact> 0.40949503E+01</totfact>
</mgrwt>
</event>
<event>
 4    1  0.1701380E-008  0.1779232E+04  0.7818608E-02  0.8717422E-01
          2   -1    0    0  501    0  0.00000000000E+00  0.00000000000E+00  0.27784279092E+04  0.27784279092E+04  0.25500000000E-02 0. -1.
         -2   -1    0    0    0  501 -0.00000000000E+00 -0.00000000000E+00 -0.11476137778E+04  0.11476137778E+04  0.25500000000E-02 0.  1.
    8880022    1    1    2    0    0  0.11725516531E+03  0.17687637834E+04  0.64906155701E+03  0.18939236133E+04  0.15294330000E+03 0.  0.
    8880022    1    1    2    0    0 -0.11725516531E+03 -0.17687637834E+04  0.98175257443E+03  0.20321180737E+04  0.15294330000E+03 0.  0.
<mgrwt>
<rscale>  0 0.17792318E+04</rscale>
<asrwt>0</asrwt>
<pdfrwt beam="1">  1        2 0.42745044E+00 0.17792318E+04</pdfrwt>
<pdfrwt beam="2">  1       -2 0.17655597E+00 0.17792318E+04</pdfrwt>
<totfact> 0.41825895E-01</totfact>
</mgrwt>
</event>
<event>
 4    1  0.1701380E-008  0.1426489E+04  0.7818608E-02  0.8934865E-01
         -2   -1    0    0    0  501 -0.00000000000E+00  0.00000000000E+00  0.11545254231E+04  0.11545254231E+04  0.25500000000E-02 0.  1.
          2   -1    0    0  501    0  0.00000000000E+00 -0.00000000000E+00 -0.20737118827E+04  0.20737118827E+04  0.25500000000E-02 0. -1.
    8880022    1    1    2    0    0 -0.50835044556E+03 -0.13240308497E+04 -0.10848784682E+04  0.17921581432E+04  0.15294330000E+03 0.  0.
    8880022    1    1    2    0    0  0.50835044556E+03  0.13240308497E+04  0.16569200864E+03  0.14360791625E+04  0.15294330000E+03 0.  0.
<mgrwt>
<rscale>  0 0.14264885E+04</rscale>
<asrwt>0</asrwt>
<pdfrwt beam="1">  1        2 0.31903260E+00 0.14264885E+04</pdfrwt>
<pdfrwt beam="2">  1       -2 0.17761930E+00 0.14264885E+04</pdfrwt>
<totfact> 0.10853935E+00</totfact>
</mgrwt>
</event>
<event>
 4    1  0.1701380E-008  0.1206087E+04  0.7818608E-02  0.9107545E-01
          2   -1    0    0  501    0  0.00000000000E+00  0.00000000000E+00  0.25891453661E+04  0.25891453661E+04  0.25500000000E-02 0. -1.
         -2   -1    0    0    0  501 -0.00000000000E+00 -0.00000000000E+00 -0.86682722864E+03  0.86682722865E+03  0.25500000000E-02 0.  1.
    8880022    1    1    2    0    0 -0.71421952593E+03  0.95976293521E+03  0.18861633303E+04  0.22388073130E+04  0.15294330000E+03 0.  0.
    8880022    1    1    2    0    0  0.71421952593E+03 -0.95976293521E+03 -0.16384519281E+03  0.12171652818E+04  0.15294330000E+03 0.  0.
<mgrwt>
<rscale>  0 0.12060871E+04</rscale>
<asrwt>0</asrwt>
<pdfrwt beam="1">  1        2 0.39833006E+00 0.12060871E+04</pdfrwt>
<pdfrwt beam="2">  1       -2 0.13335804E+00 0.12060871E+04</pdfrwt>
<totfact> 0.12313691E+00</totfact>
</mgrwt>
</event>
<event>
 4    1  0.1701380E-008  0.8118530E+03  0.7818608E-02  0.9543017E-01
          2   -1    0    0  501    0  0.00000000000E+00  0.00000000000E+00  0.14721553731E+04  0.14721553731E+04  0.25500000000E-02 0. -1.
         -2   -1    0    0    0  501 -0.00000000000E+00 -0.00000000000E+00 -0.59136022596E+03  0.59136022596E+03  0.25500000000E-02 0.  1.
    8880022    1    1    2    0    0 -0.63605165816E+03  0.48078262336E+03 -0.68110755224E+02  0.81470508208E+03  0.15294330000E+03 0.  0.
    8880022    1    1    2    0    0  0.63605165816E+03 -0.48078262336E+03  0.94890590236E+03  0.12488105170E+04  0.15294330000E+03 0.  0.
<mgrwt>
<rscale>  0 0.81185300E+03</rscale>
<asrwt>0</asrwt>
<pdfrwt beam="1">  1        2 0.22648544E+00 0.81185300E+03</pdfrwt>
<pdfrwt beam="2">  1       -2 0.90978495E-01 0.81185300E+03</pdfrwt>
<totfact> 0.13785751E+01</totfact>
</mgrwt>
</event>
<event>
 4    1  0.1701380E-008  0.1734513E+04  0.7818608E-02  0.8741921E-01
          2   -1    0    0  501    0  0.00000000000E+00  0.00000000000E+00  0.21358405798E+04  0.21358405798E+04  0.25500000000E-02 0. -1.
         -2   -1    0    0    0  501 -0.00000000000E+00 -0.00000000000E+00 -0.22173634467E+04  0.22173634467E+04  0.25500000000E-02 0.  1.
    8880022    1    1    2    0    0 -0.12696303656E+04 -0.11718289542E+04  0.12737745425E+04  0.21519845727E+04  0.15294330000E+03 0.  0.
    8880022    1    1    2    0    0  0.12696303656E+04  0.11718289542E+04 -0.13552974093E+04  0.22012194538E+04  0.15294330000E+03 0.  0.
<mgrwt>
<rscale>  0 0.17345132E+04</rscale>
<asrwt>0</asrwt>
<pdfrwt beam="1">  1        2 0.32859086E+00 0.17345132E+04</pdfrwt>
<pdfrwt beam="2">  1       -2 0.34113284E+00 0.17345132E+04</pdfrwt>
<totfact> 0.90559996E-02</totfact>
</mgrwt>
</event>
<event>
 4    1  0.1701380E-008  0.4368374E+03  0.7818608E-02  0.1031722E+00
          2   -1    0    0  501    0  0.00000000000E+00  0.00000000000E+00  0.89808191093E+03  0.89808191093E+03  0.25500000000E-02 0. -1.
         -2   -1    0    0    0  501 -0.00000000000E+00 -0.00000000000E+00 -0.30070842198E+03  0.30070842199E+03  0.25500000000E-02 0.  1.
    8880022    1    1    2    0    0 -0.40868721723E+03  0.20249431834E+02  0.62335353936E+03  0.76118103567E+03  0.15294330000E+03 0.  0.
    8880022    1    1    2    0    0  0.40868721723E+03 -0.20249431834E+02 -0.25980050410E+02  0.43760929726E+03  0.15294330000E+03 0.  0.
<mgrwt>
<rscale>  0 0.43683742E+03</rscale>
<asrwt>0</asrwt>
<pdfrwt beam="1">  1        2 0.13816645E+00 0.43683742E+03</pdfrwt>
<pdfrwt beam="2">  1       -2 0.46262835E-01 0.43683742E+03</pdfrwt>
<totfact> 0.13524389E+02</totfact>
</mgrwt>
</event>
<event>
 4    1  0.1701380E-008  0.5549326E+03  0.7818608E-02  0.1000359E+00
          2   -1    0    0  501    0  0.00000000000E+00  0.00000000000E+00  0.38978637007E+03  0.38978637008E+03  0.25500000000E-02 0. -1.
         -2   -1    0    0    0  501 -0.00000000000E+00 -0.00000000000E+00 -0.10187324935E+04  0.10187324935E+04  0.25500000000E-02 0.  1.
    8880022    1    1    2    0    0 -0.51488680588E+03 -0.13946364081E+03  0.19199399265E+02  0.55526462154E+03  0.15294330000E+03 0.  0.
    8880022    1    1    2    0    0  0.51488680588E+03  0.13946364081E+03 -0.64814552274E+03  0.85325424209E+03  0.15294330000E+03 0.  0.
<mgrwt>
<rscale>  0 0.55493259E+03</rscale>
<asrwt>0</asrwt>
<pdfrwt beam="1">  1        2 0.59967134E-01 0.55493259E+03</pdfrwt>
<pdfrwt beam="2">  1       -2 0.15672807E+00 0.55493259E+03</pdfrwt>
<totfact> 0.22510586E+01</totfact>
</mgrwt>
</event>
<event>
 4    1  0.1701380E-008  0.5158522E+03  0.7818608E-02  0.1009722E+00
          2   -1    0    0  501    0  0.00000000000E+00  0.00000000000E+00  0.33635385710E+04  0.33635385710E+04  0.25500000000E-02 0. -1.
         -2   -1    0    0    0  501 -0.00000000000E+00 -0.00000000000E+00 -0.80668583721E+02  0.80668583761E+02  0.25500000000E-02 0.  1.
    8880022    1    1    2    0    0 -0.35433119016E+03  0.34228824296E+03  0.18804876151E+04  0.19499582450E+04  0.15294330000E+03 0. -1.
    8880022    1    1    2    0    0  0.35433119016E+03 -0.34228824296E+03  0.14023823722E+04  0.14942489098E+04  0.15294330000E+03 0.  1.
<mgrwt>
<rscale>  0 0.51585219E+03</rscale>
<asrwt>0</asrwt>
<pdfrwt beam="1">  1        2 0.51746732E+00 0.51585219E+03</pdfrwt>
<pdfrwt beam="2">  1       -2 0.12410555E-01 0.51585219E+03</pdfrwt>
<totfact> 0.54244992E+01</totfact>
</mgrwt>
</event>
<event>
 4    1  0.1701380E-008  0.9156703E+03  0.7818608E-02  0.9406202E-01
          2   -1    0    0  501    0  0.00000000000E+00  0.00000000000E+00  0.13606197421E+04  0.13606197421E+04  0.25500000000E-02 0. -1.
         -2   -1    0    0    0  501 -0.00000000000E+00 -0.00000000000E+00 -0.93924873162E+03  0.93924873162E+03  0.25500000000E-02 0.  1.
    8880022    1    1    2    0    0  0.61555461328E+03 -0.66041883920E+03 -0.46368380414E+03  0.10263794855E+04  0.15294330000E+03 0.  0.
    8880022    1    1    2    0    0 -0.61555461328E+03  0.66041883920E+03  0.88505481462E+03  0.12734889882E+04  0.15294330000E+03 0.  0.
<mgrwt>
<rscale>  0 0.91567034E+03</rscale>
<asrwt>0</asrwt>
<pdfrwt beam="1">  1        2 0.20932611E+00 0.91567034E+03</pdfrwt>
<pdfrwt beam="2">  1       -2 0.14449980E+00 0.91567034E+03</pdfrwt>
<totfact> 0.50490270E+00</totfact>
</mgrwt>
</event>
<event>
 4    1  0.1701380E-008  0.4137566E+03  0.7818608E-02  0.1039118E+00
         -2   -1    0    0    0  501 -0.00000000000E+00  0.00000000000E+00  0.10548332552E+03  0.10548332555E+03  0.25500000000E-02 0.  1.
          2   -1    0    0  501    0  0.00000000000E+00 -0.00000000000E+00 -0.17328344823E+04  0.17328344823E+04  0.25500000000E-02 0. -1.
    8880022    1    1    2    0    0  0.21303655735E+03  0.32002861562E+03 -0.58221707922E+03  0.71426274572E+03  0.15294330000E+03 0.  0.
    8880022    1    1    2    0    0 -0.21303655735E+03 -0.32002861562E+03 -0.10451340775E+04  0.11240550621E+04  0.15294330000E+03 0.  0.
<mgrwt>
<rscale>  0 0.41375662E+03</rscale>
<asrwt>0</asrwt>
<pdfrwt beam="1">  1        2 0.26658990E+00 0.41375662E+03</pdfrwt>
<pdfrwt beam="2">  1       -2 0.16228205E-01 0.41375662E+03</pdfrwt>
<totfact> 0.30281266E+02</totfact>
</mgrwt>
</event>
<event>
 4    1  0.1701380E-008  0.1000614E+04  0.7818608E-02  0.9307872E-01
         -2   -1    0    0    0  501 -0.00000000000E+00  0.00000000000E+00  0.44711996129E+03  0.44711996129E+03  0.25500000000E-02 0.  1.
          2   -1    0    0  501    0  0.00000000000E+00 -0.00000000000E+00 -0.30657949793E+04  0.30657949793E+04  0.25500000000E-02 0. -1.
    8880022    1    1    2    0    0 -0.71035676739E+03 -0.68791727166E+03 -0.39734681825E+03  0.10766211296E+04  0.15294330000E+03 0.  0.
    8880022    1    1    2    0    0  0.71035676739E+03  0.68791727166E+03 -0.22213281998E+04  0.24362938111E+04  0.15294330000E+03 0.  0.
<mgrwt>
<rscale>  0 0.10006141E+04</rscale>
<asrwt>0</asrwt>
<pdfrwt beam="1">  1        2 0.47166075E+00 0.10006141E+04</pdfrwt>
<pdfrwt beam="2">  1       -2 0.68787688E-01 0.10006141E+04</pdfrwt>
<totfact> 0.31282249E+00</totfact>
</mgrwt>
</event>
<event>
 4    1  0.1701380E-008  0.6879146E+03  0.7818608E-02  0.9738126E-01
         -2   -1    0    0    0  501 -0.00000000000E+00  0.00000000000E+00  0.56087768931E+03  0.56087768932E+03  0.25500000000E-02 0.  1.
          2   -1    0    0  501    0  0.00000000000E+00 -0.00000000000E+00 -0.89272413427E+03  0.89272413427E+03  0.25500000000E-02 0. -1.
    8880022    1    1    2    0    0  0.58995152260E+03  0.31904855237E+03 -0.33619857982E+03  0.76567350474E+03  0.15294330000E+03 0.  0.
    8880022    1    1    2    0    0 -0.58995152260E+03 -0.31904855237E+03  0.43521348609E+01  0.68792831885E+03  0.15294330000E+03 0.  0.
<mgrwt>
<rscale>  0 0.68791455E+03</rscale>
<asrwt>0</asrwt>
<pdfrwt beam="1">  1        2 0.13734217E+00 0.68791455E+03</pdfrwt>
<pdfrwt beam="2">  1       -2 0.86288875E-01 0.68791455E+03</pdfrwt>
<totfact> 0.35244044E+01</totfact>
</mgrwt>
</event>
<event>
 4    1  0.1701380E-008  0.4483995E+03  0.7818608E-02  0.1028200E+00
          2   -1    0    0  501    0  0.00000000000E+00  0.00000000000E+00  0.27009118426E+04  0.27009118426E+04  0.25500000000E-02 0. -1.
         -2   -1    0    0    0  501 -0.00000000000E+00 -0.00000000000E+00 -0.12842061898E+04  0.12842061898E+04  0.25500000000E-02 0.  1.
    8880022    1    1    2    0    0  0.60574376846E+01 -0.42146617568E+03 -0.12255921914E+04  0.13050434102E+04  0.15294330000E+03 0.  1.
    8880022    1    1    2    0    0 -0.60574376846E+01  0.42146617568E+03  0.26422978443E+04  0.26800746222E+04  0.15294330000E+03 0.  0.
<mgrwt>
<rscale>  0 0.44839947E+03</rscale>
<asrwt>0</asrwt>
<pdfrwt beam="1">  1        2 0.41552489E+00 0.44839947E+03</pdfrwt>
<pdfrwt beam="2">  1       -2 0.19757019E+00 0.44839947E+03</pdfrwt>
<totfact> 0.42878501E-01</totfact>
</mgrwt>
</event>
<event>
 4    1  0.1701380E-008  0.2801691E+03  0.7818608E-02  0.1095597E+00
         -2   -1    0    0    0  501 -0.00000000000E+00  0.00000000000E+00  0.20767936498E+03  0.20767936500E+03  0.25500000000E-02 0.  1.
          2   -1    0    0  501    0  0.00000000000E+00 -0.00000000000E+00 -0.19000935710E+04  0.19000935710E+04  0.25500000000E-02 0. -1.
    8880022    1    1    2    0    0  0.14034148142E+03  0.18816833586E+03  0.97055396706E+02  0.29650372185E+03  0.15294330000E+03 0.  0.
    8880022    1    1    2    0    0 -0.14034148142E+03 -0.18816833586E+03 -0.17894696027E+04  0.18112692141E+04  0.15294330000E+03 0.  0.
<mgrwt>
<rscale>  0 0.28016907E+03</rscale>
<asrwt>0</asrwt>
<pdfrwt beam="1">  1        2 0.29232208E+00 0.28016907E+03</pdfrwt>
<pdfrwt beam="2">  1       -2 0.31950673E-01 0.28016907E+03</pdfrwt>
<totfact> 0.76999463E+01</totfact>
</mgrwt>
</event>
<event>
 4    1  0.1701380E-008  0.1091121E+04  0.7818608E-02  0.9213889E-01
         -2   -1    0    0    0  501 -0.00000000000E+00  0.00000000000E+00  0.57309217018E+03  0.57309217019E+03  0.25500000000E-02 0.  1.
          2   -1    0    0  501    0  0.00000000000E+00 -0.00000000000E+00 -0.37986983410E+04  0.37986983410E+04  0.25500000000E-02 0. -1.
    8880022    1    1    2    0    0 -0.73784910969E+03  0.78913396220E+03 -0.30842317258E+04  0.32715486716E+04  0.15294330000E+03 0.  0.
    8880022    1    1    2    0    0  0.73784910969E+03 -0.78913396220E+03 -0.14137444503E+03  0.11002418396E+04  0.15294330000E+03 0.  0.
<mgrwt>
<rscale>  0 0.10911212E+04</rscale>
<asrwt>0</asrwt>
<pdfrwt beam="1">  1        2 0.58441511E+00 0.10911212E+04</pdfrwt>
<pdfrwt beam="2">  1       -2 0.88168028E-01 0.10911212E+04</pdfrwt>
<totfact> 0.56052511E-01</totfact>
</mgrwt>
</event>
<event>
 4    1  0.1701380E-008  0.1051892E+04  0.7818608E-02  0.9253393E-01
         -2   -1    0    0    0  501 -0.00000000000E+00  0.00000000000E+00  0.15400346321E+04  0.15400346321E+04  0.25500000000E-02 0.  1.
          2   -1    0    0  501    0  0.00000000000E+00 -0.00000000000E+00 -0.13409143175E+04  0.13409143175E+04  0.25500000000E-02 0. -1.
    8880022    1    1    2    0    0 -0.57668063632E+03  0.86632766475E+03  0.10809774061E+04  0.15083063298E+04  0.15294330000E+03 0.  0.
    8880022    1    1    2    0    0  0.57668063632E+03 -0.86632766475E+03 -0.88185709146E+03  0.13726426198E+04  0.15294330000E+03 0.  0.
<mgrwt>
<rscale>  0 0.10518915E+04</rscale>
<asrwt>0</asrwt>
<pdfrwt beam="1">  1        2 0.20629451E+00 0.10518915E+04</pdfrwt>
<pdfrwt beam="2">  1       -2 0.23692840E+00 0.10518915E+04</pdfrwt>
<totfact> 0.11978798E+00</totfact>
</mgrwt>
</event>
<event>
 4    1  0.1701380E-008  0.1279151E+04  0.7818608E-02  0.9046264E-01
          2   -1    0    0  501    0  0.00000000000E+00  0.00000000000E+00  0.18766881595E+04  0.18766881595E+04  0.25500000000E-02 0. -1.
         -2   -1    0    0    0  501 -0.00000000000E+00 -0.00000000000E+00 -0.92561074719E+03  0.92561074719E+03  0.25500000000E-02 0.  1.
    8880022    1    1    2    0    0 -0.85575495828E+03  0.93836013863E+03  0.81315426269E+03  0.15157334219E+04  0.15294330000E+03 0.  0.
    8880022    1    1    2    0    0  0.85575495828E+03 -0.93836013863E+03  0.13792314963E+03  0.12865654848E+04  0.15294330000E+03 0.  0.
<mgrwt>
<rscale>  0 0.12791513E+04</rscale>
<asrwt>0</asrwt>
<pdfrwt beam="1">  1        2 0.28872125E+00 0.12791513E+04</pdfrwt>
<pdfrwt beam="2">  1       -2 0.14240165E+00 0.12791513E+04</pdfrwt>
<totfact> 0.25948946E+00</totfact>
</mgrwt>
</event>
<event>
 4    1  0.1701380E-008  0.5208716E+03  0.7818608E-02  0.1008470E+00
         -2   -1    0    0    0  501 -0.00000000000E+00  0.00000000000E+00  0.39090517761E+03  0.39090517762E+03  0.25500000000E-02 0.  1.
          2   -1    0    0  501    0  0.00000000000E+00 -0.00000000000E+00 -0.13923217142E+04  0.13923217142E+04  0.25500000000E-02 0. -1.
    8880022    1    1    2    0    0  0.43675088819E+03 -0.23909040102E+03  0.13071336238E+03  0.53702252682E+03  0.15294330000E+03 0.  1.
    8880022    1    1    2    0    0 -0.43675088819E+03  0.23909040102E+03 -0.11321298990E+04  0.12462043650E+04  0.15294330000E+03 0.  0.
<mgrwt>
<rscale>  0 0.52087159E+03</rscale>
<asrwt>0</asrwt>
<pdfrwt beam="1">  1        2 0.21420334E+00 0.52087159E+03</pdfrwt>
<pdfrwt beam="2">  1       -2 0.60139259E-01 0.52087159E+03</pdfrwt>
<totfact> 0.39600543E+01</totfact>
</mgrwt>
</event>
<event>
 4    1  0.1701380E-008  0.4784463E+03  0.7818608E-02  0.1019563E+00
          2   -1    0    0  501    0  0.00000000000E+00  0.00000000000E+00  0.11423356146E+04  0.11423356146E+04  0.25500000000E-02 0. -1.
         -2   -1    0    0    0  501 -0.00000000000E+00 -0.00000000000E+00 -0.27546874508E+04  0.27546874508E+04  0.25500000000E-02 0.  1.
    8880022    1    1    2    0    0 -0.26546371856E+03 -0.36748908453E+03  0.10701258243E+04  0.11722116472E+04  0.15294330000E+03 0.  0.
    8880022    1    1    2    0    0  0.26546371856E+03  0.36748908453E+03 -0.26824776604E+04  0.27248114182E+04  0.15294330000E+03 0.  0.
<mgrwt>
<rscale>  0 0.47844630E+03</rscale>
<asrwt>0</asrwt>
<pdfrwt beam="1">  1        2 0.17574394E+00 0.47844630E+03</pdfrwt>
<pdfrwt beam="2">  1       -2 0.42379807E+00 0.47844630E+03</pdfrwt>
<totfact> 0.12415908E-01</totfact>
</mgrwt>
</event>
<event>
 4    1  0.1701380E-008  0.7599548E+03  0.7818608E-02  0.9619861E-01
         -2   -1    0    0    0  501 -0.00000000000E+00  0.00000000000E+00  0.61359759161E+03  0.61359759161E+03  0.25500000000E-02 0.  1.
          2   -1    0    0  501    0  0.00000000000E+00 -0.00000000000E+00 -0.16997924266E+04  0.16997924266E+04  0.25500000000E-02 0. -1.
    8880022    1    1    2    0    0 -0.50673841985E+03  0.54530345663E+03 -0.13158117540E+04  0.15195038371E+04  0.15294330000E+03 0.  0.
    8880022    1    1    2    0    0  0.50673841985E+03 -0.54530345663E+03  0.22961691906E+03  0.79388618107E+03  0.15294330000E+03 0.  0.
<mgrwt>
<rscale>  0 0.75995483E+03</rscale>
<asrwt>0</asrwt>
<pdfrwt beam="1">  1        2 0.26150652E+00 0.75995483E+03</pdfrwt>
<pdfrwt beam="2">  1       -2 0.94399630E-01 0.75995483E+03</pdfrwt>
<totfact> 0.95314303E+00</totfact>
</mgrwt>
</event>
<event>
 4    1  0.1701380E-008  0.1886611E+04  0.7818608E-02  0.8661550E-01
          2   -1    0    0  501    0  0.00000000000E+00  0.00000000000E+00  0.21019713992E+04  0.21019713992E+04  0.25500000000E-02 0. -1.
         -2   -1    0    0    0  501 -0.00000000000E+00 -0.00000000000E+00 -0.18125442236E+04  0.18125442236E+04  0.25500000000E-02 0.  1.
    8880022    1    1    2    0    0  0.68342090868E+03  0.17518119324E+04  0.64670247259E+03  0.19943733166E+04  0.15294330000E+03 0.  0.
    8880022    1    1    2    0    0 -0.68342090868E+03 -0.17518119324E+04 -0.35727529698E+03  0.19201423062E+04  0.15294330000E+03 0.  0.
<mgrwt>
<rscale>  0 0.18866109E+04</rscale>
<asrwt>0</asrwt>
<pdfrwt beam="1">  1        2 0.32338021E+00 0.18866109E+04</pdfrwt>
<pdfrwt beam="2">  1       -2 0.27885296E+00 0.18866109E+04</pdfrwt>
<totfact> 0.22581300E-01</totfact>
</mgrwt>
</event>
<event>
 4    1  0.1701380E-008  0.4870916E+03  0.7818608E-02  0.1017204E+00
          2   -1    0    0  501    0  0.00000000000E+00  0.00000000000E+00  0.59242302023E+03  0.59242302024E+03  0.25500000000E-02 0. -1.
         -2   -1    0    0    0  501 -0.00000000000E+00 -0.00000000000E+00 -0.17987881706E+04  0.17987881706E+04  0.25500000000E-02 0.  1.
    8880022    1    1    2    0    0  0.27172805211E+03 -0.37420635441E+03 -0.16573222668E+04  0.17274186751E+04  0.15294330000E+03 0.  1.
    8880022    1    1    2    0    0 -0.27172805211E+03  0.37420635441E+03  0.45095711648E+03  0.66379251570E+03  0.15294330000E+03 0.  0.
<mgrwt>
<rscale>  0 0.48709156E+03</rscale>
<asrwt>0</asrwt>
<pdfrwt beam="1">  1        2 0.91142004E-01 0.48709156E+03</pdfrwt>
<pdfrwt beam="2">  1       -2 0.27673664E+00 0.48709156E+03</pdfrwt>
<totfact> 0.24198463E+00</totfact>
</mgrwt>
</event>
<event>
 4    1  0.1701380E-008  0.1801110E+04  0.7818608E-02  0.8705709E-01
         -2   -1    0    0    0  501 -0.00000000000E+00  0.00000000000E+00  0.86309671341E+03  0.86309671341E+03  0.25500000000E-02 0.  1.
          2   -1    0    0  501    0  0.00000000000E+00 -0.00000000000E+00 -0.49226633958E+04  0.49226633958E+04  0.25500000000E-02 0. -1.
    8880022    1    1    2    0    0 -0.13737245469E+03  0.17893389981E+04 -0.34365659005E+04  0.38799461444E+04  0.15294330000E+03 0.  0.
    8880022    1    1    2    0    0  0.13737245469E+03 -0.17893389981E+04 -0.62300078190E+03  0.19058139649E+04  0.15294330000E+03 0.  0.
<mgrwt>
<rscale>  0 0.18011099E+04</rscale>
<asrwt>0</asrwt>
<pdfrwt beam="1">  1        2 0.75733281E+00 0.18011099E+04</pdfrwt>
<pdfrwt beam="2">  1       -2 0.13278411E+00 0.18011099E+04</pdfrwt>
<totfact> 0.16586609E-02</totfact>
</mgrwt>
</event>
<event>
 4    1  0.1701380E-008  0.3884385E+03  0.7818608E-02  0.1047858E+00
          2   -1    0    0  501    0  0.00000000000E+00  0.00000000000E+00  0.14550818658E+04  0.14550818658E+04  0.25500000000E-02 0. -1.
         -2   -1    0    0    0  501 -0.00000000000E+00 -0.00000000000E+00 -0.21489391384E+03  0.21489391386E+03  0.25500000000E-02 0.  1.
    8880022    1    1    2    0    0 -0.19054408992E+03  0.30196979948E+03  0.19447783422E+02  0.38892503043E+03  0.15294330000E+03 0. -1.
    8880022    1    1    2    0    0  0.19054408992E+03 -0.30196979948E+03  0.12207401686E+04  0.12810507493E+04  0.15294330000E+03 0.  0.
<mgrwt>
<rscale>  0 0.38843849E+03</rscale>
<asrwt>0</asrwt>
<pdfrwt beam="1">  1        2 0.22385874E+00 0.38843849E+03</pdfrwt>
<pdfrwt beam="2">  1       -2 0.33060603E-01 0.38843849E+03</pdfrwt>
<totfact> 0.12190634E+02</totfact>
</mgrwt>
</event>
<event>
 4    1  0.1701380E-008  0.2391093E+03  0.7818608E-02  0.1120388E+00
          2   -1    0    0  501    0  0.00000000000E+00  0.00000000000E+00  0.11684404527E+04  0.11684404527E+04  0.25500000000E-02 0. -1.
         -2   -1    0    0    0  501 -0.00000000000E+00 -0.00000000000E+00 -0.42370304396E+03  0.42370304396E+03  0.25500000000E-02 0.  1.
    8880022    1    1    2    0    0  0.58039756398E+02  0.17439322434E+03  0.11210635838E+04  0.11462795566E+04  0.15294330000E+03 0.  0.
    8880022    1    1    2    0    0 -0.58039756398E+02 -0.17439322434E+03 -0.37632617503E+03  0.44586394006E+03  0.15294330000E+03 0.  1.
<mgrwt>
<rscale>  0 0.23910931E+03</rscale>
<asrwt>0</asrwt>
<pdfrwt beam="1">  1        2 0.17976007E+00 0.23910931E+03</pdfrwt>
<pdfrwt beam="2">  1       -2 0.65185084E-01 0.23910931E+03</pdfrwt>
<totfact> 0.47433827E+01</totfact>
</mgrwt>
</event>
<event>
 4    1  0.1701380E-008  0.1065236E+04  0.7818608E-02  0.9239754E-01
          2   -1    0    0  501    0  0.00000000000E+00  0.00000000000E+00  0.16846048955E+04  0.16846048955E+04  0.25500000000E-02 0. -1.
         -2   -1    0    0    0  501 -0.00000000000E+00 -0.00000000000E+00 -0.80176039751E+03  0.80176039752E+03  0.25500000000E-02 0.  1.
    8880022    1    1    2    0    0  0.58859707609E+03 -0.87457951873E+03  0.93848594154E+03  0.14196772056E+04  0.15294330000E+03 0.  0.
    8880022    1    1    2    0    0 -0.58859707609E+03  0.87457951873E+03 -0.55641443571E+02  0.10666880874E+04  0.15294330000E+03 0.  0.
<mgrwt>
<rscale>  0 0.10652359E+04</rscale>
<asrwt>0</asrwt>
<pdfrwt beam="1">  1        2 0.25916998E+00 0.10652359E+04</pdfrwt>
<pdfrwt beam="2">  1       -2 0.12334775E+00 0.10652359E+04</pdfrwt>
<totfact> 0.48995423E+00</totfact>
</mgrwt>
</event>
<event>
 4    1  0.1701380E-008  0.7142879E+03  0.7818608E-02  0.9693105E-01
         -2   -1    0    0    0  501 -0.00000000000E+00  0.00000000000E+00  0.45394889182E+03  0.45394889183E+03  0.25500000000E-02 0.  1.
          2   -1    0    0  501    0  0.00000000000E+00 -0.00000000000E+00 -0.22460391440E+04  0.22460391440E+04  0.25500000000E-02 0. -1.
    8880022    1    1    2    0    0  0.21982955490E+03 -0.66218620385E+03  0.58157332147E+02  0.71665160997E+03  0.15294330000E+03 0.  0.
    8880022    1    1    2    0    0 -0.21982955490E+03  0.66218620385E+03 -0.18502475843E+04  0.19833364258E+04  0.15294330000E+03 0.  0.
<mgrwt>
<rscale>  0 0.71428794E+03</rscale>
<asrwt>0</asrwt>
<pdfrwt beam="1">  1        2 0.34554448E+00 0.71428794E+03</pdfrwt>
<pdfrwt beam="2">  1       -2 0.69838292E-01 0.71428794E+03</pdfrwt>
<totfact> 0.95223440E+00</totfact>
</mgrwt>
</event>
<event>
 4    1  0.1701380E-008  0.7130144E+03  0.7818608E-02  0.9695231E-01
         -2   -1    0    0    0  501 -0.00000000000E+00  0.00000000000E+00  0.29894044205E+03  0.29894044206E+03  0.25500000000E-02 0.  1.
          2   -1    0    0  501    0  0.00000000000E+00 -0.00000000000E+00 -0.23472990808E+04  0.23472990808E+04  0.25500000000E-02 0. -1.
    8880022    1    1    2    0    0  0.40519305907E+03  0.56640657435E+03 -0.32970961733E+03  0.78555579519E+03  0.15294330000E+03 0.  0.
    8880022    1    1    2    0    0 -0.40519305907E+03 -0.56640657435E+03 -0.17186490214E+04  0.18606837276E+04  0.15294330000E+03 0.  0.
<mgrwt>
<rscale>  0 0.71301436E+03</rscale>
<asrwt>0</asrwt>
<pdfrwt beam="1">  1        2 0.36112292E+00 0.71301436E+03</pdfrwt>
<pdfrwt beam="2">  1       -2 0.45990839E-01 0.71301436E+03</pdfrwt>
<totfact> 0.20017274E+01</totfact>
</mgrwt>
</event>
<event>
 4    1  0.1701380E-008  0.5457345E+03  0.7818608E-02  0.1002486E+00
         -2   -1    0    0    0  501 -0.00000000000E+00  0.00000000000E+00  0.35141447468E+03  0.35141447469E+03  0.25500000000E-02 0.  1.
          2   -1    0    0  501    0  0.00000000000E+00 -0.00000000000E+00 -0.18729915963E+04  0.18729915963E+04  0.25500000000E-02 0. -1.
    8880022    1    1    2    0    0  0.21103686902E+03  0.47947671879E+03 -0.15837524641E+04  0.16751411894E+04  0.15294330000E+03 0.  0.
    8880022    1    1    2    0    0 -0.21103686902E+03 -0.47947671879E+03  0.62175342445E+02  0.54926488161E+03  0.15294330000E+03 0.  0.
<mgrwt>
<rscale>  0 0.54573449E+03</rscale>
<asrwt>0</asrwt>
<pdfrwt beam="1">  1        2 0.28815255E+00 0.54573449E+03</pdfrwt>
<pdfrwt beam="2">  1       -2 0.54063766E-01 0.54573449E+03</pdfrwt>
<totfact> 0.26919802E+01</totfact>
</mgrwt>
</event>
<event>
 4    1  0.1701380E-008  0.2657075E+03  0.7818608E-02  0.1103762E+00
         -2   -1    0    0    0  501 -0.00000000000E+00  0.00000000000E+00  0.44191183380E+02  0.44191183454E+02  0.25500000000E-02 0.  1.
          2   -1    0    0  501    0  0.00000000000E+00 -0.00000000000E+00 -0.34456955702E+04  0.34456955702E+04  0.25500000000E-02 0. -1.
    8880022    1    1    2    0    0  0.66497338333E+02  0.20685002643E+03 -0.42283304701E+03  0.49938789342E+03  0.15294330000E+03 0.  0.
    8880022    1    1    2    0    0 -0.66497338333E+02 -0.20685002643E+03 -0.29786713399E+04  0.29904988603E+04  0.15294330000E+03 0.  0.
<mgrwt>
<rscale>  0 0.26570751E+03</rscale>
<asrwt>0</asrwt>
<pdfrwt beam="1">  1        2 0.53010680E+00 0.26570751E+03</pdfrwt>
<pdfrwt beam="2">  1       -2 0.67986463E-02 0.26570751E+03</pdfrwt>
<totfact> 0.13470959E+02</totfact>
</mgrwt>
</event>
<event>
 4    1  0.1701380E-008  0.7322344E+03  0.7818608E-02  0.9663641E-01
          2   -1    0    0  501    0  0.00000000000E+00  0.00000000000E+00  0.92544444836E+03  0.92544444836E+03  0.25500000000E-02 0. -1.
         -2   -1    0    0    0  501 -0.00000000000E+00 -0.00000000000E+00 -0.68265619237E+03  0.68265619238E+03  0.25500000000E-02 0.  1.
    8880022    1    1    2    0    0  0.22388793476E+03 -0.68018365598E+03 -0.19137245603E+03  0.75682936196E+03  0.15294330000E+03 0.  0.
    8880022    1    1    2    0    0 -0.22388793476E+03  0.68018365598E+03  0.43416071201E+03  0.85127127877E+03  0.15294330000E+03 0.  0.
<mgrwt>
<rscale>  0 0.73223443E+03</rscale>
<asrwt>0</asrwt>
<pdfrwt beam="1">  1        2 0.14237607E+00 0.73223443E+03</pdfrwt>
<pdfrwt beam="2">  1       -2 0.10502403E+00 0.73223443E+03</pdfrwt>
<totfact> 0.21071973E+01</totfact>
</mgrwt>
</event>
<event>
 4    1  0.1701380E-008  0.4219416E+03  0.7818608E-02  0.1036436E+00
         -2   -1    0    0    0  501 -0.00000000000E+00  0.00000000000E+00  0.27971229793E+03  0.27971229795E+03  0.25500000000E-02 0.  1.
          2   -1    0    0  501    0  0.00000000000E+00 -0.00000000000E+00 -0.15002512961E+04  0.15002512961E+04  0.25500000000E-02 0. -1.
    8880022    1    1    2    0    0 -0.19176547639E+03 -0.34332058731E+03 -0.12855674827E+04  0.13530404388E+04  0.15294330000E+03 0.  0.
    8880022    1    1    2    0    0  0.19176547639E+03  0.34332058731E+03  0.65028484540E+02  0.42692315518E+03  0.15294330000E+03 0.  1.
<mgrwt>
<rscale>  0 0.42194156E+03</rscale>
<asrwt>0</asrwt>
<pdfrwt beam="1">  1        2 0.23080789E+00 0.42194156E+03</pdfrwt>
<pdfrwt beam="2">  1       -2 0.43032662E-01 0.42194156E+03</pdfrwt>
<totfact> 0.69196945E+01</totfact>
</mgrwt>
</event>
<event>
 4    1  0.1701380E-008  0.1464589E+04  0.7818608E-02  0.8908349E-01
         -2   -1    0    0    0  501 -0.00000000000E+00  0.00000000000E+00  0.11827419362E+04  0.11827419362E+04  0.25500000000E-02 0.  1.
          2   -1    0    0  501    0  0.00000000000E+00 -0.00000000000E+00 -0.24174193423E+04  0.24174193423E+04  0.25500000000E-02 0. -1.
    8880022    1    1    2    0    0 -0.75394733770E+03 -0.12462709963E+04  0.28230350128E+03  0.14915478216E+04  0.15294330000E+03 0.  0.
    8880022    1    1    2    0    0  0.75394733770E+03  0.12462709963E+04 -0.15169809074E+04  0.21086134569E+04  0.15294330000E+03 0.  0.
<mgrwt>
<rscale>  0 0.14645886E+04</rscale>
<asrwt>0</asrwt>
<pdfrwt beam="1">  1        2 0.37191067E+00 0.14645886E+04</pdfrwt>
<pdfrwt beam="2">  1       -2 0.18196030E+00 0.14645886E+04</pdfrwt>
<totfact> 0.64497813E-01</totfact>
</mgrwt>
</event>
<event>
 4    1  0.1701380E-008  0.3462249E+03  0.7818608E-02  0.1064175E+00
         -2   -1    0    0    0  501 -0.00000000000E+00  0.00000000000E+00  0.10003367304E+03  0.10003367307E+03  0.25500000000E-02 0.  1.
          2   -1    0    0  501    0  0.00000000000E+00 -0.00000000000E+00 -0.46244239587E+04  0.46244239587E+04  0.25500000000E-02 0. -1.
    8880022    1    1    2    0    0 -0.15614736315E+03 -0.26851075672E+03 -0.22893083904E+03  0.41506747352E+03  0.15294330000E+03 0.  0.
    8880022    1    1    2    0    0  0.15614736315E+03  0.26851075672E+03 -0.42954594467E+04  0.43093901583E+04  0.15294330000E+03 0.  0.
<mgrwt>
<rscale>  0 0.34622490E+03</rscale>
<asrwt>0</asrwt>
<pdfrwt beam="1">  1        2 0.71144967E+00 0.34622490E+03</pdfrwt>
<pdfrwt beam="2">  1       -2 0.15389799E-01 0.34622490E+03</pdfrwt>
<totfact> 0.40681309E+00</totfact>
</mgrwt>
</event>
<event>
 4    1  0.1701380E-008  0.1079896E+04  0.7818608E-02  0.9225011E-01
         -2   -1    0    0    0  501 -0.00000000000E+00  0.00000000000E+00  0.49421154826E+03  0.49421154827E+03  0.25500000000E-02 0.  1.
          2   -1    0    0  501    0  0.00000000000E+00 -0.00000000000E+00 -0.29191714708E+04  0.29191714708E+04  0.25500000000E-02 0. -1.
    8880022    1    1    2    0    0 -0.47476258523E+03 -0.95780165546E+03 -0.46529759002E+03  0.11758728774E+04  0.15294330000E+03 0.  0.
    8880022    1    1    2    0    0  0.47476258523E+03  0.95780165546E+03 -0.19596623325E+04  0.22375101416E+04  0.15294330000E+03 0.  0.
<mgrwt>
<rscale>  0 0.10798959E+04</rscale>
<asrwt>0</asrwt>
<pdfrwt beam="1">  1        2 0.44910329E+00 0.10798959E+04</pdfrwt>
<pdfrwt beam="2">  1       -2 0.76032548E-01 0.10798959E+04</pdfrwt>
<totfact> 0.30530738E+00</totfact>
</mgrwt>
</event>
<event>
 4    1  0.1701380E-008  0.7335561E+03  0.7818608E-02  0.9661507E-01
          2   -1    0    0  501    0  0.00000000000E+00  0.00000000000E+00  0.81290165157E+03  0.81290165157E+03  0.25500000000E-02 0. -1.
         -2   -1    0    0    0  501 -0.00000000000E+00 -0.00000000000E+00 -0.71150938952E+03  0.71150938953E+03  0.25500000000E-02 0.  1.
    8880022    1    1    2    0    0  0.14644727126E+03 -0.70232900393E+03 -0.15045473344E+03  0.74882649048E+03  0.15294330000E+03 0.  0.
    8880022    1    1    2    0    0 -0.14644727126E+03  0.70232900393E+03  0.25184699548E+03  0.77558455062E+03  0.15294330000E+03 0.  0.
<mgrwt>
<rscale>  0 0.73355606E+03</rscale>
<asrwt>0</asrwt>
<pdfrwt beam="1">  1        2 0.12506179E+00 0.73355606E+03</pdfrwt>
<pdfrwt beam="2">  1       -2 0.10946298E+00 0.73355606E+03</pdfrwt>
<totfact> 0.22779066E+01</totfact>
</mgrwt>
</event>
<event>
 4    1  0.1701380E-008  0.7019430E+03  0.7818608E-02  0.9713915E-01
          2   -1    0    0  501    0  0.00000000000E+00  0.00000000000E+00  0.24178697532E+04  0.24178697532E+04  0.25500000000E-02 0. -1.
         -2   -1    0    0    0  501 -0.00000000000E+00 -0.00000000000E+00 -0.54006332008E+03  0.54006332008E+03  0.25500000000E-02 0.  1.
    8880022    1    1    2    0    0 -0.54785334012E+02 -0.68288429089E+03 -0.22813708666E+03  0.73808574765E+03  0.15294330000E+03 0.  0.
    8880022    1    1    2    0    0  0.54785334012E+02  0.68288429089E+03  0.21059435198E+04  0.22198473257E+04  0.15294330000E+03 0.  0.
<mgrwt>
<rscale>  0 0.70194305E+03</rscale>
<asrwt>0</asrwt>
<pdfrwt beam="1">  1        2 0.37197996E+00 0.70194305E+03</pdfrwt>
<pdfrwt beam="2">  1       -2 0.83086664E-01 0.70194305E+03</pdfrwt>
<totfact> 0.52056298E+00</totfact>
</mgrwt>
</event>
<event>
 4    1  0.1701380E-008  0.1543574E+04  0.7818608E-02  0.8855983E-01
         -2   -1    0    0    0  501 -0.00000000000E+00  0.00000000000E+00  0.19400756247E+04  0.19400756247E+04  0.25500000000E-02 0.  1.
          2   -1    0    0  501    0  0.00000000000E+00 -0.00000000000E+00 -0.15859658874E+04  0.15859658874E+04  0.25500000000E-02 0. -1.
    8880022    1    1    2    0    0 -0.11980423474E+04 -0.96120996414E+03  0.10145186123E+04  0.18471247194E+04  0.15294330000E+03 0.  0.
    8880022    1    1    2    0    0  0.11980423474E+04  0.96120996414E+03 -0.66040887509E+03  0.16789167927E+04  0.15294330000E+03 0.  0.
<mgrwt>
<rscale>  0 0.15435743E+04</rscale>
<asrwt>0</asrwt>
<pdfrwt beam="1">  1        2 0.24399475E+00 0.15435743E+04</pdfrwt>
<pdfrwt beam="2">  1       -2 0.29847317E+00 0.15435743E+04</pdfrwt>
<totfact> 0.34506272E-01</totfact>
</mgrwt>
</event>
<event>
 4    1  0.1701380E-008  0.3669616E+03  0.7818608E-02  0.1055861E+00
          2   -1    0    0  501    0  0.00000000000E+00  0.00000000000E+00  0.15830778050E+04  0.15830778050E+04  0.25500000000E-02 0. -1.
         -2   -1    0    0    0  501 -0.00000000000E+00 -0.00000000000E+00 -0.50671044386E+03  0.50671044386E+03  0.25500000000E-02 0.  1.
    8880022    1    1    2    0    0 -0.16409241242E+02  0.33316651210E+03  0.14913468658E+04  0.15358308225E+04  0.15294330000E+03 0.  0.
    8880022    1    1    2    0    0  0.16409241242E+02 -0.33316651210E+03 -0.41497950466E+03  0.55395742643E+03  0.15294330000E+03 0.  1.
<mgrwt>
<rscale>  0 0.36696163E+03</rscale>
<asrwt>0</asrwt>
<pdfrwt beam="1">  1        2 0.24355043E+00 0.36696163E+03</pdfrwt>
<pdfrwt beam="2">  1       -2 0.77955453E-01 0.36696163E+03</pdfrwt>
<totfact> 0.18360101E+01</totfact>
</mgrwt>
</event>
<event>
 4    1  0.1701380E-008  0.6594332E+03  0.7818608E-02  0.9789238E-01
         -2   -1    0    0    0  501 -0.00000000000E+00  0.00000000000E+00  0.92915463667E+03  0.92915463667E+03  0.25500000000E-02 0.  1.
          2   -1    0    0  501    0  0.00000000000E+00 -0.00000000000E+00 -0.19168887708E+04  0.19168887708E+04  0.25500000000E-02 0. -1.
    8880022    1    1    2    0    0 -0.43182711950E+03 -0.47432674153E+03  0.74330279572E+03  0.99365548255E+03  0.15294330000E+03 0.  0.
    8880022    1    1    2    0    0  0.43182711950E+03  0.47432674153E+03 -0.17310369298E+04  0.18523879249E+04  0.15294330000E+03 0.  0.
<mgrwt>
<rscale>  0 0.65943322E+03</rscale>
<asrwt>0</asrwt>
<pdfrwt beam="1">  1        2 0.29490596E+00 0.65943322E+03</pdfrwt>
<pdfrwt beam="2">  1       -2 0.14294687E+00 0.65943322E+03</pdfrwt>
<totfact> 0.26626821E+00</totfact>
</mgrwt>
</event>
<event>
 4    1  0.1701380E-008  0.7043691E+03  0.7818608E-02  0.9709789E-01
          2   -1    0    0  501    0  0.00000000000E+00  0.00000000000E+00  0.30511962715E+04  0.30511962715E+04  0.25500000000E-02 0. -1.
         -2   -1    0    0    0  501 -0.00000000000E+00 -0.00000000000E+00 -0.70714766504E+03  0.70714766504E+03  0.25500000000E-02 0.  1.
    8880022    1    1    2    0    0 -0.32319802839E+03  0.60686671611E+03  0.28210519647E+04  0.29076571354E+04  0.15294330000E+03 0.  0.
    8880022    1    1    2    0    0  0.32319802839E+03 -0.60686671611E+03 -0.47700335828E+03  0.85068680106E+03  0.15294330000E+03 0.  0.
<mgrwt>
<rscale>  0 0.70436910E+03</rscale>
<asrwt>0</asrwt>
<pdfrwt beam="1">  1        2 0.46941482E+00 0.70436910E+03</pdfrwt>
<pdfrwt beam="2">  1       -2 0.10879195E+00 0.70436910E+03</pdfrwt>
<totfact> 0.11794846E+00</totfact>
</mgrwt>
</event>
<event>
 4    1  0.1701380E-008  0.9212123E+03  0.7818608E-02  0.9399447E-01
         -2   -1    0    0    0  501 -0.00000000000E+00  0.00000000000E+00  0.11932070587E+04  0.11932070587E+04  0.25500000000E-02 0.  1.
          2   -1    0    0  501    0  0.00000000000E+00 -0.00000000000E+00 -0.24250049384E+04  0.24250049384E+04  0.25500000000E-02 0. -1.
    8880022    1    1    2    0    0 -0.43160640899E+03  0.79934750067E+03  0.90494943996E+03  0.12913425808E+04  0.15294330000E+03 0.  1.
    8880022    1    1    2    0    0  0.43160640899E+03 -0.79934750067E+03 -0.21367473197E+04  0.23268694162E+04  0.15294330000E+03 0.  0.
<mgrwt>
<rscale>  0 0.92121234E+03</rscale>
<asrwt>0</asrwt>
<pdfrwt beam="1">  1        2 0.37307768E+00 0.92121234E+03</pdfrwt>
<pdfrwt beam="2">  1       -2 0.18357032E+00 0.92121234E+03</pdfrwt>
<totfact> 0.67109286E-01</totfact>
</mgrwt>
</event>
<event>
 4    1  0.1701380E-008  0.1144858E+04  0.7818608E-02  0.9162541E-01
          2   -1    0    0  501    0  0.00000000000E+00  0.00000000000E+00  0.18703551463E+04  0.18703551463E+04  0.25500000000E-02 0. -1.
         -2   -1    0    0    0  501 -0.00000000000E+00 -0.00000000000E+00 -0.17807277289E+04  0.17807277289E+04  0.25500000000E-02 0.  1.
    8880022    1    1    2    0    0 -0.10352290212E+04  0.46433684445E+03  0.14664718024E+04  0.18604405478E+04  0.15294330000E+03 0.  0.
    8880022    1    1    2    0    0  0.10352290212E+04 -0.46433684445E+03 -0.13768443850E+04  0.17906423275E+04  0.15294330000E+03 0.  0.
<mgrwt>
<rscale>  0 0.11448578E+04</rscale>
<asrwt>0</asrwt>
<pdfrwt beam="1">  1        2 0.28774695E+00 0.11448578E+04</pdfrwt>
<pdfrwt beam="2">  1       -2 0.27395811E+00 0.11448578E+04</pdfrwt>
<totfact> 0.35500482E-01</totfact>
</mgrwt>
</event>
<event>
 4    1  0.1701380E-008  0.7783182E+03  0.7818608E-02  0.9591942E-01
          2   -1    0    0  501    0  0.00000000000E+00  0.00000000000E+00  0.11511566443E+04  0.11511566443E+04  0.25500000000E-02 0. -1.
         -2   -1    0    0    0  501 -0.00000000000E+00 -0.00000000000E+00 -0.88878703609E+03  0.88878703610E+03  0.25500000000E-02 0.  1.
    8880022    1    1    2    0    0  0.57699628700E+03 -0.49946255121E+03 -0.52025508614E+03  0.93618617963E+03  0.15294330000E+03 0.  0.
    8880022    1    1    2    0    0 -0.57699628700E+03  0.49946255121E+03  0.78262469432E+03  0.11037575007E+04  0.15294330000E+03 0.  0.
<mgrwt>
<rscale>  0 0.77831819E+03</rscale>
<asrwt>0</asrwt>
<pdfrwt beam="1">  1        2 0.17710102E+00 0.77831819E+03</pdfrwt>
<pdfrwt beam="2">  1       -2 0.13673647E+00 0.77831819E+03</pdfrwt>
<totfact> 0.78633303E+00</totfact>
</mgrwt>
</event>
<event>
 4    1  0.1701380E-008  0.4264029E+03  0.7818608E-02  0.1035002E+00
         -2   -1    0    0    0  501 -0.00000000000E+00  0.00000000000E+00  0.21810368236E+03  0.21810368238E+03  0.25500000000E-02 0.  1.
          2   -1    0    0  501    0  0.00000000000E+00 -0.00000000000E+00 -0.16580402701E+04  0.16580402701E+04  0.25500000000E-02 0. -1.
    8880022    1    1    2    0    0  0.17893283132E+03 -0.35554304315E+03 -0.58501151601E+02  0.43039731808E+03  0.15294330000E+03 0.  0.
    8880022    1    1    2    0    0 -0.17893283132E+03  0.35554304315E+03 -0.13814354361E+04  0.14457466344E+04  0.15294330000E+03 0.  0.
<mgrwt>
<rscale>  0 0.42640294E+03</rscale>
<asrwt>0</asrwt>
<pdfrwt beam="1">  1        2 0.25508311E+00 0.42640294E+03</pdfrwt>
<pdfrwt beam="2">  1       -2 0.33554414E-01 0.42640294E+03</pdfrwt>
<totfact> 0.91461641E+01</totfact>
</mgrwt>
</event>
<event>
 4    1  0.1701380E-008  0.5130182E+03  0.7818608E-02  0.1010436E+00
          2   -1    0    0  501    0  0.00000000000E+00  0.00000000000E+00  0.18815613722E+04  0.18815613722E+04  0.25500000000E-02 0. -1.
         -2   -1    0    0    0  501 -0.00000000000E+00 -0.00000000000E+00 -0.19520055079E+03  0.19520055080E+03  0.25500000000E-02 0.  1.
    8880022    1    1    2    0    0  0.22650252757E+03 -0.43415736213E+03  0.29037769071E+03  0.58949713007E+03  0.15294330000E+03 0.  0.
    8880022    1    1    2    0    0 -0.22650252757E+03  0.43415736213E+03  0.13959831307E+04  0.14872647930E+04  0.15294330000E+03 0.  0.
<mgrwt>
<rscale>  0 0.51301819E+03</rscale>
<asrwt>0</asrwt>
<pdfrwt beam="1">  1        2 0.28947098E+00 0.51301819E+03</pdfrwt>
<pdfrwt beam="2">  1       -2 0.30030854E-01 0.51301819E+03</pdfrwt>
<totfact> 0.84049656E+01</totfact>
</mgrwt>
</event>
<event>
 4    1  0.1701380E-008  0.1102082E+04  0.7818608E-02  0.9203165E-01
          2   -1    0    0  501    0  0.00000000000E+00  0.00000000000E+00  0.18541929323E+04  0.18541929323E+04  0.25500000000E-02 0. -1.
         -2   -1    0    0    0  501 -0.00000000000E+00 -0.00000000000E+00 -0.76666122664E+03  0.76666122665E+03  0.25500000000E-02 0.  1.
    8880022    1    1    2    0    0  0.21517790366E+03  0.10699958295E+04  0.10437659737E+04  0.15179037078E+04  0.15294330000E+03 0.  0.
    8880022    1    1    2    0    0 -0.21517790366E+03 -0.10699958295E+04  0.43765731986E+02  0.11029504511E+04  0.15294330000E+03 0.  0.
<mgrwt>
<rscale>  0 0.11020818E+04</rscale>
<asrwt>0</asrwt>
<pdfrwt beam="1">  1        2 0.28526045E+00 0.11020818E+04</pdfrwt>
<pdfrwt beam="2">  1       -2 0.11794788E+00 0.11020818E+04</pdfrwt>
<totfact> 0.43986657E+00</totfact>
</mgrwt>
</event>
<event>
 4    1  0.1701380E-008  0.1252840E+04  0.7818608E-02  0.9067823E-01
         -2   -1    0    0    0  501 -0.00000000000E+00  0.00000000000E+00  0.13618786261E+04  0.13618786261E+04  0.25500000000E-02 0.  1.
          2   -1    0    0  501    0  0.00000000000E+00 -0.00000000000E+00 -0.20040614157E+04  0.20040614157E+04  0.25500000000E-02 0. -1.
    8880022    1    1    2    0    0 -0.12261799993E+03  0.12374085874E+04 -0.14181278052E+04  0.18922719971E+04  0.15294330000E+03 0.  0.
    8880022    1    1    2    0    0  0.12261799993E+03 -0.12374085874E+04  0.77594501556E+03  0.14736680448E+04  0.15294330000E+03 0.  0.
<mgrwt>
<rscale>  0 0.12528395E+04</rscale>
<asrwt>0</asrwt>
<pdfrwt beam="1">  1        2 0.30831714E+00 0.12528395E+04</pdfrwt>
<pdfrwt beam="2">  1       -2 0.20951979E+00 0.12528395E+04</pdfrwt>
<totfact> 0.73968771E-01</totfact>
</mgrwt>
</event>
<event>
 4    1  0.1701380E-008  0.3754198E+03  0.7818608E-02  0.1052640E+00
         -2   -1    0    0    0  501 -0.00000000000E+00  0.00000000000E+00  0.34875174303E+03  0.34875174304E+03  0.25500000000E-02 0.  1.
          2   -1    0    0  501    0  0.00000000000E+00 -0.00000000000E+00 -0.11880281987E+04  0.11880281987E+04  0.25500000000E-02 0. -1.
    8880022    1    1    2    0    0  0.27335686008E+03 -0.20694051431E+03 -0.10438025957E+04  0.11092627557E+04  0.15294330000E+03 0.  0.
    8880022    1    1    2    0    0 -0.27335686008E+03  0.20694051431E+03  0.20452613999E+03  0.42751718606E+03  0.15294330000E+03 0.  0.
<mgrwt>
<rscale>  0 0.37541977E+03</rscale>
<asrwt>0</asrwt>
<pdfrwt beam="1">  1        2 0.18277357E+00 0.37541977E+03</pdfrwt>
<pdfrwt beam="2">  1       -2 0.53654115E-01 0.37541977E+03</pdfrwt>
<totfact> 0.67116114E+01</totfact>
</mgrwt>
</event>
<event>
 4    1  0.1701380E-008  0.8134486E+03  0.7818608E-02  0.9540752E-01
          2   -1    0    0  501    0  0.00000000000E+00  0.00000000000E+00  0.28407659850E+04  0.28407659851E+04  0.25500000000E-02 0. -1.
         -2   -1    0    0    0  501 -0.00000000000E+00 -0.00000000000E+00 -0.35935886650E+03  0.35935886650E+03  0.25500000000E-02 0.  1.
    8880022    1    1    2    0    0  0.78022266914E+03  0.17192888788E+03  0.29163742113E+03  0.86414755357E+03  0.15294330000E+03 0.  0.
    8880022    1    1    2    0    0 -0.78022266914E+03 -0.17192888788E+03  0.21897696974E+04  0.23359772980E+04  0.15294330000E+03 0.  0.
<mgrwt>
<rscale>  0 0.81344859E+03</rscale>
<asrwt>0</asrwt>
<pdfrwt beam="1">  1        2 0.43704091E+00 0.81344859E+03</pdfrwt>
<pdfrwt beam="2">  1       -2 0.55285981E-01 0.81344859E+03</pdfrwt>
<totfact> 0.70405629E+00</totfact>
</mgrwt>
</event>
<event>
 4    1  0.1701380E-008  0.6680534E+03  0.7818608E-02  0.9773481E-01
         -2   -1    0    0    0  501 -0.00000000000E+00  0.00000000000E+00  0.30244778132E+04  0.30244778132E+04  0.25500000000E-02 0.  1.
          2   -1    0    0  501    0  0.00000000000E+00 -0.00000000000E+00 -0.25035586782E+03  0.25035586783E+03  0.25500000000E-02 0. -1.
    8880022    1    1    2    0    0  0.45224544006E+02 -0.64873598818E+03  0.33784267666E+03  0.74862071100E+03  0.15294330000E+03 0.  0.
    8880022    1    1    2    0    0 -0.45224544006E+02  0.64873598818E+03  0.24362792687E+04  0.25262129700E+04  0.15294330000E+03 0.  0.
<mgrwt>
<rscale>  0 0.66805336E+03</rscale>
<asrwt>0</asrwt>
<pdfrwt beam="1">  1        2 0.38516284E-01 0.66805336E+03</pdfrwt>
<pdfrwt beam="2">  1       -2 0.46530432E+00 0.66805336E+03</pdfrwt>
<totfact> 0.39924693E-01</totfact>
</mgrwt>
</event>
<event>
 4    1  0.1701380E-008  0.1444872E+04  0.7818608E-02  0.8921964E-01
          2   -1    0    0  501    0  0.00000000000E+00  0.00000000000E+00  0.15101850263E+04  0.15101850263E+04  0.25500000000E-02 0. -1.
         -2   -1    0    0    0  501 -0.00000000000E+00 -0.00000000000E+00 -0.28504859299E+04  0.28504859299E+04  0.25500000000E-02 0.  1.
    8880022    1    1    2    0    0  0.62282031275E+03  0.12947421474E+04  0.89458935725E+03  0.16993952281E+04  0.15294330000E+03 0. -1.
    8880022    1    1    2    0    0 -0.62282031275E+03 -0.12947421474E+04 -0.22348902608E+04  0.26612757281E+04  0.15294330000E+03 0.  0.
<mgrwt>
<rscale>  0 0.14448716E+04</rscale>
<asrwt>0</asrwt>
<pdfrwt beam="1">  1        2 0.23233616E+00 0.14448716E+04</pdfrwt>
<pdfrwt beam="2">  1       -2 0.43853630E+00 0.14448716E+04</pdfrwt>
<totfact> 0.49101775E-02</totfact>
</mgrwt>
</event>
<event>
 4    1  0.1701380E-008  0.3607574E+03  0.7818608E-02  0.1058284E+00
          2   -1    0    0  501    0  0.00000000000E+00  0.00000000000E+00  0.14902390813E+04  0.14902390813E+04  0.25500000000E-02 0. -1.
         -2   -1    0    0    0  501 -0.00000000000E+00 -0.00000000000E+00 -0.18276244862E+03  0.18276244864E+03  0.25500000000E-02 0.  1.
    8880022    1    1    2    0    0 -0.23977579070E+02 -0.32585169554E+03  0.49280756133E+02  0.36410781058E+03  0.15294330000E+03 0.  0.
    8880022    1    1    2    0    0  0.23977579070E+02  0.32585169554E+03  0.12581958765E+04  0.13088937193E+04  0.15294330000E+03 0.  0.
<mgrwt>
<rscale>  0 0.36075740E+03</rscale>
<asrwt>0</asrwt>
<pdfrwt beam="1">  1        2 0.22926755E+00 0.36075740E+03</pdfrwt>
<pdfrwt beam="2">  1       -2 0.28117300E-01 0.36075740E+03</pdfrwt>
<totfact> 0.15784103E+02</totfact>
</mgrwt>
</event>
<event>
 4    1  0.1701380E-008  0.5234890E+03  0.7818608E-02  0.1007823E+00
          2   -1    0    0  501    0  0.00000000000E+00  0.00000000000E+00  0.13879133605E+04  0.13879133605E+04  0.25500000000E-02 0. -1.
         -2   -1    0    0    0  501 -0.00000000000E+00 -0.00000000000E+00 -0.19833755130E+03  0.19833755132E+03  0.25500000000E-02 0.  1.
    8880022    1    1    2    0    0  0.29931485054E+03 -0.40132246027E+03  0.54167266215E+03  0.75329278691E+03  0.15294330000E+03 0.  0.
    8880022    1    1    2    0    0 -0.29931485054E+03  0.40132246027E+03  0.64790314701E+03  0.83295812487E+03  0.15294330000E+03 0.  0.
<mgrwt>
<rscale>  0 0.52348902E+03</rscale>
<asrwt>0</asrwt>
<pdfrwt beam="1">  1        2 0.21352513E+00 0.52348902E+03</pdfrwt>
<pdfrwt beam="2">  1       -2 0.30513470E-01 0.52348902E+03</pdfrwt>
<totfact> 0.15134391E+02</totfact>
</mgrwt>
</event>
<event>
 4    1  0.1701380E-008  0.9169959E+03  0.7818608E-02  0.9404582E-01
          2   -1    0    0  501    0  0.00000000000E+00  0.00000000000E+00  0.25765365780E+04  0.25765365780E+04  0.25500000000E-02 0. -1.
         -2   -1    0    0    0  501 -0.00000000000E+00 -0.00000000000E+00 -0.60825742096E+03  0.60825742097E+03  0.25500000000E-02 0.  1.
    8880022    1    1    2    0    0  0.85151939351E+03 -0.30398122261E+03  0.20681969974E+04  0.22623705122E+04  0.15294330000E+03 0.  0.
    8880022    1    1    2    0    0 -0.85151939351E+03  0.30398122261E+03 -0.99917840346E+02  0.92242348683E+03  0.15294330000E+03 0.  0.
<mgrwt>
<rscale>  0 0.91699592E+03</rscale>
<asrwt>0</asrwt>
<pdfrwt beam="1">  1        2 0.39639025E+00 0.91699592E+03</pdfrwt>
<pdfrwt beam="2">  1       -2 0.93578063E-01 0.91699592E+03</pdfrwt>
<totfact> 0.31024861E+00</totfact>
</mgrwt>
</event>
<event>
 4    1  0.1701380E-008  0.1393321E+04  0.7818608E-02  0.8958667E-01
          2   -1    0    0  501    0  0.00000000000E+00  0.00000000000E+00  0.15295966596E+04  0.15295966596E+04  0.25500000000E-02 0. -1.
         -2   -1    0    0    0  501 -0.00000000000E+00 -0.00000000000E+00 -0.15355977142E+04  0.15355977142E+04  0.25500000000E-02 0.  1.
    8880022    1    1    2    0    0 -0.19130334187E+03 -0.13716251743E+04  0.63535866285E+03  0.15313474037E+04  0.15294330000E+03 0.  0.
    8880022    1    1    2    0    0  0.19130334187E+03  0.13716251743E+04 -0.64135971746E+03  0.15338469701E+04  0.15294330000E+03 0. -1.
<mgrwt>
<rscale>  0 0.13933213E+04</rscale>
<asrwt>0</asrwt>
<pdfrwt beam="1">  1        2 0.23532256E+00 0.13933213E+04</pdfrwt>
<pdfrwt beam="2">  1       -2 0.23624580E+00 0.13933213E+04</pdfrwt>
<totfact> 0.90733977E-01</totfact>
</mgrwt>
</event>
<event>
 4    1  0.1701380E-008  0.1871454E+03  0.7818608E-02  0.1161061E+00
          2   -1    0    0  501    0  0.00000000000E+00  0.00000000000E+00  0.22054948158E+04  0.22054948158E+04  0.25500000000E-02 0. -1.
         -2   -1    0    0    0  501 -0.00000000000E+00 -0.00000000000E+00 -0.24944749497E+02  0.24944749627E+02  0.25500000000E-02 0.  1.
    8880022    1    1    2    0    0  0.10765287001E+03  0.65279432868E+01  0.17625503538E+04  0.17724579423E+04  0.15294330000E+03 0. -1.
    8880022    1    1    2    0    0 -0.10765287001E+03 -0.65279432868E+01  0.41799971241E+03  0.45798162305E+03  0.15294330000E+03 0.  0.
<mgrwt>
<rscale>  0 0.18714542E+03</rscale>
<asrwt>0</asrwt>
<pdfrwt beam="1">  1        2 0.33930703E+00 0.18714542E+03</pdfrwt>
<pdfrwt beam="2">  1       -2 0.38376522E-02 0.18714542E+03</pdfrwt>
<totfact> 0.17060317E+03</totfact>
</mgrwt>
</event>
<event>
 4    1  0.1701380E-008  0.4892361E+03  0.7818608E-02  0.1016627E+00
         -2   -1    0    0    0  501 -0.00000000000E+00  0.00000000000E+00  0.10565002921E+04  0.10565002921E+04  0.25500000000E-02 0.  1.
          2   -1    0    0  501    0  0.00000000000E+00 -0.00000000000E+00 -0.14897306472E+04  0.14897306472E+04  0.25500000000E-02 0. -1.
    8880022    1    1    2    0    0  0.46445574539E+03 -0.15529430190E+02 -0.13889356672E+04  0.14725808105E+04  0.15294330000E+03 0.  0.
    8880022    1    1    2    0    0 -0.46445574539E+03  0.15529430190E+02  0.95570531209E+03  0.10736501289E+04  0.15294330000E+03 0.  1.
<mgrwt>
<rscale>  0 0.48923609E+03</rscale>
<asrwt>0</asrwt>
<pdfrwt beam="1">  1        2 0.22918933E+00 0.48923609E+03</pdfrwt>
<pdfrwt beam="2">  1       -2 0.16253851E+00 0.48923609E+03</pdfrwt>
<totfact> 0.33603030E+00</totfact>
</mgrwt>
</event>
<event>
 4    1  0.1701380E-008  0.9285431E+03  0.7818608E-02  0.9390588E-01
          2   -1    0    0  501    0  0.00000000000E+00  0.00000000000E+00  0.21318094899E+04  0.21318094899E+04  0.25500000000E-02 0. -1.
         -2   -1    0    0    0  501 -0.00000000000E+00 -0.00000000000E+00 -0.52601293910E+03  0.52601293911E+03  0.25500000000E-02 0.  1.
    8880022    1    1    2    0    0 -0.15637817615E+03  0.90241152529E+03  0.14417696522E+04  0.17149029354E+04  0.15294330000E+03 0.  0.
    8880022    1    1    2    0    0  0.15637817615E+03 -0.90241152529E+03  0.16402689865E+03  0.94291949361E+03  0.15294330000E+03 0.  0.
<mgrwt>
<rscale>  0 0.92854313E+03</rscale>
<asrwt>0</asrwt>
<pdfrwt beam="1">  1        2 0.32797069E+00 0.92854313E+03</pdfrwt>
<pdfrwt beam="2">  1       -2 0.80925067E-01 0.92854313E+03</pdfrwt>
<totfact> 0.76937982E+00</totfact>
</mgrwt>
</event>
<event>
 4    1  0.1701380E-008  0.6597813E+03  0.7818608E-02  0.9788596E-01
         -2   -1    0    0    0  501 -0.00000000000E+00  0.00000000000E+00  0.12611314464E+04  0.12611314464E+04  0.25500000000E-02 0.  1.
          2   -1    0    0  501    0  0.00000000000E+00 -0.00000000000E+00 -0.11903140762E+04  0.11903140762E+04  0.25500000000E-02 0. -1.
    8880022    1    1    2    0    0  0.58146246384E+03 -0.27170052321E+03 -0.99741331566E+03  0.11958865943E+04  0.15294330000E+03 0.  0.
    8880022    1    1    2    0    0 -0.58146246384E+03  0.27170052321E+03  0.10682306859E+04  0.12555589283E+04  0.15294330000E+03 0.  0.
<mgrwt>
<rscale>  0 0.65978135E+03</rscale>
<asrwt>0</asrwt>
<pdfrwt beam="1">  1        2 0.18312524E+00 0.65978135E+03</pdfrwt>
<pdfrwt beam="2">  1       -2 0.19402022E+00 0.65978135E+03</pdfrwt>
<totfact> 0.29132459E+00</totfact>
</mgrwt>
</event>
<event>
 4    1  0.1701380E-008  0.1313622E+04  0.7818608E-02  0.9018832E-01
          2   -1    0    0  501    0  0.00000000000E+00  0.00000000000E+00  0.22190518218E+04  0.22190518218E+04  0.25500000000E-02 0. -1.
         -2   -1    0    0    0  501 -0.00000000000E+00 -0.00000000000E+00 -0.11719982285E+04  0.11719982285E+04  0.25500000000E-02 0.  1.
    8880022    1    1    2    0    0 -0.12814476708E+04 -0.24515672065E+03  0.15070658363E+04  0.19992121045E+04  0.15294330000E+03 0.  0.
    8880022    1    1    2    0    0  0.12814476708E+04  0.24515672065E+03 -0.46001224298E+03  0.13918379458E+04  0.15294330000E+03 0.  0.
<mgrwt>
<rscale>  0 0.13136216E+04</rscale>
<asrwt>0</asrwt>
<pdfrwt beam="1">  1        2 0.34139258E+00 0.13136216E+04</pdfrwt>
<pdfrwt beam="2">  1       -2 0.18030742E+00 0.13136216E+04</pdfrwt>
<totfact> 0.87258776E-01</totfact>
</mgrwt>
</event>
<event>
 4    1  0.1701380E-008  0.4918377E+03  0.7818608E-02  0.1015932E+00
         -2   -1    0    0    0  501 -0.00000000000E+00  0.00000000000E+00  0.93794357811E+03  0.93794357812E+03  0.25500000000E-02 0.  1.
          2   -1    0    0  501    0  0.00000000000E+00 -0.00000000000E+00 -0.91580798020E+03  0.91580798020E+03  0.25500000000E-02 0. -1.
    8880022    1    1    2    0    0  0.49763174108E+02 -0.46479705279E+03  0.79666304201E+03  0.93625655100E+03  0.15294330000E+03 0.  0.
    8880022    1    1    2    0    0 -0.49763174108E+02  0.46479705279E+03 -0.77452744409E+03  0.91749500732E+03  0.15294330000E+03 0.  0.
<mgrwt>
<rscale>  0 0.49183770E+03</rscale>
<asrwt>0</asrwt>
<pdfrwt beam="1">  1        2 0.14089353E+00 0.49183770E+03</pdfrwt>
<pdfrwt beam="2">  1       -2 0.14429901E+00 0.49183770E+03</pdfrwt>
<totfact> 0.10024720E+01</totfact>
</mgrwt>
</event>
<event>
 4    1  0.1701380E-008  0.5248120E+03  0.7818608E-02  0.1007498E+00
         -2   -1    0    0    0  501 -0.00000000000E+00  0.00000000000E+00  0.96726484803E+03  0.96726484803E+03  0.25500000000E-02 0.  1.
          2   -1    0    0  501    0  0.00000000000E+00 -0.00000000000E+00 -0.84921937254E+03  0.84921937254E+03  0.25500000000E-02 0. -1.
    8880022    1    1    2    0    0 -0.43070617200E+03 -0.25793048309E+03  0.79950098520E+03  0.95636259811E+03  0.15294330000E+03 0.  0.
    8880022    1    1    2    0    0  0.43070617200E+03  0.25793048309E+03 -0.68145550971E+03  0.86012162247E+03  0.15294330000E+03 0. -1.
<mgrwt>
<rscale>  0 0.52481196E+03</rscale>
<asrwt>0</asrwt>
<pdfrwt beam="1">  1        2 0.13064913E+00 0.52481196E+03</pdfrwt>
<pdfrwt beam="2">  1       -2 0.14880998E+00 0.52481196E+03</pdfrwt>
<totfact> 0.10196534E+01</totfact>
</mgrwt>
</event>
<event>
 4    1  0.1701380E-008  0.3812229E+03  0.7818608E-02  0.1050483E+00
          2   -1    0    0  501    0  0.00000000000E+00  0.00000000000E+00  0.50418303849E+03  0.50418303849E+03  0.25500000000E-02 0. -1.
         -2   -1    0    0    0  501 -0.00000000000E+00 -0.00000000000E+00 -0.73968545675E+03  0.73968545676E+03  0.25500000000E-02 0.  1.
    8880022    1    1    2    0    0 -0.16201532158E+03 -0.30933843126E+03  0.36811718577E+03  0.52994447347E+03  0.15294330000E+03 0.  0.
    8880022    1    1    2    0    0  0.16201532158E+03  0.30933843126E+03 -0.60361960404E+03  0.71392402178E+03  0.15294330000E+03 0.  0.
<mgrwt>
<rscale>  0 0.38122288E+03</rscale>
<asrwt>0</asrwt>
<pdfrwt beam="1">  1        2 0.77566621E-01 0.38122288E+03</pdfrwt>
<pdfrwt beam="2">  1       -2 0.11379776E+00 0.38122288E+03</pdfrwt>
<totfact> 0.38729394E+01</totfact>
</mgrwt>
</event>
<event>
 4    1  0.1701380E-008  0.5207408E+03  0.7818608E-02  0.1008503E+00
         -2   -1    0    0    0  501 -0.00000000000E+00  0.00000000000E+00  0.24417498977E+03  0.24417498978E+03  0.25500000000E-02 0.  1.
          2   -1    0    0  501    0  0.00000000000E+00 -0.00000000000E+00 -0.12413969819E+04  0.12413969819E+04  0.25500000000E-02 0. -1.
    8880022    1    1    2    0    0 -0.25807968124E+02  0.49710489937E+03 -0.25746860706E+03  0.58091399436E+03  0.15294330000E+03 0.  0.
    8880022    1    1    2    0    0  0.25807968124E+02 -0.49710489937E+03 -0.73975338507E+03  0.90465797733E+03  0.15294330000E+03 0.  0.
<mgrwt>
<rscale>  0 0.52074080E+03</rscale>
<asrwt>0</asrwt>
<pdfrwt beam="1">  1        2 0.19098415E+00 0.52074080E+03</pdfrwt>
<pdfrwt beam="2">  1       -2 0.37565384E-01 0.52074080E+03</pdfrwt>
<totfact> 0.12396127E+02</totfact>
</mgrwt>
</event>
<event>
 4    1  0.1701380E-008  0.8573938E+03  0.7818608E-02  0.9480467E-01
         -2   -1    0    0    0  501 -0.00000000000E+00  0.00000000000E+00  0.55499305869E+03  0.55499305870E+03  0.25500000000E-02 0.  1.
          2   -1    0    0  501    0  0.00000000000E+00 -0.00000000000E+00 -0.14271160840E+04  0.14271160840E+04  0.25500000000E-02 0. -1.
    8880022    1    1    2    0    0  0.25833537652E+02  0.84324677144E+03 -0.70172933546E+03  0.11079477436E+04  0.15294330000E+03 0.  0.
    8880022    1    1    2    0    0 -0.25833537652E+02 -0.84324677144E+03 -0.17039368987E+03  0.87416139916E+03  0.15294330000E+03 0.  0.
<mgrwt>
<rscale>  0 0.85739381E+03</rscale>
<asrwt>0</asrwt>
<pdfrwt beam="1">  1        2 0.21955632E+00 0.85739381E+03</pdfrwt>
<pdfrwt beam="2">  1       -2 0.85383548E-01 0.85739381E+03</pdfrwt>
<totfact> 0.16824483E+01</totfact>
</mgrwt>
</event>
<event>
 4    1  0.1701380E-008  0.9301930E+03  0.7818608E-02  0.9388606E-01
         -2   -1    0    0    0  501 -0.00000000000E+00  0.00000000000E+00  0.96601675907E+03  0.96601675908E+03  0.25500000000E-02 0.  1.
          2   -1    0    0  501    0  0.00000000000E+00 -0.00000000000E+00 -0.23784842682E+04  0.23784842682E+04  0.25500000000E-02 0. -1.
    8880022    1    1    2    0    0 -0.21668306033E+03 -0.89158049967E+03  0.61412064863E+03  0.11146314010E+04  0.15294330000E+03 0.  0.
    8880022    1    1    2    0    0  0.21668306033E+03  0.89158049967E+03 -0.20265881578E+04  0.22298696263E+04  0.15294330000E+03 0.  0.
<mgrwt>
<rscale>  0 0.93019298E+03</rscale>
<asrwt>0</asrwt>
<pdfrwt beam="1">  1        2 0.36592065E+00 0.93019298E+03</pdfrwt>
<pdfrwt beam="2">  1       -2 0.14861796E+00 0.93019298E+03</pdfrwt>
<totfact> 0.12742657E+00</totfact>
</mgrwt>
</event>
<event>
 4    1  0.1701380E-008  0.7565862E+03  0.7818608E-02  0.9625074E-01
          2   -1    0    0  501    0  0.00000000000E+00  0.00000000000E+00  0.19389615811E+04  0.19389615811E+04  0.25500000000E-02 0. -1.
         -2   -1    0    0    0  501 -0.00000000000E+00 -0.00000000000E+00 -0.48555193490E+03  0.48555193491E+03  0.25500000000E-02 0.  1.
    8880022    1    1    2    0    0  0.66115324193E+03 -0.33452575773E+03  0.14856862101E+04  0.16672391130E+04  0.15294330000E+03 0.  0.
    8880022    1    1    2    0    0 -0.66115324193E+03  0.33452575773E+03 -0.32276563906E+02  0.75727440304E+03  0.15294330000E+03 0.  0.
<mgrwt>
<rscale>  0 0.75658624E+03</rscale>
<asrwt>0</asrwt>
<pdfrwt beam="1">  1        2 0.29830178E+00 0.75658624E+03</pdfrwt>
<pdfrwt beam="2">  1       -2 0.74700297E-01 0.75658624E+03</pdfrwt>
<totfact> 0.12019690E+01</totfact>
</mgrwt>
</event>
<event>
 4    1  0.1701380E-008  0.9278213E+03  0.7818608E-02  0.9391456E-01
         -2   -1    0    0    0  501 -0.00000000000E+00  0.00000000000E+00  0.84932442453E+03  0.84932442453E+03  0.25500000000E-02 0.  1.
          2   -1    0    0  501    0  0.00000000000E+00 -0.00000000000E+00 -0.19782934879E+04  0.19782934879E+04  0.25500000000E-02 0. -1.
    8880022    1    1    2    0    0 -0.81606992716E+03 -0.41411427129E+03  0.42280854417E+03  0.10196173173E+04  0.15294330000E+03 0.  0.
    8880022    1    1    2    0    0  0.81606992716E+03  0.41411427129E+03 -0.15517776076E+04  0.18080005952E+04  0.15294330000E+03 0.  0.
<mgrwt>
<rscale>  0 0.92782132E+03</rscale>
<asrwt>0</asrwt>
<pdfrwt beam="1">  1        2 0.30435284E+00 0.92782132E+03</pdfrwt>
<pdfrwt beam="2">  1       -2 0.13066530E+00 0.92782132E+03</pdfrwt>
<totfact> 0.29684035E+00</totfact>
</mgrwt>
</event>
<event>
 4    1  0.1701380E-008  0.8802362E+03  0.7818608E-02  0.9450630E-01
         -2   -1    0    0    0  501 -0.00000000000E+00  0.00000000000E+00  0.81340943129E+03  0.81340943129E+03  0.25500000000E-02 0.  1.
          2   -1    0    0  501    0  0.00000000000E+00 -0.00000000000E+00 -0.19932754409E+04  0.19932754409E+04  0.25500000000E-02 0. -1.
    8880022    1    1    2    0    0 -0.79809821499E+03  0.33832429062E+03  0.42408910055E+03  0.97707077769E+03  0.15294330000E+03 0.  0.
    8880022    1    1    2    0    0  0.79809821499E+03 -0.33832429062E+03 -0.16039551102E+04  0.18296140945E+04  0.15294330000E+03 0.  0.
<mgrwt>
<rscale>  0 0.88023618E+03</rscale>
<asrwt>0</asrwt>
<pdfrwt beam="1">  1        2 0.30665776E+00 0.88023618E+03</pdfrwt>
<pdfrwt beam="2">  1       -2 0.12513991E+00 0.88023618E+03</pdfrwt>
<totfact> 0.32709465E+00</totfact>
</mgrwt>
</event>
<event>
 4    1  0.1701380E-008  0.5987935E+03  0.7818608E-02  0.9907912E-01
         -2   -1    0    0    0  501 -0.00000000000E+00  0.00000000000E+00  0.55420765911E+03  0.55420765911E+03  0.25500000000E-02 0.  1.
          2   -1    0    0  501    0  0.00000000000E+00 -0.00000000000E+00 -0.15172850683E+04  0.15172850683E+04  0.25500000000E-02 0. -1.
    8880022    1    1    2    0    0  0.17593269396E+03  0.55155210726E+03  0.30289996321E+03  0.67104551303E+03  0.15294330000E+03 0.  0.
    8880022    1    1    2    0    0 -0.17593269396E+03 -0.55155210726E+03 -0.12659773724E+04  0.14004472144E+04  0.15294330000E+03 0.  0.
<mgrwt>
<rscale>  0 0.59879353E+03</rscale>
<asrwt>0</asrwt>
<pdfrwt beam="1">  1        2 0.23342847E+00 0.59879353E+03</pdfrwt>
<pdfrwt beam="2">  1       -2 0.85262717E-01 0.59879353E+03</pdfrwt>
<totfact> 0.15549064E+01</totfact>
</mgrwt>
</event>
<event>
 4    1  0.1701380E-008  0.1473914E+04  0.7818608E-02  0.8901987E-01
         -2   -1    0    0    0  501 -0.00000000000E+00  0.00000000000E+00  0.17385373210E+04  0.17385373210E+04  0.25500000000E-02 0.  1.
          2   -1    0    0  501    0  0.00000000000E+00 -0.00000000000E+00 -0.15484075533E+04  0.15484075533E+04  0.25500000000E-02 0. -1.
    8880022    1    1    2    0    0 -0.94461441049E+03 -0.11210421533E+04  0.81706554147E+03  0.16852357835E+04  0.15294330000E+03 0.  0.
    8880022    1    1    2    0    0  0.94461441049E+03  0.11210421533E+04 -0.62693577385E+03  0.16017090908E+04  0.15294330000E+03 0.  0.
<mgrwt>
<rscale>  0 0.14739144E+04</rscale>
<asrwt>0</asrwt>
<pdfrwt beam="1">  1        2 0.23821655E+00 0.14739144E+04</pdfrwt>
<pdfrwt beam="2">  1       -2 0.26746728E+00 0.14739144E+04</pdfrwt>
<totfact> 0.56430941E-01</totfact>
</mgrwt>
</event>
<event>
 4    1  0.1701380E-008  0.7850670E+03  0.7818608E-02  0.9581887E-01
          2   -1    0    0  501    0  0.00000000000E+00  0.00000000000E+00  0.36106793542E+04  0.36106793542E+04  0.25500000000E-02 0. -1.
         -2   -1    0    0    0  501 -0.00000000000E+00 -0.00000000000E+00 -0.31672542411E+03  0.31672542412E+03  0.25500000000E-02 0.  1.
    8880022    1    1    2    0    0  0.71375416985E+03  0.28895248443E+03  0.29803562336E+04  0.30820210066E+04  0.15294330000E+03 0.  0.
    8880022    1    1    2    0    0 -0.71375416985E+03 -0.28895248443E+03  0.31359769656E+03  0.84538377175E+03  0.15294330000E+03 0.  0.
<mgrwt>
<rscale>  0 0.78506701E+03</rscale>
<asrwt>0</asrwt>
<pdfrwt beam="1">  1        2 0.55548916E+00 0.78506701E+03</pdfrwt>
<pdfrwt beam="2">  1       -2 0.48726986E-01 0.78506701E+03</pdfrwt>
<totfact> 0.29288661E+00</totfact>
</mgrwt>
</event>
<event>
 4    1  0.1701380E-008  0.2502740E+04  0.7818608E-02  0.8402010E-01
          2   -1    0    0  501    0  0.00000000000E+00  0.00000000000E+00  0.38105190010E+04  0.38105190010E+04  0.25500000000E-02 0. -1.
         -2   -1    0    0    0  501 -0.00000000000E+00 -0.00000000000E+00 -0.16483247293E+04  0.16483247293E+04  0.25500000000E-02 0.  1.
    8880022    1    1    2    0    0  0.46339666129E+03  0.24547053727E+04  0.12242020457E+04  0.27861043114E+04  0.15294330000E+03 0.  0.
    8880022    1    1    2    0    0 -0.46339666129E+03 -0.24547053727E+04  0.93799222605E+03  0.26727394189E+04  0.15294330000E+03 0.  0.
<mgrwt>
<rscale>  0 0.25027398E+04</rscale>
<asrwt>0</asrwt>
<pdfrwt beam="1">  1        2 0.58623370E+00 0.25027398E+04</pdfrwt>
<pdfrwt beam="2">  1       -2 0.25358842E+00 0.25027398E+04</pdfrwt>
<totfact> 0.24877931E-02</totfact>
</mgrwt>
</event>
<event>
 4    1  0.1701380E-008  0.1282049E+04  0.7818608E-02  0.9043923E-01
         -2   -1    0    0    0  501 -0.00000000000E+00  0.00000000000E+00  0.42266247894E+04  0.42266247894E+04  0.25500000000E-02 0.  1.
          2   -1    0    0  501    0  0.00000000000E+00 -0.00000000000E+00 -0.61272666508E+03  0.61272666508E+03  0.25500000000E-02 0. -1.
    8880022    1    1    2    0    0  0.23209462638E+03 -0.12515550147E+04  0.34443797759E+03  0.13275115984E+04  0.15294330000E+03 0.  0.
    8880022    1    1    2    0    0 -0.23209462638E+03  0.12515550147E+04  0.32694601467E+04  0.35118398560E+04  0.15294330000E+03 0.  0.
<mgrwt>
<rscale>  0 0.12820490E+04</rscale>
<asrwt>0</asrwt>
<pdfrwt beam="1">  1        2 0.94265644E-01 0.12820490E+04</pdfrwt>
<pdfrwt beam="2">  1       -2 0.65024995E+00 0.12820490E+04</pdfrwt>
<totfact> 0.15431439E-02</totfact>
</mgrwt>
</event>
<event>
 4    1  0.1701380E-008  0.1034784E+04  0.7818608E-02  0.9271196E-01
          2   -1    0    0  501    0  0.00000000000E+00  0.00000000000E+00  0.17800851620E+04  0.17800851620E+04  0.25500000000E-02 0. -1.
         -2   -1    0    0    0  501 -0.00000000000E+00 -0.00000000000E+00 -0.74643552768E+03  0.74643552769E+03  0.25500000000E-02 0.  1.
    8880022    1    1    2    0    0 -0.63159587045E+03  0.80527861109E+03 -0.39765712303E+02  0.10355481398E+04  0.15294330000E+03 0.  0.
    8880022    1    1    2    0    0  0.63159587045E+03 -0.80527861109E+03  0.10734153467E+04  0.14909725499E+04  0.15294330000E+03 0.  0.
<mgrwt>
<rscale>  0 0.10347843E+04</rscale>
<asrwt>0</asrwt>
<pdfrwt beam="1">  1        2 0.27385925E+00 0.10347843E+04</pdfrwt>
<pdfrwt beam="2">  1       -2 0.11483624E+00 0.10347843E+04</pdfrwt>
<totfact> 0.51997018E+00</totfact>
</mgrwt>
</event>
<event>
 4    1  0.1701380E-008  0.3493717E+03  0.7818608E-02  0.1062873E+00
         -2   -1    0    0    0  501 -0.00000000000E+00  0.00000000000E+00  0.14828954834E+04  0.14828954834E+04  0.25500000000E-02 0.  1.
          2   -1    0    0  501    0  0.00000000000E+00 -0.00000000000E+00 -0.41254062755E+03  0.41254062756E+03  0.25500000000E-02 0. -1.
    8880022    1    1    2    0    0 -0.19212224196E+02  0.31352806019E+03 -0.31273875497E+03  0.46889885473E+03  0.15294330000E+03 0.  0.
    8880022    1    1    2    0    0  0.19212224196E+02 -0.31352806019E+03  0.13830936108E+04  0.14265372562E+04  0.15294330000E+03 0.  0.
<mgrwt>
<rscale>  0 0.34937173E+03</rscale>
<asrwt>0</asrwt>
<pdfrwt beam="1">  1        2 0.63467789E-01 0.34937173E+03</pdfrwt>
<pdfrwt beam="2">  1       -2 0.22813776E+00 0.34937173E+03</pdfrwt>
<totfact> 0.73793064E+00</totfact>
</mgrwt>
</event>
<event>
 4    1  0.1701380E-008  0.1655842E+04  0.7818608E-02  0.8786958E-01
          2   -1    0    0  501    0  0.00000000000E+00  0.00000000000E+00  0.17312022077E+04  0.17312022077E+04  0.25500000000E-02 0. -1.
         -2   -1    0    0    0  501 -0.00000000000E+00 -0.00000000000E+00 -0.17364983951E+04  0.17364983951E+04  0.25500000000E-02 0.  1.
    8880022    1    1    2    0    0  0.15617663997E+04  0.52849527327E+03  0.51156711209E+03  0.17330649452E+04  0.15294330000E+03 0.  0.
    8880022    1    1    2    0    0 -0.15617663997E+04 -0.52849527327E+03 -0.51686329950E+03  0.17346356575E+04  0.15294330000E+03 0.  0.
<mgrwt>
<rscale>  0 0.16558421E+04</rscale>
<asrwt>0</asrwt>
<pdfrwt beam="1">  1        2 0.26633880E+00 0.16558421E+04</pdfrwt>
<pdfrwt beam="2">  1       -2 0.26715360E+00 0.16558421E+04</pdfrwt>
<totfact> 0.43923304E-01</totfact>
</mgrwt>
</event>
<event>
 4    1  0.1701380E-008  0.8336195E+03  0.7818608E-02  0.9512590E-01
         -2   -1    0    0    0  501 -0.00000000000E+00  0.00000000000E+00  0.61779508497E+03  0.61779508497E+03  0.25500000000E-02 0.  1.
          2   -1    0    0  501    0  0.00000000000E+00 -0.00000000000E+00 -0.19815004951E+04  0.19815004951E+04  0.25500000000E-02 0. -1.
    8880022    1    1    2    0    0  0.49487203255E+03 -0.65317029847E+03 -0.15363931510E+04  0.17479774984E+04  0.15294330000E+03 0.  0.
    8880022    1    1    2    0    0 -0.49487203255E+03  0.65317029847E+03  0.17268774083E+03  0.85131808172E+03  0.15294330000E+03 0.  0.
<mgrwt>
<rscale>  0 0.83361947E+03</rscale>
<asrwt>0</asrwt>
<pdfrwt beam="1">  1        2 0.30484623E+00 0.83361947E+03</pdfrwt>
<pdfrwt beam="2">  1       -2 0.95045399E-01 0.83361947E+03</pdfrwt>
<totfact> 0.65120065E+00</totfact>
</mgrwt>
</event>
<event>
 4    1  0.1701380E-008  0.2979759E+03  0.7818608E-02  0.1086257E+00
          2   -1    0    0  501    0  0.00000000000E+00  0.00000000000E+00  0.19594589576E+04  0.19594589576E+04  0.25500000000E-02 0. -1.
         -2   -1    0    0    0  501 -0.00000000000E+00 -0.00000000000E+00 -0.94681101303E+03  0.94681101304E+03  0.25500000000E-02 0.  1.
    8880022    1    1    2    0    0  0.66300377230E+02 -0.24698636759E+03  0.19242599100E+04  0.19471943560E+04  0.15294330000E+03 0.  0.
    8880022    1    1    2    0    0 -0.66300377230E+02  0.24698636759E+03 -0.91161196550E+03  0.95907561457E+03  0.15294330000E+03 0.  1.
<mgrwt>
<rscale>  0 0.29797594E+03</rscale>
<asrwt>0</asrwt>
<pdfrwt beam="1">  1        2 0.30145523E+00 0.29797594E+03</pdfrwt>
<pdfrwt beam="2">  1       -2 0.14566323E+00 0.29797594E+03</pdfrwt>
<totfact> 0.26853508E+00</totfact>
</mgrwt>
</event>
<event>
 4    1  0.1701380E-008  0.4753148E+03  0.7818608E-02  0.1020431E+00
         -2   -1    0    0    0  501 -0.00000000000E+00  0.00000000000E+00  0.59875612350E+03  0.59875612351E+03  0.25500000000E-02 0.  1.
          2   -1    0    0  501    0  0.00000000000E+00 -0.00000000000E+00 -0.14929772462E+04  0.14929772462E+04  0.25500000000E-02 0. -1.
    8880022    1    1    2    0    0  0.83116934907E+02  0.44229415800E+03  0.45698560877E+03  0.65936336470E+03  0.15294330000E+03 0.  0.
    8880022    1    1    2    0    0 -0.83116934907E+02 -0.44229415800E+03 -0.13512067315E+04  0.14323700050E+04  0.15294330000E+03 0.  0.
<mgrwt>
<rscale>  0 0.47531484E+03</rscale>
<asrwt>0</asrwt>
<pdfrwt beam="1">  1        2 0.22968881E+00 0.47531484E+03</pdfrwt>
<pdfrwt beam="2">  1       -2 0.92116327E-01 0.47531484E+03</pdfrwt>
<totfact> 0.13743603E+01</totfact>
</mgrwt>
</event>
<event>
 4    1  0.1701380E-008  0.6143801E+03  0.7818608E-02  0.9876013E-01
          2   -1    0    0  501    0  0.00000000000E+00  0.00000000000E+00  0.52719825203E+03  0.52719825204E+03  0.25500000000E-02 0. -1.
         -2   -1    0    0    0  501 -0.00000000000E+00 -0.00000000000E+00 -0.21027827836E+04  0.21027827836E+04  0.25500000000E-02 0.  1.
    8880022    1    1    2    0    0 -0.13443635034E+03  0.57965343287E+03  0.28011347408E+03  0.67522325634E+03  0.15294330000E+03 0.  0.
    8880022    1    1    2    0    0  0.13443635034E+03 -0.57965343287E+03 -0.18556980056E+04  0.19547577793E+04  0.15294330000E+03 0.  0.
<mgrwt>
<rscale>  0 0.61438008E+03</rscale>
<asrwt>0</asrwt>
<pdfrwt beam="1">  1        2 0.81107425E-01 0.61438008E+03</pdfrwt>
<pdfrwt beam="2">  1       -2 0.32350504E+00 0.61438008E+03</pdfrwt>
<totfact> 0.14169072E+00</totfact>
</mgrwt>
</event>
<event>
 4    1  0.1701380E-008  0.4657297E+03  0.7818608E-02  0.1023132E+00
         -2   -1    0    0    0  501 -0.00000000000E+00  0.00000000000E+00  0.57848924574E+03  0.57848924574E+03  0.25500000000E-02 0.  1.
          2   -1    0    0  501    0  0.00000000000E+00 -0.00000000000E+00 -0.50823915271E+03  0.50823915271E+03  0.25500000000E-02 0. -1.
    8880022    1    1    2    0    0 -0.35401400416E+03  0.26112561358E+03 -0.24313795093E+03  0.52537626270E+03  0.15294330000E+03 0.  0.
    8880022    1    1    2    0    0  0.35401400416E+03 -0.26112561358E+03  0.31338804396E+03  0.56135213576E+03  0.15294330000E+03 0.  0.
<mgrwt>
<rscale>  0 0.46572970E+03</rscale>
<asrwt>0</asrwt>
<pdfrwt beam="1">  1        2 0.78190640E-01 0.46572970E+03</pdfrwt>
<pdfrwt beam="2">  1       -2 0.88998345E-01 0.46572970E+03</pdfrwt>
<totfact> 0.67726717E+01</totfact>
</mgrwt>
</event>
<event>
 4    1  0.1701380E-008  0.6407731E+03  0.7818608E-02  0.9824248E-01
         -2   -1    0    0    0  501 -0.00000000000E+00  0.00000000000E+00  0.46339992214E+03  0.46339992214E+03  0.25500000000E-02 0.  1.
          2   -1    0    0  501    0  0.00000000000E+00 -0.00000000000E+00 -0.26101077247E+04  0.26101077247E+04  0.25500000000E-02 0. -1.
    8880022    1    1    2    0    0  0.52505385252E+03  0.33394156537E+03  0.17561733470E+03  0.66440320468E+03  0.15294330000E+03 0.  0.
    8880022    1    1    2    0    0 -0.52505385252E+03 -0.33394156537E+03 -0.23223251373E+04  0.24091044422E+04  0.15294330000E+03 0.  0.
<mgrwt>
<rscale>  0 0.64077310E+03</rscale>
<asrwt>0</asrwt>
<pdfrwt beam="1">  1        2 0.40155503E+00 0.64077310E+03</pdfrwt>
<pdfrwt beam="2">  1       -2 0.71292297E-01 0.64077310E+03</pdfrwt>
<totfact> 0.57676877E+00</totfact>
</mgrwt>
</event>
<event>
 4    1  0.1701380E-008  0.1354161E+04  0.7818608E-02  0.8987684E-01
          2   -1    0    0  501    0  0.00000000000E+00  0.00000000000E+00  0.20309135471E+04  0.20309135471E+04  0.25500000000E-02 0. -1.
         -2   -1    0    0    0  501 -0.00000000000E+00 -0.00000000000E+00 -0.15622034305E+04  0.15622034305E+04  0.25500000000E-02 0.  1.
    8880022    1    1    2    0    0  0.10178879319E+04 -0.87992255213E+03  0.14014571653E+04  0.19488030631E+04  0.15294330000E+03 0.  0.
    8880022    1    1    2    0    0 -0.10178879319E+04  0.87992255213E+03 -0.93274704872E+03  0.16443139145E+04  0.15294330000E+03 0.  0.
<mgrwt>
<rscale>  0 0.13541607E+04</rscale>
<asrwt>0</asrwt>
<pdfrwt beam="1">  1        2 0.31244824E+00 0.13541607E+04</pdfrwt>
<pdfrwt beam="2">  1       -2 0.24033899E+00 0.13541607E+04</pdfrwt>
<totfact> 0.45136508E-01</totfact>
</mgrwt>
</event>
<event>
 4    1  0.1701380E-008  0.2213197E+04  0.7818608E-02  0.8512955E-01
         -2   -1    0    0    0  501 -0.00000000000E+00  0.00000000000E+00  0.17806555257E+04  0.17806555257E+04  0.25500000000E-02 0.  1.
          2   -1    0    0  501    0  0.00000000000E+00 -0.00000000000E+00 -0.34719231944E+04  0.34719231944E+04  0.25500000000E-02 0. -1.
    8880022    1    1    2    0    0 -0.19181670033E+04 -0.10933831406E+04 -0.20425385659E+04  0.30116784009E+04  0.15294330000E+03 0.  0.
    8880022    1    1    2    0    0  0.19181670033E+04  0.10933831406E+04  0.35127089717E+03  0.22409003192E+04  0.15294330000E+03 0.  0.
<mgrwt>
<rscale>  0 0.22131975E+04</rscale>
<asrwt>0</asrwt>
<pdfrwt beam="1">  1        2 0.53414203E+00 0.22131975E+04</pdfrwt>
<pdfrwt beam="2">  1       -2 0.27394701E+00 0.22131975E+04</pdfrwt>
<totfact> 0.33789986E-02</totfact>
</mgrwt>
</event>
<event>
 4    1  0.1701380E-008  0.1997524E+03  0.7818608E-02  0.1149948E+00
         -2   -1    0    0    0  501 -0.00000000000E+00  0.00000000000E+00  0.17306760952E+02  0.17306761140E+02  0.25500000000E-02 0.  1.
          2   -1    0    0  501    0  0.00000000000E+00 -0.00000000000E+00 -0.38449059154E+04  0.38449059154E+04  0.25500000000E-02 0. -1.
    8880022    1    1    2    0    0  0.55748955711E+02 -0.11576454162E+03 -0.69189430728E+03  0.72015190107E+03  0.15294330000E+03 0.  0.
    8880022    1    1    2    0    0 -0.55748955711E+02  0.11576454162E+03 -0.31357048472E+04  0.31420607755E+04  0.15294330000E+03 0.  0.
<mgrwt>
<rscale>  0 0.19975242E+03</rscale>
<asrwt>0</asrwt>
<pdfrwt beam="1">  1        2 0.59152331E+00 0.19975242E+03</pdfrwt>
<pdfrwt beam="2">  1       -2 0.26625817E-02 0.19975242E+03</pdfrwt>
<totfact> 0.30375846E+02</totfact>
</mgrwt>
</event>
<event>
 4    1  0.1701380E-008  0.8861214E+03  0.7818608E-02  0.9443099E-01
         -2   -1    0    0    0  501 -0.00000000000E+00  0.00000000000E+00  0.27084598753E+03  0.27084598754E+03  0.25500000000E-02 0.  1.
          2   -1    0    0  501    0  0.00000000000E+00 -0.00000000000E+00 -0.31047354262E+04  0.31047354262E+04  0.25500000000E-02 0. -1.
    8880022    1    1    2    0    0 -0.37396281509E+03 -0.78865153112E+03 -0.18513044038E+04  0.20524470939E+04  0.15294330000E+03 0.  0.
    8880022    1    1    2    0    0  0.37396281509E+03  0.78865153112E+03 -0.98258503479E+03  0.13231343198E+04  0.15294330000E+03 0.  0.
<mgrwt>
<rscale>  0 0.88612137E+03</rscale>
<asrwt>0</asrwt>
<pdfrwt beam="1">  1        2 0.47765158E+00 0.88612137E+03</pdfrwt>
<pdfrwt beam="2">  1       -2 0.41668616E-01 0.88612137E+03</pdfrwt>
<totfact> 0.85048312E+00</totfact>
</mgrwt>
</event>
<event>
 4    1  0.1701380E-008  0.9239338E+03  0.7818608E-02  0.9396148E-01
         -2   -1    0    0    0  501 -0.00000000000E+00  0.00000000000E+00  0.10146412303E+04  0.10146412303E+04  0.25500000000E-02 0.  1.
          2   -1    0    0  501    0  0.00000000000E+00 -0.00000000000E+00 -0.87394605193E+03  0.87394605194E+03  0.25500000000E-02 0. -1.
    8880022    1    1    2    0    0  0.32528173023E+03 -0.85114856538E+03 -0.11206024877E+03  0.93070469900E+03  0.15294330000E+03 0.  0.
    8880022    1    1    2    0    0 -0.32528173023E+03  0.85114856538E+03  0.25275542717E+03  0.95788258328E+03  0.15294330000E+03 0.  0.
<mgrwt>
<rscale>  0 0.92393384E+03</rscale>
<asrwt>0</asrwt>
<pdfrwt beam="1">  1        2 0.13445324E+00 0.92393384E+03</pdfrwt>
<pdfrwt beam="2">  1       -2 0.15609865E+00 0.92393384E+03</pdfrwt>
<totfact> 0.82160271E+00</totfact>
</mgrwt>
</event>
<event>
 4    1  0.1701380E-008  0.3005991E+03  0.7818608E-02  0.1084941E+00
          2   -1    0    0  501    0  0.00000000000E+00  0.00000000000E+00  0.13674897491E+04  0.13674897491E+04  0.25500000000E-02 0. -1.
         -2   -1    0    0    0  501 -0.00000000000E+00 -0.00000000000E+00 -0.52071484799E+03  0.52071484799E+03  0.25500000000E-02 0.  1.
    8880022    1    1    2    0    0 -0.10310709943E+03 -0.23735441675E+03 -0.45878154255E+03  0.54848915204E+03  0.15294330000E+03 0.  0.
    8880022    1    1    2    0    0  0.10310709943E+03  0.23735441675E+03  0.13055564437E+04  0.13397154451E+04  0.15294330000E+03 0. -1.
<mgrwt>
<rscale>  0 0.30059915E+03</rscale>
<asrwt>0</asrwt>
<pdfrwt beam="1">  1        2 0.21038304E+00 0.30059915E+03</pdfrwt>
<pdfrwt beam="2">  1       -2 0.80109976E-01 0.30059915E+03</pdfrwt>
<totfact> 0.23058274E+01</totfact>
</mgrwt>
</event>
<event>
 4    1  0.1701380E-008  0.4035506E+03  0.7818608E-02  0.1042557E+00
         -2   -1    0    0    0  501 -0.00000000000E+00  0.00000000000E+00  0.74607777944E+03  0.74607777945E+03  0.25500000000E-02 0.  1.
          2   -1    0    0  501    0  0.00000000000E+00 -0.00000000000E+00 -0.12663744297E+04  0.12663744297E+04  0.25500000000E-02 0. -1.
    8880022    1    1    2    0    0 -0.31113929906E+03 -0.20652779712E+03  0.65526018407E+03  0.76955763673E+03  0.15294330000E+03 0.  0.
    8880022    1    1    2    0    0  0.31113929906E+03  0.20652779712E+03 -0.11755568344E+04  0.12428945724E+04  0.15294330000E+03 0.  0.
<mgrwt>
<rscale>  0 0.40355055E+03</rscale>
<asrwt>0</asrwt>
<pdfrwt beam="1">  1        2 0.19482684E+00 0.40355055E+03</pdfrwt>
<pdfrwt beam="2">  1       -2 0.11478120E+00 0.40355055E+03</pdfrwt>
<totfact> 0.11103747E+01</totfact>
</mgrwt>
</event>
<event>
 4    1  0.1701380E-008  0.1232979E+04  0.7818608E-02  0.9084470E-01
         -2   -1    0    0    0  501 -0.00000000000E+00  0.00000000000E+00  0.13346064080E+04  0.13346064080E+04  0.25500000000E-02 0.  1.
          2   -1    0    0  501    0  0.00000000000E+00 -0.00000000000E+00 -0.24974304208E+04  0.24974304208E+04  0.25500000000E-02 0. -1.
    8880022    1    1    2    0    0 -0.79866685967E+02 -0.12208469204E+04  0.83163693696E+03  0.14872315014E+04  0.15294330000E+03 0.  0.
    8880022    1    1    2    0    0  0.79866685967E+02  0.12208469204E+04 -0.19944609498E+04  0.23448053275E+04  0.15294330000E+03 0.  0.
<mgrwt>
<rscale>  0 0.12329791E+04</rscale>
<asrwt>0</asrwt>
<pdfrwt beam="1">  1        2 0.38422006E+00 0.12329791E+04</pdfrwt>
<pdfrwt beam="2">  1       -2 0.20532406E+00 0.12329791E+04</pdfrwt>
<totfact> 0.41647899E-01</totfact>
</mgrwt>
</event>
<event>
 4    1  0.1701380E-008  0.2813582E+03  0.7818608E-02  0.1094949E+00
         -2   -1    0    0    0  501 -0.00000000000E+00  0.00000000000E+00  0.23533225801E+03  0.23533225802E+03  0.25500000000E-02 0.  1.
          2   -1    0    0  501    0  0.00000000000E+00 -0.00000000000E+00 -0.96430289484E+03  0.96430289484E+03  0.25500000000E-02 0. -1.
    8880022    1    1    2    0    0 -0.20304435938E+03  0.12059764291E+03 -0.84850560773E+03  0.89393748255E+03  0.15294330000E+03 0.  0.
    8880022    1    1    2    0    0  0.20304435938E+03 -0.12059764291E+03  0.11953497090E+03  0.30569767031E+03  0.15294330000E+03 0.  0.
<mgrwt>
<rscale>  0 0.28135823E+03</rscale>
<asrwt>0</asrwt>
<pdfrwt beam="1">  1        2 0.14835429E+00 0.28135823E+03</pdfrwt>
<pdfrwt beam="2">  1       -2 0.36204963E-01 0.28135823E+03</pdfrwt>
<totfact> 0.20083709E+02</totfact>
</mgrwt>
</event>
<event>
 4    1  0.2190898E-008  0.1884718E+04  0.7818608E-02  0.8662501E-01
         -2   -1    0    0    0  501 -0.00000000000E+00  0.00000000000E+00  0.21961335905E+04  0.21961335905E+04  0.25500000000E-02 0.  1.
          2   -1    0    0  501    0  0.00000000000E+00 -0.00000000000E+00 -0.30942469401E+04  0.30942469401E+04  0.25500000000E-02 0. -1.
    8880022    1    1    2    0    0  0.53526591598E+03  0.18006276214E+04  0.13783624326E+04  0.23349612589E+04  0.15294330000E+03 0.  0.
    8880022    1    1    2    0    0 -0.53526591598E+03 -0.18006276214E+04 -0.22764757822E+04  0.29554192717E+04  0.15294330000E+03 0.  0.
<mgrwt>
<rscale>  0 0.18847178E+04</rscale>
<asrwt>0</asrwt>
<pdfrwt beam="1">  1        2 0.47603799E+00 0.18847178E+04</pdfrwt>
<pdfrwt beam="2">  1       -2 0.33786671E+00 0.18847178E+04</pdfrwt>
<totfact> 0.25173842E-02</totfact>
</mgrwt>
</event>
<event>
 4    1  0.1701380E-008  0.4855995E+03  0.7818608E-02  0.1017608E+00
         -2   -1    0    0    0  501 -0.00000000000E+00  0.00000000000E+00  0.76581205237E+03  0.76581205237E+03  0.25500000000E-02 0.  1.
          2   -1    0    0  501    0  0.00000000000E+00 -0.00000000000E+00 -0.24808578607E+04  0.24808578607E+04  0.25500000000E-02 0. -1.
    8880022    1    1    2    0    0 -0.23763812752E+03 -0.39489664137E+03  0.66173361463E+03  0.82079124433E+03  0.15294330000E+03 0.  0.
    8880022    1    1    2    0    0  0.23763812752E+03  0.39489664137E+03 -0.23767794230E+04  0.24258786688E+04  0.15294330000E+03 0.  0.
<mgrwt>
<rscale>  0 0.48559952E+03</rscale>
<asrwt>0</asrwt>
<pdfrwt beam="1">  1        2 0.38167044E+00 0.48559952E+03</pdfrwt>
<pdfrwt beam="2">  1       -2 0.11781724E+00 0.48559952E+03</pdfrwt>
<totfact> 0.22238913E+00</totfact>
</mgrwt>
</event>
<event>
 4    1  0.1701380E-008  0.2063846E+04  0.7818608E-02  0.8577339E-01
         -2   -1    0    0    0  501 -0.00000000000E+00  0.00000000000E+00  0.17815750664E+04  0.17815750664E+04  0.25500000000E-02 0.  1.
          2   -1    0    0  501    0  0.00000000000E+00 -0.00000000000E+00 -0.28500156552E+04  0.28500156552E+04  0.25500000000E-02 0. -1.
    8880022    1    1    2    0    0 -0.19295854533E+04 -0.71607842929E+03  0.39531574692E+03  0.21013649210E+04  0.15294330000E+03 0.  0.
    8880022    1    1    2    0    0  0.19295854533E+04  0.71607842929E+03 -0.14637563357E+04  0.25302258006E+04  0.15294330000E+03 0.  0.
<mgrwt>
<rscale>  0 0.20638459E+04</rscale>
<asrwt>0</asrwt>
<pdfrwt beam="1">  1        2 0.43846395E+00 0.20638459E+04</pdfrwt>
<pdfrwt beam="2">  1       -2 0.27408847E+00 0.20638459E+04</pdfrwt>
<totfact> 0.86921601E-02</totfact>
</mgrwt>
</event>
<event>
 4    1  0.1701380E-008  0.1289629E+04  0.7818608E-02  0.9037830E-01
         -2   -1    0    0    0  501 -0.00000000000E+00  0.00000000000E+00  0.70421880902E+03  0.70421880902E+03  0.25500000000E-02 0.  1.
          2   -1    0    0  501    0  0.00000000000E+00 -0.00000000000E+00 -0.26218764093E+04  0.26218764093E+04  0.25500000000E-02 0. -1.
    8880022    1    1    2    0    0  0.59260446898E+03  0.11351528954E+04 -0.43493399297E+03  0.13609964673E+04  0.15294330000E+03 0.  0.
    8880022    1    1    2    0    0 -0.59260446898E+03 -0.11351528954E+04 -0.14827236074E+04  0.19650987511E+04  0.15294330000E+03 0.  0.
<mgrwt>
<rscale>  0 0.12896293E+04</rscale>
<asrwt>0</asrwt>
<pdfrwt beam="1">  1        2 0.40336559E+00 0.12896293E+04</pdfrwt>
<pdfrwt beam="2">  1       -2 0.10834136E+00 0.12896293E+04</pdfrwt>
<totfact> 0.19603171E+00</totfact>
</mgrwt>
</event>
<event>
 4    1  0.1701380E-008  0.6761691E+03  0.7818608E-02  0.9758877E-01
         -2   -1    0    0    0  501 -0.00000000000E+00  0.00000000000E+00  0.33139306748E+03  0.33139306749E+03  0.25500000000E-02 0.  1.
          2   -1    0    0  501    0  0.00000000000E+00 -0.00000000000E+00 -0.15399026032E+04  0.15399026032E+04  0.25500000000E-02 0. -1.
    8880022    1    1    2    0    0 -0.13428813484E+03  0.64480978292E+03 -0.90609410114E+03  0.11305799982E+04  0.15294330000E+03 0.  0.
    8880022    1    1    2    0    0  0.13428813484E+03 -0.64480978292E+03 -0.30241543457E+03  0.74071567244E+03  0.15294330000E+03 0.  1.
<mgrwt>
<rscale>  0 0.67616907E+03</rscale>
<asrwt>0</asrwt>
<pdfrwt beam="1">  1        2 0.23690809E+00 0.67616907E+03</pdfrwt>
<pdfrwt beam="2">  1       -2 0.50983549E-01 0.67616907E+03</pdfrwt>
<totfact> 0.45202045E+01</totfact>
</mgrwt>
</event>
<event>
 4    1  0.1701380E-008  0.5901913E+03  0.7818608E-02  0.9925967E-01
         -2   -1    0    0    0  501 -0.00000000000E+00  0.00000000000E+00  0.43277318032E+03  0.43277318033E+03  0.25500000000E-02 0.  1.
          2   -1    0    0  501    0  0.00000000000E+00 -0.00000000000E+00 -0.12653553922E+04  0.12653553922E+04  0.25500000000E-02 0. -1.
    8880022    1    1    2    0    0  0.92102581153E+02 -0.56254000823E+03  0.95912491406E+02  0.59793394731E+03  0.15294330000E+03 0.  0.
    8880022    1    1    2    0    0 -0.92102581153E+02  0.56254000823E+03 -0.92849470329E+03  0.11001946252E+04  0.15294330000E+03 0.  0.
<mgrwt>
<rscale>  0 0.59019132E+03</rscale>
<asrwt>0</asrwt>
<pdfrwt beam="1">  1        2 0.19467006E+00 0.59019132E+03</pdfrwt>
<pdfrwt beam="2">  1       -2 0.66580490E-01 0.59019132E+03</pdfrwt>
<totfact> 0.37281132E+01</totfact>
</mgrwt>
</event>
<event>
 4    1  0.1701380E-008  0.8360180E+03  0.7818608E-02  0.9509298E-01
          2   -1    0    0  501    0  0.00000000000E+00  0.00000000000E+00  0.21155616621E+04  0.21155616621E+04  0.25500000000E-02 0. -1.
         -2   -1    0    0    0  501 -0.00000000000E+00 -0.00000000000E+00 -0.49950741927E+03  0.49950741928E+03  0.25500000000E-02 0.  1.
    8880022    1    1    2    0    0 -0.11355227295E+03  0.81402727292E+03  0.15688738073E+04  0.17777207869E+04  0.15294330000E+03 0.  0.
    8880022    1    1    2    0    0  0.11355227295E+03 -0.81402727292E+03  0.47180435466E+02  0.83734829447E+03  0.15294330000E+03 0.  0.
<mgrwt>
<rscale>  0 0.83601805E+03</rscale>
<asrwt>0</asrwt>
<pdfrwt beam="1">  1        2 0.32547102E+00 0.83601805E+03</pdfrwt>
<pdfrwt beam="2">  1       -2 0.76847297E-01 0.83601805E+03</pdfrwt>
<totfact> 0.89314215E+00</totfact>
</mgrwt>
</event>
<event>
 4    1  0.1701380E-008  0.9054728E+03  0.7818608E-02  0.9418766E-01
         -2   -1    0    0    0  501 -0.00000000000E+00  0.00000000000E+00  0.16796344378E+04  0.16796344378E+04  0.25500000000E-02 0.  1.
          2   -1    0    0  501    0  0.00000000000E+00 -0.00000000000E+00 -0.86097450102E+03  0.86097450103E+03  0.25500000000E-02 0. -1.
    8880022    1    1    2    0    0  0.87982774625E+03 -0.14964137159E+03  0.12452720181E+04  0.15396699177E+04  0.15294330000E+03 0.  0.
    8880022    1    1    2    0    0 -0.87982774625E+03  0.14964137159E+03 -0.42661208135E+03  0.10009390212E+04  0.15294330000E+03 0.  0.
<mgrwt>
<rscale>  0 0.90547284E+03</rscale>
<asrwt>0</asrwt>
<pdfrwt beam="1">  1        2 0.13245762E+00 0.90547284E+03</pdfrwt>
<pdfrwt beam="2">  1       -2 0.25840530E+00 0.90547284E+03</pdfrwt>
<totfact> 0.17981866E+00</totfact>
</mgrwt>
</event>
<event>
 4    1  0.1701380E-008  0.8253322E+03  0.7818608E-02  0.9524057E-01
         -2   -1    0    0    0  501 -0.00000000000E+00  0.00000000000E+00  0.73798913893E+03  0.73798913893E+03  0.25500000000E-02 0.  1.
          2   -1    0    0  501    0  0.00000000000E+00 -0.00000000000E+00 -0.11343338526E+04  0.11343338526E+04  0.25500000000E-02 0. -1.
    8880022    1    1    2    0    0  0.23977834728E+03  0.77478247429E+03  0.20589338524E+03  0.85062640295E+03  0.15294330000E+03 0.  0.
    8880022    1    1    2    0    0 -0.23977834728E+03 -0.77478247429E+03 -0.60223809886E+03  0.10216965885E+04  0.15294330000E+03 0.  0.
<mgrwt>
<rscale>  0 0.82533217E+03</rscale>
<asrwt>0</asrwt>
<pdfrwt beam="1">  1        2 0.17451290E+00 0.82533217E+03</pdfrwt>
<pdfrwt beam="2">  1       -2 0.11353679E+00 0.82533217E+03</pdfrwt>
<totfact> 0.12752328E+01</totfact>
</mgrwt>
</event>
<event>
 4    1  0.1701380E-008  0.6425259E+03  0.7818608E-02  0.9820906E-01
         -2   -1    0    0    0  501 -0.00000000000E+00  0.00000000000E+00  0.42724261030E+03  0.42724261031E+03  0.25500000000E-02 0.  1.
          2   -1    0    0  501    0  0.00000000000E+00 -0.00000000000E+00 -0.32088242524E+04  0.32088242524E+04  0.25500000000E-02 0. -1.
    8880022    1    1    2    0    0  0.55060109232E+03  0.29374538390E+03 -0.29106333731E+04  0.29807090095E+04  0.15294330000E+03 0.  0.
    8880022    1    1    2    0    0 -0.55060109232E+03 -0.29374538390E+03  0.12905173107E+03  0.65535785318E+03  0.15294330000E+03 0.  0.
<mgrwt>
<rscale>  0 0.64252593E+03</rscale>
<asrwt>0</asrwt>
<pdfrwt beam="1">  1        2 0.49366525E+00 0.64252593E+03</pdfrwt>
<pdfrwt beam="2">  1       -2 0.65729634E-01 0.64252593E+03</pdfrwt>
<totfact> 0.30039939E+00</totfact>
</mgrwt>
</event>
<event>
 4    1  0.1701380E-008  0.1200953E+04  0.7818608E-02  0.9112022E-01
          2   -1    0    0  501    0  0.00000000000E+00  0.00000000000E+00  0.27495858508E+04  0.27495858508E+04  0.25500000000E-02 0. -1.
         -2   -1    0    0    0  501 -0.00000000000E+00 -0.00000000000E+00 -0.60698670314E+03  0.60698670315E+03  0.25500000000E-02 0.  1.
    8880022    1    1    2    0    0 -0.84537133047E+03  0.83919300333E+03  0.16898036000E+04  0.20730956184E+04  0.15294330000E+03 0.  0.
    8880022    1    1    2    0    0  0.84537133047E+03 -0.83919300333E+03  0.45279554764E+03  0.12834769356E+04  0.15294330000E+03 0.  0.
<mgrwt>
<rscale>  0 0.12009535E+04</rscale>
<asrwt>0</asrwt>
<pdfrwt beam="1">  1        2 0.42301322E+00 0.12009535E+04</pdfrwt>
<pdfrwt beam="2">  1       -2 0.93382568E-01 0.12009535E+04</pdfrwt>
<totfact> 0.23758643E+00</totfact>
</mgrwt>
</event>
<event>
 4    1  0.1701380E-008  0.1059131E+04  0.7818608E-02  0.9245968E-01
          2   -1    0    0  501    0  0.00000000000E+00  0.00000000000E+00  0.29778114623E+04  0.29778114623E+04  0.25500000000E-02 0. -1.
         -2   -1    0    0    0  501 -0.00000000000E+00 -0.00000000000E+00 -0.38206639465E+03  0.38206639466E+03  0.25500000000E-02 0.  1.
    8880022    1    1    2    0    0 -0.19969249814E+03 -0.10288289711E+04  0.10988763042E+04  0.15262001607E+04  0.15294330000E+03 0.  0.
    8880022    1    1    2    0    0  0.19969249814E+03  0.10288289711E+04  0.14968687635E+04  0.18336776963E+04  0.15294330000E+03 0.  0.
<mgrwt>
<rscale>  0 0.10591307E+04</rscale>
<asrwt>0</asrwt>
<pdfrwt beam="1">  1        2 0.45812484E+00 0.10591307E+04</pdfrwt>
<pdfrwt beam="2">  1       -2 0.58779445E-01 0.10591307E+04</pdfrwt>
<totfact> 0.49304125E+00</totfact>
</mgrwt>
</event>
<event>
 4    1  0.1701380E-008  0.2395107E+03  0.7818608E-02  0.1120119E+00
          2   -1    0    0  501    0  0.00000000000E+00  0.00000000000E+00  0.31596591430E+04  0.31596591430E+04  0.25500000000E-02 0. -1.
         -2   -1    0    0    0  501 -0.00000000000E+00 -0.00000000000E+00 -0.33475874646E+03  0.33475874647E+03  0.25500000000E-02 0.  1.
    8880022    1    1    2    0    0  0.86386379419E+02 -0.16282230656E+03 -0.28671859234E+03  0.37359458544E+03  0.15294330000E+03 0.  0.
    8880022    1    1    2    0    0 -0.86386379419E+02  0.16282230656E+03  0.31116189889E+04  0.31208233041E+04  0.15294330000E+03 0. -1.
<mgrwt>
<rscale>  0 0.23951067E+03</rscale>
<asrwt>0</asrwt>
<pdfrwt beam="1">  1        2 0.48610138E+00 0.23951067E+03</pdfrwt>
<pdfrwt beam="2">  1       -2 0.51501348E-01 0.23951067E+03</pdfrwt>
<totfact> 0.62592752E+00</totfact>
</mgrwt>
</event>
<event>
 4    1  0.1701380E-008  0.2330104E+03  0.7818608E-02  0.1124539E+00
         -2   -1    0    0    0  501 -0.00000000000E+00  0.00000000000E+00  0.20025349251E+03  0.20025349253E+03  0.25500000000E-02 0.  1.
          2   -1    0    0  501    0  0.00000000000E+00 -0.00000000000E+00 -0.76583804246E+03  0.76583804246E+03  0.25500000000E-02 0. -1.
    8880022    1    1    2    0    0  0.17229728873E+03  0.34868985139E+02 -0.67102864311E+03  0.71033322794E+03  0.15294330000E+03 0. -1.
    8880022    1    1    2    0    0 -0.17229728873E+03 -0.34868985139E+02  0.10544409316E+03  0.25575830705E+03  0.15294330000E+03 0.  0.
<mgrwt>
<rscale>  0 0.23301042E+03</rscale>
<asrwt>0</asrwt>
<pdfrwt beam="1">  1        2 0.11782124E+00 0.23301042E+03</pdfrwt>
<pdfrwt beam="2">  1       -2 0.30808230E-01 0.23301042E+03</pdfrwt>
<totfact> 0.36911909E+02</totfact>
</mgrwt>
</event>
<event>
 4    1  0.1701380E-008  0.7016988E+03  0.7818608E-02  0.9714331E-01
         -2   -1    0    0    0  501 -0.00000000000E+00  0.00000000000E+00  0.16413670427E+04  0.16413670427E+04  0.25500000000E-02 0.  1.
          2   -1    0    0  501    0  0.00000000000E+00 -0.00000000000E+00 -0.13859878073E+04  0.13859878073E+04  0.25500000000E-02 0. -1.
    8880022    1    1    2    0    0  0.25428548430E+03 -0.63586830083E+03  0.14675810774E+04  0.16267069420E+04  0.15294330000E+03 0.  0.
    8880022    1    1    2    0    0 -0.25428548430E+03  0.63586830083E+03 -0.12122018419E+04  0.14006479080E+04  0.15294330000E+03 0.  0.
<mgrwt>
<rscale>  0 0.70169884E+03</rscale>
<asrwt>0</asrwt>
<pdfrwt beam="1">  1        2 0.21322889E+00 0.70169884E+03</pdfrwt>
<pdfrwt beam="2">  1       -2 0.25251801E+00 0.70169884E+03</pdfrwt>
<totfact> 0.96068008E-01</totfact>
</mgrwt>
</event>
<event>
 4    1  0.1701380E-008  0.8895203E+03  0.7818608E-02  0.9438777E-01
          2   -1    0    0  501    0  0.00000000000E+00  0.00000000000E+00  0.29079026499E+04  0.29079026499E+04  0.25500000000E-02 0. -1.
         -2   -1    0    0    0  501 -0.00000000000E+00 -0.00000000000E+00 -0.67989780380E+03  0.67989780380E+03  0.25500000000E-02 0.  1.
    8880022    1    1    2    0    0 -0.33346606218E+03  0.81034255385E+03 -0.27530324054E+03  0.93114885839E+03  0.15294330000E+03 0.  0.
    8880022    1    1    2    0    0  0.33346606218E+03 -0.81034255385E+03  0.25033080867E+04  0.26566515954E+04  0.15294330000E+03 0.  0.
<mgrwt>
<rscale>  0 0.88952028E+03</rscale>
<asrwt>0</asrwt>
<pdfrwt beam="1">  1        2 0.44736964E+00 0.88952028E+03</pdfrwt>
<pdfrwt beam="2">  1       -2 0.10459966E+00 0.88952028E+03</pdfrwt>
<totfact> 0.15267127E+00</totfact>
</mgrwt>
</event>
<event>
 4    1  0.1701380E-008  0.1570083E+04  0.7818608E-02  0.8839141E-01
          2   -1    0    0  501    0  0.00000000000E+00  0.00000000000E+00  0.20563276509E+04  0.20563276509E+04  0.25500000000E-02 0. -1.
         -2   -1    0    0    0  501 -0.00000000000E+00 -0.00000000000E+00 -0.24747786135E+04  0.24747786135E+04  0.25500000000E-02 0.  1.
    8880022    1    1    2    0    0  0.66004427802E+03  0.14163718872E+04 -0.18359910507E+04  0.24157861170E+04  0.15294330000E+03 0.  0.
    8880022    1    1    2    0    0 -0.66004427802E+03 -0.14163718872E+04  0.14175400880E+04  0.21153201474E+04  0.15294330000E+03 0.  0.
<mgrwt>
<rscale>  0 0.15700826E+04</rscale>
<asrwt>0</asrwt>
<pdfrwt beam="1">  1        2 0.31635810E+00 0.15700826E+04</pdfrwt>
<pdfrwt beam="2">  1       -2 0.38073517E+00 0.15700826E+04</pdfrwt>
<totfact> 0.57304290E-02</totfact>
</mgrwt>
</event>
<event>
 4    1  0.1701380E-008  0.3206093E+03  0.7818608E-02  0.1075369E+00
          2   -1    0    0  501    0  0.00000000000E+00  0.00000000000E+00  0.15501017419E+04  0.15501017419E+04  0.25500000000E-02 0. -1.
         -2   -1    0    0    0  501 -0.00000000000E+00 -0.00000000000E+00 -0.10233423060E+04  0.10233423060E+04  0.25500000000E-02 0.  1.
    8880022    1    1    2    0    0 -0.21233276256E+03 -0.18523896902E+03  0.15077141478E+04  0.15414254060E+04  0.15294330000E+03 0.  0.
    8880022    1    1    2    0    0  0.21233276256E+03  0.18523896902E+03 -0.98095471188E+03  0.10320186420E+04  0.15294330000E+03 0.  1.
<mgrwt>
<rscale>  0 0.32060931E+03</rscale>
<asrwt>0</asrwt>
<pdfrwt beam="1">  1        2 0.23847719E+00 0.32060931E+03</pdfrwt>
<pdfrwt beam="2">  1       -2 0.15743728E+00 0.32060931E+03</pdfrwt>
<totfact> 0.35782351E+00</totfact>
</mgrwt>
</event>
<event>
 4    1  0.1701380E-008  0.5650877E+03  0.7818608E-02  0.9980608E-01
         -2   -1    0    0    0  501 -0.00000000000E+00  0.00000000000E+00  0.89322142582E+03  0.89322142583E+03  0.25500000000E-02 0.  1.
          2   -1    0    0  501    0  0.00000000000E+00 -0.00000000000E+00 -0.99905356650E+03  0.99905356650E+03  0.25500000000E-02 0. -1.
    8880022    1    1    2    0    0 -0.41574243043E+03  0.35084287053E+03  0.70527258723E+03  0.90373312630E+03  0.15294330000E+03 0.  0.
    8880022    1    1    2    0    0  0.41574243043E+03 -0.35084287053E+03 -0.81110472790E+03  0.98854186603E+03  0.15294330000E+03 0. -1.
<mgrwt>
<rscale>  0 0.56508773E+03</rscale>
<asrwt>0</asrwt>
<pdfrwt beam="1">  1        2 0.15370055E+00 0.56508773E+03</pdfrwt>
<pdfrwt beam="2">  1       -2 0.13741868E+00 0.56508773E+03</pdfrwt>
<totfact> 0.99262688E+00</totfact>
</mgrwt>
</event>
<event>
 4    1  0.1701380E-008  0.1204049E+04  0.7818608E-02  0.9109320E-01
         -2   -1    0    0    0  501 -0.00000000000E+00  0.00000000000E+00  0.26078693737E+04  0.26078693737E+04  0.25500000000E-02 0.  1.
          2   -1    0    0  501    0  0.00000000000E+00 -0.00000000000E+00 -0.10295347484E+04  0.10295347484E+04  0.25500000000E-02 0. -1.
    8880022    1    1    2    0    0 -0.69381268502E+03 -0.97209386953E+03  0.20227247806E+04  0.23539646820E+04  0.15294330000E+03 0.  0.
    8880022    1    1    2    0    0  0.69381268502E+03  0.97209386953E+03 -0.44439015537E+03  0.12834394401E+04  0.15294330000E+03 0.  0.
<mgrwt>
<rscale>  0 0.12040491E+04</rscale>
<asrwt>0</asrwt>
<pdfrwt beam="1">  1        2 0.15838996E+00 0.12040491E+04</pdfrwt>
<pdfrwt beam="2">  1       -2 0.40121067E+00 0.12040491E+04</pdfrwt>
<totfact> 0.17315400E-01</totfact>
</mgrwt>
</event>
<event>
 4    1  0.1701380E-008  0.1213012E+04  0.7818608E-02  0.9101543E-01
          2   -1    0    0  501    0  0.00000000000E+00  0.00000000000E+00  0.14796787387E+04  0.14796787387E+04  0.25500000000E-02 0. -1.
         -2   -1    0    0    0  501 -0.00000000000E+00 -0.00000000000E+00 -0.12201302469E+04  0.12201302469E+04  0.25500000000E-02 0.  1.
    8880022    1    1    2    0    0 -0.11959131599E+04  0.13340747721E+03 -0.45084523361E+03  0.12940861327E+04  0.15294330000E+03 0.  0.
    8880022    1    1    2    0    0  0.11959131599E+04 -0.13340747721E+03  0.71039372543E+03  0.14057228529E+04  0.15294330000E+03 0.  0.
<mgrwt>
<rscale>  0 0.12130117E+04</rscale>
<asrwt>0</asrwt>
<pdfrwt beam="1">  1        2 0.22764288E+00 0.12130117E+04</pdfrwt>
<pdfrwt beam="2">  1       -2 0.18771235E+00 0.12130117E+04</pdfrwt>
<totfact> 0.20282577E+00</totfact>
</mgrwt>
</event>
<event>
 4    1  0.1701380E-008  0.8858531E+03  0.7818608E-02  0.9443441E-01
         -2   -1    0    0    0  501 -0.00000000000E+00  0.00000000000E+00  0.10827744570E+04  0.10827744570E+04  0.25500000000E-02 0.  1.
          2   -1    0    0  501    0  0.00000000000E+00 -0.00000000000E+00 -0.93905055383E+03  0.93905055384E+03  0.25500000000E-02 0. -1.
    8880022    1    1    2    0    0  0.60734514537E+03  0.62647905449E+03  0.55479331527E+03  0.10452422719E+04  0.15294330000E+03 0.  0.
    8880022    1    1    2    0    0 -0.60734514537E+03 -0.62647905449E+03 -0.41106941212E+03  0.97658273890E+03  0.15294330000E+03 0.  0.
<mgrwt>
<rscale>  0 0.88585314E+03</rscale>
<asrwt>0</asrwt>
<pdfrwt beam="1">  1        2 0.14446932E+00 0.88585314E+03</pdfrwt>
<pdfrwt beam="2">  1       -2 0.16658068E+00 0.88585314E+03</pdfrwt>
<totfact> 0.62431880E+00</totfact>
</mgrwt>
</event>
<event>
 4    1  0.1701380E-008  0.7536734E+03  0.7818608E-02  0.9629605E-01
         -2   -1    0    0    0  501 -0.00000000000E+00  0.00000000000E+00  0.51497699833E+03  0.51497699834E+03  0.25500000000E-02 0.  1.
          2   -1    0    0  501    0  0.00000000000E+00 -0.00000000000E+00 -0.21116862008E+04  0.21116862008E+04  0.25500000000E-02 0. -1.
    8880022    1    1    2    0    0 -0.18219902972E+03  0.71514717586E+03 -0.17060415129E+04  0.18651008729E+04  0.15294330000E+03 0.  0.
    8880022    1    1    2    0    0  0.18219902972E+03 -0.71514717586E+03  0.10933231040E+03  0.76156232620E+03  0.15294330000E+03 0.  0.
<mgrwt>
<rscale>  0 0.75367342E+03</rscale>
<asrwt>0</asrwt>
<pdfrwt beam="1">  1        2 0.32487480E+00 0.75367342E+03</pdfrwt>
<pdfrwt beam="2">  1       -2 0.79227231E-01 0.75367342E+03</pdfrwt>
<totfact> 0.84862915E+00</totfact>
</mgrwt>
</event>
<event>
 4    1  0.1701380E-008  0.5652625E+03  0.7818608E-02  0.9980217E-01
          2   -1    0    0  501    0  0.00000000000E+00  0.00000000000E+00  0.15131702356E+04  0.15131702356E+04  0.25500000000E-02 0. -1.
         -2   -1    0    0    0  501 -0.00000000000E+00 -0.00000000000E+00 -0.25349180064E+03  0.25349180065E+03  0.25500000000E-02 0.  1.
    8880022    1    1    2    0    0 -0.50881028985E+03 -0.19298207963E+03  0.26886781946E+03  0.62594852143E+03  0.15294330000E+03 0.  0.
    8880022    1    1    2    0    0  0.50881028985E+03  0.19298207963E+03  0.99081061554E+03  0.11407135149E+04  0.15294330000E+03 0.  0.
<mgrwt>
<rscale>  0 0.56526246E+03</rscale>
<asrwt>0</asrwt>
<pdfrwt beam="1">  1        2 0.23279542E+00 0.56526246E+03</pdfrwt>
<pdfrwt beam="2">  1       -2 0.38998739E-01 0.56526246E+03</pdfrwt>
<totfact> 0.80703227E+01</totfact>
</mgrwt>
</event>
<event>
 4    1  0.1701380E-008  0.1683304E+04  0.7818608E-02  0.8770944E-01
          2   -1    0    0  501    0  0.00000000000E+00  0.00000000000E+00  0.41653313452E+04  0.41653313452E+04  0.25500000000E-02 0. -1.
         -2   -1    0    0    0  501 -0.00000000000E+00 -0.00000000000E+00 -0.88628020072E+03  0.88628020072E+03  0.25500000000E-02 0.  1.
    8880022    1    1    2    0    0 -0.14577174159E+04  0.82775629462E+03  0.28573041890E+04  0.33162779482E+04  0.15294330000E+03 0.  0.
    8880022    1    1    2    0    0  0.14577174159E+04 -0.82775629462E+03  0.42174695541E+03  0.17353335977E+04  0.15294330000E+03 0.  0.
<mgrwt>
<rscale>  0 0.16833040E+04</rscale>
<asrwt>0</asrwt>
<pdfrwt beam="1">  1        2 0.64082022E+00 0.16833040E+04</pdfrwt>
<pdfrwt beam="2">  1       -2 0.13635080E+00 0.16833040E+04</pdfrwt>
<totfact> 0.90346159E-02</totfact>
</mgrwt>
</event>
<event>
 4    1  0.1701380E-008  0.1353718E+04  0.7818608E-02  0.8988018E-01
         -2   -1    0    0    0  501 -0.00000000000E+00  0.00000000000E+00  0.36567287198E+04  0.36567287198E+04  0.25500000000E-02 0.  1.
          2   -1    0    0  501    0  0.00000000000E+00 -0.00000000000E+00 -0.12051214339E+04  0.12051214339E+04  0.25500000000E-02 0. -1.
    8880022    1    1    2    0    0  0.12302115965E+04  0.54381996228E+03  0.30837584213E+04  0.33678061668E+04  0.15294330000E+03 0.  0.
    8880022    1    1    2    0    0 -0.12302115965E+04 -0.54381996228E+03 -0.63215113538E+03  0.14940439868E+04  0.15294330000E+03 0.  0.
<mgrwt>
<rscale>  0 0.13537180E+04</rscale>
<asrwt>0</asrwt>
<pdfrwt beam="1">  1        2 0.18540330E+00 0.13537180E+04</pdfrwt>
<pdfrwt beam="2">  1       -2 0.56257365E+00 0.13537180E+04</pdfrwt>
<totfact> 0.13027731E-02</totfact>
</mgrwt>
</event>
<event>
 4    1  0.1701380E-008  0.1366523E+04  0.7818608E-02  0.8978414E-01
          2   -1    0    0  501    0  0.00000000000E+00  0.00000000000E+00  0.11638277643E+04  0.11638277643E+04  0.25500000000E-02 0. -1.
         -2   -1    0    0    0  501 -0.00000000000E+00 -0.00000000000E+00 -0.17801212130E+04  0.17801212130E+04  0.25500000000E-02 0.  1.
    8880022    1    1    2    0    0  0.42410012812E+03 -0.12900129973E+04 -0.77046173740E+03  0.15687566394E+04  0.15294330000E+03 0.  0.
    8880022    1    1    2    0    0 -0.42410012812E+03  0.12900129973E+04  0.15416828868E+03  0.13751923378E+04  0.15294330000E+03 0.  0.
<mgrwt>
<rscale>  0 0.13665234E+04</rscale>
<asrwt>0</asrwt>
<pdfrwt beam="1">  1        2 0.17905043E+00 0.13665234E+04</pdfrwt>
<pdfrwt beam="2">  1       -2 0.27386480E+00 0.13665234E+04</pdfrwt>
<totfact> 0.87486297E-01</totfact>
</mgrwt>
</event>
<event>
 4    1  0.1701380E-008  0.9121250E+03  0.7818608E-02  0.9410550E-01
         -2   -1    0    0    0  501 -0.00000000000E+00  0.00000000000E+00  0.37429136088E+03  0.37429136089E+03  0.25500000000E-02 0.  1.
          2   -1    0    0  501    0  0.00000000000E+00 -0.00000000000E+00 -0.27362253260E+04  0.27362253260E+04  0.25500000000E-02 0. -1.
    8880022    1    1    2    0    0  0.65403871194E+03  0.61710100530E+03 -0.50726391097E+03  0.10436899041E+04  0.15294330000E+03 0.  0.
    8880022    1    1    2    0    0 -0.65403871194E+03 -0.61710100530E+03 -0.18546700542E+04  0.20668267829E+04  0.15294330000E+03 0.  0.
<mgrwt>
<rscale>  0 0.91212496E+03</rscale>
<asrwt>0</asrwt>
<pdfrwt beam="1">  1        2 0.42095773E+00 0.91212496E+03</pdfrwt>
<pdfrwt beam="2">  1       -2 0.57583288E-01 0.91212496E+03</pdfrwt>
<totfact> 0.73434916E+00</totfact>
</mgrwt>
</event>
<event>
 4    1  0.1701380E-008  0.8627249E+03  0.7818608E-02  0.9473415E-01
          2   -1    0    0  501    0  0.00000000000E+00  0.00000000000E+00  0.25015286777E+04  0.25015286777E+04  0.25500000000E-02 0. -1.
         -2   -1    0    0    0  501 -0.00000000000E+00 -0.00000000000E+00 -0.53153784204E+03  0.53153784205E+03  0.25500000000E-02 0.  1.
    8880022    1    1    2    0    0 -0.24532097849E+03 -0.81284697041E+03 -0.21228664201E+02  0.86298603059E+03  0.15294330000E+03 0.  0.
    8880022    1    1    2    0    0  0.24532097849E+03  0.81284697041E+03  0.19912194998E+04  0.21700804891E+04  0.15294330000E+03 0.  0.
<mgrwt>
<rscale>  0 0.86272489E+03</rscale>
<asrwt>0</asrwt>
<pdfrwt beam="1">  1        2 0.38485057E+00 0.86272489E+03</pdfrwt>
<pdfrwt beam="2">  1       -2 0.81775052E-01 0.86272489E+03</pdfrwt>
<totfact> 0.47083177E+00</totfact>
</mgrwt>
</event>
<event>
 4    1  0.1701380E-008  0.3965562E+03  0.7818608E-02  0.1044979E+00
         -2   -1    0    0    0  501 -0.00000000000E+00  0.00000000000E+00  0.58049863083E+03  0.58049863084E+03  0.25500000000E-02 0.  1.
          2   -1    0    0  501    0  0.00000000000E+00 -0.00000000000E+00 -0.63099565957E+03  0.63099565958E+03  0.25500000000E-02 0. -1.
    8880022    1    1    2    0    0 -0.34295762027E+03  0.12745681898E+03  0.43235294354E+03  0.58667358114E+03  0.15294330000E+03 0.  0.
    8880022    1    1    2    0    0  0.34295762027E+03 -0.12745681898E+03 -0.48284997228E+03  0.62482070928E+03  0.15294330000E+03 0.  0.
<mgrwt>
<rscale>  0 0.39655620E+03</rscale>
<asrwt>0</asrwt>
<pdfrwt beam="1">  1        2 0.97076255E-01 0.39655620E+03</pdfrwt>
<pdfrwt beam="2">  1       -2 0.89307482E-01 0.39655620E+03</pdfrwt>
<totfact> 0.52559128E+01</totfact>
</mgrwt>
</event>
<event>
 4    1  0.1701380E-008  0.8943713E+03  0.7818608E-02  0.9432645E-01
         -2   -1    0    0    0  501 -0.00000000000E+00  0.00000000000E+00  0.65545904597E+03  0.65545904598E+03  0.25500000000E-02 0.  1.
          2   -1    0    0  501    0  0.00000000000E+00 -0.00000000000E+00 -0.13238010284E+04  0.13238010284E+04  0.25500000000E-02 0. -1.
    8880022    1    1    2    0    0 -0.87930006657E+03  0.57790250378E+02 -0.57543584465E+02  0.89622052935E+03  0.15294330000E+03 0.  0.
    8880022    1    1    2    0    0  0.87930006657E+03 -0.57790250378E+02 -0.61079839794E+03  0.10830395450E+04  0.15294330000E+03 0.  0.
<mgrwt>
<rscale>  0 0.89437127E+03</rscale>
<asrwt>0</asrwt>
<pdfrwt beam="1">  1        2 0.20366170E+00 0.89437127E+03</pdfrwt>
<pdfrwt beam="2">  1       -2 0.10083985E+00 0.89437127E+03</pdfrwt>
<totfact> 0.13027586E+01</totfact>
</mgrwt>
</event>
<event>
 4    1  0.1701380E-008  0.4272085E+03  0.7818608E-02  0.1034745E+00
         -2   -1    0    0    0  501 -0.00000000000E+00  0.00000000000E+00  0.11776825978E+04  0.11776825978E+04  0.25500000000E-02 0.  1.
          2   -1    0    0  501    0  0.00000000000E+00 -0.00000000000E+00 -0.12021966161E+04  0.12021966161E+04  0.25500000000E-02 0. -1.
    8880022    1    1    2    0    0 -0.38145446325E+03  0.11665304497E+03 -0.11228558604E+04  0.12013793642E+04  0.15294330000E+03 0.  0.
    8880022    1    1    2    0    0  0.38145446325E+03 -0.11665304497E+03  0.10983418422E+04  0.11784998497E+04  0.15294330000E+03 0.  0.
<mgrwt>
<rscale>  0 0.42720849E+03</rscale>
<asrwt>0</asrwt>
<pdfrwt beam="1">  1        2 0.18495333E+00 0.42720849E+03</pdfrwt>
<pdfrwt beam="2">  1       -2 0.18118194E+00 0.42720849E+03</pdfrwt>
<totfact> 0.36740633E+00</totfact>
</mgrwt>
</event>
<event>
 4    1  0.1701380E-008  0.8115430E+03  0.7818608E-02  0.9543458E-01
          2   -1    0    0  501    0  0.00000000000E+00  0.00000000000E+00  0.19928732685E+04  0.19928732685E+04  0.25500000000E-02 0. -1.
         -2   -1    0    0    0  501 -0.00000000000E+00 -0.00000000000E+00 -0.60967855050E+03  0.60967855050E+03  0.25500000000E-02 0.  1.
    8880022    1    1    2    0    0  0.30408497329E+03  0.73671072265E+03  0.15721931039E+04  0.17692917139E+04  0.15294330000E+03 0. -1.
    8880022    1    1    2    0    0 -0.30408497329E+03 -0.73671072265E+03 -0.18899838593E+03  0.83326010509E+03  0.15294330000E+03 0.  0.
<mgrwt>
<rscale>  0 0.81154298E+03</rscale>
<asrwt>0</asrwt>
<pdfrwt beam="1">  1        2 0.30659589E+00 0.81154298E+03</pdfrwt>
<pdfrwt beam="2">  1       -2 0.93796701E-01 0.81154298E+03</pdfrwt>
<totfact> 0.66420948E+00</totfact>
</mgrwt>
</event>
<event>
 4    1  0.1701380E-008  0.6390706E+03  0.7818608E-02  0.9827506E-01
          2   -1    0    0  501    0  0.00000000000E+00  0.00000000000E+00  0.31409827456E+04  0.31409827456E+04  0.25500000000E-02 0. -1.
         -2   -1    0    0    0  501 -0.00000000000E+00 -0.00000000000E+00 -0.44041419388E+03  0.44041419388E+03  0.25500000000E-02 0.  1.
    8880022    1    1    2    0    0 -0.54919035018E+03  0.28880702705E+03 -0.15301002678E+03  0.65713260528E+03  0.15294330000E+03 0.  0.
    8880022    1    1    2    0    0  0.54919035018E+03 -0.28880702705E+03  0.28535785785E+04  0.29242643342E+04  0.15294330000E+03 0.  0.
<mgrwt>
<rscale>  0 0.63907057E+03</rscale>
<asrwt>0</asrwt>
<pdfrwt beam="1">  1        2 0.48322815E+00 0.63907057E+03</pdfrwt>
<pdfrwt beam="2">  1       -2 0.67756025E-01 0.63907057E+03</pdfrwt>
<totfact> 0.31074870E+00</totfact>
</mgrwt>
</event>
<event>
 4    1  0.1701380E-008  0.8384458E+03  0.7818608E-02  0.9505977E-01
          2   -1    0    0  501    0  0.00000000000E+00  0.00000000000E+00  0.32812485492E+04  0.32812485492E+04  0.25500000000E-02 0. -1.
         -2   -1    0    0    0  501 -0.00000000000E+00 -0.00000000000E+00 -0.40329470042E+03  0.40329470043E+03  0.25500000000E-02 0.  1.
    8880022    1    1    2    0    0 -0.51723104509E+02 -0.82275412624E+03  0.17764224659E+03  0.85705778835E+03  0.15294330000E+03 0.  0.
    8880022    1    1    2    0    0  0.51723104509E+02  0.82275412624E+03  0.27003116022E+04  0.28274854613E+04  0.15294330000E+03 0.  0.
<mgrwt>
<rscale>  0 0.83844576E+03</rscale>
<asrwt>0</asrwt>
<pdfrwt beam="1">  1        2 0.50480745E+00 0.83844576E+03</pdfrwt>
<pdfrwt beam="2">  1       -2 0.62045340E-01 0.83844576E+03</pdfrwt>
<totfact> 0.29275550E+00</totfact>
</mgrwt>
</event>
<event>
 4    1  0.1701380E-008  0.6910726E+03  0.7818608E-02  0.9732622E-01
          2   -1    0    0  501    0  0.00000000000E+00  0.00000000000E+00  0.10772146270E+04  0.10772146270E+04  0.25500000000E-02 0. -1.
         -2   -1    0    0    0  501 -0.00000000000E+00 -0.00000000000E+00 -0.71760120715E+03  0.71760120715E+03  0.25500000000E-02 0.  1.
    8880022    1    1    2    0    0 -0.29433933885E+03  0.60626240850E+03  0.73459059553E+03  0.10085656897E+04  0.15294330000E+03 0.  0.
    8880022    1    1    2    0    0  0.29433933885E+03 -0.60626240850E+03 -0.37497717569E+03  0.78625014446E+03  0.15294330000E+03 0.  0.
<mgrwt>
<rscale>  0 0.69107265E+03</rscale>
<asrwt>0</asrwt>
<pdfrwt beam="1">  1        2 0.16572533E+00 0.69107265E+03</pdfrwt>
<pdfrwt beam="2">  1       -2 0.11040019E+00 0.69107265E+03</pdfrwt>
<totfact> 0.15022464E+01</totfact>
</mgrwt>
</event>
<event>
 4    1  0.1701380E-008  0.9989420E+03  0.7818608E-02  0.9309706E-01
          2   -1    0    0  501    0  0.00000000000E+00  0.00000000000E+00  0.23051356177E+04  0.23051356177E+04  0.25500000000E-02 0. -1.
         -2   -1    0    0    0  501 -0.00000000000E+00 -0.00000000000E+00 -0.94107503920E+03  0.94107503920E+03  0.25500000000E-02 0.  1.
    8880022    1    1    2    0    0  0.37804470328E+03 -0.91190768293E+03  0.18747619540E+04  0.21242922250E+04  0.15294330000E+03 0.  0.
    8880022    1    1    2    0    0 -0.37804470328E+03  0.91190768293E+03 -0.51070137553E+03  0.11219184319E+04  0.15294330000E+03 0.  0.
<mgrwt>
<rscale>  0 0.99894198E+03</rscale>
<asrwt>0</asrwt>
<pdfrwt beam="1">  1        2 0.35463625E+00 0.99894198E+03</pdfrwt>
<pdfrwt beam="2">  1       -2 0.14478077E+00 0.99894198E+03</pdfrwt>
<totfact> 0.14853483E+00</totfact>
</mgrwt>
</event>
<event>
 4    1  0.1701380E-008  0.1752171E+04  0.7818608E-02  0.8732156E-01
         -2   -1    0    0    0  501 -0.00000000000E+00  0.00000000000E+00  0.14265519023E+04  0.14265519023E+04  0.25500000000E-02 0.  1.
          2   -1    0    0  501    0  0.00000000000E+00 -0.00000000000E+00 -0.26916129295E+04  0.26916129295E+04  0.25500000000E-02 0. -1.
    8880022    1    1    2    0    0  0.15853697804E+04 -0.73028357619E+03  0.28932424524E+03  0.17758974110E+04  0.15294330000E+03 0.  0.
    8880022    1    1    2    0    0 -0.15853697804E+04  0.73028357619E+03 -0.15543852725E+04  0.23422674208E+04  0.15294330000E+03 0.  0.
<mgrwt>
<rscale>  0 0.17521710E+04</rscale>
<asrwt>0</asrwt>
<pdfrwt beam="1">  1        2 0.41409430E+00 0.17521710E+04</pdfrwt>
<pdfrwt beam="2">  1       -2 0.21946952E+00 0.17521710E+04</pdfrwt>
<totfact> 0.24443006E-01</totfact>
</mgrwt>
</event>
<event>
 4    1  0.1701380E-008  0.1171148E+04  0.7818608E-02  0.9138492E-01
         -2   -1    0    0    0  501 -0.00000000000E+00  0.00000000000E+00  0.99852269945E+03  0.99852269946E+03  0.25500000000E-02 0.  1.
          2   -1    0    0  501    0  0.00000000000E+00 -0.00000000000E+00 -0.25964890195E+04  0.25964890195E+04  0.25500000000E-02 0. -1.
    8880022    1    1    2    0    0 -0.10218116774E+04 -0.55144964047E+03  0.43459770902E+03  0.12491847869E+04  0.15294330000E+03 0.  0.
    8880022    1    1    2    0    0  0.10218116774E+04  0.55144964047E+03 -0.20325640290E+04  0.23458269320E+04  0.15294330000E+03 0.  0.
<mgrwt>
<rscale>  0 0.11711479E+04</rscale>
<asrwt>0</asrwt>
<pdfrwt beam="1">  1        2 0.39945985E+00 0.11711479E+04</pdfrwt>
<pdfrwt beam="2">  1       -2 0.15361888E+00 0.11711479E+04</pdfrwt>
<totfact> 0.84471809E-01</totfact>
</mgrwt>
</event>
<event>
 4    1  0.1701380E-008  0.1297948E+04  0.7818608E-02  0.9031194E-01
         -2   -1    0    0    0  501 -0.00000000000E+00  0.00000000000E+00  0.10516692279E+04  0.10516692279E+04  0.25500000000E-02 0.  1.
          2   -1    0    0  501    0  0.00000000000E+00 -0.00000000000E+00 -0.19185213435E+04  0.19185213435E+04  0.25500000000E-02 0. -1.
    8880022    1    1    2    0    0  0.40811087761E+03 -0.12225887952E+04  0.16988422229E+03  0.13090187747E+04  0.15294330000E+03 0.  0.
    8880022    1    1    2    0    0 -0.40811087761E+03  0.12225887952E+04 -0.10367363379E+04  0.16611717966E+04  0.15294330000E+03 0.  0.
<mgrwt>
<rscale>  0 0.12979482E+04</rscale>
<asrwt>0</asrwt>
<pdfrwt beam="1">  1        2 0.29515713E+00 0.12979482E+04</pdfrwt>
<pdfrwt beam="2">  1       -2 0.16179527E+00 0.12979482E+04</pdfrwt>
<totfact> 0.17427161E+00</totfact>
</mgrwt>
</event>
<event>
 4    1  0.1701380E-008  0.1150663E+04  0.7818608E-02  0.9157172E-01
          2   -1    0    0  501    0  0.00000000000E+00  0.00000000000E+00  0.17523477822E+04  0.17523477822E+04  0.25500000000E-02 0. -1.
         -2   -1    0    0    0  501 -0.00000000000E+00 -0.00000000000E+00 -0.92242715584E+03  0.92242715584E+03  0.25500000000E-02 0.  1.
    8880022    1    1    2    0    0  0.96855957136E+03  0.60210149150E+03  0.98376162796E+03  0.15138733246E+04  0.15294330000E+03 0.  0.
    8880022    1    1    2    0    0 -0.96855957136E+03 -0.60210149150E+03 -0.15384100156E+03  0.11609016135E+04  0.15294330000E+03 0.  0.
<mgrwt>
<rscale>  0 0.11506631E+04</rscale>
<asrwt>0</asrwt>
<pdfrwt beam="1">  1        2 0.26959197E+00 0.11506631E+04</pdfrwt>
<pdfrwt beam="2">  1       -2 0.14191187E+00 0.11506631E+04</pdfrwt>
<totfact> 0.31094992E+00</totfact>
</mgrwt>
</event>
<event>
 4    1  0.1701380E-008  0.7482734E+03  0.7818608E-02  0.9638063E-01
          2   -1    0    0  501    0  0.00000000000E+00  0.00000000000E+00  0.23785259315E+04  0.23785259315E+04  0.25500000000E-02 0. -1.
         -2   -1    0    0    0  501 -0.00000000000E+00 -0.00000000000E+00 -0.38341962677E+03  0.38341962677E+03  0.25500000000E-02 0.  1.
    8880022    1    1    2    0    0 -0.16635573368E+03  0.71333523409E+03  0.13952281277E+03  0.76116992493E+03  0.15294330000E+03 0.  0.
    8880022    1    1    2    0    0  0.16635573368E+03 -0.71333523409E+03  0.18555834920E+04  0.20007756334E+04  0.15294330000E+03 0.  0.
<mgrwt>
<rscale>  0 0.74827337E+03</rscale>
<asrwt>0</asrwt>
<pdfrwt beam="1">  1        2 0.36592707E+00 0.74827337E+03</pdfrwt>
<pdfrwt beam="2">  1       -2 0.58987634E-01 0.74827337E+03</pdfrwt>
<totfact> 0.11475353E+01</totfact>
</mgrwt>
</event>
<event>
 4    1  0.1701380E-008  0.6725304E+03  0.7818608E-02  0.9765397E-01
         -2   -1    0    0    0  501 -0.00000000000E+00  0.00000000000E+00  0.49906421871E+03  0.49906421872E+03  0.25500000000E-02 0.  1.
          2   -1    0    0  501    0  0.00000000000E+00 -0.00000000000E+00 -0.11243448957E+04  0.11243448957E+04  0.25500000000E-02 0. -1.
    8880022    1    1    2    0    0  0.43676198919E+03 -0.48800048010E+03  0.44822284605E+02  0.67402239873E+03  0.15294330000E+03 0.  0.
    8880022    1    1    2    0    0 -0.43676198919E+03  0.48800048010E+03 -0.67010296158E+03  0.94938671568E+03  0.15294330000E+03 0.  0.
<mgrwt>
<rscale>  0 0.67253041E+03</rscale>
<asrwt>0</asrwt>
<pdfrwt beam="1">  1        2 0.17297614E+00 0.67253041E+03</pdfrwt>
<pdfrwt beam="2">  1       -2 0.76779111E-01 0.67253041E+03</pdfrwt>
<totfact> 0.32726860E+01</totfact>
</mgrwt>
</event>
<event>
 4    1  0.1701380E-008  0.1494973E+04  0.7818608E-02  0.8887803E-01
         -2   -1    0    0    0  501 -0.00000000000E+00  0.00000000000E+00  0.15172116102E+04  0.15172116103E+04  0.25500000000E-02 0.  1.
          2   -1    0    0  501    0  0.00000000000E+00 -0.00000000000E+00 -0.21569143963E+04  0.21569143963E+04  0.25500000000E-02 0. -1.
    8880022    1    1    2    0    0 -0.57011351186E+03 -0.13735075839E+04 -0.13542533430E+04  0.20171629259E+04  0.15294330000E+03 0.  0.
    8880022    1    1    2    0    0  0.57011351186E+03  0.13735075839E+04  0.71455055694E+03  0.16569630807E+04  0.15294330000E+03 0.  0.
<mgrwt>
<rscale>  0 0.14949730E+04</rscale>
<asrwt>0</asrwt>
<pdfrwt beam="1">  1        2 0.33183298E+00 0.14949730E+04</pdfrwt>
<pdfrwt beam="2">  1       -2 0.23341717E+00 0.14949730E+04</pdfrwt>
<totfact> 0.41692361E-01</totfact>
</mgrwt>
</event>
<event>
 4    1  0.1701380E-008  0.6127457E+03  0.7818608E-02  0.9879310E-01
          2   -1    0    0  501    0  0.00000000000E+00  0.00000000000E+00  0.84399557690E+03  0.84399557690E+03  0.25500000000E-02 0. -1.
         -2   -1    0    0    0  501 -0.00000000000E+00 -0.00000000000E+00 -0.16266478919E+04  0.16266478919E+04  0.25500000000E-02 0.  1.
    8880022    1    1    2    0    0 -0.34828138690E+03  0.48038084792E+03 -0.14442661597E+04  0.15688728682E+04  0.15294330000E+03 0.  0.
    8880022    1    1    2    0    0  0.34828138690E+03 -0.48038084792E+03  0.66161384473E+03  0.90177060058E+03  0.15294330000E+03 0.  0.
<mgrwt>
<rscale>  0 0.61274574E+03</rscale>
<asrwt>0</asrwt>
<pdfrwt beam="1">  1        2 0.12984547E+00 0.61274574E+03</pdfrwt>
<pdfrwt beam="2">  1       -2 0.25025352E+00 0.61274574E+03</pdfrwt>
<totfact> 0.21706319E+00</totfact>
</mgrwt>
</event>
<event>
 4    1  0.1701380E-008  0.2457374E+03  0.7818608E-02  0.1116029E+00
         -2   -1    0    0    0  501 -0.00000000000E+00  0.00000000000E+00  0.24792007139E+03  0.24792007141E+03  0.25500000000E-02 0.  1.
          2   -1    0    0  501    0  0.00000000000E+00 -0.00000000000E+00 -0.24040163617E+04  0.24040163617E+04  0.25500000000E-02 0. -1.
    8880022    1    1    2    0    0 -0.11674293336E+03 -0.15286037519E+03 -0.23350495305E+04  0.23479444563E+04  0.15294330000E+03 0. -1.
    8880022    1    1    2    0    0  0.11674293336E+03  0.15286037519E+03  0.17895324020E+03  0.30399197684E+03  0.15294330000E+03 0.  0.
<mgrwt>
<rscale>  0 0.24573738E+03</rscale>
<asrwt>0</asrwt>
<pdfrwt beam="1">  1        2 0.36984865E+00 0.24573738E+03</pdfrwt>
<pdfrwt beam="2">  1       -2 0.38141551E-01 0.24573738E+03</pdfrwt>
<totfact> 0.30250395E+01</totfact>
</mgrwt>
</event>
<event>
 4    1  0.1701380E-008  0.7879366E+03  0.7818608E-02  0.9577644E-01
          2   -1    0    0  501    0  0.00000000000E+00  0.00000000000E+00  0.23735675188E+04  0.23735675188E+04  0.25500000000E-02 0. -1.
         -2   -1    0    0    0  501 -0.00000000000E+00 -0.00000000000E+00 -0.19538978442E+04  0.19538978442E+04  0.25500000000E-02 0.  1.
    8880022    1    1    2    0    0 -0.64702629622E+03  0.42285864836E+03 -0.18038683860E+04  0.19684474266E+04  0.15294330000E+03 0.  1.
    8880022    1    1    2    0    0  0.64702629622E+03 -0.42285864836E+03  0.22235380606E+04  0.23590179364E+04  0.15294330000E+03 0.  0.
<mgrwt>
<rscale>  0 0.78793662E+03</rscale>
<asrwt>0</asrwt>
<pdfrwt beam="1">  1        2 0.36516423E+00 0.78793662E+03</pdfrwt>
<pdfrwt beam="2">  1       -2 0.30059967E+00 0.78793662E+03</pdfrwt>
<totfact> 0.13838120E-01</totfact>
</mgrwt>
</event>
<event>
 4    1  0.1701380E-008  0.9961567E+03  0.7818608E-02  0.9312770E-01
          2   -1    0    0  501    0  0.00000000000E+00  0.00000000000E+00  0.16822465287E+04  0.16822465287E+04  0.25500000000E-02 0. -1.
         -2   -1    0    0    0  501 -0.00000000000E+00 -0.00000000000E+00 -0.14457106333E+04  0.14457106333E+04  0.25500000000E-02 0.  1.
    8880022    1    1    2    0    0  0.41981222060E+03  0.89033374561E+03  0.13215940594E+04  0.16549740149E+04  0.15294330000E+03 0.  0.
    8880022    1    1    2    0    0 -0.41981222060E+03 -0.89033374561E+03 -0.10850581641E+04  0.14729831471E+04  0.15294330000E+03 0.  0.
<mgrwt>
<rscale>  0 0.99615668E+03</rscale>
<asrwt>0</asrwt>
<pdfrwt beam="1">  1        2 0.25880716E+00 0.99615668E+03</pdfrwt>
<pdfrwt beam="2">  1       -2 0.22241702E+00 0.99615668E+03</pdfrwt>
<totfact> 0.95469739E-01</totfact>
</mgrwt>
</event>
<event>
 4    1  0.1701380E-008  0.2641625E+03  0.7818608E-02  0.1104668E+00
          2   -1    0    0  501    0  0.00000000000E+00  0.00000000000E+00  0.18206039099E+04  0.18206039099E+04  0.25500000000E-02 0. -1.
         -2   -1    0    0    0  501 -0.00000000000E+00 -0.00000000000E+00 -0.97358401825E+02  0.97358401858E+02  0.25500000000E-02 0.  1.
    8880022    1    1    2    0    0  0.18692511299E+03 -0.10700083860E+03  0.11490282506E+03  0.28807028578E+03  0.15294330000E+03 0.  0.
    8880022    1    1    2    0    0 -0.18692511299E+03  0.10700083860E+03  0.16083426830E+04  0.16298920259E+04  0.15294330000E+03 0. -1.
<mgrwt>
<rscale>  0 0.26416251E+03</rscale>
<asrwt>0</asrwt>
<pdfrwt beam="1">  1        2 0.28009290E+00 0.26416251E+03</pdfrwt>
<pdfrwt beam="2">  1       -2 0.14978216E-01 0.26416251E+03</pdfrwt>
<totfact> 0.31864570E+02</totfact>
</mgrwt>
</event>
<event>
 4    1  0.1701380E-008  0.5964218E+03  0.7818608E-02  0.9912858E-01
          2   -1    0    0  501    0  0.00000000000E+00  0.00000000000E+00  0.38483280680E+04  0.38483280680E+04  0.25500000000E-02 0. -1.
         -2   -1    0    0    0  501 -0.00000000000E+00 -0.00000000000E+00 -0.14130027451E+03  0.14130027453E+03  0.25500000000E-02 0.  1.
    8880022    1    1    2    0    0  0.40206540818E+03 -0.41312317774E+03  0.30266070461E+04  0.30848126713E+04  0.15294330000E+03 0. -1.
    8880022    1    1    2    0    0 -0.40206540818E+03  0.41312317774E+03  0.68042074739E+03  0.90481567125E+03  0.15294330000E+03 0.  0.
<mgrwt>
<rscale>  0 0.59642184E+03</rscale>
<asrwt>0</asrwt>
<pdfrwt beam="1">  1        2 0.59205045E+00 0.59642184E+03</pdfrwt>
<pdfrwt beam="2">  1       -2 0.21738505E-01 0.59642184E+03</pdfrwt>
<totfact> 0.94136936E+00</totfact>
</mgrwt>
</event>
<event>
 4    1  0.1701380E-008  0.1089812E+04  0.7818608E-02  0.9215179E-01
          2   -1    0    0  501    0  0.00000000000E+00  0.00000000000E+00  0.17917480169E+04  0.17917480169E+04  0.25500000000E-02 0. -1.
         -2   -1    0    0    0  501 -0.00000000000E+00 -0.00000000000E+00 -0.78076581495E+03  0.78076581495E+03  0.25500000000E-02 0.  1.
    8880022    1    1    2    0    0 -0.80231839659E+03  0.72151550130E+03  0.10053202583E+04  0.14826867177E+04  0.15294330000E+03 0.  0.
    8880022    1    1    2    0    0  0.80231839659E+03 -0.72151550130E+03  0.56619436578E+01  0.10898271142E+04  0.15294330000E+03 0.  0.
<mgrwt>
<rscale>  0 0.10898124E+04</rscale>
<asrwt>0</asrwt>
<pdfrwt beam="1">  1        2 0.27565354E+00 0.10898124E+04</pdfrwt>
<pdfrwt beam="2">  1       -2 0.12011782E+00 0.10898124E+04</pdfrwt>
<totfact> 0.45566592E+00</totfact>
</mgrwt>
</event>
<event>
 4    1  0.1701380E-008  0.1958540E+04  0.7818608E-02  0.8626254E-01
          2   -1    0    0  501    0  0.00000000000E+00  0.00000000000E+00  0.27643549343E+04  0.27643549343E+04  0.25500000000E-02 0. -1.
         -2   -1    0    0    0  501 -0.00000000000E+00 -0.00000000000E+00 -0.21922652705E+04  0.21922652705E+04  0.25500000000E-02 0.  1.
    8880022    1    1    2    0    0 -0.80128445866E+03 -0.17805704410E+04 -0.12154049307E+04  0.23050138129E+04  0.15294330000E+03 0.  0.
    8880022    1    1    2    0    0  0.80128445866E+03  0.17805704410E+04  0.17874945945E+04  0.26516063919E+04  0.15294330000E+03 0.  0.
<mgrwt>
<rscale>  0 0.19585402E+04</rscale>
<asrwt>0</asrwt>
<pdfrwt beam="1">  1        2 0.42528537E+00 0.19585402E+04</pdfrwt>
<pdfrwt beam="2">  1       -2 0.33727158E+00 0.19585402E+04</pdfrwt>
<totfact> 0.40327194E-02</totfact>
</mgrwt>
</event>
<event>
 4    1  0.1701380E-008  0.4915891E+03  0.7818608E-02  0.1015998E+00
          2   -1    0    0  501    0  0.00000000000E+00  0.00000000000E+00  0.45030839375E+03  0.45030839376E+03  0.25500000000E-02 0. -1.
         -2   -1    0    0    0  501 -0.00000000000E+00 -0.00000000000E+00 -0.17059878696E+04  0.17059878696E+04  0.25500000000E-02 0.  1.
    8880022    1    1    2    0    0 -0.31255964040E+03 -0.34723867778E+03  0.26476604598E+03  0.55835556796E+03  0.15294330000E+03 0.  0.
    8880022    1    1    2    0    0  0.31255964040E+03  0.34723867778E+03 -0.15204455218E+04  0.15979406954E+04  0.15294330000E+03 0.  0.
<mgrwt>
<rscale>  0 0.49158914E+03</rscale>
<asrwt>0</asrwt>
<pdfrwt beam="1">  1        2 0.69278215E-01 0.49158914E+03</pdfrwt>
<pdfrwt beam="2">  1       -2 0.26245967E+00 0.49158914E+03</pdfrwt>
<totfact> 0.40339624E+00</totfact>
</mgrwt>
</event>
<event>
 4    1  0.1701380E-008  0.1536779E+03  0.7818608E-02  0.1196025E+00
         -2   -1    0    0    0  501 -0.00000000000E+00  0.00000000000E+00  0.17965853627E+03  0.17965853629E+03  0.25500000000E-02 0.  1.
          2   -1    0    0  501    0  0.00000000000E+00 -0.00000000000E+00 -0.21232754194E+04  0.21232754194E+04  0.25500000000E-02 0. -1.
    8880022    1    1    2    0    0 -0.47149913735E+01 -0.14248226532E+02  0.14344477016E+03  0.21022202121E+03  0.15294330000E+03 0.  0.
    8880022    1    1    2    0    0  0.47149913735E+01  0.14248226532E+02 -0.20870616532E+04  0.20927119344E+04  0.15294330000E+03 0. -1.
<mgrwt>
<rscale>  0 0.15367790E+03</rscale>
<asrwt>0</asrwt>
<pdfrwt beam="1">  1        2 0.32665774E+00 0.15367790E+03</pdfrwt>
<pdfrwt beam="2">  1       -2 0.27639776E-01 0.15367790E+03</pdfrwt>
<totfact> 0.80654787E+01</totfact>
</mgrwt>
</event>
<event>
 4    1  0.1701380E-008  0.8860689E+03  0.7818608E-02  0.9443166E-01
          2   -1    0    0  501    0  0.00000000000E+00  0.00000000000E+00  0.87453097672E+03  0.87453097673E+03  0.25500000000E-02 0. -1.
         -2   -1    0    0    0  501 -0.00000000000E+00 -0.00000000000E+00 -0.13826626184E+04  0.13826626184E+04  0.25500000000E-02 0.  1.
    8880022    1    1    2    0    0  0.47804154438E+03  0.73020727443E+03 -0.92242270506E+03  0.12790549955E+04  0.15294330000E+03 0.  1.
    8880022    1    1    2    0    0 -0.47804154438E+03 -0.73020727443E+03  0.41429106338E+03  0.97813859959E+03  0.15294330000E+03 0.  0.
<mgrwt>
<rscale>  0 0.88606887E+03</rscale>
<asrwt>0</asrwt>
<pdfrwt beam="1">  1        2 0.13454323E+00 0.88606887E+03</pdfrwt>
<pdfrwt beam="2">  1       -2 0.21271732E+00 0.88606887E+03</pdfrwt>
<totfact> 0.33784756E+00</totfact>
</mgrwt>
</event>
<event>
 4    1  0.1701380E-008  0.7441776E+03  0.7818608E-02  0.9644529E-01
         -2   -1    0    0    0  501 -0.00000000000E+00  0.00000000000E+00  0.68976692707E+03  0.68976692708E+03  0.25500000000E-02 0.  1.
          2   -1    0    0  501    0  0.00000000000E+00 -0.00000000000E+00 -0.11215997653E+04  0.11215997653E+04  0.25500000000E-02 0. -1.
    8880022    1    1    2    0    0  0.58332156697E+03 -0.43605579930E+03 -0.69871016533E+03  0.10207821799E+04  0.15294330000E+03 0.  0.
    8880022    1    1    2    0    0 -0.58332156697E+03  0.43605579930E+03  0.26687732714E+03  0.79058451247E+03  0.15294330000E+03 0.  0.
<mgrwt>
<rscale>  0 0.74417764E+03</rscale>
<asrwt>0</asrwt>
<pdfrwt beam="1">  1        2 0.17255381E+00 0.74417764E+03</pdfrwt>
<pdfrwt beam="2">  1       -2 0.10611799E+00 0.74417764E+03</pdfrwt>
<totfact> 0.15428162E+01</totfact>
</mgrwt>
</event>
<event>
 4    1  0.1701380E-008  0.1409220E+04  0.7818608E-02  0.8947172E-01
          2   -1    0    0  501    0  0.00000000000E+00  0.00000000000E+00  0.23869431124E+04  0.23869431124E+04  0.25500000000E-02 0. -1.
         -2   -1    0    0    0  501 -0.00000000000E+00 -0.00000000000E+00 -0.18055129968E+04  0.18055129968E+04  0.25500000000E-02 0.  1.
    8880022    1    1    2    0    0  0.13244010849E+04  0.45658526331E+03  0.18299769732E+04  0.23097003511E+04  0.15294330000E+03 0.  0.
    8880022    1    1    2    0    0 -0.13244010849E+04 -0.45658526331E+03 -0.12485468576E+04  0.18827557582E+04  0.15294330000E+03 0.  0.
<mgrwt>
<rscale>  0 0.14092196E+04</rscale>
<asrwt>0</asrwt>
<pdfrwt beam="1">  1        2 0.36722202E+00 0.14092196E+04</pdfrwt>
<pdfrwt beam="2">  1       -2 0.27777123E+00 0.14092196E+04</pdfrwt>
<totfact> 0.16673754E-01</totfact>
</mgrwt>
</event>
<event>
 4    1  0.1701380E-008  0.1520763E+04  0.7818608E-02  0.8870762E-01
          2   -1    0    0  501    0  0.00000000000E+00  0.00000000000E+00  0.20293231929E+04  0.20293231929E+04  0.25500000000E-02 0. -1.
         -2   -1    0    0    0  501 -0.00000000000E+00 -0.00000000000E+00 -0.17761399460E+04  0.17761399460E+04  0.25500000000E-02 0.  1.
    8880022    1    1    2    0    0 -0.15118184663E+04  0.61096542219E+02 -0.10124365908E+04  0.18269502911E+04  0.15294330000E+03 0.  0.
    8880022    1    1    2    0    0  0.15118184663E+04 -0.61096542219E+02  0.12656198377E+04  0.19785128479E+04  0.15294330000E+03 0.  0.
<mgrwt>
<rscale>  0 0.15207628E+04</rscale>
<asrwt>0</asrwt>
<pdfrwt beam="1">  1        2 0.31220357E+00 0.15207628E+04</pdfrwt>
<pdfrwt beam="2">  1       -2 0.27325230E+00 0.15207628E+04</pdfrwt>
<totfact> 0.27863069E-01</totfact>
</mgrwt>
</event>
<event>
 4    1  0.1701380E-008  0.5132285E+03  0.7818608E-02  0.1010383E+00
         -2   -1    0    0    0  501 -0.00000000000E+00  0.00000000000E+00  0.21591748371E+03  0.21591748373E+03  0.25500000000E-02 0.  1.
          2   -1    0    0  501    0  0.00000000000E+00 -0.00000000000E+00 -0.14669673858E+04  0.14669673858E+04  0.25500000000E-02 0. -1.
    8880022    1    1    2    0    0 -0.36523133670E+03  0.32652398783E+03 -0.28022346356E+03  0.58474668574E+03  0.15294330000E+03 0.  0.
    8880022    1    1    2    0    0  0.36523133670E+03 -0.32652398783E+03 -0.97082643852E+03  0.10981381838E+04  0.15294330000E+03 0.  0.
<mgrwt>
<rscale>  0 0.51322850E+03</rscale>
<asrwt>0</asrwt>
<pdfrwt beam="1">  1        2 0.22568728E+00 0.51322850E+03</pdfrwt>
<pdfrwt beam="2">  1       -2 0.33218075E-01 0.51322850E+03</pdfrwt>
<totfact> 0.11691351E+02</totfact>
</mgrwt>
</event>
<event>
 4    1  0.1701380E-008  0.1773806E+04  0.7818608E-02  0.8720354E-01
          2   -1    0    0  501    0  0.00000000000E+00  0.00000000000E+00  0.27571212561E+04  0.27571212561E+04  0.25500000000E-02 0. -1.
         -2   -1    0    0    0  501 -0.00000000000E+00 -0.00000000000E+00 -0.13345040658E+04  0.13345040659E+04  0.25500000000E-02 0.  1.
    8880022    1    1    2    0    0  0.15191404520E+04 -0.90288953020E+03  0.14899578103E+04  0.23165412032E+04  0.15294330000E+03 0.  0.
    8880022    1    1    2    0    0 -0.15191404520E+04  0.90288953020E+03 -0.67340620036E+02  0.17750841188E+04  0.15294330000E+03 0.  0.
<mgrwt>
<rscale>  0 0.17738063E+04</rscale>
<asrwt>0</asrwt>
<pdfrwt beam="1">  1        2 0.42417250E+00 0.17738063E+04</pdfrwt>
<pdfrwt beam="2">  1       -2 0.20530832E+00 0.17738063E+04</pdfrwt>
<totfact> 0.27513192E-01</totfact>
</mgrwt>
</event>
<event>
 4    1  0.1701380E-008  0.1558851E+04  0.7818608E-02  0.8846234E-01
          2   -1    0    0  501    0  0.00000000000E+00  0.00000000000E+00  0.15307934769E+04  0.15307934769E+04  0.25500000000E-02 0. -1.
         -2   -1    0    0    0  501 -0.00000000000E+00 -0.00000000000E+00 -0.25247360994E+04  0.25247360994E+04  0.25500000000E-02 0.  1.
    8880022    1    1    2    0    0 -0.13534300026E+04  0.75818993366E+03 -0.17324975763E+04  0.23305716578E+04  0.15294330000E+03 0.  0.
    8880022    1    1    2    0    0  0.13534300026E+04 -0.75818993366E+03  0.73855495379E+03  0.17249579184E+04  0.15294330000E+03 0.  0.
<mgrwt>
<rscale>  0 0.15588510E+04</rscale>
<asrwt>0</asrwt>
<pdfrwt beam="1">  1        2 0.23550669E+00 0.15588510E+04</pdfrwt>
<pdfrwt beam="2">  1       -2 0.38842094E+00 0.15588510E+04</pdfrwt>
<totfact> 0.10078458E-01</totfact>
</mgrwt>
</event>
<event>
 4    1  0.1701380E-008  0.8586266E+03  0.7818608E-02  0.9478831E-01
         -2   -1    0    0    0  501 -0.00000000000E+00  0.00000000000E+00  0.89479182524E+03  0.89479182524E+03  0.25500000000E-02 0.  1.
          2   -1    0    0  501    0  0.00000000000E+00 -0.00000000000E+00 -0.17987917643E+04  0.17987917643E+04  0.25500000000E-02 0. -1.
    8880022    1    1    2    0    0 -0.80365280895E+03  0.26074922856E+03  0.53947800979E+03  0.10140395326E+04  0.15294330000E+03 0.  0.
    8880022    1    1    2    0    0  0.80365280895E+03 -0.26074922856E+03 -0.14434779488E+04  0.16795440570E+04  0.15294330000E+03 0.  0.
<mgrwt>
<rscale>  0 0.85862661E+03</rscale>
<asrwt>0</asrwt>
<pdfrwt beam="1">  1        2 0.27673719E+00 0.85862661E+03</pdfrwt>
<pdfrwt beam="2">  1       -2 0.13766028E+00 0.85862661E+03</pdfrwt>
<totfact> 0.32906356E+00</totfact>
</mgrwt>
</event>
<event>
 4    1  0.1701380E-008  0.7352501E+03  0.7818608E-02  0.9658779E-01
          2   -1    0    0  501    0  0.00000000000E+00  0.00000000000E+00  0.35085051957E+04  0.35085051957E+04  0.25500000000E-02 0. -1.
         -2   -1    0    0    0  501 -0.00000000000E+00 -0.00000000000E+00 -0.56509188574E+03  0.56509188575E+03  0.25500000000E-02 0.  1.
    8880022    1    1    2    0    0  0.68489204755E+03 -0.21937172926E+03  0.32087689442E+04  0.32919281375E+04  0.15294330000E+03 0.  0.
    8880022    1    1    2    0    0 -0.68489204755E+03  0.21937172926E+03 -0.26535563416E+03  0.78166894399E+03  0.15294330000E+03 0.  0.
<mgrwt>
<rscale>  0 0.73525011E+03</rscale>
<asrwt>0</asrwt>
<pdfrwt beam="1">  1        2 0.53977003E+00 0.73525011E+03</pdfrwt>
<pdfrwt beam="2">  1       -2 0.86937213E-01 0.73525011E+03</pdfrwt>
<totfact> 0.10027410E+00</totfact>
</mgrwt>
</event>
<event>
 4    1  0.1701380E-008  0.1305395E+04  0.7818608E-02  0.9025298E-01
          2   -1    0    0  501    0  0.00000000000E+00  0.00000000000E+00  0.20169203890E+04  0.20169203890E+04  0.25500000000E-02 0. -1.
         -2   -1    0    0    0  501 -0.00000000000E+00 -0.00000000000E+00 -0.89710758108E+03  0.89710758108E+03  0.25500000000E-02 0.  1.
    8880022    1    1    2    0    0  0.11320150241E+04  0.63182816602E+03  0.91145855701E+03  0.15921096697E+04  0.15294330000E+03 0.  0.
    8880022    1    1    2    0    0 -0.11320150241E+04 -0.63182816602E+03  0.20835425092E+03  0.13219183004E+04  0.15294330000E+03 0.  0.
<mgrwt>
<rscale>  0 0.13053952E+04</rscale>
<asrwt>0</asrwt>
<pdfrwt beam="1">  1        2 0.31029544E+00 0.13053952E+04</pdfrwt>
<pdfrwt beam="2">  1       -2 0.13801655E+00 0.13053952E+04</pdfrwt>
<totfact> 0.23483347E+00</totfact>
</mgrwt>
</event>
<event>
 4    1  0.1701380E-008  0.1029742E+04  0.7818608E-02  0.9276513E-01
         -2   -1    0    0    0  501 -0.00000000000E+00  0.00000000000E+00  0.14088659490E+04  0.14088659490E+04  0.25500000000E-02 0.  1.
          2   -1    0    0  501    0  0.00000000000E+00 -0.00000000000E+00 -0.23083872283E+04  0.23083872283E+04  0.25500000000E-02 0. -1.
    8880022    1    1    2    0    0 -0.85418201915E+03  0.55439175315E+03 -0.19755948219E+04  0.22278562995E+04  0.15294330000E+03 0.  0.
    8880022    1    1    2    0    0  0.85418201915E+03 -0.55439175315E+03  0.10760735426E+04  0.14893968779E+04  0.15294330000E+03 0.  0.
<mgrwt>
<rscale>  0 0.10297421E+04</rscale>
<asrwt>0</asrwt>
<pdfrwt beam="1">  1        2 0.35513650E+00 0.10297421E+04</pdfrwt>
<pdfrwt beam="2">  1       -2 0.21674861E+00 0.10297421E+04</pdfrwt>
<totfact> 0.46452276E-01</totfact>
</mgrwt>
</event>
<event>
 4    1  0.1701380E-008  0.1719071E+04  0.7818608E-02  0.8750561E-01
          2   -1    0    0  501    0  0.00000000000E+00  0.00000000000E+00  0.23654483195E+04  0.23654483195E+04  0.25500000000E-02 0. -1.
         -2   -1    0    0    0  501 -0.00000000000E+00 -0.00000000000E+00 -0.16764455435E+04  0.16764455435E+04  0.25500000000E-02 0.  1.
    8880022    1    1    2    0    0 -0.34012955381E+03  0.16781318323E+04 -0.67558517800E+03  0.18470575372E+04  0.15294330000E+03 0.  0.
    8880022    1    1    2    0    0  0.34012955381E+03 -0.16781318323E+04  0.13645879540E+04  0.21948363258E+04  0.15294330000E+03 0.  0.
<mgrwt>
<rscale>  0 0.17190713E+04</rscale>
<asrwt>0</asrwt>
<pdfrwt beam="1">  1        2 0.36391513E+00 0.17190713E+04</pdfrwt>
<pdfrwt beam="2">  1       -2 0.25791470E+00 0.17190713E+04</pdfrwt>
<totfact> 0.21868259E-01</totfact>
</mgrwt>
</event>
<event>
 4    1  0.1701380E-008  0.6688360E+03  0.7818608E-02  0.9772063E-01
         -2   -1    0    0    0  501 -0.00000000000E+00  0.00000000000E+00  0.25447024560E+03  0.25447024561E+03  0.25500000000E-02 0.  1.
          2   -1    0    0  501    0  0.00000000000E+00 -0.00000000000E+00 -0.20488890795E+04  0.20488890795E+04  0.25500000000E-02 0. -1.
    8880022    1    1    2    0    0 -0.72549053565E+02  0.64705999007E+03 -0.13312058622E+04  0.14897820970E+04  0.15294330000E+03 0.  0.
    8880022    1    1    2    0    0  0.72549053565E+02 -0.64705999007E+03 -0.46321297165E+03  0.81357722807E+03  0.15294330000E+03 0.  0.
<mgrwt>
<rscale>  0 0.66883604E+03</rscale>
<asrwt>0</asrwt>
<pdfrwt beam="1">  1        2 0.31521370E+00 0.66883604E+03</pdfrwt>
<pdfrwt beam="2">  1       -2 0.39149270E-01 0.66883604E+03</pdfrwt>
<totfact> 0.40383908E+01</totfact>
</mgrwt>
</event>
<event>
 4    1  0.1701380E-008  0.7522655E+03  0.7818608E-02  0.9631803E-01
         -2   -1    0    0    0  501 -0.00000000000E+00  0.00000000000E+00  0.78239552463E+03  0.78239552464E+03  0.25500000000E-02 0.  1.
          2   -1    0    0  501    0  0.00000000000E+00 -0.00000000000E+00 -0.11035643507E+04  0.11035643507E+04  0.25500000000E-02 0. -1.
    8880022    1    1    2    0    0 -0.48174504363E+03 -0.55716555450E+03  0.39295535535E+03  0.84871509147E+03  0.15294330000E+03 0.  0.
    8880022    1    1    2    0    0  0.48174504363E+03  0.55716555450E+03 -0.71412418145E+03  0.10372447839E+04  0.15294330000E+03 0.  0.
<mgrwt>
<rscale>  0 0.75226551E+03</rscale>
<asrwt>0</asrwt>
<pdfrwt beam="1">  1        2 0.16977913E+00 0.75226551E+03</pdfrwt>
<pdfrwt beam="2">  1       -2 0.12036854E+00 0.75226551E+03</pdfrwt>
<totfact> 0.11629049E+01</totfact>
</mgrwt>
</event>
<event>
 4    1  0.1701380E-008  0.4925932E+03  0.7818608E-02  0.1015730E+00
          2   -1    0    0  501    0  0.00000000000E+00  0.00000000000E+00  0.37497281706E+03  0.37497281707E+03  0.25500000000E-02 0. -1.
         -2   -1    0    0    0  501 -0.00000000000E+00 -0.00000000000E+00 -0.94959113272E+03  0.94959113273E+03  0.25500000000E-02 0.  1.
    8880022    1    1    2    0    0 -0.45708819796E+03  0.10162089629E+03  0.86478420134E+02  0.50012658142E+03  0.15294330000E+03 0.  0.
    8880022    1    1    2    0    0  0.45708819796E+03 -0.10162089629E+03 -0.66109673580E+03  0.82443736838E+03  0.15294330000E+03 0.  0.
<mgrwt>
<rscale>  0 0.49259322E+03</rscale>
<asrwt>0</asrwt>
<pdfrwt beam="1">  1        2 0.57688126E-01 0.49259322E+03</pdfrwt>
<pdfrwt beam="2">  1       -2 0.14609094E+00 0.49259322E+03</pdfrwt>
<totfact> 0.28476709E+01</totfact>
</mgrwt>
</event>
<event>
 4    1  0.1701380E-008  0.1993000E+04  0.7818608E-02  0.8609901E-01
          2   -1    0    0  501    0  0.00000000000E+00  0.00000000000E+00  0.32763525802E+04  0.32763525802E+04  0.25500000000E-02 0. -1.
         -2   -1    0    0    0  501 -0.00000000000E+00 -0.00000000000E+00 -0.14909803581E+04  0.14909803581E+04  0.25500000000E-02 0.  1.
    8880022    1    1    2    0    0  0.34606716199E+03 -0.19567558168E+04  0.19231503436E+04  0.27695766291E+04  0.15294330000E+03 0.  0.
    8880022    1    1    2    0    0 -0.34606716199E+03  0.19567558168E+04 -0.13777812157E+03  0.19977563092E+04  0.15294330000E+03 0.  0.
<mgrwt>
<rscale>  0 0.19929996E+04</rscale>
<asrwt>0</asrwt>
<pdfrwt beam="1">  1        2 0.50405424E+00 0.19929996E+04</pdfrwt>
<pdfrwt beam="2">  1       -2 0.22938160E+00 0.19929996E+04</pdfrwt>
<totfact> 0.88741326E-02</totfact>
</mgrwt>
</event>
<event>
 4    1  0.1701380E-008  0.1570028E+04  0.7818608E-02  0.8839175E-01
         -2   -1    0    0    0  501 -0.00000000000E+00  0.00000000000E+00  0.13278037042E+04  0.13278037042E+04  0.25500000000E-02 0.  1.
          2   -1    0    0  501    0  0.00000000000E+00 -0.00000000000E+00 -0.21970133482E+04  0.21970133482E+04  0.25500000000E-02 0. -1.
    8880022    1    1    2    0    0  0.15503920061E+04  0.19463340754E+03  0.25929208582E+03  0.15912955648E+04  0.15294330000E+03 0.  0.
    8880022    1    1    2    0    0 -0.15503920061E+04 -0.19463340754E+03 -0.11285017298E+04  0.19335214876E+04  0.15294330000E+03 0.  0.
<mgrwt>
<rscale>  0 0.15700284E+04</rscale>
<asrwt>0</asrwt>
<pdfrwt beam="1">  1        2 0.33800205E+00 0.15700284E+04</pdfrwt>
<pdfrwt beam="2">  1       -2 0.20427749E+00 0.15700284E+04</pdfrwt>
<totfact> 0.60259038E-01</totfact>
</mgrwt>
</event>
<event>
 4    1  0.1701380E-008  0.4190075E+03  0.7818608E-02  0.1037390E+00
         -2   -1    0    0    0  501 -0.00000000000E+00  0.00000000000E+00  0.38450079323E+03  0.38450079324E+03  0.25500000000E-02 0.  1.
          2   -1    0    0  501    0  0.00000000000E+00 -0.00000000000E+00 -0.15800750657E+04  0.15800750657E+04  0.25500000000E-02 0. -1.
    8880022    1    1    2    0    0 -0.16654564042E+03 -0.35275794183E+03  0.23049739740E+03  0.47822203953E+03  0.15294330000E+03 0.  0.
    8880022    1    1    2    0    0  0.16654564042E+03  0.35275794183E+03 -0.14260716698E+04  0.14863538194E+04  0.15294330000E+03 0. -1.
<mgrwt>
<rscale>  0 0.41900748E+03</rscale>
<asrwt>0</asrwt>
<pdfrwt beam="1">  1        2 0.24308847E+00 0.41900748E+03</pdfrwt>
<pdfrwt beam="2">  1       -2 0.59153969E-01 0.41900748E+03</pdfrwt>
<totfact> 0.32930693E+01</totfact>
</mgrwt>
</event>
<event>
 4    1  0.1701380E-008  0.1154617E+04  0.7818608E-02  0.9153535E-01
         -2   -1    0    0    0  501 -0.00000000000E+00  0.00000000000E+00  0.95897883512E+03  0.95897883513E+03  0.25500000000E-02 0.  1.
          2   -1    0    0  501    0  0.00000000000E+00 -0.00000000000E+00 -0.16170170713E+04  0.16170170713E+04  0.25500000000E-02 0. -1.
    8880022    1    1    2    0    0 -0.11026412718E+04 -0.30648045964E+03 -0.81144251175E+03  0.14112330245E+04  0.15294330000E+03 0.  0.
    8880022    1    1    2    0    0  0.11026412718E+04  0.30648045964E+03  0.15340427558E+03  0.11647628820E+04  0.15294330000E+03 0.  0.
<mgrwt>
<rscale>  0 0.11546167E+04</rscale>
<asrwt>0</asrwt>
<pdfrwt beam="1">  1        2 0.24877186E+00 0.11546167E+04</pdfrwt>
<pdfrwt beam="2">  1       -2 0.14753521E+00 0.11546167E+04</pdfrwt>
<totfact> 0.33359060E+00</totfact>
</mgrwt>
</event>
<event>
 4    1  0.2239474E-008  0.1927028E+04  0.7818608E-02  0.8641519E-01
          2   -1    0    0  501    0  0.00000000000E+00  0.00000000000E+00  0.29630760677E+04  0.29630760677E+04  0.25500000000E-02 0. -1.
         -2   -1    0    0    0  501 -0.00000000000E+00 -0.00000000000E+00 -0.27429556435E+04  0.27429556435E+04  0.25500000000E-02 0.  1.
    8880022    1    1    2    0    0  0.47486222858E+03 -0.18613300482E+04 -0.19924929212E+04  0.27719060913E+04  0.15294330000E+03 0.  0.
    8880022    1    1    2    0    0 -0.47486222858E+03  0.18613300482E+04  0.22126133455E+04  0.29341256200E+04  0.15294330000E+03 0.  0.
<mgrwt>
<rscale>  0 0.19270276E+04</rscale>
<asrwt>0</asrwt>
<pdfrwt beam="1">  1        2 0.45585786E+00 0.19270276E+04</pdfrwt>
<pdfrwt beam="2">  1       -2 0.42199318E+00 0.19270276E+04</pdfrwt>
<totfact> 0.86576645E-03</totfact>
</mgrwt>
</event>
<event>
 4    1  0.1701380E-008  0.1448997E+04  0.7818608E-02  0.8919096E-01
          2   -1    0    0  501    0  0.00000000000E+00  0.00000000000E+00  0.24746117990E+04  0.24746117990E+04  0.25500000000E-02 0. -1.
         -2   -1    0    0    0  501 -0.00000000000E+00 -0.00000000000E+00 -0.21164235294E+04  0.21164235294E+04  0.25500000000E-02 0.  1.
    8880022    1    1    2    0    0  0.14408613776E+04  0.10943424933E+02  0.19558749286E+04  0.24341404350E+04  0.15294330000E+03 0.  0.
    8880022    1    1    2    0    0 -0.14408613776E+04 -0.10943424933E+02 -0.15976866590E+04  0.21568948934E+04  0.15294330000E+03 0.  0.
<mgrwt>
<rscale>  0 0.14489972E+04</rscale>
<asrwt>0</asrwt>
<pdfrwt beam="1">  1        2 0.38070951E+00 0.14489972E+04</pdfrwt>
<pdfrwt beam="2">  1       -2 0.32560362E+00 0.14489972E+04</pdfrwt>
<totfact> 0.75274093E-02</totfact>
</mgrwt>
</event>
<event>
 4    1  0.1701380E-008  0.1767266E+04  0.7818608E-02  0.8723903E-01
          2   -1    0    0  501    0  0.00000000000E+00  0.00000000000E+00  0.29986333282E+04  0.29986333282E+04  0.25500000000E-02 0. -1.
         -2   -1    0    0    0  501 -0.00000000000E+00 -0.00000000000E+00 -0.11039123946E+04  0.11039123946E+04  0.25500000000E-02 0.  1.
    8880022    1    1    2    0    0  0.80975357307E+03  0.15633739926E+04  0.45981778273E+03  0.18261060035E+04  0.15294330000E+03 0.  0.
    8880022    1    1    2    0    0 -0.80975357307E+03 -0.15633739926E+04  0.14349031509E+04  0.22764397192E+04  0.15294330000E+03 0.  0.
<mgrwt>
<rscale>  0 0.17672665E+04</rscale>
<asrwt>0</asrwt>
<pdfrwt beam="1">  1        2 0.46132821E+00 0.17672665E+04</pdfrwt>
<pdfrwt beam="2">  1       -2 0.16983267E+00 0.17672665E+04</pdfrwt>
<totfact> 0.34243828E-01</totfact>
</mgrwt>
</event>
<event>
 4    1  0.1701380E-008  0.6651312E+03  0.7818608E-02  0.9778794E-01
          2   -1    0    0  501    0  0.00000000000E+00  0.00000000000E+00  0.25987546311E+04  0.25987546311E+04  0.25500000000E-02 0. -1.
         -2   -1    0    0    0  501 -0.00000000000E+00 -0.00000000000E+00 -0.75186744747E+03  0.75186744748E+03  0.25500000000E-02 0.  1.
    8880022    1    1    2    0    0  0.17477185264E+03 -0.62326768266E+03  0.23969399128E+04  0.24875128951E+04  0.15294330000E+03 0.  0.
    8880022    1    1    2    0    0 -0.17477185264E+03  0.62326768266E+03 -0.55005272917E+03  0.86310918348E+03  0.15294330000E+03 0.  0.
<mgrwt>
<rscale>  0 0.66513116E+03</rscale>
<asrwt>0</asrwt>
<pdfrwt beam="1">  1        2 0.39980840E+00 0.66513116E+03</pdfrwt>
<pdfrwt beam="2">  1       -2 0.11567192E+00 0.66513116E+03</pdfrwt>
<totfact> 0.19020753E+00</totfact>
</mgrwt>
</event>
<event>
 4    1  0.1701380E-008  0.6992182E+03  0.7818608E-02  0.9718570E-01
          2   -1    0    0  501    0  0.00000000000E+00  0.00000000000E+00  0.45120467719E+03  0.45120467720E+03  0.25500000000E-02 0. -1.
         -2   -1    0    0    0  501 -0.00000000000E+00 -0.00000000000E+00 -0.14789714949E+04  0.14789714949E+04  0.25500000000E-02 0.  1.
    8880022    1    1    2    0    0  0.61237242024E+03  0.30085621325E+03 -0.14868854117E+02  0.69937627780E+03  0.15294330000E+03 0.  0.
    8880022    1    1    2    0    0 -0.61237242024E+03 -0.30085621325E+03 -0.10128979636E+04  0.12307998943E+04  0.15294330000E+03 0.  1.
<mgrwt>
<rscale>  0 0.69921820E+03</rscale>
<asrwt>0</asrwt>
<pdfrwt beam="1">  1        2 0.69416105E-01 0.69921820E+03</pdfrwt>
<pdfrwt beam="2">  1       -2 0.22753407E+00 0.69921820E+03</pdfrwt>
<totfact> 0.63294970E+00</totfact>
</mgrwt>
</event>
<event>
 4    1  0.1701380E-008  0.1039808E+04  0.7818608E-02  0.9265931E-01
         -2   -1    0    0    0  501 -0.00000000000E+00  0.00000000000E+00  0.89739771534E+03  0.89739771535E+03  0.25500000000E-02 0.  1.
          2   -1    0    0  501    0  0.00000000000E+00 -0.00000000000E+00 -0.17779039207E+04  0.17779039207E+04  0.25500000000E-02 0. -1.
    8880022    1    1    2    0    0 -0.76583938557E+03 -0.68651182074E+03  0.31919627873E+03  0.10876977346E+04  0.15294330000E+03 0.  0.
    8880022    1    1    2    0    0  0.76583938557E+03  0.68651182074E+03 -0.11997024841E+04  0.15876039015E+04  0.15294330000E+03 0.  0.
<mgrwt>
<rscale>  0 0.10398077E+04</rscale>
<asrwt>0</asrwt>
<pdfrwt beam="1">  1        2 0.27352368E+00 0.10398077E+04</pdfrwt>
<pdfrwt beam="2">  1       -2 0.13806119E+00 0.10398077E+04</pdfrwt>
<totfact> 0.32744962E+00</totfact>
</mgrwt>
</event>
<event>
 4    1  0.1701380E-008  0.1557101E+04  0.7818608E-02  0.8847345E-01
         -2   -1    0    0    0  501 -0.00000000000E+00  0.00000000000E+00  0.16275291869E+04  0.16275291869E+04  0.25500000000E-02 0.  1.
          2   -1    0    0  501    0  0.00000000000E+00 -0.00000000000E+00 -0.16598572971E+04  0.16598572971E+04  0.25500000000E-02 0. -1.
    8880022    1    1    2    0    0  0.37741302088E+03 -0.15029076294E+04 -0.54240486919E+03  0.16488682864E+04  0.15294330000E+03 0.  0.
    8880022    1    1    2    0    0 -0.37741302088E+03  0.15029076294E+04  0.51007675899E+03  0.16385181976E+04  0.15294330000E+03 0.  0.
<mgrwt>
<rscale>  0 0.15571010E+04</rscale>
<asrwt>0</asrwt>
<pdfrwt beam="1">  1        2 0.25536266E+00 0.15571010E+04</pdfrwt>
<pdfrwt beam="2">  1       -2 0.25038910E+00 0.15571010E+04</pdfrwt>
<totfact> 0.61621210E-01</totfact>
</mgrwt>
</event>
<event>
 4    1  0.1701380E-008  0.5134401E+03  0.7818608E-02  0.1010329E+00
          2   -1    0    0  501    0  0.00000000000E+00  0.00000000000E+00  0.84115726361E+03  0.84115726361E+03  0.25500000000E-02 0. -1.
         -2   -1    0    0    0  501 -0.00000000000E+00 -0.00000000000E+00 -0.54842529179E+03  0.54842529180E+03  0.25500000000E-02 0.  1.
    8880022    1    1    2    0    0  0.17155134909E+03 -0.45912872665E+03 -0.30846568945E+03  0.59897561519E+03  0.15294330000E+03 0.  0.
    8880022    1    1    2    0    0 -0.17155134909E+03  0.45912872665E+03  0.60119766127E+03  0.79060694022E+03  0.15294330000E+03 0.  0.
<mgrwt>
<rscale>  0 0.51344007E+03</rscale>
<asrwt>0</asrwt>
<pdfrwt beam="1">  1        2 0.12940881E+00 0.51344007E+03</pdfrwt>
<pdfrwt beam="2">  1       -2 0.84373122E-01 0.51344007E+03</pdfrwt>
<totfact> 0.40990971E+01</totfact>
</mgrwt>
</event>
<event>
 4    1  0.1701380E-008  0.2072129E+04  0.7818608E-02  0.8573621E-01
         -2   -1    0    0    0  501 -0.00000000000E+00  0.00000000000E+00  0.37168663451E+04  0.37168663451E+04  0.25500000000E-02 0.  1.
          2   -1    0    0  501    0  0.00000000000E+00 -0.00000000000E+00 -0.17009146057E+04  0.17009146057E+04  0.25500000000E-02 0. -1.
    8880022    1    1    2    0    0  0.23394311144E+03  0.20531923476E+04 -0.52640588058E+03  0.21379483155E+04  0.15294330000E+03 0.  0.
    8880022    1    1    2    0    0 -0.23394311144E+03 -0.20531923476E+04  0.25423576200E+04  0.32798326354E+04  0.15294330000E+03 0.  0.
<mgrwt>
<rscale>  0 0.20721293E+04</rscale>
<asrwt>0</asrwt>
<pdfrwt beam="1">  1        2 0.26167917E+00 0.20721293E+04</pdfrwt>
<pdfrwt beam="2">  1       -2 0.57182559E+00 0.20721293E+04</pdfrwt>
<totfact> 0.56326461E-03</totfact>
</mgrwt>
</event>
<event>
 4    1  0.1701380E-008  0.7872361E+03  0.7818608E-02  0.9578678E-01
         -2   -1    0    0    0  501 -0.00000000000E+00  0.00000000000E+00  0.56429668019E+03  0.56429668020E+03  0.25500000000E-02 0.  1.
          2   -1    0    0  501    0  0.00000000000E+00 -0.00000000000E+00 -0.13382394101E+04  0.13382394101E+04  0.25500000000E-02 0. -1.
    8880022    1    1    2    0    0  0.26396160190E+03  0.72572262721E+03 -0.78980805648E+03  0.11151401159E+04  0.15294330000E+03 0.  0.
    8880022    1    1    2    0    0 -0.26396160190E+03 -0.72572262721E+03  0.15865326587E+02  0.78739597442E+03  0.15294330000E+03 0.  0.
<mgrwt>
<rscale>  0 0.78723612E+03</rscale>
<asrwt>0</asrwt>
<pdfrwt beam="1">  1        2 0.20588299E+00 0.78723612E+03</pdfrwt>
<pdfrwt beam="2">  1       -2 0.86814874E-01 0.78723612E+03</pdfrwt>
<totfact> 0.18337877E+01</totfact>
</mgrwt>
</event>
<event>
 4    1  0.1701380E-008  0.7190677E+03  0.7818608E-02  0.9685168E-01
         -2   -1    0    0    0  501 -0.00000000000E+00  0.00000000000E+00  0.13743357151E+04  0.13743357151E+04  0.25500000000E-02 0.  1.
          2   -1    0    0  501    0  0.00000000000E+00 -0.00000000000E+00 -0.50056910261E+03  0.50056910261E+03  0.25500000000E-02 0. -1.
    8880022    1    1    2    0    0 -0.70225491044E+03  0.22467413575E+02  0.90411376803E+03  0.11551969973E+04  0.15294330000E+03 0.  0.
    8880022    1    1    2    0    0  0.70225491044E+03 -0.22467413575E+02 -0.30347155570E+02  0.71970782043E+03  0.15294330000E+03 0.  0.
<mgrwt>
<rscale>  0 0.71906773E+03</rscale>
<asrwt>0</asrwt>
<pdfrwt beam="1">  1        2 0.77010632E-01 0.71906773E+03</pdfrwt>
<pdfrwt beam="2">  1       -2 0.21143626E+00 0.71906773E+03</pdfrwt>
<totfact> 0.70662321E+00</totfact>
</mgrwt>
</event>
<event>
 4    1  0.1701380E-008  0.2274409E+03  0.7818608E-02  0.1128454E+00
          2   -1    0    0  501    0  0.00000000000E+00  0.00000000000E+00  0.11540516564E+04  0.11540516564E+04  0.25500000000E-02 0. -1.
         -2   -1    0    0    0  501 -0.00000000000E+00 -0.00000000000E+00 -0.14367272919E+03  0.14367272921E+03  0.25500000000E-02 0.  1.
    8880022    1    1    2    0    0 -0.15794966180E+03 -0.58220364130E+02  0.10433979761E+04  0.10678991975E+04  0.15294330000E+03 0.  0.
    8880022    1    1    2    0    0  0.15794966180E+03  0.58220364130E+02 -0.33019048950E+02  0.22982518807E+03  0.15294330000E+03 0.  0.
<mgrwt>
<rscale>  0 0.22744089E+03</rscale>
<asrwt>0</asrwt>
<pdfrwt beam="1">  1        2 0.17754641E+00 0.22744089E+03</pdfrwt>
<pdfrwt beam="2">  1       -2 0.22103497E-01 0.22744089E+03</pdfrwt>
<totfact> 0.37984358E+02</totfact>
</mgrwt>
</event>
<event>
 4    1  0.1701380E-008  0.8837881E+03  0.7818608E-02  0.9446077E-01
         -2   -1    0    0    0  501 -0.00000000000E+00  0.00000000000E+00  0.86511002861E+03  0.86511002861E+03  0.25500000000E-02 0.  1.
          2   -1    0    0  501    0  0.00000000000E+00 -0.00000000000E+00 -0.10553595868E+04  0.10553595868E+04  0.25500000000E-02 0. -1.
    8880022    1    1    2    0    0 -0.18927437237E+03  0.84962634855E+03 -0.46012923136E+03  0.99639363846E+03  0.15294330000E+03 0.  0.
    8880022    1    1    2    0    0  0.18927437237E+03 -0.84962634855E+03  0.26987967316E+03  0.92407597696E+03  0.15294330000E+03 0.  0.
<mgrwt>
<rscale>  0 0.88378808E+03</rscale>
<asrwt>0</asrwt>
<pdfrwt beam="1">  1        2 0.16236301E+00 0.88378808E+03</pdfrwt>
<pdfrwt beam="2">  1       -2 0.13309385E+00 0.88378808E+03</pdfrwt>
<totfact> 0.95310582E+00</totfact>
</mgrwt>
</event>
<event>
 4    1  0.1701380E-008  0.7745995E+03  0.7818608E-02  0.9597529E-01
         -2   -1    0    0    0  501 -0.00000000000E+00  0.00000000000E+00  0.75844514392E+03  0.75844514392E+03  0.25500000000E-02 0.  1.
          2   -1    0    0  501    0  0.00000000000E+00 -0.00000000000E+00 -0.12162385450E+04  0.12162385450E+04  0.25500000000E-02 0. -1.
    8880022    1    1    2    0    0  0.14175116355E+03 -0.74600220852E+03  0.35485006716E+03  0.85201109774E+03  0.15294330000E+03 0.  0.
    8880022    1    1    2    0    0 -0.14175116355E+03  0.74600220852E+03 -0.81264346821E+03  0.11226725912E+04  0.15294330000E+03 0.  0.
<mgrwt>
<rscale>  0 0.77459947E+03</rscale>
<asrwt>0</asrwt>
<pdfrwt beam="1">  1        2 0.18711362E+00 0.77459947E+03</pdfrwt>
<pdfrwt beam="2">  1       -2 0.11668387E+00 0.77459947E+03</pdfrwt>
<totfact> 0.10718059E+01</totfact>
</mgrwt>
</event>
<event>
 4    1  0.1701380E-008  0.8764405E+03  0.7818608E-02  0.9455521E-01
          2   -1    0    0  501    0  0.00000000000E+00  0.00000000000E+00  0.15785030390E+04  0.15785030390E+04  0.25500000000E-02 0. -1.
         -2   -1    0    0    0  501 -0.00000000000E+00 -0.00000000000E+00 -0.12282938025E+04  0.12282938025E+04  0.25500000000E-02 0.  1.
    8880022    1    1    2    0    0 -0.68943462944E+03  0.51907239961E+03 -0.91541432107E+03  0.12673323544E+04  0.15294330000E+03 0.  0.
    8880022    1    1    2    0    0  0.68943462944E+03 -0.51907239961E+03  0.12656235576E+04  0.15394644870E+04  0.15294330000E+03 0.  0.
<mgrwt>
<rscale>  0 0.87644048E+03</rscale>
<asrwt>0</asrwt>
<pdfrwt beam="1">  1        2 0.24284662E+00 0.87644048E+03</pdfrwt>
<pdfrwt beam="2">  1       -2 0.18896828E+00 0.87644048E+03</pdfrwt>
<totfact> 0.18257984E+00</totfact>
</mgrwt>
</event>
<event>
 4    1  0.1701380E-008  0.6399009E+03  0.7818608E-02  0.9825916E-01
         -2   -1    0    0    0  501 -0.00000000000E+00  0.00000000000E+00  0.38121839948E+03  0.38121839949E+03  0.25500000000E-02 0.  1.
          2   -1    0    0  501    0  0.00000000000E+00 -0.00000000000E+00 -0.26851764978E+04  0.26851764978E+04  0.25500000000E-02 0. -1.
    8880022    1    1    2    0    0 -0.27255643147E+03  0.55838559994E+03  0.35613509011E+02  0.64089114645E+03  0.15294330000E+03 0.  0.
    8880022    1    1    2    0    0  0.27255643147E+03 -0.55838559994E+03 -0.23395716073E+04  0.24255037509E+04  0.15294330000E+03 0.  0.
<mgrwt>
<rscale>  0 0.63990088E+03</rscale>
<asrwt>0</asrwt>
<pdfrwt beam="1">  1        2 0.41310407E+00 0.63990088E+03</pdfrwt>
<pdfrwt beam="2">  1       -2 0.58648986E-01 0.63990088E+03</pdfrwt>
<totfact> 0.79330850E+00</totfact>
</mgrwt>
</event>
<event>
 4    1  0.1701380E-008  0.7119006E+03  0.7818608E-02  0.9697094E-01
         -2   -1    0    0    0  501 -0.00000000000E+00  0.00000000000E+00  0.29516501596E+03  0.29516501597E+03  0.25500000000E-02 0.  1.
          2   -1    0    0  501    0  0.00000000000E+00 -0.00000000000E+00 -0.19096298618E+04  0.19096298618E+04  0.25500000000E-02 0. -1.
    8880022    1    1    2    0    0 -0.32539785609E+03  0.61443224278E+03 -0.45711810375E+03  0.84602562579E+03  0.15294330000E+03 0.  0.
    8880022    1    1    2    0    0  0.32539785609E+03 -0.61443224278E+03 -0.11573467421E+04  0.13587692520E+04  0.15294330000E+03 0.  0.
<mgrwt>
<rscale>  0 0.71190055E+03</rscale>
<asrwt>0</asrwt>
<pdfrwt beam="1">  1        2 0.29378920E+00 0.71190055E+03</pdfrwt>
<pdfrwt beam="2">  1       -2 0.45410004E-01 0.71190055E+03</pdfrwt>
<totfact> 0.35701235E+01</totfact>
</mgrwt>
</event>
<event>
 4    1  0.1701380E-008  0.1575334E+04  0.7818608E-02  0.8835846E-01
         -2   -1    0    0    0  501 -0.00000000000E+00  0.00000000000E+00  0.17746396725E+04  0.17746396725E+04  0.25500000000E-02 0.  1.
          2   -1    0    0  501    0  0.00000000000E+00 -0.00000000000E+00 -0.15977261675E+04  0.15977261675E+04  0.25500000000E-02 0. -1.
    8880022    1    1    2    0    0 -0.13330494005E+04  0.82538775458E+03  0.68401283559E+03  0.17174256496E+04  0.15294330000E+03 0.  0.
    8880022    1    1    2    0    0  0.13330494005E+04 -0.82538775458E+03 -0.50709933055E+03  0.16549401904E+04  0.15294330000E+03 0.  0.
<mgrwt>
<rscale>  0 0.15753340E+04</rscale>
<asrwt>0</asrwt>
<pdfrwt beam="1">  1        2 0.24580403E+00 0.15753340E+04</pdfrwt>
<pdfrwt beam="2">  1       -2 0.27302149E+00 0.15753340E+04</pdfrwt>
<totfact> 0.48444910E-01</totfact>
</mgrwt>
</event>
<event>
 4    1  0.1701380E-008  0.4379504E+03  0.7818608E-02  0.1031378E+00
         -2   -1    0    0    0  501 -0.00000000000E+00  0.00000000000E+00  0.14208730607E+04  0.14208730607E+04  0.25500000000E-02 0.  1.
          2   -1    0    0  501    0  0.00000000000E+00 -0.00000000000E+00 -0.19901446207E+04  0.19901446207E+04  0.25500000000E-02 0. -1.
    8880022    1    1    2    0    0 -0.36731741046E+03 -0.18299392848E+03 -0.19312883321E+04  0.19803219770E+04  0.15294330000E+03 0. -1.
    8880022    1    1    2    0    0  0.36731741046E+03  0.18299392848E+03  0.13620167721E+04  0.14306957044E+04  0.15294330000E+03 0.  0.
<mgrwt>
<rscale>  0 0.43795035E+03</rscale>
<asrwt>0</asrwt>
<pdfrwt beam="1">  1        2 0.30617609E+00 0.43795035E+03</pdfrwt>
<pdfrwt beam="2">  1       -2 0.21859586E+00 0.43795035E+03</pdfrwt>
<totfact> 0.78053238E-01</totfact>
</mgrwt>
</event>
<event>
 4    1  0.1701380E-008  0.8506063E+03  0.7818608E-02  0.9489524E-01
         -2   -1    0    0    0  501 -0.00000000000E+00  0.00000000000E+00  0.34610184047E+03  0.34610184048E+03  0.25500000000E-02 0.  1.
          2   -1    0    0  501    0  0.00000000000E+00 -0.00000000000E+00 -0.33121958915E+04  0.33121958915E+04  0.25500000000E-02 0. -1.
    8880022    1    1    2    0    0 -0.70734130133E+03 -0.44699863900E+03 -0.37215997868E+03  0.92845797028E+03  0.15294330000E+03 0.  0.
    8880022    1    1    2    0    0  0.70734130133E+03  0.44699863900E+03 -0.25939340724E+04  0.27298397617E+04  0.15294330000E+03 0.  0.
<mgrwt>
<rscale>  0 0.85060634E+03</rscale>
<asrwt>0</asrwt>
<pdfrwt beam="1">  1        2 0.50956858E+00 0.85060634E+03</pdfrwt>
<pdfrwt beam="2">  1       -2 0.53246439E-01 0.85060634E+03</pdfrwt>
<totfact> 0.38427451E+00</totfact>
</mgrwt>
</event>
<event>
 4    1  0.1701380E-008  0.9235487E+03  0.7818608E-02  0.9396614E-01
          2   -1    0    0  501    0  0.00000000000E+00  0.00000000000E+00  0.26796936047E+04  0.26796936047E+04  0.25500000000E-02 0. -1.
         -2   -1    0    0    0  501 -0.00000000000E+00 -0.00000000000E+00 -0.65720087544E+03  0.65720087545E+03  0.25500000000E-02 0.  1.
    8880022    1    1    2    0    0  0.19630913925E+03 -0.88938931404E+03  0.22093675811E+04  0.23946288630E+04  0.15294330000E+03 0.  0.
    8880022    1    1    2    0    0 -0.19630913925E+03  0.88938931404E+03 -0.18687485180E+03  0.94226561719E+03  0.15294330000E+03 0.  0.
<mgrwt>
<rscale>  0 0.92354874E+03</rscale>
<asrwt>0</asrwt>
<pdfrwt beam="1">  1        2 0.41226055E+00 0.92354874E+03</pdfrwt>
<pdfrwt beam="2">  1       -2 0.10110783E+00 0.92354874E+03</pdfrwt>
<totfact> 0.22499378E+00</totfact>
</mgrwt>
</event>
<event>
 4    1  0.1701380E-008  0.7324122E+03  0.7818608E-02  0.9663354E-01
          2   -1    0    0  501    0  0.00000000000E+00  0.00000000000E+00  0.12760148583E+04  0.12760148583E+04  0.25500000000E-02 0. -1.
         -2   -1    0    0    0  501 -0.00000000000E+00 -0.00000000000E+00 -0.55448044450E+03  0.55448044451E+03  0.25500000000E-02 0.  1.
    8880022    1    1    2    0    0 -0.29474138873E+03  0.65281194353E+03 -0.89312821914E+02  0.73783761968E+03  0.15294330000E+03 0.  0.
    8880022    1    1    2    0    0  0.29474138873E+03 -0.65281194353E+03  0.81084723576E+03  0.10926576832E+04  0.15294330000E+03 0.  0.
<mgrwt>
<rscale>  0 0.73241216E+03</rscale>
<asrwt>0</asrwt>
<pdfrwt beam="1">  1        2 0.19630997E+00 0.73241216E+03</pdfrwt>
<pdfrwt beam="2">  1       -2 0.85304686E-01 0.73241216E+03</pdfrwt>
<totfact> 0.20860384E+01</totfact>
</mgrwt>
</event>
<event>
 4    1  0.1701380E-008  0.3791747E+03  0.7818608E-02  0.1051239E+00
          2   -1    0    0  501    0  0.00000000000E+00  0.00000000000E+00  0.57130854437E+03  0.57130854438E+03  0.25500000000E-02 0. -1.
         -2   -1    0    0    0  501 -0.00000000000E+00 -0.00000000000E+00 -0.82942530633E+03  0.82942530634E+03  0.25500000000E-02 0.  1.
    8880022    1    1    2    0    0 -0.34408551529E+03  0.44575224560E+02  0.45548140258E+03  0.59265230413E+03  0.15294330000E+03 0.  0.
    8880022    1    1    2    0    0  0.34408551529E+03 -0.44575224560E+02 -0.71359816454E+03  0.80808154659E+03  0.15294330000E+03 0.  0.
<mgrwt>
<rscale>  0 0.37917469E+03</rscale>
<asrwt>0</asrwt>
<pdfrwt beam="1">  1        2 0.87893623E-01 0.37917469E+03</pdfrwt>
<pdfrwt beam="2">  1       -2 0.12760389E+00 0.37917469E+03</pdfrwt>
<totfact> 0.25331147E+01</totfact>
</mgrwt>
</event>
<event>
 4    1  0.1701380E-008  0.8275965E+03  0.7818608E-02  0.9520909E-01
         -2   -1    0    0    0  501 -0.00000000000E+00  0.00000000000E+00  0.80443097245E+03  0.80443097246E+03  0.25500000000E-02 0.  1.
          2   -1    0    0  501    0  0.00000000000E+00 -0.00000000000E+00 -0.11555287143E+04  0.11555287143E+04  0.25500000000E-02 0. -1.
    8880022    1    1    2    0    0  0.45863542771E+03 -0.67169772590E+03  0.32718101383E+03  0.88992323228E+03  0.15294330000E+03 0.  0.
    8880022    1    1    2    0    0 -0.45863542771E+03  0.67169772590E+03 -0.67827875571E+03  0.10700364545E+04  0.15294330000E+03 0.  0.
<mgrwt>
<rscale>  0 0.82759649E+03</rscale>
<asrwt>0</asrwt>
<pdfrwt beam="1">  1        2 0.17777365E+00 0.82759649E+03</pdfrwt>
<pdfrwt beam="2">  1       -2 0.12375861E+00 0.82759649E+03</pdfrwt>
<totfact> 0.10003161E+01</totfact>
</mgrwt>
</event>
<event>
 4    1  0.1701380E-008  0.3983336E+03  0.7818608E-02  0.1044358E+00
          2   -1    0    0  501    0  0.00000000000E+00  0.00000000000E+00  0.63749524010E+03  0.63749524010E+03  0.25500000000E-02 0. -1.
         -2   -1    0    0    0  501 -0.00000000000E+00 -0.00000000000E+00 -0.41857192656E+03  0.41857192656E+03  0.25500000000E-02 0.  1.
    8880022    1    1    2    0    0 -0.23272045512E+03 -0.28481426178E+03 -0.22673035550E+03  0.45834079140E+03  0.15294330000E+03 0.  0.
    8880022    1    1    2    0    0  0.23272045512E+03  0.28481426178E+03  0.44565366905E+03  0.59772637527E+03  0.15294330000E+03 0.  0.
<mgrwt>
<rscale>  0 0.39833356E+03</rscale>
<asrwt>0</asrwt>
<pdfrwt beam="1">  1        2 0.98076191E-01 0.39833356E+03</pdfrwt>
<pdfrwt beam="2">  1       -2 0.64395681E-01 0.39833356E+03</pdfrwt>
<totfact> 0.10662623E+02</totfact>
</mgrwt>
</event>
<event>
 4    1  0.1701380E-008  0.3711249E+03  0.7818608E-02  0.1054264E+00
         -2   -1    0    0    0  501 -0.00000000000E+00  0.00000000000E+00  0.83029710211E+02  0.83029710250E+02  0.25500000000E-02 0.  1.
          2   -1    0    0  501    0  0.00000000000E+00 -0.00000000000E+00 -0.25572111579E+04  0.25572111579E+04  0.25500000000E-02 0. -1.
    8880022    1    1    2    0    0 -0.33639803539E+03 -0.34327846959E+02 -0.45464151429E+03  0.58688380351E+03  0.15294330000E+03 0.  0.
    8880022    1    1    2    0    0  0.33639803539E+03  0.34327846959E+02 -0.20195399334E+04  0.20533570646E+04  0.15294330000E+03 0.  0.
<mgrwt>
<rscale>  0 0.37112490E+03</rscale>
<asrwt>0</asrwt>
<pdfrwt beam="1">  1        2 0.39341704E+00 0.37112490E+03</pdfrwt>
<pdfrwt beam="2">  1       -2 0.12773804E-01 0.37112490E+03</pdfrwt>
<totfact> 0.16288438E+02</totfact>
</mgrwt>
</event>
<event>
 4    1  0.1701380E-008  0.1282799E+04  0.7818608E-02  0.9043318E-01
         -2   -1    0    0    0  501 -0.00000000000E+00  0.00000000000E+00  0.69277995226E+03  0.69277995226E+03  0.25500000000E-02 0.  1.
          2   -1    0    0  501    0  0.00000000000E+00 -0.00000000000E+00 -0.25508611981E+04  0.25508611981E+04  0.25500000000E-02 0. -1.
    8880022    1    1    2    0    0  0.12611417048E+04 -0.17805151208E+03 -0.13544939512E+04  0.18655364530E+04  0.15294330000E+03 0.  0.
    8880022    1    1    2    0    0 -0.12611417048E+04  0.17805151208E+03 -0.50358729460E+03  0.13781046973E+04  0.15294330000E+03 0.  0.
<mgrwt>
<rscale>  0 0.12827987E+04</rscale>
<asrwt>0</asrwt>
<pdfrwt beam="1">  1        2 0.39244018E+00 0.12827987E+04</pdfrwt>
<pdfrwt beam="2">  1       -2 0.10658153E+00 0.12827987E+04</pdfrwt>
<totfact> 0.22453526E+00</totfact>
</mgrwt>
</event>
<event>
 4    1  0.1701380E-008  0.2618014E+03  0.7818608E-02  0.1106066E+00
          2   -1    0    0  501    0  0.00000000000E+00  0.00000000000E+00  0.15522678996E+04  0.15522678996E+04  0.25500000000E-02 0. -1.
         -2   -1    0    0    0  501 -0.00000000000E+00 -0.00000000000E+00 -0.39641500378E+03  0.39641500379E+03  0.25500000000E-02 0.  1.
    8880022    1    1    2    0    0 -0.13636750121E+03  0.16294859667E+03  0.14964027645E+04  0.15191317346E+04  0.15294330000E+03 0.  0.
    8880022    1    1    2    0    0  0.13636750121E+03 -0.16294859667E+03 -0.34054986866E+03  0.42955116878E+03  0.15294330000E+03 0.  0.
<mgrwt>
<rscale>  0 0.26180144E+03</rscale>
<asrwt>0</asrwt>
<pdfrwt beam="1">  1        2 0.23881044E+00 0.26180144E+03</pdfrwt>
<pdfrwt beam="2">  1       -2 0.60986924E-01 0.26180144E+03</pdfrwt>
<totfact> 0.33345622E+01</totfact>
</mgrwt>
</event>
<event>
 4    1  0.1701380E-008  0.8615905E+03  0.7818608E-02  0.9474911E-01
          2   -1    0    0  501    0  0.00000000000E+00  0.00000000000E+00  0.26768115542E+04  0.26768115542E+04  0.25500000000E-02 0. -1.
         -2   -1    0    0    0  501 -0.00000000000E+00 -0.00000000000E+00 -0.35555987302E+03  0.35555987303E+03  0.25500000000E-02 0.  1.
    8880022    1    1    2    0    0 -0.63800221929E+03  0.55847985449E+03  0.18718476507E+04  0.20606192905E+04  0.15294330000E+03 0.  0.
    8880022    1    1    2    0    0  0.63800221929E+03 -0.55847985449E+03  0.44940403045E+03  0.97175213676E+03  0.15294330000E+03 0.  0.
<mgrwt>
<rscale>  0 0.86159052E+03</rscale>
<asrwt>0</asrwt>
<pdfrwt beam="1">  1        2 0.41181715E+00 0.86159052E+03</pdfrwt>
<pdfrwt beam="2">  1       -2 0.54701521E-01 0.86159052E+03</pdfrwt>
<totfact> 0.89223092E+00</totfact>
</mgrwt>
</event>
<event>
 4    1  0.1701380E-008  0.1368511E+04  0.7818608E-02  0.8976933E-01
         -2   -1    0    0    0  501 -0.00000000000E+00  0.00000000000E+00  0.20333880561E+04  0.20333880561E+04  0.25500000000E-02 0.  1.
          2   -1    0    0  501    0  0.00000000000E+00 -0.00000000000E+00 -0.16868961598E+04  0.16868961598E+04  0.25500000000E-02 0. -1.
    8880022    1    1    2    0    0 -0.13554939154E+04 -0.10984376069E+03  0.14266094467E+04  0.19768752042E+04  0.15294330000E+03 0.  0.
    8880022    1    1    2    0    0  0.13554939154E+04  0.10984376069E+03 -0.10801175504E+04  0.17434090117E+04  0.15294330000E+03 0.  0.
<mgrwt>
<rscale>  0 0.13685105E+04</rscale>
<asrwt>0</asrwt>
<pdfrwt beam="1">  1        2 0.25952249E+00 0.13685105E+04</pdfrwt>
<pdfrwt beam="2">  1       -2 0.31282893E+00 0.13685105E+04</pdfrwt>
<totfact> 0.25244771E-01</totfact>
</mgrwt>
</event>
<event>
 4    1  0.1701380E-008  0.3349331E+03  0.7818608E-02  0.1068975E+00
          2   -1    0    0  501    0  0.00000000000E+00  0.00000000000E+00  0.17445272406E+04  0.17445272406E+04  0.25500000000E-02 0. -1.
         -2   -1    0    0    0  501 -0.00000000000E+00 -0.00000000000E+00 -0.19489068747E+03  0.19489068749E+03  0.25500000000E-02 0.  1.
    8880022    1    1    2    0    0 -0.25647112777E+03  0.15169397548E+03 -0.18952759411E+02  0.33546886842E+03  0.15294330000E+03 0.  0.
    8880022    1    1    2    0    0  0.25647112777E+03 -0.15169397548E+03  0.15685893126E+04  0.16039490597E+04  0.15294330000E+03 0.  0.
<mgrwt>
<rscale>  0 0.33493306E+03</rscale>
<asrwt>0</asrwt>
<pdfrwt beam="1">  1        2 0.26838881E+00 0.33493306E+03</pdfrwt>
<pdfrwt beam="2">  1       -2 0.29983183E-01 0.33493306E+03</pdfrwt>
<totfact> 0.10310095E+02</totfact>
</mgrwt>
</event>
<event>
 4    1  0.1701380E-008  0.1910548E+04  0.7818608E-02  0.8649624E-01
          2   -1    0    0  501    0  0.00000000000E+00  0.00000000000E+00  0.26752807515E+04  0.26752807515E+04  0.25500000000E-02 0. -1.
         -2   -1    0    0    0  501 -0.00000000000E+00 -0.00000000000E+00 -0.22568976021E+04  0.22568976021E+04  0.25500000000E-02 0.  1.
    8880022    1    1    2    0    0 -0.13308294207E+04  0.13622387470E+04 -0.13415975459E+04  0.23345399931E+04  0.15294330000E+03 0.  0.
    8880022    1    1    2    0    0  0.13308294207E+04 -0.13622387470E+04  0.17599806954E+04  0.25976383605E+04  0.15294330000E+03 0.  0.
<mgrwt>
<rscale>  0 0.19105478E+04</rscale>
<asrwt>0</asrwt>
<pdfrwt beam="1">  1        2 0.41158165E+00 0.19105478E+04</pdfrwt>
<pdfrwt beam="2">  1       -2 0.34721502E+00 0.19105478E+04</pdfrwt>
<totfact> 0.39696770E-02</totfact>
</mgrwt>
</event>
<event>
 4    1  0.1701380E-008  0.1546298E+04  0.7818608E-02  0.8854236E-01
         -2   -1    0    0    0  501 -0.00000000000E+00  0.00000000000E+00  0.18208919211E+04  0.18208919211E+04  0.25500000000E-02 0.  1.
          2   -1    0    0  501    0  0.00000000000E+00 -0.00000000000E+00 -0.21160139798E+04  0.21160139798E+04  0.25500000000E-02 0. -1.
    8880022    1    1    2    0    0 -0.12050741731E+04  0.95678710194E+03 -0.13601029118E+04  0.20593486604E+04  0.15294330000E+03 0.  0.
    8880022    1    1    2    0    0  0.12050741731E+04 -0.95678710194E+03  0.10649808531E+04  0.18775572406E+04  0.15294330000E+03 0.  0.
<mgrwt>
<rscale>  0 0.15462978E+04</rscale>
<asrwt>0</asrwt>
<pdfrwt beam="1">  1        2 0.32554061E+00 0.15462978E+04</pdfrwt>
<pdfrwt beam="2">  1       -2 0.28013722E+00 0.15462978E+04</pdfrwt>
<totfact> 0.22556070E-01</totfact>
</mgrwt>
</event>
<event>
 4    1  0.1701380E-008  0.1610948E+04  0.7818608E-02  0.8813851E-01
         -2   -1    0    0    0  501 -0.00000000000E+00  0.00000000000E+00  0.16047001285E+04  0.16047001285E+04  0.25500000000E-02 0.  1.
          2   -1    0    0  501    0  0.00000000000E+00 -0.00000000000E+00 -0.23779656934E+04  0.23779656934E+04  0.25500000000E-02 0. -1.
    8880022    1    1    2    0    0  0.95109290473E+03 -0.12911944030E+04  0.73968507720E+03  0.17726495328E+04  0.15294330000E+03 0.  0.
    8880022    1    1    2    0    0 -0.95109290473E+03  0.12911944030E+04 -0.15129506420E+04  0.22100162891E+04  0.15294330000E+03 0.  0.
<mgrwt>
<rscale>  0 0.16109477E+04</rscale>
<asrwt>0</asrwt>
<pdfrwt beam="1">  1        2 0.36584087E+00 0.16109477E+04</pdfrwt>
<pdfrwt beam="2">  1       -2 0.24687694E+00 0.16109477E+04</pdfrwt>
<totfact> 0.25451552E-01</totfact>
</mgrwt>
</event>
<event>
 4    1  0.1701380E-008  0.3861051E+03  0.7818608E-02  0.1048700E+00
          2   -1    0    0  501    0  0.00000000000E+00  0.00000000000E+00  0.52024143421E+03  0.52024143421E+03  0.25500000000E-02 0. -1.
         -2   -1    0    0    0  501 -0.00000000000E+00 -0.00000000000E+00 -0.98525968639E+03  0.98525968639E+03  0.25500000000E-02 0.  1.
    8880022    1    1    2    0    0 -0.28575920581E+03 -0.20982643883E+03 -0.86641235067E+03  0.94855019506E+03  0.15294330000E+03 0.  0.
    8880022    1    1    2    0    0  0.28575920581E+03  0.20982643883E+03  0.40139409850E+03  0.55695092554E+03  0.15294330000E+03 0.  0.
<mgrwt>
<rscale>  0 0.38610505E+03</rscale>
<asrwt>0</asrwt>
<pdfrwt beam="1">  1        2 0.80037144E-01 0.38610505E+03</pdfrwt>
<pdfrwt beam="2">  1       -2 0.15157841E+00 0.38610505E+03</pdfrwt>
<totfact> 0.18171096E+01</totfact>
</mgrwt>
</event>
<event>
 4    1  0.1701380E-008  0.2013494E+03  0.7818608E-02  0.1148605E+00
         -2   -1    0    0    0  501 -0.00000000000E+00  0.00000000000E+00  0.48173200763E+02  0.48173200831E+02  0.25500000000E-02 0.  1.
          2   -1    0    0  501    0  0.00000000000E+00 -0.00000000000E+00 -0.19185002661E+04  0.19185002661E+04  0.25500000000E-02 0. -1.
    8880022    1    1    2    0    0 -0.12601492042E+03 -0.35639694313E+02 -0.19842546350E+03  0.28269111334E+03  0.15294330000E+03 0.  0.
    8880022    1    1    2    0    0  0.12601492042E+03  0.35639694313E+02 -0.16719016018E+04  0.16839823536E+04  0.15294330000E+03 0. -1.
<mgrwt>
<rscale>  0 0.20134945E+03</rscale>
<asrwt>0</asrwt>
<pdfrwt beam="1">  1        2 0.29515383E+00 0.20134945E+03</pdfrwt>
<pdfrwt beam="2">  1       -2 0.74112631E-02 0.20134945E+03</pdfrwt>
<totfact> 0.88327241E+02</totfact>
</mgrwt>
</event>
<event>
 4    1  0.1701380E-008  0.9966288E+03  0.7818608E-02  0.9312250E-01
         -2   -1    0    0    0  501 -0.00000000000E+00  0.00000000000E+00  0.11828776829E+04  0.11828776829E+04  0.25500000000E-02 0.  1.
          2   -1    0    0  501    0  0.00000000000E+00 -0.00000000000E+00 -0.19333589677E+04  0.19333589677E+04  0.25500000000E-02 0. -1.
    8880022    1    1    2    0    0 -0.69697617675E+03 -0.69577404550E+03 -0.15471230704E+04  0.18403420229E+04  0.15294330000E+03 0.  0.
    8880022    1    1    2    0    0  0.69697617675E+03  0.69577404550E+03  0.79664178554E+03  0.12758946276E+04  0.15294330000E+03 0.  0.
<mgrwt>
<rscale>  0 0.99662880E+03</rscale>
<asrwt>0</asrwt>
<pdfrwt beam="1">  1        2 0.29743984E+00 0.99662880E+03</pdfrwt>
<pdfrwt beam="2">  1       -2 0.18198118E+00 0.99662880E+03</pdfrwt>
<totfact> 0.12753212E+00</totfact>
</mgrwt>
</event>
<event>
 4    1  0.1701380E-008  0.6635210E+03  0.7818608E-02  0.9781734E-01
         -2   -1    0    0    0  501 -0.00000000000E+00  0.00000000000E+00  0.52716329173E+03  0.52716329174E+03  0.25500000000E-02 0.  1.
          2   -1    0    0  501    0  0.00000000000E+00 -0.00000000000E+00 -0.20976448113E+04  0.20976448113E+04  0.25500000000E-02 0. -1.
    8880022    1    1    2    0    0  0.13422449089E+03  0.63154754788E+03 -0.18034017868E+04  0.19215926147E+04  0.15294330000E+03 0.  0.
    8880022    1    1    2    0    0 -0.13422449089E+03 -0.63154754788E+03  0.23292026722E+03  0.70321548837E+03  0.15294330000E+03 0.  0.
<mgrwt>
<rscale>  0 0.66352104E+03</rscale>
<asrwt>0</asrwt>
<pdfrwt beam="1">  1        2 0.32271458E+00 0.66352104E+03</pdfrwt>
<pdfrwt beam="2">  1       -2 0.81102046E-01 0.66352104E+03</pdfrwt>
<totfact> 0.83208032E+00</totfact>
</mgrwt>
</event>
<event>
 4    1  0.1701380E-008  0.7779865E+03  0.7818608E-02  0.9592439E-01
         -2   -1    0    0    0  501 -0.00000000000E+00  0.00000000000E+00  0.63964608668E+03  0.63964608669E+03  0.25500000000E-02 0.  1.
          2   -1    0    0  501    0  0.00000000000E+00 -0.00000000000E+00 -0.11751788995E+04  0.11751788996E+04  0.25500000000E-02 0. -1.
    8880022    1    1    2    0    0 -0.74683231638E+03  0.15528283247E+03  0.13273709668E+03  0.78922877336E+03  0.15294330000E+03 0.  0.
    8880022    1    1    2    0    0  0.74683231638E+03 -0.15528283247E+03 -0.66826990955E+03  0.10255962129E+04  0.15294330000E+03 0.  0.
<mgrwt>
<rscale>  0 0.77798645E+03</rscale>
<asrwt>0</asrwt>
<pdfrwt beam="1">  1        2 0.18079675E+00 0.77798645E+03</pdfrwt>
<pdfrwt beam="2">  1       -2 0.98407091E-01 0.77798645E+03</pdfrwt>
<totfact> 0.17082609E+01</totfact>
</mgrwt>
</event>
<event>
 4    1  0.1701380E-008  0.9758632E+03  0.7818608E-02  0.9335421E-01
         -2   -1    0    0    0  501 -0.00000000000E+00  0.00000000000E+00  0.20095424805E+04  0.20095424805E+04  0.25500000000E-02 0.  1.
          2   -1    0    0  501    0  0.00000000000E+00 -0.00000000000E+00 -0.86862770606E+03  0.86862770607E+03  0.25500000000E-02 0. -1.
    8880022    1    1    2    0    0 -0.79757967482E+03 -0.54109525651E+03  0.15405697322E+04  0.18236403612E+04  0.15294330000E+03 0.  0.
    8880022    1    1    2    0    0  0.79757967482E+03  0.54109525651E+03 -0.39965495776E+03  0.10545298254E+04  0.15294330000E+03 0.  0.
<mgrwt>
<rscale>  0 0.97586324E+03</rscale>
<asrwt>0</asrwt>
<pdfrwt beam="1">  1        2 0.13363503E+00 0.97586324E+03</pdfrwt>
<pdfrwt beam="2">  1       -2 0.30916038E+00 0.97586324E+03</pdfrwt>
<totfact> 0.86810995E-01</totfact>
</mgrwt>
</event>
<event>
 4    1  0.1701380E-008  0.4366762E+03  0.7818608E-02  0.1031772E+00
         -2   -1    0    0    0  501 -0.00000000000E+00  0.00000000000E+00  0.24056463323E+03  0.24056463324E+03  0.25500000000E-02 0.  1.
          2   -1    0    0  501    0  0.00000000000E+00 -0.00000000000E+00 -0.30398085694E+04  0.30398085694E+04  0.25500000000E-02 0. -1.
    8880022    1    1    2    0    0  0.37267831050E+03  0.16853882098E+03  0.10595130595E+02  0.43680472422E+03  0.15294330000E+03 0.  0.
    8880022    1    1    2    0    0 -0.37267831050E+03 -0.16853882098E+03 -0.28098390668E+04  0.28435684785E+04  0.15294330000E+03 0.  0.
<mgrwt>
<rscale>  0 0.43667621E+03</rscale>
<asrwt>0</asrwt>
<pdfrwt beam="1">  1        2 0.46766283E+00 0.43667621E+03</pdfrwt>
<pdfrwt beam="2">  1       -2 0.37009946E-01 0.43667621E+03</pdfrwt>
<totfact> 0.12933109E+01</totfact>
</mgrwt>
</event>
<event>
 4    1  0.1701380E-008  0.4457081E+03  0.7818608E-02  0.1029010E+00
         -2   -1    0    0    0  501 -0.00000000000E+00  0.00000000000E+00  0.15820693704E+04  0.15820693704E+04  0.25500000000E-02 0.  1.
          2   -1    0    0  501    0  0.00000000000E+00 -0.00000000000E+00 -0.11904179962E+04  0.11904179962E+04  0.25500000000E-02 0. -1.
    8880022    1    1    2    0    0  0.39135976565E+03 -0.14866604918E+03  0.15069209794E+04  0.15714536428E+04  0.15294330000E+03 0.  0.
    8880022    1    1    2    0    0 -0.39135976565E+03  0.14866604918E+03 -0.11152696052E+04  0.12010337237E+04  0.15294330000E+03 0.  0.
<mgrwt>
<rscale>  0 0.44570810E+03</rscale>
<asrwt>0</asrwt>
<pdfrwt beam="1">  1        2 0.18314123E+00 0.44570810E+03</pdfrwt>
<pdfrwt beam="2">  1       -2 0.24339529E+00 0.44570810E+03</pdfrwt>
<totfact> 0.15061197E+00</totfact>
</mgrwt>
</event>
<event>
 4    1  0.1701380E-008  0.4650556E+03  0.7818608E-02  0.1023325E+00
          2   -1    0    0  501    0  0.00000000000E+00  0.00000000000E+00  0.22512460523E+04  0.22512460523E+04  0.25500000000E-02 0. -1.
         -2   -1    0    0    0  501 -0.00000000000E+00 -0.00000000000E+00 -0.40612934861E+03  0.40612934862E+03  0.25500000000E-02 0.  1.
    8880022    1    1    2    0    0  0.30083973368E+03 -0.31996949734E+03 -0.23839109181E+03  0.52259639327E+03  0.15294330000E+03 0.  1.
    8880022    1    1    2    0    0 -0.30083973368E+03  0.31996949734E+03  0.20835077955E+04  0.21347790077E+04  0.15294330000E+03 0.  0.
<mgrwt>
<rscale>  0 0.46505556E+03</rscale>
<asrwt>0</asrwt>
<pdfrwt beam="1">  1        2 0.34634554E+00 0.46505556E+03</pdfrwt>
<pdfrwt beam="2">  1       -2 0.62481439E-01 0.46505556E+03</pdfrwt>
<totfact> 0.12650201E+01</totfact>
</mgrwt>
</event>
<event>
 4    1  0.1701380E-008  0.6931994E+03  0.7818608E-02  0.9728933E-01
          2   -1    0    0  501    0  0.00000000000E+00  0.00000000000E+00  0.38741797136E+04  0.38741797136E+04  0.25500000000E-02 0. -1.
         -2   -1    0    0    0  501 -0.00000000000E+00 -0.00000000000E+00 -0.17370988931E+03  0.17370988932E+03  0.25500000000E-02 0.  1.
    8880022    1    1    2    0    0 -0.32464033912E+03 -0.59307876309E+03  0.76789321414E+03  0.10344976609E+04  0.15294330000E+03 0.  1.
    8880022    1    1    2    0    0  0.32464033912E+03  0.59307876309E+03  0.29325766102E+04  0.30133919421E+04  0.15294330000E+03 0.  0.
<mgrwt>
<rscale>  0 0.69319941E+03</rscale>
<asrwt>0</asrwt>
<pdfrwt beam="1">  1        2 0.59602768E+00 0.69319941E+03</pdfrwt>
<pdfrwt beam="2">  1       -2 0.26724597E-01 0.69319941E+03</pdfrwt>
<totfact> 0.60759038E+00</totfact>
</mgrwt>
</event>
<event>
 4    1  0.1701380E-008  0.7928661E+03  0.7818608E-02  0.9570401E-01
          2   -1    0    0  501    0  0.00000000000E+00  0.00000000000E+00  0.34533043503E+04  0.34533043503E+04  0.25500000000E-02 0. -1.
         -2   -1    0    0    0  501 -0.00000000000E+00 -0.00000000000E+00 -0.13766808325E+04  0.13766808325E+04  0.25500000000E-02 0.  1.
    8880022    1    1    2    0    0 -0.48134355246E+03  0.61119012038E+03 -0.12113540068E+04  0.14477621219E+04  0.15294330000E+03 0.  0.
    8880022    1    1    2    0    0  0.48134355246E+03 -0.61119012038E+03  0.32879775246E+04  0.33822230609E+04  0.15294330000E+03 0.  0.
<mgrwt>
<rscale>  0 0.79286609E+03</rscale>
<asrwt>0</asrwt>
<pdfrwt beam="1">  1        2 0.53127759E+00 0.79286609E+03</pdfrwt>
<pdfrwt beam="2">  1       -2 0.21179705E+00 0.79286609E+03</pdfrwt>
<totfact> 0.10589100E-01</totfact>
</mgrwt>
</event>
<event>
 4    1  0.1701380E-008  0.2348164E+03  0.7818608E-02  0.1123295E+00
          2   -1    0    0  501    0  0.00000000000E+00  0.00000000000E+00  0.15639636757E+04  0.15639636757E+04  0.25500000000E-02 0. -1.
         -2   -1    0    0    0  501 -0.00000000000E+00 -0.00000000000E+00 -0.37359876865E+03  0.37359876866E+03  0.25500000000E-02 0.  1.
    8880022    1    1    2    0    0 -0.13302720285E+03  0.11853638212E+03  0.15171201716E+04  0.15351848028E+04  0.15294330000E+03 0.  0.
    8880022    1    1    2    0    0  0.13302720285E+03 -0.11853638212E+03 -0.32675526451E+03  0.40237764163E+03  0.15294330000E+03 0.  1.
<mgrwt>
<rscale>  0 0.23481645E+03</rscale>
<asrwt>0</asrwt>
<pdfrwt beam="1">  1        2 0.24060980E+00 0.23481645E+03</pdfrwt>
<pdfrwt beam="2">  1       -2 0.57476733E-01 0.23481645E+03</pdfrwt>
<totfact> 0.37521307E+01</totfact>
</mgrwt>
</event>
<event>
 4    1  0.1701380E-008  0.9013664E+03  0.7818608E-02  0.9423875E-01
         -2   -1    0    0    0  501 -0.00000000000E+00  0.00000000000E+00  0.18731619265E+04  0.18731619265E+04  0.25500000000E-02 0.  1.
          2   -1    0    0  501    0  0.00000000000E+00 -0.00000000000E+00 -0.11730374607E+04  0.11730374607E+04  0.25500000000E-02 0. -1.
    8880022    1    1    2    0    0  0.87927965514E+03  0.12624167640E+03 -0.85909454116E+03  0.12451926584E+04  0.15294330000E+03 0.  0.
    8880022    1    1    2    0    0 -0.87927965514E+03 -0.12624167640E+03  0.15592190069E+04  0.18010067289E+04  0.15294330000E+03 0.  0.
<mgrwt>
<rscale>  0 0.90136637E+03</rscale>
<asrwt>0</asrwt>
<pdfrwt beam="1">  1        2 0.18046730E+00 0.90136637E+03</pdfrwt>
<pdfrwt beam="2">  1       -2 0.28817876E+00 0.90136637E+03</pdfrwt>
<totfact> 0.75104549E-01</totfact>
</mgrwt>
</event>
<event>
 4    1  0.1701380E-008  0.7592306E+03  0.7818608E-02  0.9620979E-01
         -2   -1    0    0    0  501 -0.00000000000E+00  0.00000000000E+00  0.74842333009E+03  0.74842333009E+03  0.25500000000E-02 0.  1.
          2   -1    0    0  501    0  0.00000000000E+00 -0.00000000000E+00 -0.10918518895E+04  0.10918518895E+04  0.25500000000E-02 0. -1.
    8880022    1    1    2    0    0 -0.52843960934E+03 -0.52325041814E+03  0.32770821270E+03  0.82693636181E+03  0.15294330000E+03 0.  1.
    8880022    1    1    2    0    0  0.52843960934E+03  0.52325041814E+03 -0.67113677210E+03  0.10133388578E+04  0.15294330000E+03 0.  0.
<mgrwt>
<rscale>  0 0.75923058E+03</rscale>
<asrwt>0</asrwt>
<pdfrwt beam="1">  1        2 0.16797721E+00 0.75923058E+03</pdfrwt>
<pdfrwt beam="2">  1       -2 0.11514205E+00 0.75923058E+03</pdfrwt>
<totfact> 0.13176973E+01</totfact>
</mgrwt>
</event>
<event>
 4    1  0.1701380E-008  0.9089755E+03  0.7818608E-02  0.9414431E-01
         -2   -1    0    0    0  501 -0.00000000000E+00  0.00000000000E+00  0.32216948664E+03  0.32216948665E+03  0.25500000000E-02 0.  1.
          2   -1    0    0  501    0  0.00000000000E+00 -0.00000000000E+00 -0.32441958233E+04  0.32441958233E+04  0.25500000000E-02 0. -1.
    8880022    1    1    2    0    0  0.82293201559E+03 -0.35444009861E+03 -0.64486880897E+03  0.11144919558E+04  0.15294330000E+03 0.  0.
    8880022    1    1    2    0    0 -0.82293201559E+03  0.35444009861E+03 -0.22771575277E+04  0.24518733541E+04  0.15294330000E+03 0.  0.
<mgrwt>
<rscale>  0 0.90897554E+03</rscale>
<asrwt>0</asrwt>
<pdfrwt beam="1">  1        2 0.49910703E+00 0.90897554E+03</pdfrwt>
<pdfrwt beam="2">  1       -2 0.49564538E-01 0.90897554E+03</pdfrwt>
<totfact> 0.48794549E+00</totfact>
</mgrwt>
</event>
<event>
 4    1  0.1701380E-008  0.7920310E+03  0.7818608E-02  0.9571624E-01
         -2   -1    0    0    0  501 -0.00000000000E+00  0.00000000000E+00  0.48281696647E+03  0.48281696648E+03  0.25500000000E-02 0.  1.
          2   -1    0    0  501    0  0.00000000000E+00 -0.00000000000E+00 -0.15497439646E+04  0.15497439646E+04  0.25500000000E-02 0. -1.
    8880022    1    1    2    0    0  0.36708822997E+03 -0.68495816588E+03 -0.12490091435E+03  0.80181877567E+03  0.15294330000E+03 0.  0.
    8880022    1    1    2    0    0 -0.36708822997E+03  0.68495816588E+03 -0.94202608380E+03  0.12307421554E+04  0.15294330000E+03 0.  0.
<mgrwt>
<rscale>  0 0.79203100E+03</rscale>
<asrwt>0</asrwt>
<pdfrwt beam="1">  1        2 0.23842215E+00 0.79203100E+03</pdfrwt>
<pdfrwt beam="2">  1       -2 0.74279534E-01 0.79203100E+03</pdfrwt>
<totfact> 0.19795783E+01</totfact>
</mgrwt>
</event>
<event>
 4    1  0.1701380E-008  0.2618948E+03  0.7818608E-02  0.1106010E+00
          2   -1    0    0  501    0  0.00000000000E+00  0.00000000000E+00  0.14183553543E+04  0.14183553543E+04  0.25500000000E-02 0. -1.
         -2   -1    0    0    0  501 -0.00000000000E+00 -0.00000000000E+00 -0.67338754869E+02  0.67338754917E+02  0.25500000000E-02 0.  1.
    8880022    1    1    2    0    0  0.16152309102E+03  0.13823000493E+03  0.10698957228E+04  0.11014834333E+04  0.15294330000E+03 0. -1.
    8880022    1    1    2    0    0 -0.16152309102E+03 -0.13823000493E+03  0.28112087668E+03  0.38421067595E+03  0.15294330000E+03 0.  0.
<mgrwt>
<rscale>  0 0.26189482E+03</rscale>
<asrwt>0</asrwt>
<pdfrwt beam="1">  1        2 0.21820852E+00 0.26189482E+03</pdfrwt>
<pdfrwt beam="2">  1       -2 0.10359808E-01 0.26189482E+03</pdfrwt>
<totfact> 0.94953404E+02</totfact>
</mgrwt>
</event>
<event>
 4    1  0.1701380E-008  0.6979805E+03  0.7818608E-02  0.9720692E-01
         -2   -1    0    0    0  501 -0.00000000000E+00  0.00000000000E+00  0.90768606995E+03  0.90768606995E+03  0.25500000000E-02 0.  1.
          2   -1    0    0  501    0  0.00000000000E+00 -0.00000000000E+00 -0.10973599941E+04  0.10973599941E+04  0.25500000000E-02 0. -1.
    8880022    1    1    2    0    0  0.10915258170E+02 -0.68093021840E+03  0.62173588168E+03  0.93473646809E+03  0.15294330000E+03 0.  0.
    8880022    1    1    2    0    0 -0.10915258170E+02  0.68093021840E+03 -0.81140980578E+03  0.10703095959E+04  0.15294330000E+03 0.  0.
<mgrwt>
<rscale>  0 0.69798049E+03</rscale>
<asrwt>0</asrwt>
<pdfrwt beam="1">  1        2 0.16882461E+00 0.69798049E+03</pdfrwt>
<pdfrwt beam="2">  1       -2 0.13964401E+00 0.69798049E+03</pdfrwt>
<totfact> 0.81130024E+00</totfact>
</mgrwt>
</event>
<event>
 4    1  0.1701380E-008  0.6737648E+03  0.7818608E-02  0.9763180E-01
          2   -1    0    0  501    0  0.00000000000E+00  0.00000000000E+00  0.17084448373E+04  0.17084448373E+04  0.25500000000E-02 0. -1.
         -2   -1    0    0    0  501 -0.00000000000E+00 -0.00000000000E+00 -0.57096970253E+03  0.57096970254E+03  0.25500000000E-02 0.  1.
    8880022    1    1    2    0    0 -0.55578481921E+03  0.34881313726E+03 -0.26459457534E+03  0.72385724580E+03  0.15294330000E+03 0.  0.
    8880022    1    1    2    0    0  0.55578481921E+03 -0.34881313726E+03  0.14020697101E+04  0.15555572940E+04  0.15294330000E+03 0.  0.
<mgrwt>
<rscale>  0 0.67376481E+03</rscale>
<asrwt>0</asrwt>
<pdfrwt beam="1">  1        2 0.26283767E+00 0.67376481E+03</pdfrwt>
<pdfrwt beam="2">  1       -2 0.87841491E-01 0.67376481E+03</pdfrwt>
<totfact> 0.11280035E+01</totfact>
</mgrwt>
</event>
<event>
 4    1  0.1701380E-008  0.1880541E+04  0.7818608E-02  0.8664604E-01
          2   -1    0    0  501    0  0.00000000000E+00  0.00000000000E+00  0.25506031352E+04  0.25506031352E+04  0.25500000000E-02 0. -1.
         -2   -1    0    0    0  501 -0.00000000000E+00 -0.00000000000E+00 -0.19824074840E+04  0.19824074840E+04  0.25500000000E-02 0.  1.
    8880022    1    1    2    0    0  0.17424224829E+04 -0.69065536418E+03 -0.95854594361E+03  0.21107446364E+04  0.15294330000E+03 0.  0.
    8880022    1    1    2    0    0 -0.17424224829E+04  0.69065536418E+03  0.15267415948E+04  0.24222659828E+04  0.15294330000E+03 0.  0.
<mgrwt>
<rscale>  0 0.18805405E+04</rscale>
<asrwt>0</asrwt>
<pdfrwt beam="1">  1        2 0.39240048E+00 0.18805405E+04</pdfrwt>
<pdfrwt beam="2">  1       -2 0.30498577E+00 0.18805405E+04</pdfrwt>
<totfact> 0.86422892E-02</totfact>
</mgrwt>
</event>
<event>
 4    1  0.1701380E-008  0.1860765E+04  0.7818608E-02  0.8674636E-01
          2   -1    0    0  501    0  0.00000000000E+00  0.00000000000E+00  0.44536602489E+04  0.44536602489E+04  0.25500000000E-02 0. -1.
         -2   -1    0    0    0  501 -0.00000000000E+00 -0.00000000000E+00 -0.85465129474E+03  0.85465129474E+03  0.25500000000E-02 0.  1.
    8880022    1    1    2    0    0 -0.15967171464E+04 -0.94315994211E+03  0.25972711971E+04  0.31950376596E+04  0.15294330000E+03 0.  0.
    8880022    1    1    2    0    0  0.15967171464E+04  0.94315994211E+03  0.10017377571E+04  0.21132738841E+04  0.15294330000E+03 0.  0.
<mgrwt>
<rscale>  0 0.18607654E+04</rscale>
<asrwt>0</asrwt>
<pdfrwt beam="1">  1        2 0.68517849E+00 0.18607654E+04</pdfrwt>
<pdfrwt beam="2">  1       -2 0.13148482E+00 0.18607654E+04</pdfrwt>
<totfact> 0.53409181E-02</totfact>
</mgrwt>
</event>
<event>
 4    1  0.1701380E-008  0.5574769E+03  0.7818608E-02  0.9997780E-01
          2   -1    0    0  501    0  0.00000000000E+00  0.00000000000E+00  0.55441741850E+03  0.55441741850E+03  0.25500000000E-02 0. -1.
         -2   -1    0    0    0  501 -0.00000000000E+00 -0.00000000000E+00 -0.11620761092E+04  0.11620761092E+04  0.25500000000E-02 0.  1.
    8880022    1    1    2    0    0  0.50686026404E+03  0.17458943608E+03  0.31364792920E+03  0.63965262054E+03  0.15294330000E+03 0.  0.
    8880022    1    1    2    0    0 -0.50686026404E+03 -0.17458943608E+03 -0.92130661991E+03  0.10768409072E+04  0.15294330000E+03 0.  0.
<mgrwt>
<rscale>  0 0.55747686E+03</rscale>
<asrwt>0</asrwt>
<pdfrwt beam="1">  1        2 0.85294987E-01 0.55747686E+03</pdfrwt>
<pdfrwt beam="2">  1       -2 0.17878094E+00 0.55747686E+03</pdfrwt>
<totfact> 0.10496499E+01</totfact>
</mgrwt>
</event>
<event>
 4    1  0.1701380E-008  0.1419953E+04  0.7818608E-02  0.8939501E-01
          2   -1    0    0  501    0  0.00000000000E+00  0.00000000000E+00  0.21067184145E+04  0.21067184146E+04  0.25500000000E-02 0. -1.
         -2   -1    0    0    0  501 -0.00000000000E+00 -0.00000000000E+00 -0.15069637911E+04  0.15069637911E+04  0.25500000000E-02 0.  1.
    8880022    1    1    2    0    0  0.12829604199E+03  0.14058501232E+04 -0.79158816492E+03  0.16256930581E+04  0.15294330000E+03 0.  0.
    8880022    1    1    2    0    0 -0.12829604199E+03 -0.14058501232E+04  0.13913427884E+04  0.19879891476E+04  0.15294330000E+03 0.  0.
<mgrwt>
<rscale>  0 0.14199528E+04</rscale>
<asrwt>0</asrwt>
<pdfrwt beam="1">  1        2 0.32411052E+00 0.14199528E+04</pdfrwt>
<pdfrwt beam="2">  1       -2 0.23184058E+00 0.14199528E+04</pdfrwt>
<totfact> 0.45892339E-01</totfact>
</mgrwt>
</event>
<event>
 4    1  0.1701380E-008  0.7888162E+03  0.7818608E-02  0.9576348E-01
         -2   -1    0    0    0  501 -0.00000000000E+00  0.00000000000E+00  0.65711797549E+03  0.65711797549E+03  0.25500000000E-02 0.  1.
          2   -1    0    0  501    0  0.00000000000E+00 -0.00000000000E+00 -0.35452654204E+04  0.35452654204E+04  0.25500000000E-02 0. -1.
    8880022    1    1    2    0    0 -0.51297509124E+03 -0.57939266539E+03  0.35475849171E+03  0.86491880855E+03  0.15294330000E+03 0.  0.
    8880022    1    1    2    0    0  0.51297509124E+03  0.57939266539E+03 -0.32429059367E+04  0.33374645874E+04  0.15294330000E+03 0.  0.
<mgrwt>
<rscale>  0 0.78881618E+03</rscale>
<asrwt>0</asrwt>
<pdfrwt beam="1">  1        2 0.54542544E+00 0.78881618E+03</pdfrwt>
<pdfrwt beam="2">  1       -2 0.10109508E+00 0.78881618E+03</pdfrwt>
<totfact> 0.65715157E-01</totfact>
</mgrwt>
</event>
<event>
 4    1  0.1701380E-008  0.3652511E+03  0.7818608E-02  0.1056524E+00
         -2   -1    0    0    0  501 -0.00000000000E+00  0.00000000000E+00  0.95341399957E+02  0.95341399991E+02  0.25500000000E-02 0.  1.
          2   -1    0    0  501    0  0.00000000000E+00 -0.00000000000E+00 -0.17521353594E+04  0.17521353594E+04  0.25500000000E-02 0. -1.
    8880022    1    1    2    0    0 -0.22202038286E+02  0.33094376969E+03 -0.12429400548E+04  0.12954954041E+04  0.15294330000E+03 0.  0.
    8880022    1    1    2    0    0  0.22202038286E+02 -0.33094376969E+03 -0.41385390470E+03  0.55198135535E+03  0.15294330000E+03 0.  1.
<mgrwt>
<rscale>  0 0.36525109E+03</rscale>
<asrwt>0</asrwt>
<pdfrwt beam="1">  1        2 0.26955926E+00 0.36525109E+03</pdfrwt>
<pdfrwt beam="2">  1       -2 0.14667909E-01 0.36525109E+03</pdfrwt>
<totfact> 0.35261165E+02</totfact>
</mgrwt>
</event>
<event>
 4    1  0.1701380E-008  0.1590280E+04  0.7818608E-02  0.8826542E-01
         -2   -1    0    0    0  501 -0.00000000000E+00  0.00000000000E+00  0.83470944624E+03  0.83470944625E+03  0.25500000000E-02 0.  1.
          2   -1    0    0  501    0  0.00000000000E+00 -0.00000000000E+00 -0.35936090702E+04  0.35936090702E+04  0.25500000000E-02 0. -1.
    8880022    1    1    2    0    0  0.15673365390E+04  0.22148018859E+03 -0.50241707910E+03  0.16677565395E+04  0.15294330000E+03 0.  0.
    8880022    1    1    2    0    0 -0.15673365390E+04 -0.22148018859E+03 -0.22564825449E+04  0.27605619770E+04  0.15294330000E+03 0.  0.
<mgrwt>
<rscale>  0 0.15902795E+04</rscale>
<asrwt>0</asrwt>
<pdfrwt beam="1">  1        2 0.55286292E+00 0.15902795E+04</pdfrwt>
<pdfrwt beam="2">  1       -2 0.12841684E+00 0.15902795E+04</pdfrwt>
<totfact> 0.29614970E-01</totfact>
</mgrwt>
</event>
<event>
 4    1  0.1701380E-008  0.9284631E+03  0.7818608E-02  0.9390684E-01
          2   -1    0    0  501    0  0.00000000000E+00  0.00000000000E+00  0.17714965908E+04  0.17714965908E+04  0.25500000000E-02 0. -1.
         -2   -1    0    0    0  501 -0.00000000000E+00 -0.00000000000E+00 -0.53287975044E+03  0.53287975044E+03  0.25500000000E-02 0.  1.
    8880022    1    1    2    0    0  0.45513702160E+03  0.79467121551E+03  0.27982727143E+03  0.96971490864E+03  0.15294330000E+03 0.  0.
    8880022    1    1    2    0    0 -0.45513702160E+03 -0.79467121551E+03  0.95878956897E+03  0.13346614326E+04  0.15294330000E+03 0.  0.
<mgrwt>
<rscale>  0 0.92846309E+03</rscale>
<asrwt>0</asrwt>
<pdfrwt beam="1">  1        2 0.27253793E+00 0.92846309E+03</pdfrwt>
<pdfrwt beam="2">  1       -2 0.81981502E-01 0.92846309E+03</pdfrwt>
<totfact> 0.11788525E+01</totfact>
</mgrwt>
</event>
<event>
 4    1  0.1701380E-008  0.1083704E+04  0.7818608E-02  0.9221222E-01
         -2   -1    0    0    0  501 -0.00000000000E+00  0.00000000000E+00  0.65732449808E+03  0.65732449808E+03  0.25500000000E-02 0.  1.
          2   -1    0    0  501    0  0.00000000000E+00 -0.00000000000E+00 -0.27205849120E+04  0.27205849120E+04  0.25500000000E-02 0. -1.
    8880022    1    1    2    0    0  0.24861839697E+02 -0.10725690937E+04 -0.20211927580E+04  0.22933892800E+04  0.15294330000E+03 0.  0.
    8880022    1    1    2    0    0 -0.24861839697E+02  0.10725690937E+04 -0.42067655989E+02  0.10845201301E+04  0.15294330000E+03 0.  0.
<mgrwt>
<rscale>  0 0.10837039E+04</rscale>
<asrwt>0</asrwt>
<pdfrwt beam="1">  1        2 0.41855152E+00 0.10837039E+04</pdfrwt>
<pdfrwt beam="2">  1       -2 0.10112685E+00 0.10837039E+04</pdfrwt>
<totfact> 0.20781811E+00</totfact>
</mgrwt>
</event>
<event>
 4    1  0.1701380E-008  0.7077868E+03  0.7818608E-02  0.9704008E-01
          2   -1    0    0  501    0  0.00000000000E+00  0.00000000000E+00  0.30977476993E+04  0.30977476993E+04  0.25500000000E-02 0. -1.
         -2   -1    0    0    0  501 -0.00000000000E+00 -0.00000000000E+00 -0.18162460900E+03  0.18162460901E+03  0.25500000000E-02 0.  1.
    8880022    1    1    2    0    0  0.20452796961E+03 -0.66010515527E+03  0.91522394183E+03  0.11569775378E+04  0.15294330000E+03 0.  0.
    8880022    1    1    2    0    0 -0.20452796961E+03  0.66010515527E+03  0.20008991485E+04  0.21223947705E+04  0.15294330000E+03 0.  0.
<mgrwt>
<rscale>  0 0.70778680E+03</rscale>
<asrwt>0</asrwt>
<pdfrwt beam="1">  1        2 0.47657658E+00 0.70778680E+03</pdfrwt>
<pdfrwt beam="2">  1       -2 0.27942247E-01 0.70778680E+03</pdfrwt>
<totfact> 0.18903128E+01</totfact>
</mgrwt>
</event>
<event>
 4    1  0.1701380E-008  0.1036676E+04  0.7818608E-02  0.9269209E-01
          2   -1    0    0  501    0  0.00000000000E+00  0.00000000000E+00  0.22769788314E+04  0.22769788314E+04  0.25500000000E-02 0. -1.
         -2   -1    0    0    0  501 -0.00000000000E+00 -0.00000000000E+00 -0.15696190433E+04  0.15696190433E+04  0.25500000000E-02 0.  1.
    8880022    1    1    2    0    0  0.10185973603E+04 -0.11732343259E+03  0.19620229643E+04  0.22190608679E+04  0.15294330000E+03 0.  0.
    8880022    1    1    2    0    0 -0.10185973603E+04  0.11732343259E+03 -0.12546631761E+04  0.16275370068E+04  0.15294330000E+03 0.  0.
<mgrwt>
<rscale>  0 0.10366759E+04</rscale>
<asrwt>0</asrwt>
<pdfrwt beam="1">  1        2 0.35030443E+00 0.10366759E+04</pdfrwt>
<pdfrwt beam="2">  1       -2 0.24147985E+00 0.10366759E+04</pdfrwt>
<totfact> 0.33883653E-01</totfact>
</mgrwt>
</event>
<event>
 4    1  0.1701380E-008  0.6739928E+03  0.7818608E-02  0.9762772E-01
          2   -1    0    0  501    0  0.00000000000E+00  0.00000000000E+00  0.10399443492E+04  0.10399443492E+04  0.25500000000E-02 0. -1.
         -2   -1    0    0    0  501 -0.00000000000E+00 -0.00000000000E+00 -0.68121995629E+03  0.68121995629E+03  0.25500000000E-02 0.  1.
    8880022    1    1    2    0    0  0.57796439645E+03 -0.31117810518E+03  0.69482944831E+03  0.96801563622E+03  0.15294330000E+03 0.  0.
    8880022    1    1    2    0    0 -0.57796439645E+03  0.31117810518E+03 -0.33610505542E+03  0.75314866926E+03  0.15294330000E+03 0.  0.
<mgrwt>
<rscale>  0 0.67399281E+03</rscale>
<asrwt>0</asrwt>
<pdfrwt beam="1">  1        2 0.15999144E+00 0.67399281E+03</pdfrwt>
<pdfrwt beam="2">  1       -2 0.10480307E+00 0.67399281E+03</pdfrwt>
<totfact> 0.17995373E+01</totfact>
</mgrwt>
</event>
<event>
 4    1  0.1701380E-008  0.9366654E+03  0.7818608E-02  0.9380874E-01
          2   -1    0    0  501    0  0.00000000000E+00  0.00000000000E+00  0.17622209311E+04  0.17622209311E+04  0.25500000000E-02 0. -1.
         -2   -1    0    0    0  501 -0.00000000000E+00 -0.00000000000E+00 -0.17082136312E+04  0.17082136312E+04  0.25500000000E-02 0.  1.
    8880022    1    1    2    0    0 -0.85482860391E+03 -0.35102481873E+03 -0.14336210345E+04  0.17124868726E+04  0.15294330000E+03 0.  0.
    8880022    1    1    2    0    0  0.85482860391E+03  0.35102481873E+03  0.14876283344E+04  0.17579476897E+04  0.15294330000E+03 0.  0.
<mgrwt>
<rscale>  0 0.93666537E+03</rscale>
<asrwt>0</asrwt>
<pdfrwt beam="1">  1        2 0.27111091E+00 0.93666537E+03</pdfrwt>
<pdfrwt beam="2">  1       -2 0.26280210E+00 0.93666537E+03</pdfrwt>
<totfact> 0.49201817E-01</totfact>
</mgrwt>
</event>
<event>
 4    1  0.1701380E-008  0.8395227E+03  0.7818608E-02  0.9504508E-01
         -2   -1    0    0    0  501 -0.00000000000E+00  0.00000000000E+00  0.33940573084E+04  0.33940573084E+04  0.25500000000E-02 0.  1.
          2   -1    0    0  501    0  0.00000000000E+00 -0.00000000000E+00 -0.36116945869E+03  0.36116945869E+03  0.25500000000E-02 0. -1.
    8880022    1    1    2    0    0  0.77454974565E+03 -0.28544589926E+03  0.27405613360E+04  0.28662649493E+04  0.15294330000E+03 0.  0.
    8880022    1    1    2    0    0 -0.77454974565E+03  0.28544589926E+03  0.29232651366E+03  0.88896181780E+03  0.15294330000E+03 0.  0.
<mgrwt>
<rscale>  0 0.83952268E+03</rscale>
<asrwt>0</asrwt>
<pdfrwt beam="1">  1        2 0.55564529E-01 0.83952268E+03</pdfrwt>
<pdfrwt beam="2">  1       -2 0.52216269E+00 0.83952268E+03</pdfrwt>
<totfact> 0.11176249E-01</totfact>
</mgrwt>
</event>
<event>
 4    1  0.1701380E-008  0.8956699E+03  0.7818608E-02  0.9431011E-01
          2   -1    0    0  501    0  0.00000000000E+00  0.00000000000E+00  0.20423476291E+04  0.20423476291E+04  0.25500000000E-02 0. -1.
         -2   -1    0    0    0  501 -0.00000000000E+00 -0.00000000000E+00 -0.11295229552E+04  0.11295229552E+04  0.25500000000E-02 0.  1.
    8880022    1    1    2    0    0 -0.80347670164E+03  0.36504527221E+03  0.17372421400E+04  0.19545420863E+04  0.15294330000E+03 0.  0.
    8880022    1    1    2    0    0  0.80347670164E+03 -0.36504527221E+03 -0.82441746610E+03  0.12173284981E+04  0.15294330000E+03 0.  0.
<mgrwt>
<rscale>  0 0.89566987E+03</rscale>
<asrwt>0</asrwt>
<pdfrwt beam="1">  1        2 0.31420733E+00 0.89566987E+03</pdfrwt>
<pdfrwt beam="2">  1       -2 0.17377276E+00 0.89566987E+03</pdfrwt>
<totfact> 0.12865635E+00</totfact>
</mgrwt>
</event>
<event>
 4    1  0.1701380E-008  0.6250093E+03  0.7818608E-02  0.9854836E-01
         -2   -1    0    0    0  501 -0.00000000000E+00  0.00000000000E+00  0.60884955618E+03  0.60884955619E+03  0.25500000000E-02 0.  1.
          2   -1    0    0  501    0  0.00000000000E+00 -0.00000000000E+00 -0.24035717697E+04  0.24035717697E+04  0.25500000000E-02 0. -1.
    8880022    1    1    2    0    0 -0.60737991062E+02  0.60295592629E+03 -0.21869666773E+04  0.22745240938E+04  0.15294330000E+03 0.  0.
    8880022    1    1    2    0    0  0.60737991062E+02 -0.60295592629E+03  0.39224446385E+03  0.73789723203E+03  0.15294330000E+03 0.  0.
<mgrwt>
<rscale>  0 0.62500928E+03</rscale>
<asrwt>0</asrwt>
<pdfrwt beam="1">  1        2 0.36978027E+00 0.62500928E+03</pdfrwt>
<pdfrwt beam="2">  1       -2 0.93669163E-01 0.62500928E+03</pdfrwt>
<totfact> 0.40919109E+00</totfact>
</mgrwt>
</event>
<event>
 4    1  0.1701380E-008  0.1173612E+04  0.7818608E-02  0.9136273E-01
         -2   -1    0    0    0  501 -0.00000000000E+00  0.00000000000E+00  0.10661634202E+04  0.10661634202E+04  0.25500000000E-02 0.  1.
          2   -1    0    0  501    0  0.00000000000E+00 -0.00000000000E+00 -0.30190819480E+04  0.30190819480E+04  0.25500000000E-02 0. -1.
    8880022    1    1    2    0    0 -0.93062166310E+03 -0.69850984654E+03 -0.25214332874E+04  0.27811850283E+04  0.15294330000E+03 0.  0.
    8880022    1    1    2    0    0  0.93062166310E+03  0.69850984654E+03  0.56851475957E+03  0.13040603400E+04  0.15294330000E+03 0.  1.
<mgrwt>
<rscale>  0 0.11736117E+04</rscale>
<asrwt>0</asrwt>
<pdfrwt beam="1">  1        2 0.46447414E+00 0.11736117E+04</pdfrwt>
<pdfrwt beam="2">  1       -2 0.16402514E+00 0.11736117E+04</pdfrwt>
<totfact> 0.39388645E-01</totfact>
</mgrwt>
</event>
<event>
 4    1  0.1701380E-008  0.1131521E+04  0.7818608E-02  0.9175002E-01
         -2   -1    0    0    0  501 -0.00000000000E+00  0.00000000000E+00  0.29651673224E+04  0.29651673224E+04  0.25500000000E-02 0.  1.
          2   -1    0    0  501    0  0.00000000000E+00 -0.00000000000E+00 -0.59593049640E+03  0.59593049641E+03  0.25500000000E-02 0. -1.
    8880022    1    1    2    0    0 -0.73990578962E+03  0.84231110381E+03  0.25016160649E+03  0.11588447072E+04  0.15294330000E+03 0.  0.
    8880022    1    1    2    0    0  0.73990578962E+03 -0.84231110381E+03  0.21190752195E+04  0.24022531116E+04  0.15294330000E+03 0.  0.
<mgrwt>
<rscale>  0 0.11315212E+04</rscale>
<asrwt>0</asrwt>
<pdfrwt beam="1">  1        2 0.91681612E-01 0.11315212E+04</pdfrwt>
<pdfrwt beam="2">  1       -2 0.45617960E+00 0.11315212E+04</pdfrwt>
<totfact> 0.15796888E-01</totfact>
</mgrwt>
</event>
<event>
 4    1  0.1701380E-008  0.6887182E+03  0.7818608E-02  0.9736722E-01
         -2   -1    0    0    0  501 -0.00000000000E+00  0.00000000000E+00  0.84584069430E+03  0.84584069431E+03  0.25500000000E-02 0.  1.
          2   -1    0    0  501    0  0.00000000000E+00 -0.00000000000E+00 -0.11303472999E+04  0.11303472999E+04  0.25500000000E-02 0. -1.
    8880022    1    1    2    0    0  0.53830832718E+03  0.40145391427E+03  0.55914359129E+03  0.88711572475E+03  0.15294330000E+03 0.  0.
    8880022    1    1    2    0    0 -0.53830832718E+03 -0.40145391427E+03 -0.84365019692E+03  0.10890722695E+04  0.15294330000E+03 0.  0.
<mgrwt>
<rscale>  0 0.68871820E+03</rscale>
<asrwt>0</asrwt>
<pdfrwt beam="1">  1        2 0.17389958E+00 0.68871820E+03</pdfrwt>
<pdfrwt beam="2">  1       -2 0.13012934E+00 0.68871820E+03</pdfrwt>
<totfact> 0.92883658E+00</totfact>
</mgrwt>
</event>
<event>
 4    1  0.1701380E-008  0.7383585E+03  0.7818608E-02  0.9653793E-01
         -2   -1    0    0    0  501 -0.00000000000E+00  0.00000000000E+00  0.12517853315E+04  0.12517853315E+04  0.25500000000E-02 0.  1.
          2   -1    0    0  501    0  0.00000000000E+00 -0.00000000000E+00 -0.67682321369E+03  0.67682321370E+03  0.25500000000E-02 0. -1.
    8880022    1    1    2    0    0  0.42294934711E+03 -0.58557280094E+03  0.86326701588E+03  0.11359591758E+04  0.15294330000E+03 0.  0.
    8880022    1    1    2    0    0 -0.42294934711E+03  0.58557280094E+03 -0.28830489811E+03  0.79264936934E+03  0.15294330000E+03 0.  0.
<mgrwt>
<rscale>  0 0.73835852E+03</rscale>
<asrwt>0</asrwt>
<pdfrwt beam="1">  1        2 0.10412665E+00 0.73835852E+03</pdfrwt>
<pdfrwt beam="2">  1       -2 0.19258236E+00 0.73835852E+03</pdfrwt>
<totfact> 0.65020281E+00</totfact>
</mgrwt>
</event>
<event>
 4    1  0.1701380E-008  0.1373866E+04  0.7818608E-02  0.8972956E-01
          2   -1    0    0  501    0  0.00000000000E+00  0.00000000000E+00  0.39591410582E+04  0.39591410582E+04  0.25500000000E-02 0. -1.
         -2   -1    0    0    0  501 -0.00000000000E+00 -0.00000000000E+00 -0.82027470596E+03  0.82027470597E+03  0.25500000000E-02 0.  1.
    8880022    1    1    2    0    0 -0.32561328984E+03 -0.13259305101E+04  0.22946302081E+02  0.13740574652E+04  0.15294330000E+03 0.  0.
    8880022    1    1    2    0    0  0.32561328984E+03  0.13259305101E+04  0.31159200501E+04  0.34053582989E+04  0.15294330000E+03 0.  0.
<mgrwt>
<rscale>  0 0.13738659E+04</rscale>
<asrwt>0</asrwt>
<pdfrwt beam="1">  1        2 0.60909864E+00 0.13738659E+04</pdfrwt>
<pdfrwt beam="2">  1       -2 0.12619611E+00 0.13738659E+04</pdfrwt>
<totfact> 0.16957201E-01</totfact>
</mgrwt>
</event>
<event>
 4    1  0.1701380E-008  0.5116574E+03  0.7818608E-02  0.1010780E+00
         -2   -1    0    0    0  501 -0.00000000000E+00  0.00000000000E+00  0.15710838703E+04  0.15710838703E+04  0.25500000000E-02 0.  1.
          2   -1    0    0  501    0  0.00000000000E+00 -0.00000000000E+00 -0.24095385367E+03  0.24095385368E+03  0.25500000000E-02 0. -1.
    8880022    1    1    2    0    0  0.17254347481E+03 -0.45676073311E+03  0.16187990009E+03  0.53665479881E+03  0.15294330000E+03 0.  0.
    8880022    1    1    2    0    0 -0.17254347481E+03  0.45676073311E+03  0.11682501166E+04  0.12753829252E+04  0.15294330000E+03 0.  0.
<mgrwt>
<rscale>  0 0.51165738E+03</rscale>
<asrwt>0</asrwt>
<pdfrwt beam="1">  1        2 0.37069822E-01 0.51165738E+03</pdfrwt>
<pdfrwt beam="2">  1       -2 0.24170522E+00 0.51165738E+03</pdfrwt>
<totfact> 0.10697391E+01</totfact>
</mgrwt>
</event>
<event>
 4    1  0.1915504E-008  0.1979558E+04  0.7818608E-02  0.8616238E-01
         -2   -1    0    0    0  501 -0.00000000000E+00  0.00000000000E+00  0.23229868018E+04  0.23229868019E+04  0.25500000000E-02 0.  1.
          2   -1    0    0  501    0  0.00000000000E+00 -0.00000000000E+00 -0.28701002010E+04  0.28701002010E+04  0.25500000000E-02 0. -1.
    8880022    1    1    2    0    0 -0.19443137995E+04  0.33897244226E+03 -0.19407113942E+04  0.27721852096E+04  0.15294330000E+03 0.  0.
    8880022    1    1    2    0    0  0.19443137995E+04 -0.33897244226E+03  0.13935979951E+04  0.24209017932E+04  0.15294330000E+03 0.  0.
<mgrwt>
<rscale>  0 0.19795581E+04</rscale>
<asrwt>0</asrwt>
<pdfrwt beam="1">  1        2 0.44155388E+00 0.19795581E+04</pdfrwt>
<pdfrwt beam="2">  1       -2 0.35738258E+00 0.19795581E+04</pdfrwt>
<totfact> 0.25893862E-02</totfact>
</mgrwt>
</event>
<event>
 4    1  0.1701380E-008  0.7306180E+03  0.7818608E-02  0.9666258E-01
          2   -1    0    0  501    0  0.00000000000E+00  0.00000000000E+00  0.37400548566E+04  0.37400548566E+04  0.25500000000E-02 0. -1.
         -2   -1    0    0    0  501 -0.00000000000E+00 -0.00000000000E+00 -0.33241891467E+03  0.33241891468E+03  0.25500000000E-02 0.  1.
    8880022    1    1    2    0    0 -0.19701804959E+03  0.68672768818E+03  0.32420119600E+04  0.33233182561E+04  0.15294330000E+03 0.  0.
    8880022    1    1    2    0    0  0.19701804959E+03 -0.68672768818E+03  0.16562398200E+03  0.74915551524E+03  0.15294330000E+03 0.  0.
<mgrwt>
<rscale>  0 0.73061801E+03</rscale>
<asrwt>0</asrwt>
<pdfrwt beam="1">  1        2 0.57539306E+00 0.73061801E+03</pdfrwt>
<pdfrwt beam="2">  1       -2 0.51141371E-01 0.73061801E+03</pdfrwt>
<totfact> 0.21710425E+00</totfact>
</mgrwt>
</event>
<event>
 4    1  0.1701380E-008  0.5757914E+03  0.7818608E-02  0.9956944E-01
         -2   -1    0    0    0  501 -0.00000000000E+00  0.00000000000E+00  0.23772218368E+03  0.23772218369E+03  0.25500000000E-02 0.  1.
          2   -1    0    0  501    0  0.00000000000E+00 -0.00000000000E+00 -0.25698426736E+04  0.25698426736E+04  0.25500000000E-02 0. -1.
    8880022    1    1    2    0    0 -0.35626729244E+03  0.42569669241E+03 -0.21675950942E+03  0.61524011209E+03  0.15294330000E+03 0.  0.
    8880022    1    1    2    0    0  0.35626729244E+03 -0.42569669241E+03 -0.21153609805E+04  0.21923247452E+04  0.15294330000E+03 0.  0.
<mgrwt>
<rscale>  0 0.57579138E+03</rscale>
<asrwt>0</asrwt>
<pdfrwt beam="1">  1        2 0.39536039E+00 0.57579138E+03</pdfrwt>
<pdfrwt beam="2">  1       -2 0.36572646E-01 0.57579138E+03</pdfrwt>
<totfact> 0.24069577E+01</totfact>
</mgrwt>
</event>
<event>
 4    1  0.1701380E-008  0.1137423E+04  0.7818608E-02  0.9169465E-01
         -2   -1    0    0    0  501 -0.00000000000E+00  0.00000000000E+00  0.14543791998E+04  0.14543791998E+04  0.25500000000E-02 0.  1.
          2   -1    0    0  501    0  0.00000000000E+00 -0.00000000000E+00 -0.36072811682E+04  0.36072811682E+04  0.25500000000E-02 0. -1.
    8880022    1    1    2    0    0  0.10829117859E+04 -0.31247739931E+03 -0.32731819736E+04  0.34651770440E+04  0.15294330000E+03 0.  0.
    8880022    1    1    2    0    0 -0.10829117859E+04  0.31247739931E+03  0.11202800052E+04  0.15964833241E+04  0.15294330000E+03 0.  0.
<mgrwt>
<rscale>  0 0.11374233E+04</rscale>
<asrwt>0</asrwt>
<pdfrwt beam="1">  1        2 0.55496633E+00 0.11374233E+04</pdfrwt>
<pdfrwt beam="2">  1       -2 0.22375065E+00 0.11374233E+04</pdfrwt>
<totfact> 0.64319087E-02</totfact>
</mgrwt>
</event>
<event>
 4    1  0.1701380E-008  0.4148445E+03  0.7818608E-02  0.1038757E+00
          2   -1    0    0  501    0  0.00000000000E+00  0.00000000000E+00  0.19919304608E+04  0.19919304608E+04  0.25500000000E-02 0. -1.
         -2   -1    0    0    0  501 -0.00000000000E+00 -0.00000000000E+00 -0.78650652914E+03  0.78650652914E+03  0.25500000000E-02 0.  1.
    8880022    1    1    2    0    0  0.77364126365E+02  0.37778183504E+03  0.19134096003E+04  0.19578642125E+04  0.15294330000E+03 0.  0.
    8880022    1    1    2    0    0 -0.77364126365E+02 -0.37778183504E+03 -0.70798566870E+03  0.82057277742E+03  0.15294330000E+03 0.  0.
<mgrwt>
<rscale>  0 0.41484452E+03</rscale>
<asrwt>0</asrwt>
<pdfrwt beam="1">  1        2 0.30645083E+00 0.41484452E+03</pdfrwt>
<pdfrwt beam="2">  1       -2 0.12100101E+00 0.41484452E+03</pdfrwt>
<totfact> 0.39314903E+00</totfact>
</mgrwt>
</event>
<event>
 4    1  0.1701380E-008  0.6506537E+03  0.7818608E-02  0.9805553E-01
         -2   -1    0    0    0  501 -0.00000000000E+00  0.00000000000E+00  0.27512632955E+03  0.27512632956E+03  0.25500000000E-02 0.  1.
          2   -1    0    0  501    0  0.00000000000E+00 -0.00000000000E+00 -0.20716516219E+04  0.20716516219E+04  0.25500000000E-02 0. -1.
    8880022    1    1    2    0    0  0.61153999381E+03 -0.16117496044E+03 -0.14933871547E+04  0.16289737195E+04  0.15294330000E+03 0.  0.
    8880022    1    1    2    0    0 -0.61153999381E+03  0.16117496044E+03 -0.30313813761E+03  0.71780423194E+03  0.15294330000E+03 0.  0.
<mgrwt>
<rscale>  0 0.65065366E+03</rscale>
<asrwt>0</asrwt>
<pdfrwt beam="1">  1        2 0.31871562E+00 0.65065366E+03</pdfrwt>
<pdfrwt beam="2">  1       -2 0.42327129E-01 0.65065366E+03</pdfrwt>
<totfact> 0.33789019E+01</totfact>
</mgrwt>
</event>
<event>
 4    1  0.1701380E-008  0.3969849E+03  0.7818608E-02  0.1044829E+00
         -2   -1    0    0    0  501 -0.00000000000E+00  0.00000000000E+00  0.77080970349E+03  0.77080970349E+03  0.25500000000E-02 0.  1.
          2   -1    0    0  501    0  0.00000000000E+00 -0.00000000000E+00 -0.13153478660E+04  0.13153478660E+04  0.25500000000E-02 0. -1.
    8880022    1    1    2    0    0  0.36272628486E+03  0.51332252430E+02 -0.12308584469E+04  0.12932940606E+04  0.15294330000E+03 0. -1.
    8880022    1    1    2    0    0 -0.36272628486E+03 -0.51332252430E+02  0.68632028442E+03  0.79286350887E+03  0.15294330000E+03 0.  0.
<mgrwt>
<rscale>  0 0.39698490E+03</rscale>
<asrwt>0</asrwt>
<pdfrwt beam="1">  1        2 0.20236121E+00 0.39698490E+03</pdfrwt>
<pdfrwt beam="2">  1       -2 0.11858611E+00 0.39698490E+03</pdfrwt>
<totfact> 0.96418716E+00</totfact>
</mgrwt>
</event>
<event>
 4    1  0.1701380E-008  0.1161883E+04  0.7818608E-02  0.9146890E-01
         -2   -1    0    0    0  501 -0.00000000000E+00  0.00000000000E+00  0.95453791917E+03  0.95453791917E+03  0.25500000000E-02 0.  1.
          2   -1    0    0  501    0  0.00000000000E+00 -0.00000000000E+00 -0.22437961882E+04  0.22437961882E+04  0.25500000000E-02 0. -1.
    8880022    1    1    2    0    0 -0.63411848030E+03  0.96149593997E+03  0.32770992063E+03  0.12072142042E+04  0.15294330000E+03 0.  0.
    8880022    1    1    2    0    0  0.63411848030E+03 -0.96149593997E+03 -0.16169681897E+04  0.19911199032E+04  0.15294330000E+03 0.  0.
<mgrwt>
<rscale>  0 0.11618831E+04</rscale>
<asrwt>0</asrwt>
<pdfrwt beam="1">  1        2 0.34519941E+00 0.11618831E+04</pdfrwt>
<pdfrwt beam="2">  1       -2 0.14685199E+00 0.11618831E+04</pdfrwt>
<totfact> 0.15149832E+00</totfact>
</mgrwt>
</event>
<event>
 4    1  0.1701380E-008  0.1419889E+04  0.7818608E-02  0.8939546E-01
         -2   -1    0    0    0  501 -0.00000000000E+00  0.00000000000E+00  0.83195502257E+03  0.83195502257E+03  0.25500000000E-02 0.  1.
          2   -1    0    0  501    0  0.00000000000E+00 -0.00000000000E+00 -0.29736106463E+04  0.29736106463E+04  0.25500000000E-02 0. -1.
    8880022    1    1    2    0    0 -0.26222293903E+03  0.13870591287E+04 -0.18893809711E+04  0.23634394436E+04  0.15294330000E+03 0.  0.
    8880022    1    1    2    0    0  0.26222293903E+03 -0.13870591287E+04 -0.25227465262E+03  0.14421262253E+04  0.15294330000E+03 0.  0.
<mgrwt>
<rscale>  0 0.14198893E+04</rscale>
<asrwt>0</asrwt>
<pdfrwt beam="1">  1        2 0.45747856E+00 0.14198893E+04</pdfrwt>
<pdfrwt beam="2">  1       -2 0.12799308E+00 0.14198893E+04</pdfrwt>
<totfact> 0.78405285E-01</totfact>
</mgrwt>
</event>
<event>
 4    1  0.1701380E-008  0.8634126E+03  0.7818608E-02  0.9472510E-01
         -2   -1    0    0    0  501 -0.00000000000E+00  0.00000000000E+00  0.15280351944E+04  0.15280351944E+04  0.25500000000E-02 0.  1.
          2   -1    0    0  501    0  0.00000000000E+00 -0.00000000000E+00 -0.15725729517E+04  0.15725729517E+04  0.25500000000E-02 0. -1.
    8880022    1    1    2    0    0 -0.83507830619E+03 -0.15727007422E+03  0.12652898831E+04  0.15318093207E+04  0.15294330000E+03 0.  0.
    8880022    1    1    2    0    0  0.83507830619E+03  0.15727007422E+03 -0.13098276405E+04  0.15687988254E+04  0.15294330000E+03 0.  0.
<mgrwt>
<rscale>  0 0.86341259E+03</rscale>
<asrwt>0</asrwt>
<pdfrwt beam="1">  1        2 0.24193430E+00 0.86341259E+03</pdfrwt>
<pdfrwt beam="2">  1       -2 0.23508234E+00 0.86341259E+03</pdfrwt>
<totfact> 0.93551615E-01</totfact>
</mgrwt>
</event>
<event>
 4    1  0.1701380E-008  0.4329200E+03  0.7818608E-02  0.1032942E+00
          2   -1    0    0  501    0  0.00000000000E+00  0.00000000000E+00  0.75727285185E+03  0.75727285185E+03  0.25500000000E-02 0. -1.
         -2   -1    0    0    0  501 -0.00000000000E+00 -0.00000000000E+00 -0.41252483122E+03  0.41252483122E+03  0.25500000000E-02 0.  1.
    8880022    1    1    2    0    0  0.40499880559E+03  0.20030162488E+01  0.54232111183E+03  0.69392498583E+03  0.15294330000E+03 0.  0.
    8880022    1    1    2    0    0 -0.40499880559E+03 -0.20030162488E+01 -0.19757309120E+03  0.47587269725E+03  0.15294330000E+03 0.  1.
<mgrwt>
<rscale>  0 0.43291997E+03</rscale>
<asrwt>0</asrwt>
<pdfrwt beam="1">  1        2 0.11650351E+00 0.43291997E+03</pdfrwt>
<pdfrwt beam="2">  1       -2 0.63465359E-01 0.43291997E+03</pdfrwt>
<totfact> 0.88547611E+01</totfact>
</mgrwt>
</event>
<event>
 4    1  0.1701380E-008  0.5861174E+03  0.7818608E-02  0.9934634E-01
          2   -1    0    0  501    0  0.00000000000E+00  0.00000000000E+00  0.38971866960E+04  0.38971866960E+04  0.25500000000E-02 0. -1.
         -2   -1    0    0    0  501 -0.00000000000E+00 -0.00000000000E+00 -0.20766129534E+03  0.20766129535E+03  0.25500000000E-02 0.  1.
    8880022    1    1    2    0    0 -0.20607114951E+03 -0.52695032233E+03  0.34017869017E+04  0.34519107374E+04  0.15294330000E+03 0. -1.
    8880022    1    1    2    0    0  0.20607114951E+03  0.52695032233E+03  0.28773849890E+03  0.65293725397E+03  0.15294330000E+03 0.  0.
<mgrwt>
<rscale>  0 0.58611741E+03</rscale>
<asrwt>0</asrwt>
<pdfrwt beam="1">  1        2 0.59956712E+00 0.58611741E+03</pdfrwt>
<pdfrwt beam="2">  1       -2 0.31947895E-01 0.58611741E+03</pdfrwt>
<totfact> 0.43165217E+00</totfact>
</mgrwt>
</event>
<event>
 4    1  0.1701380E-008  0.3204649E+03  0.7818608E-02  0.1075436E+00
         -2   -1    0    0    0  501 -0.00000000000E+00  0.00000000000E+00  0.69107125063E+03  0.69107125063E+03  0.25500000000E-02 0.  1.
          2   -1    0    0  501    0  0.00000000000E+00 -0.00000000000E+00 -0.66400308711E+03  0.66400308712E+03  0.25500000000E-02 0. -1.
    8880022    1    1    2    0    0  0.95992121423E+02 -0.26474815990E+03  0.61045777215E+03  0.68946096346E+03  0.15294330000E+03 0.  1.
    8880022    1    1    2    0    0 -0.95992121423E+02  0.26474815990E+03 -0.58338960864E+03  0.66561337428E+03  0.15294330000E+03 0.  0.
<mgrwt>
<rscale>  0 0.32046486E+03</rscale>
<asrwt>0</asrwt>
<pdfrwt beam="1">  1        2 0.10215432E+00 0.32046486E+03</pdfrwt>
<pdfrwt beam="2">  1       -2 0.10631865E+00 0.32046486E+03</pdfrwt>
<totfact> 0.33345876E+01</totfact>
</mgrwt>
</event>
<event>
 4    1  0.1701380E-008  0.8359443E+03  0.7818608E-02  0.9509399E-01
         -2   -1    0    0    0  501 -0.00000000000E+00  0.00000000000E+00  0.22836198121E+03  0.22836198122E+03  0.25500000000E-02 0.  1.
          2   -1    0    0  501    0  0.00000000000E+00 -0.00000000000E+00 -0.39043051101E+04  0.39043051101E+04  0.25500000000E-02 0. -1.
    8880022    1    1    2    0    0 -0.76501178845E+03 -0.30028009405E+03 -0.27988339311E+04  0.29210056826E+04  0.15294330000E+03 0.  0.
    8880022    1    1    2    0    0  0.76501178845E+03  0.30028009405E+03 -0.87710919785E+03  0.12116614087E+04  0.15294330000E+03 0.  0.
<mgrwt>
<rscale>  0 0.83594427E+03</rscale>
<asrwt>0</asrwt>
<pdfrwt beam="1">  1        2 0.60066228E+00 0.83594427E+03</pdfrwt>
<pdfrwt beam="2">  1       -2 0.35132615E-01 0.83594427E+03</pdfrwt>
<totfact> 0.33576841E+00</totfact>
</mgrwt>
</event>
<event>
 4    1  0.1701380E-008  0.1077141E+04  0.7818608E-02  0.9227763E-01
          2   -1    0    0  501    0  0.00000000000E+00  0.00000000000E+00  0.13984993454E+04  0.13984993454E+04  0.25500000000E-02 0. -1.
         -2   -1    0    0    0  501 -0.00000000000E+00 -0.00000000000E+00 -0.11068936094E+04  0.11068936094E+04  0.25500000000E-02 0.  1.
    8880022    1    1    2    0    0  0.30830221527E+02  0.10657813628E+04 -0.48116043345E+03  0.11797234555E+04  0.15294330000E+03 0.  0.
    8880022    1    1    2    0    0 -0.30830221527E+02 -0.10657813628E+04  0.77276616941E+03  0.13256694993E+04  0.15294330000E+03 0.  0.
<mgrwt>
<rscale>  0 0.10771407E+04</rscale>
<asrwt>0</asrwt>
<pdfrwt beam="1">  1        2 0.21515374E+00 0.10771407E+04</pdfrwt>
<pdfrwt beam="2">  1       -2 0.17029132E+00 0.10771407E+04</pdfrwt>
<totfact> 0.30242938E+00</totfact>
</mgrwt>
</event>
<event>
 4    1  0.1701380E-008  0.9056479E+03  0.7818608E-02  0.9418549E-01
          2   -1    0    0  501    0  0.00000000000E+00  0.00000000000E+00  0.13265825507E+04  0.13265825507E+04  0.25500000000E-02 0. -1.
         -2   -1    0    0    0  501 -0.00000000000E+00 -0.00000000000E+00 -0.82702602193E+03  0.82702602193E+03  0.25500000000E-02 0.  1.
    8880022    1    1    2    0    0 -0.49515223047E+03  0.74271850357E+03  0.79076586516E+03  0.12022931479E+04  0.15294330000E+03 0.  0.
    8880022    1    1    2    0    0  0.49515223047E+03 -0.74271850357E+03 -0.29120933635E+03  0.95131542481E+03  0.15294330000E+03 0.  0.
<mgrwt>
<rscale>  0 0.90564792E+03</rscale>
<asrwt>0</asrwt>
<pdfrwt beam="1">  1        2 0.20408962E+00 0.90564792E+03</pdfrwt>
<pdfrwt beam="2">  1       -2 0.12723477E+00 0.90564792E+03</pdfrwt>
<totfact> 0.73349332E+00</totfact>
</mgrwt>
</event>
<event>
 4    1  0.1701380E-008  0.1401115E+04  0.7818608E-02  0.8953012E-01
         -2   -1    0    0    0  501 -0.00000000000E+00  0.00000000000E+00  0.75808673503E+03  0.75808673503E+03  0.25500000000E-02 0.  1.
          2   -1    0    0  501    0  0.00000000000E+00 -0.00000000000E+00 -0.33715629672E+04  0.33715629672E+04  0.25500000000E-02 0. -1.
    8880022    1    1    2    0    0 -0.61813314819E+03  0.12480559814E+04 -0.31232450456E+03  0.14355035948E+04  0.15294330000E+03 0.  0.
    8880022    1    1    2    0    0  0.61813314819E+03 -0.12480559814E+04 -0.23011517276E+04  0.26941461074E+04  0.15294330000E+03 0.  0.
<mgrwt>
<rscale>  0 0.14011153E+04</rscale>
<asrwt>0</asrwt>
<pdfrwt beam="1">  1        2 0.51870199E+00 0.14011153E+04</pdfrwt>
<pdfrwt beam="2">  1       -2 0.11662873E+00 0.14011153E+04</pdfrwt>
<totfact> 0.55010093E-01</totfact>
</mgrwt>
</event>
<event>
 4    1  0.1701380E-008  0.1461784E+04  0.7818608E-02  0.8910272E-01
         -2   -1    0    0    0  501 -0.00000000000E+00  0.00000000000E+00  0.12491619184E+04  0.12491619184E+04  0.25500000000E-02 0.  1.
          2   -1    0    0  501    0  0.00000000000E+00 -0.00000000000E+00 -0.24210521499E+04  0.24210521499E+04  0.25500000000E-02 0. -1.
    8880022    1    1    2    0    0 -0.99684779638E+03  0.10581655416E+04 -0.15800402285E+04  0.21525191333E+04  0.15294330000E+03 0. -1.
    8880022    1    1    2    0    0  0.99684779638E+03 -0.10581655416E+04  0.40814999692E+03  0.15176949350E+04  0.15294330000E+03 0.  0.
<mgrwt>
<rscale>  0 0.14617837E+04</rscale>
<asrwt>0</asrwt>
<pdfrwt beam="1">  1        2 0.37246956E+00 0.14617837E+04</pdfrwt>
<pdfrwt beam="2">  1       -2 0.19217876E+00 0.14617837E+04</pdfrwt>
<totfact> 0.54702850E-01</totfact>
</mgrwt>
</event>
<event>
 4    1  0.1701380E-008  0.8502037E+03  0.7818608E-02  0.9490064E-01
          2   -1    0    0  501    0  0.00000000000E+00  0.00000000000E+00  0.13342533261E+04  0.13342533261E+04  0.25500000000E-02 0. -1.
         -2   -1    0    0    0  501 -0.00000000000E+00 -0.00000000000E+00 -0.12774216304E+04  0.12774216304E+04  0.25500000000E-02 0.  1.
    8880022    1    1    2    0    0 -0.48962796594E+03 -0.67802585631E+03 -0.96255479332E+03  0.12842733315E+04  0.15294330000E+03 0.  0.
    8880022    1    1    2    0    0  0.48962796594E+03  0.67802585631E+03  0.10193864891E+04  0.13274016250E+04  0.15294330000E+03 0.  0.
<mgrwt>
<rscale>  0 0.85020366E+03</rscale>
<asrwt>0</asrwt>
<pdfrwt beam="1">  1        2 0.20526974E+00 0.85020366E+03</pdfrwt>
<pdfrwt beam="2">  1       -2 0.19652641E+00 0.85020366E+03</pdfrwt>
<totfact> 0.22420209E+00</totfact>
</mgrwt>
</event>
<event>
 4    1  0.1701380E-008  0.1017390E+04  0.7818608E-02  0.9289674E-01
         -2   -1    0    0    0  501 -0.00000000000E+00  0.00000000000E+00  0.14869441189E+04  0.14869441189E+04  0.25500000000E-02 0.  1.
          2   -1    0    0  501    0  0.00000000000E+00 -0.00000000000E+00 -0.79477143606E+03  0.79477143606E+03  0.25500000000E-02 0. -1.
    8880022    1    1    2    0    0  0.49152936542E+03  0.87754784912E+03  0.74803884069E+03  0.12627925818E+04  0.15294330000E+03 0.  0.
    8880022    1    1    2    0    0 -0.49152936542E+03 -0.87754784912E+03 -0.55866157833E+02  0.10189229731E+04  0.15294330000E+03 0.  0.
<mgrwt>
<rscale>  0 0.10173903E+04</rscale>
<asrwt>0</asrwt>
<pdfrwt beam="1">  1        2 0.12227253E+00 0.10173903E+04</pdfrwt>
<pdfrwt beam="2">  1       -2 0.22876063E+00 0.10173903E+04</pdfrwt>
<totfact> 0.30042588E+00</totfact>
</mgrwt>
</event>
<event>
 4    1  0.1701380E-008  0.9430437E+03  0.7818608E-02  0.9373319E-01
          2   -1    0    0  501    0  0.00000000000E+00  0.00000000000E+00  0.18083848693E+04  0.18083848693E+04  0.25500000000E-02 0. -1.
         -2   -1    0    0    0  501 -0.00000000000E+00 -0.00000000000E+00 -0.65437663743E+03  0.65437663743E+03  0.25500000000E-02 0.  1.
    8880022    1    1    2    0    0  0.88765382254E+03 -0.27930365163E+03 -0.36802137541E+02  0.94376156355E+03  0.15294330000E+03 0.  0.
    8880022    1    1    2    0    0 -0.88765382254E+03  0.27930365163E+03  0.11908103694E+04  0.15189999432E+04  0.15294330000E+03 0.  0.
<mgrwt>
<rscale>  0 0.94304374E+03</rscale>
<asrwt>0</asrwt>
<pdfrwt beam="1">  1        2 0.27821306E+00 0.94304374E+03</pdfrwt>
<pdfrwt beam="2">  1       -2 0.10067333E+00 0.94304374E+03</pdfrwt>
<totfact> 0.69730532E+00</totfact>
</mgrwt>
</event>
<event>
 4    1  0.1701380E-008  0.1483506E+04  0.7818608E-02  0.8895496E-01
          2   -1    0    0  501    0  0.00000000000E+00  0.00000000000E+00  0.26554083360E+04  0.26554083360E+04  0.25500000000E-02 0. -1.
         -2   -1    0    0    0  501 -0.00000000000E+00 -0.00000000000E+00 -0.15152887577E+04  0.15152887577E+04  0.25500000000E-02 0.  1.
    8880022    1    1    2    0    0 -0.14276840489E+04 -0.37298245674E+03  0.19736787641E+04  0.24690478273E+04  0.15294330000E+03 0.  0.
    8880022    1    1    2    0    0  0.14276840489E+04  0.37298245674E+03 -0.83355918578E+03  0.17016492664E+04  0.15294330000E+03 0.  0.
<mgrwt>
<rscale>  0 0.14835057E+04</rscale>
<asrwt>0</asrwt>
<pdfrwt beam="1">  1        2 0.40852436E+00 0.14835057E+04</pdfrwt>
<pdfrwt beam="2">  1       -2 0.23312135E+00 0.14835057E+04</pdfrwt>
<totfact> 0.21703775E-01</totfact>
</mgrwt>
</event>
<event>
 4    1  0.1701380E-008  0.4896978E+03  0.7818608E-02  0.1016503E+00
         -2   -1    0    0    0  501 -0.00000000000E+00  0.00000000000E+00  0.36281516856E+03  0.36281516857E+03  0.25500000000E-02 0.  1.
          2   -1    0    0  501    0  0.00000000000E+00 -0.00000000000E+00 -0.11492442833E+04  0.11492442833E+04  0.25500000000E-02 0. -1.
    8880022    1    1    2    0    0  0.29627841196E+03 -0.35865214194E+03  0.99586936440E+02  0.49972138961E+03  0.15294330000E+03 0.  0.
    8880022    1    1    2    0    0 -0.29627841196E+03  0.35865214194E+03 -0.88601605114E+03  0.10123380622E+04  0.15294330000E+03 0.  0.
<mgrwt>
<rscale>  0 0.48969777E+03</rscale>
<asrwt>0</asrwt>
<pdfrwt beam="1">  1        2 0.17680681E+00 0.48969777E+03</pdfrwt>
<pdfrwt beam="2">  1       -2 0.55817719E-01 0.48969777E+03</pdfrwt>
<totfact> 0.64062830E+01</totfact>
</mgrwt>
</event>
<event>
 4    1  0.1701380E-008  0.5453060E+03  0.7818608E-02  0.1002586E+00
         -2   -1    0    0    0  501 -0.00000000000E+00  0.00000000000E+00  0.57754028550E+03  0.57754028550E+03  0.25500000000E-02 0.  1.
          2   -1    0    0  501    0  0.00000000000E+00 -0.00000000000E+00 -0.28229708755E+04  0.28229708755E+04  0.25500000000E-02 0. -1.
    8880022    1    1    2    0    0 -0.51764315888E+03  0.77540724209E+02 -0.26601204155E+04  0.27154372174E+04  0.15294330000E+03 0.  0.
    8880022    1    1    2    0    0  0.51764315888E+03 -0.77540724209E+02  0.41468982547E+03  0.68507394361E+03  0.15294330000E+03 0.  0.
<mgrwt>
<rscale>  0 0.54530602E+03</rscale>
<asrwt>0</asrwt>
<pdfrwt beam="1">  1        2 0.43430320E+00 0.54530602E+03</pdfrwt>
<pdfrwt beam="2">  1       -2 0.88852353E-01 0.54530602E+03</pdfrwt>
<totfact> 0.27153545E+00</totfact>
</mgrwt>
</event>
<event>
 4    1  0.1701380E-008  0.2751047E+03  0.7818608E-02  0.1098393E+00
         -2   -1    0    0    0  501 -0.00000000000E+00  0.00000000000E+00  0.21743870734E+03  0.21743870736E+03  0.25500000000E-02 0.  1.
          2   -1    0    0  501    0  0.00000000000E+00 -0.00000000000E+00 -0.42948272111E+03  0.42948272111E+03  0.25500000000E-02 0. -1.
    8880022    1    1    2    0    0  0.22010240820E+03 -0.62014974808E+02  0.34813092731E+02  0.27729863259E+03  0.15294330000E+03 0.  0.
    8880022    1    1    2    0    0 -0.22010240820E+03  0.62014974808E+02 -0.24685710650E+03  0.36962279588E+03  0.15294330000E+03 0.  0.
<mgrwt>
<rscale>  0 0.27510467E+03</rscale>
<asrwt>0</asrwt>
<pdfrwt beam="1">  1        2 0.66074265E-01 0.27510467E+03</pdfrwt>
<pdfrwt beam="2">  1       -2 0.33452109E-01 0.27510467E+03</pdfrwt>
<totfact> 0.61952307E+02</totfact>
</mgrwt>
</event>
<event>
 4    1  0.1701380E-008  0.1389783E+04  0.7818608E-02  0.8961248E-01
         -2   -1    0    0    0  501 -0.00000000000E+00  0.00000000000E+00  0.10095236337E+04  0.10095236337E+04  0.25500000000E-02 0.  1.
          2   -1    0    0  501    0  0.00000000000E+00 -0.00000000000E+00 -0.25731358405E+04  0.25731358405E+04  0.25500000000E-02 0. -1.
    8880022    1    1    2    0    0  0.40103214887E+03 -0.13218464252E+04  0.12532556920E+03  0.13954221253E+04  0.15294330000E+03 0.  0.
    8880022    1    1    2    0    0 -0.40103214887E+03  0.13218464252E+04 -0.16889377761E+04  0.21872373490E+04  0.15294330000E+03 0.  0.
<mgrwt>
<rscale>  0 0.13897829E+04</rscale>
<asrwt>0</asrwt>
<pdfrwt beam="1">  1        2 0.39586705E+00 0.13897829E+04</pdfrwt>
<pdfrwt beam="2">  1       -2 0.15531133E+00 0.13897829E+04</pdfrwt>
<totfact> 0.82360173E-01</totfact>
</mgrwt>
</event>
<event>
 4    1  0.1701380E-008  0.6214109E+03  0.7818608E-02  0.9861955E-01
         -2   -1    0    0    0  501 -0.00000000000E+00  0.00000000000E+00  0.49926026092E+03  0.49926026093E+03  0.25500000000E-02 0.  1.
          2   -1    0    0  501    0  0.00000000000E+00 -0.00000000000E+00 -0.37464412266E+04  0.37464412266E+04  0.25500000000E-02 0. -1.
    8880022    1    1    2    0    0 -0.59415858723E+03  0.98668281480E+02  0.26747691783E+03  0.67653189957E+03  0.15294330000E+03 0.  0.
    8880022    1    1    2    0    0  0.59415858723E+03 -0.98668281480E+02 -0.35146578835E+04  0.35691695880E+04  0.15294330000E+03 0.  0.
<mgrwt>
<rscale>  0 0.62141090E+03</rscale>
<asrwt>0</asrwt>
<pdfrwt beam="1">  1        2 0.57637556E+00 0.62141090E+03</pdfrwt>
<pdfrwt beam="2">  1       -2 0.76809273E-01 0.62141090E+03</pdfrwt>
<totfact> 0.92994372E-01</totfact>
</mgrwt>
</event>
<event>
 4    1  0.1701380E-008  0.1563262E+04  0.7818608E-02  0.8843441E-01
         -2   -1    0    0    0  501 -0.00000000000E+00  0.00000000000E+00  0.24340033494E+04  0.24340033494E+04  0.25500000000E-02 0.  1.
          2   -1    0    0  501    0  0.00000000000E+00 -0.00000000000E+00 -0.18436607833E+04  0.18436607833E+04  0.25500000000E-02 0. -1.
    8880022    1    1    2    0    0  0.18147194041E+03  0.15451420581E+04  0.17385589060E+04  0.23380279655E+04  0.15294330000E+03 0.  0.
    8880022    1    1    2    0    0 -0.18147194041E+03 -0.15451420581E+04 -0.11482163399E+04  0.19396361672E+04  0.15294330000E+03 0.  0.
<mgrwt>
<rscale>  0 0.15632619E+04</rscale>
<asrwt>0</asrwt>
<pdfrwt beam="1">  1        2 0.28364012E+00 0.15632619E+04</pdfrwt>
<pdfrwt beam="2">  1       -2 0.37446205E+00 0.15632619E+04</pdfrwt>
<totfact> 0.82733103E-02</totfact>
</mgrwt>
</event>
<event>
 4    1  0.1701380E-008  0.2190374E+03  0.7818608E-02  0.1134603E+00
          2   -1    0    0  501    0  0.00000000000E+00  0.00000000000E+00  0.55396624572E+03  0.55396624573E+03  0.25500000000E-02 0. -1.
         -2   -1    0    0    0  501 -0.00000000000E+00 -0.00000000000E+00 -0.60930657298E+03  0.60930657298E+03  0.25500000000E-02 0.  1.
    8880022    1    1    2    0    0  0.76577181314E+01  0.15661120091E+03  0.51104564529E+03  0.55600810559E+03  0.15294330000E+03 0.  0.
    8880022    1    1    2    0    0 -0.76577181314E+01 -0.15661120091E+03 -0.56638597254E+03  0.60726471312E+03  0.15294330000E+03 0.  0.
<mgrwt>
<rscale>  0 0.21903735E+03</rscale>
<asrwt>0</asrwt>
<pdfrwt beam="1">  1        2 0.85225576E-01 0.21903735E+03</pdfrwt>
<pdfrwt beam="2">  1       -2 0.93739473E-01 0.21903735E+03</pdfrwt>
<totfact> 0.56431913E+01</totfact>
</mgrwt>
</event>
<event>
 4    1  0.1701380E-008  0.8529667E+03  0.7818608E-02  0.9486364E-01
          2   -1    0    0  501    0  0.00000000000E+00  0.00000000000E+00  0.19901406640E+04  0.19901406640E+04  0.25500000000E-02 0. -1.
         -2   -1    0    0    0  501 -0.00000000000E+00 -0.00000000000E+00 -0.21486681490E+04  0.21486681490E+04  0.25500000000E-02 0.  1.
    8880022    1    1    2    0    0 -0.15362880379E+03  0.82495979171E+03  0.18058923573E+04  0.19971978687E+04  0.15294330000E+03 0.  0.
    8880022    1    1    2    0    0  0.15362880379E+03 -0.82495979171E+03 -0.19644198423E+04  0.21416109443E+04  0.15294330000E+03 0.  0.
<mgrwt>
<rscale>  0 0.85296666E+03</rscale>
<asrwt>0</asrwt>
<pdfrwt beam="1">  1        2 0.30617549E+00 0.85296666E+03</pdfrwt>
<pdfrwt beam="2">  1       -2 0.33056433E+00 0.85296666E+03</pdfrwt>
<totfact> 0.14588691E-01</totfact>
</mgrwt>
</event>
<event>
 4    1  0.1701380E-008  0.8310645E+03  0.7818608E-02  0.9516110E-01
          2   -1    0    0  501    0  0.00000000000E+00  0.00000000000E+00  0.31916325138E+04  0.31916325138E+04  0.25500000000E-02 0. -1.
         -2   -1    0    0    0  501 -0.00000000000E+00 -0.00000000000E+00 -0.42954576074E+03  0.42954576075E+03  0.25500000000E-02 0.  1.
    8880022    1    1    2    0    0 -0.61366644827E+03  0.53915671174E+03  0.26564653934E+04  0.27834289121E+04  0.15294330000E+03 0.  0.
    8880022    1    1    2    0    0  0.61366644827E+03 -0.53915671174E+03  0.10562135963E+03  0.83774936238E+03  0.15294330000E+03 0.  0.
<mgrwt>
<rscale>  0 0.83106445E+03</rscale>
<asrwt>0</asrwt>
<pdfrwt beam="1">  1        2 0.49102038E+00 0.83106445E+03</pdfrwt>
<pdfrwt beam="2">  1       -2 0.66083964E-01 0.83106445E+03</pdfrwt>
<totfact> 0.29244464E+00</totfact>
</mgrwt>
</event>
<event>
 4    1  0.1701380E-008  0.8010619E+03  0.7818608E-02  0.9558481E-01
          2   -1    0    0  501    0  0.00000000000E+00  0.00000000000E+00  0.17715911027E+04  0.17715911027E+04  0.25500000000E-02 0. -1.
         -2   -1    0    0    0  501 -0.00000000000E+00 -0.00000000000E+00 -0.72460312817E+03  0.72460312818E+03  0.25500000000E-02 0.  1.
    8880022    1    1    2    0    0  0.65095016950E+03 -0.44110357116E+03  0.14061351018E+04  0.16183065412E+04  0.15294330000E+03 0.  0.
    8880022    1    1    2    0    0 -0.65095016950E+03  0.44110357116E+03 -0.35914712729E+03  0.87788768969E+03  0.15294330000E+03 0.  0.
<mgrwt>
<rscale>  0 0.80106188E+03</rscale>
<asrwt>0</asrwt>
<pdfrwt beam="1">  1        2 0.27255247E+00 0.80106188E+03</pdfrwt>
<pdfrwt beam="2">  1       -2 0.11147741E+00 0.80106188E+03</pdfrwt>
<totfact> 0.58216229E+00</totfact>
</mgrwt>
</event>
<event>
 4    1  0.1701380E-008  0.1054421E+04  0.7818608E-02  0.9250791E-01
         -2   -1    0    0    0  501 -0.00000000000E+00  0.00000000000E+00  0.15792094348E+04  0.15792094348E+04  0.25500000000E-02 0.  1.
          2   -1    0    0  501    0  0.00000000000E+00 -0.00000000000E+00 -0.25559143502E+04  0.25559143502E+04  0.25500000000E-02 0. -1.
    8880022    1    1    2    0    0  0.67593368817E+02 -0.10410778958E+04  0.12715671507E+04  0.16518736999E+04  0.15294330000E+03 0.  0.
    8880022    1    1    2    0    0 -0.67593368817E+02  0.10410778958E+04 -0.22482720661E+04  0.24832500851E+04  0.15294330000E+03 0.  0.
<mgrwt>
<rscale>  0 0.10544210E+04</rscale>
<asrwt>0</asrwt>
<pdfrwt beam="1">  1        2 0.39321759E+00 0.10544210E+04</pdfrwt>
<pdfrwt beam="2">  1       -2 0.24295530E+00 0.10544210E+04</pdfrwt>
<totfact> 0.22973053E-01</totfact>
</mgrwt>
</event>
<event>
 4    1  0.1701380E-008  0.6891679E+03  0.7818608E-02  0.9735938E-01
         -2   -1    0    0    0  501 -0.00000000000E+00  0.00000000000E+00  0.77994852004E+03  0.77994852004E+03  0.25500000000E-02 0.  1.
          2   -1    0    0  501    0  0.00000000000E+00 -0.00000000000E+00 -0.15331279830E+04  0.15331279830E+04  0.25500000000E-02 0. -1.
    8880022    1    1    2    0    0 -0.42520573322E+03  0.52034687173E+03  0.52135119472E+03  0.86415247714E+03  0.15294330000E+03 0.  0.
    8880022    1    1    2    0    0  0.42520573322E+03 -0.52034687173E+03 -0.12745306577E+04  0.14489240260E+04  0.15294330000E+03 0.  0.
<mgrwt>
<rscale>  0 0.68916793E+03</rscale>
<asrwt>0</asrwt>
<pdfrwt beam="1">  1        2 0.23586584E+00 0.68916793E+03</pdfrwt>
<pdfrwt beam="2">  1       -2 0.11999208E+00 0.68916793E+03</pdfrwt>
<totfact> 0.66852509E+00</totfact>
</mgrwt>
</event>
<event>
 4    1  0.1701380E-008  0.1101976E+04  0.7818608E-02  0.9203268E-01
          2   -1    0    0  501    0  0.00000000000E+00  0.00000000000E+00  0.40824186775E+04  0.40824186775E+04  0.25500000000E-02 0. -1.
         -2   -1    0    0    0  501 -0.00000000000E+00 -0.00000000000E+00 -0.10483000387E+04  0.10483000387E+04  0.25500000000E-02 0.  1.
    8880022    1    1    2    0    0 -0.83226984511E+03 -0.70589425228E+03  0.36881574935E+04  0.38492670913E+04  0.15294330000E+03 0.  0.
    8880022    1    1    2    0    0  0.83226984511E+03  0.70589425228E+03 -0.65403885472E+03  0.12814516249E+04  0.15294330000E+03 0.  0.
<mgrwt>
<rscale>  0 0.11019762E+04</rscale>
<asrwt>0</asrwt>
<pdfrwt beam="1">  1        2 0.62806441E+00 0.11019762E+04</pdfrwt>
<pdfrwt beam="2">  1       -2 0.16127693E+00 0.11019762E+04</pdfrwt>
<totfact> 0.74227341E-02</totfact>
</mgrwt>
</event>
<event>
 4    1  0.1701380E-008  0.1809897E+04  0.7818608E-02  0.8701054E-01
         -2   -1    0    0    0  501 -0.00000000000E+00  0.00000000000E+00  0.25566027664E+04  0.25566027664E+04  0.25500000000E-02 0.  1.
          2   -1    0    0  501    0  0.00000000000E+00 -0.00000000000E+00 -0.16394148420E+04  0.16394148420E+04  0.25500000000E-02 0. -1.
    8880022    1    1    2    0    0  0.17506675764E+04 -0.43301108533E+03  0.14391793058E+04  0.23123503823E+04  0.15294330000E+03 0.  0.
    8880022    1    1    2    0    0 -0.17506675764E+04  0.43301108533E+03 -0.52199138140E+03  0.18836672260E+04  0.15294330000E+03 0.  0.
<mgrwt>
<rscale>  0 0.18098970E+04</rscale>
<asrwt>0</asrwt>
<pdfrwt beam="1">  1        2 0.25221767E+00 0.18098970E+04</pdfrwt>
<pdfrwt beam="2">  1       -2 0.39332350E+00 0.18098970E+04</pdfrwt>
<totfact> 0.79030975E-02</totfact>
</mgrwt>
</event>
<event>
 4    1  0.1701380E-008  0.3503602E+03  0.7818608E-02  0.1062467E+00
          2   -1    0    0  501    0  0.00000000000E+00  0.00000000000E+00  0.21167654274E+04  0.21167654274E+04  0.25500000000E-02 0. -1.
         -2   -1    0    0    0  501 -0.00000000000E+00 -0.00000000000E+00 -0.90652561107E+02  0.90652561142E+02  0.25500000000E-02 0.  1.
    8880022    1    1    2    0    0 -0.31323326205E+03 -0.35292103329E+02  0.16755572375E+04  0.17117956415E+04  0.15294330000E+03 0.  0.
    8880022    1    1    2    0    0  0.31323326205E+03  0.35292103329E+02  0.35055562876E+03  0.49562234704E+03  0.15294330000E+03 0.  0.
<mgrwt>
<rscale>  0 0.35036019E+03</rscale>
<asrwt>0</asrwt>
<pdfrwt beam="1">  1        2 0.32565620E+00 0.35036019E+03</pdfrwt>
<pdfrwt beam="2">  1       -2 0.13946549E-01 0.35036019E+03</pdfrwt>
<totfact> 0.24589297E+02</totfact>
</mgrwt>
</event>
<event>
 4    1  0.1701380E-008  0.1112353E+04  0.7818608E-02  0.9193235E-01
         -2   -1    0    0    0  501 -0.00000000000E+00  0.00000000000E+00  0.65775230179E+03  0.65775230180E+03  0.25500000000E-02 0.  1.
          2   -1    0    0  501    0  0.00000000000E+00 -0.00000000000E+00 -0.22395003342E+04  0.22395003342E+04  0.25500000000E-02 0. -1.
    8880022    1    1    2    0    0 -0.93834846288E+03  0.57744225877E+03 -0.13703511036E+04  0.17649904250E+04  0.15294330000E+03 0.  0.
    8880022    1    1    2    0    0  0.93834846288E+03 -0.57744225877E+03 -0.21139692878E+03  0.11322622110E+04  0.15294330000E+03 0.  0.
<mgrwt>
<rscale>  0 0.11123529E+04</rscale>
<asrwt>0</asrwt>
<pdfrwt beam="1">  1        2 0.34453851E+00 0.11123529E+04</pdfrwt>
<pdfrwt beam="2">  1       -2 0.10119266E+00 0.11123529E+04</pdfrwt>
<totfact> 0.39006625E+00</totfact>
</mgrwt>
</event>
<event>
 4    1  0.1701380E-008  0.1174742E+04  0.7818608E-02  0.9135257E-01
          2   -1    0    0  501    0  0.00000000000E+00  0.00000000000E+00  0.78885904180E+03  0.78885904181E+03  0.25500000000E-02 0. -1.
         -2   -1    0    0    0  501 -0.00000000000E+00 -0.00000000000E+00 -0.20689115468E+04  0.20689115468E+04  0.25500000000E-02 0.  1.
    8880022    1    1    2    0    0  0.10839699444E+04  0.42618759207E+03 -0.12015649895E+04  0.16804097063E+04  0.15294330000E+03 0.  0.
    8880022    1    1    2    0    0 -0.10839699444E+04 -0.42618759207E+03 -0.78487515526E+02  0.11773608823E+04  0.15294330000E+03 0.  0.
<mgrwt>
<rscale>  0 0.11747418E+04</rscale>
<asrwt>0</asrwt>
<pdfrwt beam="1">  1        2 0.12136293E+00 0.11747418E+04</pdfrwt>
<pdfrwt beam="2">  1       -2 0.31829408E+00 0.11747418E+04</pdfrwt>
<totfact> 0.84833392E-01</totfact>
</mgrwt>
</event>
<event>
 4    1  0.1701380E-008  0.9985567E+03  0.7818608E-02  0.9310129E-01
         -2   -1    0    0    0  501 -0.00000000000E+00  0.00000000000E+00  0.12597165153E+04  0.12597165153E+04  0.25500000000E-02 0.  1.
          2   -1    0    0  501    0  0.00000000000E+00 -0.00000000000E+00 -0.82536691923E+03  0.82536691923E+03  0.25500000000E-02 0. -1.
    8880022    1    1    2    0    0 -0.74461300875E+03 -0.64751469678E+03  0.42823380930E+03  0.10865080137E+04  0.15294330000E+03 0.  0.
    8880022    1    1    2    0    0  0.74461300875E+03  0.64751469678E+03  0.61157868071E+01  0.99857542089E+03  0.15294330000E+03 0.  0.
<mgrwt>
<rscale>  0 0.99855669E+03</rscale>
<asrwt>0</asrwt>
<pdfrwt beam="1">  1        2 0.12697953E+00 0.99855669E+03</pdfrwt>
<pdfrwt beam="2">  1       -2 0.19380254E+00 0.99855669E+03</pdfrwt>
<totfact> 0.47927295E+00</totfact>
</mgrwt>
</event>
<event>
 4    1  0.1701380E-008  0.6942066E+03  0.7818608E-02  0.9727191E-01
          2   -1    0    0  501    0  0.00000000000E+00  0.00000000000E+00  0.11334227285E+04  0.11334227285E+04  0.25500000000E-02 0. -1.
         -2   -1    0    0    0  501 -0.00000000000E+00 -0.00000000000E+00 -0.63930735143E+03  0.63930735144E+03  0.25500000000E-02 0.  1.
    8880022    1    1    2    0    0  0.66919993211E+03  0.10345323107E+03  0.76001500416E+03  0.10293423044E+04  0.15294330000E+03 0.  0.
    8880022    1    1    2    0    0 -0.66919993211E+03 -0.10345323107E+03 -0.26589962704E+03  0.74338777555E+03  0.15294330000E+03 0.  0.
<mgrwt>
<rscale>  0 0.69420658E+03</rscale>
<asrwt>0</asrwt>
<pdfrwt beam="1">  1        2 0.17437272E+00 0.69420658E+03</pdfrwt>
<pdfrwt beam="2">  1       -2 0.98354979E-01 0.69420658E+03</pdfrwt>
<totfact> 0.18294873E+01</totfact>
</mgrwt>
</event>
<event>
 4    1  0.1701380E-008  0.1507684E+04  0.7818608E-02  0.8879359E-01
         -2   -1    0    0    0  501 -0.00000000000E+00  0.00000000000E+00  0.17389692047E+04  0.17389692047E+04  0.25500000000E-02 0.  1.
          2   -1    0    0  501    0  0.00000000000E+00 -0.00000000000E+00 -0.15949761181E+04  0.15949761181E+04  0.25500000000E-02 0. -1.
    8880022    1    1    2    0    0  0.98401590419E+03  0.11320041409E+04  0.78011898549E+03  0.16975564672E+04  0.15294330000E+03 0.  0.
    8880022    1    1    2    0    0 -0.98401590419E+03 -0.11320041409E+04 -0.63612589882E+03  0.16363888556E+04  0.15294330000E+03 0.  0.
<mgrwt>
<rscale>  0 0.15076844E+04</rscale>
<asrwt>0</asrwt>
<pdfrwt beam="1">  1        2 0.24538094E+00 0.15076844E+04</pdfrwt>
<pdfrwt beam="2">  1       -2 0.26753372E+00 0.15076844E+04</pdfrwt>
<totfact> 0.52877505E-01</totfact>
</mgrwt>
</event>
<event>
 4    1  0.1701380E-008  0.4763560E+03  0.7818608E-02  0.1020141E+00
         -2   -1    0    0    0  501 -0.00000000000E+00  0.00000000000E+00  0.47341689215E+03  0.47341689215E+03  0.25500000000E-02 0.  1.
          2   -1    0    0  501    0  0.00000000000E+00 -0.00000000000E+00 -0.14242334630E+04  0.14242334630E+04  0.25500000000E-02 0. -1.
    8880022    1    1    2    0    0  0.22615957649E+03  0.39035267519E+03 -0.12482546408E+04  0.13360593798E+04  0.15294330000E+03 0.  0.
    8880022    1    1    2    0    0 -0.22615957649E+03 -0.39035267519E+03  0.29743806998E+03  0.56159097532E+03  0.15294330000E+03 0.  0.
<mgrwt>
<rscale>  0 0.47635598E+03</rscale>
<asrwt>0</asrwt>
<pdfrwt beam="1">  1        2 0.21911284E+00 0.47635598E+03</pdfrwt>
<pdfrwt beam="2">  1       -2 0.72833369E-01 0.47635598E+03</pdfrwt>
<totfact> 0.25403531E+01</totfact>
</mgrwt>
</event>
<event>
 4    1  0.1701380E-008  0.8207879E+03  0.7818608E-02  0.9530405E-01
          2   -1    0    0  501    0  0.00000000000E+00  0.00000000000E+00  0.11996351063E+04  0.11996351063E+04  0.25500000000E-02 0. -1.
         -2   -1    0    0    0  501 -0.00000000000E+00 -0.00000000000E+00 -0.81925114615E+03  0.81925114615E+03  0.25500000000E-02 0.  1.
    8880022    1    1    2    0    0  0.75186923501E+03 -0.29153699009E+03  0.75630742462E+03  0.11161065078E+04  0.15294330000E+03 0.  0.
    8880022    1    1    2    0    0 -0.75186923501E+03  0.29153699009E+03 -0.37592346452E+03  0.90277974464E+03  0.15294330000E+03 0.  0.
<mgrwt>
<rscale>  0 0.82078792E+03</rscale>
<asrwt>0</asrwt>
<pdfrwt beam="1">  1        2 0.18455925E+00 0.82078792E+03</pdfrwt>
<pdfrwt beam="2">  1       -2 0.12603864E+00 0.82078792E+03</pdfrwt>
<totfact> 0.89991480E+00</totfact>
</mgrwt>
</event>
<event>
 4    1  0.1701380E-008  0.4296579E+03  0.7818608E-02  0.1033968E+00
          2   -1    0    0  501    0  0.00000000000E+00  0.00000000000E+00  0.31242371903E+03  0.31242371904E+03  0.25500000000E-02 0. -1.
         -2   -1    0    0    0  501 -0.00000000000E+00 -0.00000000000E+00 -0.78846759047E+03  0.78846759047E+03  0.25500000000E-02 0.  1.
    8880022    1    1    2    0    0 -0.33697922344E+03  0.21830995962E+03  0.37527150478E+02  0.43129360711E+03  0.15294330000E+03 0.  0.
    8880022    1    1    2    0    0  0.33697922344E+03 -0.21830995962E+03 -0.51357102191E+03  0.66959770240E+03  0.15294330000E+03 0.  0.
<mgrwt>
<rscale>  0 0.42965787E+03</rscale>
<asrwt>0</asrwt>
<pdfrwt beam="1">  1        2 0.48065188E-01 0.42965787E+03</pdfrwt>
<pdfrwt beam="2">  1       -2 0.12130271E+00 0.42965787E+03</pdfrwt>
<totfact> 0.56098905E+01</totfact>
</mgrwt>
</event>
<event>
 4    1  0.1701380E-008  0.6798304E+03  0.7818608E-02  0.9752361E-01
         -2   -1    0    0    0  501 -0.00000000000E+00  0.00000000000E+00  0.41501128346E+03  0.41501128347E+03  0.25500000000E-02 0.  1.
          2   -1    0    0  501    0  0.00000000000E+00 -0.00000000000E+00 -0.14789953335E+04  0.14789953335E+04  0.25500000000E-02 0. -1.
    8880022    1    1    2    0    0 -0.52066434810E+03 -0.40949517001E+03 -0.61305959837E+02  0.68258899154E+03  0.15294330000E+03 0.  0.
    8880022    1    1    2    0    0  0.52066434810E+03  0.40949517001E+03 -0.10026780902E+04  0.12114176255E+04  0.15294330000E+03 0.  0.
<mgrwt>
<rscale>  0 0.67983035E+03</rscale>
<asrwt>0</asrwt>
<pdfrwt beam="1">  1        2 0.22753774E+00 0.67983035E+03</pdfrwt>
<pdfrwt beam="2">  1       -2 0.63847890E-01 0.67983035E+03</pdfrwt>
<totfact> 0.30529934E+01</totfact>
</mgrwt>
</event>
<event>
 4    1  0.1701380E-008  0.1260923E+04  0.7818608E-02  0.9061141E-01
          2   -1    0    0  501    0  0.00000000000E+00  0.00000000000E+00  0.10647910826E+04  0.10647910826E+04  0.25500000000E-02 0. -1.
         -2   -1    0    0    0  501 -0.00000000000E+00 -0.00000000000E+00 -0.17019062008E+04  0.17019062008E+04  0.25500000000E-02 0.  1.
    8880022    1    1    2    0    0 -0.93493044454E+03  0.83213039285E+03 -0.80300822320E+03  0.14949079525E+04  0.15294330000E+03 0.  0.
    8880022    1    1    2    0    0  0.93493044454E+03 -0.83213039285E+03  0.16589310496E+03  0.12717893309E+04  0.15294330000E+03 0.  0.
<mgrwt>
<rscale>  0 0.12609233E+04</rscale>
<asrwt>0</asrwt>
<pdfrwt beam="1">  1        2 0.16381401E+00 0.12609233E+04</pdfrwt>
<pdfrwt beam="2">  1       -2 0.26183172E+00 0.12609233E+04</pdfrwt>
<totfact> 0.12059803E+00</totfact>
</mgrwt>
</event>
<event>
 4    1  0.1701380E-008  0.9409256E+03  0.7818608E-02  0.9375821E-01
         -2   -1    0    0    0  501 -0.00000000000E+00  0.00000000000E+00  0.30304757400E+04  0.30304757400E+04  0.25500000000E-02 0.  1.
          2   -1    0    0  501    0  0.00000000000E+00 -0.00000000000E+00 -0.15648768629E+04  0.15648768629E+04  0.25500000000E-02 0. -1.
    8880022    1    1    2    0    0 -0.92270548376E+03 -0.10278059343E+03  0.28049297964E+04  0.29585422215E+04  0.15294330000E+03 0.  0.
    8880022    1    1    2    0    0  0.92270548376E+03  0.10278059343E+03 -0.13393309194E+04  0.16368103814E+04  0.15294330000E+03 0.  0.
<mgrwt>
<rscale>  0 0.94092556E+03</rscale>
<asrwt>0</asrwt>
<pdfrwt beam="1">  1        2 0.24075029E+00 0.94092556E+03</pdfrwt>
<pdfrwt beam="2">  1       -2 0.46622704E+00 0.94092556E+03</pdfrwt>
<totfact> 0.32643527E-02</totfact>
</mgrwt>
</event>
<event>
 4    1  0.1701380E-008  0.1300669E+04  0.7818608E-02  0.9029035E-01
          2   -1    0    0  501    0  0.00000000000E+00  0.00000000000E+00  0.12116542269E+04  0.12116542269E+04  0.25500000000E-02 0. -1.
         -2   -1    0    0    0  501 -0.00000000000E+00 -0.00000000000E+00 -0.20683568493E+04  0.20683568493E+04  0.25500000000E-02 0.  1.
    8880022    1    1    2    0    0 -0.80567145335E+03 -0.10095752839E+04 -0.13632406871E+04  0.18841883050E+04  0.15294330000E+03 0.  0.
    8880022    1    1    2    0    0  0.80567145335E+03  0.10095752839E+04  0.50653806469E+03  0.13958227712E+04  0.15294330000E+03 0.  0.
<mgrwt>
<rscale>  0 0.13006692E+04</rscale>
<asrwt>0</asrwt>
<pdfrwt beam="1">  1        2 0.18640834E+00 0.13006692E+04</pdfrwt>
<pdfrwt beam="2">  1       -2 0.31820874E+00 0.13006692E+04</pdfrwt>
<totfact> 0.44224711E-01</totfact>
</mgrwt>
</event>
<event>
 4    1  0.1701380E-008  0.2819717E+03  0.7818608E-02  0.1094617E+00
          2   -1    0    0  501    0  0.00000000000E+00  0.00000000000E+00  0.21362457205E+04  0.21362457205E+04  0.25500000000E-02 0. -1.
         -2   -1    0    0    0  501 -0.00000000000E+00 -0.00000000000E+00 -0.11877232888E+03  0.11877232891E+03  0.25500000000E-02 0.  1.
    8880022    1    1    2    0    0  0.15513590040E+03  0.17902301153E+03  0.74441003082E+02  0.29163247797E+03  0.15294330000E+03 0.  0.
    8880022    1    1    2    0    0 -0.15513590040E+03 -0.17902301153E+03  0.19430323885E+04  0.19633855714E+04  0.15294330000E+03 0.  0.
<mgrwt>
<rscale>  0 0.28197170E+03</rscale>
<asrwt>0</asrwt>
<pdfrwt beam="1">  1        2 0.32865319E+00 0.28197170E+03</pdfrwt>
<pdfrwt beam="2">  1       -2 0.18272666E-01 0.28197170E+03</pdfrwt>
<totfact> 0.15499569E+02</totfact>
</mgrwt>
</event>
<event>
 4    1  0.1701380E-008  0.5580180E+03  0.7818608E-02  0.9996549E-01
          2   -1    0    0  501    0  0.00000000000E+00  0.00000000000E+00  0.21470805472E+04  0.21470805472E+04  0.25500000000E-02 0. -1.
         -2   -1    0    0    0  501 -0.00000000000E+00 -0.00000000000E+00 -0.24174042296E+03  0.24174042297E+03  0.25500000000E-02 0.  1.
    8880022    1    1    2    0    0  0.25969618503E+02  0.53602049225E+03  0.17081500796E+04  0.17969865711E+04  0.15294330000E+03 0.  0.
    8880022    1    1    2    0    0 -0.25969618503E+02 -0.53602049225E+03  0.19719004460E+03  0.59183439905E+03  0.15294330000E+03 0.  0.
<mgrwt>
<rscale>  0 0.55801796E+03</rscale>
<asrwt>0</asrwt>
<pdfrwt beam="1">  1        2 0.33032008E+00 0.55801796E+03</pdfrwt>
<pdfrwt beam="2">  1       -2 0.37190835E-01 0.55801796E+03</pdfrwt>
<totfact> 0.40114051E+01</totfact>
</mgrwt>
</event>
<event>
 4    1  0.1701380E-008  0.4166353E+03  0.7818608E-02  0.1038167E+00
          2   -1    0    0  501    0  0.00000000000E+00  0.00000000000E+00  0.90318627557E+03  0.90318627557E+03  0.25500000000E-02 0. -1.
         -2   -1    0    0    0  501 -0.00000000000E+00 -0.00000000000E+00 -0.82704332044E+03  0.82704332044E+03  0.25500000000E-02 0.  1.
    8880022    1    1    2    0    0  0.38109809497E+03 -0.70409935803E+02  0.79603045888E+03  0.89847062364E+03  0.15294330000E+03 0.  0.
    8880022    1    1    2    0    0 -0.38109809497E+03  0.70409935803E+02 -0.71988750375E+03  0.83175897238E+03  0.15294330000E+03 0.  0.
<mgrwt>
<rscale>  0 0.41663530E+03</rscale>
<asrwt>0</asrwt>
<pdfrwt beam="1">  1        2 0.13895174E+00 0.41663530E+03</pdfrwt>
<pdfrwt beam="2">  1       -2 0.12723743E+00 0.41663530E+03</pdfrwt>
<totfact> 0.14267597E+01</totfact>
</mgrwt>
</event>
<event>
 4    1  0.1701380E-008  0.7007355E+03  0.7818608E-02  0.9715975E-01
          2   -1    0    0  501    0  0.00000000000E+00  0.00000000000E+00  0.38395093853E+03  0.38395093854E+03  0.25500000000E-02 0. -1.
         -2   -1    0    0    0  501 -0.00000000000E+00 -0.00000000000E+00 -0.23825202457E+04  0.23825202457E+04  0.25500000000E-02 0.  1.
    8880022    1    1    2    0    0  0.40691988884E+03  0.54959507976E+03 -0.57850238905E+02  0.70311937164E+03  0.15294330000E+03 0.  0.
    8880022    1    1    2    0    0 -0.40691988884E+03 -0.54959507976E+03 -0.19407190683E+04  0.20633518126E+04  0.15294330000E+03 0.  0.
<mgrwt>
<rscale>  0 0.70073547E+03</rscale>
<asrwt>0</asrwt>
<pdfrwt beam="1">  1        2 0.59069376E-01 0.70073547E+03</pdfrwt>
<pdfrwt beam="2">  1       -2 0.36654157E+00 0.70073547E+03</pdfrwt>
<totfact> 0.10846992E+00</totfact>
</mgrwt>
</event>
<event>
 4    1  0.1701380E-008  0.7201314E+03  0.7818608E-02  0.9683411E-01
         -2   -1    0    0    0  501 -0.00000000000E+00  0.00000000000E+00  0.45630027312E+03  0.45630027312E+03  0.25500000000E-02 0.  1.
          2   -1    0    0  501    0  0.00000000000E+00 -0.00000000000E+00 -0.23772450670E+04  0.23772450670E+04  0.25500000000E-02 0. -1.
    8880022    1    1    2    0    0 -0.57952258412E+03 -0.39918807735E+03 -0.19840080164E+04  0.21106579563E+04  0.15294330000E+03 0.  0.
    8880022    1    1    2    0    0  0.57952258412E+03  0.39918807735E+03  0.63063222480E+02  0.72288738379E+03  0.15294330000E+03 0.  0.
<mgrwt>
<rscale>  0 0.72013138E+03</rscale>
<asrwt>0</asrwt>
<pdfrwt beam="1">  1        2 0.36573000E+00 0.72013138E+03</pdfrwt>
<pdfrwt beam="2">  1       -2 0.70200043E-01 0.72013138E+03</pdfrwt>
<totfact> 0.79531572E+00</totfact>
</mgrwt>
</event>
<event>
 4    1  0.1701380E-008  0.5365725E+03  0.7818608E-02  0.1004651E+00
          2   -1    0    0  501    0  0.00000000000E+00  0.00000000000E+00  0.19794524691E+04  0.19794524691E+04  0.25500000000E-02 0. -1.
         -2   -1    0    0    0  501 -0.00000000000E+00 -0.00000000000E+00 -0.25025921987E+03  0.25025921989E+03  0.25500000000E-02 0.  1.
    8880022    1    1    2    0    0 -0.44469802784E+03  0.25838346010E+03  0.15860775267E+04  0.16743810565E+04  0.15294330000E+03 0.  0.
    8880022    1    1    2    0    0  0.44469802784E+03 -0.25838346010E+03  0.14311572254E+03  0.55533063257E+03  0.15294330000E+03 0.  0.
<mgrwt>
<rscale>  0 0.53657246E+03</rscale>
<asrwt>0</asrwt>
<pdfrwt beam="1">  1        2 0.30453114E+00 0.53657246E+03</pdfrwt>
<pdfrwt beam="2">  1       -2 0.38501419E-01 0.53657246E+03</pdfrwt>
<totfact> 0.46428869E+01</totfact>
</mgrwt>
</event>
<event>
 4    1  0.1701380E-008  0.7754857E+03  0.7818608E-02  0.9596195E-01
         -2   -1    0    0    0  501 -0.00000000000E+00  0.00000000000E+00  0.72786860045E+03  0.72786860045E+03  0.25500000000E-02 0.  1.
          2   -1    0    0  501    0  0.00000000000E+00 -0.00000000000E+00 -0.13890648376E+04  0.13890648376E+04  0.25500000000E-02 0. -1.
    8880022    1    1    2    0    0  0.44694297823E+02  0.75893924072E+03  0.34317105160E+03  0.84802380570E+03  0.15294330000E+03 0.  0.
    8880022    1    1    2    0    0 -0.44694297823E+02 -0.75893924072E+03 -0.10043672887E+04  0.12689096323E+04  0.15294330000E+03 0.  0.
<mgrwt>
<rscale>  0 0.77548566E+03</rscale>
<asrwt>0</asrwt>
<pdfrwt beam="1">  1        2 0.21370228E+00 0.77548566E+03</pdfrwt>
<pdfrwt beam="2">  1       -2 0.11197978E+00 0.77548566E+03</pdfrwt>
<totfact> 0.94161194E+00</totfact>
</mgrwt>
</event>
<event>
 4    1  0.1701380E-008  0.2014364E+04  0.7818608E-02  0.8599934E-01
          2   -1    0    0  501    0  0.00000000000E+00  0.00000000000E+00  0.32501452665E+04  0.32501452665E+04  0.25500000000E-02 0. -1.
         -2   -1    0    0    0  501 -0.00000000000E+00 -0.00000000000E+00 -0.15461422430E+04  0.15461422430E+04  0.25500000000E-02 0.  1.
    8880022    1    1    2    0    0 -0.19267992079E+04 -0.56719947692E+03  0.19042787055E+04  0.27719919688E+04  0.15294330000E+03 0.  0.
    8880022    1    1    2    0    0  0.19267992079E+04  0.56719947692E+03 -0.20027568194E+03  0.20242955406E+04  0.15294330000E+03 0.  0.
<mgrwt>
<rscale>  0 0.20143639E+04</rscale>
<asrwt>0</asrwt>
<pdfrwt beam="1">  1        2 0.50002235E+00 0.20143639E+04</pdfrwt>
<pdfrwt beam="2">  1       -2 0.23786804E+00 0.20143639E+04</pdfrwt>
<totfact> 0.81501234E-02</totfact>
</mgrwt>
</event>
<event>
 4    1  0.1701380E-008  0.9967141E+03  0.7818608E-02  0.9312156E-01
          2   -1    0    0  501    0  0.00000000000E+00  0.00000000000E+00  0.21818203867E+04  0.21818203867E+04  0.25500000000E-02 0. -1.
         -2   -1    0    0    0  501 -0.00000000000E+00 -0.00000000000E+00 -0.86341927510E+03  0.86341927510E+03  0.25500000000E-02 0.  1.
    8880022    1    1    2    0    0 -0.76842640948E+03 -0.61609098986E+03 -0.38759166757E+03  0.10694233064E+04  0.15294330000E+03 0.  0.
    8880022    1    1    2    0    0  0.76842640948E+03  0.61609098986E+03  0.17059927792E+04  0.19758163554E+04  0.15294330000E+03 0.  0.
<mgrwt>
<rscale>  0 0.99671406E+03</rscale>
<asrwt>0</asrwt>
<pdfrwt beam="1">  1        2 0.33566467E+00 0.99671406E+03</pdfrwt>
<pdfrwt beam="2">  1       -2 0.13283374E+00 0.99671406E+03</pdfrwt>
<totfact> 0.21766714E+00</totfact>
</mgrwt>
</event>
<event>
 4    1  0.1701380E-008  0.4571058E+03  0.7818608E-02  0.1025624E+00
         -2   -1    0    0    0  501 -0.00000000000E+00  0.00000000000E+00  0.19215081783E+04  0.19215081783E+04  0.25500000000E-02 0.  1.
          2   -1    0    0  501    0  0.00000000000E+00 -0.00000000000E+00 -0.16007530133E+04  0.16007530133E+04  0.25500000000E-02 0. -1.
    8880022    1    1    2    0    0 -0.19116830138E+03 -0.38601651694E+03  0.18606387404E+04  0.19159650952E+04  0.15294330000E+03 0.  0.
    8880022    1    1    2    0    0  0.19116830138E+03  0.38601651694E+03 -0.15398835754E+04  0.16062960964E+04  0.15294330000E+03 0.  0.
<mgrwt>
<rscale>  0 0.45710581E+03</rscale>
<asrwt>0</asrwt>
<pdfrwt beam="1">  1        2 0.24626970E+00 0.45710581E+03</pdfrwt>
<pdfrwt beam="2">  1       -2 0.29561664E+00 0.45710581E+03</pdfrwt>
<totfact> 0.43358254E-01</totfact>
</mgrwt>
</event>
<event>
 4    1  0.1701380E-008  0.1400126E+04  0.7818608E-02  0.8953727E-01
         -2   -1    0    0    0  501 -0.00000000000E+00  0.00000000000E+00  0.12830174471E+04  0.12830174471E+04  0.25500000000E-02 0.  1.
          2   -1    0    0  501    0  0.00000000000E+00 -0.00000000000E+00 -0.20978859443E+04  0.20978859443E+04  0.25500000000E-02 0. -1.
    8880022    1    1    2    0    0  0.10969339147E+04  0.85656165109E+03 -0.12885534104E+04  0.19028198601E+04  0.15294330000E+03 0.  0.
    8880022    1    1    2    0    0 -0.10969339147E+04 -0.85656165109E+03  0.47368491324E+03  0.14780835313E+04  0.15294330000E+03 0.  0.
<mgrwt>
<rscale>  0 0.14001263E+04</rscale>
<asrwt>0</asrwt>
<pdfrwt beam="1">  1        2 0.32275168E+00 0.14001263E+04</pdfrwt>
<pdfrwt beam="2">  1       -2 0.19738730E+00 0.14001263E+04</pdfrwt>
<totfact> 0.77403106E-01</totfact>
</mgrwt>
</event>
<event>
 4    1  0.1701380E-008  0.1300938E+04  0.7818608E-02  0.9028822E-01
          2   -1    0    0  501    0  0.00000000000E+00  0.00000000000E+00  0.12014817806E+04  0.12014817806E+04  0.25500000000E-02 0. -1.
         -2   -1    0    0    0  501 -0.00000000000E+00 -0.00000000000E+00 -0.15142000025E+04  0.15142000025E+04  0.25500000000E-02 0.  1.
    8880022    1    1    2    0    0  0.12166446968E+04  0.43453785344E+03 -0.51489666832E+03  0.13991274768E+04  0.15294330000E+03 0.  0.
    8880022    1    1    2    0    0 -0.12166446968E+04 -0.43453785344E+03  0.20217844635E+03  0.13165543063E+04  0.15294330000E+03 0.  0.
<mgrwt>
<rscale>  0 0.13009378E+04</rscale>
<asrwt>0</asrwt>
<pdfrwt beam="1">  1        2 0.18484335E+00 0.13009378E+04</pdfrwt>
<pdfrwt beam="2">  1       -2 0.23295385E+00 0.13009378E+04</pdfrwt>
<totfact> 0.14895591E+00</totfact>
</mgrwt>
</event>
<event>
 4    1  0.1701380E-008  0.5075834E+03  0.7818608E-02  0.1011818E+00
          2   -1    0    0  501    0  0.00000000000E+00  0.00000000000E+00  0.15024073773E+04  0.15024073773E+04  0.25500000000E-02 0. -1.
         -2   -1    0    0    0  501 -0.00000000000E+00 -0.00000000000E+00 -0.29014341555E+03  0.29014341556E+03  0.25500000000E-02 0.  1.
    8880022    1    1    2    0    0  0.48263539762E+03 -0.36226691127E+02  0.11793022136E+04  0.12838982297E+04  0.15294330000E+03 0.  0.
    8880022    1    1    2    0    0 -0.48263539762E+03  0.36226691127E+02  0.32961748172E+02  0.50865256319E+03  0.15294330000E+03 0.  0.
<mgrwt>
<rscale>  0 0.50758344E+03</rscale>
<asrwt>0</asrwt>
<pdfrwt beam="1">  1        2 0.23113959E+00 0.50758344E+03</pdfrwt>
<pdfrwt beam="2">  1       -2 0.44637449E-01 0.50758344E+03</pdfrwt>
<totfact> 0.63324626E+01</totfact>
</mgrwt>
</event>
<event>
 4    1  0.1701380E-008  0.1046108E+04  0.7818608E-02  0.9259372E-01
          2   -1    0    0  501    0  0.00000000000E+00  0.00000000000E+00  0.16754668284E+04  0.16754668284E+04  0.25500000000E-02 0. -1.
         -2   -1    0    0    0  501 -0.00000000000E+00 -0.00000000000E+00 -0.95503853899E+03  0.95503853900E+03  0.25500000000E-02 0.  1.
    8880022    1    1    2    0    0 -0.19958766169E+03  0.10154381637E+04 -0.37925081432E+03  0.11127321026E+04  0.15294330000E+03 0.  0.
    8880022    1    1    2    0    0  0.19958766169E+03 -0.10154381637E+04  0.10996791037E+04  0.15177732648E+04  0.15294330000E+03 0.  0.
<mgrwt>
<rscale>  0 0.10461078E+04</rscale>
<asrwt>0</asrwt>
<pdfrwt beam="1">  1        2 0.25776412E+00 0.10461078E+04</pdfrwt>
<pdfrwt beam="2">  1       -2 0.14692901E+00 0.10461078E+04</pdfrwt>
<totfact> 0.31665554E+00</totfact>
</mgrwt>
</event>
<event>
 4    1  0.1701380E-008  0.1991336E+03  0.7818608E-02  0.1150472E+00
          2   -1    0    0  501    0  0.00000000000E+00  0.00000000000E+00  0.73000985864E+03  0.73000985864E+03  0.25500000000E-02 0. -1.
         -2   -1    0    0    0  501 -0.00000000000E+00 -0.00000000000E+00 -0.40522394800E+03  0.40522394801E+03  0.25500000000E-02 0.  1.
    8880022    1    1    2    0    0  0.10960048809E+03  0.65193989454E+02 -0.36581125786E+03  0.41649976308E+03  0.15294330000E+03 0.  0.
    8880022    1    1    2    0    0 -0.10960048809E+03 -0.65193989454E+02  0.69059716849E+03  0.71873404358E+03  0.15294330000E+03 0.  0.
<mgrwt>
<rscale>  0 0.19913356E+03</rscale>
<asrwt>0</asrwt>
<pdfrwt beam="1">  1        2 0.11230921E+00 0.19913356E+03</pdfrwt>
<pdfrwt beam="2">  1       -2 0.62342146E-01 0.19913356E+03</pdfrwt>
<totfact> 0.99781076E+01</totfact>
</mgrwt>
</event>
<event>
 4    1  0.1701380E-008  0.1717138E+04  0.7818608E-02  0.8751650E-01
          2   -1    0    0  501    0  0.00000000000E+00  0.00000000000E+00  0.38299124744E+04  0.38299124744E+04  0.25500000000E-02 0. -1.
         -2   -1    0    0    0  501 -0.00000000000E+00 -0.00000000000E+00 -0.10245824638E+04  0.10245824638E+04  0.25500000000E-02 0.  1.
    8880022    1    1    2    0    0  0.17102896317E+04 -0.89288361112E+01  0.26128718990E+04  0.31266054376E+04  0.15294330000E+03 0.  0.
    8880022    1    1    2    0    0 -0.17102896317E+04  0.89288361112E+01  0.19245811152E+03  0.17278895006E+04  0.15294330000E+03 0.  0.
<mgrwt>
<rscale>  0 0.17171377E+04</rscale>
<asrwt>0</asrwt>
<pdfrwt beam="1">  1        2 0.58921730E+00 0.17171377E+04</pdfrwt>
<pdfrwt beam="2">  1       -2 0.15762807E+00 0.17171377E+04</pdfrwt>
<totfact> 0.11379411E-01</totfact>
</mgrwt>
</event>
<event>
 4    1  0.1701380E-008  0.1698901E+03  0.7818608E-02  0.1177963E+00
          2   -1    0    0  501    0  0.00000000000E+00  0.00000000000E+00  0.17609393854E+04  0.17609393854E+04  0.25500000000E-02 0. -1.
         -2   -1    0    0    0  501 -0.00000000000E+00 -0.00000000000E+00 -0.12153131039E+03  0.12153131042E+03  0.25500000000E-02 0.  1.
    8880022    1    1    2    0    0  0.62473777477E+02  0.39598102438E+02 -0.55763096703E+02  0.17880760207E+03  0.15294330000E+03 0.  1.
    8880022    1    1    2    0    0 -0.62473777477E+02 -0.39598102438E+02  0.16951711717E+04  0.17036630937E+04  0.15294330000E+03 0.  0.
<mgrwt>
<rscale>  0 0.16989007E+03</rscale>
<asrwt>0</asrwt>
<pdfrwt beam="1">  1        2 0.27091374E+00 0.16989007E+03</pdfrwt>
<pdfrwt beam="2">  1       -2 0.18697126E-01 0.16989007E+03</pdfrwt>
<totfact> 0.24206942E+02</totfact>
</mgrwt>
</event>
<event>
 4    1  0.1701380E-008  0.1976754E+03  0.7818608E-02  0.1151715E+00
          2   -1    0    0  501    0  0.00000000000E+00  0.00000000000E+00  0.26992419066E+04  0.26992419066E+04  0.25500000000E-02 0. -1.
         -2   -1    0    0    0  501 -0.00000000000E+00 -0.00000000000E+00 -0.65655893156E+03  0.65655893157E+03  0.25500000000E-02 0.  1.
    8880022    1    1    2    0    0  0.15768715817E+02  0.12423871195E+03  0.26806407524E+04  0.26879193452E+04  0.15294330000E+03 0.  0.
    8880022    1    1    2    0    0 -0.15768715817E+02 -0.12423871195E+03 -0.63795777735E+03  0.66788149296E+03  0.15294330000E+03 0.  1.
<mgrwt>
<rscale>  0 0.19767540E+03</rscale>
<asrwt>0</asrwt>
<pdfrwt beam="1">  1        2 0.41526799E+00 0.19767540E+03</pdfrwt>
<pdfrwt beam="2">  1       -2 0.10100906E+00 0.19767540E+03</pdfrwt>
<totfact> 0.27938335E+00</totfact>
</mgrwt>
</event>
<event>
 4    1  0.1701380E-008  0.2783871E+03  0.7818608E-02  0.1096573E+00
          2   -1    0    0  501    0  0.00000000000E+00  0.00000000000E+00  0.15248621466E+04  0.15248621466E+04  0.25500000000E-02 0. -1.
         -2   -1    0    0    0  501 -0.00000000000E+00 -0.00000000000E+00 -0.39459673509E+03  0.39459673510E+03  0.25500000000E-02 0.  1.
    8880022    1    1    2    0    0 -0.19827788593E+03 -0.12162905506E+03  0.14609261271E+04  0.14872136863E+04  0.15294330000E+03 0. -1.
    8880022    1    1    2    0    0  0.19827788593E+03  0.12162905506E+03 -0.33066071556E+03  0.43224519536E+03  0.15294330000E+03 0.  0.
<mgrwt>
<rscale>  0 0.27838714E+03</rscale>
<asrwt>0</asrwt>
<pdfrwt beam="1">  1        2 0.23459417E+00 0.27838714E+03</pdfrwt>
<pdfrwt beam="2">  1       -2 0.60707191E-01 0.27838714E+03</pdfrwt>
<totfact> 0.34631241E+01</totfact>
</mgrwt>
</event>
<event>
 4    1  0.1701380E-008  0.7784796E+03  0.7818608E-02  0.9591700E-01
         -2   -1    0    0    0  501 -0.00000000000E+00  0.00000000000E+00  0.12641516160E+04  0.12641516160E+04  0.25500000000E-02 0.  1.
          2   -1    0    0  501    0  0.00000000000E+00 -0.00000000000E+00 -0.15896860010E+04  0.15896860011E+04  0.25500000000E-02 0. -1.
    8880022    1    1    2    0    0  0.75256421254E+03  0.12761622758E+03 -0.13552760491E+04  0.15629470937E+04  0.15294330000E+03 0.  0.
    8880022    1    1    2    0    0 -0.75256421254E+03 -0.12761622758E+03  0.10297416641E+04  0.12908905233E+04  0.15294330000E+03 0.  0.
<mgrwt>
<rscale>  0 0.77847957E+03</rscale>
<asrwt>0</asrwt>
<pdfrwt beam="1">  1        2 0.24456708E+00 0.77847957E+03</pdfrwt>
<pdfrwt beam="2">  1       -2 0.19448486E+00 0.77847957E+03</pdfrwt>
<totfact> 0.16808076E+00</totfact>
</mgrwt>
</event>
<event>
 4    1  0.1701380E-008  0.6132760E+03  0.7818608E-02  0.9878239E-01
         -2   -1    0    0    0  501 -0.00000000000E+00  0.00000000000E+00  0.20336987236E+03  0.20336987238E+03  0.25500000000E-02 0.  1.
          2   -1    0    0  501    0  0.00000000000E+00 -0.00000000000E+00 -0.23659325173E+04  0.23659325173E+04  0.25500000000E-02 0. -1.
    8880022    1    1    2    0    0 -0.87194538259E+02  0.58746316702E+03 -0.48101682626E+03  0.77941304856E+03  0.15294330000E+03 0.  0.
    8880022    1    1    2    0    0  0.87194538259E+02 -0.58746316702E+03 -0.16815458187E+04  0.17898893412E+04  0.15294330000E+03 0.  0.
<mgrwt>
<rscale>  0 0.61327605E+03</rscale>
<asrwt>0</asrwt>
<pdfrwt beam="1">  1        2 0.36398960E+00 0.61327605E+03</pdfrwt>
<pdfrwt beam="2">  1       -2 0.31287674E-01 0.61327605E+03</pdfrwt>
<totfact> 0.41759588E+01</totfact>
</mgrwt>
</event>
<event>
 4    1  0.1701380E-008  0.1158000E+04  0.7818608E-02  0.9150435E-01
          2   -1    0    0  501    0  0.00000000000E+00  0.00000000000E+00  0.47191498357E+04  0.47191498357E+04  0.25500000000E-02 0. -1.
         -2   -1    0    0    0  501 -0.00000000000E+00 -0.00000000000E+00 -0.10426430716E+04  0.10426430716E+04  0.25500000000E-02 0.  1.
    8880022    1    1    2    0    0 -0.10087615911E+04  0.54769656338E+03  0.42954200426E+04  0.44487747154E+04  0.15294330000E+03 0.  0.
    8880022    1    1    2    0    0  0.10087615911E+04 -0.54769656338E+03 -0.61891327841E+03  0.13130181919E+04  0.15294330000E+03 0.  0.
<mgrwt>
<rscale>  0 0.11579996E+04</rscale>
<asrwt>0</asrwt>
<pdfrwt beam="1">  1        2 0.72602305E+00 0.11579996E+04</pdfrwt>
<pdfrwt beam="2">  1       -2 0.16040663E+00 0.11579996E+04</pdfrwt>
<totfact> 0.19059858E-02</totfact>
</mgrwt>
</event>
<event>
 4    1  0.1701380E-008  0.4373566E+03  0.7818608E-02  0.1031561E+00
          2   -1    0    0  501    0  0.00000000000E+00  0.00000000000E+00  0.12965624495E+04  0.12965624495E+04  0.25500000000E-02 0. -1.
         -2   -1    0    0    0  501 -0.00000000000E+00 -0.00000000000E+00 -0.20854422041E+04  0.20854422041E+04  0.25500000000E-02 0.  1.
    8880022    1    1    2    0    0  0.21950017802E+03 -0.34598957507E+03  0.12356526975E+04  0.13107701385E+04  0.15294330000E+03 0.  0.
    8880022    1    1    2    0    0 -0.21950017802E+03  0.34598957507E+03 -0.20245324521E+04  0.20712345151E+04  0.15294330000E+03 0.  0.
<mgrwt>
<rscale>  0 0.43735657E+03</rscale>
<asrwt>0</asrwt>
<pdfrwt beam="1">  1        2 0.19947115E+00 0.43735657E+03</pdfrwt>
<pdfrwt beam="2">  1       -2 0.32083726E+00 0.43735657E+03</pdfrwt>
<totfact> 0.45490373E-01</totfact>
</mgrwt>
</event>
<event>
 4    1  0.1701380E-008  0.7150873E+03  0.7818608E-02  0.9691773E-01
         -2   -1    0    0    0  501 -0.00000000000E+00  0.00000000000E+00  0.80011604329E+03  0.80011604330E+03  0.25500000000E-02 0.  1.
          2   -1    0    0  501    0  0.00000000000E+00 -0.00000000000E+00 -0.12948444787E+04  0.12948444787E+04  0.25500000000E-02 0. -1.
    8880022    1    1    2    0    0 -0.69446736785E+03 -0.75321236655E+02  0.49806453887E+03  0.87144601186E+03  0.15294330000E+03 0.  0.
    8880022    1    1    2    0    0  0.69446736785E+03  0.75321236655E+02 -0.99279297424E+03  0.12235145101E+04  0.15294330000E+03 0.  0.
<mgrwt>
<rscale>  0 0.71508731E+03</rscale>
<asrwt>0</asrwt>
<pdfrwt beam="1">  1        2 0.19920684E+00 0.71508731E+03</pdfrwt>
<pdfrwt beam="2">  1       -2 0.12309478E+00 0.71508731E+03</pdfrwt>
<totfact> 0.85131141E+00</totfact>
</mgrwt>
</event>
<event>
 4    1  0.1701380E-008  0.1178034E+04  0.7818608E-02  0.9132304E-01
         -2   -1    0    0    0  501 -0.00000000000E+00  0.00000000000E+00  0.18803556676E+04  0.18803556676E+04  0.25500000000E-02 0.  1.
          2   -1    0    0  501    0  0.00000000000E+00 -0.00000000000E+00 -0.82226993052E+03  0.82226993053E+03  0.25500000000E-02 0. -1.
    8880022    1    1    2    0    0  0.51565406754E+03 -0.10480806712E+04  0.96528169108E+02  0.11819820435E+04  0.15294330000E+03 0.  0.
    8880022    1    1    2    0    0 -0.51565406754E+03  0.10480806712E+04  0.96155756794E+03  0.15206435546E+04  0.15294330000E+03 0.  0.
<mgrwt>
<rscale>  0 0.11780339E+04</rscale>
<asrwt>0</asrwt>
<pdfrwt beam="1">  1        2 0.12650307E+00 0.11780339E+04</pdfrwt>
<pdfrwt beam="2">  1       -2 0.28928549E+00 0.11780339E+04</pdfrwt>
<totfact> 0.12046178E+00</totfact>
</mgrwt>
</event>
<event>
 4    1  0.1701380E-008  0.6492799E+03  0.7818608E-02  0.9808131E-01
          2   -1    0    0  501    0  0.00000000000E+00  0.00000000000E+00  0.14827645908E+04  0.14827645908E+04  0.25500000000E-02 0. -1.
         -2   -1    0    0    0  501 -0.00000000000E+00 -0.00000000000E+00 -0.40313159062E+03  0.40313159063E+03  0.25500000000E-02 0.  1.
    8880022    1    1    2    0    0  0.62007775293E+03 -0.11694558919E+03  0.10517488967E+04  0.12360178337E+04  0.15294330000E+03 0.  0.
    8880022    1    1    2    0    0 -0.62007775293E+03  0.11694558919E+03  0.27884103400E+02  0.64987834766E+03  0.15294330000E+03 0.  0.
<mgrwt>
<rscale>  0 0.64927987E+03</rscale>
<asrwt>0</asrwt>
<pdfrwt beam="1">  1        2 0.22811763E+00 0.64927987E+03</pdfrwt>
<pdfrwt beam="2">  1       -2 0.62020243E-01 0.64927987E+03</pdfrwt>
<totfact> 0.32448236E+01</totfact>
</mgrwt>
</event>
<event>
 4    1  0.1701380E-008  0.7709304E+03  0.7818608E-02  0.9603074E-01
          2   -1    0    0  501    0  0.00000000000E+00  0.00000000000E+00  0.12513845561E+04  0.12513845561E+04  0.25500000000E-02 0. -1.
         -2   -1    0    0    0  501 -0.00000000000E+00 -0.00000000000E+00 -0.71784319669E+03  0.71784319670E+03  0.25500000000E-02 0.  1.
    8880022    1    1    2    0    0  0.75521261225E+03 -0.24412416046E+02  0.83952314513E+03  0.11397950781E+04  0.15294330000E+03 0.  0.
    8880022    1    1    2    0    0 -0.75521261225E+03  0.24412416046E+02 -0.30598178570E+03  0.82943267476E+03  0.15294330000E+03 0.  0.
<mgrwt>
<rscale>  0 0.77093042E+03</rscale>
<asrwt>0</asrwt>
<pdfrwt beam="1">  1        2 0.19252070E+00 0.77093042E+03</pdfrwt>
<pdfrwt beam="2">  1       -2 0.11043742E+00 0.77093042E+03</pdfrwt>
<totfact> 0.11692482E+01</totfact>
</mgrwt>
</event>
<event>
 4    1  0.1701380E-008  0.9931267E+03  0.7818608E-02  0.9316116E-01
         -2   -1    0    0    0  501 -0.00000000000E+00  0.00000000000E+00  0.52906376025E+03  0.52906376026E+03  0.25500000000E-02 0.  1.
          2   -1    0    0  501    0  0.00000000000E+00 -0.00000000000E+00 -0.29851592420E+04  0.29851592420E+04  0.25500000000E-02 0. -1.
    8880022    1    1    2    0    0 -0.97332370013E+03 -0.12469971350E+03 -0.23047686452E+04  0.25096332809E+04  0.15294330000E+03 0.  0.
    8880022    1    1    2    0    0  0.97332370013E+03  0.12469971350E+03 -0.15132683656E+03  0.10045897214E+04  0.15294330000E+03 0.  0.
<mgrwt>
<rscale>  0 0.99312673E+03</rscale>
<asrwt>0</asrwt>
<pdfrwt beam="1">  1        2 0.45925526E+00 0.99312673E+03</pdfrwt>
<pdfrwt beam="2">  1       -2 0.81394426E-01 0.99312673E+03</pdfrwt>
<totfact> 0.24164959E+00</totfact>
</mgrwt>
</event>
<event>
 4    1  0.1701380E-008  0.1368318E+04  0.7818608E-02  0.8977076E-01
          2   -1    0    0  501    0  0.00000000000E+00  0.00000000000E+00  0.34496118775E+04  0.34496118775E+04  0.25500000000E-02 0. -1.
         -2   -1    0    0    0  501 -0.00000000000E+00 -0.00000000000E+00 -0.92978142310E+03  0.92978142310E+03  0.25500000000E-02 0.  1.
    8880022    1    1    2    0    0  0.11561427556E+04 -0.71570692106E+03  0.26726603784E+04  0.30025668385E+04  0.15294330000E+03 0.  0.
    8880022    1    1    2    0    0 -0.11561427556E+04  0.71570692106E+03 -0.15282992398E+03  0.13768264622E+04  0.15294330000E+03 0.  0.
<mgrwt>
<rscale>  0 0.13683180E+04</rscale>
<asrwt>0</asrwt>
<pdfrwt beam="1">  1        2 0.53070953E+00 0.13683180E+04</pdfrwt>
<pdfrwt beam="2">  1       -2 0.14304329E+00 0.13683180E+04</pdfrwt>
<totfact> 0.29031734E-01</totfact>
</mgrwt>
</event>
<event>
 4    1  0.1701380E-008  0.5987406E+03  0.7818608E-02  0.9908022E-01
          2   -1    0    0  501    0  0.00000000000E+00  0.00000000000E+00  0.25571614525E+04  0.25571614525E+04  0.25500000000E-02 0. -1.
         -2   -1    0    0    0  501 -0.00000000000E+00 -0.00000000000E+00 -0.27760817681E+03  0.27760817682E+03  0.25500000000E-02 0.  1.
    8880022    1    1    2    0    0  0.47007226235E+03  0.33783240683E+03  0.21370003413E+04  0.22192928555E+04  0.15294330000E+03 0.  0.
    8880022    1    1    2    0    0 -0.47007226235E+03 -0.33783240683E+03  0.14255293439E+03  0.61547677377E+03  0.15294330000E+03 0.  0.
<mgrwt>
<rscale>  0 0.59874061E+03</rscale>
<asrwt>0</asrwt>
<pdfrwt beam="1">  1        2 0.39340945E+00 0.59874061E+03</pdfrwt>
<pdfrwt beam="2">  1       -2 0.42708951E-01 0.59874061E+03</pdfrwt>
<totfact> 0.18032751E+01</totfact>
</mgrwt>
</event>
<event>
 4    1  0.1701380E-008  0.8142311E+03  0.7818608E-02  0.9539644E-01
         -2   -1    0    0    0  501 -0.00000000000E+00  0.00000000000E+00  0.35828996803E+03  0.35828996804E+03  0.25500000000E-02 0.  1.
          2   -1    0    0  501    0  0.00000000000E+00 -0.00000000000E+00 -0.33052060436E+04  0.33052060436E+04  0.25500000000E-02 0. -1.
    8880022    1    1    2    0    0 -0.68941206557E+03  0.40532911681E+03 -0.25818994505E+03  0.85418639057E+03  0.15294330000E+03 0.  0.
    8880022    1    1    2    0    0  0.68941206557E+03 -0.40532911681E+03 -0.26887261306E+04  0.28093096211E+04  0.15294330000E+03 0.  0.
<mgrwt>
<rscale>  0 0.81423114E+03</rscale>
<asrwt>0</asrwt>
<pdfrwt beam="1">  1        2 0.50849322E+00 0.81423114E+03</pdfrwt>
<pdfrwt beam="2">  1       -2 0.55121536E-01 0.81423114E+03</pdfrwt>
<totfact> 0.36393456E+00</totfact>
</mgrwt>
</event>
<event>
 4    1  0.1701380E-008  0.1710333E+03  0.7818608E-02  0.1176775E+00
         -2   -1    0    0    0  501 -0.00000000000E+00  0.00000000000E+00  0.10324676622E+03  0.10324676625E+03  0.25500000000E-02 0.  1.
          2   -1    0    0  501    0  0.00000000000E+00 -0.00000000000E+00 -0.27539153346E+04  0.27539153346E+04  0.25500000000E-02 0. -1.
    8880022    1    1    2    0    0 -0.63013200311E+02  0.43475158030E+02  0.27765885570E+02  0.17327247385E+03  0.15294330000E+03 0.  1.
    8880022    1    1    2    0    0  0.63013200311E+02 -0.43475158030E+02 -0.26784344540E+04  0.26838896270E+04  0.15294330000E+03 0.  0.
<mgrwt>
<rscale>  0 0.17103335E+03</rscale>
<asrwt>0</asrwt>
<pdfrwt beam="1">  1        2 0.42367923E+00 0.17103335E+03</pdfrwt>
<pdfrwt beam="2">  1       -2 0.15884120E-01 0.17103335E+03</pdfrwt>
<totfact> 0.94724787E+01</totfact>
</mgrwt>
</event>
<event>
 4    1  0.1701380E-008  0.1348705E+04  0.7818608E-02  0.8991809E-01
          2   -1    0    0  501    0  0.00000000000E+00  0.00000000000E+00  0.36633596661E+04  0.36633596661E+04  0.25500000000E-02 0. -1.
         -2   -1    0    0    0  501 -0.00000000000E+00 -0.00000000000E+00 -0.77708087347E+03  0.77708087348E+03  0.25500000000E-02 0.  1.
    8880022    1    1    2    0    0 -0.13128001086E+04 -0.26864525738E+03  0.10912437209E+03  0.13531127747E+04  0.15294330000E+03 0.  0.
    8880022    1    1    2    0    0  0.13128001086E+04  0.26864525738E+03  0.27771544205E+04  0.30873277649E+04  0.15294330000E+03 0.  0.
<mgrwt>
<rscale>  0 0.13487053E+04</rscale>
<asrwt>0</asrwt>
<pdfrwt beam="1">  1        2 0.56359381E+00 0.13487053E+04</pdfrwt>
<pdfrwt beam="2">  1       -2 0.11955090E+00 0.13487053E+04</pdfrwt>
<totfact> 0.32617655E-01</totfact>
</mgrwt>
</event>
<event>
 4    1  0.1701380E-008  0.5689319E+03  0.7818608E-02  0.9972045E-01
         -2   -1    0    0    0  501 -0.00000000000E+00  0.00000000000E+00  0.31409319044E+03  0.31409319045E+03  0.25500000000E-02 0.  1.
          2   -1    0    0  501    0  0.00000000000E+00 -0.00000000000E+00 -0.27998571069E+04  0.27998571069E+04  0.25500000000E-02 0. -1.
    8880022    1    1    2    0    0  0.47259294622E+03 -0.27739450961E+03 -0.51761748837E+01  0.56895540473E+03  0.15294330000E+03 0.  0.
    8880022    1    1    2    0    0 -0.47259294622E+03  0.27739450961E+03 -0.24805877416E+04  0.25449948926E+04  0.15294330000E+03 0. -1.
<mgrwt>
<rscale>  0 0.56893186E+03</rscale>
<asrwt>0</asrwt>
<pdfrwt beam="1">  1        2 0.43074723E+00 0.56893186E+03</pdfrwt>
<pdfrwt beam="2">  1       -2 0.48322031E-01 0.56893186E+03</pdfrwt>
<totfact> 0.10288229E+01</totfact>
</mgrwt>
</event>
<event>
 4    1  0.1701380E-008  0.7922269E+03  0.7818608E-02  0.9571337E-01
          2   -1    0    0  501    0  0.00000000000E+00  0.00000000000E+00  0.12601782332E+04  0.12601782332E+04  0.25500000000E-02 0. -1.
         -2   -1    0    0    0  501 -0.00000000000E+00 -0.00000000000E+00 -0.96202261024E+03  0.96202261024E+03  0.25500000000E-02 0.  1.
    8880022    1    1    2    0    0  0.26549835002E+03 -0.73057674310E+03  0.92070931630E+03  0.12146312402E+04  0.15294330000E+03 0.  0.
    8880022    1    1    2    0    0 -0.26549835002E+03  0.73057674310E+03 -0.62255369333E+03  0.10075696033E+04  0.15294330000E+03 0.  0.
<mgrwt>
<rscale>  0 0.79222686E+03</rscale>
<asrwt>0</asrwt>
<pdfrwt beam="1">  1        2 0.19387357E+00 0.79222686E+03</pdfrwt>
<pdfrwt beam="2">  1       -2 0.14800348E+00 0.79222686E+03</pdfrwt>
<totfact> 0.55035237E+00</totfact>
</mgrwt>
</event>
<event>
 4    1  0.1701380E-008  0.6701148E+03  0.7818608E-02  0.9769751E-01
         -2   -1    0    0    0  501 -0.00000000000E+00  0.00000000000E+00  0.95675219673E+03  0.95675219673E+03  0.25500000000E-02 0.  1.
          2   -1    0    0  501    0  0.00000000000E+00 -0.00000000000E+00 -0.16647285273E+04  0.16647285273E+04  0.25500000000E-02 0. -1.
    8880022    1    1    2    0    0  0.61391574696E+03  0.22083839519E+03 -0.14646894620E+04  0.16107045087E+04  0.15294330000E+03 0.  0.
    8880022    1    1    2    0    0 -0.61391574696E+03 -0.22083839519E+03  0.75671313145E+03  0.10107762153E+04  0.15294330000E+03 0.  0.
<mgrwt>
<rscale>  0 0.67011476E+03</rscale>
<asrwt>0</asrwt>
<pdfrwt beam="1">  1        2 0.25611208E+00 0.67011476E+03</pdfrwt>
<pdfrwt beam="2">  1       -2 0.14719265E+00 0.67011476E+03</pdfrwt>
<totfact> 0.33751984E+00</totfact>
</mgrwt>
</event>
<event>
 4    1  0.1701380E-008  0.6544513E+03  0.7818608E-02  0.9798462E-01
          2   -1    0    0  501    0  0.00000000000E+00  0.00000000000E+00  0.11166629592E+04  0.11166629593E+04  0.25500000000E-02 0. -1.
         -2   -1    0    0    0  501 -0.00000000000E+00 -0.00000000000E+00 -0.69959857505E+03  0.69959857505E+03  0.25500000000E-02 0.  1.
    8880022    1    1    2    0    0  0.13928169062E+03 -0.62089890750E+03  0.81890396325E+03  0.10482891761E+04  0.15294330000E+03 0.  0.
    8880022    1    1    2    0    0 -0.13928169062E+03  0.62089890750E+03 -0.40183957905E+03  0.76797235821E+03  0.15294330000E+03 0.  0.
<mgrwt>
<rscale>  0 0.65445129E+03</rscale>
<asrwt>0</asrwt>
<pdfrwt beam="1">  1        2 0.17179430E+00 0.65445129E+03</pdfrwt>
<pdfrwt beam="2">  1       -2 0.10763055E+00 0.65445129E+03</pdfrwt>
<totfact> 0.15181834E+01</totfact>
</mgrwt>
</event>
<event>
 4    1  0.1701380E-008  0.2624826E+03  0.7818608E-02  0.1105661E+00
          2   -1    0    0  501    0  0.00000000000E+00  0.00000000000E+00  0.25675284836E+04  0.25675284836E+04  0.25500000000E-02 0. -1.
         -2   -1    0    0    0  501 -0.00000000000E+00 -0.00000000000E+00 -0.81093382309E+02  0.81093382349E+02  0.25500000000E-02 0.  1.
    8880022    1    1    2    0    0  0.16916311447E+03 -0.12995887296E+03  0.23264822322E+04  0.23412425542E+04  0.15294330000E+03 0.  0.
    8880022    1    1    2    0    0 -0.16916311447E+03  0.12995887296E+03  0.15995286919E+03  0.30737931182E+03  0.15294330000E+03 0.  1.
<mgrwt>
<rscale>  0 0.26248261E+03</rscale>
<asrwt>0</asrwt>
<pdfrwt beam="1">  1        2 0.39500444E+00 0.26248261E+03</pdfrwt>
<pdfrwt beam="2">  1       -2 0.12475903E-01 0.26248261E+03</pdfrwt>
<totfact> 0.17186280E+02</totfact>
</mgrwt>
</event>
<event>
 4    1  0.1701380E-008  0.9620335E+03  0.7818608E-02  0.9351195E-01
          2   -1    0    0  501    0  0.00000000000E+00  0.00000000000E+00  0.18834325005E+04  0.18834325006E+04  0.25500000000E-02 0. -1.
         -2   -1    0    0    0  501 -0.00000000000E+00 -0.00000000000E+00 -0.52861002115E+03  0.52861002116E+03  0.25500000000E-02 0.  1.
    8880022    1    1    2    0    0 -0.22617474020E+03 -0.92247591713E+03  0.35741197984E+03  0.10262805694E+04  0.15294330000E+03 0.  0.
    8880022    1    1    2    0    0  0.22617474020E+03  0.92247591713E+03  0.99741049956E+03  0.13857619523E+04  0.15294330000E+03 0.  0.
<mgrwt>
<rscale>  0 0.96203351E+03</rscale>
<asrwt>0</asrwt>
<pdfrwt beam="1">  1        2 0.28975885E+00 0.96203351E+03</pdfrwt>
<pdfrwt beam="2">  1       -2 0.81324617E-01 0.96203351E+03</pdfrwt>
<totfact> 0.10381078E+01</totfact>
</mgrwt>
</event>
<event>
 4    1  0.1701380E-008  0.7836690E+03  0.7818608E-02  0.9583961E-01
          2   -1    0    0  501    0  0.00000000000E+00  0.00000000000E+00  0.22750424516E+04  0.22750424516E+04  0.25500000000E-02 0. -1.
         -2   -1    0    0    0  501 -0.00000000000E+00 -0.00000000000E+00 -0.10064107682E+04  0.10064107682E+04  0.25500000000E-02 0.  1.
    8880022    1    1    2    0    0 -0.61124339760E+03  0.46596891608E+03  0.20378557242E+04  0.21833444821E+04  0.15294330000E+03 0.  0.
    8880022    1    1    2    0    0  0.61124339760E+03 -0.46596891608E+03 -0.76922404076E+03  0.10981087377E+04  0.15294330000E+03 0.  0.
<mgrwt>
<rscale>  0 0.78366905E+03</rscale>
<asrwt>0</asrwt>
<pdfrwt beam="1">  1        2 0.35000653E+00 0.78366905E+03</pdfrwt>
<pdfrwt beam="2">  1       -2 0.15483243E+00 0.78366905E+03</pdfrwt>
<totfact> 0.13398542E+00</totfact>
</mgrwt>
</event>
<event>
 4    1  0.1701380E-008  0.1238703E+04  0.7818608E-02  0.9079638E-01
         -2   -1    0    0    0  501 -0.00000000000E+00  0.00000000000E+00  0.10752252919E+04  0.10752252919E+04  0.25500000000E-02 0.  1.
          2   -1    0    0  501    0  0.00000000000E+00 -0.00000000000E+00 -0.22345316336E+04  0.22345316336E+04  0.25500000000E-02 0. -1.
    8880022    1    1    2    0    0 -0.11496301441E+04  0.43513763599E+03  0.41516284975E+03  0.13064249214E+04  0.15294330000E+03 0.  0.
    8880022    1    1    2    0    0  0.11496301441E+04 -0.43513763599E+03 -0.15744691915E+04  0.20033320040E+04  0.15294330000E+03 0.  0.
<mgrwt>
<rscale>  0 0.12387033E+04</rscale>
<asrwt>0</asrwt>
<pdfrwt beam="1">  1        2 0.34377410E+00 0.12387033E+04</pdfrwt>
<pdfrwt beam="2">  1       -2 0.16541928E+00 0.12387033E+04</pdfrwt>
<totfact> 0.11004250E+00</totfact>
</mgrwt>
</event>
<event>
 4    1  0.1701380E-008  0.2491304E+04  0.7818608E-02  0.8406090E-01
         -2   -1    0    0    0  501 -0.00000000000E+00  0.00000000000E+00  0.20074587580E+04  0.20074587580E+04  0.25500000000E-02 0.  1.
          2   -1    0    0  501    0  0.00000000000E+00 -0.00000000000E+00 -0.41211277529E+04  0.41211277529E+04  0.25500000000E-02 0. -1.
    8880022    1    1    2    0    0 -0.21188717532E+04 -0.13013786568E+04 -0.25882957121E+04  0.35924741142E+04  0.15294330000E+03 0.  0.
    8880022    1    1    2    0    0  0.21188717532E+04  0.13013786568E+04  0.47462671716E+03  0.25361123967E+04  0.15294330000E+03 0.  0.
<mgrwt>
<rscale>  0 0.24913040E+04</rscale>
<asrwt>0</asrwt>
<pdfrwt beam="1">  1        2 0.63401965E+00 0.24913040E+04</pdfrwt>
<pdfrwt beam="2">  1       -2 0.30883981E+00 0.24913040E+04</pdfrwt>
<totfact> 0.63897696E-03</totfact>
</mgrwt>
</event>
<event>
 4    1  0.1701380E-008  0.2523638E+04  0.7818608E-02  0.8394612E-01
         -2   -1    0    0    0  501 -0.00000000000E+00  0.00000000000E+00  0.17851224389E+04  0.17851224389E+04  0.25500000000E-02 0.  1.
          2   -1    0    0  501    0  0.00000000000E+00 -0.00000000000E+00 -0.45722231284E+04  0.45722231284E+04  0.25500000000E-02 0. -1.
    8880022    1    1    2    0    0  0.16781288755E+04 -0.18786276571E+04  0.96379682930E+02  0.25254779929E+04  0.15294330000E+03 0.  0.
    8880022    1    1    2    0    0 -0.16781288755E+04  0.18786276571E+04 -0.28834803724E+04  0.38318675744E+04  0.15294330000E+03 0.  0.
<mgrwt>
<rscale>  0 0.25236383E+04</rscale>
<asrwt>0</asrwt>
<pdfrwt beam="1">  1        2 0.70341894E+00 0.25236383E+04</pdfrwt>
<pdfrwt beam="2">  1       -2 0.27463422E+00 0.25236383E+04</pdfrwt>
<totfact> 0.39736333E-03</totfact>
</mgrwt>
</event>
<event>
 4    1  0.1701380E-008  0.9449074E+03  0.7818608E-02  0.9371123E-01
         -2   -1    0    0    0  501 -0.00000000000E+00  0.00000000000E+00  0.43377919170E+03  0.43377919171E+03  0.25500000000E-02 0.  1.
          2   -1    0    0  501    0  0.00000000000E+00 -0.00000000000E+00 -0.40355998697E+04  0.40355998697E+04  0.25500000000E-02 0. -1.
    8880022    1    1    2    0    0 -0.81425825903E+03  0.45435874730E+03 -0.33651339053E+04  0.34952791358E+04  0.15294330000E+03 0.  0.
    8880022    1    1    2    0    0  0.81425825903E+03 -0.45435874730E+03 -0.23668677268E+03  0.97409992559E+03  0.15294330000E+03 0.  0.
<mgrwt>
<rscale>  0 0.94490742E+03</rscale>
<asrwt>0</asrwt>
<pdfrwt beam="1">  1        2 0.62086149E+00 0.94490742E+03</pdfrwt>
<pdfrwt beam="2">  1       -2 0.66735263E-01 0.94490742E+03</pdfrwt>
<totfact> 0.70411595E-01</totfact>
</mgrwt>
</event>
<event>
 4    1  0.1701380E-008  0.1639134E+04  0.7818608E-02  0.8796861E-01
         -2   -1    0    0    0  501 -0.00000000000E+00  0.00000000000E+00  0.16004558759E+04  0.16004558759E+04  0.25500000000E-02 0.  1.
          2   -1    0    0  501    0  0.00000000000E+00 -0.00000000000E+00 -0.22498749371E+04  0.22498749371E+04  0.25500000000E-02 0. -1.
    8880022    1    1    2    0    0 -0.16179143655E+04  0.21382781894E+03  0.64525414720E+03  0.17615657233E+04  0.15294330000E+03 0.  0.
    8880022    1    1    2    0    0  0.16179143655E+04 -0.21382781894E+03 -0.12946732084E+04  0.20887650897E+04  0.15294330000E+03 0.  0.
<mgrwt>
<rscale>  0 0.16391342E+04</rscale>
<asrwt>0</asrwt>
<pdfrwt beam="1">  1        2 0.34613460E+00 0.16391342E+04</pdfrwt>
<pdfrwt beam="2">  1       -2 0.24622398E+00 0.16391342E+04</pdfrwt>
<totfact> 0.30293640E-01</totfact>
</mgrwt>
</event>
<event>
 4    1  0.1701380E-008  0.6283635E+03  0.7818608E-02  0.9848247E-01
         -2   -1    0    0    0  501 -0.00000000000E+00  0.00000000000E+00  0.48830431000E+03  0.48830431001E+03  0.25500000000E-02 0.  1.
          2   -1    0    0  501    0  0.00000000000E+00 -0.00000000000E+00 -0.36243120030E+04  0.36243120030E+04  0.25500000000E-02 0. -1.
    8880022    1    1    2    0    0  0.18891388709E+03  0.57944852227E+03 -0.33804698431E+04  0.34383741884E+04  0.15294330000E+03 0.  0.
    8880022    1    1    2    0    0 -0.18891388709E+03 -0.57944852227E+03  0.24446215009E+03  0.67424212456E+03  0.15294330000E+03 0.  0.
<mgrwt>
<rscale>  0 0.62836351E+03</rscale>
<asrwt>0</asrwt>
<pdfrwt beam="1">  1        2 0.55758644E+00 0.62836351E+03</pdfrwt>
<pdfrwt beam="2">  1       -2 0.75123742E-01 0.62836351E+03</pdfrwt>
<totfact> 0.11913475E+00</totfact>
</mgrwt>
</event>
<event>
 4    1  0.1701380E-008  0.5230502E+03  0.7818608E-02  0.1007932E+00
          2   -1    0    0  501    0  0.00000000000E+00  0.00000000000E+00  0.43133025297E+03  0.43133025297E+03  0.25500000000E-02 0. -1.
         -2   -1    0    0    0  501 -0.00000000000E+00 -0.00000000000E+00 -0.70373358327E+03  0.70373358328E+03  0.25500000000E-02 0.  1.
    8880022    1    1    2    0    0 -0.19125063737E+03  0.46218290513E+03  0.42098904592E+02  0.52474166489E+03  0.15294330000E+03 0.  0.
    8880022    1    1    2    0    0  0.19125063737E+03 -0.46218290513E+03 -0.31450223490E+03  0.61032217136E+03  0.15294330000E+03 0.  0.
<mgrwt>
<rscale>  0 0.52305019E+03</rscale>
<asrwt>0</asrwt>
<pdfrwt beam="1">  1        2 0.66358501E-01 0.52305019E+03</pdfrwt>
<pdfrwt beam="2">  1       -2 0.10826670E+00 0.52305019E+03</pdfrwt>
<totfact> 0.51275266E+01</totfact>
</mgrwt>
</event>
<event>
 4    1  0.1701380E-008  0.2639328E+03  0.7818608E-02  0.1104803E+00
          2   -1    0    0  501    0  0.00000000000E+00  0.00000000000E+00  0.13568163296E+04  0.13568163296E+04  0.25500000000E-02 0. -1.
         -2   -1    0    0    0  501 -0.00000000000E+00 -0.00000000000E+00 -0.77805545904E+03  0.77805545904E+03  0.25500000000E-02 0.  1.
    8880022    1    1    2    0    0  0.40984486583E+02  0.21116141237E+03 -0.74223629930E+03  0.78776598507E+03  0.15294330000E+03 0.  0.
    8880022    1    1    2    0    0 -0.40984486583E+02 -0.21116141237E+03  0.13209971699E+04  0.13471058036E+04  0.15294330000E+03 0. -1.
<mgrwt>
<rscale>  0 0.26393280E+03</rscale>
<asrwt>0</asrwt>
<pdfrwt beam="1">  1        2 0.20874097E+00 0.26393280E+03</pdfrwt>
<pdfrwt beam="2">  1       -2 0.11970084E+00 0.26393280E+03</pdfrwt>
<totfact> 0.93207247E+00</totfact>
</mgrwt>
</event>
<event>
 4    1  0.1701380E-008  0.2774606E+03  0.7818608E-02  0.1097084E+00
          2   -1    0    0  501    0  0.00000000000E+00  0.00000000000E+00  0.51780382686E+03  0.51780382687E+03  0.25500000000E-02 0. -1.
         -2   -1    0    0    0  501 -0.00000000000E+00 -0.00000000000E+00 -0.70260963004E+03  0.70260963005E+03  0.25500000000E-02 0.  1.
    8880022    1    1    2    0    0 -0.88494042559E+02 -0.21391950407E+03 -0.63421570415E+03  0.69225281668E+03  0.15294330000E+03 0.  0.
    8880022    1    1    2    0    0  0.88494042559E+02  0.21391950407E+03  0.44940990097E+03  0.52816064024E+03  0.15294330000E+03 0.  0.
<mgrwt>
<rscale>  0 0.27746063E+03</rscale>
<asrwt>0</asrwt>
<pdfrwt beam="1">  1        2 0.79662128E-01 0.27746063E+03</pdfrwt>
<pdfrwt beam="2">  1       -2 0.10809379E+00 0.27746063E+03</pdfrwt>
<totfact> 0.43203279E+01</totfact>
</mgrwt>
</event>
<event>
 4    1  0.1701380E-008  0.6897955E+03  0.7818608E-02  0.9734844E-01
          2   -1    0    0  501    0  0.00000000000E+00  0.00000000000E+00  0.49577549999E+03  0.49577550000E+03  0.25500000000E-02 0. -1.
         -2   -1    0    0    0  501 -0.00000000000E+00 -0.00000000000E+00 -0.10222211714E+04  0.10222211714E+04  0.25500000000E-02 0.  1.
    8880022    1    1    2    0    0 -0.46725874873E+03 -0.48383410719E+03 -0.75582088828E+02  0.69392397761E+03  0.15294330000E+03 0.  0.
    8880022    1    1    2    0    0  0.46725874873E+03  0.48383410719E+03 -0.45086358261E+03  0.82407269381E+03  0.15294330000E+03 0.  0.
<mgrwt>
<rscale>  0 0.68979550E+03</rscale>
<asrwt>0</asrwt>
<pdfrwt beam="1">  1        2 0.76273154E-01 0.68979550E+03</pdfrwt>
<pdfrwt beam="2">  1       -2 0.15726480E+00 0.68979550E+03</pdfrwt>
<totfact> 0.16745566E+01</totfact>
</mgrwt>
</event>
<event>
 4    1  0.1701380E-008  0.8554225E+03  0.7818608E-02  0.9483088E-01
          2   -1    0    0  501    0  0.00000000000E+00  0.00000000000E+00  0.94781899167E+03  0.94781899167E+03  0.25500000000E-02 0. -1.
         -2   -1    0    0    0  501 -0.00000000000E+00 -0.00000000000E+00 -0.10330408349E+04  0.10330408349E+04  0.25500000000E-02 0.  1.
    8880022    1    1    2    0    0  0.98727212953E+02 -0.83582834227E+03  0.45523116253E+03  0.96901142649E+03  0.15294330000E+03 0.  0.
    8880022    1    1    2    0    0 -0.98727212953E+02  0.83582834227E+03 -0.54045300578E+03  0.10118484001E+04  0.15294330000E+03 0.  0.
<mgrwt>
<rscale>  0 0.85542255E+03</rscale>
<asrwt>0</asrwt>
<pdfrwt beam="1">  1        2 0.14581831E+00 0.85542255E+03</pdfrwt>
<pdfrwt beam="2">  1       -2 0.15892936E+00 0.85542255E+03</pdfrwt>
<totfact> 0.70294612E+00</totfact>
</mgrwt>
</event>
<event>
 4    1  0.1701380E-008  0.6807896E+03  0.7818608E-02  0.9750661E-01
          2   -1    0    0  501    0  0.00000000000E+00  0.00000000000E+00  0.49012281437E+03  0.49012281438E+03  0.25500000000E-02 0. -1.
         -2   -1    0    0    0  501 -0.00000000000E+00 -0.00000000000E+00 -0.10114058436E+04  0.10114058436E+04  0.25500000000E-02 0.  1.
    8880022    1    1    2    0    0 -0.43869533374E+03 -0.49762352651E+03 -0.69182022604E+02  0.68429567824E+03  0.15294330000E+03 0.  0.
    8880022    1    1    2    0    0  0.43869533374E+03  0.49762352651E+03 -0.45210100665E+03  0.81723297977E+03  0.15294330000E+03 0.  0.
<mgrwt>
<rscale>  0 0.68078956E+03</rscale>
<asrwt>0</asrwt>
<pdfrwt beam="1">  1        2 0.75403510E-01 0.68078956E+03</pdfrwt>
<pdfrwt beam="2">  1       -2 0.15560090E+00 0.68078956E+03</pdfrwt>
<totfact> 0.17476358E+01</totfact>
</mgrwt>
</event>
<event>
 4    1  0.1701380E-008  0.2333652E+03  0.7818608E-02  0.1124293E+00
          2   -1    0    0  501    0  0.00000000000E+00  0.00000000000E+00  0.77878336176E+03  0.77878336177E+03  0.25500000000E-02 0. -1.
         -2   -1    0    0    0  501 -0.00000000000E+00 -0.00000000000E+00 -0.13294229382E+03  0.13294229384E+03  0.25500000000E-02 0.  1.
    8880022    1    1    2    0    0 -0.81281043710E+02 -0.15640034891E+03  0.63676871998E+03  0.67818414385E+03  0.15294330000E+03 0.  0.
    8880022    1    1    2    0    0  0.81281043710E+02  0.15640034891E+03  0.90723479669E+01  0.23354151176E+03  0.15294330000E+03 0.  0.
<mgrwt>
<rscale>  0 0.23336523E+03</rscale>
<asrwt>0</asrwt>
<pdfrwt beam="1">  1        2 0.11981282E+00 0.23336523E+03</pdfrwt>
<pdfrwt beam="2">  1       -2 0.20452661E-01 0.23336523E+03</pdfrwt>
<totfact> 0.74601108E+02</totfact>
</mgrwt>
</event>
<event>
 4    1  0.1701380E-008  0.1013121E+04  0.7818608E-02  0.9294269E-01
         -2   -1    0    0    0  501 -0.00000000000E+00  0.00000000000E+00  0.57206751592E+03  0.57206751593E+03  0.25500000000E-02 0.  1.
          2   -1    0    0  501    0  0.00000000000E+00 -0.00000000000E+00 -0.35785224093E+04  0.35785224093E+04  0.25500000000E-02 0. -1.
    8880022    1    1    2    0    0  0.47507308815E+03 -0.88166266772E+03 -0.37807308637E+02  0.10138266836E+04  0.15294330000E+03 0.  0.
    8880022    1    1    2    0    0 -0.47507308815E+03  0.88166266772E+03 -0.29686475848E+04  0.31367632417E+04  0.15294330000E+03 0.  0.
<mgrwt>
<rscale>  0 0.10131215E+04</rscale>
<asrwt>0</asrwt>
<pdfrwt beam="1">  1        2 0.55054190E+00 0.10131215E+04</pdfrwt>
<pdfrwt beam="2">  1       -2 0.88010389E-01 0.10131215E+04</pdfrwt>
<totfact> 0.82344787E-01</totfact>
</mgrwt>
</event>
<event>
 4    1  0.1701380E-008  0.6530998E+03  0.7818608E-02  0.9800980E-01
         -2   -1    0    0    0  501 -0.00000000000E+00  0.00000000000E+00  0.68460990760E+03  0.68460990760E+03  0.25500000000E-02 0.  1.
          2   -1    0    0  501    0  0.00000000000E+00 -0.00000000000E+00 -0.15731063791E+04  0.15731063791E+04  0.25500000000E-02 0. -1.
    8880022    1    1    2    0    0 -0.60283953631E+03 -0.19932920412E+03 -0.13215264023E+04  0.14741001740E+04  0.15294330000E+03 0. -1.
    8880022    1    1    2    0    0  0.60283953631E+03  0.19932920412E+03  0.43302993074E+03  0.78361611271E+03  0.15294330000E+03 0.  0.
<mgrwt>
<rscale>  0 0.65309976E+03</rscale>
<asrwt>0</asrwt>
<pdfrwt beam="1">  1        2 0.24201637E+00 0.65309976E+03</pdfrwt>
<pdfrwt beam="2">  1       -2 0.10532460E+00 0.65309976E+03</pdfrwt>
<totfact> 0.87732055E+00</totfact>
</mgrwt>
</event>
<event>
 4    1  0.1701380E-008  0.1943067E+04  0.7818608E-02  0.8633711E-01
          2   -1    0    0  501    0  0.00000000000E+00  0.00000000000E+00  0.18619092974E+04  0.18619092974E+04  0.25500000000E-02 0. -1.
         -2   -1    0    0    0  501 -0.00000000000E+00 -0.00000000000E+00 -0.25091067134E+04  0.25091067134E+04  0.25500000000E-02 0.  1.
    8880022    1    1    2    0    0 -0.17292276551E+04  0.87286363714E+03  0.63364047506E+03  0.20437737440E+04  0.15294330000E+03 0.  0.
    8880022    1    1    2    0    0  0.17292276551E+04 -0.87286363714E+03 -0.12808378910E+04  0.23272422668E+04  0.15294330000E+03 0.  0.
<mgrwt>
<rscale>  0 0.19430674E+04</rscale>
<asrwt>0</asrwt>
<pdfrwt beam="1">  1        2 0.28644758E+00 0.19430674E+04</pdfrwt>
<pdfrwt beam="2">  1       -2 0.38601642E+00 0.19430674E+04</pdfrwt>
<totfact> 0.65221364E-02</totfact>
</mgrwt>
</event>
<event>
 4    1  0.1701380E-008  0.8598197E+03  0.7818608E-02  0.9477251E-01
          2   -1    0    0  501    0  0.00000000000E+00  0.00000000000E+00  0.46909267135E+04  0.46909267135E+04  0.25500000000E-02 0. -1.
         -2   -1    0    0    0  501 -0.00000000000E+00 -0.00000000000E+00 -0.20412427832E+03  0.20412427833E+03  0.25500000000E-02 0.  1.
    8880022    1    1    2    0    0 -0.32704852531E+03 -0.78034450265E+03  0.34118773120E+04  0.35185503728E+04  0.15294330000E+03 0.  0.
    8880022    1    1    2    0    0  0.32704852531E+03  0.78034450265E+03  0.10749251231E+04  0.13765006190E+04  0.15294330000E+03 0.  0.
<mgrwt>
<rscale>  0 0.85981971E+03</rscale>
<asrwt>0</asrwt>
<pdfrwt beam="1">  1        2 0.72168096E+00 0.85981971E+03</pdfrwt>
<pdfrwt beam="2">  1       -2 0.31403738E-01 0.85981971E+03</pdfrwt>
<totfact> 0.82649575E-01</totfact>
</mgrwt>
</event>
<event>
 4    1  0.1701380E-008  0.1226973E+04  0.7818608E-02  0.9089570E-01
         -2   -1    0    0    0  501 -0.00000000000E+00  0.00000000000E+00  0.20734612831E+04  0.20734612831E+04  0.25500000000E-02 0.  1.
          2   -1    0    0  501    0  0.00000000000E+00 -0.00000000000E+00 -0.21843949310E+04  0.21843949310E+04  0.25500000000E-02 0. -1.
    8880022    1    1    2    0    0 -0.10227315250E+04  0.66037163584E+03 -0.17949639219E+04  0.21742487446E+04  0.15294330000E+03 0.  0.
    8880022    1    1    2    0    0  0.10227315250E+04 -0.66037163584E+03  0.16840302741E+04  0.20836074694E+04  0.15294330000E+03 0.  0.
<mgrwt>
<rscale>  0 0.12269727E+04</rscale>
<asrwt>0</asrwt>
<pdfrwt beam="1">  1        2 0.33606076E+00 0.12269727E+04</pdfrwt>
<pdfrwt beam="2">  1       -2 0.31899404E+00 0.12269727E+04</pdfrwt>
<totfact> 0.12487532E-01</totfact>
</mgrwt>
</event>
<event>
 4    1  0.1701380E-008  0.1185596E+04  0.7818608E-02  0.9125559E-01
         -2   -1    0    0    0  501 -0.00000000000E+00  0.00000000000E+00  0.86624074216E+03  0.86624074217E+03  0.25500000000E-02 0.  1.
          2   -1    0    0  501    0  0.00000000000E+00 -0.00000000000E+00 -0.27810515476E+04  0.27810515476E+04  0.25500000000E-02 0. -1.
    8880022    1    1    2    0    0  0.11399441857E+04 -0.28770253592E+03  0.21954666960E+03  0.12057520014E+04  0.15294330000E+03 0.  0.
    8880022    1    1    2    0    0 -0.11399441857E+04  0.28770253592E+03 -0.21343574751E+04  0.24415402884E+04  0.15294330000E+03 0.  0.
<mgrwt>
<rscale>  0 0.11855957E+04</rscale>
<asrwt>0</asrwt>
<pdfrwt beam="1">  1        2 0.42785408E+00 0.11855957E+04</pdfrwt>
<pdfrwt beam="2">  1       -2 0.13326781E+00 0.11855957E+04</pdfrwt>
<totfact> 0.95343671E-01</totfact>
</mgrwt>
</event>
<event>
 4    1  0.1701380E-008  0.9235720E+03  0.7818608E-02  0.9396586E-01
          2   -1    0    0  501    0  0.00000000000E+00  0.00000000000E+00  0.85020110466E+03  0.85020110467E+03  0.25500000000E-02 0. -1.
         -2   -1    0    0    0  501 -0.00000000000E+00 -0.00000000000E+00 -0.13867546738E+04  0.13867546738E+04  0.25500000000E-02 0.  1.
    8880022    1    1    2    0    0  0.57225248193E+03 -0.70860470758E+03 -0.85644151122E+03  0.12595543854E+04  0.15294330000E+03 0.  0.
    8880022    1    1    2    0    0 -0.57225248193E+03  0.70860470758E+03  0.31988794205E+03  0.97740139307E+03  0.15294330000E+03 0.  0.
<mgrwt>
<rscale>  0 0.92357197E+03</rscale>
<asrwt>0</asrwt>
<pdfrwt beam="1">  1        2 0.13080017E+00 0.92357197E+03</pdfrwt>
<pdfrwt beam="2">  1       -2 0.21334687E+00 0.92357197E+03</pdfrwt>
<totfact> 0.34645419E+00</totfact>
</mgrwt>
</event>
<event>
 4    1  0.1701380E-008  0.2588631E+03  0.7818608E-02  0.1107828E+00
          2   -1    0    0  501    0  0.00000000000E+00  0.00000000000E+00  0.18011322405E+04  0.18011322405E+04  0.25500000000E-02 0. -1.
         -2   -1    0    0    0  501 -0.00000000000E+00 -0.00000000000E+00 -0.61091089883E+02  0.61091089936E+02  0.25500000000E-02 0.  1.
    8880022    1    1    2    0    0  0.16360353158E+03  0.12981656764E+03  0.14522450885E+04  0.14751358943E+04  0.15294330000E+03 0.  0.
    8880022    1    1    2    0    0 -0.16360353158E+03 -0.12981656764E+03  0.28779606215E+03  0.38708743610E+03  0.15294330000E+03 0.  0.
<mgrwt>
<rscale>  0 0.25886311E+03</rscale>
<asrwt>0</asrwt>
<pdfrwt beam="1">  1        2 0.27709732E+00 0.25886311E+03</pdfrwt>
<pdfrwt beam="2">  1       -2 0.93986274E-02 0.25886311E+03</pdfrwt>
<totfact> 0.69477208E+02</totfact>
</mgrwt>
</event>
<event>
 4    1  0.1701380E-008  0.7100003E+03  0.7818608E-02  0.9700282E-01
          2   -1    0    0  501    0  0.00000000000E+00  0.00000000000E+00  0.13050699455E+04  0.13050699455E+04  0.25500000000E-02 0. -1.
         -2   -1    0    0    0  501 -0.00000000000E+00 -0.00000000000E+00 -0.60841610619E+03  0.60841610619E+03  0.25500000000E-02 0.  1.
    8880022    1    1    2    0    0 -0.26458484375E+03 -0.64086164728E+03  0.92645090894E+03  0.11672239417E+04  0.15294330000E+03 0.  0.
    8880022    1    1    2    0    0  0.26458484375E+03  0.64086164728E+03 -0.22979706963E+03  0.74626210994E+03  0.15294330000E+03 0.  1.
<mgrwt>
<rscale>  0 0.71000031E+03</rscale>
<asrwt>0</asrwt>
<pdfrwt beam="1">  1        2 0.20077999E+00 0.71000031E+03</pdfrwt>
<pdfrwt beam="2">  1       -2 0.93602479E-01 0.71000031E+03</pdfrwt>
<totfact> 0.16252235E+01</totfact>
</mgrwt>
</event>
<event>
 4    1  0.1701380E-008  0.9072404E+03  0.7818608E-02  0.9416576E-01
          2   -1    0    0  501    0  0.00000000000E+00  0.00000000000E+00  0.14553727748E+04  0.14553727748E+04  0.25500000000E-02 0. -1.
         -2   -1    0    0    0  501 -0.00000000000E+00 -0.00000000000E+00 -0.69678604187E+03  0.69678604188E+03  0.25500000000E-02 0.  1.
    8880022    1    1    2    0    0 -0.86217086164E+03  0.23739168492E+03  0.84629920834E+03  0.12406882807E+04  0.15294330000E+03 0.  0.
    8880022    1    1    2    0    0  0.86217086164E+03 -0.23739168492E+03 -0.87712475374E+02  0.91147053605E+03  0.15294330000E+03 0.  0.
<mgrwt>
<rscale>  0 0.90724035E+03</rscale>
<asrwt>0</asrwt>
<pdfrwt beam="1">  1        2 0.22390350E+00 0.90724035E+03</pdfrwt>
<pdfrwt beam="2">  1       -2 0.10719785E+00 0.90724035E+03</pdfrwt>
<totfact> 0.94510752E+00</totfact>
</mgrwt>
</event>
<event>
 4    1  0.1701380E-008  0.8669701E+03  0.7818608E-02  0.9467839E-01
         -2   -1    0    0    0  501 -0.00000000000E+00  0.00000000000E+00  0.17660948634E+04  0.17660948634E+04  0.25500000000E-02 0.  1.
          2   -1    0    0  501    0  0.00000000000E+00 -0.00000000000E+00 -0.87809093040E+03  0.87809093041E+03  0.25500000000E-02 0. -1.
    8880022    1    1    2    0    0 -0.15822340813E+02 -0.85322633117E+03  0.13930772083E+04  0.16408233543E+04  0.15294330000E+03 0.  0.
    8880022    1    1    2    0    0  0.15822340813E+02  0.85322633117E+03 -0.50507327528E+03  0.10033624395E+04  0.15294330000E+03 0.  0.
<mgrwt>
<rscale>  0 0.86697011E+03</rscale>
<asrwt>0</asrwt>
<pdfrwt beam="1">  1        2 0.13509091E+00 0.86697011E+03</pdfrwt>
<pdfrwt beam="2">  1       -2 0.27170690E+00 0.86697011E+03</pdfrwt>
<totfact> 0.14624701E+00</totfact>
</mgrwt>
</event>
<event>
 4    1  0.1701380E-008  0.1080266E+04  0.7818608E-02  0.9224642E-01
          2   -1    0    0  501    0  0.00000000000E+00  0.00000000000E+00  0.16418185204E+04  0.16418185204E+04  0.25500000000E-02 0. -1.
         -2   -1    0    0    0  501 -0.00000000000E+00 -0.00000000000E+00 -0.11639815390E+04  0.11639815390E+04  0.25500000000E-02 0.  1.
    8880022    1    1    2    0    0  0.10690276682E+04 -0.27633987652E+02 -0.63646488149E+03  0.12538193614E+04  0.15294330000E+03 0.  0.
    8880022    1    1    2    0    0 -0.10690276682E+04  0.27633987652E+02  0.11143018629E+04  0.15519806981E+04  0.15294330000E+03 0.  0.
<mgrwt>
<rscale>  0 0.10802664E+04</rscale>
<asrwt>0</asrwt>
<pdfrwt beam="1">  1        2 0.25258747E+00 0.10802664E+04</pdfrwt>
<pdfrwt beam="2">  1       -2 0.17907408E+00 0.10802664E+04</pdfrwt>
<totfact> 0.19132070E+00</totfact>
</mgrwt>
</event>
<event>
 4    1  0.1701380E-008  0.1430469E+04  0.7818608E-02  0.8932054E-01
         -2   -1    0    0    0  501 -0.00000000000E+00  0.00000000000E+00  0.16041592753E+04  0.16041592753E+04  0.25500000000E-02 0.  1.
          2   -1    0    0  501    0  0.00000000000E+00 -0.00000000000E+00 -0.14792698731E+04  0.14792698731E+04  0.25500000000E-02 0. -1.
    8880022    1    1    2    0    0  0.15229237886E+03 -0.14140921286E+04  0.63452881164E+03  0.15648859328E+04  0.15294330000E+03 0.  0.
    8880022    1    1    2    0    0 -0.15229237886E+03  0.14140921286E+04 -0.50963940942E+03  0.15185432155E+04  0.15294330000E+03 0.  0.
<mgrwt>
<rscale>  0 0.14304689E+04</rscale>
<asrwt>0</asrwt>
<pdfrwt beam="1">  1        2 0.22757998E+00 0.14304689E+04</pdfrwt>
<pdfrwt beam="2">  1       -2 0.24679373E+00 0.14304689E+04</pdfrwt>
<totfact> 0.83073759E-01</totfact>
</mgrwt>
</event>
<event>
 4    1  0.1701380E-008  0.4365772E+03  0.7818608E-02  0.1031802E+00
          2   -1    0    0  501    0  0.00000000000E+00  0.00000000000E+00  0.20079929896E+04  0.20079929896E+04  0.25500000000E-02 0. -1.
         -2   -1    0    0    0  501 -0.00000000000E+00 -0.00000000000E+00 -0.12332141473E+04  0.12332141473E+04  0.25500000000E-02 0.  1.
    8880022    1    1    2    0    0 -0.22465285384E+03 -0.34167106621E+03 -0.11695965518E+04  0.12484213108E+04  0.15294330000E+03 0.  1.
    8880022    1    1    2    0    0  0.22465285384E+03  0.34167106621E+03  0.19443753942E+04  0.19927858261E+04  0.15294330000E+03 0.  0.
<mgrwt>
<rscale>  0 0.43657723E+03</rscale>
<asrwt>0</asrwt>
<pdfrwt beam="1">  1        2 0.30892200E+00 0.43657723E+03</pdfrwt>
<pdfrwt beam="2">  1       -2 0.18972525E+00 0.43657723E+03</pdfrwt>
<totfact> 0.11667942E+00</totfact>
</mgrwt>
</event>
<event>
 4    1  0.1701380E-008  0.1103640E+04  0.7818608E-02  0.9201651E-01
          2   -1    0    0  501    0  0.00000000000E+00  0.00000000000E+00  0.13407066950E+04  0.13407066950E+04  0.25500000000E-02 0. -1.
         -2   -1    0    0    0  501 -0.00000000000E+00 -0.00000000000E+00 -0.13019206160E+04  0.13019206160E+04  0.25500000000E-02 0.  1.
    8880022    1    1    2    0    0  0.66176553792E+03  0.86988300181E+03 -0.70695785376E+03  0.13106529381E+04  0.15294330000E+03 0.  0.
    8880022    1    1    2    0    0 -0.66176553792E+03 -0.86988300181E+03  0.74574393273E+03  0.13319743730E+04  0.15294330000E+03 0.  0.
<mgrwt>
<rscale>  0 0.11036402E+04</rscale>
<asrwt>0</asrwt>
<pdfrwt beam="1">  1        2 0.20626257E+00 0.11036402E+04</pdfrwt>
<pdfrwt beam="2">  1       -2 0.20029548E+00 0.11036402E+04</pdfrwt>
<totfact> 0.20325302E+00</totfact>
</mgrwt>
</event>
<event>
 4    1  0.1701380E-008  0.1184312E+04  0.7818608E-02  0.9126700E-01
         -2   -1    0    0    0  501 -0.00000000000E+00  0.00000000000E+00  0.11008002958E+04  0.11008002958E+04  0.25500000000E-02 0.  1.
          2   -1    0    0  501    0  0.00000000000E+00 -0.00000000000E+00 -0.20101932808E+04  0.20101932808E+04  0.25500000000E-02 0. -1.
    8880022    1    1    2    0    0 -0.10088388334E+04  0.60120466187E+03  0.48654109449E+03  0.12803580464E+04  0.15294330000E+03 0.  0.
    8880022    1    1    2    0    0  0.10088388334E+04 -0.60120466187E+03 -0.13959340795E+04  0.18306355302E+04  0.15294330000E+03 0.  0.
<mgrwt>
<rscale>  0 0.11843118E+04</rscale>
<asrwt>0</asrwt>
<pdfrwt beam="1">  1        2 0.30926050E+00 0.11843118E+04</pdfrwt>
<pdfrwt beam="2">  1       -2 0.16935389E+00 0.11843118E+04</pdfrwt>
<totfact> 0.13835818E+00</totfact>
</mgrwt>
</event>
<event>
 4    1  0.1701380E-008  0.8688465E+03  0.7818608E-02  0.9465385E-01
          2   -1    0    0  501    0  0.00000000000E+00  0.00000000000E+00  0.21017278301E+04  0.21017278301E+04  0.25500000000E-02 0. -1.
         -2   -1    0    0    0  501 -0.00000000000E+00 -0.00000000000E+00 -0.50040797891E+03  0.50040797891E+03  0.25500000000E-02 0.  1.
    8880022    1    1    2    0    0  0.40342455136E+03  0.75415601340E+03  0.10946369749E+03  0.87571491666E+03  0.15294330000E+03 0.  0.
    8880022    1    1    2    0    0 -0.40342455136E+03 -0.75415601340E+03  0.14918561537E+04  0.17264208923E+04  0.15294330000E+03 0.  0.
<mgrwt>
<rscale>  0 0.86884654E+03</rscale>
<asrwt>0</asrwt>
<pdfrwt beam="1">  1        2 0.32334274E+00 0.86884654E+03</pdfrwt>
<pdfrwt beam="2">  1       -2 0.76985845E-01 0.86884654E+03</pdfrwt>
<totfact> 0.90118826E+00</totfact>
</mgrwt>
</event>
<event>
 4    1  0.1701380E-008  0.5906339E+03  0.7818608E-02  0.9925031E-01
         -2   -1    0    0    0  501 -0.00000000000E+00  0.00000000000E+00  0.67383314489E+03  0.67383314489E+03  0.25500000000E-02 0.  1.
          2   -1    0    0  501    0  0.00000000000E+00 -0.00000000000E+00 -0.11004452407E+04  0.11004452407E+04  0.25500000000E-02 0. -1.
    8880022    1    1    2    0    0  0.13071199558E+03  0.55531172039E+03 -0.85887728017E+03  0.10423620139E+04  0.15294330000E+03 0.  0.
    8880022    1    1    2    0    0 -0.13071199558E+03 -0.55531172039E+03  0.43226518434E+03  0.73191637172E+03  0.15294330000E+03 0.  0.
<mgrwt>
<rscale>  0 0.59063388E+03</rscale>
<asrwt>0</asrwt>
<pdfrwt beam="1">  1        2 0.16929927E+00 0.59063388E+03</pdfrwt>
<pdfrwt beam="2">  1       -2 0.10366664E+00 0.59063388E+03</pdfrwt>
<totfact> 0.17139193E+01</totfact>
</mgrwt>
</event>
<event>
 4    1  0.1701380E-008  0.7428169E+03  0.7818608E-02  0.9646687E-01
          2   -1    0    0  501    0  0.00000000000E+00  0.00000000000E+00  0.25068397381E+04  0.25068397381E+04  0.25500000000E-02 0. -1.
         -2   -1    0    0    0  501 -0.00000000000E+00 -0.00000000000E+00 -0.50577433977E+03  0.50577433977E+03  0.25500000000E-02 0.  1.
    8880022    1    1    2    0    0  0.23102843026E+03 -0.68921058388E+03  0.21325789711E+04  0.22582449126E+04  0.15294330000E+03 0.  0.
    8880022    1    1    2    0    0 -0.23102843026E+03  0.68921058388E+03 -0.13151357281E+03  0.75436916518E+03  0.15294330000E+03 0.  0.
<mgrwt>
<rscale>  0 0.74281695E+03</rscale>
<asrwt>0</asrwt>
<pdfrwt beam="1">  1        2 0.38566765E+00 0.74281695E+03</pdfrwt>
<pdfrwt beam="2">  1       -2 0.77811438E-01 0.74281695E+03</pdfrwt>
<totfact> 0.53348189E+00</totfact>
</mgrwt>
</event>
<event>
 4    1  0.1701380E-008  0.4033054E+03  0.7818608E-02  0.1042641E+00
         -2   -1    0    0    0  501 -0.00000000000E+00  0.00000000000E+00  0.12172793954E+04  0.12172793954E+04  0.25500000000E-02 0.  1.
          2   -1    0    0  501    0  0.00000000000E+00 -0.00000000000E+00 -0.21755066088E+03  0.21755066089E+03  0.25500000000E-02 0. -1.
    8880022    1    1    2    0    0  0.25644076459E+03  0.27111207892E+03  0.94546466826E+03  0.10278904207E+04  0.15294330000E+03 0.  0.
    8880022    1    1    2    0    0 -0.25644076459E+03 -0.27111207892E+03  0.54264066236E+02  0.40693963554E+03  0.15294330000E+03 0.  0.
<mgrwt>
<rscale>  0 0.40330544E+03</rscale>
<asrwt>0</asrwt>
<pdfrwt beam="1">  1        2 0.33469332E-01 0.40330544E+03</pdfrwt>
<pdfrwt beam="2">  1       -2 0.18727376E+00 0.40330544E+03</pdfrwt>
<totfact> 0.26690143E+01</totfact>
</mgrwt>
</event>
<event>
 4    1  0.1701380E-008  0.7878023E+03  0.7818608E-02  0.9577843E-01
          2   -1    0    0  501    0  0.00000000000E+00  0.00000000000E+00  0.29469367208E+04  0.29469367208E+04  0.25500000000E-02 0. -1.
         -2   -1    0    0    0  501 -0.00000000000E+00 -0.00000000000E+00 -0.39119307165E+03  0.39119307166E+03  0.25500000000E-02 0.  1.
    8880022    1    1    2    0    0  0.37787130735E+03  0.67413204512E+03  0.24119033308E+04  0.25373037006E+04  0.15294330000E+03 0.  0.
    8880022    1    1    2    0    0 -0.37787130735E+03 -0.67413204512E+03  0.14384031839E+03  0.80082609185E+03  0.15294330000E+03 0.  0.
<mgrwt>
<rscale>  0 0.78780225E+03</rscale>
<asrwt>0</asrwt>
<pdfrwt beam="1">  1        2 0.45337487E+00 0.78780225E+03</pdfrwt>
<pdfrwt beam="2">  1       -2 0.60183551E-01 0.78780225E+03</pdfrwt>
<totfact> 0.51096202E+00</totfact>
</mgrwt>
</event>
<event>
 4    1  0.1701380E-008  0.1272904E+04  0.7818608E-02  0.9051333E-01
          2   -1    0    0  501    0  0.00000000000E+00  0.00000000000E+00  0.25730505972E+04  0.25730505972E+04  0.25500000000E-02 0. -1.
         -2   -1    0    0    0  501 -0.00000000000E+00 -0.00000000000E+00 -0.66414088251E+03  0.66414088252E+03  0.25500000000E-02 0.  1.
    8880022    1    1    2    0    0  0.12589197530E+04  0.10960539764E+03  0.58593394072E+03  0.14012860249E+04  0.15294330000E+03 0.  0.
    8880022    1    1    2    0    0 -0.12589197530E+04 -0.10960539764E+03  0.13229757740E+04  0.18359054549E+04  0.15294330000E+03 0.  0.
<mgrwt>
<rscale>  0 0.12729037E+04</rscale>
<asrwt>0</asrwt>
<pdfrwt beam="1">  1        2 0.39585395E+00 0.12729037E+04</pdfrwt>
<pdfrwt beam="2">  1       -2 0.10217552E+00 0.12729037E+04</pdfrwt>
<totfact> 0.24164555E+00</totfact>
</mgrwt>
</event>
<event>
 4    1  0.1701380E-008  0.3168998E+03  0.7818608E-02  0.1077085E+00
         -2   -1    0    0    0  501 -0.00000000000E+00  0.00000000000E+00  0.22756897380E+03  0.22756897381E+03  0.25500000000E-02 0.  1.
          2   -1    0    0  501    0  0.00000000000E+00 -0.00000000000E+00 -0.98235066390E+03  0.98235066390E+03  0.25500000000E-02 0. -1.
    8880022    1    1    2    0    0 -0.20865235445E+03  0.18302458637E+03 -0.82635690844E+03  0.88503739886E+03  0.15294330000E+03 0. -1.
    8880022    1    1    2    0    0  0.20865235445E+03 -0.18302458637E+03  0.71575218339E+02  0.32488223886E+03  0.15294330000E+03 0.  0.
<mgrwt>
<rscale>  0 0.31689976E+03</rscale>
<asrwt>0</asrwt>
<pdfrwt beam="1">  1        2 0.15113087E+00 0.31689976E+03</pdfrwt>
<pdfrwt beam="2">  1       -2 0.35010612E-01 0.31689976E+03</pdfrwt>
<totfact> 0.20741785E+02</totfact>
</mgrwt>
</event>
<event>
 4    1  0.1701380E-008  0.7216238E+03  0.7818608E-02  0.9680951E-01
          2   -1    0    0  501    0  0.00000000000E+00  0.00000000000E+00  0.18752793380E+04  0.18752793380E+04  0.25500000000E-02 0. -1.
         -2   -1    0    0    0  501 -0.00000000000E+00 -0.00000000000E+00 -0.40655152240E+03  0.40655152241E+03  0.25500000000E-02 0.  1.
    8880022    1    1    2    0    0 -0.17262105077E+03  0.68377721028E+03  0.13766996796E+04  0.15543625578E+04  0.15294330000E+03 0.  0.
    8880022    1    1    2    0    0  0.17262105077E+03 -0.68377721028E+03  0.92028136065E+02  0.72746830261E+03  0.15294330000E+03 0.  0.
<mgrwt>
<rscale>  0 0.72162383E+03</rscale>
<asrwt>0</asrwt>
<pdfrwt beam="1">  1        2 0.28850451E+00 0.72162383E+03</pdfrwt>
<pdfrwt beam="2">  1       -2 0.62546388E-01 0.72162383E+03</pdfrwt>
<totfact> 0.19239909E+01</totfact>
</mgrwt>
</event>
<event>
 4    1  0.1701380E-008  0.6849703E+03  0.7818608E-02  0.9743286E-01
         -2   -1    0    0    0  501 -0.00000000000E+00  0.00000000000E+00  0.26359830761E+03  0.26359830762E+03  0.25500000000E-02 0.  1.
          2   -1    0    0  501    0  0.00000000000E+00 -0.00000000000E+00 -0.32531755961E+04  0.32531755961E+04  0.25500000000E-02 0. -1.
    8880022    1    1    2    0    0 -0.13320957409E+03 -0.65425371566E+03 -0.31147604865E+03  0.75246375128E+03  0.15294330000E+03 0.  0.
    8880022    1    1    2    0    0  0.13320957409E+03  0.65425371566E+03 -0.26781012399E+04  0.27643101525E+04  0.15294330000E+03 0.  0.
<mgrwt>
<rscale>  0 0.68497034E+03</rscale>
<asrwt>0</asrwt>
<pdfrwt beam="1">  1        2 0.50048852E+00 0.68497034E+03</pdfrwt>
<pdfrwt beam="2">  1       -2 0.40553588E-01 0.68497034E+03</pdfrwt>
<totfact> 0.74884713E+00</totfact>
</mgrwt>
</event>
<event>
 4    1  0.1701380E-008  0.3805722E+03  0.7818608E-02  0.1050722E+00
          2   -1    0    0  501    0  0.00000000000E+00  0.00000000000E+00  0.18871990441E+04  0.18871990441E+04  0.25500000000E-02 0. -1.
         -2   -1    0    0    0  501 -0.00000000000E+00 -0.00000000000E+00 -0.25201900558E+03  0.25201900560E+03  0.25500000000E-02 0.  1.
    8880022    1    1    2    0    0  0.20574800192E+03 -0.28126726245E+03  0.17095919721E+04  0.17514393730E+04  0.15294330000E+03 0.  0.
    8880022    1    1    2    0    0 -0.20574800192E+03  0.28126726245E+03 -0.74411933589E+02  0.38777867669E+03  0.15294330000E+03 0.  0.
<mgrwt>
<rscale>  0 0.38057216E+03</rscale>
<asrwt>0</asrwt>
<pdfrwt beam="1">  1        2 0.29033832E+00 0.38057216E+03</pdfrwt>
<pdfrwt beam="2">  1       -2 0.38772153E-01 0.38057216E+03</pdfrwt>
<totfact> 0.52949435E+01</totfact>
</mgrwt>
</event>
<event>
 4    1  0.1701380E-008  0.8967714E+03  0.7818608E-02  0.9429626E-01
         -2   -1    0    0    0  501 -0.00000000000E+00  0.00000000000E+00  0.20216220439E+03  0.20216220441E+03  0.25500000000E-02 0.  1.
          2   -1    0    0  501    0  0.00000000000E+00 -0.00000000000E+00 -0.51341332713E+04  0.51341332713E+04  0.25500000000E-02 0. -1.
    8880022    1    1    2    0    0 -0.40911590695E+03  0.78321869665E+03 -0.37321273107E+04  0.38383555422E+04  0.15294330000E+03 0.  0.
    8880022    1    1    2    0    0  0.40911590695E+03 -0.78321869665E+03 -0.11998437563E+04  0.14979399336E+04  0.15294330000E+03 0.  0.
<mgrwt>
<rscale>  0 0.89677143E+03</rscale>
<asrwt>0</asrwt>
<pdfrwt beam="1">  1        2 0.78986656E+00 0.89677143E+03</pdfrwt>
<pdfrwt beam="2">  1       -2 0.31101881E-01 0.89677143E+03</pdfrwt>
<totfact> 0.24993358E-01</totfact>
</mgrwt>
</event>
<event>
 4    1  0.1701380E-008  0.6087985E+03  0.7818608E-02  0.9887318E-01
         -2   -1    0    0    0  501 -0.00000000000E+00  0.00000000000E+00  0.23578628040E+03  0.23578628041E+03  0.25500000000E-02 0.  1.
          2   -1    0    0  501    0  0.00000000000E+00 -0.00000000000E+00 -0.19352247060E+04  0.19352247060E+04  0.25500000000E-02 0. -1.
    8880022    1    1    2    0    0  0.34644220715E+03 -0.47667783469E+03 -0.13200525704E+04  0.14536761684E+04  0.15294330000E+03 0.  0.
    8880022    1    1    2    0    0 -0.34644220715E+03  0.47667783469E+03 -0.37938585521E+03  0.71733481801E+03  0.15294330000E+03 0.  0.
<mgrwt>
<rscale>  0 0.60879850E+03</rscale>
<asrwt>0</asrwt>
<pdfrwt beam="1">  1        2 0.29772687E+00 0.60879850E+03</pdfrwt>
<pdfrwt beam="2">  1       -2 0.36274814E-01 0.60879850E+03</pdfrwt>
<totfact> 0.54370767E+01</totfact>
</mgrwt>
</event>
<event>
 4    1  0.1701380E-008  0.2081648E+04  0.7818608E-02  0.8569371E-01
          2   -1    0    0  501    0  0.00000000000E+00  0.00000000000E+00  0.31356678168E+04  0.31356678168E+04  0.25500000000E-02 0. -1.
         -2   -1    0    0    0  501 -0.00000000000E+00 -0.00000000000E+00 -0.22227516939E+04  0.22227516939E+04  0.25500000000E-02 0.  1.
    8880022    1    1    2    0    0 -0.20335042955E+04 -0.41800535602E+03 -0.11913791777E+04  0.23984670511E+04  0.15294330000E+03 0.  0.
    8880022    1    1    2    0    0  0.20335042955E+04  0.41800535602E+03  0.21042953007E+04  0.29599524595E+04  0.15294330000E+03 0.  0.
<mgrwt>
<rscale>  0 0.20816483E+04</rscale>
<asrwt>0</asrwt>
<pdfrwt beam="1">  1        2 0.48241043E+00 0.20816483E+04</pdfrwt>
<pdfrwt beam="2">  1       -2 0.34196180E+00 0.20816483E+04</pdfrwt>
<totfact> 0.21816925E-02</totfact>
</mgrwt>
</event>
<event>
 4    1  0.1701380E-008  0.7951501E+03  0.7818608E-02  0.9567064E-01
         -2   -1    0    0    0  501 -0.00000000000E+00  0.00000000000E+00  0.16583618688E+04  0.16583618688E+04  0.25500000000E-02 0.  1.
          2   -1    0    0  501    0  0.00000000000E+00 -0.00000000000E+00 -0.11781317173E+04  0.11781317173E+04  0.25500000000E-02 0. -1.
    8880022    1    1    2    0    0  0.67012306909E+03 -0.39975880508E+03 -0.92629065657E+03  0.12207694555E+04  0.15294330000E+03 0.  0.
    8880022    1    1    2    0    0 -0.67012306909E+03  0.39975880508E+03  0.14065208080E+04  0.16157241307E+04  0.15294330000E+03 0.  0.
<mgrwt>
<rscale>  0 0.79515010E+03</rscale>
<asrwt>0</asrwt>
<pdfrwt beam="1">  1        2 0.18125103E+00 0.79515010E+03</pdfrwt>
<pdfrwt beam="2">  1       -2 0.25513259E+00 0.79515010E+03</pdfrwt>
<totfact> 0.12009914E+00</totfact>
</mgrwt>
</event>
<event>
 4    1  0.1701380E-008  0.1052998E+04  0.7818608E-02  0.9252254E-01
         -2   -1    0    0    0  501 -0.00000000000E+00  0.00000000000E+00  0.58938733884E+03  0.58938733885E+03  0.25500000000E-02 0.  1.
          2   -1    0    0  501    0  0.00000000000E+00 -0.00000000000E+00 -0.32523738303E+04  0.32523738303E+04  0.25500000000E-02 0. -1.
    8880022    1    1    2    0    0 -0.99312964792E+03  0.31481331854E+03 -0.25786841359E+04  0.27853935895E+04  0.15294330000E+03 0.  0.
    8880022    1    1    2    0    0  0.99312964792E+03 -0.31481331854E+03 -0.84302355613E+02  0.10563675796E+04  0.15294330000E+03 0.  0.
<mgrwt>
<rscale>  0 0.10529984E+04</rscale>
<asrwt>0</asrwt>
<pdfrwt beam="1">  1        2 0.50036519E+00 0.10529984E+04</pdfrwt>
<pdfrwt beam="2">  1       -2 0.90674977E-01 0.10529984E+04</pdfrwt>
<totfact> 0.12669544E+00</totfact>
</mgrwt>
</event>
<event>
 4    1  0.1701380E-008  0.4486023E+03  0.7818608E-02  0.1028140E+00
         -2   -1    0    0    0  501 -0.00000000000E+00  0.00000000000E+00  0.60086138689E+03  0.60086138690E+03  0.25500000000E-02 0.  1.
          2   -1    0    0  501    0  0.00000000000E+00 -0.00000000000E+00 -0.12616340786E+04  0.12616340786E+04  0.25500000000E-02 0. -1.
    8880022    1    1    2    0    0 -0.18417892227E+03  0.37938172537E+03  0.46773702474E+03  0.64809100154E+03  0.15294330000E+03 0.  0.
    8880022    1    1    2    0    0  0.18417892227E+03 -0.37938172537E+03 -0.11285097164E+04  0.12144044639E+04  0.15294330000E+03 0.  0.
<mgrwt>
<rscale>  0 0.44860230E+03</rscale>
<asrwt>0</asrwt>
<pdfrwt beam="1">  1        2 0.19409755E+00 0.44860230E+03</pdfrwt>
<pdfrwt beam="2">  1       -2 0.92440214E-01 0.44860230E+03</pdfrwt>
<totfact> 0.18457794E+01</totfact>
</mgrwt>
</event>
<event>
 4    1  0.1701380E-008  0.1133520E+04  0.7818608E-02  0.9173123E-01
         -2   -1    0    0    0  501 -0.00000000000E+00  0.00000000000E+00  0.78872644897E+03  0.78872644897E+03  0.25500000000E-02 0.  1.
          2   -1    0    0  501    0  0.00000000000E+00 -0.00000000000E+00 -0.20890227683E+04  0.20890227683E+04  0.25500000000E-02 0. -1.
    8880022    1    1    2    0    0  0.10800840790E+04 -0.30804907430E+03  0.25035313390E+02  0.11337963970E+04  0.15294330000E+03 0.  0.
    8880022    1    1    2    0    0 -0.10800840790E+04  0.30804907430E+03 -0.13253316328E+04  0.17439528204E+04  0.15294330000E+03 0.  0.
<mgrwt>
<rscale>  0 0.11335200E+04</rscale>
<asrwt>0</asrwt>
<pdfrwt beam="1">  1        2 0.32138812E+00 0.11335200E+04</pdfrwt>
<pdfrwt beam="2">  1       -2 0.12134253E+00 0.11335200E+04</pdfrwt>
<totfact> 0.30287078E+00</totfact>
</mgrwt>
</event>
<event>
 4    1  0.1701380E-008  0.1342635E+04  0.7818608E-02  0.8996422E-01
         -2   -1    0    0    0  501 -0.00000000000E+00  0.00000000000E+00  0.78723685521E+03  0.78723685521E+03  0.25500000000E-02 0.  1.
          2   -1    0    0  501    0  0.00000000000E+00 -0.00000000000E+00 -0.41005307196E+04  0.41005307196E+04  0.25500000000E-02 0. -1.
    8880022    1    1    2    0    0  0.14837500427E+03  0.13256171713E+04 -0.32671638910E+02  0.13430320606E+04  0.15294330000E+03 0.  0.
    8880022    1    1    2    0    0 -0.14837500427E+03 -0.13256171713E+04 -0.32806222255E+04  0.35447355142E+04  0.15294330000E+03 0.  0.
<mgrwt>
<rscale>  0 0.13426346E+04</rscale>
<asrwt>0</asrwt>
<pdfrwt beam="1">  1        2 0.63085087E+00 0.13426346E+04</pdfrwt>
<pdfrwt beam="2">  1       -2 0.12111336E+00 0.13426346E+04</pdfrwt>
<totfact> 0.14527864E-01</totfact>
</mgrwt>
</event>
<event>
 4    1  0.1701380E-008  0.5710473E+03  0.7818608E-02  0.9967364E-01
         -2   -1    0    0    0  501 -0.00000000000E+00  0.00000000000E+00  0.36125430113E+03  0.36125430114E+03  0.25500000000E-02 0.  1.
          2   -1    0    0  501    0  0.00000000000E+00 -0.00000000000E+00 -0.24765398442E+04  0.24765398442E+04  0.25500000000E-02 0. -1.
    8880022    1    1    2    0    0  0.16754424634E+03 -0.52405369451E+03  0.73485964751E+02  0.57575618906E+03  0.15294330000E+03 0.  0.
    8880022    1    1    2    0    0 -0.16754424634E+03  0.52405369451E+03 -0.21887715078E+04  0.22620379563E+04  0.15294330000E+03 0.  0.
<mgrwt>
<rscale>  0 0.57104729E+03</rscale>
<asrwt>0</asrwt>
<pdfrwt beam="1">  1        2 0.38100612E+00 0.57104729E+03</pdfrwt>
<pdfrwt beam="2">  1       -2 0.55577586E-01 0.57104729E+03</pdfrwt>
<totfact> 0.11836130E+01</totfact>
</mgrwt>
</event>
<event>
 4    1  0.1701380E-008  0.2541431E+03  0.7818608E-02  0.1110714E+00
          2   -1    0    0  501    0  0.00000000000E+00  0.00000000000E+00  0.23169186371E+04  0.23169186371E+04  0.25500000000E-02 0. -1.
         -2   -1    0    0    0  501 -0.00000000000E+00 -0.00000000000E+00 -0.62195201850E+02  0.62195201902E+02  0.25500000000E-02 0.  1.
    8880022    1    1    2    0    0  0.12543955118E+03  0.15956817253E+03  0.20109888913E+04  0.20269842271E+04  0.15294330000E+03 0. -1.
    8880022    1    1    2    0    0 -0.12543955118E+03 -0.15956817253E+03  0.24373454388E+03  0.35212961190E+03  0.15294330000E+03 0.  0.
<mgrwt>
<rscale>  0 0.25414314E+03</rscale>
<asrwt>0</asrwt>
<pdfrwt beam="1">  1        2 0.35644901E+00 0.25414314E+03</pdfrwt>
<pdfrwt beam="2">  1       -2 0.95684930E-02 0.25414314E+03</pdfrwt>
<totfact> 0.36108180E+02</totfact>
</mgrwt>
</event>
<event>
 4    1  0.1701380E-008  0.1583519E+04  0.7818608E-02  0.8830737E-01
         -2   -1    0    0    0  501 -0.00000000000E+00  0.00000000000E+00  0.13000506728E+04  0.13000506728E+04  0.25500000000E-02 0.  1.
          2   -1    0    0  501    0  0.00000000000E+00 -0.00000000000E+00 -0.28796689258E+04  0.28796689258E+04  0.25500000000E-02 0. -1.
    8880022    1    1    2    0    0 -0.14464410793E+04 -0.62605928699E+03  0.41109105988E+03  0.16360102504E+04  0.15294330000E+03 0.  0.
    8880022    1    1    2    0    0  0.14464410793E+04  0.62605928699E+03 -0.19907093129E+04  0.25437093482E+04  0.15294330000E+03 0.  0.
<mgrwt>
<rscale>  0 0.15835194E+04</rscale>
<asrwt>0</asrwt>
<pdfrwt beam="1">  1        2 0.44302599E+00 0.15835194E+04</pdfrwt>
<pdfrwt beam="2">  1       -2 0.20000780E+00 0.15835194E+04</pdfrwt>
<totfact> 0.25640289E-01</totfact>
</mgrwt>
</event>
<event>
 4    1  0.1701380E-008  0.6159189E+03  0.7818608E-02  0.9872919E-01
         -2   -1    0    0    0  501 -0.00000000000E+00  0.00000000000E+00  0.87687859060E+03  0.87687859060E+03  0.25500000000E-02 0.  1.
          2   -1    0    0  501    0  0.00000000000E+00 -0.00000000000E+00 -0.16757598122E+04  0.16757598122E+04  0.25500000000E-02 0. -1.
    8880022    1    1    2    0    0  0.23311757749E+03 -0.54920003118E+03 -0.14987330033E+04  0.16203569815E+04  0.15294330000E+03 0.  1.
    8880022    1    1    2    0    0 -0.23311757749E+03  0.54920003118E+03  0.69985178171E+03  0.93228142133E+03  0.15294330000E+03 0.  0.
<mgrwt>
<rscale>  0 0.61591893E+03</rscale>
<asrwt>0</asrwt>
<pdfrwt beam="1">  1        2 0.25780920E+00 0.61591893E+03</pdfrwt>
<pdfrwt beam="2">  1       -2 0.13490440E+00 0.61591893E+03</pdfrwt>
<totfact> 0.42145914E+00</totfact>
</mgrwt>
</event>
<event>
 4    1  0.1701380E-008  0.9031335E+03  0.7818608E-02  0.9421673E-01
         -2   -1    0    0    0  501 -0.00000000000E+00  0.00000000000E+00  0.80058493809E+03  0.80058493809E+03  0.25500000000E-02 0.  1.
          2   -1    0    0  501    0  0.00000000000E+00 -0.00000000000E+00 -0.30204575057E+04  0.30204575057E+04  0.25500000000E-02 0. -1.
    8880022    1    1    2    0    0  0.15080332147E+03  0.87722112713E+03 -0.26652158020E+04  0.28140763088E+04  0.15294330000E+03 0.  0.
    8880022    1    1    2    0    0 -0.15080332147E+03 -0.87722112713E+03  0.44534323435E+03  0.10069661350E+04  0.15294330000E+03 0.  0.
<mgrwt>
<rscale>  0 0.90313355E+03</rscale>
<asrwt>0</asrwt>
<pdfrwt beam="1">  1        2 0.46468577E+00 0.90313355E+03</pdfrwt>
<pdfrwt beam="2">  1       -2 0.12316691E+00 0.90313355E+03</pdfrwt>
<totfact> 0.87133592E-01</totfact>
</mgrwt>
</event>
<event>
 4    1  0.1701380E-008  0.6132848E+03  0.7818608E-02  0.9878221E-01
         -2   -1    0    0    0  501 -0.00000000000E+00  0.00000000000E+00  0.44142424497E+03  0.44142424498E+03  0.25500000000E-02 0.  1.
          2   -1    0    0  501    0  0.00000000000E+00 -0.00000000000E+00 -0.18657814149E+04  0.18657814149E+04  0.25500000000E-02 0. -1.
    8880022    1    1    2    0    0  0.35065215466E+03 -0.47934296433E+03  0.13814858546E+03  0.62865196707E+03  0.15294330000E+03 0.  0.
    8880022    1    1    2    0    0 -0.35065215466E+03  0.47934296433E+03 -0.15625057553E+04  0.16785536928E+04  0.15294330000E+03 0.  0.
<mgrwt>
<rscale>  0 0.61328481E+03</rscale>
<asrwt>0</asrwt>
<pdfrwt beam="1">  1        2 0.28704329E+00 0.61328481E+03</pdfrwt>
<pdfrwt beam="2">  1       -2 0.67911423E-01 0.61328481E+03</pdfrwt>
<totfact> 0.16594446E+01</totfact>
</mgrwt>
</event>
<event>
 4    1  0.1701380E-008  0.3355098E+03  0.7818608E-02  0.1068725E+00
          2   -1    0    0  501    0  0.00000000000E+00  0.00000000000E+00  0.20339298973E+04  0.20339298973E+04  0.25500000000E-02 0. -1.
         -2   -1    0    0    0  501 -0.00000000000E+00 -0.00000000000E+00 -0.78563692294E+03  0.78563692295E+03  0.25500000000E-02 0.  1.
    8880022    1    1    2    0    0  0.49789047310E+02  0.29444216978E+03  0.19833667986E+04  0.20115443449E+04  0.15294330000E+03 0. -1.
    8880022    1    1    2    0    0 -0.49789047310E+02 -0.29444216978E+03 -0.73507382426E+03  0.80802247537E+03  0.15294330000E+03 0.  0.
<mgrwt>
<rscale>  0 0.33550975E+03</rscale>
<asrwt>0</asrwt>
<pdfrwt beam="1">  1        2 0.31291229E+00 0.33550975E+03</pdfrwt>
<pdfrwt beam="2">  1       -2 0.12086722E+00 0.33550975E+03</pdfrwt>
<totfact> 0.38525295E+00</totfact>
</mgrwt>
</event>
<event>
 4    1  0.1701380E-008  0.7905664E+03  0.7818608E-02  0.9573773E-01
         -2   -1    0    0    0  501 -0.00000000000E+00  0.00000000000E+00  0.27741107090E+04  0.27741107090E+04  0.25500000000E-02 0.  1.
          2   -1    0    0  501    0  0.00000000000E+00 -0.00000000000E+00 -0.53277729463E+03  0.53277729464E+03  0.25500000000E-02 0. -1.
    8880022    1    1    2    0    0  0.72106902495E+03  0.28576753436E+03 -0.13543898479E+03  0.80208415647E+03  0.15294330000E+03 0.  0.
    8880022    1    1    2    0    0 -0.72106902495E+03 -0.28576753436E+03  0.23767723992E+04  0.25048038472E+04  0.15294330000E+03 0.  0.
<mgrwt>
<rscale>  0 0.79056643E+03</rscale>
<asrwt>0</asrwt>
<pdfrwt beam="1">  1        2 0.81965739E-01 0.79056643E+03</pdfrwt>
<pdfrwt beam="2">  1       -2 0.42678625E+00 0.79056643E+03</pdfrwt>
<totfact> 0.29911822E-01</totfact>
</mgrwt>
</event>
<event>
 4    1  0.1701380E-008  0.6578720E+03  0.7818608E-02  0.9792119E-01
          2   -1    0    0  501    0  0.00000000000E+00  0.00000000000E+00  0.21770296499E+04  0.21770296499E+04  0.25500000000E-02 0. -1.
         -2   -1    0    0    0  501 -0.00000000000E+00 -0.00000000000E+00 -0.48014283233E+03  0.48014283234E+03  0.25500000000E-02 0.  1.
    8880022    1    1    2    0    0 -0.60728962452E+03 -0.20150232913E+03  0.18654452323E+04  0.19780499095E+04  0.15294330000E+03 0.  0.
    8880022    1    1    2    0    0  0.60728962452E+03  0.20150232913E+03 -0.16855841469E+03  0.67912257279E+03  0.15294330000E+03 0.  0.
<mgrwt>
<rscale>  0 0.65787197E+03</rscale>
<asrwt>0</asrwt>
<pdfrwt beam="1">  1        2 0.33492764E+00 0.65787197E+03</pdfrwt>
<pdfrwt beam="2">  1       -2 0.73868127E-01 0.65787197E+03</pdfrwt>
<totfact> 0.92812337E+00</totfact>
</mgrwt>
</event>
<event>
 4    1  0.1701380E-008  0.1162008E+04  0.7818608E-02  0.9146777E-01
          2   -1    0    0  501    0  0.00000000000E+00  0.00000000000E+00  0.14184288205E+04  0.14184288205E+04  0.25500000000E-02 0. -1.
         -2   -1    0    0    0  501 -0.00000000000E+00 -0.00000000000E+00 -0.15794344282E+04  0.15794344282E+04  0.25500000000E-02 0.  1.
    8880022    1    1    2    0    0 -0.93641516479E+03  0.67081831822E+03  0.86428701186E+03  0.14481899975E+04  0.15294330000E+03 0.  0.
    8880022    1    1    2    0    0  0.93641516479E+03 -0.67081831822E+03 -0.10252926196E+04  0.15496732513E+04  0.15294330000E+03 0.  0.
<mgrwt>
<rscale>  0 0.11620078E+04</rscale>
<asrwt>0</asrwt>
<pdfrwt beam="1">  1        2 0.21821982E+00 0.11620078E+04</pdfrwt>
<pdfrwt beam="2">  1       -2 0.24298991E+00 0.11620078E+04</pdfrwt>
<totfact> 0.97837519E-01</totfact>
</mgrwt>
</event>
<event>
 4    1  0.1701380E-008  0.1961118E+04  0.7818608E-02  0.8625018E-01
         -2   -1    0    0    0  501 -0.00000000000E+00  0.00000000000E+00  0.23069699250E+04  0.23069699250E+04  0.25500000000E-02 0.  1.
          2   -1    0    0  501    0  0.00000000000E+00 -0.00000000000E+00 -0.24045213752E+04  0.24045213752E+04  0.25500000000E-02 0. -1.
    8880022    1    1    2    0    0  0.16896965069E+04  0.98362518999E+03 -0.13533460165E+04  0.23827567843E+04  0.15294330000E+03 0.  0.
    8880022    1    1    2    0    0 -0.16896965069E+04 -0.98362518999E+03  0.12557945664E+04  0.23287345159E+04  0.15294330000E+03 0.  0.
<mgrwt>
<rscale>  0 0.19611182E+04</rscale>
<asrwt>0</asrwt>
<pdfrwt beam="1">  1        2 0.36992637E+00 0.19611182E+04</pdfrwt>
<pdfrwt beam="2">  1       -2 0.35491845E+00 0.19611182E+04</pdfrwt>
<totfact> 0.50837541E-02</totfact>
</mgrwt>
</event>
<event>
 4    1  0.2128645E-008  0.1108592E+04  0.7818608E-02  0.9196857E-01
          2   -1    0    0  501    0  0.00000000000E+00  0.00000000000E+00  0.32265478241E+04  0.32265478241E+04  0.25500000000E-02 0. -1.
         -2   -1    0    0    0  501 -0.00000000000E+00 -0.00000000000E+00 -0.11125869347E+04  0.11125869347E+04  0.25500000000E-02 0.  1.
    8880022    1    1    2    0    0  0.16992092766E+03  0.10847637203E+04 -0.70244225529E+03  0.13124032252E+04  0.15294330000E+03 0.  0.
    8880022    1    1    2    0    0 -0.16992092766E+03 -0.10847637203E+04  0.28164031447E+04  0.30267315337E+04  0.15294330000E+03 0. -1.
<mgrwt>
<rscale>  0 0.11085924E+04</rscale>
<asrwt>0</asrwt>
<pdfrwt beam="1">  1        2 0.49639196E+00 0.11085924E+04</pdfrwt>
<pdfrwt beam="2">  1       -2 0.17116723E+00 0.11085924E+04</pdfrwt>
<totfact> 0.26120085E-01</totfact>
</mgrwt>
</event>
<event>
 4    1  0.1701380E-008  0.7305950E+03  0.7818608E-02  0.9666295E-01
         -2   -1    0    0    0  501 -0.00000000000E+00  0.00000000000E+00  0.34031742669E+03  0.34031742670E+03  0.25500000000E-02 0.  1.
          2   -1    0    0  501    0  0.00000000000E+00 -0.00000000000E+00 -0.31661308802E+04  0.31661308802E+04  0.25500000000E-02 0. -1.
    8880022    1    1    2    0    0 -0.34737912768E+03 -0.62426367476E+03 -0.26583351113E+04  0.27569030833E+04  0.15294330000E+03 0.  0.
    8880022    1    1    2    0    0  0.34737912768E+03  0.62426367476E+03 -0.16747834217E+03  0.74954522351E+03  0.15294330000E+03 0.  0.
<mgrwt>
<rscale>  0 0.73059500E+03</rscale>
<asrwt>0</asrwt>
<pdfrwt beam="1">  1        2 0.48709704E+00 0.73059500E+03</pdfrwt>
<pdfrwt beam="2">  1       -2 0.52356529E-01 0.73059500E+03</pdfrwt>
<totfact> 0.50535164E+00</totfact>
</mgrwt>
</event>
<event>
 4    1  0.1701380E-008  0.5203909E+03  0.7818608E-02  0.1008589E+00
         -2   -1    0    0    0  501 -0.00000000000E+00  0.00000000000E+00  0.14769476703E+04  0.14769476703E+04  0.25500000000E-02 0.  1.
          2   -1    0    0  501    0  0.00000000000E+00 -0.00000000000E+00 -0.79608563872E+03  0.79608563873E+03  0.25500000000E-02 0. -1.
    8880022    1    1    2    0    0  0.30878445783E+03  0.38995796765E+03  0.13375120952E+04  0.14351812833E+04  0.15294330000E+03 0.  0.
    8880022    1    1    2    0    0 -0.30878445783E+03 -0.38995796765E+03 -0.65665006367E+03  0.83785202575E+03  0.15294330000E+03 0.  0.
<mgrwt>
<rscale>  0 0.52039092E+03</rscale>
<asrwt>0</asrwt>
<pdfrwt beam="1">  1        2 0.12247471E+00 0.52039092E+03</pdfrwt>
<pdfrwt beam="2">  1       -2 0.22722272E+00 0.52039092E+03</pdfrwt>
<totfact> 0.32990489E+00</totfact>
</mgrwt>
</event>
<event>
 4    1  0.1701380E-008  0.5140284E+03  0.7818608E-02  0.1010181E+00
          2   -1    0    0  501    0  0.00000000000E+00  0.00000000000E+00  0.39717469977E+03  0.39717469978E+03  0.25500000000E-02 0. -1.
         -2   -1    0    0    0  501 -0.00000000000E+00 -0.00000000000E+00 -0.21976419679E+04  0.21976419679E+04  0.25500000000E-02 0.  1.
    8880022    1    1    2    0    0  0.70855759344E+02  0.48560576127E+03 -0.19836152898E+04  0.20491351260E+04  0.15294330000E+03 0.  0.
    8880022    1    1    2    0    0 -0.70855759344E+02 -0.48560576127E+03  0.18314802165E+03  0.54568154162E+03  0.15294330000E+03 0. -1.
<mgrwt>
<rscale>  0 0.51402835E+03</rscale>
<asrwt>0</asrwt>
<pdfrwt beam="1">  1        2 0.61103801E-01 0.51402835E+03</pdfrwt>
<pdfrwt beam="2">  1       -2 0.33809876E+00 0.51402835E+03</pdfrwt>
<totfact> 0.16305529E+00</totfact>
</mgrwt>
</event>
<event>
 4    1  0.2714206E-008  0.7780013E+03  0.7818608E-02  0.9592417E-01
         -2   -1    0    0    0  501 -0.00000000000E+00  0.00000000000E+00  0.17339866330E+04  0.17339866330E+04  0.25500000000E-02 0.  1.
          2   -1    0    0  501    0  0.00000000000E+00 -0.00000000000E+00 -0.13808405818E+04  0.13808405818E+04  0.25500000000E-02 0. -1.
    8880022    1    1    2    0    0  0.39176591729E+03 -0.65453333985E+03 -0.11696696571E+04  0.14047822559E+04  0.15294330000E+03 0.  0.
    8880022    1    1    2    0    0 -0.39176591729E+03  0.65453333985E+03  0.15228157083E+04  0.17100449589E+04  0.15294330000E+03 0.  0.
<mgrwt>
<rscale>  0 0.77800134E+03</rscale>
<asrwt>0</asrwt>
<pdfrwt beam="1">  1        2 0.21243701E+00 0.77800134E+03</pdfrwt>
<pdfrwt beam="2">  1       -2 0.26676717E+00 0.77800134E+03</pdfrwt>
<totfact> 0.78161219E-01</totfact>
</mgrwt>
</event>
<event>
 4    1  0.1701380E-008  0.3294433E+03  0.7818608E-02  0.1071383E+00
         -2   -1    0    0    0  501 -0.00000000000E+00  0.00000000000E+00  0.87745760252E+02  0.87745760289E+02  0.25500000000E-02 0.  1.
          2   -1    0    0  501    0  0.00000000000E+00 -0.00000000000E+00 -0.20226861223E+04  0.20226861223E+04  0.25500000000E-02 0. -1.
    8880022    1    1    2    0    0 -0.26521042767E+03 -0.12167448347E+03 -0.30976883821E+03  0.45220530405E+03  0.15294330000E+03 0.  0.
    8880022    1    1    2    0    0  0.26521042767E+03  0.12167448347E+03 -0.16251715238E+04  0.16582265785E+04  0.15294330000E+03 0.  0.
<mgrwt>
<rscale>  0 0.32944332E+03</rscale>
<asrwt>0</asrwt>
<pdfrwt beam="1">  1        2 0.31118244E+00 0.32944332E+03</pdfrwt>
<pdfrwt beam="2">  1       -2 0.13499349E-01 0.32944332E+03</pdfrwt>
<totfact> 0.29234356E+02</totfact>
</mgrwt>
</event>
<event>
 4    1  0.1701380E-008  0.9607513E+03  0.7818608E-02  0.9352672E-01
          2   -1    0    0  501    0  0.00000000000E+00  0.00000000000E+00  0.12073202908E+04  0.12073202908E+04  0.25500000000E-02 0. -1.
         -2   -1    0    0    0  501 -0.00000000000E+00 -0.00000000000E+00 -0.12560349207E+04  0.12560349207E+04  0.25500000000E-02 0.  1.
    8880022    1    1    2    0    0  0.32406952715E+03 -0.89142038733E+03  0.74611369806E+03  0.12164409845E+04  0.15294330000E+03 0.  0.
    8880022    1    1    2    0    0 -0.32406952715E+03  0.89142038733E+03 -0.79482832795E+03  0.12469142269E+04  0.15294330000E+03 0.  0.
<mgrwt>
<rscale>  0 0.96075128E+03</rscale>
<asrwt>0</asrwt>
<pdfrwt beam="1">  1        2 0.18574158E+00 0.96075128E+03</pdfrwt>
<pdfrwt beam="2">  1       -2 0.19323614E+00 0.96075128E+03</pdfrwt>
<totfact> 0.27555717E+00</totfact>
</mgrwt>
</event>
<event>
 4    1  0.1701380E-008  0.9857172E+03  0.7818608E-02  0.9324350E-01
          2   -1    0    0  501    0  0.00000000000E+00  0.00000000000E+00  0.25475594648E+04  0.25475594648E+04  0.25500000000E-02 0. -1.
         -2   -1    0    0    0  501 -0.00000000000E+00 -0.00000000000E+00 -0.94244431549E+03  0.94244431550E+03  0.25500000000E-02 0.  1.
    8880022    1    1    2    0    0 -0.65807039204E+03  0.71776742694E+03  0.21489348036E+04  0.23642248546E+04  0.15294330000E+03 0.  0.
    8880022    1    1    2    0    0  0.65807039204E+03 -0.71776742694E+03 -0.54381965431E+03  0.11257789257E+04  0.15294330000E+03 0.  0.
<mgrwt>
<rscale>  0 0.98571719E+03</rscale>
<asrwt>0</asrwt>
<pdfrwt beam="1">  1        2 0.39193222E+00 0.98571719E+03</pdfrwt>
<pdfrwt beam="2">  1       -2 0.14499144E+00 0.98571719E+03</pdfrwt>
<totfact> 0.10802149E+00</totfact>
</mgrwt>
</event>
<event>
 4    1  0.1701380E-008  0.8892094E+03  0.7818608E-02  0.9439172E-01
          2   -1    0    0  501    0  0.00000000000E+00  0.00000000000E+00  0.12914653682E+04  0.12914653682E+04  0.25500000000E-02 0. -1.
         -2   -1    0    0    0  501 -0.00000000000E+00 -0.00000000000E+00 -0.12321447132E+04  0.12321447132E+04  0.25500000000E-02 0.  1.
    8880022    1    1    2    0    0 -0.37445173102E+03 -0.79188857936E+03 -0.86533774620E+03  0.12407669761E+04  0.15294330000E+03 0.  0.
    8880022    1    1    2    0    0  0.37445173102E+03  0.79188857936E+03  0.92465840123E+03  0.12828431054E+04  0.15294330000E+03 0.  0.
<mgrwt>
<rscale>  0 0.88920935E+03</rscale>
<asrwt>0</asrwt>
<pdfrwt beam="1">  1        2 0.19868698E+00 0.88920935E+03</pdfrwt>
<pdfrwt beam="2">  1       -2 0.18956072E+00 0.88920935E+03</pdfrwt>
<totfact> 0.26255087E+00</totfact>
</mgrwt>
</event>
<event>
 4    1  0.1701380E-008  0.4361070E+03  0.7818608E-02  0.1031948E+00
         -2   -1    0    0    0  501 -0.00000000000E+00  0.00000000000E+00  0.20585115189E+04  0.20585115189E+04  0.25500000000E-02 0.  1.
          2   -1    0    0  501    0  0.00000000000E+00 -0.00000000000E+00 -0.15373970328E+04  0.15373970328E+04  0.25500000000E-02 0. -1.
    8880022    1    1    2    0    0 -0.34897834020E+03  0.21215986908E+03  0.20036494090E+04  0.20505609719E+04  0.15294330000E+03 0.  0.
    8880022    1    1    2    0    0  0.34897834020E+03 -0.21215986908E+03 -0.14825349229E+04  0.15453475799E+04  0.15294330000E+03 0.  0.
<mgrwt>
<rscale>  0 0.43610703E+03</rscale>
<asrwt>0</asrwt>
<pdfrwt beam="1">  1        2 0.23652262E+00 0.43610703E+03</pdfrwt>
<pdfrwt beam="2">  1       -2 0.31669408E+00 0.43610703E+03</pdfrwt>
<totfact> 0.35450380E-01</totfact>
</mgrwt>
</event>
<event>
 4    1  0.1701380E-008  0.4895379E+03  0.7818608E-02  0.1016546E+00
          2   -1    0    0  501    0  0.00000000000E+00  0.00000000000E+00  0.12479490766E+04  0.12479490766E+04  0.25500000000E-02 0. -1.
         -2   -1    0    0    0  501 -0.00000000000E+00 -0.00000000000E+00 -0.66916912158E+03  0.66916912158E+03  0.25500000000E-02 0.  1.
    8880022    1    1    2    0    0 -0.12842152590E+03  0.44694920375E+03 -0.52002665147E+03  0.71419538664E+03  0.15294330000E+03 0.  0.
    8880022    1    1    2    0    0  0.12842152590E+03 -0.44694920375E+03  0.10988066065E+04  0.12029228115E+04  0.15294330000E+03 0.  0.
<mgrwt>
<rscale>  0 0.48953788E+03</rscale>
<asrwt>0</asrwt>
<pdfrwt beam="1">  1        2 0.19199216E+00 0.48953788E+03</pdfrwt>
<pdfrwt beam="2">  1       -2 0.10294910E+00 0.48953788E+03</pdfrwt>
<totfact> 0.14497554E+01</totfact>
</mgrwt>
</event>
<event>
 4    1  0.1701380E-008  0.7314613E+03  0.7818608E-02  0.9664892E-01
          2   -1    0    0  501    0  0.00000000000E+00  0.00000000000E+00  0.22594746861E+04  0.22594746861E+04  0.25500000000E-02 0. -1.
         -2   -1    0    0    0  501 -0.00000000000E+00 -0.00000000000E+00 -0.67308147811E+03  0.67308147811E+03  0.25500000000E-02 0.  1.
    8880022    1    1    2    0    0  0.62531254703E+03 -0.34731574273E+03 -0.38730793480E+03  0.82767330270E+03  0.15294330000E+03 0.  0.
    8880022    1    1    2    0    0 -0.62531254703E+03  0.34731574273E+03  0.19737011428E+04  0.21048828615E+04  0.15294330000E+03 0.  0.
<mgrwt>
<rscale>  0 0.73146132E+03</rscale>
<asrwt>0</asrwt>
<pdfrwt beam="1">  1        2 0.34761149E+00 0.73146132E+03</pdfrwt>
<pdfrwt beam="2">  1       -2 0.10355100E+00 0.73146132E+03</pdfrwt>
<totfact> 0.38019661E+00</totfact>
</mgrwt>
</event>
<event>
 4    1  0.1701380E-008  0.4992999E+03  0.7818608E-02  0.1013962E+00
          2   -1    0    0  501    0  0.00000000000E+00  0.00000000000E+00  0.89420004497E+03  0.89420004498E+03  0.25500000000E-02 0. -1.
         -2   -1    0    0    0  501 -0.00000000000E+00 -0.00000000000E+00 -0.49355383243E+03  0.49355383243E+03  0.25500000000E-02 0.  1.
    8880022    1    1    2    0    0  0.33184048479E+03 -0.34028026000E+03 -0.25738493468E+03  0.56173607710E+03  0.15294330000E+03 0.  0.
    8880022    1    1    2    0    0 -0.33184048479E+03  0.34028026000E+03  0.65803114723E+03  0.82601780031E+03  0.15294330000E+03 0. -1.
<mgrwt>
<rscale>  0 0.49929993E+03</rscale>
<asrwt>0</asrwt>
<pdfrwt beam="1">  1        2 0.13756924E+00 0.49929993E+03</pdfrwt>
<pdfrwt beam="2">  1       -2 0.75931359E-01 0.49929993E+03</pdfrwt>
<totfact> 0.47848981E+01</totfact>
</mgrwt>
</event>
<event>
 4    1  0.1701380E-008  0.1405213E+04  0.7818608E-02  0.8950053E-01
         -2   -1    0    0    0  501 -0.00000000000E+00  0.00000000000E+00  0.14850645642E+04  0.14850645642E+04  0.25500000000E-02 0.  1.
          2   -1    0    0  501    0  0.00000000000E+00 -0.00000000000E+00 -0.16949404892E+04  0.16949404892E+04  0.25500000000E-02 0. -1.
    8880022    1    1    2    0    0 -0.13455251126E+04 -0.37522684292E+03  0.63319795796E+03  0.15412865792E+04  0.15294330000E+03 0.  0.
    8880022    1    1    2    0    0  0.13455251126E+04  0.37522684292E+03 -0.84307388301E+03  0.16387184742E+04  0.15294330000E+03 0.  0.
<mgrwt>
<rscale>  0 0.14052134E+04</rscale>
<asrwt>0</asrwt>
<pdfrwt beam="1">  1        2 0.26076007E+00 0.14052134E+04</pdfrwt>
<pdfrwt beam="2">  1       -2 0.22847147E+00 0.14052134E+04</pdfrwt>
<totfact> 0.81825476E-01</totfact>
</mgrwt>
</event>
<event>
 4    1  0.1701380E-008  0.1393215E+04  0.7818608E-02  0.8958744E-01
         -2   -1    0    0    0  501 -0.00000000000E+00  0.00000000000E+00  0.13811165384E+04  0.13811165384E+04  0.25500000000E-02 0.  1.
          2   -1    0    0  501    0  0.00000000000E+00 -0.00000000000E+00 -0.22532570357E+04  0.22532570357E+04  0.25500000000E-02 0. -1.
    8880022    1    1    2    0    0  0.13453746782E+04  0.32806040017E+03 -0.15507509633E+04  0.20846766785E+04  0.15294330000E+03 0.  0.
    8880022    1    1    2    0    0 -0.13453746782E+04 -0.32806040017E+03  0.67861046596E+03  0.15496968956E+04  0.15294330000E+03 0.  0.
<mgrwt>
<rscale>  0 0.13932151E+04</rscale>
<asrwt>0</asrwt>
<pdfrwt beam="1">  1        2 0.34665493E+00 0.13932151E+04</pdfrwt>
<pdfrwt beam="2">  1       -2 0.21247947E+00 0.13932151E+04</pdfrwt>
<totfact> 0.50520203E-01</totfact>
</mgrwt>
</event>
<event>
 4    1  0.1701380E-008  0.6793361E+03  0.7818608E-02  0.9753238E-01
         -2   -1    0    0    0  501 -0.00000000000E+00  0.00000000000E+00  0.68766081759E+03  0.68766081759E+03  0.25500000000E-02 0.  1.
          2   -1    0    0  501    0  0.00000000000E+00 -0.00000000000E+00 -0.18484066408E+04  0.18484066408E+04  0.25500000000E-02 0. -1.
    8880022    1    1    2    0    0 -0.14663255392E+03  0.64544930476E+03 -0.15923591166E+04  0.17312149260E+04  0.15294330000E+03 0.  0.
    8880022    1    1    2    0    0  0.14663255392E+03 -0.64544930476E+03  0.43161329336E+03  0.80485253239E+03  0.15294330000E+03 0.  0.
<mgrwt>
<rscale>  0 0.67933612E+03</rscale>
<asrwt>0</asrwt>
<pdfrwt beam="1">  1        2 0.28437025E+00 0.67933612E+03</pdfrwt>
<pdfrwt beam="2">  1       -2 0.10579397E+00 0.67933612E+03</pdfrwt>
<totfact> 0.61157230E+00</totfact>
</mgrwt>
</event>
<event>
 4    1  0.1701380E-008  0.7903208E+03  0.7818608E-02  0.9574134E-01
         -2   -1    0    0    0  501 -0.00000000000E+00  0.00000000000E+00  0.72125141157E+03  0.72125141158E+03  0.25500000000E-02 0.  1.
          2   -1    0    0  501    0  0.00000000000E+00 -0.00000000000E+00 -0.16369067592E+04  0.16369067592E+04  0.25500000000E-02 0. -1.
    8880022    1    1    2    0    0 -0.58091804400E+03 -0.51356557170E+03 -0.12669805879E+04  0.14932671674E+04  0.15294330000E+03 0.  0.
    8880022    1    1    2    0    0  0.58091804400E+03  0.51356557170E+03  0.35132524022E+03  0.86489100337E+03  0.15294330000E+03 0.  0.
<mgrwt>
<rscale>  0 0.79032084E+03</rscale>
<asrwt>0</asrwt>
<pdfrwt beam="1">  1        2 0.25183181E+00 0.79032084E+03</pdfrwt>
<pdfrwt beam="2">  1       -2 0.11096176E+00 0.79032084E+03</pdfrwt>
<totfact> 0.69898358E+00</totfact>
</mgrwt>
</event>
<event>
 4    1  0.1701380E-008  0.1014295E+04  0.7818608E-02  0.9293004E-01
          2   -1    0    0  501    0  0.00000000000E+00  0.00000000000E+00  0.17447897157E+04  0.17447897157E+04  0.25500000000E-02 0. -1.
         -2   -1    0    0    0  501 -0.00000000000E+00 -0.00000000000E+00 -0.17742097298E+04  0.17742097298E+04  0.25500000000E-02 0.  1.
    8880022    1    1    2    0    0  0.84258041600E+02 -0.99915099399E+03  0.14229873124E+04  0.17474800916E+04  0.15294330000E+03 0.  0.
    8880022    1    1    2    0    0 -0.84258041600E+02  0.99915099399E+03 -0.14524073264E+04  0.17715193539E+04  0.15294330000E+03 0.  0.
<mgrwt>
<rscale>  0 0.10142947E+04</rscale>
<asrwt>0</asrwt>
<pdfrwt beam="1">  1        2 0.26842919E+00 0.10142947E+04</pdfrwt>
<pdfrwt beam="2">  1       -2 0.27295534E+00 0.10142947E+04</pdfrwt>
<totfact> 0.43096611E-01</totfact>
</mgrwt>
</event>
<event>
 4    1  0.1701380E-008  0.4918862E+03  0.7818608E-02  0.1015919E+00
         -2   -1    0    0    0  501 -0.00000000000E+00  0.00000000000E+00  0.57834203904E+03  0.57834203905E+03  0.25500000000E-02 0.  1.
          2   -1    0    0  501    0  0.00000000000E+00 -0.00000000000E+00 -0.14841575979E+04  0.14841575979E+04  0.25500000000E-02 0. -1.
    8880022    1    1    2    0    0  0.26588741231E+03 -0.38453122640E+03 -0.13268090098E+04  0.14150527134E+04  0.15294330000E+03 0.  0.
    8880022    1    1    2    0    0 -0.26588741231E+03  0.38453122640E+03  0.42099345095E+03  0.64744692358E+03  0.15294330000E+03 0.  0.
<mgrwt>
<rscale>  0 0.49188620E+03</rscale>
<asrwt>0</asrwt>
<pdfrwt beam="1">  1        2 0.22833194E+00 0.49188620E+03</pdfrwt>
<pdfrwt beam="2">  1       -2 0.88975699E-01 0.49188620E+03</pdfrwt>
<totfact> 0.14998701E+01</totfact>
</mgrwt>
</event>
<event>
 4    1  0.1701380E-008  0.7507682E+03  0.7818608E-02  0.9634146E-01
          2   -1    0    0  501    0  0.00000000000E+00  0.00000000000E+00  0.29422868473E+04  0.29422868473E+04  0.25500000000E-02 0. -1.
         -2   -1    0    0    0  501 -0.00000000000E+00 -0.00000000000E+00 -0.26509220692E+03  0.26509220693E+03  0.25500000000E-02 0.  1.
    8880022    1    1    2    0    0 -0.64676945763E+03  0.34921407647E+03  0.21831604536E+04  0.23086451485E+04  0.15294330000E+03 0.  0.
    8880022    1    1    2    0    0  0.64676945763E+03 -0.34921407647E+03  0.49403418669E+03  0.89873390565E+03  0.15294330000E+03 0.  0.
<mgrwt>
<rscale>  0 0.75076818E+03</rscale>
<asrwt>0</asrwt>
<pdfrwt beam="1">  1        2 0.45265952E+00 0.75076818E+03</pdfrwt>
<pdfrwt beam="2">  1       -2 0.40783416E-01 0.75076818E+03</pdfrwt>
<totfact> 0.11422559E+01</totfact>
</mgrwt>
</event>
<event>
 4    1  0.1701380E-008  0.1413018E+04  0.7818608E-02  0.8944449E-01
         -2   -1    0    0    0  501 -0.00000000000E+00  0.00000000000E+00  0.79844383149E+03  0.79844383150E+03  0.25500000000E-02 0.  1.
          2   -1    0    0  501    0  0.00000000000E+00 -0.00000000000E+00 -0.25139325812E+04  0.25139325812E+04  0.25500000000E-02 0. -1.
    8880022    1    1    2    0    0  0.83485242780E+02  0.14022337761E+04 -0.73731596081E+03  0.15938180033E+04  0.15294330000E+03 0.  0.
    8880022    1    1    2    0    0 -0.83485242780E+02 -0.14022337761E+04 -0.97817278892E+03  0.17185584094E+04  0.15294330000E+03 0.  0.
<mgrwt>
<rscale>  0 0.14130184E+04</rscale>
<asrwt>0</asrwt>
<pdfrwt beam="1">  1        2 0.38675886E+00 0.14130184E+04</pdfrwt>
<pdfrwt beam="2">  1       -2 0.12283751E+00 0.14130184E+04</pdfrwt>
<totfact> 0.16389493E+00</totfact>
</mgrwt>
</event>
<event>
 4    1  0.1701380E-008  0.5909202E+03  0.7818608E-02  0.9924425E-01
          2   -1    0    0  501    0  0.00000000000E+00  0.00000000000E+00  0.24142947581E+04  0.24142947581E+04  0.25500000000E-02 0. -1.
         -2   -1    0    0    0  501 -0.00000000000E+00 -0.00000000000E+00 -0.16421159596E+03  0.16421159598E+03  0.25500000000E-02 0.  1.
    8880022    1    1    2    0    0  0.56029465056E+03  0.10892610224E+03  0.15702130259E+04  0.16777233356E+04  0.15294330000E+03 0.  0.
    8880022    1    1    2    0    0 -0.56029465056E+03 -0.10892610224E+03  0.67987013628E+03  0.90078301850E+03  0.15294330000E+03 0.  0.
<mgrwt>
<rscale>  0 0.59092017E+03</rscale>
<asrwt>0</asrwt>
<pdfrwt beam="1">  1        2 0.37142993E+00 0.59092017E+03</pdfrwt>
<pdfrwt beam="2">  1       -2 0.25263325E-01 0.59092017E+03</pdfrwt>
<totfact> 0.58273996E+01</totfact>
</mgrwt>
</event>
<event>
 4    1  0.1701380E-008  0.9273879E+03  0.7818608E-02  0.9391978E-01
         -2   -1    0    0    0  501 -0.00000000000E+00  0.00000000000E+00  0.27276523927E+04  0.27276523927E+04  0.25500000000E-02 0.  1.
          2   -1    0    0  501    0  0.00000000000E+00 -0.00000000000E+00 -0.16647136424E+04  0.16647136424E+04  0.25500000000E-02 0. -1.
    8880022    1    1    2    0    0 -0.79559754578E+03 -0.45131063899E+03  0.25087583806E+04  0.26746807310E+04  0.15294330000E+03 0.  0.
    8880022    1    1    2    0    0  0.79559754578E+03  0.45131063899E+03 -0.14458196303E+04  0.17176853041E+04  0.15294330000E+03 0.  0.
<mgrwt>
<rscale>  0 0.92738795E+03</rscale>
<asrwt>0</asrwt>
<pdfrwt beam="1">  1        2 0.25610979E+00 0.92738795E+03</pdfrwt>
<pdfrwt beam="2">  1       -2 0.41963883E+00 0.92738795E+03</pdfrwt>
<totfact> 0.58644156E-02</totfact>
</mgrwt>
</event>
<event>
 4    1  0.1701380E-008  0.3512471E+03  0.7818608E-02  0.1062104E+00
          2   -1    0    0  501    0  0.00000000000E+00  0.00000000000E+00  0.89451542033E+03  0.89451542033E+03  0.25500000000E-02 0. -1.
         -2   -1    0    0    0  501 -0.00000000000E+00 -0.00000000000E+00 -0.40326666621E+03  0.40326666622E+03  0.25500000000E-02 0.  1.
    8880022    1    1    2    0    0  0.30867474879E+03 -0.68576873215E+02  0.77198054178E+03  0.84813235876E+03  0.15294330000E+03 0. -1.
    8880022    1    1    2    0    0 -0.30867474879E+03  0.68576873215E+02 -0.28073178766E+03  0.44964972779E+03  0.15294330000E+03 0.  0.
<mgrwt>
<rscale>  0 0.35124712E+03</rscale>
<asrwt>0</asrwt>
<pdfrwt beam="1">  1        2 0.13761776E+00 0.35124712E+03</pdfrwt>
<pdfrwt beam="2">  1       -2 0.62041026E-01 0.35124712E+03</pdfrwt>
<totfact> 0.75478382E+01</totfact>
</mgrwt>
</event>
<event>
 4    1  0.1916972E-008  0.1063759E+04  0.7818608E-02  0.9241253E-01
          2   -1    0    0  501    0  0.00000000000E+00  0.00000000000E+00  0.17444976928E+04  0.17444976928E+04  0.25500000000E-02 0. -1.
         -2   -1    0    0    0  501 -0.00000000000E+00 -0.00000000000E+00 -0.15798231120E+04  0.15798231120E+04  0.25500000000E-02 0.  1.
    8880022    1    1    2    0    0 -0.42068850809E+03 -0.96499318852E+03 -0.11937549150E+04  0.15989475053E+04  0.15294330000E+03 0.  0.
    8880022    1    1    2    0    0  0.42068850809E+03  0.96499318852E+03  0.13584294958E+04  0.17253732995E+04  0.15294330000E+03 0.  0.
<mgrwt>
<rscale>  0 0.10637586E+04</rscale>
<asrwt>0</asrwt>
<pdfrwt beam="1">  1        2 0.26838426E+00 0.10637586E+04</pdfrwt>
<pdfrwt beam="2">  1       -2 0.24304971E+00 0.10637586E+04</pdfrwt>
<totfact> 0.65034814E-01</totfact>
</mgrwt>
</event>
<event>
 4    1  0.1701380E-008  0.3484774E+03  0.7818608E-02  0.1063242E+00
          2   -1    0    0  501    0  0.00000000000E+00  0.00000000000E+00  0.36180163105E+03  0.36180163106E+03  0.25500000000E-02 0. -1.
         -2   -1    0    0    0  501 -0.00000000000E+00 -0.00000000000E+00 -0.12397850222E+04  0.12397850222E+04  0.25500000000E-02 0.  1.
    8880022    1    1    2    0    0 -0.22155381179E+03 -0.22126628035E+03  0.24486540908E+03  0.42590559977E+03  0.15294330000E+03 0.  0.
    8880022    1    1    2    0    0  0.22155381179E+03  0.22126628035E+03 -0.11228488002E+04  0.11756810535E+04  0.15294330000E+03 0.  0.
<mgrwt>
<rscale>  0 0.34847742E+03</rscale>
<asrwt>0</asrwt>
<pdfrwt beam="1">  1        2 0.55661790E-01 0.34847742E+03</pdfrwt>
<pdfrwt beam="2">  1       -2 0.19073616E+00 0.34847742E+03</pdfrwt>
<totfact> 0.14633429E+01</totfact>
</mgrwt>
</event>
<event>
 4    1  0.1701380E-008  0.1095456E+04  0.7818608E-02  0.9209632E-01
         -2   -1    0    0    0  501 -0.00000000000E+00  0.00000000000E+00  0.12293962657E+04  0.12293962657E+04  0.25500000000E-02 0.  1.
          2   -1    0    0  501    0  0.00000000000E+00 -0.00000000000E+00 -0.20822576266E+04  0.20822576266E+04  0.25500000000E-02 0. -1.
    8880022    1    1    2    0    0  0.69100177474E+03  0.83615079522E+03  0.78042321640E+03  0.13450218046E+04  0.15294330000E+03 0.  0.
    8880022    1    1    2    0    0 -0.69100177474E+03 -0.83615079522E+03 -0.16332845773E+04  0.19666320877E+04  0.15294330000E+03 0.  0.
<mgrwt>
<rscale>  0 0.10954557E+04</rscale>
<asrwt>0</asrwt>
<pdfrwt beam="1">  1        2 0.32034733E+00 0.10954557E+04</pdfrwt>
<pdfrwt beam="2">  1       -2 0.18913789E+00 0.10954557E+04</pdfrwt>
<totfact> 0.93060214E-01</totfact>
</mgrwt>
</event>
<event>
 4    1  0.1701380E-008  0.8025884E+03  0.7818608E-02  0.9556278E-01
          2   -1    0    0  501    0  0.00000000000E+00  0.00000000000E+00  0.13765544992E+04  0.13765544992E+04  0.25500000000E-02 0. -1.
         -2   -1    0    0    0  501 -0.00000000000E+00 -0.00000000000E+00 -0.85563543530E+03  0.85563543530E+03  0.25500000000E-02 0.  1.
    8880022    1    1    2    0    0 -0.63079217320E+03  0.47207805729E+03  0.10117377736E+04  0.12914183805E+04  0.15294330000E+03 0.  0.
    8880022    1    1    2    0    0  0.63079217320E+03 -0.47207805729E+03 -0.49081870972E+03  0.94077155398E+03  0.15294330000E+03 0.  0.
<mgrwt>
<rscale>  0 0.80258838E+03</rscale>
<asrwt>0</asrwt>
<pdfrwt beam="1">  1        2 0.21177761E+00 0.80258838E+03</pdfrwt>
<pdfrwt beam="2">  1       -2 0.13163622E+00 0.80258838E+03</pdfrwt>
<totfact> 0.63798207E+00</totfact>
</mgrwt>
</event>
<event>
 4    1  0.1701380E-008  0.9271154E+03  0.7818608E-02  0.9392306E-01
          2   -1    0    0  501    0  0.00000000000E+00  0.00000000000E+00  0.10041664910E+04  0.10041664910E+04  0.25500000000E-02 0. -1.
         -2   -1    0    0    0  501 -0.00000000000E+00 -0.00000000000E+00 -0.11160856498E+04  0.11160856498E+04  0.25500000000E-02 0.  1.
    8880022    1    1    2    0    0  0.78229251653E+03  0.47346574282E+03  0.45582413607E+03  0.10331111688E+04  0.15294330000E+03 0.  0.
    8880022    1    1    2    0    0 -0.78229251653E+03 -0.47346574282E+03 -0.56774329496E+03  0.10871409720E+04  0.15294330000E+03 0.  0.
<mgrwt>
<rscale>  0 0.92711544E+03</rscale>
<asrwt>0</asrwt>
<pdfrwt beam="1">  1        2 0.15448715E+00 0.92711544E+03</pdfrwt>
<pdfrwt beam="2">  1       -2 0.17170549E+00 0.92711544E+03</pdfrwt>
<totfact> 0.51824728E+00</totfact>
</mgrwt>
</event>
<event>
 4    1  0.1701380E-008  0.7167152E+03  0.7818608E-02  0.9689066E-01
         -2   -1    0    0    0  501 -0.00000000000E+00  0.00000000000E+00  0.16642881901E+04  0.16642881901E+04  0.25500000000E-02 0.  1.
          2   -1    0    0  501    0  0.00000000000E+00 -0.00000000000E+00 -0.66303286178E+03  0.66303286178E+03  0.25500000000E-02 0. -1.
    8880022    1    1    2    0    0  0.29635431097E+03 -0.63439987046E+03  0.13513656060E+04  0.15296632726E+04  0.15294330000E+03 0.  0.
    8880022    1    1    2    0    0 -0.29635431097E+03  0.63439987046E+03 -0.35011027774E+03  0.79765777929E+03  0.15294330000E+03 0. -1.
<mgrwt>
<rscale>  0 0.71671523E+03</rscale>
<asrwt>0</asrwt>
<pdfrwt beam="1">  1        2 0.10200505E+00 0.71671523E+03</pdfrwt>
<pdfrwt beam="2">  1       -2 0.25604434E+00 0.71671523E+03</pdfrwt>
<totfact> 0.26839595E+00</totfact>
</mgrwt>
</event>
<event>
 4    1  0.1701380E-008  0.1646406E+04  0.7818608E-02  0.8792535E-01
         -2   -1    0    0    0  501 -0.00000000000E+00  0.00000000000E+00  0.26146451087E+04  0.26146451087E+04  0.25500000000E-02 0.  1.
          2   -1    0    0  501    0  0.00000000000E+00 -0.00000000000E+00 -0.13237997777E+04  0.13237997777E+04  0.25500000000E-02 0. -1.
    8880022    1    1    2    0    0  0.21470469380E+03  0.16251654856E+04  0.15624569657E+04  0.22697850964E+04  0.15294330000E+03 0.  0.
    8880022    1    1    2    0    0 -0.21470469380E+03 -0.16251654856E+04 -0.27161163473E+03  0.16686597899E+04  0.15294330000E+03 0.  0.
<mgrwt>
<rscale>  0 0.16464060E+04</rscale>
<asrwt>0</asrwt>
<pdfrwt beam="1">  1        2 0.20366150E+00 0.16464060E+04</pdfrwt>
<pdfrwt beam="2">  1       -2 0.40225309E+00 0.16464060E+04</pdfrwt>
<totfact> 0.10672727E-01</totfact>
</mgrwt>
</event>
<event>
 4    1  0.1701380E-008  0.1509948E+04  0.7818608E-02  0.8877864E-01
          2   -1    0    0  501    0  0.00000000000E+00  0.00000000000E+00  0.20514978645E+04  0.20514978645E+04  0.25500000000E-02 0. -1.
         -2   -1    0    0    0  501 -0.00000000000E+00 -0.00000000000E+00 -0.16345934397E+04  0.16345934397E+04  0.25500000000E-02 0.  1.
    8880022    1    1    2    0    0 -0.37317930156E+03 -0.14550909673E+04  0.12512033740E+04  0.19609829296E+04  0.15294330000E+03 0.  0.
    8880022    1    1    2    0    0  0.37317930156E+03  0.14550909673E+04 -0.83429894926E+03  0.17251083746E+04  0.15294330000E+03 0.  0.
<mgrwt>
<rscale>  0 0.15099484E+04</rscale>
<asrwt>0</asrwt>
<pdfrwt beam="1">  1        2 0.31561506E+00 0.15099484E+04</pdfrwt>
<pdfrwt beam="2">  1       -2 0.25147591E+00 0.15099484E+04</pdfrwt>
<totfact> 0.36854160E-01</totfact>
</mgrwt>
</event>
<event>
 4    1  0.1701380E-008  0.9251286E+03  0.7818608E-02  0.9394703E-01
          2   -1    0    0  501    0  0.00000000000E+00  0.00000000000E+00  0.12794971016E+04  0.12794971016E+04  0.25500000000E-02 0. -1.
         -2   -1    0    0    0  501 -0.00000000000E+00 -0.00000000000E+00 -0.11192651412E+04  0.11192651412E+04  0.25500000000E-02 0.  1.
    8880022    1    1    2    0    0 -0.89369462601E+03  0.18379636518E+03  0.84091576147E+03  0.12502008476E+04  0.15294330000E+03 0.  0.
    8880022    1    1    2    0    0  0.89369462601E+03 -0.18379636518E+03 -0.68068380105E+03  0.11485613952E+04  0.15294330000E+03 0.  0.
<mgrwt>
<rscale>  0 0.92512855E+03</rscale>
<asrwt>0</asrwt>
<pdfrwt beam="1">  1        2 0.19684571E+00 0.92512855E+03</pdfrwt>
<pdfrwt beam="2">  1       -2 0.17219464E+00 0.92512855E+03</pdfrwt>
<totfact> 0.34956802E+00</totfact>
</mgrwt>
</event>
<event>
 4    1  0.1701380E-008  0.2457673E+03  0.7818608E-02  0.1116009E+00
          2   -1    0    0  501    0  0.00000000000E+00  0.00000000000E+00  0.44825303805E+03  0.44825303806E+03  0.25500000000E-02 0. -1.
         -2   -1    0    0    0  501 -0.00000000000E+00 -0.00000000000E+00 -0.39575449323E+03  0.39575449323E+03  0.25500000000E-02 0.  1.
    8880022    1    1    2    0    0 -0.15918194114E+03 -0.10803240940E+03 -0.31646202063E+03  0.40068660494E+03  0.15294330000E+03 0.  0.
    8880022    1    1    2    0    0  0.15918194114E+03  0.10803240940E+03  0.36896056545E+03  0.44332092635E+03  0.15294330000E+03 0.  0.
<mgrwt>
<rscale>  0 0.24576726E+03</rscale>
<asrwt>0</asrwt>
<pdfrwt beam="1">  1        2 0.68962005E-01 0.24576726E+03</pdfrwt>
<pdfrwt beam="2">  1       -2 0.60885307E-01 0.24576726E+03</pdfrwt>
<totfact> 0.18257664E+02</totfact>
</mgrwt>
</event>
<event>
 4    1  0.1788211E-008  0.8423476E+03  0.7818608E-02  0.9500666E-01
         -2   -1    0    0    0  501 -0.00000000000E+00  0.00000000000E+00  0.25886401048E+04  0.25886401048E+04  0.25500000000E-02 0.  1.
          2   -1    0    0  501    0  0.00000000000E+00 -0.00000000000E+00 -0.12517510463E+04  0.12517510463E+04  0.25500000000E-02 0. -1.
    8880022    1    1    2    0    0 -0.33320235674E+03  0.75837587363E+03 -0.10285410247E+04  0.13294532969E+04  0.15294330000E+03 0.  0.
    8880022    1    1    2    0    0  0.33320235674E+03 -0.75837587363E+03  0.23654300832E+04  0.25109378542E+04  0.15294330000E+03 0.  0.
<mgrwt>
<rscale>  0 0.84234757E+03</rscale>
<asrwt>0</asrwt>
<pdfrwt beam="1">  1        2 0.19257708E+00 0.84234757E+03</pdfrwt>
<pdfrwt beam="2">  1       -2 0.39825232E+00 0.84234757E+03</pdfrwt>
<totfact> 0.14112486E-01</totfact>
</mgrwt>
</event>
<event>
 4    1  0.1701380E-008  0.2226855E+03  0.7818608E-02  0.1131897E+00
          2   -1    0    0  501    0  0.00000000000E+00  0.00000000000E+00  0.51317771557E+03  0.51317771558E+03  0.25500000000E-02 0. -1.
         -2   -1    0    0    0  501 -0.00000000000E+00 -0.00000000000E+00 -0.26465366677E+03  0.26465366678E+03  0.25500000000E-02 0.  1.
    8880022    1    1    2    0    0  0.57791484716E+02 -0.15118637860E+03 -0.18562297966E+03  0.28990467463E+03  0.15294330000E+03 0.  0.
    8880022    1    1    2    0    0 -0.57791484716E+02  0.15118637860E+03  0.43414702847E+03  0.48792670773E+03  0.15294330000E+03 0.  0.
<mgrwt>
<rscale>  0 0.22268550E+03</rscale>
<asrwt>0</asrwt>
<pdfrwt beam="1">  1        2 0.78950418E-01 0.22268550E+03</pdfrwt>
<pdfrwt beam="2">  1       -2 0.40715949E-01 0.22268550E+03</pdfrwt>
<totfact> 0.35144197E+02</totfact>
</mgrwt>
</event>
<event>
 4    1  0.1701380E-008  0.4489500E+03  0.7818608E-02  0.1028036E+00
         -2   -1    0    0    0  501 -0.00000000000E+00  0.00000000000E+00  0.63627390492E+03  0.63627390493E+03  0.25500000000E-02 0.  1.
          2   -1    0    0  501    0  0.00000000000E+00 -0.00000000000E+00 -0.22333390202E+04  0.22333390202E+04  0.25500000000E-02 0. -1.
    8880022    1    1    2    0    0 -0.37825694455E+03 -0.18731292589E+03  0.53062842812E+03  0.69507023390E+03  0.15294330000E+03 0.  0.
    8880022    1    1    2    0    0  0.37825694455E+03  0.18731292589E+03 -0.21276935434E+04  0.21745426912E+04  0.15294330000E+03 0. -1.
<mgrwt>
<rscale>  0 0.44895000E+03</rscale>
<asrwt>0</asrwt>
<pdfrwt beam="1">  1        2 0.34359061E+00 0.44895000E+03</pdfrwt>
<pdfrwt beam="2">  1       -2 0.97888294E-01 0.44895000E+03</pdfrwt>
<totfact> 0.47927779E+00</totfact>
</mgrwt>
</event>
<event>
 4    1  0.1701380E-008  0.8037451E+03  0.7818608E-02  0.9554612E-01
         -2   -1    0    0    0  501 -0.00000000000E+00  0.00000000000E+00  0.39731454748E+03  0.39731454749E+03  0.25500000000E-02 0.  1.
          2   -1    0    0  501    0  0.00000000000E+00 -0.00000000000E+00 -0.21721893041E+04  0.21721893041E+04  0.25500000000E-02 0. -1.
    8880022    1    1    2    0    0  0.36329729390E+02 -0.78822248395E+03 -0.24316528403E+03  0.83972349128E+03  0.15294330000E+03 0.  0.
    8880022    1    1    2    0    0 -0.36329729390E+02  0.78822248395E+03 -0.15317094726E+04  0.17297803603E+04  0.15294330000E+03 0. -1.
<mgrwt>
<rscale>  0 0.80374510E+03</rscale>
<asrwt>0</asrwt>
<pdfrwt beam="1">  1        2 0.33418296E+00 0.80374510E+03</pdfrwt>
<pdfrwt beam="2">  1       -2 0.61125316E-01 0.80374510E+03</pdfrwt>
<totfact> 0.13741401E+01</totfact>
</mgrwt>
</event>
<event>
 4    1  0.1701380E-008  0.1169465E+04  0.7818608E-02  0.9140012E-01
          2   -1    0    0  501    0  0.00000000000E+00  0.00000000000E+00  0.24117120406E+04  0.24117120406E+04  0.25500000000E-02 0. -1.
         -2   -1    0    0    0  501 -0.00000000000E+00 -0.00000000000E+00 -0.10172788443E+04  0.10172788443E+04  0.25500000000E-02 0.  1.
    8880022    1    1    2    0    0 -0.36575346772E+03  0.11002187512E+04 -0.44333657925E+03  0.12506781661E+04  0.15294330000E+03 0.  0.
    8880022    1    1    2    0    0  0.36575346772E+03 -0.11002187512E+04  0.18377697756E+04  0.21783127188E+04  0.15294330000E+03 0.  0.
<mgrwt>
<rscale>  0 0.11694651E+04</rscale>
<asrwt>0</asrwt>
<pdfrwt beam="1">  1        2 0.37103262E+00 0.11694651E+04</pdfrwt>
<pdfrwt beam="2">  1       -2 0.15650444E+00 0.11694651E+04</pdfrwt>
<totfact> 0.10262047E+00</totfact>
</mgrwt>
</event>
<event>
 4    1  0.1701380E-008  0.1697475E+04  0.7818608E-02  0.8762806E-01
         -2   -1    0    0    0  501 -0.00000000000E+00  0.00000000000E+00  0.15053341098E+04  0.15053341098E+04  0.25500000000E-02 0.  1.
          2   -1    0    0  501    0  0.00000000000E+00 -0.00000000000E+00 -0.26220384660E+04  0.26220384660E+04  0.25500000000E-02 0. -1.
    8880022    1    1    2    0    0 -0.15597214653E+04 -0.65214972467E+03  0.51393047883E+03  0.17735688604E+04  0.15294330000E+03 0.  0.
    8880022    1    1    2    0    0  0.15597214653E+04  0.65214972467E+03 -0.16306348350E+04  0.23538037154E+04  0.15294330000E+03 0.  0.
<mgrwt>
<rscale>  0 0.16974752E+04</rscale>
<asrwt>0</asrwt>
<pdfrwt beam="1">  1        2 0.40339053E+00 0.16974752E+04</pdfrwt>
<pdfrwt beam="2">  1       -2 0.23158986E+00 0.16974752E+04</pdfrwt>
<totfact> 0.22654987E-01</totfact>
</mgrwt>
</event>
<event>
 4    1  0.1701380E-008  0.7137229E+03  0.7818608E-02  0.9694048E-01
          2   -1    0    0  501    0  0.00000000000E+00  0.00000000000E+00  0.16728516165E+04  0.16728516165E+04  0.25500000000E-02 0. -1.
         -2   -1    0    0    0  501 -0.00000000000E+00 -0.00000000000E+00 -0.10437172160E+04  0.10437172160E+04  0.25500000000E-02 0.  1.
    8880022    1    1    2    0    0 -0.15894571653E+03  0.67878198139E+03  0.14576622289E+04  0.16230155716E+04  0.15294330000E+03 0.  0.
    8880022    1    1    2    0    0  0.15894571653E+03 -0.67878198139E+03 -0.82852782843E+03  0.10935532610E+04  0.15294330000E+03 0.  0.
<mgrwt>
<rscale>  0 0.71372290E+03</rscale>
<asrwt>0</asrwt>
<pdfrwt beam="1">  1        2 0.25736179E+00 0.71372290E+03</pdfrwt>
<pdfrwt beam="2">  1       -2 0.16057188E+00 0.71372290E+03</pdfrwt>
<totfact> 0.26283171E+00</totfact>
</mgrwt>
</event>
<event>
 4    1  0.1701380E-008  0.1297618E+04  0.7818608E-02  0.9031456E-01
          2   -1    0    0  501    0  0.00000000000E+00  0.00000000000E+00  0.28683042631E+04  0.28683042631E+04  0.25500000000E-02 0. -1.
         -2   -1    0    0    0  501 -0.00000000000E+00 -0.00000000000E+00 -0.84749908199E+03  0.84749908199E+03  0.25500000000E-02 0.  1.
    8880022    1    1    2    0    0  0.76404636233E+03 -0.10376198748E+04 -0.19560470029E+02  0.12977658161E+04  0.15294330000E+03 0.  0.
    8880022    1    1    2    0    0 -0.76404636233E+03  0.10376198748E+04  0.20403656511E+04  0.24180375290E+04  0.15294330000E+03 0. -1.
<mgrwt>
<rscale>  0 0.12976184E+04</rscale>
<asrwt>0</asrwt>
<pdfrwt beam="1">  1        2 0.44127758E+00 0.12976184E+04</pdfrwt>
<pdfrwt beam="2">  1       -2 0.13038447E+00 0.12976184E+04</pdfrwt>
<totfact> 0.88054513E-01</totfact>
</mgrwt>
</event>
<event>
 4    1  0.1701380E-008  0.4917737E+03  0.7818608E-02  0.1015949E+00
          2   -1    0    0  501    0  0.00000000000E+00  0.00000000000E+00  0.16109038152E+04  0.16109038152E+04  0.25500000000E-02 0. -1.
         -2   -1    0    0    0  501 -0.00000000000E+00 -0.00000000000E+00 -0.19878180428E+03  0.19878180430E+03  0.25500000000E-02 0.  1.
    8880022    1    1    2    0    0 -0.43003754716E+03 -0.18307757139E+03  0.25840500804E+03  0.55553081850E+03  0.15294330000E+03 0.  0.
    8880022    1    1    2    0    0  0.43003754716E+03  0.18307757139E+03  0.11537170028E+04  0.12541548009E+04  0.15294330000E+03 0. -1.
<mgrwt>
<rscale>  0 0.49177367E+03</rscale>
<asrwt>0</asrwt>
<pdfrwt beam="1">  1        2 0.24783135E+00 0.49177367E+03</pdfrwt>
<pdfrwt beam="2">  1       -2 0.30581816E-01 0.49177367E+03</pdfrwt>
<totfact> 0.11409225E+02</totfact>
</mgrwt>
</event>
<event>
 4    1  0.1701380E-008  0.5313316E+03  0.7818608E-02  0.1005910E+00
         -2   -1    0    0    0  501 -0.00000000000E+00  0.00000000000E+00  0.79265835374E+03  0.79265835374E+03  0.25500000000E-02 0.  1.
          2   -1    0    0  501    0  0.00000000000E+00 -0.00000000000E+00 -0.13765492603E+04  0.13765492603E+04  0.25500000000E-02 0. -1.
    8880022    1    1    2    0    0  0.26035404312E+03  0.43719260477E+03 -0.12257547009E+04  0.13359595208E+04  0.15294330000E+03 0.  0.
    8880022    1    1    2    0    0 -0.26035404312E+03 -0.43719260477E+03  0.64186379432E+03  0.83324809325E+03  0.15294330000E+03 0.  0.
<mgrwt>
<rscale>  0 0.53133159E+03</rscale>
<asrwt>0</asrwt>
<pdfrwt beam="1">  1        2 0.21177681E+00 0.53133159E+03</pdfrwt>
<pdfrwt beam="2">  1       -2 0.12194744E+00 0.53133159E+03</pdfrwt>
<totfact> 0.80707852E+00</totfact>
</mgrwt>
</event>
<event>
 4    1  0.1701380E-008  0.5728262E+03  0.7818608E-02  0.9963444E-01
         -2   -1    0    0    0  501 -0.00000000000E+00  0.00000000000E+00  0.29009593958E+03  0.29009593959E+03  0.25500000000E-02 0.  1.
          2   -1    0    0  501    0  0.00000000000E+00 -0.00000000000E+00 -0.27858555926E+04  0.27858555926E+04  0.25500000000E-02 0. -1.
    8880022    1    1    2    0    0  0.26905198494E+03 -0.48202615986E+03 -0.62558580121E+02  0.57623208723E+03  0.15294330000E+03 0.  0.
    8880022    1    1    2    0    0 -0.26905198494E+03  0.48202615986E+03 -0.24332010729E+04  0.24997194450E+04  0.15294330000E+03 0.  0.
<mgrwt>
<rscale>  0 0.57282619E+03</rscale>
<asrwt>0</asrwt>
<pdfrwt beam="1">  1        2 0.42859315E+00 0.57282619E+03</pdfrwt>
<pdfrwt beam="2">  1       -2 0.44630147E-01 0.57282619E+03</pdfrwt>
<totfact> 0.12277323E+01</totfact>
</mgrwt>
</event>
<event>
 4    1  0.1701380E-008  0.2299140E+03  0.7818608E-02  0.1126700E+00
         -2   -1    0    0    0  501 -0.00000000000E+00  0.00000000000E+00  0.30024080157E+02  0.30024080265E+02  0.25500000000E-02 0.  1.
          2   -1    0    0  501    0  0.00000000000E+00 -0.00000000000E+00 -0.32595625743E+04  0.32595625743E+04  0.25500000000E-02 0. -1.
    8880022    1    1    2    0    0  0.20298298726E+02  0.17046051512E+03 -0.27301592630E+04  0.27398229984E+04  0.15294330000E+03 0.  0.
    8880022    1    1    2    0    0 -0.20298298726E+02 -0.17046051512E+03 -0.49937923118E+03  0.54976365622E+03  0.15294330000E+03 0.  0.
<mgrwt>
<rscale>  0 0.22991403E+03</rscale>
<asrwt>0</asrwt>
<pdfrwt beam="1">  1        2 0.50147089E+00 0.22991403E+03</pdfrwt>
<pdfrwt beam="2">  1       -2 0.46190918E-02 0.22991403E+03</pdfrwt>
<totfact> 0.32423968E+02</totfact>
</mgrwt>
</event>
<event>
 4    1  0.1701380E-008  0.2792828E+03  0.7818608E-02  0.1096081E+00
          2   -1    0    0  501    0  0.00000000000E+00  0.00000000000E+00  0.11893766126E+04  0.11893766126E+04  0.25500000000E-02 0. -1.
         -2   -1    0    0    0  501 -0.00000000000E+00 -0.00000000000E+00 -0.16681405112E+03  0.16681405114E+03  0.25500000000E-02 0.  1.
    8880022    1    1    2    0    0 -0.18629549098E+03  0.14107175807E+03  0.10395300519E+04  0.10763928803E+04  0.15294330000E+03 0.  0.
    8880022    1    1    2    0    0  0.18629549098E+03 -0.14107175807E+03 -0.16967490416E+02  0.27979778347E+03  0.15294330000E+03 0.  0.
<mgrwt>
<rscale>  0 0.27928284E+03</rscale>
<asrwt>0</asrwt>
<pdfrwt beam="1">  1        2 0.18298102E+00 0.27928284E+03</pdfrwt>
<pdfrwt beam="2">  1       -2 0.25663700E-01 0.27928284E+03</pdfrwt>
<totfact> 0.27678641E+02</totfact>
</mgrwt>
</event>
<event>
 4    1  0.1701380E-008  0.1436816E+04  0.7818608E-02  0.8927592E-01
         -2   -1    0    0    0  501 -0.00000000000E+00  0.00000000000E+00  0.10129102316E+04  0.10129102316E+04  0.25500000000E-02 0.  1.
          2   -1    0    0  501    0  0.00000000000E+00 -0.00000000000E+00 -0.26527634476E+04  0.26527634476E+04  0.25500000000E-02 0. -1.
    8880022    1    1    2    0    0 -0.33602023860E+03 -0.13885744727E+04  0.62306758433E+02  0.14381663507E+04  0.15294330000E+03 0.  0.
    8880022    1    1    2    0    0  0.33602023860E+03  0.13885744727E+04 -0.17021599744E+04  0.22275073285E+04  0.15294330000E+03 0.  0.
<mgrwt>
<rscale>  0 0.14368160E+04</rscale>
<asrwt>0</asrwt>
<pdfrwt beam="1">  1        2 0.40811745E+00 0.14368160E+04</pdfrwt>
<pdfrwt beam="2">  1       -2 0.15583234E+00 0.14368160E+04</pdfrwt>
<totfact> 0.72916453E-01</totfact>
</mgrwt>
</event>
<event>
 4    1  0.1701380E-008  0.1157833E+04  0.7818608E-02  0.9150588E-01
          2   -1    0    0  501    0  0.00000000000E+00  0.00000000000E+00  0.24457440433E+04  0.24457440433E+04  0.25500000000E-02 0. -1.
         -2   -1    0    0    0  501 -0.00000000000E+00 -0.00000000000E+00 -0.80196357642E+03  0.80196357642E+03  0.25500000000E-02 0.  1.
    8880022    1    1    2    0    0  0.68776035673E+03  0.91878788630E+03 -0.91690913148E+02  0.11614578619E+04  0.15294330000E+03 0.  0.
    8880022    1    1    2    0    0 -0.68776035673E+03 -0.91878788630E+03  0.17354713800E+04  0.20862497579E+04  0.15294330000E+03 0.  0.
<mgrwt>
<rscale>  0 0.11578330E+04</rscale>
<asrwt>0</asrwt>
<pdfrwt beam="1">  1        2 0.37626831E+00 0.11578330E+04</pdfrwt>
<pdfrwt beam="2">  1       -2 0.12337901E+00 0.11578330E+04</pdfrwt>
<totfact> 0.18257266E+00</totfact>
</mgrwt>
</event>
<event>
 4    1  0.1701380E-008  0.9038299E+03  0.7818608E-02  0.9420806E-01
         -2   -1    0    0    0  501 -0.00000000000E+00  0.00000000000E+00  0.59376095912E+03  0.59376095912E+03  0.25500000000E-02 0.  1.
          2   -1    0    0  501    0  0.00000000000E+00 -0.00000000000E+00 -0.21063676069E+04  0.21063676069E+04  0.25500000000E-02 0. -1.
    8880022    1    1    2    0    0  0.58164597965E+03 -0.67468870438E+03 -0.15513844668E+04  0.17954671565E+04  0.15294330000E+03 0.  0.
    8880022    1    1    2    0    0 -0.58164597965E+03  0.67468870438E+03  0.38777819034E+02  0.90466140944E+03  0.15294330000E+03 0.  0.
<mgrwt>
<rscale>  0 0.90382993E+03</rscale>
<asrwt>0</asrwt>
<pdfrwt beam="1">  1        2 0.32405655E+00 0.90382993E+03</pdfrwt>
<pdfrwt beam="2">  1       -2 0.91347841E-01 0.90382993E+03</pdfrwt>
<totfact> 0.60405346E+00</totfact>
</mgrwt>
</event>
<event>
 4    1  0.1701380E-008  0.3626520E+03  0.7818608E-02  0.1057539E+00
         -2   -1    0    0    0  501 -0.00000000000E+00  0.00000000000E+00  0.11446454935E+04  0.11446454935E+04  0.25500000000E-02 0.  1.
          2   -1    0    0  501    0  0.00000000000E+00 -0.00000000000E+00 -0.17658752720E+04  0.17658752720E+04  0.25500000000E-02 0. -1.
    8880022    1    1    2    0    0 -0.19543757116E+02  0.32824208360E+03  0.10965058249E+04  0.11549205604E+04  0.15294330000E+03 0.  0.
    8880022    1    1    2    0    0  0.19543757116E+02 -0.32824208360E+03 -0.17177356034E+04  0.17556002051E+04  0.15294330000E+03 0.  0.
<mgrwt>
<rscale>  0 0.36265201E+03</rscale>
<asrwt>0</asrwt>
<pdfrwt beam="1">  1        2 0.27167312E+00 0.36265201E+03</pdfrwt>
<pdfrwt beam="2">  1       -2 0.17609931E+00 0.36265201E+03</pdfrwt>
<totfact> 0.19934631E+00</totfact>
</mgrwt>
</event>
<event>
 4    1  0.1701380E-008  0.1778465E+04  0.7818608E-02  0.8717836E-01
         -2   -1    0    0    0  501 -0.00000000000E+00  0.00000000000E+00  0.15062639417E+04  0.15062639417E+04  0.25500000000E-02 0.  1.
          2   -1    0    0  501    0  0.00000000000E+00 -0.00000000000E+00 -0.26719913342E+04  0.26719913342E+04  0.25500000000E-02 0. -1.
    8880022    1    1    2    0    0 -0.16086941720E+04 -0.74273006847E+03  0.38384816169E+03  0.18194163784E+04  0.15294330000E+03 0.  0.
    8880022    1    1    2    0    0  0.16086941720E+04  0.74273006847E+03 -0.15495755541E+04  0.23588388975E+04  0.15294330000E+03 0.  0.
<mgrwt>
<rscale>  0 0.17784647E+04</rscale>
<asrwt>0</asrwt>
<pdfrwt beam="1">  1        2 0.41107559E+00 0.17784647E+04</pdfrwt>
<pdfrwt beam="2">  1       -2 0.23173291E+00 0.17784647E+04</pdfrwt>
<totfact> 0.20941815E-01</totfact>
</mgrwt>
</event>
<event>
 4    1  0.1760948E-008  0.7094932E+03  0.7818608E-02  0.9701134E-01
          2   -1    0    0  501    0  0.00000000000E+00  0.00000000000E+00  0.17859174709E+04  0.17859174709E+04  0.25500000000E-02 0. -1.
         -2   -1    0    0    0  501 -0.00000000000E+00 -0.00000000000E+00 -0.16922743428E+04  0.16922743428E+04  0.25500000000E-02 0.  1.
    8880022    1    1    2    0    0 -0.68002859069E+03  0.13247641649E+03 -0.15408524888E+04  0.16963510634E+04  0.15294330000E+03 0.  0.
    8880022    1    1    2    0    0  0.68002859069E+03 -0.13247641649E+03  0.16344956168E+04  0.17818407503E+04  0.15294330000E+03 0.  0.
<mgrwt>
<rscale>  0 0.70949316E+03</rscale>
<asrwt>0</asrwt>
<pdfrwt beam="1">  1        2 0.27475653E+00 0.70949316E+03</pdfrwt>
<pdfrwt beam="2">  1       -2 0.26034990E+00 0.70949316E+03</pdfrwt>
<totfact> 0.51740423E-01</totfact>
</mgrwt>
</event>
<event>
 4    1  0.1701380E-008  0.5006958E+03  0.7818608E-02  0.1013597E+00
         -2   -1    0    0    0  501 -0.00000000000E+00  0.00000000000E+00  0.62297309068E+03  0.62297309068E+03  0.25500000000E-02 0.  1.
          2   -1    0    0  501    0  0.00000000000E+00 -0.00000000000E+00 -0.10651844314E+04  0.10651844314E+04  0.25500000000E-02 0. -1.
    8880022    1    1    2    0    0 -0.20298024963E+02  0.47633245677E+03 -0.88691589160E+03  0.10184871482E+04  0.15294330000E+03 0.  0.
    8880022    1    1    2    0    0  0.20298024963E+02 -0.47633245677E+03  0.44470455085E+03  0.66967037395E+03  0.15294330000E+03 0.  0.
<mgrwt>
<rscale>  0 0.50069579E+03</rscale>
<asrwt>0</asrwt>
<pdfrwt beam="1">  1        2 0.16387453E+00 0.50069579E+03</pdfrwt>
<pdfrwt beam="2">  1       -2 0.95842014E-01 0.50069579E+03</pdfrwt>
<totfact> 0.21962125E+01</totfact>
</mgrwt>
</event>
<event>
 4    1  0.1701380E-008  0.9278692E+03  0.7818608E-02  0.9391399E-01
          2   -1    0    0  501    0  0.00000000000E+00  0.00000000000E+00  0.10506824553E+04  0.10506824553E+04  0.25500000000E-02 0. -1.
         -2   -1    0    0    0  501 -0.00000000000E+00 -0.00000000000E+00 -0.11590678053E+04  0.11590678053E+04  0.25500000000E-02 0.  1.
    8880022    1    1    2    0    0 -0.59873903691E+03 -0.69214248433E+03  0.54391393979E+03  0.10755387858E+04  0.15294330000E+03 0.  0.
    8880022    1    1    2    0    0  0.59873903691E+03  0.69214248433E+03 -0.65229928982E+03  0.11342114748E+04  0.15294330000E+03 0.  0.
<mgrwt>
<rscale>  0 0.92786923E+03</rscale>
<asrwt>0</asrwt>
<pdfrwt beam="1">  1        2 0.16164345E+00 0.92786923E+03</pdfrwt>
<pdfrwt beam="2">  1       -2 0.17831812E+00 0.92786923E+03</pdfrwt>
<totfact> 0.43519102E+00</totfact>
</mgrwt>
</event>
<event>
 4    1  0.1701380E-008  0.9079451E+03  0.7818608E-02  0.9415704E-01
          2   -1    0    0  501    0  0.00000000000E+00  0.00000000000E+00  0.23117032412E+04  0.23117032412E+04  0.25500000000E-02 0. -1.
         -2   -1    0    0    0  501 -0.00000000000E+00 -0.00000000000E+00 -0.37655091549E+03  0.37655091550E+03  0.25500000000E-02 0.  1.
    8880022    1    1    2    0    0  0.71799166402E+03  0.53428509733E+03  0.65822005378E+03  0.11214356366E+04  0.15294330000E+03 0.  0.
    8880022    1    1    2    0    0 -0.71799166402E+03 -0.53428509733E+03  0.12769322719E+04  0.15668185201E+04  0.15294330000E+03 0.  0.
<mgrwt>
<rscale>  0 0.90794507E+03</rscale>
<asrwt>0</asrwt>
<pdfrwt beam="1">  1        2 0.35564664E+00 0.90794507E+03</pdfrwt>
<pdfrwt beam="2">  1       -2 0.57930912E-01 0.90794507E+03</pdfrwt>
<totfact> 0.12698319E+01</totfact>
</mgrwt>
</event>
<event>
 4    1  0.1701380E-008  0.4814074E+03  0.7818608E-02  0.1018749E+00
          2   -1    0    0  501    0  0.00000000000E+00  0.00000000000E+00  0.16389886122E+04  0.16389886122E+04  0.25500000000E-02 0. -1.
         -2   -1    0    0    0  501 -0.00000000000E+00 -0.00000000000E+00 -0.52128334156E+03  0.52128334156E+03  0.25500000000E-02 0.  1.
    8880022    1    1    2    0    0 -0.40486616240E+03  0.21081943672E+03 -0.36322310432E+03  0.60306228607E+03  0.15294330000E+03 0.  1.
    8880022    1    1    2    0    0  0.40486616240E+03 -0.21081943672E+03  0.14809283750E+04  0.15572096677E+04  0.15294330000E+03 0.  0.
<mgrwt>
<rscale>  0 0.48140741E+03</rscale>
<asrwt>0</asrwt>
<pdfrwt beam="1">  1        2 0.25215208E+00 0.48140741E+03</pdfrwt>
<pdfrwt beam="2">  1       -2 0.80197440E-01 0.48140741E+03</pdfrwt>
<totfact> 0.15652126E+01</totfact>
</mgrwt>
</event>
<event>
 4    1  0.1701380E-008  0.1546782E+03  0.7818608E-02  0.1194839E+00
         -2   -1    0    0    0  501 -0.00000000000E+00  0.00000000000E+00  0.50577049482E+03  0.50577049483E+03  0.25500000000E-02 0.  1.
          2   -1    0    0  501    0  0.00000000000E+00 -0.00000000000E+00 -0.94954908073E+02  0.94954908107E+02  0.25500000000E-02 0. -1.
    8880022    1    1    2    0    0 -0.14813678063E+01  0.23054415865E+02 -0.73666215791E+01  0.15485354587E+03  0.15294330000E+03 0. -1.
    8880022    1    1    2    0    0  0.14813678063E+01 -0.23054415865E+02  0.41818220833E+03  0.44587185706E+03  0.15294330000E+03 0.  0.
<mgrwt>
<rscale>  0 0.15467823E+03</rscale>
<asrwt>0</asrwt>
<pdfrwt beam="1">  1        2 0.14608447E-01 0.15467823E+03</pdfrwt>
<pdfrwt beam="2">  1       -2 0.77810845E-01 0.15467823E+03</pdfrwt>
<totfact> 0.60340245E+02</totfact>
</mgrwt>
</event>
<event>
 4    1  0.1701380E-008  0.3956589E+03  0.7818608E-02  0.1045293E+00
          2   -1    0    0  501    0  0.00000000000E+00  0.00000000000E+00  0.30314812811E+03  0.30314812812E+03  0.25500000000E-02 0. -1.
         -2   -1    0    0    0  501 -0.00000000000E+00 -0.00000000000E+00 -0.81353674374E+03  0.81353674374E+03  0.25500000000E-02 0.  1.
    8880022    1    1    2    0    0  0.35542321225E+03  0.82635675887E+02  0.82240258434E+02  0.40411561199E+03  0.15294330000E+03 0.  0.
    8880022    1    1    2    0    0 -0.35542321225E+03 -0.82635675887E+02 -0.59262887406E+03  0.71256925987E+03  0.15294330000E+03 0.  0.
<mgrwt>
<rscale>  0 0.39565890E+03</rscale>
<asrwt>0</asrwt>
<pdfrwt beam="1">  1        2 0.46638174E-01 0.39565890E+03</pdfrwt>
<pdfrwt beam="2">  1       -2 0.12515950E+00 0.39565890E+03</pdfrwt>
<totfact> 0.53842300E+01</totfact>
</mgrwt>
</event>
<event>
 4    1  0.1701380E-008  0.4488749E+03  0.7818608E-02  0.1028058E+00
         -2   -1    0    0    0  501 -0.00000000000E+00  0.00000000000E+00  0.88727805530E+02  0.88727805566E+02  0.25500000000E-02 0.  1.
          2   -1    0    0  501    0  0.00000000000E+00 -0.00000000000E+00 -0.24012107682E+04  0.24012107682E+04  0.25500000000E-02 0. -1.
    8880022    1    1    2    0    0 -0.41755451350E+03  0.61198136965E+02 -0.86617582637E+03  0.97557634192E+03  0.15294330000E+03 0. -1.
    8880022    1    1    2    0    0  0.41755451350E+03 -0.61198136965E+02 -0.14463071363E+04  0.15143622319E+04  0.15294330000E+03 0.  0.
<mgrwt>
<rscale>  0 0.44887486E+03</rscale>
<asrwt>0</asrwt>
<pdfrwt beam="1">  1        2 0.36941699E+00 0.44887486E+03</pdfrwt>
<pdfrwt beam="2">  1       -2 0.13650433E-01 0.44887486E+03</pdfrwt>
<totfact> 0.17548993E+02</totfact>
</mgrwt>
</event>
<event>
 4    1  0.1701380E-008  0.3502411E+03  0.7818608E-02  0.1062516E+00
          2   -1    0    0  501    0  0.00000000000E+00  0.00000000000E+00  0.18929644134E+04  0.18929644134E+04  0.25500000000E-02 0. -1.
         -2   -1    0    0    0  501 -0.00000000000E+00 -0.00000000000E+00 -0.29945237134E+03  0.29945237135E+03  0.25500000000E-02 0.  1.
    8880022    1    1    2    0    0 -0.31437485050E+03  0.21109405560E+02  0.17671306077E+04  0.18015047576E+04  0.15294330000E+03 0.  0.
    8880022    1    1    2    0    0  0.31437485050E+03 -0.21109405560E+02 -0.17361856570E+03  0.39091202718E+03  0.15294330000E+03 0.  1.
<mgrwt>
<rscale>  0 0.35024107E+03</rscale>
<asrwt>0</asrwt>
<pdfrwt beam="1">  1        2 0.29122529E+00 0.35024107E+03</pdfrwt>
<pdfrwt beam="2">  1       -2 0.46069597E-01 0.35024107E+03</pdfrwt>
<totfact> 0.37863980E+01</totfact>
</mgrwt>
</event>
<event>
 4    1  0.1893387E-008  0.1288692E+04  0.7818608E-02  0.9038581E-01
          2   -1    0    0  501    0  0.00000000000E+00  0.00000000000E+00  0.11384305409E+04  0.11384305409E+04  0.25500000000E-02 0. -1.
         -2   -1    0    0    0  501 -0.00000000000E+00 -0.00000000000E+00 -0.24048195378E+04  0.24048195378E+04  0.25500000000E-02 0.  1.
    8880022    1    1    2    0    0 -0.12061846261E+04 -0.42714688536E+03  0.47798352248E+03  0.13744801616E+04  0.15294330000E+03 0.  0.
    8880022    1    1    2    0    0  0.12061846261E+04  0.42714688536E+03 -0.17443725194E+04  0.21687699171E+04  0.15294330000E+03 0.  0.
<mgrwt>
<rscale>  0 0.12886922E+04</rscale>
<asrwt>0</asrwt>
<pdfrwt beam="1">  1        2 0.17514316E+00 0.12886922E+04</pdfrwt>
<pdfrwt beam="2">  1       -2 0.36997223E+00 0.12886922E+04</pdfrwt>
<totfact> 0.23281285E-01</totfact>
</mgrwt>
</event>
<event>
 4    1  0.1701380E-008  0.7382896E+03  0.7818608E-02  0.9653903E-01
          2   -1    0    0  501    0  0.00000000000E+00  0.00000000000E+00  0.20154978852E+04  0.20154978852E+04  0.25500000000E-02 0. -1.
         -2   -1    0    0    0  501 -0.00000000000E+00 -0.00000000000E+00 -0.65738282601E+03  0.65738282601E+03  0.25500000000E-02 0.  1.
    8880022    1    1    2    0    0  0.72184276236E+03 -0.24957260574E+02 -0.34627263931E+03  0.81546074840E+03  0.15294330000E+03 0.  0.
    8880022    1    1    2    0    0 -0.72184276236E+03  0.24957260574E+02  0.17043876986E+04  0.18574199629E+04  0.15294330000E+03 0.  0.
<mgrwt>
<rscale>  0 0.73828957E+03</rscale>
<asrwt>0</asrwt>
<pdfrwt beam="1">  1        2 0.31007660E+00 0.73828957E+03</pdfrwt>
<pdfrwt beam="2">  1       -2 0.10113582E+00 0.73828957E+03</pdfrwt>
<totfact> 0.54688342E+00</totfact>
</mgrwt>
</event>
<event>
 4    1  0.1701380E-008  0.9790151E+03  0.7818608E-02  0.9331865E-01
         -2   -1    0    0    0  501 -0.00000000000E+00  0.00000000000E+00  0.16566416399E+04  0.16566416399E+04  0.25500000000E-02 0.  1.
          2   -1    0    0  501    0  0.00000000000E+00 -0.00000000000E+00 -0.12111318772E+04  0.12111318772E+04  0.25500000000E-02 0. -1.
    8880022    1    1    2    0    0  0.27519039374E+03  0.92701089632E+03  0.12590256406E+04  0.15948718354E+04  0.15294330000E+03 0.  0.
    8880022    1    1    2    0    0 -0.27519039374E+03 -0.92701089632E+03 -0.81351587789E+03  0.12729016817E+04  0.15294330000E+03 0.  0.
<mgrwt>
<rscale>  0 0.97901512E+03</rscale>
<asrwt>0</asrwt>
<pdfrwt beam="1">  1        2 0.18632798E+00 0.97901512E+03</pdfrwt>
<pdfrwt beam="2">  1       -2 0.25486794E+00 0.97901512E+03</pdfrwt>
<totfact> 0.11194168E+00</totfact>
</mgrwt>
</event>
<event>
 4    1  0.1701380E-008  0.1714127E+04  0.7818608E-02  0.8753348E-01
         -2   -1    0    0    0  501 -0.00000000000E+00  0.00000000000E+00  0.18167395584E+04  0.18167395584E+04  0.25500000000E-02 0.  1.
          2   -1    0    0  501    0  0.00000000000E+00 -0.00000000000E+00 -0.19907593684E+04  0.19907593684E+04  0.25500000000E-02 0. -1.
    8880022    1    1    2    0    0  0.16506666484E+04  0.43605068659E+03  0.73753800594E+03  0.18660639187E+04  0.15294330000E+03 0.  0.
    8880022    1    1    2    0    0 -0.16506666484E+04 -0.43605068659E+03 -0.91155781594E+03  0.19414350080E+04  0.15294330000E+03 0.  0.
<mgrwt>
<rscale>  0 0.17141273E+04</rscale>
<asrwt>0</asrwt>
<pdfrwt beam="1">  1        2 0.30627067E+00 0.17141273E+04</pdfrwt>
<pdfrwt beam="2">  1       -2 0.27949839E+00 0.17141273E+04</pdfrwt>
<totfact> 0.26273116E-01</totfact>
</mgrwt>
</event>
<event>
 4    1  0.1701380E-008  0.4131630E+03  0.7818608E-02  0.1039315E+00
          2   -1    0    0  501    0  0.00000000000E+00  0.00000000000E+00  0.15656609073E+04  0.15656609073E+04  0.25500000000E-02 0. -1.
         -2   -1    0    0    0  501 -0.00000000000E+00 -0.00000000000E+00 -0.29315552182E+03  0.29315552184E+03  0.25500000000E-02 0.  1.
    8880022    1    1    2    0    0 -0.11354060206E+03  0.36663404616E+03  0.13728238970E+04  0.14336488752E+04  0.15294330000E+03 0.  0.
    8880022    1    1    2    0    0  0.11354060206E+03 -0.36663404616E+03 -0.10031851157E+03  0.42516755391E+03  0.15294330000E+03 0.  0.
<mgrwt>
<rscale>  0 0.41316298E+03</rscale>
<asrwt>0</asrwt>
<pdfrwt beam="1">  1        2 0.24087091E+00 0.41316298E+03</pdfrwt>
<pdfrwt beam="2">  1       -2 0.45100849E-01 0.41316298E+03</pdfrwt>
<totfact> 0.58227968E+01</totfact>
</mgrwt>
</event>
<event>
 4    1  0.1701380E-008  0.5109352E+03  0.7818608E-02  0.1010963E+00
          2   -1    0    0  501    0  0.00000000000E+00  0.00000000000E+00  0.98250123908E+03  0.98250123908E+03  0.25500000000E-02 0. -1.
         -2   -1    0    0    0  501 -0.00000000000E+00 -0.00000000000E+00 -0.52564250996E+03  0.52564250997E+03  0.25500000000E-02 0.  1.
    8880022    1    1    2    0    0 -0.20487137729E+02  0.48707638864E+03 -0.30184737982E+03  0.59343628546E+03  0.15294330000E+03 0.  0.
    8880022    1    1    2    0    0  0.20487137729E+02 -0.48707638864E+03  0.75870610894E+03  0.91470746359E+03  0.15294330000E+03 0.  0.
<mgrwt>
<rscale>  0 0.51093521E+03</rscale>
<asrwt>0</asrwt>
<pdfrwt beam="1">  1        2 0.15115403E+00 0.51093521E+03</pdfrwt>
<pdfrwt beam="2">  1       -2 0.80868080E-01 0.51093521E+03</pdfrwt>
<totfact> 0.36387532E+01</totfact>
</mgrwt>
</event>
<event>
 4    1  0.1701380E-008  0.5035318E+03  0.7818608E-02  0.1012861E+00
          2   -1    0    0  501    0  0.00000000000E+00  0.00000000000E+00  0.15091594578E+04  0.15091594578E+04  0.25500000000E-02 0. -1.
         -2   -1    0    0    0  501 -0.00000000000E+00 -0.00000000000E+00 -0.84391852307E+03  0.84391852307E+03  0.25500000000E-02 0.  1.
    8880022    1    1    2    0    0 -0.46443384771E+03  0.12022422260E+03  0.13855566799E+04  0.14742155978E+04  0.15294330000E+03 0.  0.
    8880022    1    1    2    0    0  0.46443384771E+03 -0.12022422260E+03 -0.72031574518E+03  0.87886238306E+03  0.15294330000E+03 0.  0.
<mgrwt>
<rscale>  0 0.50353184E+03</rscale>
<asrwt>0</asrwt>
<pdfrwt beam="1">  1        2 0.23217838E+00 0.50353184E+03</pdfrwt>
<pdfrwt beam="2">  1       -2 0.12983362E+00 0.50353184E+03</pdfrwt>
<totfact> 0.58617176E+00</totfact>
</mgrwt>
</event>
<event>
 4    1  0.1701380E-008  0.1006971E+04  0.7818608E-02  0.9300932E-01
         -2   -1    0    0    0  501 -0.00000000000E+00  0.00000000000E+00  0.83195152434E+03  0.83195152434E+03  0.25500000000E-02 0.  1.
          2   -1    0    0  501    0  0.00000000000E+00 -0.00000000000E+00 -0.36102935962E+04  0.36102935962E+04  0.25500000000E-02 0. -1.
    8880022    1    1    2    0    0 -0.92837142482E+03  0.35878291342E+03  0.41856502245E+03  0.10904985156E+04  0.15294330000E+03 0.  0.
    8880022    1    1    2    0    0  0.92837142482E+03 -0.35878291342E+03 -0.31969070943E+04  0.33517466050E+04  0.15294330000E+03 0.  0.
<mgrwt>
<rscale>  0 0.10069709E+04</rscale>
<asrwt>0</asrwt>
<pdfrwt beam="1">  1        2 0.55542978E+00 0.10069709E+04</pdfrwt>
<pdfrwt beam="2">  1       -2 0.12799254E+00 0.10069709E+04</pdfrwt>
<totfact> 0.31692177E-01</totfact>
</mgrwt>
</event>
<event>
 4    1  0.1701380E-008  0.5380593E+03  0.7818608E-02  0.1004296E+00
          2   -1    0    0  501    0  0.00000000000E+00  0.00000000000E+00  0.19957121268E+04  0.19957121268E+04  0.25500000000E-02 0. -1.
         -2   -1    0    0    0  501 -0.00000000000E+00 -0.00000000000E+00 -0.28574939271E+03  0.28574939272E+03  0.25500000000E-02 0.  1.
    8880022    1    1    2    0    0  0.20032800355E+03 -0.47537859808E+03  0.54569324906E+02  0.54081936426E+03  0.15294330000E+03 0.  0.
    8880022    1    1    2    0    0 -0.20032800355E+03  0.47537859808E+03  0.16553934092E+04  0.17406421553E+04  0.15294330000E+03 0.  0.
<mgrwt>
<rscale>  0 0.53805927E+03</rscale>
<asrwt>0</asrwt>
<pdfrwt beam="1">  1        2 0.30703263E+00 0.53805927E+03</pdfrwt>
<pdfrwt beam="2">  1       -2 0.43961445E-01 0.53805927E+03</pdfrwt>
<totfact> 0.35121449E+01</totfact>
</mgrwt>
</event>
<event>
 4    1  0.1701380E-008  0.2465057E+03  0.7818608E-02  0.1115533E+00
          2   -1    0    0  501    0  0.00000000000E+00  0.00000000000E+00  0.29967734578E+03  0.29967734580E+03  0.25500000000E-02 0. -1.
         -2   -1    0    0    0  501 -0.00000000000E+00 -0.00000000000E+00 -0.13558029111E+04  0.13558029111E+04  0.25500000000E-02 0.  1.
    8880022    1    1    2    0    0  0.61552376169E+02  0.18326138087E+03  0.23527523210E+03  0.34076313854E+03  0.15294330000E+03 0.  0.
    8880022    1    1    2    0    0 -0.61552376169E+02 -0.18326138087E+03 -0.12914007974E+04  0.13147171183E+04  0.15294330000E+03 0.  0.
<mgrwt>
<rscale>  0 0.24650574E+03</rscale>
<asrwt>0</asrwt>
<pdfrwt beam="1">  1        2 0.46104208E-01 0.24650574E+03</pdfrwt>
<pdfrwt beam="2">  1       -2 0.20858506E+00 0.24650574E+03</pdfrwt>
<totfact> 0.14158825E+01</totfact>
</mgrwt>
</event>
<event>
 4    1  0.1701380E-008  0.1691632E+04  0.7818608E-02  0.8766151E-01
         -2   -1    0    0    0  501 -0.00000000000E+00  0.00000000000E+00  0.14396900764E+04  0.14396900764E+04  0.25500000000E-02 0.  1.
          2   -1    0    0  501    0  0.00000000000E+00 -0.00000000000E+00 -0.23181568435E+04  0.23181568435E+04  0.25500000000E-02 0. -1.
    8880022    1    1    2    0    0  0.71484586896E+03  0.15255240938E+04 -0.11486784272E+04  0.20447694636E+04  0.15294330000E+03 0.  0.
    8880022    1    1    2    0    0 -0.71484586896E+03 -0.15255240938E+04  0.27021166013E+03  0.17130774563E+04  0.15294330000E+03 0.  0.
<mgrwt>
<rscale>  0 0.16916324E+04</rscale>
<asrwt>0</asrwt>
<pdfrwt beam="1">  1        2 0.35663951E+00 0.16916324E+04</pdfrwt>
<pdfrwt beam="2">  1       -2 0.22149078E+00 0.16916324E+04</pdfrwt>
<totfact> 0.39368494E-01</totfact>
</mgrwt>
</event>
<event>
 4    1  0.1701380E-008  0.7388759E+03  0.7818608E-02  0.9652966E-01
          2   -1    0    0  501    0  0.00000000000E+00  0.00000000000E+00  0.17268547842E+04  0.17268547842E+04  0.25500000000E-02 0. -1.
         -2   -1    0    0    0  501 -0.00000000000E+00 -0.00000000000E+00 -0.12626606745E+04  0.12626606745E+04  0.25500000000E-02 0.  1.
    8880022    1    1    2    0    0  0.41160655323E+03 -0.59424410157E+03  0.15262667691E+04  0.16957086749E+04  0.15294330000E+03 0.  0.
    8880022    1    1    2    0    0 -0.41160655323E+03  0.59424410157E+03 -0.10620726594E+04  0.12938067838E+04  0.15294330000E+03 0.  0.
<mgrwt>
<rscale>  0 0.73887594E+03</rscale>
<asrwt>0</asrwt>
<pdfrwt beam="1">  1        2 0.26566997E+00 0.73887594E+03</pdfrwt>
<pdfrwt beam="2">  1       -2 0.19425549E+00 0.73887594E+03</pdfrwt>
<totfact> 0.14284078E+00</totfact>
</mgrwt>
</event>
<event>
 4    1  0.1701380E-008  0.1817806E+04  0.7818608E-02  0.8696888E-01
          2   -1    0    0  501    0  0.00000000000E+00  0.00000000000E+00  0.14302670787E+04  0.14302670787E+04  0.25500000000E-02 0. -1.
         -2   -1    0    0    0  501 -0.00000000000E+00 -0.00000000000E+00 -0.24185458102E+04  0.24185458102E+04  0.25500000000E-02 0.  1.
    8880022    1    1    2    0    0 -0.31608891633E+02  0.18110843113E+04 -0.90116841851E+03  0.20289213085E+04  0.15294330000E+03 0.  0.
    8880022    1    1    2    0    0  0.31608891633E+02 -0.18110843113E+04 -0.87110313074E+02  0.18198915804E+04  0.15294330000E+03 0.  0.
<mgrwt>
<rscale>  0 0.18178056E+04</rscale>
<asrwt>0</asrwt>
<pdfrwt beam="1">  1        2 0.22004109E+00 0.18178056E+04</pdfrwt>
<pdfrwt beam="2">  1       -2 0.37208397E+00 0.18178056E+04</pdfrwt>
<totfact> 0.14273842E-01</totfact>
</mgrwt>
</event>
<event>
 4    1  0.1701380E-008  0.1226223E+04  0.7818608E-02  0.9090208E-01
         -2   -1    0    0    0  501 -0.00000000000E+00  0.00000000000E+00  0.13357149761E+04  0.13357149761E+04  0.25500000000E-02 0.  1.
          2   -1    0    0  501    0  0.00000000000E+00 -0.00000000000E+00 -0.35728034354E+04  0.35728034354E+04  0.25500000000E-02 0. -1.
    8880022    1    1    2    0    0  0.44187136401E+03 -0.11335701782E+04 -0.31496916025E+04  0.33799675287E+04  0.15294330000E+03 0.  0.
    8880022    1    1    2    0    0 -0.44187136401E+03  0.11335701782E+04  0.91260314323E+03  0.15285508828E+04  0.15294330000E+03 0.  0.
<mgrwt>
<rscale>  0 0.12262232E+04</rscale>
<asrwt>0</asrwt>
<pdfrwt beam="1">  1        2 0.54966206E+00 0.12262232E+04</pdfrwt>
<pdfrwt beam="2">  1       -2 0.20549461E+00 0.12262232E+04</pdfrwt>
<totfact> 0.87523095E-02</totfact>
</mgrwt>
</event>
<event>
 4    1  0.1701380E-008  0.1114996E+04  0.7818608E-02  0.9190698E-01
         -2   -1    0    0    0  501 -0.00000000000E+00  0.00000000000E+00  0.12126409910E+04  0.12126409910E+04  0.25500000000E-02 0.  1.
          2   -1    0    0  501    0  0.00000000000E+00 -0.00000000000E+00 -0.16503916159E+04  0.16503916159E+04  0.25500000000E-02 0. -1.
    8880022    1    1    2    0    0 -0.11032362288E+04 -0.51908977056E+02 -0.10999334099E+04  0.15662279137E+04  0.15294330000E+03 0.  0.
    8880022    1    1    2    0    0  0.11032362288E+04  0.51908977056E+02  0.66218278498E+03  0.12968046932E+04  0.15294330000E+03 0.  0.
<mgrwt>
<rscale>  0 0.11149961E+04</rscale>
<asrwt>0</asrwt>
<pdfrwt beam="1">  1        2 0.25390640E+00 0.11149961E+04</pdfrwt>
<pdfrwt beam="2">  1       -2 0.18656015E+00 0.11149961E+04</pdfrwt>
<totfact> 0.16744194E+00</totfact>
</mgrwt>
</event>
<event>
 4    1  0.1701380E-008  0.6582166E+03  0.7818608E-02  0.9791482E-01
          2   -1    0    0  501    0  0.00000000000E+00  0.00000000000E+00  0.18378944392E+04  0.18378944392E+04  0.25500000000E-02 0. -1.
         -2   -1    0    0    0  501 -0.00000000000E+00 -0.00000000000E+00 -0.72416183417E+03  0.72416183417E+03  0.25500000000E-02 0.  1.
    8880022    1    1    2    0    0 -0.44922163720E+03  0.45613308344E+03 -0.49519800141E+03  0.82369301487E+03  0.15294330000E+03 0.  0.
    8880022    1    1    2    0    0  0.44922163720E+03 -0.45613308344E+03  0.16089306065E+04  0.17383632585E+04  0.15294330000E+03 0.  0.
<mgrwt>
<rscale>  0 0.65821662E+03</rscale>
<asrwt>0</asrwt>
<pdfrwt beam="1">  1        2 0.28275299E+00 0.65821662E+03</pdfrwt>
<pdfrwt beam="2">  1       -2 0.11140951E+00 0.65821662E+03</pdfrwt>
<totfact> 0.54907716E+00</totfact>
</mgrwt>
</event>
<event>
 4    1  0.1701380E-008  0.3486145E+03  0.7818608E-02  0.1063185E+00
          2   -1    0    0  501    0  0.00000000000E+00  0.00000000000E+00  0.39490836111E+03  0.39490836112E+03  0.25500000000E-02 0. -1.
         -2   -1    0    0    0  501 -0.00000000000E+00 -0.00000000000E+00 -0.11443665437E+04  0.11443665437E+04  0.25500000000E-02 0.  1.
    8880022    1    1    2    0    0  0.86634785131E+02 -0.30105623943E+03 -0.10327920800E+04  0.10900420078E+04  0.15294330000E+03 0.  1.
    8880022    1    1    2    0    0 -0.86634785131E+02  0.30105623943E+03  0.28333389742E+03  0.44923289699E+03  0.15294330000E+03 0.  0.
<mgrwt>
<rscale>  0 0.34861454E+03</rscale>
<asrwt>0</asrwt>
<pdfrwt beam="1">  1        2 0.60755133E-01 0.34861454E+03</pdfrwt>
<pdfrwt beam="2">  1       -2 0.17605639E+00 0.34861454E+03</pdfrwt>
<totfact> 0.16656181E+01</totfact>
</mgrwt>
</event>
<event>
 4    1  0.1701380E-008  0.4697719E+03  0.7818608E-02  0.1021985E+00
          2   -1    0    0  501    0  0.00000000000E+00  0.00000000000E+00  0.34879387615E+03  0.34879387616E+03  0.25500000000E-02 0. -1.
         -2   -1    0    0    0  501 -0.00000000000E+00 -0.00000000000E+00 -0.81002607621E+03  0.81002607621E+03  0.25500000000E-02 0.  1.
    8880022    1    1    2    0    0  0.41108394802E+03 -0.16823791524E+03  0.40471413001E+02  0.47151203243E+03  0.15294330000E+03 0.  0.
    8880022    1    1    2    0    0 -0.41108394802E+03  0.16823791524E+03 -0.50170361306E+03  0.68730791994E+03  0.15294330000E+03 0.  0.
<mgrwt>
<rscale>  0 0.46977192E+03</rscale>
<asrwt>0</asrwt>
<pdfrwt beam="1">  1        2 0.53660597E-01 0.46977192E+03</pdfrwt>
<pdfrwt beam="2">  1       -2 0.12461940E+00 0.46977192E+03</pdfrwt>
<totfact> 0.46309137E+01</totfact>
</mgrwt>
</event>
<event>
 4    1  0.1701380E-008  0.1333082E+04  0.7818608E-02  0.9003734E-01
          2   -1    0    0  501    0  0.00000000000E+00  0.00000000000E+00  0.51648373245E+04  0.51648373245E+04  0.25500000000E-02 0. -1.
         -2   -1    0    0    0  501 -0.00000000000E+00 -0.00000000000E+00 -0.67699415572E+03  0.67699415572E+03  0.25500000000E-02 0.  1.
    8880022    1    1    2    0    0  0.13237939330E+04 -0.35865531503E+02  0.42922227832E+04  0.44944726929E+04  0.15294330000E+03 0.  0.
    8880022    1    1    2    0    0 -0.13237939330E+04  0.35865531503E+02  0.19562038550E+03  0.13473587873E+04  0.15294330000E+03 0.  0.
<mgrwt>
<rscale>  0 0.13330823E+04</rscale>
<asrwt>0</asrwt>
<pdfrwt beam="1">  1        2 0.79459032E+00 0.13330823E+04</pdfrwt>
<pdfrwt beam="2">  1       -2 0.10415295E+00 0.13330823E+04</pdfrwt>
<totfact> 0.16001916E-02</totfact>
</mgrwt>
</event>
<event>
 4    1  0.1701380E-008  0.2305872E+04  0.7818608E-02  0.8475609E-01
         -2   -1    0    0    0  501 -0.00000000000E+00  0.00000000000E+00  0.14724499860E+04  0.14724499860E+04  0.25500000000E-02 0.  1.
          2   -1    0    0  501    0  0.00000000000E+00 -0.00000000000E+00 -0.36584297347E+04  0.36584297347E+04  0.25500000000E-02 0. -1.
    8880022    1    1    2    0    0  0.19635652380E+04  0.11991941610E+04 -0.13850330394E+04  0.26898630546E+04  0.15294330000E+03 0.  0.
    8880022    1    1    2    0    0 -0.19635652380E+04 -0.11991941610E+04 -0.80094670927E+03  0.24410166660E+04  0.15294330000E+03 0.  0.
<mgrwt>
<rscale>  0 0.23058722E+04</rscale>
<asrwt>0</asrwt>
<pdfrwt beam="1">  1        2 0.56283534E+00 0.23058722E+04</pdfrwt>
<pdfrwt beam="2">  1       -2 0.22653077E+00 0.23058722E+04</pdfrwt>
<totfact> 0.48655365E-02</totfact>
</mgrwt>
</event>
<event>
 4    1  0.1701380E-008  0.1502730E+04  0.7818608E-02  0.8882640E-01
          2   -1    0    0  501    0  0.00000000000E+00  0.00000000000E+00  0.14650283029E+04  0.14650283029E+04  0.25500000000E-02 0. -1.
         -2   -1    0    0    0  501 -0.00000000000E+00 -0.00000000000E+00 -0.21677760049E+04  0.21677760050E+04  0.25500000000E-02 0.  1.
    8880022    1    1    2    0    0  0.35344444869E+03 -0.14525434110E+04 -0.13277604325E+04  0.20052792220E+04  0.15294330000E+03 0.  0.
    8880022    1    1    2    0    0 -0.35344444869E+03  0.14525434110E+04  0.62501273039E+03  0.16275250859E+04  0.15294330000E+03 0.  0.
<mgrwt>
<rscale>  0 0.15027298E+04</rscale>
<asrwt>0</asrwt>
<pdfrwt beam="1">  1        2 0.22538897E+00 0.15027298E+04</pdfrwt>
<pdfrwt beam="2">  1       -2 0.33350400E+00 0.15027298E+04</pdfrwt>
<totfact> 0.24703371E-01</totfact>
</mgrwt>
</event>
<event>
 4    1  0.1701380E-008  0.3504036E+03  0.7818608E-02  0.1062450E+00
         -2   -1    0    0    0  501 -0.00000000000E+00  0.00000000000E+00  0.58703899049E+03  0.58703899050E+03  0.25500000000E-02 0.  1.
          2   -1    0    0  501    0  0.00000000000E+00 -0.00000000000E+00 -0.24950113165E+04  0.24950113165E+04  0.25500000000E-02 0. -1.
    8880022    1    1    2    0    0 -0.30207189935E+03 -0.90241785475E+02  0.52103362573E+03  0.62790023441E+03  0.15294330000E+03 0.  0.
    8880022    1    1    2    0    0  0.30207189935E+03  0.90241785475E+02 -0.24290059518E+04  0.24541500726E+04  0.15294330000E+03 0.  0.
<mgrwt>
<rscale>  0 0.35040357E+03</rscale>
<asrwt>0</asrwt>
<pdfrwt beam="1">  1        2 0.38384789E+00 0.35040357E+03</pdfrwt>
<pdfrwt beam="2">  1       -2 0.90313692E-01 0.35040357E+03</pdfrwt>
<totfact> 0.42962253E+00</totfact>
</mgrwt>
</event>
<event>
 4    1  0.1701380E-008  0.9160864E+03  0.7818608E-02  0.9405693E-01
         -2   -1    0    0    0  501 -0.00000000000E+00  0.00000000000E+00  0.51946477730E+03  0.51946477731E+03  0.25500000000E-02 0.  1.
          2   -1    0    0  501    0  0.00000000000E+00 -0.00000000000E+00 -0.27153796910E+04  0.27153796910E+04  0.25500000000E-02 0. -1.
    8880022    1    1    2    0    0  0.70273108865E+03 -0.56744301724E+03 -0.21273322929E+04  0.23161944862E+04  0.15294330000E+03 0.  0.
    8880022    1    1    2    0    0 -0.70273108865E+03  0.56744301724E+03 -0.68582620885E+02  0.91864998213E+03  0.15294330000E+03 0.  0.
<mgrwt>
<rscale>  0 0.91608636E+03</rscale>
<asrwt>0</asrwt>
<pdfrwt beam="1">  1        2 0.41775071E+00 0.91608636E+03</pdfrwt>
<pdfrwt beam="2">  1       -2 0.79917659E-01 0.91608636E+03</pdfrwt>
<totfact> 0.37005731E+00</totfact>
</mgrwt>
</event>
<event>
 4    1  0.1701380E-008  0.6446561E+03  0.7818608E-02  0.9816859E-01
          2   -1    0    0  501    0  0.00000000000E+00  0.00000000000E+00  0.22328014622E+04  0.22328014622E+04  0.25500000000E-02 0. -1.
         -2   -1    0    0    0  501 -0.00000000000E+00 -0.00000000000E+00 -0.24970640316E+03  0.24970640317E+03  0.25500000000E-02 0.  1.
    8880022    1    1    2    0    0 -0.62393849169E+03  0.53764231871E+02  0.36520941481E+03  0.74091794668E+03  0.15294330000E+03 0.  0.
    8880022    1    1    2    0    0  0.62393849169E+03 -0.53764231871E+02  0.16178856442E+04  0.17415899186E+04  0.15294330000E+03 0.  0.
<mgrwt>
<rscale>  0 0.64465610E+03</rscale>
<asrwt>0</asrwt>
<pdfrwt beam="1">  1        2 0.34350791E+00 0.64465610E+03</pdfrwt>
<pdfrwt beam="2">  1       -2 0.38416370E-01 0.64465610E+03</pdfrwt>
<totfact> 0.33348205E+01</totfact>
</mgrwt>
</event>
<event>
 4    1  0.1701380E-008  0.2638645E+03  0.7818608E-02  0.1104843E+00
         -2   -1    0    0    0  501 -0.00000000000E+00  0.00000000000E+00  0.42581839434E+03  0.42581839435E+03  0.25500000000E-02 0.  1.
          2   -1    0    0  501    0  0.00000000000E+00 -0.00000000000E+00 -0.34827385006E+04  0.34827385006E+04  0.25500000000E-02 0. -1.
    8880022    1    1    2    0    0  0.87238922784E+02  0.19652533805E+03 -0.34363123515E+04  0.34464281609E+04  0.15294330000E+03 0.  0.
    8880022    1    1    2    0    0 -0.87238922784E+02 -0.19652533805E+03  0.37939224520E+03  0.46212873410E+03  0.15294330000E+03 0.  1.
<mgrwt>
<rscale>  0 0.26386453E+03</rscale>
<asrwt>0</asrwt>
<pdfrwt beam="1">  1        2 0.53580591E+00 0.26386453E+03</pdfrwt>
<pdfrwt beam="2">  1       -2 0.65510524E-01 0.26386453E+03</pdfrwt>
<totfact> 0.23404746E+00</totfact>
</mgrwt>
</event>
<event>
 4    1  0.1701380E-008  0.2226907E+03  0.7818608E-02  0.1131893E+00
         -2   -1    0    0    0  501 -0.00000000000E+00  0.00000000000E+00  0.20549967418E+03  0.20549967420E+03  0.25500000000E-02 0.  1.
          2   -1    0    0  501    0  0.00000000000E+00 -0.00000000000E+00 -0.23090898197E+04  0.23090898197E+04  0.25500000000E-02 0. -1.
    8880022    1    1    2    0    0 -0.71031202200E+02 -0.14544436960E+03 -0.22415781850E+04  0.22526126850E+04  0.15294330000E+03 0. -1.
    8880022    1    1    2    0    0  0.71031202200E+02  0.14544436960E+03  0.13798803947E+03  0.26197680887E+03  0.15294330000E+03 0.  0.
<mgrwt>
<rscale>  0 0.22269070E+03</rscale>
<asrwt>0</asrwt>
<pdfrwt beam="1">  1        2 0.35524457E+00 0.22269070E+03</pdfrwt>
<pdfrwt beam="2">  1       -2 0.31615336E-01 0.22269070E+03</pdfrwt>
<totfact> 0.48775698E+01</totfact>
</mgrwt>
</event>
<event>
 4    1  0.1701380E-008  0.1114600E+04  0.7818608E-02  0.9191078E-01
         -2   -1    0    0    0  501 -0.00000000000E+00  0.00000000000E+00  0.94981177486E+03  0.94981177486E+03  0.25500000000E-02 0.  1.
          2   -1    0    0  501    0  0.00000000000E+00 -0.00000000000E+00 -0.23705615932E+04  0.23705615932E+04  0.25500000000E-02 0. -1.
    8880022    1    1    2    0    0 -0.74089479705E+03  0.81854471248E+03 -0.18218839745E+04  0.21357887106E+04  0.15294330000E+03 0.  0.
    8880022    1    1    2    0    0  0.74089479705E+03 -0.81854471248E+03  0.40113415613E+03  0.11845846575E+04  0.15294330000E+03 0.  0.
<mgrwt>
<rscale>  0 0.11145996E+04</rscale>
<asrwt>0</asrwt>
<pdfrwt beam="1">  1        2 0.36470178E+00 0.11145996E+04</pdfrwt>
<pdfrwt beam="2">  1       -2 0.14612489E+00 0.11145996E+04</pdfrwt>
<totfact> 0.13102959E+00</totfact>
</mgrwt>
</event>
<event>
 4    1  0.1701380E-008  0.6039153E+03  0.7818608E-02  0.9897316E-01
          2   -1    0    0  501    0  0.00000000000E+00  0.00000000000E+00  0.10777087392E+04  0.10777087392E+04  0.25500000000E-02 0. -1.
         -2   -1    0    0    0  501 -0.00000000000E+00 -0.00000000000E+00 -0.55752714283E+03  0.55752714284E+03  0.25500000000E-02 0.  1.
    8880022    1    1    2    0    0 -0.33847086455E+03  0.47619276432E+03 -0.25247518122E+03  0.65456660859E+03  0.15294330000E+03 0.  0.
    8880022    1    1    2    0    0  0.33847086455E+03 -0.47619276432E+03  0.77265677757E+03  0.98066927345E+03  0.15294330000E+03 0.  0.
<mgrwt>
<rscale>  0 0.60391533E+03</rscale>
<asrwt>0</asrwt>
<pdfrwt beam="1">  1        2 0.16580134E+00 0.60391533E+03</pdfrwt>
<pdfrwt beam="2">  1       -2 0.85773407E-01 0.60391533E+03</pdfrwt>
<totfact> 0.27451260E+01</totfact>
</mgrwt>
</event>
<event>
 4    1  0.1701380E-008  0.7105081E+03  0.7818608E-02  0.9699429E-01
          2   -1    0    0  501    0  0.00000000000E+00  0.00000000000E+00  0.20636427022E+04  0.20636427022E+04  0.25500000000E-02 0. -1.
         -2   -1    0    0    0  501 -0.00000000000E+00 -0.00000000000E+00 -0.67681344331E+03  0.67681344331E+03  0.25500000000E-02 0.  1.
    8880022    1    1    2    0    0  0.63244718845E+03 -0.28537814534E+03  0.17883643351E+04  0.19243359322E+04  0.15294330000E+03 0.  0.
    8880022    1    1    2    0    0 -0.63244718845E+03  0.28537814534E+03 -0.40153507624E+03  0.81612021325E+03  0.15294330000E+03 0.  0.
<mgrwt>
<rscale>  0 0.71050812E+03</rscale>
<asrwt>0</asrwt>
<pdfrwt beam="1">  1        2 0.31748348E+00 0.71050812E+03</pdfrwt>
<pdfrwt beam="2">  1       -2 0.10412515E+00 0.71050812E+03</pdfrwt>
<totfact> 0.48247879E+00</totfact>
</mgrwt>
</event>
<event>
 4    1  0.1701380E-008  0.1587934E+04  0.7818608E-02  0.8827995E-01
         -2   -1    0    0    0  501 -0.00000000000E+00  0.00000000000E+00  0.12076198114E+04  0.12076198114E+04  0.25500000000E-02 0.  1.
          2   -1    0    0  501    0  0.00000000000E+00 -0.00000000000E+00 -0.34314185538E+04  0.34314185538E+04  0.25500000000E-02 0. -1.
    8880022    1    1    2    0    0  0.39656924984E+03 -0.15299924452E+04 -0.25632200175E+04  0.30152334178E+04  0.15294330000E+03 0.  0.
    8880022    1    1    2    0    0 -0.39656924984E+03  0.15299924452E+04  0.33942127512E+03  0.16238049475E+04  0.15294330000E+03 0.  0.
<mgrwt>
<rscale>  0 0.15879344E+04</rscale>
<asrwt>0</asrwt>
<pdfrwt beam="1">  1        2 0.52791055E+00 0.15879344E+04</pdfrwt>
<pdfrwt beam="2">  1       -2 0.18578766E+00 0.15879344E+04</pdfrwt>
<totfact> 0.14076417E-01</totfact>
</mgrwt>
</event>
<event>
 4    1  0.4951010E-008  0.1037596E+04  0.7818608E-02  0.9268245E-01
          2   -1    0    0  501    0  0.00000000000E+00  0.00000000000E+00  0.32501722606E+04  0.32501722606E+04  0.25500000000E-02 0. -1.
         -2   -1    0    0    0  501 -0.00000000000E+00 -0.00000000000E+00 -0.19426209244E+04  0.19426209244E+04  0.25500000000E-02 0.  1.
    8880022    1    1    2    0    0  0.64079439296E+03  0.80162126121E+03  0.30184717584E+04  0.31918298059E+04  0.15294330000E+03 0.  0.
    8880022    1    1    2    0    0 -0.64079439296E+03 -0.80162126121E+03 -0.17109204222E+04  0.20009633791E+04  0.15294330000E+03 0.  0.
<mgrwt>
<rscale>  0 0.10375961E+04</rscale>
<asrwt>0</asrwt>
<pdfrwt beam="1">  1        2 0.50002650E+00 0.10375961E+04</pdfrwt>
<pdfrwt beam="2">  1       -2 0.29886476E+00 0.10375961E+04</pdfrwt>
<totfact> 0.39871327E-02</totfact>
</mgrwt>
</event>
<event>
 4    1  0.1701380E-008  0.1229316E+04  0.7818608E-02  0.9087576E-01
          2   -1    0    0  501    0  0.00000000000E+00  0.00000000000E+00  0.23748432657E+04  0.23748432657E+04  0.25500000000E-02 0. -1.
         -2   -1    0    0    0  501 -0.00000000000E+00 -0.00000000000E+00 -0.70878665455E+03  0.70878665455E+03  0.25500000000E-02 0.  1.
    8880022    1    1    2    0    0  0.83771635321E+03  0.88659929259E+03  0.13259409063E+04  0.18081310611E+04  0.15294330000E+03 0.  0.
    8880022    1    1    2    0    0 -0.83771635321E+03 -0.88659929259E+03  0.34011570486E+03  0.12754988592E+04  0.15294330000E+03 0.  0.
<mgrwt>
<rscale>  0 0.12293163E+04</rscale>
<asrwt>0</asrwt>
<pdfrwt beam="1">  1        2 0.36536050E+00 0.12293163E+04</pdfrwt>
<pdfrwt beam="2">  1       -2 0.10904410E+00 0.12293163E+04</pdfrwt>
<totfact> 0.26957674E+00</totfact>
</mgrwt>
</event>
<event>
 4    1  0.1701380E-008  0.1924108E+04  0.7818608E-02  0.8642948E-01
         -2   -1    0    0    0  501 -0.00000000000E+00  0.00000000000E+00  0.15893279658E+04  0.15893279658E+04  0.25500000000E-02 0.  1.
          2   -1    0    0  501    0  0.00000000000E+00 -0.00000000000E+00 -0.33899774907E+04  0.33899774907E+04  0.25500000000E-02 0. -1.
    8880022    1    1    2    0    0  0.45417900540E+03 -0.18634706529E+04 -0.22928720584E+04  0.29932349344E+04  0.15294330000E+03 0.  0.
    8880022    1    1    2    0    0 -0.45417900540E+03  0.18634706529E+04  0.49222253361E+03  0.19860705221E+04  0.15294330000E+03 0.  0.
<mgrwt>
<rscale>  0 0.19241084E+04</rscale>
<asrwt>0</asrwt>
<pdfrwt beam="1">  1        2 0.52153500E+00 0.19241084E+04</pdfrwt>
<pdfrwt beam="2">  1       -2 0.24451200E+00 0.19241084E+04</pdfrwt>
<totfact> 0.60274603E-02</totfact>
</mgrwt>
</event>
<event>
 4    1  0.1701380E-008  0.1415043E+04  0.7818608E-02  0.8943001E-01
         -2   -1    0    0    0  501 -0.00000000000E+00  0.00000000000E+00  0.18062135323E+04  0.18062135323E+04  0.25500000000E-02 0.  1.
          2   -1    0    0  501    0  0.00000000000E+00 -0.00000000000E+00 -0.16391146284E+04  0.16391146284E+04  0.25500000000E-02 0. -1.
    8880022    1    1    2    0    0  0.12312690787E+04  0.68038990081E+03 -0.89650400022E+03  0.16751313491E+04  0.15294330000E+03 0.  0.
    8880022    1    1    2    0    0 -0.12312690787E+04 -0.68038990081E+03  0.10636029041E+04  0.17701968116E+04  0.15294330000E+03 0.  0.
<mgrwt>
<rscale>  0 0.14150426E+04</rscale>
<asrwt>0</asrwt>
<pdfrwt beam="1">  1        2 0.25217148E+00 0.14150426E+04</pdfrwt>
<pdfrwt beam="2">  1       -2 0.27787901E+00 0.14150426E+04</pdfrwt>
<totfact> 0.43624461E-01</totfact>
</mgrwt>
</event>
<event>
 4    1  0.1701380E-008  0.1122014E+04  0.7818608E-02  0.9183998E-01
         -2   -1    0    0    0  501 -0.00000000000E+00  0.00000000000E+00  0.18743215319E+04  0.18743215319E+04  0.25500000000E-02 0.  1.
          2   -1    0    0  501    0  0.00000000000E+00 -0.00000000000E+00 -0.21687275954E+04  0.21687275954E+04  0.25500000000E-02 0. -1.
    8880022    1    1    2    0    0 -0.71142551734E+03  0.85404721161E+03 -0.18267672918E+04  0.21438267882E+04  0.15294330000E+03 0.  0.
    8880022    1    1    2    0    0  0.71142551734E+03 -0.85404721161E+03  0.15323612283E+04  0.18992223391E+04  0.15294330000E+03 0.  0.
<mgrwt>
<rscale>  0 0.11220136E+04</rscale>
<asrwt>0</asrwt>
<pdfrwt beam="1">  1        2 0.33365040E+00 0.11220136E+04</pdfrwt>
<pdfrwt beam="2">  1       -2 0.28835716E+00 0.11220136E+04</pdfrwt>
<totfact> 0.19921915E-01</totfact>
</mgrwt>
</event>
<event>
 4    1  0.1701380E-008  0.9674142E+03  0.7818608E-02  0.9345025E-01
         -2   -1    0    0    0  501 -0.00000000000E+00  0.00000000000E+00  0.66855339655E+03  0.66855339656E+03  0.25500000000E-02 0.  1.
          2   -1    0    0  501    0  0.00000000000E+00 -0.00000000000E+00 -0.51391884565E+04  0.51391884565E+04  0.25500000000E-02 0. -1.
    8880022    1    1    2    0    0 -0.65706166750E+03  0.69337468860E+03  0.24168279293E+03  0.99714628772E+03  0.15294330000E+03 0.  0.
    8880022    1    1    2    0    0  0.65706166750E+03 -0.69337468860E+03 -0.47123178529E+04  0.48105955654E+04  0.15294330000E+03 0.  0.
<mgrwt>
<rscale>  0 0.96741415E+03</rscale>
<asrwt>0</asrwt>
<pdfrwt beam="1">  1        2 0.79064435E+00 0.96741415E+03</pdfrwt>
<pdfrwt beam="2">  1       -2 0.10285437E+00 0.96741415E+03</pdfrwt>
<totfact> 0.19455029E-02</totfact>
</mgrwt>
</event>
<event>
 4    1  0.1701380E-008  0.1156379E+04  0.7818608E-02  0.9151919E-01
          2   -1    0    0  501    0  0.00000000000E+00  0.00000000000E+00  0.28374083923E+04  0.28374083923E+04  0.25500000000E-02 0. -1.
         -2   -1    0    0    0  501 -0.00000000000E+00 -0.00000000000E+00 -0.62119995053E+03  0.62119995054E+03  0.25500000000E-02 0.  1.
    8880022    1    1    2    0    0 -0.11326365708E+04  0.17593861206E+03  0.19576494582E+04  0.22736761095E+04  0.15294330000E+03 0.  0.
    8880022    1    1    2    0    0  0.11326365708E+04 -0.17593861206E+03  0.25855898355E+03  0.11849322333E+04  0.15294330000E+03 0.  0.
<mgrwt>
<rscale>  0 0.11563787E+04</rscale>
<asrwt>0</asrwt>
<pdfrwt beam="1">  1        2 0.43652438E+00 0.11563787E+04</pdfrwt>
<pdfrwt beam="2">  1       -2 0.95569221E-01 0.11563787E+04</pdfrwt>
<totfact> 0.20049674E+00</totfact>
</mgrwt>
</event>
<event>
 4    1  0.1701380E-008  0.2132870E+03  0.7818608E-02  0.1138989E+00
         -2   -1    0    0    0  501 -0.00000000000E+00  0.00000000000E+00  0.21298806513E+03  0.21298806515E+03  0.25500000000E-02 0.  1.
          2   -1    0    0  501    0  0.00000000000E+00 -0.00000000000E+00 -0.18533142495E+04  0.18533142495E+04  0.25500000000E-02 0. -1.
    8880022    1    1    2    0    0  0.53480002902E+02  0.13870678339E+03 -0.17919593717E+04  0.18046079146E+04  0.15294330000E+03 0. -1.
    8880022    1    1    2    0    0 -0.53480002902E+02 -0.13870678339E+03  0.15163318740E+03  0.26169440003E+03  0.15294330000E+03 0.  0.
<mgrwt>
<rscale>  0 0.21328698E+03</rscale>
<asrwt>0</asrwt>
<pdfrwt beam="1">  1        2 0.28512526E+00 0.21328698E+03</pdfrwt>
<pdfrwt beam="2">  1       -2 0.32767396E-01 0.21328698E+03</pdfrwt>
<totfact> 0.79538993E+01</totfact>
</mgrwt>
</event>
<event>
 4    1  0.1701380E-008  0.9043494E+03  0.7818608E-02  0.9420161E-01
         -2   -1    0    0    0  501 -0.00000000000E+00  0.00000000000E+00  0.46635652917E+03  0.46635652918E+03  0.25500000000E-02 0.  1.
          2   -1    0    0  501    0  0.00000000000E+00 -0.00000000000E+00 -0.22031717590E+04  0.22031717591E+04  0.25500000000E-02 0. -1.
    8880022    1    1    2    0    0  0.89017707157E+03 -0.45178038392E+02 -0.14712907446E+04  0.17270044534E+04  0.15294330000E+03 0.  0.
    8880022    1    1    2    0    0 -0.89017707157E+03  0.45178038392E+02 -0.26552448526E+03  0.94252383481E+03  0.15294330000E+03 0.  0.
<mgrwt>
<rscale>  0 0.90434945E+03</rscale>
<asrwt>0</asrwt>
<pdfrwt beam="1">  1        2 0.33894949E+00 0.90434945E+03</pdfrwt>
<pdfrwt beam="2">  1       -2 0.71747160E-01 0.90434945E+03</pdfrwt>
<totfact> 0.92174334E+00</totfact>
</mgrwt>
</event>
<event>
 4    1  0.1701380E-008  0.7537858E+03  0.7818608E-02  0.9629430E-01
         -2   -1    0    0    0  501 -0.00000000000E+00  0.00000000000E+00  0.72421118567E+03  0.72421118568E+03  0.25500000000E-02 0.  1.
          2   -1    0    0  501    0  0.00000000000E+00 -0.00000000000E+00 -0.18803609409E+04  0.18803609409E+04  0.25500000000E-02 0. -1.
    8880022    1    1    2    0    0  0.28067785456E+03  0.68265757075E+03 -0.15722204685E+04  0.17435797291E+04  0.15294330000E+03 0.  0.
    8880022    1    1    2    0    0 -0.28067785456E+03 -0.68265757075E+03  0.41607071336E+03  0.86099239745E+03  0.15294330000E+03 0.  0.
<mgrwt>
<rscale>  0 0.75378582E+03</rscale>
<asrwt>0</asrwt>
<pdfrwt beam="1">  1        2 0.28928630E+00 0.75378582E+03</pdfrwt>
<pdfrwt beam="2">  1       -2 0.11141711E+00 0.75378582E+03</pdfrwt>
<totfact> 0.51211661E+00</totfact>
</mgrwt>
</event>
<event>
 4    1  0.1701380E-008  0.8494511E+03  0.7818608E-02  0.9491074E-01
         -2   -1    0    0    0  501 -0.00000000000E+00  0.00000000000E+00  0.11805726815E+04  0.11805726815E+04  0.25500000000E-02 0.  1.
          2   -1    0    0  501    0  0.00000000000E+00 -0.00000000000E+00 -0.74361570637E+03  0.74361570637E+03  0.25500000000E-02 0. -1.
    8880022    1    1    2    0    0 -0.82413616184E+03  0.13775018497E+03 -0.18750788913E+03  0.86990021739E+03  0.15294330000E+03 0.  0.
    8880022    1    1    2    0    0  0.82413616184E+03 -0.13775018497E+03  0.62446486425E+03  0.10542881705E+04  0.15294330000E+03 0.  0.
<mgrwt>
<rscale>  0 0.84945110E+03</rscale>
<asrwt>0</asrwt>
<pdfrwt beam="1">  1        2 0.11440242E+00 0.84945110E+03</pdfrwt>
<pdfrwt beam="2">  1       -2 0.18162656E+00 0.84945110E+03</pdfrwt>
<totfact> 0.67487494E+00</totfact>
</mgrwt>
</event>
<event>
 4    1  0.1701380E-008  0.7769436E+03  0.7818608E-02  0.9594003E-01
          2   -1    0    0  501    0  0.00000000000E+00  0.00000000000E+00  0.18221071088E+04  0.18221071088E+04  0.25500000000E-02 0. -1.
         -2   -1    0    0    0  501 -0.00000000000E+00 -0.00000000000E+00 -0.83892119413E+03  0.83892119413E+03  0.25500000000E-02 0.  1.
    8880022    1    1    2    0    0 -0.99650649910E+02 -0.75519496120E+03 -0.54339221805E+03  0.94811203827E+03  0.15294330000E+03 0.  1.
    8880022    1    1    2    0    0  0.99650649910E+02  0.75519496120E+03  0.15265781327E+04  0.17129162647E+04  0.15294330000E+03 0.  0.
<mgrwt>
<rscale>  0 0.77694359E+03</rscale>
<asrwt>0</asrwt>
<pdfrwt beam="1">  1        2 0.28032417E+00 0.77694359E+03</pdfrwt>
<pdfrwt beam="2">  1       -2 0.12906480E+00 0.77694359E+03</pdfrwt>
<totfact> 0.38138116E+00</totfact>
</mgrwt>
</event>
<event>
 4    1  0.2058503E-008  0.2118239E+04  0.7818608E-02  0.8553251E-01
          2   -1    0    0  501    0  0.00000000000E+00  0.00000000000E+00  0.28862160458E+04  0.28862160458E+04  0.25500000000E-02 0. -1.
         -2   -1    0    0    0  501 -0.00000000000E+00 -0.00000000000E+00 -0.28210811524E+04  0.28210811524E+04  0.25500000000E-02 0.  1.
    8880022    1    1    2    0    0  0.16243318022E+04  0.13509597285E+04  0.19445790047E+04  0.28754695530E+04  0.15294330000E+03 0.  0.
    8880022    1    1    2    0    0 -0.16243318022E+04 -0.13509597285E+04 -0.18794441113E+04  0.28318276452E+04  0.15294330000E+03 0.  0.
<mgrwt>
<rscale>  0 0.21182393E+04</rscale>
<asrwt>0</asrwt>
<pdfrwt beam="1">  1        2 0.44403324E+00 0.21182393E+04</pdfrwt>
<pdfrwt beam="2">  1       -2 0.43401249E+00 0.21182393E+04</pdfrwt>
<totfact> 0.78565898E-03</totfact>
</mgrwt>
</event>
<event>
 4    1  0.1701380E-008  0.3385966E+03  0.7818608E-02  0.1067395E+00
         -2   -1    0    0    0  501 -0.00000000000E+00  0.00000000000E+00  0.26063144128E+03  0.26063144130E+03  0.25500000000E-02 0.  1.
          2   -1    0    0  501    0  0.00000000000E+00 -0.00000000000E+00 -0.12193391116E+04  0.12193391116E+04  0.25500000000E-02 0. -1.
    8880022    1    1    2    0    0 -0.26749497180E+03  0.14036531072E+03  0.11228455459E+03  0.35672882503E+03  0.15294330000E+03 0.  0.
    8880022    1    1    2    0    0  0.26749497180E+03 -0.14036531072E+03 -0.10709922249E+04  0.11232417278E+04  0.15294330000E+03 0.  0.
<mgrwt>
<rscale>  0 0.33859656E+03</rscale>
<asrwt>0</asrwt>
<pdfrwt beam="1">  1        2 0.18759063E+00 0.33859656E+03</pdfrwt>
<pdfrwt beam="2">  1       -2 0.40097146E-01 0.33859656E+03</pdfrwt>
<totfact> 0.11545280E+02</totfact>
</mgrwt>
</event>
<event>
 4    1  0.1701380E-008  0.8534649E+03  0.7818608E-02  0.9485698E-01
          2   -1    0    0  501    0  0.00000000000E+00  0.00000000000E+00  0.23248679151E+04  0.23248679151E+04  0.25500000000E-02 0. -1.
         -2   -1    0    0    0  501 -0.00000000000E+00 -0.00000000000E+00 -0.39792157632E+03  0.39792157633E+03  0.25500000000E-02 0.  1.
    8880022    1    1    2    0    0 -0.18898189270E+03 -0.81810542588E+03  0.33570035623E+03  0.91711342036E+03  0.15294330000E+03 0.  0.
    8880022    1    1    2    0    0  0.18898189270E+03  0.81810542588E+03  0.15912459825E+04  0.18056760710E+04  0.15294330000E+03 0.  0.
<mgrwt>
<rscale>  0 0.85346488E+03</rscale>
<asrwt>0</asrwt>
<pdfrwt beam="1">  1        2 0.35767199E+00 0.85346488E+03</pdfrwt>
<pdfrwt beam="2">  1       -2 0.61218703E-01 0.85346488E+03</pdfrwt>
<totfact> 0.11190613E+01</totfact>
</mgrwt>
</event>
<event>
 4    1  0.1701380E-008  0.5033965E+03  0.7818608E-02  0.1012896E+00
         -2   -1    0    0    0  501 -0.00000000000E+00  0.00000000000E+00  0.66264412728E+03  0.66264412728E+03  0.25500000000E-02 0.  1.
          2   -1    0    0  501    0  0.00000000000E+00 -0.00000000000E+00 -0.26595854868E+04  0.26595854868E+04  0.25500000000E-02 0. -1.
    8880022    1    1    2    0    0 -0.27614259493E+03 -0.39212451549E+03 -0.25355278406E+04  0.25850163349E+04  0.15294330000E+03 0.  0.
    8880022    1    1    2    0    0  0.27614259493E+03  0.39212451549E+03  0.53858648107E+03  0.73721327917E+03  0.15294330000E+03 0.  1.
<mgrwt>
<rscale>  0 0.50339649E+03</rscale>
<asrwt>0</asrwt>
<pdfrwt beam="1">  1        2 0.40916699E+00 0.50339649E+03</pdfrwt>
<pdfrwt beam="2">  1       -2 0.10194525E+00 0.50339649E+03</pdfrwt>
<totfact> 0.24824760E+00</totfact>
</mgrwt>
</event>
<event>
 4    1  0.1701380E-008  0.3690084E+03  0.7818608E-02  0.1055073E+00
         -2   -1    0    0    0  501 -0.00000000000E+00  0.00000000000E+00  0.31671897602E+03  0.31671897603E+03  0.25500000000E-02 0.  1.
          2   -1    0    0  501    0  0.00000000000E+00 -0.00000000000E+00 -0.92862084221E+03  0.92862084221E+03  0.25500000000E-02 0. -1.
    8880022    1    1    2    0    0  0.23793903523E+03 -0.23698217279E+03 -0.76225473686E+03  0.84687630241E+03  0.15294330000E+03 0.  0.
    8880022    1    1    2    0    0 -0.23793903523E+03  0.23698217279E+03  0.15035287067E+03  0.39846351582E+03  0.15294330000E+03 0.  0.
<mgrwt>
<rscale>  0 0.36900838E+03</rscale>
<asrwt>0</asrwt>
<pdfrwt beam="1">  1        2 0.14286474E+00 0.36900838E+03</pdfrwt>
<pdfrwt beam="2">  1       -2 0.48725997E-01 0.36900838E+03</pdfrwt>
<totfact> 0.11742081E+02</totfact>
</mgrwt>
</event>
<event>
 4    1  0.1701380E-008  0.9378702E+03  0.7818608E-02  0.9379442E-01
         -2   -1    0    0    0  501 -0.00000000000E+00  0.00000000000E+00  0.15343152981E+04  0.15343152981E+04  0.25500000000E-02 0.  1.
          2   -1    0    0  501    0  0.00000000000E+00 -0.00000000000E+00 -0.60903409992E+03  0.60903409992E+03  0.25500000000E-02 0. -1.
    8880022    1    1    2    0    0  0.79057290185E+03 -0.48083606150E+03  0.72228119476E+03  0.11837612126E+04  0.15294330000E+03 0.  0.
    8880022    1    1    2    0    0 -0.79057290185E+03  0.48083606150E+03  0.20300000343E+03  0.95958818541E+03  0.15294330000E+03 0.  0.
<mgrwt>
<rscale>  0 0.93787019E+03</rscale>
<asrwt>0</asrwt>
<pdfrwt beam="1">  1        2 0.93697554E-01 0.93787019E+03</pdfrwt>
<pdfrwt beam="2">  1       -2 0.23604851E+00 0.93787019E+03</pdfrwt>
<totfact> 0.38320356E+00</totfact>
</mgrwt>
</event>
<event>
 4    1  0.1701380E-008  0.1508685E+04  0.7818608E-02  0.8878698E-01
          2   -1    0    0  501    0  0.00000000000E+00  0.00000000000E+00  0.47542431263E+04  0.47542431263E+04  0.25500000000E-02 0. -1.
         -2   -1    0    0    0  501 -0.00000000000E+00 -0.00000000000E+00 -0.57461939494E+03  0.57461939495E+03  0.25500000000E-02 0.  1.
    8880022    1    1    2    0    0 -0.13791073172E+04 -0.59228567809E+03  0.10015417331E+04  0.18108607934E+04  0.15294330000E+03 0.  0.
    8880022    1    1    2    0    0  0.13791073172E+04  0.59228567809E+03  0.31780819983E+04  0.35180017279E+04  0.15294330000E+03 0.  0.
<mgrwt>
<rscale>  0 0.15086852E+04</rscale>
<asrwt>0</asrwt>
<pdfrwt beam="1">  1        2 0.73142201E+00 0.15086852E+04</pdfrwt>
<pdfrwt beam="2">  1       -2 0.88402986E-01 0.15086852E+04</pdfrwt>
<totfact> 0.72901880E-02</totfact>
</mgrwt>
</event>
<event>
 4    1  0.1701380E-008  0.8741776E+03  0.7818608E-02  0.9458449E-01
         -2   -1    0    0    0  501 -0.00000000000E+00  0.00000000000E+00  0.54253144572E+03  0.54253144573E+03  0.25500000000E-02 0.  1.
          2   -1    0    0  501    0  0.00000000000E+00 -0.00000000000E+00 -0.33393512095E+04  0.33393512095E+04  0.25500000000E-02 0. -1.
    8880022    1    1    2    0    0  0.21302055194E+03  0.83391670468E+03 -0.28742841120E+04  0.30042795535E+04  0.15294330000E+03 0.  0.
    8880022    1    1    2    0    0 -0.21302055194E+03 -0.83391670468E+03  0.77464348246E+02  0.87760310173E+03  0.15294330000E+03 0.  0.
<mgrwt>
<rscale>  0 0.87417760E+03</rscale>
<asrwt>0</asrwt>
<pdfrwt beam="1">  1        2 0.51374633E+00 0.87417760E+03</pdfrwt>
<pdfrwt beam="2">  1       -2 0.83466378E-01 0.87417760E+03</pdfrwt>
<totfact> 0.13867057E+00</totfact>
</mgrwt>
</event>
<event>
 4    1  0.1701380E-008  0.9477408E+03  0.7818608E-02  0.9367795E-01
         -2   -1    0    0    0  501 -0.00000000000E+00  0.00000000000E+00  0.45060904241E+03  0.45060904242E+03  0.25500000000E-02 0.  1.
          2   -1    0    0  501    0  0.00000000000E+00 -0.00000000000E+00 -0.42378727120E+04  0.42378727120E+04  0.25500000000E-02 0. -1.
    8880022    1    1    2    0    0 -0.89135968810E+03 -0.28337055883E+03 -0.35996835691E+04  0.37223560306E+04  0.15294330000E+03 0.  0.
    8880022    1    1    2    0    0  0.89135968810E+03  0.28337055883E+03 -0.18758010041E+03  0.96612572384E+03  0.15294330000E+03 0.  0.
<mgrwt>
<rscale>  0 0.94774080E+03</rscale>
<asrwt>0</asrwt>
<pdfrwt beam="1">  1        2 0.65198039E+00 0.94774080E+03</pdfrwt>
<pdfrwt beam="2">  1       -2 0.69324471E-01 0.94774080E+03</pdfrwt>
<totfact> 0.43978491E-01</totfact>
</mgrwt>
</event>
<event>
 4    1  0.1701380E-008  0.1213272E+04  0.7818608E-02  0.9101319E-01
         -2   -1    0    0    0  501 -0.00000000000E+00  0.00000000000E+00  0.95493828842E+03  0.95493828842E+03  0.25500000000E-02 0.  1.
          2   -1    0    0  501    0  0.00000000000E+00 -0.00000000000E+00 -0.22762080974E+04  0.22762080974E+04  0.25500000000E-02 0. -1.
    8880022    1    1    2    0    0  0.35641734874E+03  0.11496098343E+04  0.25723482451E+03  0.12402409063E+04  0.15294330000E+03 0.  0.
    8880022    1    1    2    0    0 -0.35641734874E+03 -0.11496098343E+04 -0.15785046335E+04  0.19909054795E+04  0.15294330000E+03 0.  0.
<mgrwt>
<rscale>  0 0.12132715E+04</rscale>
<asrwt>0</asrwt>
<pdfrwt beam="1">  1        2 0.35018586E+00 0.12132715E+04</pdfrwt>
<pdfrwt beam="2">  1       -2 0.14691358E+00 0.12132715E+04</pdfrwt>
<totfact> 0.14421267E+00</totfact>
</mgrwt>
</event>
<event>
 4    1  0.1701380E-008  0.1559965E+04  0.7818608E-02  0.8845528E-01
          2   -1    0    0  501    0  0.00000000000E+00  0.00000000000E+00  0.15586944618E+04  0.15586944618E+04  0.25500000000E-02 0. -1.
         -2   -1    0    0    0  501 -0.00000000000E+00 -0.00000000000E+00 -0.27698192168E+04  0.27698192168E+04  0.25500000000E-02 0.  1.
    8880022    1    1    2    0    0  0.14298254529E+04 -0.60472869127E+03  0.82406033651E+03  0.17642462150E+04  0.15294330000E+03 0.  0.
    8880022    1    1    2    0    0 -0.14298254529E+04  0.60472869127E+03 -0.20351850914E+04  0.25642674637E+04  0.15294330000E+03 0.  0.
<mgrwt>
<rscale>  0 0.15599645E+04</rscale>
<asrwt>0</asrwt>
<pdfrwt beam="1">  1        2 0.23979915E+00 0.15599645E+04</pdfrwt>
<pdfrwt beam="2">  1       -2 0.42612603E+00 0.15599645E+04</pdfrwt>
<totfact> 0.54902258E-02</totfact>
</mgrwt>
</event>
<event>
 4    1  0.1701380E-008  0.2054734E+03  0.7818608E-02  0.1145202E+00
          2   -1    0    0  501    0  0.00000000000E+00  0.00000000000E+00  0.20481681159E+03  0.20481681161E+03  0.25500000000E-02 0. -1.
         -2   -1    0    0    0  501 -0.00000000000E+00 -0.00000000000E+00 -0.30465113278E+03  0.30465113279E+03  0.25500000000E-02 0.  1.
    8880022    1    1    2    0    0 -0.72147654017E+02  0.11671502982E+03 -0.19477612300E+03  0.28312024525E+03  0.15294330000E+03 0.  0.
    8880022    1    1    2    0    0  0.72147654017E+02 -0.11671502982E+03  0.94941801805E+02  0.22634769915E+03  0.15294330000E+03 0.  0.
<mgrwt>
<rscale>  0 0.20547344E+03</rscale>
<asrwt>0</asrwt>
<pdfrwt beam="1">  1        2 0.31510279E-01 0.20547344E+03</pdfrwt>
<pdfrwt beam="2">  1       -2 0.46869405E-01 0.20547344E+03</pdfrwt>
<totfact> 0.72508653E+02</totfact>
</mgrwt>
</event>
<event>
 4    1  0.1701380E-008  0.9486303E+03  0.7818608E-02  0.9366753E-01
          2   -1    0    0  501    0  0.00000000000E+00  0.00000000000E+00  0.23171021733E+04  0.23171021733E+04  0.25500000000E-02 0. -1.
         -2   -1    0    0    0  501 -0.00000000000E+00 -0.00000000000E+00 -0.52498480027E+03  0.52498480028E+03  0.25500000000E-02 0.  1.
    8880022    1    1    2    0    0 -0.88482596175E+03 -0.30592600174E+03  0.17115801732E+03  0.96394731238E+03  0.15294330000E+03 0.  0.
    8880022    1    1    2    0    0  0.88482596175E+03  0.30592600174E+03  0.16209593558E+04  0.18781396612E+04  0.15294330000E+03 0.  0.
<mgrwt>
<rscale>  0 0.94863025E+03</rscale>
<asrwt>0</asrwt>
<pdfrwt beam="1">  1        2 0.35647726E+00 0.94863025E+03</pdfrwt>
<pdfrwt beam="2">  1       -2 0.80766892E-01 0.94863025E+03</pdfrwt>
<totfact> 0.60794465E+00</totfact>
</mgrwt>
</event>
<event>
 4    1  0.1701380E-008  0.9424255E+03  0.7818608E-02  0.9374048E-01
          2   -1    0    0  501    0  0.00000000000E+00  0.00000000000E+00  0.31391005802E+03  0.31391005803E+03  0.25500000000E-02 0. -1.
         -2   -1    0    0    0  501 -0.00000000000E+00 -0.00000000000E+00 -0.31709046175E+04  0.31709046175E+04  0.25500000000E-02 0.  1.
    8880022    1    1    2    0    0  0.92715268860E+03 -0.71847859121E+02 -0.85665117995E+03  0.12735843592E+04  0.15294330000E+03 0.  0.
    8880022    1    1    2    0    0 -0.92715268860E+03  0.71847859121E+02 -0.20003433795E+04  0.22112303163E+04  0.15294330000E+03 0.  0.
<mgrwt>
<rscale>  0 0.94242553E+03</rscale>
<asrwt>0</asrwt>
<pdfrwt beam="1">  1        2 0.48293857E-01 0.94242553E+03</pdfrwt>
<pdfrwt beam="2">  1       -2 0.48783146E+00 0.94242553E+03</pdfrwt>
<totfact> 0.21075943E-01</totfact>
</mgrwt>
</event>
<event>
 4    1  0.1701380E-008  0.1255621E+04  0.7818608E-02  0.9065518E-01
         -2   -1    0    0    0  501 -0.00000000000E+00  0.00000000000E+00  0.19937871686E+04  0.19937871686E+04  0.25500000000E-02 0.  1.
          2   -1    0    0  501    0  0.00000000000E+00 -0.00000000000E+00 -0.10808191601E+04  0.10808191601E+04  0.25500000000E-02 0. -1.
    8880022    1    1    2    0    0  0.10902601583E+04 -0.60375994814E+03  0.12528902035E+04  0.17737865720E+04  0.15294330000E+03 0.  0.
    8880022    1    1    2    0    0 -0.10902601583E+04  0.60375994814E+03 -0.33992219496E+03  0.13008197567E+04  0.15294330000E+03 0.  0.
<mgrwt>
<rscale>  0 0.12556213E+04</rscale>
<asrwt>0</asrwt>
<pdfrwt beam="1">  1        2 0.16627987E+00 0.12556213E+04</pdfrwt>
<pdfrwt beam="2">  1       -2 0.30673648E+00 0.12556213E+04</pdfrwt>
<totfact> 0.62866531E-01</totfact>
</mgrwt>
</event>
<event>
 4    1  0.1701380E-008  0.1784142E+04  0.7818608E-02  0.8714778E-01
         -2   -1    0    0    0  501 -0.00000000000E+00  0.00000000000E+00  0.14199987055E+04  0.14199987055E+04  0.25500000000E-02 0.  1.
          2   -1    0    0  501    0  0.00000000000E+00 -0.00000000000E+00 -0.25598844479E+04  0.25598844479E+04  0.25500000000E-02 0. -1.
    8880022    1    1    2    0    0  0.55876653917E+03  0.16874686145E+04 -0.12715487247E+04  0.21908898152E+04  0.15294330000E+03 0.  0.
    8880022    1    1    2    0    0 -0.55876653917E+03 -0.16874686145E+04  0.13166298229E+03  0.17889933382E+04  0.15294330000E+03 0.  0.
<mgrwt>
<rscale>  0 0.17841418E+04</rscale>
<asrwt>0</asrwt>
<pdfrwt beam="1">  1        2 0.39382838E+00 0.17841418E+04</pdfrwt>
<pdfrwt beam="2">  1       -2 0.21846134E+00 0.17841418E+04</pdfrwt>
<totfact> 0.29578343E-01</totfact>
</mgrwt>
</event>
<event>
 4    1  0.1701380E-008  0.1097837E+04  0.7818608E-02  0.9207303E-01
          2   -1    0    0  501    0  0.00000000000E+00  0.00000000000E+00  0.24063046413E+04  0.24063046413E+04  0.25500000000E-02 0. -1.
         -2   -1    0    0    0  501 -0.00000000000E+00 -0.00000000000E+00 -0.13438689659E+04  0.13438689660E+04  0.25500000000E-02 0.  1.
    8880022    1    1    2    0    0 -0.81382077057E+03  0.72079836612E+03  0.20163202221E+04  0.22958208602E+04  0.15294330000E+03 0.  0.
    8880022    1    1    2    0    0  0.81382077057E+03 -0.72079836612E+03 -0.95388454675E+03  0.14543527470E+04  0.15294330000E+03 0.  0.
<mgrwt>
<rscale>  0 0.10978370E+04</rscale>
<asrwt>0</asrwt>
<pdfrwt beam="1">  1        2 0.37020071E+00 0.10978370E+04</pdfrwt>
<pdfrwt beam="2">  1       -2 0.20674907E+00 0.10978370E+04</pdfrwt>
<totfact> 0.46885791E-01</totfact>
</mgrwt>
</event>
<event>
 4    1  0.1701380E-008  0.1790630E+03  0.7818608E-02  0.1168713E+00
          2   -1    0    0  501    0  0.00000000000E+00  0.00000000000E+00  0.12517628805E+04  0.12517628805E+04  0.25500000000E-02 0. -1.
         -2   -1    0    0    0  501 -0.00000000000E+00 -0.00000000000E+00 -0.55406426649E+03  0.55406426650E+03  0.25500000000E-02 0.  1.
    8880022    1    1    2    0    0  0.93119962595E+02  0.75717842780E+00 -0.53294618907E+03  0.56222343798E+03  0.15294330000E+03 0.  0.
    8880022    1    1    2    0    0 -0.93119962595E+02 -0.75717842780E+00  0.12306448030E+04  0.12436037090E+04  0.15294330000E+03 0. -1.
<mgrwt>
<rscale>  0 0.17906299E+03</rscale>
<asrwt>0</asrwt>
<pdfrwt beam="1">  1        2 0.19257890E+00 0.17906299E+03</pdfrwt>
<pdfrwt beam="2">  1       -2 0.85240658E-01 0.17906299E+03</pdfrwt>
<totfact> 0.24341963E+01</totfact>
</mgrwt>
</event>
<event>
 4    1  0.1701380E-008  0.1929628E+03  0.7818608E-02  0.1155816E+00
          2   -1    0    0  501    0  0.00000000000E+00  0.00000000000E+00  0.48440259710E+03  0.48440259711E+03  0.25500000000E-02 0. -1.
         -2   -1    0    0    0  501 -0.00000000000E+00 -0.00000000000E+00 -0.13920935016E+03  0.13920935019E+03  0.25500000000E-02 0.  1.
    8880022    1    1    2    0    0 -0.55552001729E+01 -0.11752495531E+03 -0.36064444241E+02  0.19630403084E+03  0.15294330000E+03 0.  0.
    8880022    1    1    2    0    0  0.55552001729E+01  0.11752495531E+03  0.38125769118E+03  0.42730791646E+03  0.15294330000E+03 0.  0.
<mgrwt>
<rscale>  0 0.19296276E+03</rscale>
<asrwt>0</asrwt>
<pdfrwt beam="1">  1        2 0.74523476E-01 0.19296276E+03</pdfrwt>
<pdfrwt beam="2">  1       -2 0.21416823E-01 0.19296276E+03</pdfrwt>
<totfact> 0.12008557E+03</totfact>
</mgrwt>
</event>
<event>
 4    1  0.1701380E-008  0.7022582E+03  0.7818608E-02  0.9713378E-01
          2   -1    0    0  501    0  0.00000000000E+00  0.00000000000E+00  0.27165144194E+04  0.27165144194E+04  0.25500000000E-02 0. -1.
         -2   -1    0    0    0  501 -0.00000000000E+00 -0.00000000000E+00 -0.30157576350E+03  0.30157576351E+03  0.25500000000E-02 0.  1.
    8880022    1    1    2    0    0  0.67203306671E+03 -0.13470869067E+03  0.25543559546E+03  0.74727094854E+03  0.15294330000E+03 0.  0.
    8880022    1    1    2    0    0 -0.67203306671E+03  0.13470869067E+03  0.21595030604E+04  0.22708192343E+04  0.15294330000E+03 0.  0.
<mgrwt>
<rscale>  0 0.70225816E+03</rscale>
<asrwt>0</asrwt>
<pdfrwt beam="1">  1        2 0.41792530E+00 0.70225816E+03</pdfrwt>
<pdfrwt beam="2">  1       -2 0.46396270E-01 0.70225816E+03</pdfrwt>
<totfact> 0.12150953E+01</totfact>
</mgrwt>
</event>
<event>
 4    1  0.1701380E-008  0.9766937E+03  0.7818608E-02  0.9334483E-01
          2   -1    0    0  501    0  0.00000000000E+00  0.00000000000E+00  0.26089619473E+04  0.26089619473E+04  0.25500000000E-02 0. -1.
         -2   -1    0    0    0  501 -0.00000000000E+00 -0.00000000000E+00 -0.68937147674E+03  0.68937147675E+03  0.25500000000E-02 0.  1.
    8880022    1    1    2    0    0 -0.91399372977E+03 -0.30847102970E+03  0.20899372270E+04  0.23068957887E+04  0.15294330000E+03 0.  0.
    8880022    1    1    2    0    0  0.91399372977E+03  0.30847102970E+03 -0.17034675647E+03  0.99143763529E+03  0.15294330000E+03 0.  0.
<mgrwt>
<rscale>  0 0.97669369E+03</rscale>
<asrwt>0</asrwt>
<pdfrwt beam="1">  1        2 0.40137876E+00 0.97669369E+03</pdfrwt>
<pdfrwt beam="2">  1       -2 0.10605715E+00 0.97669369E+03</pdfrwt>
<totfact> 0.21872064E+00</totfact>
</mgrwt>
</event>
<event>
 4    1  0.1701380E-008  0.1317156E+04  0.7818608E-02  0.9016070E-01
         -2   -1    0    0    0  501 -0.00000000000E+00  0.00000000000E+00  0.97548111404E+03  0.97548111404E+03  0.25500000000E-02 0.  1.
          2   -1    0    0  501    0  0.00000000000E+00 -0.00000000000E+00 -0.21958152659E+04  0.21958152659E+04  0.25500000000E-02 0. -1.
    8880022    1    1    2    0    0 -0.78715841846E+03  0.10449356456E+04  0.81086101007E+02  0.13196497596E+04  0.15294330000E+03 0.  0.
    8880022    1    1    2    0    0  0.78715841846E+03 -0.10449356456E+04 -0.13014202529E+04  0.18516466204E+04  0.15294330000E+03 0.  0.
<mgrwt>
<rscale>  0 0.13171562E+04</rscale>
<asrwt>0</asrwt>
<pdfrwt beam="1">  1        2 0.33781773E+00 0.13171562E+04</pdfrwt>
<pdfrwt beam="2">  1       -2 0.15007402E+00 0.13171562E+04</pdfrwt>
<totfact> 0.14943307E+00</totfact>
</mgrwt>
</event>
<event>
 4    1  0.1701380E-008  0.5954908E+03  0.7818608E-02  0.9914806E-01
          2   -1    0    0  501    0  0.00000000000E+00  0.00000000000E+00  0.33115635482E+04  0.33115635482E+04  0.25500000000E-02 0. -1.
         -2   -1    0    0    0  501 -0.00000000000E+00 -0.00000000000E+00 -0.25417216858E+03  0.25417216859E+03  0.25500000000E-02 0.  1.
    8880022    1    1    2    0    0  0.34008125443E+03 -0.46428691561E+03  0.28849677052E+04  0.29457847702E+04  0.15294330000E+03 0.  0.
    8880022    1    1    2    0    0 -0.34008125443E+03  0.46428691561E+03  0.17242367446E+03  0.61995094656E+03  0.15294330000E+03 0.  0.
<mgrwt>
<rscale>  0 0.59549077E+03</rscale>
<asrwt>0</asrwt>
<pdfrwt beam="1">  1        2 0.50947132E+00 0.59549077E+03</pdfrwt>
<pdfrwt beam="2">  1       -2 0.39103410E-01 0.59549077E+03</pdfrwt>
<totfact> 0.75216954E+00</totfact>
</mgrwt>
</event>
<event>
 4    1  0.1701380E-008  0.1033723E+04  0.7818608E-02  0.9272312E-01
         -2   -1    0    0    0  501 -0.00000000000E+00  0.00000000000E+00  0.10706967423E+04  0.10706967423E+04  0.25500000000E-02 0.  1.
          2   -1    0    0  501    0  0.00000000000E+00 -0.00000000000E+00 -0.13204219808E+04  0.13204219808E+04  0.25500000000E-02 0. -1.
    8880022    1    1    2    0    0 -0.61815259081E+03  0.81429679200E+03 -0.71562027251E+03  0.12572573000E+04  0.15294330000E+03 0.  0.
    8880022    1    1    2    0    0  0.61815259081E+03 -0.81429679200E+03  0.46589503407E+03  0.11338614231E+04  0.15294330000E+03 0.  0.
<mgrwt>
<rscale>  0 0.10337231E+04</rscale>
<asrwt>0</asrwt>
<pdfrwt beam="1">  1        2 0.20314184E+00 0.10337231E+04</pdfrwt>
<pdfrwt beam="2">  1       -2 0.16472258E+00 0.10337231E+04</pdfrwt>
<totfact> 0.36958305E+00</totfact>
</mgrwt>
</event>
<event>
 4    1  0.1701380E-008  0.3213066E+03  0.7818608E-02  0.1075050E+00
          2   -1    0    0  501    0  0.00000000000E+00  0.00000000000E+00  0.12876540599E+04  0.12876540599E+04  0.25500000000E-02 0. -1.
         -2   -1    0    0    0  501 -0.00000000000E+00 -0.00000000000E+00 -0.12368779518E+03  0.12368779521E+03  0.25500000000E-02 0.  1.
    8880022    1    1    2    0    0  0.12825171439E+03  0.25178915212E+03  0.10005320794E+04  0.10508579230E+04  0.15294330000E+03 0.  0.
    8880022    1    1    2    0    0 -0.12825171439E+03 -0.25178915212E+03  0.16343418530E+03  0.36048393211E+03  0.15294330000E+03 0.  1.
<mgrwt>
<rscale>  0 0.32130660E+03</rscale>
<asrwt>0</asrwt>
<pdfrwt beam="1">  1        2 0.19810062E+00 0.32130660E+03</pdfrwt>
<pdfrwt beam="2">  1       -2 0.19028892E-01 0.32130660E+03</pdfrwt>
<totfact> 0.40812237E+02</totfact>
</mgrwt>
</event>
<event>
 4    1  0.1701380E-008  0.1183465E+04  0.7818608E-02  0.9127454E-01
          2   -1    0    0  501    0  0.00000000000E+00  0.00000000000E+00  0.16848054490E+04  0.16848054490E+04  0.25500000000E-02 0. -1.
         -2   -1    0    0    0  501 -0.00000000000E+00 -0.00000000000E+00 -0.11854053180E+04  0.11854053180E+04  0.25500000000E-02 0.  1.
    8880022    1    1    2    0    0  0.11062331100E+04 -0.39172102941E+03 -0.53465546656E+03  0.12986320416E+04  0.15294330000E+03 0.  0.
    8880022    1    1    2    0    0 -0.11062331100E+04  0.39172102941E+03  0.10340555975E+04  0.15715787255E+04  0.15294330000E+03 0.  0.
<mgrwt>
<rscale>  0 0.11834647E+04</rscale>
<asrwt>0</asrwt>
<pdfrwt beam="1">  1        2 0.25920084E+00 0.11834647E+04</pdfrwt>
<pdfrwt beam="2">  1       -2 0.18237005E+00 0.11834647E+04</pdfrwt>
<totfact> 0.16978284E+00</totfact>
</mgrwt>
</event>
<event>
 4    1  0.1701380E-008  0.1708472E+04  0.7818608E-02  0.8756547E-01
          2   -1    0    0  501    0  0.00000000000E+00  0.00000000000E+00  0.41741165432E+04  0.41741165432E+04  0.25500000000E-02 0. -1.
         -2   -1    0    0    0  501 -0.00000000000E+00 -0.00000000000E+00 -0.86070833000E+03  0.86070833000E+03  0.25500000000E-02 0.  1.
    8880022    1    1    2    0    0  0.49571307279E+02 -0.17008898208E+04  0.56647796628E+03  0.17999367868E+04  0.15294330000E+03 0.  0.
    8880022    1    1    2    0    0 -0.49571307279E+02  0.17008898208E+04  0.27469302469E+04  0.32348880864E+04  0.15294330000E+03 0.  0.
<mgrwt>
<rscale>  0 0.17084716E+04</rscale>
<asrwt>0</asrwt>
<pdfrwt beam="1">  1        2 0.64217177E+00 0.17084716E+04</pdfrwt>
<pdfrwt beam="2">  1       -2 0.13241667E+00 0.17084716E+04</pdfrwt>
<totfact> 0.95477116E-02</totfact>
</mgrwt>
</event>
<event>
 4    1  0.1701380E-008  0.5096098E+03  0.7818608E-02  0.1011301E+00
         -2   -1    0    0    0  501 -0.00000000000E+00  0.00000000000E+00  0.28723369662E+03  0.28723369663E+03  0.25500000000E-02 0.  1.
          2   -1    0    0  501    0  0.00000000000E+00 -0.00000000000E+00 -0.11907117605E+04  0.11907117606E+04  0.25500000000E-02 0. -1.
    8880022    1    1    2    0    0 -0.45380786107E+02 -0.48399487617E+03 -0.89216641034E+02  0.51736033667E+03  0.15294330000E+03 0.  0.
    8880022    1    1    2    0    0  0.45380786107E+02  0.48399487617E+03 -0.81426142290E+03  0.96058512051E+03  0.15294330000E+03 0.  0.
<mgrwt>
<rscale>  0 0.50960976E+03</rscale>
<asrwt>0</asrwt>
<pdfrwt beam="1">  1        2 0.18318642E+00 0.50960976E+03</pdfrwt>
<pdfrwt beam="2">  1       -2 0.44189800E-01 0.50960976E+03</pdfrwt>
<totfact> 0.96847347E+01</totfact>
</mgrwt>
</event>
<event>
 4    1  0.1701380E-008  0.9686139E+03  0.7818608E-02  0.9343655E-01
          2   -1    0    0  501    0  0.00000000000E+00  0.00000000000E+00  0.22787167951E+04  0.22787167951E+04  0.25500000000E-02 0. -1.
         -2   -1    0    0    0  501 -0.00000000000E+00 -0.00000000000E+00 -0.21992934227E+04  0.21992934227E+04  0.25500000000E-02 0.  1.
    8880022    1    1    2    0    0 -0.28601112422E+03  0.91269865455E+03 -0.19788610260E+04  0.22032030797E+04  0.15294330000E+03 0.  0.
    8880022    1    1    2    0    0  0.28601112422E+03 -0.91269865455E+03  0.20582843985E+04  0.22748071381E+04  0.15294330000E+03 0.  0.
<mgrwt>
<rscale>  0 0.96861388E+03</rscale>
<asrwt>0</asrwt>
<pdfrwt beam="1">  1        2 0.35057181E+00 0.96861388E+03</pdfrwt>
<pdfrwt beam="2">  1       -2 0.33835283E+00 0.96861388E+03</pdfrwt>
<totfact> 0.88176063E-02</totfact>
</mgrwt>
</event>
<event>
 4    1  0.1701380E-008  0.5312764E+03  0.7818608E-02  0.1005923E+00
         -2   -1    0    0    0  501 -0.00000000000E+00  0.00000000000E+00  0.75616182305E+03  0.75616182305E+03  0.25500000000E-02 0.  1.
          2   -1    0    0  501    0  0.00000000000E+00 -0.00000000000E+00 -0.14334715208E+04  0.14334715208E+04  0.25500000000E-02 0. -1.
    8880022    1    1    2    0    0  0.49019115241E+03  0.13629230304E+03  0.60288892053E+03  0.80357305908E+03  0.15294330000E+03 0.  1.
    8880022    1    1    2    0    0 -0.49019115241E+03 -0.13629230304E+03 -0.12801986182E+04  0.13860602847E+04  0.15294330000E+03 0.  0.
<mgrwt>
<rscale>  0 0.53127640E+03</rscale>
<asrwt>0</asrwt>
<pdfrwt beam="1">  1        2 0.22053408E+00 0.53127640E+03</pdfrwt>
<pdfrwt beam="2">  1       -2 0.11633259E+00 0.53127640E+03</pdfrwt>
<totfact> 0.84233281E+00</totfact>
</mgrwt>
</event>
<event>
 4    1  0.1701380E-008  0.7972373E+03  0.7818608E-02  0.9564025E-01
         -2   -1    0    0    0  501 -0.00000000000E+00  0.00000000000E+00  0.75452974952E+03  0.75452974952E+03  0.25500000000E-02 0.  1.
          2   -1    0    0  501    0  0.00000000000E+00 -0.00000000000E+00 -0.32247154700E+04  0.32247154700E+04  0.25500000000E-02 0. -1.
    8880022    1    1    2    0    0  0.77917904429E+03  0.71243324419E+02  0.47503309727E+03  0.92803216046E+03  0.15294330000E+03 0.  0.
    8880022    1    1    2    0    0 -0.77917904429E+03 -0.71243324419E+02 -0.29452188177E+04  0.30512130590E+04  0.15294330000E+03 0.  0.
<mgrwt>
<rscale>  0 0.79723726E+03</rscale>
<asrwt>0</asrwt>
<pdfrwt beam="1">  1        2 0.49611006E+00 0.79723726E+03</pdfrwt>
<pdfrwt beam="2">  1       -2 0.11608150E+00 0.79723726E+03</pdfrwt>
<totfact> 0.76723762E-01</totfact>
</mgrwt>
</event>
<event>
 4    1  0.1701380E-008  0.4504549E+03  0.7818608E-02  0.1027586E+00
         -2   -1    0    0    0  501 -0.00000000000E+00  0.00000000000E+00  0.56130905237E+03  0.56130905237E+03  0.25500000000E-02 0.  1.
          2   -1    0    0  501    0  0.00000000000E+00 -0.00000000000E+00 -0.84851899849E+03  0.84851899849E+03  0.25500000000E-02 0. -1.
    8880022    1    1    2    0    0  0.35240014357E+03  0.23522786161E+03  0.39044407694E+03  0.59611763797E+03  0.15294330000E+03 0.  0.
    8880022    1    1    2    0    0 -0.35240014357E+03 -0.23522786161E+03 -0.67765402306E+03  0.81371041290E+03  0.15294330000E+03 0.  0.
<mgrwt>
<rscale>  0 0.45045495E+03</rscale>
<asrwt>0</asrwt>
<pdfrwt beam="1">  1        2 0.13054139E+00 0.45045495E+03</pdfrwt>
<pdfrwt beam="2">  1       -2 0.86355238E-01 0.45045495E+03</pdfrwt>
<totfact> 0.38765501E+01</totfact>
</mgrwt>
</event>
<event>
 4    1  0.1701380E-008  0.4249237E+03  0.7818608E-02  0.1035476E+00
          2   -1    0    0  501    0  0.00000000000E+00  0.00000000000E+00  0.49699731380E+03  0.49699731381E+03  0.25500000000E-02 0. -1.
         -2   -1    0    0    0  501 -0.00000000000E+00 -0.00000000000E+00 -0.10556758651E+04  0.10556758651E+04  0.25500000000E-02 0.  1.
    8880022    1    1    2    0    0  0.21625772287E+03 -0.33226664983E+03  0.34937750442E+03  0.55011346366E+03  0.15294330000E+03 0.  0.
    8880022    1    1    2    0    0 -0.21625772287E+03  0.33226664983E+03 -0.90805605571E+03  0.10025597152E+04  0.15294330000E+03 0.  0.
<mgrwt>
<rscale>  0 0.42492374E+03</rscale>
<asrwt>0</asrwt>
<pdfrwt beam="1">  1        2 0.76461125E-01 0.42492374E+03</pdfrwt>
<pdfrwt beam="2">  1       -2 0.16241167E+00 0.42492374E+03</pdfrwt>
<totfact> 0.15833040E+01</totfact>
</mgrwt>
</event>
<event>
 4    1  0.1701380E-008  0.1958014E+03  0.7818608E-02  0.1153330E+00
         -2   -1    0    0    0  501 -0.00000000000E+00  0.00000000000E+00  0.38563827650E+03  0.38563827651E+03  0.25500000000E-02 0.  1.
          2   -1    0    0  501    0  0.00000000000E+00 -0.00000000000E+00 -0.51760641292E+03  0.51760641293E+03  0.25500000000E-02 0. -1.
    8880022    1    1    2    0    0 -0.10982249094E+03 -0.53717372468E+02  0.33995720272E+03  0.39231248810E+03  0.15294330000E+03 0.  1.
    8880022    1    1    2    0    0  0.10982249094E+03  0.53717372468E+02 -0.47192533915E+03  0.51093220134E+03  0.15294330000E+03 0.  0.
<mgrwt>
<rscale>  0 0.19580140E+03</rscale>
<asrwt>0</asrwt>
<pdfrwt beam="1">  1        2 0.79631756E-01 0.19580140E+03</pdfrwt>
<pdfrwt beam="2">  1       -2 0.59328966E-01 0.19580140E+03</pdfrwt>
<totfact> 0.16513028E+02</totfact>
</mgrwt>
</event>
<event>
 4    1  0.1701380E-008  0.1761268E+04  0.7818608E-02  0.8727172E-01
         -2   -1    0    0    0  501 -0.00000000000E+00  0.00000000000E+00  0.15728648517E+04  0.15728648517E+04  0.25500000000E-02 0.  1.
          2   -1    0    0  501    0  0.00000000000E+00 -0.00000000000E+00 -0.27413121862E+04  0.27413121862E+04  0.25500000000E-02 0. -1.
    8880022    1    1    2    0    0 -0.22500674214E+03 -0.17401277354E+04 -0.17267672245E+04  0.24665338575E+04  0.15294330000E+03 0.  0.
    8880022    1    1    2    0    0  0.22500674214E+03  0.17401277354E+04  0.55831989000E+03  0.18476431804E+04  0.15294330000E+03 0.  0.
<mgrwt>
<rscale>  0 0.17612678E+04</rscale>
<asrwt>0</asrwt>
<pdfrwt beam="1">  1        2 0.42174033E+00 0.17612678E+04</pdfrwt>
<pdfrwt beam="2">  1       -2 0.24197921E+00 0.17612678E+04</pdfrwt>
<totfact> 0.16458274E-01</totfact>
</mgrwt>
</event>
<event>
 4    1  0.1701380E-008  0.6379057E+03  0.7818608E-02  0.9829742E-01
          2   -1    0    0  501    0  0.00000000000E+00  0.00000000000E+00  0.27224059378E+04  0.27224059378E+04  0.25500000000E-02 0. -1.
         -2   -1    0    0    0  501 -0.00000000000E+00 -0.00000000000E+00 -0.15784107299E+03  0.15784107301E+03  0.25500000000E-02 0.  1.
    8880022    1    1    2    0    0 -0.40860296399E+03 -0.46537690986E+03  0.16138912635E+04  0.17353871942E+04  0.15294330000E+03 0.  0.
    8880022    1    1    2    0    0  0.40860296399E+03  0.46537690986E+03  0.95067360131E+03  0.11448598166E+04  0.15294330000E+03 0.  0.
<mgrwt>
<rscale>  0 0.63790572E+03</rscale>
<asrwt>0</asrwt>
<pdfrwt beam="1">  1        2 0.41883169E+00 0.63790572E+03</pdfrwt>
<pdfrwt beam="2">  1       -2 0.24283242E-01 0.63790572E+03</pdfrwt>
<totfact> 0.41473234E+01</totfact>
</mgrwt>
</event>
<event>
 4    1  0.1701380E-008  0.2436909E+03  0.7818608E-02  0.1117358E+00
         -2   -1    0    0    0  501 -0.00000000000E+00  0.00000000000E+00  0.20660430039E+03  0.20660430041E+03  0.25500000000E-02 0.  1.
          2   -1    0    0  501    0  0.00000000000E+00 -0.00000000000E+00 -0.17723723039E+04  0.17723723039E+04  0.25500000000E-02 0. -1.
    8880022    1    1    2    0    0 -0.18727781275E+03 -0.30341937875E+02 -0.16885900651E+04  0.17060837240E+04  0.15294330000E+03 0.  0.
    8880022    1    1    2    0    0  0.18727781275E+03  0.30341937875E+02  0.12282206153E+03  0.27289288036E+03  0.15294330000E+03 0.  0.
<mgrwt>
<rscale>  0 0.24369092E+03</rscale>
<asrwt>0</asrwt>
<pdfrwt beam="1">  1        2 0.27267265E+00 0.24369092E+03</pdfrwt>
<pdfrwt beam="2">  1       -2 0.31785278E-01 0.24369092E+03</pdfrwt>
<totfact> 0.91734548E+01</totfact>
</mgrwt>
</event>
<event>
 4    1  0.1701380E-008  0.4912743E+03  0.7818608E-02  0.1016082E+00
         -2   -1    0    0    0  501 -0.00000000000E+00  0.00000000000E+00  0.94188823155E+02  0.94188823190E+02  0.25500000000E-02 0.  1.
          2   -1    0    0  501    0  0.00000000000E+00 -0.00000000000E+00 -0.36988227362E+04  0.36988227362E+04  0.25500000000E-02 0. -1.
    8880022    1    1    2    0    0 -0.31396964277E+03  0.34551672592E+03 -0.75110467335E+03  0.89750132468E+03  0.15294330000E+03 0.  0.
    8880022    1    1    2    0    0  0.31396964277E+03 -0.34551672592E+03 -0.28535292397E+04  0.28955102347E+04  0.15294330000E+03 0.  0.
<mgrwt>
<rscale>  0 0.49127426E+03</rscale>
<asrwt>0</asrwt>
<pdfrwt beam="1">  1        2 0.56904954E+00 0.49127426E+03</pdfrwt>
<pdfrwt beam="2">  1       -2 0.14490591E-01 0.49127426E+03</pdfrwt>
<totfact> 0.24945469E+01</totfact>
</mgrwt>
</event>
<event>
 4    1  0.1701380E-008  0.5313138E+03  0.7818608E-02  0.1005914E+00
         -2   -1    0    0    0  501 -0.00000000000E+00  0.00000000000E+00  0.64855763968E+03  0.64855763968E+03  0.25500000000E-02 0.  1.
          2   -1    0    0  501    0  0.00000000000E+00 -0.00000000000E+00 -0.90204550692E+03  0.90204550693E+03  0.25500000000E-02 0. -1.
    8880022    1    1    2    0    0  0.50624707373E+03 -0.51152827902E+02 -0.68445961017E+03  0.86647522898E+03  0.15294330000E+03 0.  0.
    8880022    1    1    2    0    0 -0.50624707373E+03  0.51152827902E+02  0.43097174292E+03  0.68412791763E+03  0.15294330000E+03 0.  1.
<mgrwt>
<rscale>  0 0.53131381E+03</rscale>
<asrwt>0</asrwt>
<pdfrwt beam="1">  1        2 0.13877623E+00 0.53131381E+03</pdfrwt>
<pdfrwt beam="2">  1       -2 0.99778098E-01 0.53131381E+03</pdfrwt>
<totfact> 0.25266728E+01</totfact>
</mgrwt>
</event>
<event>
 4    1  0.1701380E-008  0.6044148E+03  0.7818608E-02  0.9896289E-01
          2   -1    0    0  501    0  0.00000000000E+00  0.00000000000E+00  0.20330645418E+04  0.20330645418E+04  0.25500000000E-02 0. -1.
         -2   -1    0    0    0  501 -0.00000000000E+00 -0.00000000000E+00 -0.62197214270E+03  0.62197214271E+03  0.25500000000E-02 0.  1.
    8880022    1    1    2    0    0 -0.55927155657E+03  0.17070712889E+03  0.18249989306E+04  0.19224823400E+04  0.15294330000E+03 0.  0.
    8880022    1    1    2    0    0  0.55927155657E+03 -0.17070712889E+03 -0.41390653151E+03  0.73255434452E+03  0.15294330000E+03 0.  0.
<mgrwt>
<rscale>  0 0.60441480E+03</rscale>
<asrwt>0</asrwt>
<pdfrwt beam="1">  1        2 0.31277917E+00 0.60441480E+03</pdfrwt>
<pdfrwt beam="2">  1       -2 0.95688020E-01 0.60441480E+03</pdfrwt>
<totfact> 0.62466304E+00</totfact>
</mgrwt>
</event>
<event>
 4    1  0.1701380E-008  0.1462260E+04  0.7818608E-02  0.8909945E-01
          2   -1    0    0  501    0  0.00000000000E+00  0.00000000000E+00  0.28034950318E+04  0.28034950318E+04  0.25500000000E-02 0. -1.
         -2   -1    0    0    0  501 -0.00000000000E+00 -0.00000000000E+00 -0.11494341309E+04  0.11494341309E+04  0.25500000000E-02 0.  1.
    8880022    1    1    2    0    0  0.14091838225E+04  0.35918360260E+03 -0.31942628285E+03  0.14967420316E+04  0.15294330000E+03 0.  0.
    8880022    1    1    2    0    0 -0.14091838225E+04 -0.35918360260E+03  0.19734871837E+04  0.24561871312E+04  0.15294330000E+03 0.  0.
<mgrwt>
<rscale>  0 0.14622597E+04</rscale>
<asrwt>0</asrwt>
<pdfrwt beam="1">  1        2 0.43130692E+00 0.14622597E+04</pdfrwt>
<pdfrwt beam="2">  1       -2 0.17683602E+00 0.14622597E+04</pdfrwt>
<totfact> 0.41578991E-01</totfact>
</mgrwt>
</event>
<event>
 4    1  0.1701380E-008  0.6774089E+03  0.7818608E-02  0.9756665E-01
         -2   -1    0    0    0  501 -0.00000000000E+00  0.00000000000E+00  0.98316136988E+03  0.98316136989E+03  0.25500000000E-02 0.  1.
          2   -1    0    0  501    0  0.00000000000E+00 -0.00000000000E+00 -0.15946422841E+04  0.15946422841E+04  0.25500000000E-02 0. -1.
    8880022    1    1    2    0    0 -0.55145634474E+03  0.36247355211E+03 -0.13897260995E+04  0.15460341072E+04  0.15294330000E+03 0.  0.
    8880022    1    1    2    0    0  0.55145634474E+03 -0.36247355211E+03  0.77824518528E+03  0.10317695467E+04  0.15294330000E+03 0.  0.
<mgrwt>
<rscale>  0 0.67740891E+03</rscale>
<asrwt>0</asrwt>
<pdfrwt beam="1">  1        2 0.24532958E+00 0.67740891E+03</pdfrwt>
<pdfrwt beam="2">  1       -2 0.15125560E+00 0.67740891E+03</pdfrwt>
<totfact> 0.34273743E+00</totfact>
</mgrwt>
</event>
<event>
 4    1  0.1701380E-008  0.4307707E+03  0.7818608E-02  0.1033617E+00
         -2   -1    0    0    0  501 -0.00000000000E+00  0.00000000000E+00  0.50633371960E+03  0.50633371961E+03  0.25500000000E-02 0.  1.
          2   -1    0    0  501    0  0.00000000000E+00 -0.00000000000E+00 -0.67186065998E+03  0.67186065999E+03  0.25500000000E-02 0. -1.
    8880022    1    1    2    0    0  0.31490112237E+03 -0.25101596898E+03 -0.47992302292E+03  0.64489494842E+03  0.15294330000E+03 0.  0.
    8880022    1    1    2    0    0 -0.31490112237E+03  0.25101596898E+03  0.31439608254E+03  0.53329943117E+03  0.15294330000E+03 0.  0.
<mgrwt>
<rscale>  0 0.43077069E+03</rscale>
<asrwt>0</asrwt>
<pdfrwt beam="1">  1        2 0.10336318E+00 0.43077069E+03</pdfrwt>
<pdfrwt beam="2">  1       -2 0.77897496E-01 0.43077069E+03</pdfrwt>
<totfact> 0.65957045E+01</totfact>
</mgrwt>
</event>
<event>
 4    1  0.1701380E-008  0.1162543E+04  0.7818608E-02  0.9146290E-01
         -2   -1    0    0    0  501 -0.00000000000E+00  0.00000000000E+00  0.87690473897E+03  0.87690473897E+03  0.25500000000E-02 0.  1.
          2   -1    0    0  501    0  0.00000000000E+00 -0.00000000000E+00 -0.23082589044E+04  0.23082589044E+04  0.25500000000E-02 0. -1.
    8880022    1    1    2    0    0  0.10566606490E+04  0.45998099905E+03 -0.16337291094E+04  0.20051375769E+04  0.15294330000E+03 0.  0.
    8880022    1    1    2    0    0 -0.10566606490E+04 -0.45998099905E+03  0.20237494391E+03  0.11800260665E+04  0.15294330000E+03 0.  0.
<mgrwt>
<rscale>  0 0.11625429E+04</rscale>
<asrwt>0</asrwt>
<pdfrwt beam="1">  1        2 0.35511675E+00 0.11625429E+04</pdfrwt>
<pdfrwt beam="2">  1       -2 0.13490842E+00 0.11625429E+04</pdfrwt>
<totfact> 0.17396407E+00</totfact>
</mgrwt>
</event>
<event>
 4    1  0.1701380E-008  0.7698495E+03  0.7818608E-02  0.9604714E-01
         -2   -1    0    0    0  501 -0.00000000000E+00  0.00000000000E+00  0.27194141163E+04  0.27194141163E+04  0.25500000000E-02 0.  1.
          2   -1    0    0  501    0  0.00000000000E+00 -0.00000000000E+00 -0.10522676665E+04  0.10522676665E+04  0.25500000000E-02 0. -1.
    8880022    1    1    2    0    0 -0.62583835419E+03  0.42142974370E+03 -0.84565735039E+03  0.11435928829E+04  0.15294330000E+03 0.  0.
    8880022    1    1    2    0    0  0.62583835419E+03 -0.42142974370E+03  0.25128038003E+04  0.26280889000E+04  0.15294330000E+03 0.  0.
<mgrwt>
<rscale>  0 0.76984955E+03</rscale>
<asrwt>0</asrwt>
<pdfrwt beam="1">  1        2 0.16188734E+00 0.76984955E+03</pdfrwt>
<pdfrwt beam="2">  1       -2 0.41837140E+00 0.76984955E+03</pdfrwt>
<totfact> 0.13987475E-01</totfact>
</mgrwt>
</event>
<event>
 4    1  0.1701380E-008  0.8916498E+03  0.7818608E-02  0.9436080E-01
         -2   -1    0    0    0  501 -0.00000000000E+00  0.00000000000E+00  0.11136393284E+04  0.11136393284E+04  0.25500000000E-02 0.  1.
          2   -1    0    0  501    0  0.00000000000E+00 -0.00000000000E+00 -0.81079579955E+03  0.81079579955E+03  0.25500000000E-02 0. -1.
    8880022    1    1    2    0    0 -0.51719547855E+03 -0.71003984278E+03  0.48403942261E+03  0.10145607705E+04  0.15294330000E+03 0.  0.
    8880022    1    1    2    0    0  0.51719547855E+03  0.71003984278E+03 -0.18119589379E+03  0.90987435743E+03  0.15294330000E+03 0.  0.
<mgrwt>
<rscale>  0 0.89164982E+03</rscale>
<asrwt>0</asrwt>
<pdfrwt beam="1">  1        2 0.12473782E+00 0.89164982E+03</pdfrwt>
<pdfrwt beam="2">  1       -2 0.17132913E+00 0.89164982E+03</pdfrwt>
<totfact> 0.70717438E+00</totfact>
</mgrwt>
</event>
<event>
 4    1  0.1701380E-008  0.4912224E+03  0.7818608E-02  0.1016096E+00
         -2   -1    0    0    0  501 -0.00000000000E+00  0.00000000000E+00  0.31522776632E+03  0.31522776633E+03  0.25500000000E-02 0.  1.
          2   -1    0    0  501    0  0.00000000000E+00 -0.00000000000E+00 -0.25774744473E+04  0.25774744473E+04  0.25500000000E-02 0. -1.
    8880022    1    1    2    0    0 -0.20309734277E+03 -0.42030849271E+03 -0.23438290210E+04  0.23947513216E+04  0.15294330000E+03 0.  0.
    8880022    1    1    2    0    0  0.20309734277E+03  0.42030849271E+03  0.81582339980E+02  0.49795089205E+03  0.15294330000E+03 0.  0.
<mgrwt>
<rscale>  0 0.49122237E+03</rscale>
<asrwt>0</asrwt>
<pdfrwt beam="1">  1        2 0.39653452E+00 0.49122237E+03</pdfrwt>
<pdfrwt beam="2">  1       -2 0.48496581E-01 0.49122237E+03</pdfrwt>
<totfact> 0.13973334E+01</totfact>
</mgrwt>
</event>
<event>
 4    1  0.1701380E-008  0.6252486E+03  0.7818608E-02  0.9854365E-01
         -2   -1    0    0    0  501 -0.00000000000E+00  0.00000000000E+00  0.56338259456E+03  0.56338259457E+03  0.25500000000E-02 0.  1.
          2   -1    0    0  501    0  0.00000000000E+00 -0.00000000000E+00 -0.89813362611E+03  0.89813362611E+03  0.25500000000E-02 0. -1.
    8880022    1    1    2    0    0 -0.56747025937E+03  0.21335820584E+03  0.18108850123E+03  0.65094463479E+03  0.15294330000E+03 0.  0.
    8880022    1    1    2    0    0  0.56747025937E+03 -0.21335820584E+03 -0.51583953277E+03  0.81057158589E+03  0.15294330000E+03 0.  0.
<mgrwt>
<rscale>  0 0.62524865E+03</rscale>
<asrwt>0</asrwt>
<pdfrwt beam="1">  1        2 0.13817440E+00 0.62524865E+03</pdfrwt>
<pdfrwt beam="2">  1       -2 0.86674246E-01 0.62524865E+03</pdfrwt>
<totfact> 0.34820344E+01</totfact>
</mgrwt>
</event>
<event>
 4    1  0.1701380E-008  0.8154173E+03  0.7818608E-02  0.9537965E-01
          2   -1    0    0  501    0  0.00000000000E+00  0.00000000000E+00  0.14948994226E+04  0.14948994226E+04  0.25500000000E-02 0. -1.
         -2   -1    0    0    0  501 -0.00000000000E+00 -0.00000000000E+00 -0.70158981395E+03  0.70158981396E+03  0.25500000000E-02 0.  1.
    8880022    1    1    2    0    0  0.67620238565E+03 -0.42925990573E+03  0.10611027760E+04  0.13382243785E+04  0.15294330000E+03 0.  0.
    8880022    1    1    2    0    0 -0.67620238565E+03  0.42925990573E+03 -0.26779316736E+03  0.85826485803E+03  0.15294330000E+03 0.  0.
<mgrwt>
<rscale>  0 0.81541731E+03</rscale>
<asrwt>0</asrwt>
<pdfrwt beam="1">  1        2 0.22998452E+00 0.81541731E+03</pdfrwt>
<pdfrwt beam="2">  1       -2 0.10793690E+00 0.81541731E+03</pdfrwt>
<totfact> 0.89289944E+00</totfact>
</mgrwt>
</event>
<event>
 4    1  0.1701380E-008  0.1278870E+04  0.7818608E-02  0.9046491E-01
         -2   -1    0    0    0  501 -0.00000000000E+00  0.00000000000E+00  0.79378674974E+03  0.79378674974E+03  0.25500000000E-02 0.  1.
          2   -1    0    0  501    0  0.00000000000E+00 -0.00000000000E+00 -0.23830006701E+04  0.23830006701E+04  0.25500000000E-02 0. -1.
    8880022    1    1    2    0    0 -0.35721247557E+03  0.12184071685E+04 -0.21017089734E+03  0.12960247837E+04  0.15294330000E+03 0.  0.
    8880022    1    1    2    0    0  0.35721247557E+03 -0.12184071685E+04 -0.13790430230E+04  0.18807626361E+04  0.15294330000E+03 0.  0.
<mgrwt>
<rscale>  0 0.12788700E+04</rscale>
<asrwt>0</asrwt>
<pdfrwt beam="1">  1        2 0.36661548E+00 0.12788700E+04</pdfrwt>
<pdfrwt beam="2">  1       -2 0.12212104E+00 0.12788700E+04</pdfrwt>
<totfact> 0.20054658E+00</totfact>
</mgrwt>
</event>
<event>
 4    1  0.1701380E-008  0.6948547E+03  0.7818608E-02  0.9726072E-01
         -2   -1    0    0    0  501 -0.00000000000E+00  0.00000000000E+00  0.42763381264E+03  0.42763381265E+03  0.25500000000E-02 0.  1.
          2   -1    0    0  501    0  0.00000000000E+00 -0.00000000000E+00 -0.17474213570E+04  0.17474213570E+04  0.25500000000E-02 0. -1.
    8880022    1    1    2    0    0 -0.29491250466E+03  0.61029333552E+03 -0.12954300049E+02  0.69497540078E+03  0.15294330000E+03 0.  0.
    8880022    1    1    2    0    0  0.29491250466E+03 -0.61029333552E+03 -0.13068332443E+04  0.14800797689E+04  0.15294330000E+03 0.  0.
<mgrwt>
<rscale>  0 0.69485466E+03</rscale>
<asrwt>0</asrwt>
<pdfrwt beam="1">  1        2 0.26883405E+00 0.69485466E+03</pdfrwt>
<pdfrwt beam="2">  1       -2 0.65789818E-01 0.69485466E+03</pdfrwt>
<totfact> 0.20344890E+01</totfact>
</mgrwt>
</event>
<event>
 4    1  0.1701380E-008  0.8764624E+03  0.7818608E-02  0.9455492E-01
          2   -1    0    0  501    0  0.00000000000E+00  0.00000000000E+00  0.18207339021E+04  0.18207339021E+04  0.25500000000E-02 0. -1.
         -2   -1    0    0    0  501 -0.00000000000E+00 -0.00000000000E+00 -0.46448659908E+03  0.46448659908E+03  0.25500000000E-02 0.  1.
    8880022    1    1    2    0    0 -0.21478129186E+03  0.83586108457E+03  0.10240593758E+04  0.13479184004E+04  0.15294330000E+03 0.  0.
    8880022    1    1    2    0    0  0.21478129186E+03 -0.83586108457E+03  0.33218792720E+03  0.93730210073E+03  0.15294330000E+03 0.  0.
<mgrwt>
<rscale>  0 0.87646244E+03</rscale>
<asrwt>0</asrwt>
<pdfrwt beam="1">  1        2 0.28011290E+00 0.87646244E+03</pdfrwt>
<pdfrwt beam="2">  1       -2 0.71459478E-01 0.87646244E+03</pdfrwt>
<totfact> 0.15142767E+01</totfact>
</mgrwt>
</event>
<event>
 4    1  0.1701380E-008  0.5422385E+03  0.7818608E-02  0.1003307E+00
          2   -1    0    0  501    0  0.00000000000E+00  0.00000000000E+00  0.14908174936E+04  0.14908174936E+04  0.25500000000E-02 0. -1.
         -2   -1    0    0    0  501 -0.00000000000E+00 -0.00000000000E+00 -0.71687974285E+03  0.71687974285E+03  0.25500000000E-02 0.  1.
    8880022    1    1    2    0    0  0.23556153318E+03  0.46383374254E+03 -0.55285157518E+03  0.77438200768E+03  0.15294330000E+03 0.  0.
    8880022    1    1    2    0    0 -0.23556153318E+03 -0.46383374254E+03  0.13267893259E+04  0.14333152288E+04  0.15294330000E+03 0.  0.
<mgrwt>
<rscale>  0 0.54223854E+03</rscale>
<asrwt>0</asrwt>
<pdfrwt beam="1">  1        2 0.22935653E+00 0.54223854E+03</pdfrwt>
<pdfrwt beam="2">  1       -2 0.11028919E+00 0.54223854E+03</pdfrwt>
<totfact> 0.88906265E+00</totfact>
</mgrwt>
</event>
<event>
 4    1  0.1701380E-008  0.1004805E+04  0.7818608E-02  0.9303290E-01
         -2   -1    0    0    0  501 -0.00000000000E+00  0.00000000000E+00  0.10490187324E+04  0.10490187324E+04  0.25500000000E-02 0.  1.
          2   -1    0    0  501    0  0.00000000000E+00 -0.00000000000E+00 -0.19746179219E+04  0.19746179219E+04  0.25500000000E-02 0. -1.
    8880022    1    1    2    0    0  0.45279615575E+03  0.88386528844E+03  0.61958890930E+03  0.11804762921E+04  0.15294330000E+03 0.  0.
    8880022    1    1    2    0    0 -0.45279615575E+03 -0.88386528844E+03 -0.15451880988E+04  0.18431603621E+04  0.15294330000E+03 0.  0.
<mgrwt>
<rscale>  0 0.10048054E+04</rscale>
<asrwt>0</asrwt>
<pdfrwt beam="1">  1        2 0.30378737E+00 0.10048054E+04</pdfrwt>
<pdfrwt beam="2">  1       -2 0.16138750E+00 0.10048054E+04</pdfrwt>
<totfact> 0.16922602E+00</totfact>
</mgrwt>
</event>
<event>
 4    1  0.1701380E-008  0.3419915E+03  0.7818608E-02  0.1065951E+00
         -2   -1    0    0    0  501 -0.00000000000E+00  0.00000000000E+00  0.34226644924E+03  0.34226644925E+03  0.25500000000E-02 0.  1.
          2   -1    0    0  501    0  0.00000000000E+00 -0.00000000000E+00 -0.76419888239E+03  0.76419888239E+03  0.25500000000E-02 0. -1.
    8880022    1    1    2    0    0  0.42805409923E+02  0.30287658698E+03  0.20038120823E+03  0.39637206219E+03  0.15294330000E+03 0.  0.
    8880022    1    1    2    0    0 -0.42805409923E+02 -0.30287658698E+03 -0.62231364138E+03  0.71009326945E+03  0.15294330000E+03 0.  0.
<mgrwt>
<rscale>  0 0.34199150E+03</rscale>
<asrwt>0</asrwt>
<pdfrwt beam="1">  1        2 0.11756906E+00 0.34199150E+03</pdfrwt>
<pdfrwt beam="2">  1       -2 0.52656377E-01 0.34199150E+03</pdfrwt>
<totfact> 0.13034607E+02</totfact>
</mgrwt>
</event>
<event>
 4    1  0.1701380E-008  0.7209990E+03  0.7818608E-02  0.9681980E-01
          2   -1    0    0  501    0  0.00000000000E+00  0.00000000000E+00  0.19686482299E+04  0.19686482299E+04  0.25500000000E-02 0. -1.
         -2   -1    0    0    0  501 -0.00000000000E+00 -0.00000000000E+00 -0.63711630735E+03  0.63711630736E+03  0.25500000000E-02 0.  1.
    8880022    1    1    2    0    0 -0.13077779824E+03  0.69234751444E+03 -0.33120728660E+03  0.79343420205E+03  0.15294330000E+03 0.  0.
    8880022    1    1    2    0    0  0.13077779824E+03 -0.69234751444E+03  0.16627392091E+04  0.18123303352E+04  0.15294330000E+03 0.  0.
<mgrwt>
<rscale>  0 0.72099901E+03</rscale>
<asrwt>0</asrwt>
<pdfrwt beam="1">  1        2 0.30286896E+00 0.72099901E+03</pdfrwt>
<pdfrwt beam="2">  1       -2 0.98017893E-01 0.72099901E+03</pdfrwt>
<totfact> 0.62640244E+00</totfact>
</mgrwt>
</event>
<event>
 4    1  0.1701380E-008  0.8260993E+03  0.7818608E-02  0.9522989E-01
         -2   -1    0    0    0  501 -0.00000000000E+00  0.00000000000E+00  0.25816900904E+03  0.25816900906E+03  0.25500000000E-02 0.  1.
          2   -1    0    0  501    0  0.00000000000E+00 -0.00000000000E+00 -0.33485026023E+04  0.33485026023E+04  0.25500000000E-02 0. -1.
    8880022    1    1    2    0    0 -0.80002743456E+03  0.13785685974E+03 -0.71763995162E+03  0.10942792893E+04  0.15294330000E+03 0.  0.
    8880022    1    1    2    0    0  0.80002743456E+03 -0.13785685974E+03 -0.23726936417E+04  0.25123923221E+04  0.15294330000E+03 0.  0.
<mgrwt>
<rscale>  0 0.82609931E+03</rscale>
<asrwt>0</asrwt>
<pdfrwt beam="1">  1        2 0.51515422E+00 0.82609931E+03</pdfrwt>
<pdfrwt beam="2">  1       -2 0.39718311E-01 0.82609931E+03</pdfrwt>
<totfact> 0.65786388E+00</totfact>
</mgrwt>
</event>
<event>
 4    1  0.1701380E-008  0.8699436E+03  0.7818608E-02  0.9463954E-01
          2   -1    0    0  501    0  0.00000000000E+00  0.00000000000E+00  0.14006165176E+04  0.14006165176E+04  0.25500000000E-02 0. -1.
         -2   -1    0    0    0  501 -0.00000000000E+00 -0.00000000000E+00 -0.10969737923E+04  0.10969737923E+04  0.25500000000E-02 0.  1.
    8880022    1    1    2    0    0  0.33883342414E+03 -0.78651259637E+03  0.10413909004E+04  0.13569439245E+04  0.15294330000E+03 0.  0.
    8880022    1    1    2    0    0 -0.33883342414E+03  0.78651259637E+03 -0.73774817514E+03  0.11406463854E+04  0.15294330000E+03 0.  0.
<mgrwt>
<rscale>  0 0.86994357E+03</rscale>
<asrwt>0</asrwt>
<pdfrwt beam="1">  1        2 0.21547946E+00 0.86994357E+03</pdfrwt>
<pdfrwt beam="2">  1       -2 0.16876520E+00 0.86994357E+03</pdfrwt>
<totfact> 0.31712570E+00</totfact>
</mgrwt>
</event>
<event>
 4    1  0.1701380E-008  0.1004993E+04  0.7818608E-02  0.9303086E-01
         -2   -1    0    0    0  501 -0.00000000000E+00  0.00000000000E+00  0.58650358721E+03  0.58650358722E+03  0.25500000000E-02 0.  1.
          2   -1    0    0  501    0  0.00000000000E+00 -0.00000000000E+00 -0.20279383265E+04  0.20279383265E+04  0.25500000000E-02 0. -1.
    8880022    1    1    2    0    0  0.27968333165E+02  0.99289281173E+03 -0.21305258293E+03  0.10273273185E+04  0.15294330000E+03 0.  0.
    8880022    1    1    2    0    0 -0.27968333165E+02 -0.99289281173E+03 -0.12283821564E+04  0.15871145952E+04  0.15294330000E+03 0.  0.
<mgrwt>
<rscale>  0 0.10049925E+04</rscale>
<asrwt>0</asrwt>
<pdfrwt beam="1">  1        2 0.31199051E+00 0.10049925E+04</pdfrwt>
<pdfrwt beam="2">  1       -2 0.90231322E-01 0.10049925E+04</pdfrwt>
<totfact> 0.67793759E+00</totfact>
</mgrwt>
</event>
<event>
 4    1  0.1701380E-008  0.6996187E+03  0.7818608E-02  0.9717885E-01
          2   -1    0    0  501    0  0.00000000000E+00  0.00000000000E+00  0.28753258099E+04  0.28753258099E+04  0.25500000000E-02 0. -1.
         -2   -1    0    0    0  501 -0.00000000000E+00 -0.00000000000E+00 -0.23032920022E+03  0.23032920023E+03  0.25500000000E-02 0.  1.
    8880022    1    1    2    0    0  0.49341574271E+03 -0.47182147963E+03  0.21157000013E+04  0.22283744641E+04  0.15294330000E+03 0.  0.
    8880022    1    1    2    0    0 -0.49341574271E+03  0.47182147963E+03  0.52929660842E+03  0.87728054606E+03  0.15294330000E+03 0.  0.
<mgrwt>
<rscale>  0 0.69961865E+03</rscale>
<asrwt>0</asrwt>
<pdfrwt beam="1">  1        2 0.44235780E+00 0.69961865E+03</pdfrwt>
<pdfrwt beam="2">  1       -2 0.35435263E-01 0.69961865E+03</pdfrwt>
<totfact> 0.16590687E+01</totfact>
</mgrwt>
</event>
<event>
 4    1  0.1701380E-008  0.3717821E+03  0.7818608E-02  0.1054014E+00
          2   -1    0    0  501    0  0.00000000000E+00  0.00000000000E+00  0.17610893739E+04  0.17610893739E+04  0.25500000000E-02 0. -1.
         -2   -1    0    0    0  501 -0.00000000000E+00 -0.00000000000E+00 -0.21570689508E+03  0.21570689510E+03  0.25500000000E-02 0.  1.
    8880022    1    1    2    0    0 -0.31623516680E+03 -0.12176034607E+03  0.15610231004E+04  0.16046853385E+04  0.15294330000E+03 0.  0.
    8880022    1    1    2    0    0  0.31623516680E+03  0.12176034607E+03 -0.15640621509E+02  0.37211093058E+03  0.15294330000E+03 0.  1.
<mgrwt>
<rscale>  0 0.37178208E+03</rscale>
<asrwt>0</asrwt>
<pdfrwt beam="1">  1        2 0.27093684E+00 0.37178208E+03</pdfrwt>
<pdfrwt beam="2">  1       -2 0.33185675E-01 0.37178208E+03</pdfrwt>
<totfact> 0.83098277E+01</totfact>
</mgrwt>
</event>
<event>
 4    1  0.1701380E-008  0.3352392E+03  0.7818608E-02  0.1068842E+00
          2   -1    0    0  501    0  0.00000000000E+00  0.00000000000E+00  0.13511565778E+03  0.13511565781E+03  0.25500000000E-02 0. -1.
         -2   -1    0    0    0  501 -0.00000000000E+00 -0.00000000000E+00 -0.19897466173E+04  0.19897466173E+04  0.25500000000E-02 0.  1.
    8880022    1    1    2    0    0 -0.19058340381E+03  0.22950305319E+03 -0.17378127147E+04  0.17698526407E+04  0.15294330000E+03 0.  0.
    8880022    1    1    2    0    0  0.19058340381E+03 -0.22950305319E+03 -0.11681824484E+03  0.35500963448E+03  0.15294330000E+03 0.  0.
<mgrwt>
<rscale>  0 0.33523923E+03</rscale>
<asrwt>0</asrwt>
<pdfrwt beam="1">  1        2 0.20787026E-01 0.33523923E+03</pdfrwt>
<pdfrwt beam="2">  1       -2 0.30611484E+00 0.33523923E+03</pdfrwt>
<totfact> 0.88151283E+00</totfact>
</mgrwt>
</event>
<event>
 4    1  0.1701380E-008  0.7535227E+03  0.7818608E-02  0.9629840E-01
          2   -1    0    0  501    0  0.00000000000E+00  0.00000000000E+00  0.89833184594E+03  0.89833184595E+03  0.25500000000E-02 0. -1.
         -2   -1    0    0    0  501 -0.00000000000E+00 -0.00000000000E+00 -0.13384105055E+04  0.13384105055E+04  0.25500000000E-02 0.  1.
    8880022    1    1    2    0    0 -0.20796355788E+03  0.70792366682E+03  0.59242167751E+03  0.95851961714E+03  0.15294330000E+03 0.  0.
    8880022    1    1    2    0    0  0.20796355788E+03 -0.70792366682E+03 -0.10325003371E+04  0.12782227343E+04  0.15294330000E+03 0.  0.
<mgrwt>
<rscale>  0 0.75352267E+03</rscale>
<asrwt>0</asrwt>
<pdfrwt beam="1">  1        2 0.13820490E+00 0.75352267E+03</pdfrwt>
<pdfrwt beam="2">  1       -2 0.20590931E+00 0.75352267E+03</pdfrwt>
<totfact> 0.36612855E+00</totfact>
</mgrwt>
</event>
<event>
 4    1  0.1701380E-008  0.5527874E+03  0.7818608E-02  0.1000851E+00
         -2   -1    0    0    0  501 -0.00000000000E+00  0.00000000000E+00  0.29233742046E+03  0.29233742048E+03  0.25500000000E-02 0.  1.
          2   -1    0    0  501    0  0.00000000000E+00 -0.00000000000E+00 -0.10682929477E+04  0.10682929477E+04  0.25500000000E-02 0. -1.
    8880022    1    1    2    0    0 -0.13714308923E+03  0.51319983578E+03 -0.48783222850E+03  0.73726130682E+03  0.15294330000E+03 0. -1.
    8880022    1    1    2    0    0  0.13714308923E+03 -0.51319983578E+03 -0.28812329874E+03  0.62336906136E+03  0.15294330000E+03 0.  1.
<mgrwt>
<rscale>  0 0.55278744E+03</rscale>
<asrwt>0</asrwt>
<pdfrwt beam="1">  1        2 0.16435276E+00 0.55278744E+03</pdfrwt>
<pdfrwt beam="2">  1       -2 0.44974988E-01 0.55278744E+03</pdfrwt>
<totfact> 0.11019611E+02</totfact>
</mgrwt>
</event>
<event>
 4    1  0.1701380E-008  0.1124881E+04  0.7818608E-02  0.9181275E-01
          2   -1    0    0  501    0  0.00000000000E+00  0.00000000000E+00  0.37810365447E+04  0.37810365447E+04  0.25500000000E-02 0. -1.
         -2   -1    0    0    0  501 -0.00000000000E+00 -0.00000000000E+00 -0.50134983352E+03  0.50134983352E+03  0.25500000000E-02 0.  1.
    8880022    1    1    2    0    0  0.52352157558E+03 -0.98381450263E+03  0.40520027567E+03  0.11956357021E+04  0.15294330000E+03 0.  0.
    8880022    1    1    2    0    0 -0.52352157558E+03  0.98381450263E+03  0.28744864355E+04  0.30867506761E+04  0.15294330000E+03 0.  0.
<mgrwt>
<rscale>  0 0.11248811E+04</rscale>
<asrwt>0</asrwt>
<pdfrwt beam="1">  1        2 0.58169795E+00 0.11248811E+04</pdfrwt>
<pdfrwt beam="2">  1       -2 0.77130741E-01 0.11248811E+04</pdfrwt>
<totfact> 0.77898882E-01</totfact>
</mgrwt>
</event>
<event>
 4    1  0.1701380E-008  0.7769142E+03  0.7818608E-02  0.9594047E-01
         -2   -1    0    0    0  501 -0.00000000000E+00  0.00000000000E+00  0.43462014969E+03  0.43462014970E+03  0.25500000000E-02 0.  1.
          2   -1    0    0  501    0  0.00000000000E+00 -0.00000000000E+00 -0.30919134174E+04  0.30919134174E+04  0.25500000000E-02 0. -1.
    8880022    1    1    2    0    0 -0.24818965342E+03 -0.72014295360E+03 -0.26373088617E+04  0.27493624102E+04  0.15294330000E+03 0.  0.
    8880022    1    1    2    0    0  0.24818965342E+03  0.72014295360E+03 -0.19984406070E+02  0.77717115694E+03  0.15294330000E+03 0.  0.
<mgrwt>
<rscale>  0 0.77691417E+03</rscale>
<asrwt>0</asrwt>
<pdfrwt beam="1">  1        2 0.47567897E+00 0.77691417E+03</pdfrwt>
<pdfrwt beam="2">  1       -2 0.66864641E-01 0.77691417E+03</pdfrwt>
<totfact> 0.33295122E+00</totfact>
</mgrwt>
</event>
<event>
 4    1  0.1701380E-008  0.6585987E+03  0.7818608E-02  0.9790777E-01
          2   -1    0    0  501    0  0.00000000000E+00  0.00000000000E+00  0.17847439459E+04  0.17847439459E+04  0.25500000000E-02 0. -1.
         -2   -1    0    0    0  501 -0.00000000000E+00 -0.00000000000E+00 -0.29303851175E+03  0.29303851176E+03  0.25500000000E-02 0.  1.
    8880022    1    1    2    0    0  0.61337787715E+03 -0.18473796215E+03  0.11750089464E+04  0.13469959955E+04  0.15294330000E+03 0.  0.
    8880022    1    1    2    0    0 -0.61337787715E+03  0.18473796215E+03  0.31669648772E+03  0.73078646210E+03  0.15294330000E+03 0.  0.
<mgrwt>
<rscale>  0 0.65859865E+03</rscale>
<asrwt>0</asrwt>
<pdfrwt beam="1">  1        2 0.27457600E+00 0.65859865E+03</pdfrwt>
<pdfrwt beam="2">  1       -2 0.45082847E-01 0.65859865E+03</pdfrwt>
<totfact> 0.42646999E+01</totfact>
</mgrwt>
</event>
<event>
 4    1  0.1701380E-008  0.1804672E+04  0.7818608E-02  0.8703819E-01
         -2   -1    0    0    0  501 -0.00000000000E+00  0.00000000000E+00  0.17424784557E+04  0.17424784557E+04  0.25500000000E-02 0.  1.
          2   -1    0    0  501    0  0.00000000000E+00 -0.00000000000E+00 -0.22695113230E+04  0.22695113230E+04  0.25500000000E-02 0. -1.
    8880022    1    1    2    0    0  0.52725885396E+03 -0.17191413141E+04 -0.11061231848E+04  0.21166834695E+04  0.15294330000E+03 0.  0.
    8880022    1    1    2    0    0 -0.52725885396E+03  0.17191413141E+04  0.57909031747E+03  0.18953063092E+04  0.15294330000E+03 0.  0.
<mgrwt>
<rscale>  0 0.18046718E+04</rscale>
<asrwt>0</asrwt>
<pdfrwt beam="1">  1        2 0.34915559E+00 0.18046718E+04</pdfrwt>
<pdfrwt beam="2">  1       -2 0.26807361E+00 0.18046718E+04</pdfrwt>
<totfact> 0.21301281E-01</totfact>
</mgrwt>
</event>
<event>
 4    1  0.1701380E-008  0.2557687E+03  0.7818608E-02  0.1109712E+00
         -2   -1    0    0    0  501 -0.00000000000E+00  0.00000000000E+00  0.55541002754E+02  0.55541002813E+02  0.25500000000E-02 0.  1.
          2   -1    0    0  501    0  0.00000000000E+00 -0.00000000000E+00 -0.21221209029E+04  0.21221209029E+04  0.25500000000E-02 0. -1.
    8880022    1    1    2    0    0 -0.24316541324E+02  0.20355509521E+03 -0.17596120755E+04  0.17781035629E+04  0.15294330000E+03 0.  0.
    8880022    1    1    2    0    0  0.24316541324E+02 -0.20355509521E+03 -0.30696782466E+03  0.39955834287E+03  0.15294330000E+03 0.  0.
<mgrwt>
<rscale>  0 0.25576869E+03</rscale>
<asrwt>0</asrwt>
<pdfrwt beam="1">  1        2 0.32648008E+00 0.25576869E+03</pdfrwt>
<pdfrwt beam="2">  1       -2 0.85447713E-02 0.25576869E+03</pdfrwt>
<totfact> 0.54801241E+02</totfact>
</mgrwt>
</event>
<event>
 4    1  0.1701380E-008  0.8088524E+03  0.7818608E-02  0.9547291E-01
         -2   -1    0    0    0  501 -0.00000000000E+00  0.00000000000E+00  0.18159928846E+04  0.18159928846E+04  0.25500000000E-02 0.  1.
          2   -1    0    0  501    0  0.00000000000E+00 -0.00000000000E+00 -0.20909376714E+04  0.20909376714E+04  0.25500000000E-02 0. -1.
    8880022    1    1    2    0    0 -0.72935012267E+03 -0.31448199563E+03  0.16397524625E+04  0.18283955584E+04  0.15294330000E+03 0.  0.
    8880022    1    1    2    0    0  0.72935012267E+03  0.31448199563E+03 -0.19146972492E+04  0.20785349976E+04  0.15294330000E+03 0.  0.
<mgrwt>
<rscale>  0 0.80885238E+03</rscale>
<asrwt>0</asrwt>
<pdfrwt beam="1">  1        2 0.32168272E+00 0.80885238E+03</pdfrwt>
<pdfrwt beam="2">  1       -2 0.27938352E+00 0.80885238E+03</pdfrwt>
<totfact> 0.26483930E-01</totfact>
</mgrwt>
</event>
<event>
 4    1  0.1701380E-008  0.7985913E+03  0.7818608E-02  0.9562058E-01
          2   -1    0    0  501    0  0.00000000000E+00  0.00000000000E+00  0.23217047279E+04  0.23217047279E+04  0.25500000000E-02 0. -1.
         -2   -1    0    0    0  501 -0.00000000000E+00 -0.00000000000E+00 -0.13816919073E+04  0.13816919073E+04  0.25500000000E-02 0.  1.
    8880022    1    1    2    0    0  0.15274450981E+03 -0.76878183594E+03  0.21274505330E+04  0.22723982529E+04  0.15294330000E+03 0.  0.
    8880022    1    1    2    0    0 -0.15274450981E+03  0.76878183594E+03 -0.11874377123E+04  0.14309983823E+04  0.15294330000E+03 0.  0.
<mgrwt>
<rscale>  0 0.79859129E+03</rscale>
<asrwt>0</asrwt>
<pdfrwt beam="1">  1        2 0.35718534E+00 0.79859129E+03</pdfrwt>
<pdfrwt beam="2">  1       -2 0.21256799E+00 0.79859129E+03</pdfrwt>
<totfact> 0.50698296E-01</totfact>
</mgrwt>
</event>
<event>
 4    1  0.1701380E-008  0.1015805E+04  0.7818608E-02  0.9291378E-01
          2   -1    0    0  501    0  0.00000000000E+00  0.00000000000E+00  0.11880870241E+04  0.11880870241E+04  0.25500000000E-02 0. -1.
         -2   -1    0    0    0  501 -0.00000000000E+00 -0.00000000000E+00 -0.95319177469E+03  0.95319177470E+03  0.25500000000E-02 0.  1.
    8880022    1    1    2    0    0 -0.96813674926E+03  0.26679301951E+03  0.43657359064E+03  0.11056470656E+04  0.15294330000E+03 0.  0.
    8880022    1    1    2    0    0  0.96813674926E+03 -0.26679301951E+03 -0.20167834125E+03  0.10356317332E+04  0.15294330000E+03 0.  0.
<mgrwt>
<rscale>  0 0.10158046E+04</rscale>
<asrwt>0</asrwt>
<pdfrwt beam="1">  1        2 0.18278262E+00 0.10158046E+04</pdfrwt>
<pdfrwt beam="2">  1       -2 0.14664489E+00 0.10158046E+04</pdfrwt>
<totfact> 0.60627532E+00</totfact>
</mgrwt>
</event>
<event>
 4    1  0.1701380E-008  0.2655653E+03  0.7818608E-02  0.1103845E+00
         -2   -1    0    0    0  501 -0.00000000000E+00  0.00000000000E+00  0.69547959139E+03  0.69547959139E+03  0.25500000000E-02 0.  1.
          2   -1    0    0  501    0  0.00000000000E+00 -0.00000000000E+00 -0.65512107607E+03  0.65512107607E+03  0.25500000000E-02 0. -1.
    8880022    1    1    2    0    0 -0.14482420438E+03 -0.16173812222E+03  0.64101948462E+03  0.69385221988E+03  0.15294330000E+03 0.  1.
    8880022    1    1    2    0    0  0.14482420438E+03  0.16173812222E+03 -0.60066096930E+03  0.65674844759E+03  0.15294330000E+03 0.  0.
<mgrwt>
<rscale>  0 0.26556529E+03</rscale>
<asrwt>0</asrwt>
<pdfrwt beam="1">  1        2 0.10078786E+00 0.26556529E+03</pdfrwt>
<pdfrwt beam="2">  1       -2 0.10699686E+00 0.26556529E+03</pdfrwt>
<totfact> 0.33764234E+01</totfact>
</mgrwt>
</event>
<event>
 4    1  0.1701380E-008  0.1049357E+04  0.7818608E-02  0.9256008E-01
         -2   -1    0    0    0  501 -0.00000000000E+00  0.00000000000E+00  0.85701241340E+03  0.85701241340E+03  0.25500000000E-02 0.  1.
          2   -1    0    0  501    0  0.00000000000E+00 -0.00000000000E+00 -0.20491678270E+04  0.20491678270E+04  0.25500000000E-02 0. -1.
    8880022    1    1    2    0    0  0.10301880173E+04  0.12834267849E+03  0.29135343423E+03  0.10890535666E+04  0.15294330000E+03 0.  0.
    8880022    1    1    2    0    0 -0.10301880173E+04 -0.12834267849E+03 -0.14835088478E+04  0.18171266738E+04  0.15294330000E+03 0.  0.
<mgrwt>
<rscale>  0 0.10493573E+04</rscale>
<asrwt>0</asrwt>
<pdfrwt beam="1">  1        2 0.31525659E+00 0.10493573E+04</pdfrwt>
<pdfrwt beam="2">  1       -2 0.13184806E+00 0.10493573E+04</pdfrwt>
<totfact> 0.26090168E+00</totfact>
</mgrwt>
</event>
<event>
 4    1  0.1701380E-008  0.7488471E+03  0.7818608E-02  0.9637161E-01
          2   -1    0    0  501    0  0.00000000000E+00  0.00000000000E+00  0.12112548373E+04  0.12112548373E+04  0.25500000000E-02 0. -1.
         -2   -1    0    0    0  501 -0.00000000000E+00 -0.00000000000E+00 -0.91675674077E+03  0.91675674078E+03  0.25500000000E-02 0.  1.
    8880022    1    1    2    0    0 -0.48420050950E+03 -0.55039096821E+03 -0.60134071151E+03  0.96040754663E+03  0.15294330000E+03 0.  0.
    8880022    1    1    2    0    0  0.48420050950E+03  0.55039096821E+03  0.89583880807E+03  0.11676040315E+04  0.15294330000E+03 0.  0.
<mgrwt>
<rscale>  0 0.74884712E+03</rscale>
<asrwt>0</asrwt>
<pdfrwt beam="1">  1        2 0.18634690E+00 0.74884712E+03</pdfrwt>
<pdfrwt beam="2">  1       -2 0.14103950E+00 0.74884712E+03</pdfrwt>
<totfact> 0.67087956E+00</totfact>
</mgrwt>
</event>
<event>
 4    1  0.1701380E-008  0.5253905E+03  0.7818608E-02  0.1007356E+00
         -2   -1    0    0    0  501 -0.00000000000E+00  0.00000000000E+00  0.43214411406E+03  0.43214411407E+03  0.25500000000E-02 0.  1.
          2   -1    0    0  501    0  0.00000000000E+00 -0.00000000000E+00 -0.93537718319E+03  0.93537718320E+03  0.25500000000E-02 0. -1.
    8880022    1    1    2    0    0 -0.42348534640E+03  0.27074647861E+03  0.13342798712E+03  0.54206842286E+03  0.15294330000E+03 0.  1.
    8880022    1    1    2    0    0  0.42348534640E+03 -0.27074647861E+03 -0.63666105625E+03  0.82545287440E+03  0.15294330000E+03 0.  0.
<mgrwt>
<rscale>  0 0.52539047E+03</rscale>
<asrwt>0</asrwt>
<pdfrwt beam="1">  1        2 0.14390418E+00 0.52539047E+03</pdfrwt>
<pdfrwt beam="2">  1       -2 0.66483710E-01 0.52539047E+03</pdfrwt>
<totfact> 0.59852068E+01</totfact>
</mgrwt>
</event>
<event>
 4    1  0.1701380E-008  0.4609704E+03  0.7818608E-02  0.1024500E+00
         -2   -1    0    0    0  501 -0.00000000000E+00  0.00000000000E+00  0.58152294359E+03  0.58152294359E+03  0.25500000000E-02 0.  1.
          2   -1    0    0  501    0  0.00000000000E+00 -0.00000000000E+00 -0.58205920911E+03  0.58205920912E+03  0.25500000000E-02 0. -1.
    8880022    1    1    2    0    0  0.41270820278E+03  0.13701832058E+03 -0.35521471686E+03  0.58195466224E+03  0.15294330000E+03 0.  0.
    8880022    1    1    2    0    0 -0.41270820278E+03 -0.13701832058E+03  0.35467845133E+03  0.58162749047E+03  0.15294330000E+03 0.  0.
<mgrwt>
<rscale>  0 0.46097043E+03</rscale>
<asrwt>0</asrwt>
<pdfrwt beam="1">  1        2 0.89547571E-01 0.46097043E+03</pdfrwt>
<pdfrwt beam="2">  1       -2 0.89465068E-01 0.46097043E+03</pdfrwt>
<totfact> 0.57179995E+01</totfact>
</mgrwt>
</event>
<event>
 4    1  0.1701380E-008  0.5053230E+03  0.7818608E-02  0.1012399E+00
         -2   -1    0    0    0  501 -0.00000000000E+00  0.00000000000E+00  0.58034553282E+03  0.58034553282E+03  0.25500000000E-02 0.  1.
          2   -1    0    0  501    0  0.00000000000E+00 -0.00000000000E+00 -0.66955020225E+03  0.66955020226E+03  0.25500000000E-02 0. -1.
    8880022    1    1    2    0    0  0.45724080651E+03  0.15129604198E+03  0.32132281059E+03  0.59883190386E+03  0.15294330000E+03 0.  0.
    8880022    1    1    2    0    0 -0.45724080651E+03 -0.15129604198E+03 -0.41052748003E+03  0.65106383122E+03  0.15294330000E+03 0.  0.
<mgrwt>
<rscale>  0 0.50532297E+03</rscale>
<asrwt>0</asrwt>
<pdfrwt beam="1">  1        2 0.10300772E+00 0.50532297E+03</pdfrwt>
<pdfrwt beam="2">  1       -2 0.89283928E-01 0.50532297E+03</pdfrwt>
<totfact> 0.48298814E+01</totfact>
</mgrwt>
</event>
<event>
 4    1  0.1701380E-008  0.1195404E+04  0.7818608E-02  0.9116889E-01
         -2   -1    0    0    0  501 -0.00000000000E+00  0.00000000000E+00  0.65490149735E+03  0.65490149735E+03  0.25500000000E-02 0.  1.
          2   -1    0    0  501    0  0.00000000000E+00 -0.00000000000E+00 -0.24441948953E+04  0.24441948953E+04  0.25500000000E-02 0. -1.
    8880022    1    1    2    0    0 -0.64371315773E+03 -0.99560713750E+03 -0.14021669208E+04  0.18425699250E+04  0.15294330000E+03 0.  0.
    8880022    1    1    2    0    0  0.64371315773E+03  0.99560713750E+03 -0.38712647718E+03  0.12565264677E+04  0.15294330000E+03 0.  0.
<mgrwt>
<rscale>  0 0.11954045E+04</rscale>
<asrwt>0</asrwt>
<pdfrwt beam="1">  1        2 0.37602998E+00 0.11954045E+04</pdfrwt>
<pdfrwt beam="2">  1       -2 0.10075408E+00 0.11954045E+04</pdfrwt>
<totfact> 0.29910787E+00</totfact>
</mgrwt>
</event>
<event>
 4    1  0.1701380E-008  0.1227701E+04  0.7818608E-02  0.9088950E-01
         -2   -1    0    0    0  501 -0.00000000000E+00  0.00000000000E+00  0.13581991922E+04  0.13581991922E+04  0.25500000000E-02 0.  1.
          2   -1    0    0  501    0  0.00000000000E+00 -0.00000000000E+00 -0.15876504012E+04  0.15876504012E+04  0.25500000000E-02 0. -1.
    8880022    1    1    2    0    0  0.32672172482E+03 -0.11735032764E+04  0.69339492506E+03  0.14099805673E+04  0.15294330000E+03 0.  0.
    8880022    1    1    2    0    0 -0.32672172482E+03  0.11735032764E+04 -0.92284613403E+03  0.15358690261E+04  0.15294330000E+03 0.  0.
<mgrwt>
<rscale>  0 0.12277006E+04</rscale>
<asrwt>0</asrwt>
<pdfrwt beam="1">  1        2 0.24425391E+00 0.12277006E+04</pdfrwt>
<pdfrwt beam="2">  1       -2 0.20895372E+00 0.12277006E+04</pdfrwt>
<totfact> 0.12743826E+00</totfact>
</mgrwt>
</event>
<event>
 4    1  0.1701380E-008  0.8275580E+03  0.7818608E-02  0.9520963E-01
         -2   -1    0    0    0  501 -0.00000000000E+00  0.00000000000E+00  0.14276098490E+04  0.14276098490E+04  0.25500000000E-02 0.  1.
          2   -1    0    0  501    0  0.00000000000E+00 -0.00000000000E+00 -0.62645937179E+03  0.62645937179E+03  0.25500000000E-02 0. -1.
    8880022    1    1    2    0    0 -0.80663749704E+03  0.10390639745E+03 -0.96489243864E+02  0.83316410043E+03  0.15294330000E+03 0.  0.
    8880022    1    1    2    0    0  0.80663749704E+03 -0.10390639745E+03  0.89763972109E+03  0.12209051204E+04  0.15294330000E+03 0.  0.
<mgrwt>
<rscale>  0 0.82755800E+03</rscale>
<asrwt>0</asrwt>
<pdfrwt beam="1">  1        2 0.96378366E-01 0.82755800E+03</pdfrwt>
<pdfrwt beam="2">  1       -2 0.21963228E+00 0.82755800E+03</pdfrwt>
<totfact> 0.47411342E+00</totfact>
</mgrwt>
</event>
<event>
 4    1  0.1701380E-008  0.6578426E+03  0.7818608E-02  0.9792173E-01
         -2   -1    0    0    0  501 -0.00000000000E+00  0.00000000000E+00  0.73365477343E+03  0.73365477343E+03  0.25500000000E-02 0.  1.
          2   -1    0    0  501    0  0.00000000000E+00 -0.00000000000E+00 -0.62948909763E+03  0.62948909764E+03  0.25500000000E-02 0. -1.
    8880022    1    1    2    0    0  0.54837548090E+03  0.32962039996E+03  0.22308431180E+03  0.69463914324E+03  0.15294330000E+03 0.  0.
    8880022    1    1    2    0    0 -0.54837548090E+03 -0.32962039996E+03 -0.11891863601E+03  0.66850472783E+03  0.15294330000E+03 0.  0.
<mgrwt>
<rscale>  0 0.65784263E+03</rscale>
<asrwt>0</asrwt>
<pdfrwt beam="1">  1        2 0.96844477E-01 0.65784263E+03</pdfrwt>
<pdfrwt beam="2">  1       -2 0.11286996E+00 0.65784263E+03</pdfrwt>
<totfact> 0.29483419E+01</totfact>
</mgrwt>
</event>
<event>
 4    1  0.1701380E-008  0.1436050E+04  0.7818608E-02  0.8928129E-01
          2   -1    0    0  501    0  0.00000000000E+00  0.00000000000E+00  0.37424222739E+04  0.37424222739E+04  0.25500000000E-02 0. -1.
         -2   -1    0    0    0  501 -0.00000000000E+00 -0.00000000000E+00 -0.62530592046E+03  0.62530592047E+03  0.25500000000E-02 0.  1.
    8880022    1    1    2    0    0  0.90301566337E+03  0.11060790232E+04  0.23111545273E+04  0.27209694956E+04  0.15294330000E+03 0.  0.
    8880022    1    1    2    0    0 -0.90301566337E+03 -0.11060790232E+04  0.80596182618E+03  0.16467586988E+04  0.15294330000E+03 0.  0.
<mgrwt>
<rscale>  0 0.14360501E+04</rscale>
<asrwt>0</asrwt>
<pdfrwt beam="1">  1        2 0.57575729E+00 0.14360501E+04</pdfrwt>
<pdfrwt beam="2">  1       -2 0.96200908E-01 0.14360501E+04</pdfrwt>
<totfact> 0.47852593E-01</totfact>
</mgrwt>
</event>
<event>
 4    1  0.1701380E-008  0.7550751E+03  0.7818608E-02  0.9627422E-01
         -2   -1    0    0    0  501 -0.00000000000E+00  0.00000000000E+00  0.12533787130E+04  0.12533787130E+04  0.25500000000E-02 0.  1.
          2   -1    0    0  501    0  0.00000000000E+00 -0.00000000000E+00 -0.60757482152E+03  0.60757482153E+03  0.25500000000E-02 0. -1.
    8880022    1    1    2    0    0 -0.67985825777E+03 -0.29075667100E+03 -0.14355995156E+03  0.76860120029E+03  0.15294330000E+03 0.  0.
    8880022    1    1    2    0    0  0.67985825777E+03  0.29075667100E+03  0.78936384301E+03  0.10923523342E+04  0.15294330000E+03 0.  0.
<mgrwt>
<rscale>  0 0.75507506E+03</rscale>
<asrwt>0</asrwt>
<pdfrwt beam="1">  1        2 0.93473050E-01 0.75507506E+03</pdfrwt>
<pdfrwt beam="2">  1       -2 0.19282749E+00 0.75507506E+03</pdfrwt>
<totfact> 0.73823729E+00</totfact>
</mgrwt>
</event>
<event>
 4    1  0.1701380E-008  0.1280737E+04  0.7818608E-02  0.9044982E-01
         -2   -1    0    0    0  501 -0.00000000000E+00  0.00000000000E+00  0.13104516543E+04  0.13104516543E+04  0.25500000000E-02 0.  1.
          2   -1    0    0  501    0  0.00000000000E+00 -0.00000000000E+00 -0.25118550787E+04  0.25118550787E+04  0.25500000000E-02 0. -1.
    8880022    1    1    2    0    0 -0.99540362851E+03 -0.79124481928E+03 -0.19543653550E+04  0.23366284133E+04  0.15294330000E+03 0.  0.
    8880022    1    1    2    0    0  0.99540362851E+03  0.79124481928E+03  0.75296193060E+03  0.14856783197E+04  0.15294330000E+03 0.  0.
<mgrwt>
<rscale>  0 0.12807374E+04</rscale>
<asrwt>0</asrwt>
<pdfrwt beam="1">  1        2 0.38643924E+00 0.12807374E+04</pdfrwt>
<pdfrwt beam="2">  1       -2 0.20160795E+00 0.12807374E+04</pdfrwt>
<totfact> 0.42924462E-01</totfact>
</mgrwt>
</event>
<event>
 4    1  0.1701380E-008  0.2018526E+04  0.7818608E-02  0.8598008E-01
         -2   -1    0    0    0  501 -0.00000000000E+00  0.00000000000E+00  0.18525972215E+04  0.18525972215E+04  0.25500000000E-02 0.  1.
          2   -1    0    0  501    0  0.00000000000E+00 -0.00000000000E+00 -0.22365488429E+04  0.22365488429E+04  0.25500000000E-02 0. -1.
    8880022    1    1    2    0    0  0.15075768548E+04  0.13335163738E+04 -0.45577909798E+03  0.20693429226E+04  0.15294330000E+03 0.  0.
    8880022    1    1    2    0    0 -0.15075768548E+04 -0.13335163738E+04  0.71827476619E+02  0.20198031418E+04  0.15294330000E+03 0.  0.
<mgrwt>
<rscale>  0 0.20185256E+04</rscale>
<asrwt>0</asrwt>
<pdfrwt beam="1">  1        2 0.34408444E+00 0.20185256E+04</pdfrwt>
<pdfrwt beam="2">  1       -2 0.28501496E+00 0.20185256E+04</pdfrwt>
<totfact> 0.17162524E-01</totfact>
</mgrwt>
</event>
<event>
 4    1  0.1701380E-008  0.1153305E+04  0.7818608E-02  0.9154740E-01
          2   -1    0    0  501    0  0.00000000000E+00  0.00000000000E+00  0.30156153836E+04  0.30156153836E+04  0.25500000000E-02 0. -1.
         -2   -1    0    0    0  501 -0.00000000000E+00 -0.00000000000E+00 -0.81244091786E+03  0.81244091786E+03  0.25500000000E-02 0.  1.
    8880022    1    1    2    0    0  0.23184002245E+03 -0.11193616567E+04 -0.19247023304E+03  0.11692547875E+04  0.15294330000E+03 0.  0.
    8880022    1    1    2    0    0 -0.23184002245E+03  0.11193616567E+04  0.23956446987E+04  0.26588015139E+04  0.15294330000E+03 0.  0.
<mgrwt>
<rscale>  0 0.11533048E+04</rscale>
<asrwt>0</asrwt>
<pdfrwt beam="1">  1        2 0.46394084E+00 0.11533048E+04</pdfrwt>
<pdfrwt beam="2">  1       -2 0.12499091E+00 0.11533048E+04</pdfrwt>
<totfact> 0.81158804E-01</totfact>
</mgrwt>
</event>
<event>
 4    1  0.1701380E-008  0.1121408E+04  0.7818608E-02  0.9184574E-01
          2   -1    0    0  501    0  0.00000000000E+00  0.00000000000E+00  0.16152269439E+04  0.16152269439E+04  0.25500000000E-02 0. -1.
         -2   -1    0    0    0  501 -0.00000000000E+00 -0.00000000000E+00 -0.12990944121E+04  0.12990944121E+04  0.25500000000E-02 0.  1.
    8880022    1    1    2    0    0  0.10072025257E+04  0.46872949771E+03 -0.76431518418E+03  0.13571048683E+04  0.15294330000E+03 0.  0.
    8880022    1    1    2    0    0 -0.10072025257E+04 -0.46872949771E+03  0.10804477160E+04  0.15572164878E+04  0.15294330000E+03 0.  0.
<mgrwt>
<rscale>  0 0.11214080E+04</rscale>
<asrwt>0</asrwt>
<pdfrwt beam="1">  1        2 0.24849645E+00 0.11214080E+04</pdfrwt>
<pdfrwt beam="2">  1       -2 0.19986068E+00 0.11214080E+04</pdfrwt>
<totfact> 0.14269190E+00</totfact>
</mgrwt>
</event>
<event>
 4    1  0.2032550E-008  0.1783279E+04  0.7818608E-02  0.8715242E-01
         -2   -1    0    0    0  501 -0.00000000000E+00  0.00000000000E+00  0.15976656457E+04  0.15976656457E+04  0.25500000000E-02 0.  1.
          2   -1    0    0  501    0  0.00000000000E+00 -0.00000000000E+00 -0.40195702892E+04  0.40195702892E+04  0.25500000000E-02 0. -1.
    8880022    1    1    2    0    0  0.12433853939E+04  0.12691280909E+04  0.78456723350E+03  0.19482378565E+04  0.15294330000E+03 0.  0.
    8880022    1    1    2    0    0 -0.12433853939E+04 -0.12691280909E+04 -0.32064718770E+04  0.36689980785E+04  0.15294330000E+03 0.  0.
<mgrwt>
<rscale>  0 0.17832793E+04</rscale>
<asrwt>0</asrwt>
<pdfrwt beam="1">  1        2 0.61839543E+00 0.17832793E+04</pdfrwt>
<pdfrwt beam="2">  1       -2 0.24579472E+00 0.17832793E+04</pdfrwt>
<totfact> 0.20598155E-02</totfact>
</mgrwt>
</event>
<event>
 4    1  0.1701380E-008  0.6583709E+03  0.7818608E-02  0.9791197E-01
          2   -1    0    0  501    0  0.00000000000E+00  0.00000000000E+00  0.19913116955E+04  0.19913116955E+04  0.25500000000E-02 0. -1.
         -2   -1    0    0    0  501 -0.00000000000E+00 -0.00000000000E+00 -0.94964617481E+03  0.94964617481E+03  0.25500000000E-02 0.  1.
    8880022    1    1    2    0    0  0.51208722061E+03 -0.38448318734E+03  0.18118315952E+04  0.19277411717E+04  0.15294330000E+03 0.  0.
    8880022    1    1    2    0    0 -0.51208722061E+03  0.38448318734E+03 -0.77016607452E+03  0.10132166986E+04  0.15294330000E+03 0.  0.
<mgrwt>
<rscale>  0 0.65837094E+03</rscale>
<asrwt>0</asrwt>
<pdfrwt beam="1">  1        2 0.30635564E+00 0.65837094E+03</pdfrwt>
<pdfrwt beam="2">  1       -2 0.14609941E+00 0.65837094E+03</pdfrwt>
<totfact> 0.22923594E+00</totfact>
</mgrwt>
</event>
<event>
 4    1  0.1701380E-008  0.1039729E+04  0.7818608E-02  0.9266013E-01
          2   -1    0    0  501    0  0.00000000000E+00  0.00000000000E+00  0.32891216062E+04  0.32891216062E+04  0.25500000000E-02 0. -1.
         -2   -1    0    0    0  501 -0.00000000000E+00 -0.00000000000E+00 -0.45450962354E+03  0.45450962355E+03  0.25500000000E-02 0.  1.
    8880022    1    1    2    0    0  0.10043245796E+04  0.22130587320E+03  0.43238788419E+03  0.11260528789E+04  0.15294330000E+03 0.  0.
    8880022    1    1    2    0    0 -0.10043245796E+04 -0.22130587320E+03  0.24022240985E+04  0.26175783509E+04  0.15294330000E+03 0.  0.
<mgrwt>
<rscale>  0 0.10397287E+04</rscale>
<asrwt>0</asrwt>
<pdfrwt beam="1">  1        2 0.50601872E+00 0.10397287E+04</pdfrwt>
<pdfrwt beam="2">  1       -2 0.69924556E-01 0.10397287E+04</pdfrwt>
<totfact> 0.21596162E+00</totfact>
</mgrwt>
</event>
<event>
 4    1  0.1701380E-008  0.5348628E+03  0.7818608E-02  0.1005060E+00
          2   -1    0    0  501    0  0.00000000000E+00  0.00000000000E+00  0.23337166110E+04  0.23337166110E+04  0.25500000000E-02 0. -1.
         -2   -1    0    0    0  501 -0.00000000000E+00 -0.00000000000E+00 -0.31779309751E+03  0.31779309752E+03  0.25500000000E-02 0.  1.
    8880022    1    1    2    0    0 -0.50925746112E+03 -0.57822075538E+02 -0.31097036048E+02  0.53576602430E+03  0.15294330000E+03 0.  0.
    8880022    1    1    2    0    0  0.50925746112E+03  0.57822075538E+02  0.20470205495E+04  0.21157436842E+04  0.15294330000E+03 0.  0.
<mgrwt>
<rscale>  0 0.53486279E+03</rscale>
<asrwt>0</asrwt>
<pdfrwt beam="1">  1        2 0.35903334E+00 0.53486279E+03</pdfrwt>
<pdfrwt beam="2">  1       -2 0.48891244E-01 0.53486279E+03</pdfrwt>
<totfact> 0.18609283E+01</totfact>
</mgrwt>
</event>
<event>
 4    1  0.1701380E-008  0.1853472E+03  0.7818608E-02  0.1162726E+00
         -2   -1    0    0    0  501 -0.00000000000E+00  0.00000000000E+00  0.32055087883E+02  0.32055087985E+02  0.25500000000E-02 0.  1.
          2   -1    0    0  501    0  0.00000000000E+00 -0.00000000000E+00 -0.39096979961E+04  0.39096979961E+04  0.25500000000E-02 0. -1.
    8880022    1    1    2    0    0  0.10376700837E+03  0.13940829251E+02 -0.36179869019E+04  0.36227314024E+04  0.15294330000E+03 0.  0.
    8880022    1    1    2    0    0 -0.10376700837E+03 -0.13940829251E+02 -0.25965600636E+03  0.31902168171E+03  0.15294330000E+03 0.  1.
<mgrwt>
<rscale>  0 0.18534722E+03</rscale>
<asrwt>0</asrwt>
<pdfrwt beam="1">  1        2 0.60149162E+00 0.18534722E+03</pdfrwt>
<pdfrwt beam="2">  1       -2 0.49315551E-02 0.18534722E+03</pdfrwt>
<totfact> 0.10934787E+02</totfact>
</mgrwt>
</event>
<event>
 4    1  0.1701380E-008  0.1581210E+04  0.7818608E-02  0.8832175E-01
          2   -1    0    0  501    0  0.00000000000E+00  0.00000000000E+00  0.20345357261E+04  0.20345357261E+04  0.25500000000E-02 0. -1.
         -2   -1    0    0    0  501 -0.00000000000E+00 -0.00000000000E+00 -0.13882270608E+04  0.13882270608E+04  0.25500000000E-02 0.  1.
    8880022    1    1    2    0    0  0.11310137098E+04  0.10943685328E+04  0.90294502828E+03  0.18208613002E+04  0.15294330000E+03 0.  0.
    8880022    1    1    2    0    0 -0.11310137098E+04 -0.10943685328E+04 -0.25663636298E+03  0.16019014868E+04  0.15294330000E+03 0.  0.
<mgrwt>
<rscale>  0 0.15812103E+04</rscale>
<asrwt>0</asrwt>
<pdfrwt beam="1">  1        2 0.31300549E+00 0.15812103E+04</pdfrwt>
<pdfrwt beam="2">  1       -2 0.21357340E+00 0.15812103E+04</pdfrwt>
<totfact> 0.64627240E-01</totfact>
</mgrwt>
</event>
<event>
 4    1  0.1701380E-008  0.6539660E+03  0.7818608E-02  0.9799366E-01
          2   -1    0    0  501    0  0.00000000000E+00  0.00000000000E+00  0.19807660943E+04  0.19807660943E+04  0.25500000000E-02 0. -1.
         -2   -1    0    0    0  501 -0.00000000000E+00 -0.00000000000E+00 -0.36368597131E+03  0.36368597132E+03  0.25500000000E-02 0.  1.
    8880022    1    1    2    0    0  0.63077859457E+03 -0.79988801143E+02  0.61322936408E+02  0.65683483405E+03  0.15294330000E+03 0.  0.
    8880022    1    1    2    0    0 -0.63077859457E+03  0.79988801143E+02  0.15557571866E+04  0.16876172315E+04  0.15294330000E+03 0.  0.
<mgrwt>
<rscale>  0 0.65396598E+03</rscale>
<asrwt>0</asrwt>
<pdfrwt beam="1">  1        2 0.30473324E+00 0.65396598E+03</pdfrwt>
<pdfrwt beam="2">  1       -2 0.55951688E-01 0.65396598E+03</pdfrwt>
<totfact> 0.21529729E+01</totfact>
</mgrwt>
</event>
<event>
 4    1  0.1701380E-008  0.8059479E+03  0.7818608E-02  0.9551447E-01
         -2   -1    0    0    0  501 -0.00000000000E+00  0.00000000000E+00  0.31157853861E+03  0.31157853862E+03  0.25500000000E-02 0.  1.
          2   -1    0    0  501    0  0.00000000000E+00 -0.00000000000E+00 -0.27019396098E+04  0.27019396098E+04  0.25500000000E-02 0. -1.
    8880022    1    1    2    0    0  0.72301166347E+03 -0.32158136803E+03 -0.47502215644E+03  0.93552025307E+03  0.15294330000E+03 0.  0.
    8880022    1    1    2    0    0 -0.72301166347E+03  0.32158136803E+03 -0.19153389147E+04  0.20779978953E+04  0.15294330000E+03 0.  0.
<mgrwt>
<rscale>  0 0.80594795E+03</rscale>
<asrwt>0</asrwt>
<pdfrwt beam="1">  1        2 0.41568300E+00 0.80594795E+03</pdfrwt>
<pdfrwt beam="2">  1       -2 0.47935162E-01 0.80594795E+03</pdfrwt>
<totfact> 0.11403469E+01</totfact>
</mgrwt>
</event>
<event>
 4    1  0.1701380E-008  0.9382741E+03  0.7818608E-02  0.9378962E-01
          2   -1    0    0  501    0  0.00000000000E+00  0.00000000000E+00  0.18943731619E+04  0.18943731620E+04  0.25500000000E-02 0. -1.
         -2   -1    0    0    0  501 -0.00000000000E+00 -0.00000000000E+00 -0.62185509523E+03  0.62185509523E+03  0.25500000000E-02 0.  1.
    8880022    1    1    2    0    0 -0.62548611015E+03  0.68244687134E+03  0.38351380238E+01  0.93828192325E+03  0.15294330000E+03 0.  0.
    8880022    1    1    2    0    0  0.62548611015E+03 -0.68244687134E+03  0.12686829287E+04  0.15779463339E+04  0.15294330000E+03 0.  0.
<mgrwt>
<rscale>  0 0.93827409E+03</rscale>
<asrwt>0</asrwt>
<pdfrwt beam="1">  1        2 0.29144202E+00 0.93827409E+03</pdfrwt>
<pdfrwt beam="2">  1       -2 0.95670016E-01 0.93827409E+03</pdfrwt>
<totfact> 0.70600608E+00</totfact>
</mgrwt>
</event>
<event>
 4    1  0.1701380E-008  0.4527045E+03  0.7818608E-02  0.1026919E+00
          2   -1    0    0  501    0  0.00000000000E+00  0.00000000000E+00  0.55924777937E+03  0.55924777937E+03  0.25500000000E-02 0. -1.
         -2   -1    0    0    0  501 -0.00000000000E+00 -0.00000000000E+00 -0.11349245518E+04  0.11349245518E+04  0.25500000000E-02 0.  1.
    8880022    1    1    2    0    0 -0.42076866570E+03 -0.67107953847E+02  0.40919934277E+03  0.61023397369E+03  0.15294330000E+03 0.  0.
    8880022    1    1    2    0    0  0.42076866570E+03  0.67107953847E+02 -0.98487611523E+03  0.10839383575E+04  0.15294330000E+03 0.  0.
<mgrwt>
<rscale>  0 0.45270454E+03</rscale>
<asrwt>0</asrwt>
<pdfrwt beam="1">  1        2 0.86038120E-01 0.45270454E+03</pdfrwt>
<pdfrwt beam="2">  1       -2 0.17460378E+00 0.45270454E+03</pdfrwt>
<totfact> 0.11285164E+01</totfact>
</mgrwt>
</event>
<event>
 4    1  0.1701380E-008  0.5406005E+03  0.7818608E-02  0.1003693E+00
         -2   -1    0    0    0  501 -0.00000000000E+00  0.00000000000E+00  0.10297661725E+03  0.10297661728E+03  0.25500000000E-02 0.  1.
          2   -1    0    0  501    0  0.00000000000E+00 -0.00000000000E+00 -0.46846783934E+04  0.46846783934E+04  0.25500000000E-02 0. -1.
    8880022    1    1    2    0    0 -0.41395002046E+03 -0.31225409854E+03 -0.37938099909E+04  0.38321329755E+04  0.15294330000E+03 0.  0.
    8880022    1    1    2    0    0  0.41395002046E+03  0.31225409854E+03 -0.78789178518E+03  0.95552203515E+03  0.15294330000E+03 0.  1.
<mgrwt>
<rscale>  0 0.54060049E+03</rscale>
<asrwt>0</asrwt>
<pdfrwt beam="1">  1        2 0.72071959E+00 0.54060049E+03</pdfrwt>
<pdfrwt beam="2">  1       -2 0.15842560E-01 0.54060049E+03</pdfrwt>
<totfact> 0.30972265E+00</totfact>
</mgrwt>
</event>
<event>
 4    1  0.1701380E-008  0.7758514E+03  0.7818608E-02  0.9595644E-01
          2   -1    0    0  501    0  0.00000000000E+00  0.00000000000E+00  0.14070232656E+04  0.14070232656E+04  0.25500000000E-02 0. -1.
         -2   -1    0    0    0  501 -0.00000000000E+00 -0.00000000000E+00 -0.52977743147E+03  0.52977743147E+03  0.25500000000E-02 0.  1.
    8880022    1    1    2    0    0 -0.64144126606E+03 -0.40878706994E+03  0.86346610975E+03  0.11608269217E+04  0.15294330000E+03 0.  0.
    8880022    1    1    2    0    0  0.64144126606E+03  0.40878706994E+03  0.13779724411E+02  0.77597377544E+03  0.15294330000E+03 0.  0.
<mgrwt>
<rscale>  0 0.77585142E+03</rscale>
<asrwt>0</asrwt>
<pdfrwt beam="1">  1        2 0.21646512E+00 0.77585142E+03</pdfrwt>
<pdfrwt beam="2">  1       -2 0.81504221E-01 0.77585142E+03</pdfrwt>
<totfact> 0.19369254E+01</totfact>
</mgrwt>
</event>
<event>
 4    1  0.5215050E-008  0.1645742E+04  0.7818608E-02  0.8792930E-01
          2   -1    0    0  501    0  0.00000000000E+00  0.00000000000E+00  0.30160639610E+04  0.30160639610E+04  0.25500000000E-02 0. -1.
         -2   -1    0    0    0  501 -0.00000000000E+00 -0.00000000000E+00 -0.23824922710E+04  0.23824922710E+04  0.25500000000E-02 0.  1.
    8880022    1    1    2    0    0 -0.15061866504E+04  0.64534971961E+03  0.24474690367E+04  0.29493339629E+04  0.15294330000E+03 0.  0.
    8880022    1    1    2    0    0  0.15061866504E+04 -0.64534971961E+03 -0.18138973467E+04  0.24492222691E+04  0.15294330000E+03 0.  0.
<mgrwt>
<rscale>  0 0.16457418E+04</rscale>
<asrwt>0</asrwt>
<pdfrwt beam="1">  1        2 0.46400984E+00 0.16457418E+04</pdfrwt>
<pdfrwt beam="2">  1       -2 0.36653727E+00 0.16457418E+04</pdfrwt>
<totfact> 0.19174324E-02</totfact>
</mgrwt>
</event>
<event>
 4    1  0.1701380E-008  0.6982450E+03  0.7818608E-02  0.9720238E-01
         -2   -1    0    0    0  501 -0.00000000000E+00  0.00000000000E+00  0.29033742800E+04  0.29033742800E+04  0.25500000000E-02 0.  1.
          2   -1    0    0  501    0  0.00000000000E+00 -0.00000000000E+00 -0.63769511736E+03  0.63769511737E+03  0.25500000000E-02 0. -1.
    8880022    1    1    2    0    0 -0.30219656353E+03 -0.61059946051E+03  0.26524808154E+04  0.27428453462E+04  0.15294330000E+03 0.  0.
    8880022    1    1    2    0    0  0.30219656353E+03  0.61059946051E+03 -0.38680165278E+03  0.79822405113E+03  0.15294330000E+03 0. -1.
<mgrwt>
<rscale>  0 0.69824503E+03</rscale>
<asrwt>0</asrwt>
<pdfrwt beam="1">  1        2 0.98106942E-01 0.69824503E+03</pdfrwt>
<pdfrwt beam="2">  1       -2 0.44667296E+00 0.69824503E+03</pdfrwt>
<totfact> 0.18162747E-01</totfact>
</mgrwt>
</event>
<event>
 4    1  0.1701380E-008  0.9326632E+03  0.7818608E-02  0.9385647E-01
          2   -1    0    0  501    0  0.00000000000E+00  0.00000000000E+00  0.73261671978E+03  0.73261671978E+03  0.25500000000E-02 0. -1.
         -2   -1    0    0    0  501 -0.00000000000E+00 -0.00000000000E+00 -0.13388413809E+04  0.13388413809E+04  0.25500000000E-02 0.  1.
    8880022    1    1    2    0    0 -0.80635375422E+03 -0.44301532873E+03  0.45304191765E+02  0.93376286135E+03  0.15294330000E+03 0.  1.
    8880022    1    1    2    0    0  0.80635375422E+03  0.44301532873E+03 -0.65152885287E+03  0.11376952393E+04  0.15294330000E+03 0.  0.
<mgrwt>
<rscale>  0 0.93266318E+03</rscale>
<asrwt>0</asrwt>
<pdfrwt beam="1">  1        2 0.11271026E+00 0.93266318E+03</pdfrwt>
<pdfrwt beam="2">  1       -2 0.20597560E+00 0.93266318E+03</pdfrwt>
<totfact> 0.47017613E+00</totfact>
</mgrwt>
</event>
<event>
 4    1  0.1701380E-008  0.8267861E+03  0.7818608E-02  0.9522035E-01
          2   -1    0    0  501    0  0.00000000000E+00  0.00000000000E+00  0.61669847009E+03  0.61669847010E+03  0.25500000000E-02 0. -1.
         -2   -1    0    0    0  501 -0.00000000000E+00 -0.00000000000E+00 -0.14178679658E+04  0.14178679658E+04  0.25500000000E-02 0.  1.
    8880022    1    1    2    0    0  0.53262655352E+02  0.81076924090E+03  0.74642579905E+02  0.83014868560E+03  0.15294330000E+03 0.  0.
    8880022    1    1    2    0    0 -0.53262655352E+02 -0.81076924090E+03 -0.87581207562E+03  0.12044177503E+04  0.15294330000E+03 0.  0.
<mgrwt>
<rscale>  0 0.82678614E+03</rscale>
<asrwt>0</asrwt>
<pdfrwt beam="1">  1        2 0.94876688E-01 0.82678614E+03</pdfrwt>
<pdfrwt beam="2">  1       -2 0.21813353E+00 0.82678614E+03</pdfrwt>
<totfact> 0.49394561E+00</totfact>
</mgrwt>
</event>
<event>
 4    1  0.1701380E-008  0.4527050E+03  0.7818608E-02  0.1026918E+00
         -2   -1    0    0    0  501 -0.00000000000E+00  0.00000000000E+00  0.16784173857E+04  0.16784173857E+04  0.25500000000E-02 0.  1.
          2   -1    0    0  501    0  0.00000000000E+00 -0.00000000000E+00 -0.81670384256E+03  0.81670384256E+03  0.25500000000E-02 0. -1.
    8880022    1    1    2    0    0  0.34975332908E+03  0.24335728741E+03  0.15813832910E+04  0.16449057500E+04  0.15294330000E+03 0.  0.
    8880022    1    1    2    0    0 -0.34975332908E+03 -0.24335728741E+03 -0.71966974780E+03  0.85021547825E+03  0.15294330000E+03 0. -1.
<mgrwt>
<rscale>  0 0.45270500E+03</rscale>
<asrwt>0</asrwt>
<pdfrwt beam="1">  1        2 0.12564675E+00 0.45270500E+03</pdfrwt>
<pdfrwt beam="2">  1       -2 0.25821806E+00 0.45270500E+03</pdfrwt>
<totfact> 0.21090631E+00</totfact>
</mgrwt>
</event>
<event>
 4    1  0.1701380E-008  0.2639800E+03  0.7818608E-02  0.1104775E+00
          2   -1    0    0  501    0  0.00000000000E+00  0.00000000000E+00  0.71692945608E+03  0.71692945608E+03  0.25500000000E-02 0. -1.
         -2   -1    0    0    0  501 -0.00000000000E+00 -0.00000000000E+00 -0.29417963501E+03  0.29417963502E+03  0.25500000000E-02 0.  1.
    8880022    1    1    2    0    0  0.11388220691E+03 -0.18255038230E+03 -0.20231270650E+03  0.33258966213E+03  0.15294330000E+03 0.  0.
    8880022    1    1    2    0    0 -0.11388220691E+03  0.18255038230E+03  0.62506252756E+03  0.67851942898E+03  0.15294330000E+03 0. -1.
<mgrwt>
<rscale>  0 0.26398002E+03</rscale>
<asrwt>0</asrwt>
<pdfrwt beam="1">  1        2 0.11029684E+00 0.26398002E+03</pdfrwt>
<pdfrwt beam="2">  1       -2 0.45258405E-01 0.26398002E+03</pdfrwt>
<totfact> 0.19285073E+02</totfact>
</mgrwt>
</event>
<event>
 4    1  0.1701380E-008  0.1212824E+04  0.7818608E-02  0.9101705E-01
         -2   -1    0    0    0  501 -0.00000000000E+00  0.00000000000E+00  0.14682167242E+04  0.14682167242E+04  0.25500000000E-02 0.  1.
          2   -1    0    0  501    0  0.00000000000E+00 -0.00000000000E+00 -0.26119314378E+04  0.26119314378E+04  0.25500000000E-02 0. -1.
    8880022    1    1    2    0    0 -0.10579171180E+04 -0.57302928066E+03 -0.21735827577E+04  0.24890570188E+04  0.15294330000E+03 0.  0.
    8880022    1    1    2    0    0  0.10579171180E+04  0.57302928066E+03  0.10298680441E+04  0.15910911433E+04  0.15294330000E+03 0.  0.
<mgrwt>
<rscale>  0 0.12128243E+04</rscale>
<asrwt>0</asrwt>
<pdfrwt beam="1">  1        2 0.40183561E+00 0.12128243E+04</pdfrwt>
<pdfrwt beam="2">  1       -2 0.22587950E+00 0.12128243E+04</pdfrwt>
<totfact> 0.26511637E-01</totfact>
</mgrwt>
</event>
<event>
 4    1  0.1701380E-008  0.4871052E+03  0.7818608E-02  0.1017201E+00
         -2   -1    0    0    0  501 -0.00000000000E+00  0.00000000000E+00  0.21467828579E+03  0.21467828580E+03  0.25500000000E-02 0.  1.
          2   -1    0    0  501    0  0.00000000000E+00 -0.00000000000E+00 -0.20979330500E+04  0.20979330500E+04  0.25500000000E-02 0. -1.
    8880022    1    1    2    0    0  0.39703665003E+03 -0.23715342836E+03 -0.17370242002E+04  0.18040300926E+04  0.15294330000E+03 0.  0.
    8880022    1    1    2    0    0 -0.39703665003E+03  0.23715342836E+03 -0.14623056404E+03  0.50858124319E+03  0.15294330000E+03 0.  0.
<mgrwt>
<rscale>  0 0.48710523E+03</rscale>
<asrwt>0</asrwt>
<pdfrwt beam="1">  1        2 0.32275892E+00 0.48710523E+03</pdfrwt>
<pdfrwt beam="2">  1       -2 0.33027430E-01 0.48710523E+03</pdfrwt>
<totfact> 0.54098257E+01</totfact>
</mgrwt>
</event>
<event>
 4    1  0.1701380E-008  0.7001506E+03  0.7818608E-02  0.9716975E-01
          2   -1    0    0  501    0  0.00000000000E+00  0.00000000000E+00  0.18706102742E+04  0.18706102742E+04  0.25500000000E-02 0. -1.
         -2   -1    0    0    0  501 -0.00000000000E+00 -0.00000000000E+00 -0.86419561442E+03  0.86419561442E+03  0.25500000000E-02 0.  1.
    8880022    1    1    2    0    0  0.67778079222E+03  0.86211336228E+02 -0.63819271616E+03  0.94736518448E+03  0.15294330000E+03 0.  1.
    8880022    1    1    2    0    0 -0.67778079222E+03 -0.86211336228E+02  0.16446073759E+04  0.17874407041E+04  0.15294330000E+03 0.  0.
<mgrwt>
<rscale>  0 0.70015059E+03</rscale>
<asrwt>0</asrwt>
<pdfrwt beam="1">  1        2 0.28778619E+00 0.70015059E+03</pdfrwt>
<pdfrwt beam="2">  1       -2 0.13295317E+00 0.70015059E+03</pdfrwt>
<totfact> 0.33726865E+00</totfact>
</mgrwt>
</event>
<event>
 4    1  0.1701380E-008  0.1425676E+04  0.7818608E-02  0.8935440E-01
          2   -1    0    0  501    0  0.00000000000E+00  0.00000000000E+00  0.27930167716E+04  0.27930167716E+04  0.25500000000E-02 0. -1.
         -2   -1    0    0    0  501 -0.00000000000E+00 -0.00000000000E+00 -0.13931797801E+04  0.13931797801E+04  0.25500000000E-02 0.  1.
    8880022    1    1    2    0    0  0.47078619326E+03 -0.13369822265E+04  0.21465062069E+04  0.25768278295E+04  0.15294330000E+03 0.  0.
    8880022    1    1    2    0    0 -0.47078619326E+03  0.13369822265E+04 -0.74666921540E+03  0.16093687222E+04  0.15294330000E+03 0.  0.
<mgrwt>
<rscale>  0 0.14256762E+04</rscale>
<asrwt>0</asrwt>
<pdfrwt beam="1">  1        2 0.42969489E+00 0.14256762E+04</pdfrwt>
<pdfrwt beam="2">  1       -2 0.21433535E+00 0.14256762E+04</pdfrwt>
<totfact> 0.23800888E-01</totfact>
</mgrwt>
</event>
<event>
 4    1  0.2858740E-008  0.1937268E+04  0.7818608E-02  0.8636525E-01
          2   -1    0    0  501    0  0.00000000000E+00  0.00000000000E+00  0.40496415450E+04  0.40496415450E+04  0.25500000000E-02 0. -1.
         -2   -1    0    0    0  501 -0.00000000000E+00 -0.00000000000E+00 -0.17861595540E+04  0.17861595540E+04  0.25500000000E-02 0.  1.
    8880022    1    1    2    0    0  0.18168549534E+04 -0.65471707835E+03 -0.89225793641E+03  0.21328694879E+04  0.15294330000E+03 0.  0.
    8880022    1    1    2    0    0 -0.18168549534E+04  0.65471707835E+03  0.31557399274E+04  0.37029316111E+04  0.15294330000E+03 0.  0.
<mgrwt>
<rscale>  0 0.19372682E+04</rscale>
<asrwt>0</asrwt>
<pdfrwt beam="1">  1        2 0.62302178E+00 0.19372682E+04</pdfrwt>
<pdfrwt beam="2">  1       -2 0.27479378E+00 0.19372682E+04</pdfrwt>
<totfact> 0.12648745E-02</totfact>
</mgrwt>
</event>
<event>
 4    1  0.1701380E-008  0.5961148E+03  0.7818608E-02  0.9913499E-01
         -2   -1    0    0    0  501 -0.00000000000E+00  0.00000000000E+00  0.97044264570E+03  0.97044264571E+03  0.25500000000E-02 0.  1.
          2   -1    0    0  501    0  0.00000000000E+00 -0.00000000000E+00 -0.11258485788E+04  0.11258485788E+04  0.25500000000E-02 0. -1.
    8880022    1    1    2    0    0 -0.43005219077E+03  0.38342712389E+03 -0.93868646224E+03  0.11119735489E+04  0.15294330000E+03 0.  0.
    8880022    1    1    2    0    0  0.43005219077E+03 -0.38342712389E+03  0.78328052913E+03  0.98431767558E+03  0.15294330000E+03 0.  1.
<mgrwt>
<rscale>  0 0.59611484E+03</rscale>
<asrwt>0</asrwt>
<pdfrwt beam="1">  1        2 0.17320747E+00 0.59611484E+03</pdfrwt>
<pdfrwt beam="2">  1       -2 0.14929887E+00 0.59611484E+03</pdfrwt>
<totfact> 0.66515512E+00</totfact>
</mgrwt>
</event>
<event>
 4    1  0.1701380E-008  0.8853729E+03  0.7818608E-02  0.9444053E-01
         -2   -1    0    0    0  501 -0.00000000000E+00  0.00000000000E+00  0.20637973578E+04  0.20637973578E+04  0.25500000000E-02 0.  1.
          2   -1    0    0  501    0  0.00000000000E+00 -0.00000000000E+00 -0.95206461906E+03  0.95206461907E+03  0.25500000000E-02 0. -1.
    8880022    1    1    2    0    0 -0.72386972430E+03 -0.48631890481E+03  0.17249258606E+04  0.19388796591E+04  0.15294330000E+03 0.  0.
    8880022    1    1    2    0    0  0.72386972430E+03  0.48631890481E+03 -0.61319312190E+03  0.10769823177E+04  0.15294330000E+03 0.  0.
<mgrwt>
<rscale>  0 0.88537286E+03</rscale>
<asrwt>0</asrwt>
<pdfrwt beam="1">  1        2 0.14647148E+00 0.88537286E+03</pdfrwt>
<pdfrwt beam="2">  1       -2 0.31750729E+00 0.88537286E+03</pdfrwt>
<totfact> 0.68806291E-01</totfact>
</mgrwt>
</event>
<event>
 4    1  0.1701380E-008  0.3822028E+03  0.7818608E-02  0.1050123E+00
         -2   -1    0    0    0  501 -0.00000000000E+00  0.00000000000E+00  0.70115594332E+03  0.70115594333E+03  0.25500000000E-02 0.  1.
          2   -1    0    0  501    0  0.00000000000E+00 -0.00000000000E+00 -0.91010413442E+03  0.91010413443E+03  0.25500000000E-02 0. -1.
    8880022    1    1    2    0    0 -0.34868563919E+03 -0.33251045353E+02  0.60295942454E+03  0.71389006692E+03  0.15294330000E+03 0.  1.
    8880022    1    1    2    0    0  0.34868563919E+03  0.33251045353E+02 -0.81190761564E+03  0.89737001083E+03  0.15294330000E+03 0.  0.
<mgrwt>
<rscale>  0 0.38220277E+03</rscale>
<asrwt>0</asrwt>
<pdfrwt beam="1">  1        2 0.14001602E+00 0.38220277E+03</pdfrwt>
<pdfrwt beam="2">  1       -2 0.10787015E+00 0.38220277E+03</pdfrwt>
<totfact> 0.21256104E+01</totfact>
</mgrwt>
</event>
<event>
 4    1  0.1701380E-008  0.3789526E+03  0.7818608E-02  0.1051322E+00
         -2   -1    0    0    0  501 -0.00000000000E+00  0.00000000000E+00  0.68462755732E+03  0.68462755733E+03  0.25500000000E-02 0.  1.
          2   -1    0    0  501    0  0.00000000000E+00 -0.00000000000E+00 -0.79999842390E+03  0.79999842390E+03  0.25500000000E-02 0. -1.
    8880022    1    1    2    0    0  0.32183607816E+03  0.12897670494E+03 -0.69529894079E+03  0.79186218606E+03  0.15294330000E+03 0. -1.
    8880022    1    1    2    0    0 -0.32183607816E+03 -0.12897670494E+03  0.57992807422E+03  0.69276379517E+03  0.15294330000E+03 0.  0.
<mgrwt>
<rscale>  0 0.37895264E+03</rscale>
<asrwt>0</asrwt>
<pdfrwt beam="1">  1        2 0.12307668E+00 0.37895264E+03</pdfrwt>
<pdfrwt beam="2">  1       -2 0.10532732E+00 0.37895264E+03</pdfrwt>
<totfact> 0.26726177E+01</totfact>
</mgrwt>
</event>
<event>
 4    1  0.1701380E-008  0.1029420E+04  0.7818608E-02  0.9276854E-01
         -2   -1    0    0    0  501 -0.00000000000E+00  0.00000000000E+00  0.61656127658E+03  0.61656127659E+03  0.25500000000E-02 0.  1.
          2   -1    0    0  501    0  0.00000000000E+00 -0.00000000000E+00 -0.27782985909E+04  0.27782985909E+04  0.25500000000E-02 0. -1.
    8880022    1    1    2    0    0  0.91452225637E+02 -0.10138784842E+04 -0.32615584785E+02  0.10299361726E+04  0.15294330000E+03 0.  0.
    8880022    1    1    2    0    0 -0.91452225637E+02  0.10138784842E+04 -0.21291217296E+04  0.23649236949E+04  0.15294330000E+03 0.  0.
<mgrwt>
<rscale>  0 0.10294196E+04</rscale>
<asrwt>0</asrwt>
<pdfrwt beam="1">  1        2 0.42743054E+00 0.10294196E+04</pdfrwt>
<pdfrwt beam="2">  1       -2 0.94855583E-01 0.10294196E+04</pdfrwt>
<totfact> 0.22523131E+00</totfact>
</mgrwt>
</event>
<event>
 4    1  0.1701380E-008  0.1137180E+04  0.7818608E-02  0.9169692E-01
         -2   -1    0    0    0  501 -0.00000000000E+00  0.00000000000E+00  0.66619075463E+03  0.66619075464E+03  0.25500000000E-02 0.  1.
          2   -1    0    0  501    0  0.00000000000E+00 -0.00000000000E+00 -0.30271607201E+04  0.30271607201E+04  0.25500000000E-02 0. -1.
    8880022    1    1    2    0    0 -0.11077723631E+04  0.20646557701E+03 -0.74398651505E+02  0.11396115370E+04  0.15294330000E+03 0.  0.
    8880022    1    1    2    0    0  0.11077723631E+04 -0.20646557701E+03 -0.22865713140E+04  0.25537399378E+04  0.15294330000E+03 0.  0.
<mgrwt>
<rscale>  0 0.11371804E+04</rscale>
<asrwt>0</asrwt>
<pdfrwt beam="1">  1        2 0.46571703E+00 0.11371804E+04</pdfrwt>
<pdfrwt beam="2">  1       -2 0.10249089E+00 0.11371804E+04</pdfrwt>
<totfact> 0.13029671E+00</totfact>
</mgrwt>
</event>
<event>
 4    1  0.1701380E-008  0.5889610E+03  0.7818608E-02  0.9928577E-01
         -2   -1    0    0    0  501 -0.00000000000E+00  0.00000000000E+00  0.35386236525E+03  0.35386236526E+03  0.25500000000E-02 0.  1.
          2   -1    0    0  501    0  0.00000000000E+00 -0.00000000000E+00 -0.16796060274E+04  0.16796060274E+04  0.25500000000E-02 0. -1.
    8880022    1    1    2    0    0  0.10113313632E+03  0.55969236288E+03 -0.13189438930E+04  0.14444681022E+04  0.15294330000E+03 0.  0.
    8880022    1    1    2    0    0 -0.10113313632E+03 -0.55969236288E+03 -0.67997691814E+01  0.58900029050E+03  0.15294330000E+03 0.  1.
<mgrwt>
<rscale>  0 0.58896104E+03</rscale>
<asrwt>0</asrwt>
<pdfrwt beam="1">  1        2 0.25840092E+00 0.58896104E+03</pdfrwt>
<pdfrwt beam="2">  1       -2 0.54440365E-01 0.58896104E+03</pdfrwt>
<totfact> 0.33520675E+01</totfact>
</mgrwt>
</event>
<event>
 4    1  0.1701380E-008  0.1318368E+04  0.7818608E-02  0.9015125E-01
          2   -1    0    0  501    0  0.00000000000E+00  0.00000000000E+00  0.32383872408E+04  0.32383872408E+04  0.25500000000E-02 0. -1.
         -2   -1    0    0    0  501 -0.00000000000E+00 -0.00000000000E+00 -0.96164788382E+03  0.96164788382E+03  0.25500000000E-02 0.  1.
    8880022    1    1    2    0    0 -0.10742381932E+04  0.74880930033E+03  0.25343344919E+04  0.28567369557E+04  0.15294330000E+03 0.  0.
    8880022    1    1    2    0    0  0.10742381932E+04 -0.74880930033E+03 -0.25759513496E+03  0.13432981689E+04  0.15294330000E+03 0.  0.
<mgrwt>
<rscale>  0 0.13183682E+04</rscale>
<asrwt>0</asrwt>
<pdfrwt beam="1">  1        2 0.49821342E+00 0.13183682E+04</pdfrwt>
<pdfrwt beam="2">  1       -2 0.14794583E+00 0.13183682E+04</pdfrwt>
<totfact> 0.36989685E-01</totfact>
</mgrwt>
</event>
<event>
 4    1  0.1701380E-008  0.7193488E+03  0.7818608E-02  0.9684704E-01
          2   -1    0    0  501    0  0.00000000000E+00  0.00000000000E+00  0.26099617664E+04  0.26099617664E+04  0.25500000000E-02 0. -1.
         -2   -1    0    0    0  501 -0.00000000000E+00 -0.00000000000E+00 -0.44063589629E+03  0.44063589629E+03  0.25500000000E-02 0.  1.
    8880022    1    1    2    0    0 -0.17471862808E+03  0.68084095631E+03  0.22159054508E+04  0.23297423949E+04  0.15294330000E+03 0.  0.
    8880022    1    1    2    0    0  0.17471862808E+03 -0.68084095631E+03 -0.46579580643E+02  0.72085526782E+03  0.15294330000E+03 0.  0.
<mgrwt>
<rscale>  0 0.71934877E+03</rscale>
<asrwt>0</asrwt>
<pdfrwt beam="1">  1        2 0.40153258E+00 0.71934877E+03</pdfrwt>
<pdfrwt beam="2">  1       -2 0.67790138E-01 0.71934877E+03</pdfrwt>
<totfact> 0.63366930E+00</totfact>
</mgrwt>
</event>
<event>
 4    1  0.1701380E-008  0.8317191E+03  0.7818608E-02  0.9515207E-01
          2   -1    0    0  501    0  0.00000000000E+00  0.00000000000E+00  0.11850512410E+04  0.11850512410E+04  0.25500000000E-02 0. -1.
         -2   -1    0    0    0  501 -0.00000000000E+00 -0.00000000000E+00 -0.79522954534E+03  0.79522954535E+03  0.25500000000E-02 0.  1.
    8880022    1    1    2    0    0  0.80997521119E+03  0.11092883912E+03  0.70553270666E+03  0.10906571887E+04  0.15294330000E+03 0.  0.
    8880022    1    1    2    0    0 -0.80997521119E+03 -0.11092883912E+03 -0.31571101097E+03  0.88962359768E+03  0.15294330000E+03 0.  0.
<mgrwt>
<rscale>  0 0.83171913E+03</rscale>
<asrwt>0</asrwt>
<pdfrwt beam="1">  1        2 0.18231558E+00 0.83171913E+03</pdfrwt>
<pdfrwt beam="2">  1       -2 0.12234301E+00 0.83171913E+03</pdfrwt>
<totfact> 0.98797197E+00</totfact>
</mgrwt>
</event>
<event>
 4    1  0.1701380E-008  0.1881875E+04  0.7818608E-02  0.8663931E-01
         -2   -1    0    0    0  501 -0.00000000000E+00  0.00000000000E+00  0.26807749173E+04  0.26807749173E+04  0.25500000000E-02 0.  1.
          2   -1    0    0  501    0  0.00000000000E+00 -0.00000000000E+00 -0.17425655649E+04  0.17425655649E+04  0.25500000000E-02 0. -1.
    8880022    1    1    2    0    0 -0.18626915433E+04 -0.22009321695E+03  0.15568564058E+04  0.24423870150E+04  0.15294330000E+03 0.  0.
    8880022    1    1    2    0    0  0.18626915433E+04  0.22009321695E+03 -0.61864705343E+03  0.19809534672E+04  0.15294330000E+03 0.  0.
<mgrwt>
<rscale>  0 0.18818747E+04</rscale>
<asrwt>0</asrwt>
<pdfrwt beam="1">  1        2 0.26808701E+00 0.18818747E+04</pdfrwt>
<pdfrwt beam="2">  1       -2 0.41242691E+00 0.18818747E+04</pdfrwt>
<totfact> 0.51384810E-02</totfact>
</mgrwt>
</event>
<event>
 4    1  0.1701380E-008  0.8831535E+03  0.7818608E-02  0.9446889E-01
          2   -1    0    0  501    0  0.00000000000E+00  0.00000000000E+00  0.10762247097E+04  0.10762247097E+04  0.25500000000E-02 0. -1.
         -2   -1    0    0    0  501 -0.00000000000E+00 -0.00000000000E+00 -0.16761587819E+04  0.16761587819E+04  0.25500000000E-02 0.  1.
    8880022    1    1    2    0    0  0.48561757710E+03 -0.72162600650E+03 -0.13368078657E+04  0.16021908273E+04  0.15294330000E+03 0.  0.
    8880022    1    1    2    0    0 -0.48561757710E+03  0.72162600650E+03  0.73687379341E+03  0.11501926642E+04  0.15294330000E+03 0.  0.
<mgrwt>
<rscale>  0 0.88315354E+03</rscale>
<asrwt>0</asrwt>
<pdfrwt beam="1">  1        2 0.16557303E+00 0.88315354E+03</pdfrwt>
<pdfrwt beam="2">  1       -2 0.25787058E+00 0.88315354E+03</pdfrwt>
<totfact> 0.13145040E+00</totfact>
</mgrwt>
</event>
<event>
 4    1  0.1701380E-008  0.9386001E+03  0.7818608E-02  0.9378575E-01
         -2   -1    0    0    0  501 -0.00000000000E+00  0.00000000000E+00  0.81652899002E+03  0.81652899002E+03  0.25500000000E-02 0.  1.
          2   -1    0    0  501    0  0.00000000000E+00 -0.00000000000E+00 -0.16370618200E+04  0.16370618200E+04  0.25500000000E-02 0. -1.
    8880022    1    1    2    0    0 -0.11136801223E+03  0.91933430943E+03  0.30606103874E+03  0.98724030463E+03  0.15294330000E+03 0.  0.
    8880022    1    1    2    0    0  0.11136801223E+03 -0.91933430943E+03 -0.11265938688E+04  0.14663505054E+04  0.15294330000E+03 0.  0.
<mgrwt>
<rscale>  0 0.93860005E+03</rscale>
<asrwt>0</asrwt>
<pdfrwt beam="1">  1        2 0.25185566E+00 0.93860005E+03</pdfrwt>
<pdfrwt beam="2">  1       -2 0.12561985E+00 0.93860005E+03</pdfrwt>
<totfact> 0.50448562E+00</totfact>
</mgrwt>
</event>
<event>
 4    1  0.1701380E-008  0.1321566E+04  0.7818608E-02  0.9012636E-01
          2   -1    0    0  501    0  0.00000000000E+00  0.00000000000E+00  0.35476325866E+04  0.35476325866E+04  0.25500000000E-02 0. -1.
         -2   -1    0    0    0  501 -0.00000000000E+00 -0.00000000000E+00 -0.98745471332E+03  0.98745471332E+03  0.25500000000E-02 0.  1.
    8880022    1    1    2    0    0  0.10658715114E+04  0.76620064933E+03  0.28857832436E+04  0.31740009603E+04  0.15294330000E+03 0.  0.
    8880022    1    1    2    0    0 -0.10658715114E+04 -0.76620064933E+03 -0.32560537033E+03  0.13610863396E+04  0.15294330000E+03 0.  0.
<mgrwt>
<rscale>  0 0.13215662E+04</rscale>
<asrwt>0</asrwt>
<pdfrwt beam="1">  1        2 0.54578963E+00 0.13215662E+04</pdfrwt>
<pdfrwt beam="2">  1       -2 0.15191611E+00 0.13215662E+04</pdfrwt>
<totfact> 0.21300055E-01</totfact>
</mgrwt>
</event>
<event>
 4    1  0.1701380E-008  0.4669474E+03  0.7818608E-02  0.1022785E+00
          2   -1    0    0  501    0  0.00000000000E+00  0.00000000000E+00  0.54057963315E+03  0.54057963316E+03  0.25500000000E-02 0. -1.
         -2   -1    0    0    0  501 -0.00000000000E+00 -0.00000000000E+00 -0.80032687647E+03  0.80032687647E+03  0.25500000000E-02 0.  1.
    8880022    1    1    2    0    0  0.37641548177E+03  0.23012960448E+03  0.34232023705E+03  0.57898449675E+03  0.15294330000E+03 0.  0.
    8880022    1    1    2    0    0 -0.37641548177E+03 -0.23012960448E+03 -0.60206748036E+03  0.76192201287E+03  0.15294330000E+03 0.  0.
<mgrwt>
<rscale>  0 0.46694743E+03</rscale>
<asrwt>0</asrwt>
<pdfrwt beam="1">  1        2 0.83166097E-01 0.46694743E+03</pdfrwt>
<pdfrwt beam="2">  1       -2 0.12312721E+00 0.46694743E+03</pdfrwt>
<totfact> 0.29148922E+01</totfact>
</mgrwt>
</event>
<event>
 4    1  0.1701380E-008  0.6370364E+03  0.7818608E-02  0.9831413E-01
          2   -1    0    0  501    0  0.00000000000E+00  0.00000000000E+00  0.73536246410E+03  0.73536246410E+03  0.25500000000E-02 0. -1.
         -2   -1    0    0    0  501 -0.00000000000E+00 -0.00000000000E+00 -0.57466375814E+03  0.57466375814E+03  0.25500000000E-02 0.  1.
    8880022    1    1    2    0    0 -0.61192390586E+03 -0.89290885438E+02 -0.50138153313E+02  0.63900642893E+03  0.15294330000E+03 0.  0.
    8880022    1    1    2    0    0  0.61192390586E+03  0.89290885438E+02  0.21083685928E+03  0.67101979332E+03  0.15294330000E+03 0.  0.
<mgrwt>
<rscale>  0 0.63703641E+03</rscale>
<asrwt>0</asrwt>
<pdfrwt beam="1">  1        2 0.11313269E+00 0.63703641E+03</pdfrwt>
<pdfrwt beam="2">  1       -2 0.88409810E-01 0.63703641E+03</pdfrwt>
<totfact> 0.43343870E+01</totfact>
</mgrwt>
</event>
<event>
 4    1  0.1701380E-008  0.1323189E+04  0.7818608E-02  0.9011376E-01
         -2   -1    0    0    0  501 -0.00000000000E+00  0.00000000000E+00  0.84485134042E+03  0.84485134042E+03  0.25500000000E-02 0.  1.
          2   -1    0    0  501    0  0.00000000000E+00 -0.00000000000E+00 -0.43347699518E+04  0.43347699518E+04  0.25500000000E-02 0. -1.
    8880022    1    1    2    0    0  0.12695639647E+04 -0.34006479385E+03  0.12603090829E+03  0.13291772521E+04  0.15294330000E+03 0.  0.
    8880022    1    1    2    0    0 -0.12695639647E+04  0.34006479385E+03 -0.36159495197E+04  0.38504440402E+04  0.15294330000E+03 0.  0.
<mgrwt>
<rscale>  0 0.13231887E+04</rscale>
<asrwt>0</asrwt>
<pdfrwt beam="1">  1        2 0.66688767E+00 0.13231887E+04</pdfrwt>
<pdfrwt beam="2">  1       -2 0.12997713E+00 0.13231887E+04</pdfrwt>
<totfact> 0.76498197E-02</totfact>
</mgrwt>
</event>
<event>
 4    1  0.1701380E-008  0.1138980E+04  0.7818608E-02  0.9168011E-01
         -2   -1    0    0    0  501 -0.00000000000E+00  0.00000000000E+00  0.10573276093E+04  0.10573276094E+04  0.25500000000E-02 0.  1.
          2   -1    0    0  501    0  0.00000000000E+00 -0.00000000000E+00 -0.13537981798E+04  0.13537981798E+04  0.25500000000E-02 0. -1.
    8880022    1    1    2    0    0 -0.30942352619E+03 -0.10854217895E+04  0.22080706019E+03  0.11601856707E+04  0.15294330000E+03 0.  0.
    8880022    1    1    2    0    0  0.30942352619E+03  0.10854217895E+04 -0.51727763067E+03  0.12509401184E+04  0.15294330000E+03 0.  0.
<mgrwt>
<rscale>  0 0.11389798E+04</rscale>
<asrwt>0</asrwt>
<pdfrwt beam="1">  1        2 0.20827664E+00 0.11389798E+04</pdfrwt>
<pdfrwt beam="2">  1       -2 0.16266579E+00 0.11389798E+04</pdfrwt>
<totfact> 0.36196186E+00</totfact>
</mgrwt>
</event>
<event>
 4    1  0.1701380E-008  0.3247354E+03  0.7818608E-02  0.1073490E+00
          2   -1    0    0  501    0  0.00000000000E+00  0.00000000000E+00  0.97025394564E+03  0.97025394564E+03  0.25500000000E-02 0. -1.
         -2   -1    0    0    0  501 -0.00000000000E+00 -0.00000000000E+00 -0.51716387864E+03  0.51716387865E+03  0.25500000000E-02 0.  1.
    8880022    1    1    2    0    0  0.23706405854E+03 -0.16081692319E+03  0.88750190080E+03  0.94504641557E+03  0.15294330000E+03 0.  0.
    8880022    1    1    2    0    0 -0.23706405854E+03  0.16081692319E+03 -0.43441183381E+03  0.54237140873E+03  0.15294330000E+03 0.  0.
<mgrwt>
<rscale>  0 0.32473544E+03</rscale>
<asrwt>0</asrwt>
<pdfrwt beam="1">  1        2 0.14926984E+00 0.32473544E+03</pdfrwt>
<pdfrwt beam="2">  1       -2 0.79563674E-01 0.32473544E+03</pdfrwt>
<totfact> 0.39629180E+01</totfact>
</mgrwt>
</event>
<event>
 4    1  0.1701380E-008  0.9867324E+03  0.7818608E-02  0.9323217E-01
          2   -1    0    0  501    0  0.00000000000E+00  0.00000000000E+00  0.96824806977E+03  0.96824806978E+03  0.25500000000E-02 0. -1.
         -2   -1    0    0    0  501 -0.00000000000E+00 -0.00000000000E+00 -0.21402121762E+04  0.21402121762E+04  0.25500000000E-02 0.  1.
    8880022    1    1    2    0    0 -0.96081183802E+03 -0.16458988079E+03 -0.17176432781E+04  0.19808935612E+04  0.15294330000E+03 0.  0.
    8880022    1    1    2    0    0  0.96081183802E+03  0.16458988079E+03  0.54567917177E+03  0.11275666847E+04  0.15294330000E+03 0.  0.
<mgrwt>
<rscale>  0 0.98673242E+03</rscale>
<asrwt>0</asrwt>
<pdfrwt beam="1">  1        2 0.14896124E+00 0.98673242E+03</pdfrwt>
<pdfrwt beam="2">  1       -2 0.32926341E+00 0.98673242E+03</pdfrwt>
<totfact> 0.55986890E-01</totfact>
</mgrwt>
</event>
<event>
 4    1  0.1701380E-008  0.1125863E+04  0.7818608E-02  0.9180344E-01
          2   -1    0    0  501    0  0.00000000000E+00  0.00000000000E+00  0.91554893999E+03  0.91554893999E+03  0.25500000000E-02 0. -1.
         -2   -1    0    0    0  501 -0.00000000000E+00 -0.00000000000E+00 -0.16239503989E+04  0.16239503989E+04  0.25500000000E-02 0.  1.
    8880022    1    1    2    0    0 -0.91254295450E+03  0.64143768435E+03 -0.84178348086E+03  0.14057624367E+04  0.15294330000E+03 0.  0.
    8880022    1    1    2    0    0  0.91254295450E+03 -0.64143768435E+03  0.13338202192E+03  0.11337369022E+04  0.15294330000E+03 0.  0.
<mgrwt>
<rscale>  0 0.11258635E+04</rscale>
<asrwt>0</asrwt>
<pdfrwt beam="1">  1        2 0.14085368E+00 0.11258635E+04</pdfrwt>
<pdfrwt beam="2">  1       -2 0.24983852E+00 0.11258635E+04</pdfrwt>
<totfact> 0.18116247E+00</totfact>
</mgrwt>
</event>
<event>
 4    1  0.1701380E-008  0.1161037E+04  0.7818608E-02  0.9147661E-01
          2   -1    0    0  501    0  0.00000000000E+00  0.00000000000E+00  0.19982080466E+04  0.19982080466E+04  0.25500000000E-02 0. -1.
         -2   -1    0    0    0  501 -0.00000000000E+00 -0.00000000000E+00 -0.14213094008E+04  0.14213094008E+04  0.25500000000E-02 0.  1.
    8880022    1    1    2    0    0 -0.11508164922E+04 -0.15418398130E+02 -0.95081479196E+03  0.15006854259E+04  0.15294330000E+03 0.  0.
    8880022    1    1    2    0    0  0.11508164922E+04  0.15418398130E+02  0.15277134378E+04  0.19188320215E+04  0.15294330000E+03 0.  0.
<mgrwt>
<rscale>  0 0.11610375E+04</rscale>
<asrwt>0</asrwt>
<pdfrwt beam="1">  1        2 0.30741662E+00 0.11610375E+04</pdfrwt>
<pdfrwt beam="2">  1       -2 0.21866298E+00 0.11610375E+04</pdfrwt>
<totfact> 0.65917269E-01</totfact>
</mgrwt>
</event>
<event>
 4    1  0.1701380E-008  0.4720366E+03  0.7818608E-02  0.1021347E+00
         -2   -1    0    0    0  501 -0.00000000000E+00  0.00000000000E+00  0.52910940490E+03  0.52910940491E+03  0.25500000000E-02 0.  1.
          2   -1    0    0  501    0  0.00000000000E+00 -0.00000000000E+00 -0.11606053162E+04  0.11606053162E+04  0.25500000000E-02 0. -1.
    8880022    1    1    2    0    0 -0.30606187559E+03  0.32519685841E+03  0.35863394964E+03  0.59282107862E+03  0.15294330000E+03 0.  0.
    8880022    1    1    2    0    0  0.30606187559E+03 -0.32519685841E+03 -0.99012986094E+03  0.10968936425E+04  0.15294330000E+03 0.  0.
<mgrwt>
<rscale>  0 0.47203657E+03</rscale>
<asrwt>0</asrwt>
<pdfrwt beam="1">  1        2 0.17855466E+00 0.47203657E+03</pdfrwt>
<pdfrwt beam="2">  1       -2 0.81401447E-01 0.47203657E+03</pdfrwt>
<totfact> 0.28079575E+01</totfact>
</mgrwt>
</event>
<event>
 4    1  0.1701380E-008  0.3579511E+03  0.7818608E-02  0.1059398E+00
         -2   -1    0    0    0  501 -0.00000000000E+00  0.00000000000E+00  0.16295588044E+03  0.16295588046E+03  0.25500000000E-02 0.  1.
          2   -1    0    0  501    0  0.00000000000E+00 -0.00000000000E+00 -0.19031965424E+04  0.19031965424E+04  0.25500000000E-02 0. -1.
    8880022    1    1    2    0    0  0.28619297955E+03  0.15109913003E+03 -0.78711636912E+02  0.36650312883E+03  0.15294330000E+03 0.  0.
    8880022    1    1    2    0    0 -0.28619297955E+03 -0.15109913003E+03 -0.16615290250E+04  0.16996492940E+04  0.15294330000E+03 0.  0.
<mgrwt>
<rscale>  0 0.35795114E+03</rscale>
<asrwt>0</asrwt>
<pdfrwt beam="1">  1        2 0.29279945E+00 0.35795114E+03</pdfrwt>
<pdfrwt beam="2">  1       -2 0.25070137E-01 0.35795114E+03</pdfrwt>
<totfact> 0.11675074E+02</totfact>
</mgrwt>
</event>
<event>
 4    1  0.1701380E-008  0.8496579E+03  0.7818608E-02  0.9490796E-01
          2   -1    0    0  501    0  0.00000000000E+00  0.00000000000E+00  0.38094162253E+04  0.38094162253E+04  0.25500000000E-02 0. -1.
         -2   -1    0    0    0  501 -0.00000000000E+00 -0.00000000000E+00 -0.45492236609E+03  0.45492236609E+03  0.25500000000E-02 0.  1.
    8880022    1    1    2    0    0  0.34804658506E+03  0.75986216072E+03  0.48646848695E+02  0.85104940959E+03  0.15294330000E+03 0.  0.
    8880022    1    1    2    0    0 -0.34804658506E+03 -0.75986216072E+03  0.33058470105E+04  0.34132891818E+04  0.15294330000E+03 0.  0.
<mgrwt>
<rscale>  0 0.84965792E+03</rscale>
<asrwt>0</asrwt>
<pdfrwt beam="1">  1        2 0.58606401E+00 0.84965792E+03</pdfrwt>
<pdfrwt beam="2">  1       -2 0.69988060E-01 0.84965792E+03</pdfrwt>
<totfact> 0.96832499E-01</totfact>
</mgrwt>
</event>
<event>
 4    1  0.1701380E-008  0.1491573E+04  0.7818608E-02  0.8890076E-01
         -2   -1    0    0    0  501 -0.00000000000E+00  0.00000000000E+00  0.80091300204E+03  0.80091300204E+03  0.25500000000E-02 0.  1.
          2   -1    0    0  501    0  0.00000000000E+00 -0.00000000000E+00 -0.46063070526E+04  0.46063070526E+04  0.25500000000E-02 0. -1.
    8880022    1    1    2    0    0 -0.12876360983E+03  0.14781126170E+04 -0.19930710109E+03  0.15048295416E+04  0.15294330000E+03 0.  0.
    8880022    1    1    2    0    0  0.12876360983E+03 -0.14781126170E+04 -0.36060869495E+04  0.39023905130E+04  0.15294330000E+03 0.  0.
<mgrwt>
<rscale>  0 0.14915725E+04</rscale>
<asrwt>0</asrwt>
<pdfrwt beam="1">  1        2 0.70866261E+00 0.14915725E+04</pdfrwt>
<pdfrwt beam="2">  1       -2 0.12321739E+00 0.14915725E+04</pdfrwt>
<totfact> 0.46888503E-02</totfact>
</mgrwt>
</event>
<event>
 4    1  0.1701380E-008  0.1604745E+04  0.7818608E-02  0.8817638E-01
          2   -1    0    0  501    0  0.00000000000E+00  0.00000000000E+00  0.15492988351E+04  0.15492988351E+04  0.25500000000E-02 0. -1.
         -2   -1    0    0    0  501 -0.00000000000E+00 -0.00000000000E+00 -0.20824676975E+04  0.20824676975E+04  0.25500000000E-02 0.  1.
    8880022    1    1    2    0    0  0.66211804548E+03 -0.14537584195E+04 -0.10823677276E+04  0.19356459901E+04  0.15294330000E+03 0.  0.
    8880022    1    1    2    0    0 -0.66211804548E+03  0.14537584195E+04  0.54919886520E+03  0.16961205425E+04  0.15294330000E+03 0.  0.
<mgrwt>
<rscale>  0 0.16047447E+04</rscale>
<asrwt>0</asrwt>
<pdfrwt beam="1">  1        2 0.23835367E+00 0.16047447E+04</pdfrwt>
<pdfrwt beam="2">  1       -2 0.32037965E+00 0.16047447E+04</pdfrwt>
<totfact> 0.26381707E-01</totfact>
</mgrwt>
</event>
<event>
 4    1  0.1701380E-008  0.8885328E+03  0.7818608E-02  0.9440031E-01
          2   -1    0    0  501    0  0.00000000000E+00  0.00000000000E+00  0.25158698513E+04  0.25158698513E+04  0.25500000000E-02 0. -1.
         -2   -1    0    0    0  501 -0.00000000000E+00 -0.00000000000E+00 -0.46299007715E+03  0.46299007716E+03  0.25500000000E-02 0.  1.
    8880022    1    1    2    0    0  0.11810259960E+03  0.86726618692E+03  0.18097007232E+03  0.90677488005E+03  0.15294330000E+03 0.  1.
    8880022    1    1    2    0    0 -0.11810259960E+03 -0.86726618692E+03  0.18719097018E+04  0.20720850484E+04  0.15294330000E+03 0.  0.
<mgrwt>
<rscale>  0 0.88853279E+03</rscale>
<asrwt>0</asrwt>
<pdfrwt beam="1">  1        2 0.38705691E+00 0.88853279E+03</pdfrwt>
<pdfrwt beam="2">  1       -2 0.71229240E-01 0.88853279E+03</pdfrwt>
<totfact> 0.62622948E+00</totfact>
</mgrwt>
</event>
<event>
 4    1  0.1701380E-008  0.1318642E+04  0.7818608E-02  0.9014911E-01
          2   -1    0    0  501    0  0.00000000000E+00  0.00000000000E+00  0.21455092657E+04  0.21455092657E+04  0.25500000000E-02 0. -1.
         -2   -1    0    0    0  501 -0.00000000000E+00 -0.00000000000E+00 -0.89358741450E+03  0.89358741450E+03  0.25500000000E-02 0.  1.
    8880022    1    1    2    0    0 -0.62086790558E+03  0.11532333527E+04  0.10894709369E+04  0.17104860997E+04  0.15294330000E+03 0.  0.
    8880022    1    1    2    0    0  0.62086790558E+03 -0.11532333527E+04  0.16245091428E+03  0.13286105805E+04  0.15294330000E+03 0.  0.
<mgrwt>
<rscale>  0 0.13186416E+04</rscale>
<asrwt>0</asrwt>
<pdfrwt beam="1">  1        2 0.33007835E+00 0.13186416E+04</pdfrwt>
<pdfrwt beam="2">  1       -2 0.13747499E+00 0.13186416E+04</pdfrwt>
<totfact> 0.20090012E+00</totfact>
</mgrwt>
</event>
<event>
 4    1  0.1701380E-008  0.1008012E+04  0.7818608E-02  0.9299801E-01
         -2   -1    0    0    0  501 -0.00000000000E+00  0.00000000000E+00  0.44531754553E+03  0.44531754554E+03  0.25500000000E-02 0.  1.
          2   -1    0    0  501    0  0.00000000000E+00 -0.00000000000E+00 -0.25003808144E+04  0.25003808144E+04  0.25500000000E-02 0. -1.
    8880022    1    1    2    0    0 -0.66268502405E+03 -0.74400615845E+03 -0.14630880874E+04  0.17767146674E+04  0.15294330000E+03 0.  0.
    8880022    1    1    2    0    0  0.66268502405E+03  0.74400615845E+03 -0.59197518151E+03  0.11689836926E+04  0.15294330000E+03 0.  0.
<mgrwt>
<rscale>  0 0.10080120E+04</rscale>
<asrwt>0</asrwt>
<pdfrwt beam="1">  1        2 0.38467396E+00 0.10080120E+04</pdfrwt>
<pdfrwt beam="2">  1       -2 0.68510393E-01 0.10080120E+04</pdfrwt>
<totfact> 0.68474865E+00</totfact>
</mgrwt>
</event>
<event>
 4    1  0.1701380E-008  0.4772046E+03  0.7818608E-02  0.1019906E+00
          2   -1    0    0  501    0  0.00000000000E+00  0.00000000000E+00  0.26531598790E+04  0.26531598790E+04  0.25500000000E-02 0. -1.
         -2   -1    0    0    0  501 -0.00000000000E+00 -0.00000000000E+00 -0.20842311486E+03  0.20842311488E+03  0.25500000000E-02 0.  1.
    8880022    1    1    2    0    0  0.41922469968E+03  0.16906571259E+03  0.23196904409E+04  0.23682668681E+04  0.15294330000E+03 0.  0.
    8880022    1    1    2    0    0 -0.41922469968E+03 -0.16906571259E+03  0.12504632328E+03  0.49331612580E+03  0.15294330000E+03 0.  0.
<mgrwt>
<rscale>  0 0.47720459E+03</rscale>
<asrwt>0</asrwt>
<pdfrwt beam="1">  1        2 0.40817844E+00 0.47720459E+03</pdfrwt>
<pdfrwt beam="2">  1       -2 0.32065095E-01 0.47720459E+03</pdfrwt>
<totfact> 0.28263427E+01</totfact>
</mgrwt>
</event>
<event>
 4    1  0.2227183E-008  0.1287400E+04  0.7818608E-02  0.9039617E-01
         -2   -1    0    0    0  501 -0.00000000000E+00  0.00000000000E+00  0.17222937541E+04  0.17222937541E+04  0.25500000000E-02 0.  1.
          2   -1    0    0  501    0  0.00000000000E+00 -0.00000000000E+00 -0.15762845222E+04  0.15762845222E+04  0.25500000000E-02 0. -1.
    8880022    1    1    2    0    0  0.11039462520E+04 -0.64444595033E+03  0.11023254280E+04  0.16948512951E+04  0.15294330000E+03 0.  0.
    8880022    1    1    2    0    0 -0.11039462520E+04  0.64444595033E+03 -0.95631619619E+03  0.16037269812E+04  0.15294330000E+03 0.  0.
<mgrwt>
<rscale>  0 0.12874003E+04</rscale>
<asrwt>0</asrwt>
<pdfrwt beam="1">  1        2 0.24250531E+00 0.12874003E+04</pdfrwt>
<pdfrwt beam="2">  1       -2 0.26496827E+00 0.12874003E+04</pdfrwt>
<totfact> 0.57551268E-01</totfact>
</mgrwt>
</event>
<event>
 4    1  0.1701380E-008  0.6416398E+03  0.7818608E-02  0.9822594E-01
         -2   -1    0    0    0  501 -0.00000000000E+00  0.00000000000E+00  0.49173982744E+03  0.49173982745E+03  0.25500000000E-02 0.  1.
          2   -1    0    0  501    0  0.00000000000E+00 -0.00000000000E+00 -0.13652623076E+04  0.13652623076E+04  0.25500000000E-02 0. -1.
    8880022    1    1    2    0    0  0.54726082204E+03  0.29801933300E+03 -0.10141957366E+04  0.12001227335E+04  0.15294330000E+03 0.  0.
    8880022    1    1    2    0    0 -0.54726082204E+03 -0.29801933300E+03  0.14067325644E+03  0.65687940162E+03  0.15294330000E+03 0.  0.
<mgrwt>
<rscale>  0 0.64163976E+03</rscale>
<asrwt>0</asrwt>
<pdfrwt beam="1">  1        2 0.21004035E+00 0.64163976E+03</pdfrwt>
<pdfrwt beam="2">  1       -2 0.75652282E-01 0.64163976E+03</pdfrwt>
<totfact> 0.24567741E+01</totfact>
</mgrwt>
</event>
<event>
 4    1  0.1701380E-008  0.6461962E+03  0.7818608E-02  0.9813943E-01
         -2   -1    0    0    0  501 -0.00000000000E+00  0.00000000000E+00  0.71071361661E+03  0.71071361662E+03  0.25500000000E-02 0.  1.
          2   -1    0    0  501    0  0.00000000000E+00 -0.00000000000E+00 -0.22845627834E+04  0.22845627834E+04  0.25500000000E-02 0. -1.
    8880022    1    1    2    0    0 -0.50681295167E+03  0.37056514224E+03  0.50384808462E+03  0.81940981078E+03  0.15294330000E+03 0.  1.
    8880022    1    1    2    0    0  0.50681295167E+03 -0.37056514224E+03 -0.20776972514E+04  0.21758665893E+04  0.15294330000E+03 0.  0.
<mgrwt>
<rscale>  0 0.64619621E+03</rscale>
<asrwt>0</asrwt>
<pdfrwt beam="1">  1        2 0.35147119E+00 0.64619621E+03</pdfrwt>
<pdfrwt beam="2">  1       -2 0.10934056E+00 0.64619621E+03</pdfrwt>
<totfact> 0.32863061E+00</totfact>
</mgrwt>
</event>
<event>
 4    1  0.1701380E-008  0.1240124E+04  0.7818608E-02  0.9078443E-01
         -2   -1    0    0    0  501 -0.00000000000E+00  0.00000000000E+00  0.96994762012E+03  0.96994762012E+03  0.25500000000E-02 0.  1.
          2   -1    0    0  501    0  0.00000000000E+00 -0.00000000000E+00 -0.23178459724E+04  0.23178459724E+04  0.25500000000E-02 0. -1.
    8880022    1    1    2    0    0  0.33289695554E+03  0.11847770180E+04  0.25005320014E+03  0.12650830887E+04  0.15294330000E+03 0.  0.
    8880022    1    1    2    0    0 -0.33289695554E+03 -0.11847770180E+04 -0.15979515524E+04  0.20227105038E+04  0.15294330000E+03 0.  0.
<mgrwt>
<rscale>  0 0.12401244E+04</rscale>
<asrwt>0</asrwt>
<pdfrwt beam="1">  1        2 0.35659169E+00 0.12401244E+04</pdfrwt>
<pdfrwt beam="2">  1       -2 0.14922271E+00 0.12401244E+04</pdfrwt>
<totfact> 0.13065805E+00</totfact>
</mgrwt>
</event>
<event>
 4    1  0.1701380E-008  0.7647879E+03  0.7818608E-02  0.9612432E-01
          2   -1    0    0  501    0  0.00000000000E+00  0.00000000000E+00  0.14484593114E+04  0.14484593114E+04  0.25500000000E-02 0. -1.
         -2   -1    0    0    0  501 -0.00000000000E+00 -0.00000000000E+00 -0.42105705974E+03  0.42105705975E+03  0.25500000000E-02 0.  1.
    8880022    1    1    2    0    0 -0.37909729802E+03  0.64636989576E+03  0.32450909824E+03  0.83078674241E+03  0.15294330000E+03 0.  0.
    8880022    1    1    2    0    0  0.37909729802E+03 -0.64636989576E+03  0.70289315344E+03  0.10387296288E+04  0.15294330000E+03 0.  0.
<mgrwt>
<rscale>  0 0.76478785E+03</rscale>
<asrwt>0</asrwt>
<pdfrwt beam="1">  1        2 0.22283990E+00 0.76478785E+03</pdfrwt>
<pdfrwt beam="2">  1       -2 0.64778008E-01 0.76478785E+03</pdfrwt>
<totfact> 0.30478977E+01</totfact>
</mgrwt>
</event>
<event>
 4    1  0.1701380E-008  0.1025942E+04  0.7818608E-02  0.9280541E-01
          2   -1    0    0  501    0  0.00000000000E+00  0.00000000000E+00  0.20058723816E+04  0.20058723817E+04  0.25500000000E-02 0. -1.
         -2   -1    0    0    0  501 -0.00000000000E+00 -0.00000000000E+00 -0.31436381219E+04  0.31436381219E+04  0.25500000000E-02 0.  1.
    8880022    1    1    2    0    0 -0.97475379693E+03 -0.28110559278E+03  0.17811783041E+04  0.20555177263E+04  0.15294330000E+03 0.  0.
    8880022    1    1    2    0    0  0.97475379693E+03  0.28110559278E+03 -0.29189440444E+04  0.30939927773E+04  0.15294330000E+03 0.  0.
<mgrwt>
<rscale>  0 0.10259420E+04</rscale>
<asrwt>0</asrwt>
<pdfrwt beam="1">  1        2 0.30859575E+00 0.10259420E+04</pdfrwt>
<pdfrwt beam="2">  1       -2 0.48363663E+00 0.10259420E+04</pdfrwt>
<totfact> 0.14071378E-02</totfact>
</mgrwt>
</event>
<event>
 4    1  0.1701380E-008  0.9404604E+03  0.7818608E-02  0.9376371E-01
          2   -1    0    0  501    0  0.00000000000E+00  0.00000000000E+00  0.34162342049E+04  0.34162342049E+04  0.25500000000E-02 0. -1.
         -2   -1    0    0    0  501 -0.00000000000E+00 -0.00000000000E+00 -0.35557941816E+03  0.35557941816E+03  0.25500000000E-02 0.  1.
    8880022    1    1    2    0    0  0.84149358095E+03 -0.39110445413E+03  0.54695701468E+03  0.10879465840E+04  0.15294330000E+03 0.  0.
    8880022    1    1    2    0    0 -0.84149358095E+03  0.39110445413E+03  0.25136977721E+04  0.26838670390E+04  0.15294330000E+03 0.  0.
<mgrwt>
<rscale>  0 0.94046042E+03</rscale>
<asrwt>0</asrwt>
<pdfrwt beam="1">  1        2 0.52557448E+00 0.94046042E+03</pdfrwt>
<pdfrwt beam="2">  1       -2 0.54704527E-01 0.94046042E+03</pdfrwt>
<totfact> 0.30517653E+00</totfact>
</mgrwt>
</event>
<event>
 4    1  0.1701380E-008  0.1197341E+04  0.7818608E-02  0.9115187E-01
         -2   -1    0    0    0  501 -0.00000000000E+00  0.00000000000E+00  0.11082786678E+04  0.11082786678E+04  0.25500000000E-02 0.  1.
          2   -1    0    0  501    0  0.00000000000E+00 -0.00000000000E+00 -0.27836936358E+04  0.27836936358E+04  0.25500000000E-02 0. -1.
    8880022    1    1    2    0    0 -0.10783589036E+04  0.49736832339E+03 -0.22614834339E+04  0.25588927584E+04  0.15294330000E+03 0.  0.
    8880022    1    1    2    0    0  0.10783589036E+04 -0.49736832339E+03  0.58606846583E+03  0.13330795452E+04  0.15294330000E+03 0.  0.
<mgrwt>
<rscale>  0 0.11973407E+04</rscale>
<asrwt>0</asrwt>
<pdfrwt beam="1">  1        2 0.42826056E+00 0.11973407E+04</pdfrwt>
<pdfrwt beam="2">  1       -2 0.17050441E+00 0.11973407E+04</pdfrwt>
<totfact> 0.49032057E-01</totfact>
</mgrwt>
</event>
<event>
 4    1  0.1701380E-008  0.4226330E+03  0.7818608E-02  0.1036213E+00
         -2   -1    0    0    0  501 -0.00000000000E+00  0.00000000000E+00  0.48322872200E+03  0.48322872201E+03  0.25500000000E-02 0.  1.
          2   -1    0    0  501    0  0.00000000000E+00 -0.00000000000E+00 -0.13684134367E+04  0.13684134367E+04  0.25500000000E-02 0. -1.
    8880022    1    1    2    0    0  0.13860802047E+03 -0.36880182219E+03 -0.12335492432E+04  0.13039410860E+04  0.15294330000E+03 0.  0.
    8880022    1    1    2    0    0 -0.13860802047E+03  0.36880182219E+03  0.34836452845E+03  0.54770107275E+03  0.15294330000E+03 0.  1.
<mgrwt>
<rscale>  0 0.42263296E+03</rscale>
<asrwt>0</asrwt>
<pdfrwt beam="1">  1        2 0.21052514E+00 0.42263296E+03</pdfrwt>
<pdfrwt beam="2">  1       -2 0.74342881E-01 0.42263296E+03</pdfrwt>
<totfact> 0.26357675E+01</totfact>
</mgrwt>
</event>
<event>
 4    1  0.1701380E-008  0.1583168E+04  0.7818608E-02  0.8830956E-01
         -2   -1    0    0    0  501 -0.00000000000E+00  0.00000000000E+00  0.11012698699E+04  0.11012698699E+04  0.25500000000E-02 0.  1.
          2   -1    0    0  501    0  0.00000000000E+00 -0.00000000000E+00 -0.28511166195E+04  0.28511166195E+04  0.25500000000E-02 0. -1.
    8880022    1    1    2    0    0 -0.54703049109E+03  0.14777645499E+04 -0.17625355315E+04  0.23691672748E+04  0.15294330000E+03 0.  0.
    8880022    1    1    2    0    0  0.54703049109E+03 -0.14777645499E+04  0.12688781911E+02  0.15832192145E+04  0.15294330000E+03 0.  0.
<mgrwt>
<rscale>  0 0.15831684E+04</rscale>
<asrwt>0</asrwt>
<pdfrwt beam="1">  1        2 0.43863332E+00 0.15831684E+04</pdfrwt>
<pdfrwt beam="2">  1       -2 0.16942613E+00 0.15831684E+04</pdfrwt>
<totfact> 0.43330135E-01</totfact>
</mgrwt>
</event>
<event>
 4    1  0.1701380E-008  0.8376023E+03  0.7818608E-02  0.9507129E-01
         -2   -1    0    0    0  501 -0.00000000000E+00  0.00000000000E+00  0.13021323206E+04  0.13021323206E+04  0.25500000000E-02 0.  1.
          2   -1    0    0  501    0  0.00000000000E+00 -0.00000000000E+00 -0.62540507184E+03  0.62540507184E+03  0.25500000000E-02 0. -1.
    8880022    1    1    2    0    0 -0.44810223435E+03 -0.69093436991E+03 -0.20298557591E+02  0.83784819652E+03  0.15294330000E+03 0.  0.
    8880022    1    1    2    0    0  0.44810223435E+03  0.69093436991E+03  0.69702580632E+03  0.10896891959E+04  0.15294330000E+03 0.  0.
<mgrwt>
<rscale>  0 0.83760227E+03</rscale>
<asrwt>0</asrwt>
<pdfrwt beam="1">  1        2 0.96216166E-01 0.83760227E+03</pdfrwt>
<pdfrwt beam="2">  1       -2 0.20032805E+00 0.83760227E+03</pdfrwt>
<totfact> 0.63038240E+00</totfact>
</mgrwt>
</event>
<event>
 4    1  0.1701380E-008  0.1758852E+04  0.7818608E-02  0.8728493E-01
         -2   -1    0    0    0  501 -0.00000000000E+00  0.00000000000E+00  0.31992306587E+04  0.31992306587E+04  0.25500000000E-02 0.  1.
          2   -1    0    0  501    0  0.00000000000E+00 -0.00000000000E+00 -0.12731249322E+04  0.12731249322E+04  0.25500000000E-02 0. -1.
    8880022    1    1    2    0    0  0.30650404244E+03 -0.17251731041E+04 -0.13353079792E+03  0.17639130064E+04  0.15294330000E+03 0.  0.
    8880022    1    1    2    0    0 -0.30650404244E+03  0.17251731041E+04  0.20596365245E+04  0.27084425844E+04  0.15294330000E+03 0.  0.
<mgrwt>
<rscale>  0 0.17588515E+04</rscale>
<asrwt>0</asrwt>
<pdfrwt beam="1">  1        2 0.19586538E+00 0.17588515E+04</pdfrwt>
<pdfrwt beam="2">  1       -2 0.49218933E+00 0.17588515E+04</pdfrwt>
<totfact> 0.28823702E-02</totfact>
</mgrwt>
</event>
<event>
 4    1  0.1701380E-008  0.8218089E+03  0.7818608E-02  0.9528975E-01
         -2   -1    0    0    0  501 -0.00000000000E+00  0.00000000000E+00  0.13082289779E+04  0.13082289779E+04  0.25500000000E-02 0.  1.
          2   -1    0    0  501    0  0.00000000000E+00 -0.00000000000E+00 -0.10369552107E+04  0.10369552107E+04  0.25500000000E-02 0. -1.
    8880022    1    1    2    0    0 -0.45187144176E+03 -0.66917145486E+03 -0.69529224407E+03  0.10764762856E+04  0.15294330000E+03 0.  0.
    8880022    1    1    2    0    0  0.45187144176E+03  0.66917145486E+03  0.96656601122E+03  0.12687079029E+04  0.15294330000E+03 0.  0.
<mgrwt>
<rscale>  0 0.82180891E+03</rscale>
<asrwt>0</asrwt>
<pdfrwt beam="1">  1        2 0.15953157E+00 0.82180891E+03</pdfrwt>
<pdfrwt beam="2">  1       -2 0.20126600E+00 0.82180891E+03</pdfrwt>
<totfact> 0.31574782E+00</totfact>
</mgrwt>
</event>
<event>
 4    1  0.1701380E-008  0.1206108E+04  0.7818608E-02  0.9107527E-01
         -2   -1    0    0    0  501 -0.00000000000E+00  0.00000000000E+00  0.47592771460E+03  0.47592771461E+03  0.25500000000E-02 0.  1.
          2   -1    0    0  501    0  0.00000000000E+00 -0.00000000000E+00 -0.31599108140E+04  0.31599108140E+04  0.25500000000E-02 0. -1.
    8880022    1    1    2    0    0 -0.11948719698E+04 -0.59891544188E+02 -0.10132069038E+04  0.15752097969E+04  0.15294330000E+03 0.  0.
    8880022    1    1    2    0    0  0.11948719698E+04  0.59891544188E+02 -0.16707761955E+04  0.20606287317E+04  0.15294330000E+03 0.  0.
<mgrwt>
<rscale>  0 0.12061085E+04</rscale>
<asrwt>0</asrwt>
<pdfrwt beam="1">  1        2 0.48614011E+00 0.12061085E+04</pdfrwt>
<pdfrwt beam="2">  1       -2 0.73219650E-01 0.12061085E+04</pdfrwt>
<totfact> 0.23111228E+00</totfact>
</mgrwt>
</event>
<event>
 4    1  0.1701380E-008  0.6490145E+03  0.7818608E-02  0.9808630E-01
          2   -1    0    0  501    0  0.00000000000E+00  0.00000000000E+00  0.47311757579E+03  0.47311757580E+03  0.25500000000E-02 0. -1.
         -2   -1    0    0    0  501 -0.00000000000E+00 -0.00000000000E+00 -0.14955052193E+04  0.14955052193E+04  0.25500000000E-02 0.  1.
    8880022    1    1    2    0    0  0.78543313336E+02  0.62582669767E+03 -0.11373569146E+04  0.13095039182E+04  0.15294330000E+03 0.  0.
    8880022    1    1    2    0    0 -0.78543313336E+02 -0.62582669767E+03  0.11496927108E+03  0.65911887691E+03  0.15294330000E+03 0.  0.
<mgrwt>
<rscale>  0 0.64901445E+03</rscale>
<asrwt>0</asrwt>
<pdfrwt beam="1">  1        2 0.72787320E-01 0.64901445E+03</pdfrwt>
<pdfrwt beam="2">  1       -2 0.23007772E+00 0.64901445E+03</pdfrwt>
<totfact> 0.58221205E+00</totfact>
</mgrwt>
</event>
<event>
 4    1  0.1701380E-008  0.8263840E+03  0.7818608E-02  0.9522593E-01
         -2   -1    0    0    0  501 -0.00000000000E+00  0.00000000000E+00  0.10557111106E+04  0.10557111106E+04  0.25500000000E-02 0.  1.
          2   -1    0    0  501    0  0.00000000000E+00 -0.00000000000E+00 -0.19388130753E+04  0.19388130753E+04  0.25500000000E-02 0. -1.
    8880022    1    1    2    0    0 -0.26500959424E+02  0.81167519837E+03 -0.16637758430E+04  0.18577030541E+04  0.15294330000E+03 0.  0.
    8880022    1    1    2    0    0  0.26500959424E+02 -0.81167519837E+03  0.78067387826E+03  0.11368211318E+04  0.15294330000E+03 0.  0.
<mgrwt>
<rscale>  0 0.82638404E+03</rscale>
<asrwt>0</asrwt>
<pdfrwt beam="1">  1        2 0.29827893E+00 0.82638404E+03</pdfrwt>
<pdfrwt beam="2">  1       -2 0.16241709E+00 0.82638404E+03</pdfrwt>
<totfact> 0.17880877E+00</totfact>
</mgrwt>
</event>
<event>
 4    1  0.1701380E-008  0.7649952E+03  0.7818608E-02  0.9612115E-01
          2   -1    0    0  501    0  0.00000000000E+00  0.00000000000E+00  0.22075747118E+04  0.22075747118E+04  0.25500000000E-02 0. -1.
         -2   -1    0    0    0  501 -0.00000000000E+00 -0.00000000000E+00 -0.62988066484E+03  0.62988066485E+03  0.25500000000E-02 0.  1.
    8880022    1    1    2    0    0  0.73118488361E+03  0.16490821353E+03  0.18685109778E+04  0.20190470475E+04  0.15294330000E+03 0.  0.
    8880022    1    1    2    0    0 -0.73118488361E+03 -0.16490821353E+03 -0.29081693084E+03  0.81840832913E+03  0.15294330000E+03 0.  0.
<mgrwt>
<rscale>  0 0.76499523E+03</rscale>
<asrwt>0</asrwt>
<pdfrwt beam="1">  1        2 0.33962688E+00 0.76499523E+03</pdfrwt>
<pdfrwt beam="2">  1       -2 0.96904717E-01 0.76499523E+03</pdfrwt>
<totfact> 0.47256409E+00</totfact>
</mgrwt>
</event>
<event>
 4    1  0.1701380E-008  0.1151819E+04  0.7818608E-02  0.9156107E-01
          2   -1    0    0  501    0  0.00000000000E+00  0.00000000000E+00  0.17032548646E+04  0.17032548646E+04  0.25500000000E-02 0. -1.
         -2   -1    0    0    0  501 -0.00000000000E+00 -0.00000000000E+00 -0.11765627780E+04  0.11765627780E+04  0.25500000000E-02 0.  1.
    8880022    1    1    2    0    0  0.88446723772E+03 -0.72181278752E+03 -0.57375468283E+03  0.12868108190E+04  0.15294330000E+03 0.  0.
    8880022    1    1    2    0    0 -0.88446723772E+03  0.72181278752E+03  0.11004467695E+04  0.15930068237E+04  0.15294330000E+03 0.  0.
<mgrwt>
<rscale>  0 0.11518193E+04</rscale>
<asrwt>0</asrwt>
<pdfrwt beam="1">  1        2 0.26203921E+00 0.11518193E+04</pdfrwt>
<pdfrwt beam="2">  1       -2 0.18100966E+00 0.11518193E+04</pdfrwt>
<totfact> 0.17005319E+00</totfact>
</mgrwt>
</event>
<event>
 4    1  0.1701380E-008  0.9572742E+03  0.7818608E-02  0.9356688E-01
          2   -1    0    0  501    0  0.00000000000E+00  0.00000000000E+00  0.22491270730E+04  0.22491270730E+04  0.25500000000E-02 0. -1.
         -2   -1    0    0    0  501 -0.00000000000E+00 -0.00000000000E+00 -0.95973325763E+03  0.95973325763E+03  0.25500000000E-02 0.  1.
    8880022    1    1    2    0    0  0.78507069036E+03 -0.52597171814E+03  0.18618136678E+04  0.20934956469E+04  0.15294330000E+03 0.  0.
    8880022    1    1    2    0    0 -0.78507069036E+03  0.52597171814E+03 -0.57241985242E+03  0.11153646837E+04  0.15294330000E+03 0.  0.
<mgrwt>
<rscale>  0 0.95727420E+03</rscale>
<asrwt>0</asrwt>
<pdfrwt beam="1">  1        2 0.34601955E+00 0.95727420E+03</pdfrwt>
<pdfrwt beam="2">  1       -2 0.14765127E+00 0.95727420E+03</pdfrwt>
<totfact> 0.15253631E+00</totfact>
</mgrwt>
</event>
<event>
 4    1  0.1701380E-008  0.4564588E+03  0.7818608E-02  0.1025813E+00
         -2   -1    0    0    0  501 -0.00000000000E+00  0.00000000000E+00  0.12210739122E+03  0.12210739125E+03  0.25500000000E-02 0.  1.
          2   -1    0    0  501    0  0.00000000000E+00 -0.00000000000E+00 -0.33257894672E+04  0.33257894672E+04  0.25500000000E-02 0. -1.
    8880022    1    1    2    0    0 -0.41010768343E+03 -0.12951703692E+03 -0.39884859919E+03  0.60616403139E+03  0.15294330000E+03 0.  1.
    8880022    1    1    2    0    0  0.41010768343E+03  0.12951703692E+03 -0.28048334768E+04  0.28417328270E+04  0.15294330000E+03 0.  0.
<mgrwt>
<rscale>  0 0.45645879E+03</rscale>
<asrwt>0</asrwt>
<pdfrwt beam="1">  1        2 0.51165985E+00 0.45645879E+03</pdfrwt>
<pdfrwt beam="2">  1       -2 0.18785755E-01 0.45645879E+03</pdfrwt>
<totfact> 0.28999832E+01</totfact>
</mgrwt>
</event>
<event>
 4    1  0.1701380E-008  0.9778850E+03  0.7818608E-02  0.9333138E-01
          2   -1    0    0  501    0  0.00000000000E+00  0.00000000000E+00  0.26649218775E+04  0.26649218775E+04  0.25500000000E-02 0. -1.
         -2   -1    0    0    0  501 -0.00000000000E+00 -0.00000000000E+00 -0.15974691796E+04  0.15974691796E+04  0.25500000000E-02 0.  1.
    8880022    1    1    2    0    0  0.42628394363E+03  0.86668875784E+03 -0.13429056650E+04  0.16612208407E+04  0.15294330000E+03 0.  0.
    8880022    1    1    2    0    0 -0.42628394363E+03 -0.86668875784E+03  0.24103583630E+04  0.26011702164E+04  0.15294330000E+03 0.  0.
<mgrwt>
<rscale>  0 0.97788499E+03</rscale>
<asrwt>0</asrwt>
<pdfrwt beam="1">  1        2 0.40998797E+00 0.97788499E+03</pdfrwt>
<pdfrwt beam="2">  1       -2 0.24576449E+00 0.97788499E+03</pdfrwt>
<totfact> 0.19367958E-01</totfact>
</mgrwt>
</event>
<event>
 4    1  0.1701380E-008  0.2082337E+04  0.7818608E-02  0.8569064E-01
          2   -1    0    0  501    0  0.00000000000E+00  0.00000000000E+00  0.19051230644E+04  0.19051230644E+04  0.25500000000E-02 0. -1.
         -2   -1    0    0    0  501 -0.00000000000E+00 -0.00000000000E+00 -0.27411319230E+04  0.27411319230E+04  0.25500000000E-02 0.  1.
    8880022    1    1    2    0    0 -0.13108974344E+04 -0.16106774514E+04  0.53892541530E+03  0.21509454182E+04  0.15294330000E+03 0.  0.
    8880022    1    1    2    0    0  0.13108974344E+04  0.16106774514E+04 -0.13749342739E+04  0.24953095693E+04  0.15294330000E+03 0.  0.
<mgrwt>
<rscale>  0 0.20823366E+04</rscale>
<asrwt>0</asrwt>
<pdfrwt beam="1">  1        2 0.29309586E+00 0.20823366E+04</pdfrwt>
<pdfrwt beam="2">  1       -2 0.42171260E+00 0.20823366E+04</pdfrwt>
<totfact> 0.35417836E-02</totfact>
</mgrwt>
</event>
<event>
 4    1  0.1701380E-008  0.5472386E+03  0.7818608E-02  0.1002135E+00
          2   -1    0    0  501    0  0.00000000000E+00  0.00000000000E+00  0.18681526715E+04  0.18681526715E+04  0.25500000000E-02 0. -1.
         -2   -1    0    0    0  501 -0.00000000000E+00 -0.00000000000E+00 -0.13049974667E+04  0.13049974667E+04  0.25500000000E-02 0.  1.
    8880022    1    1    2    0    0 -0.52528992453E+03  0.12201810051E+02  0.17675153911E+04  0.18502920580E+04  0.15294330000E+03 0.  0.
    8880022    1    1    2    0    0  0.52528992453E+03 -0.12201810051E+02 -0.12043601863E+04  0.13228580802E+04  0.15294330000E+03 0.  1.
<mgrwt>
<rscale>  0 0.54723856E+03</rscale>
<asrwt>0</asrwt>
<pdfrwt beam="1">  1        2 0.28740810E+00 0.54723856E+03</pdfrwt>
<pdfrwt beam="2">  1       -2 0.20076884E+00 0.54723856E+03</pdfrwt>
<totfact> 0.11349366E+00</totfact>
</mgrwt>
</event>
<event>
 4    1  0.1701380E-008  0.3971821E+03  0.7818608E-02  0.1044760E+00
          2   -1    0    0  501    0  0.00000000000E+00  0.00000000000E+00  0.13438907878E+04  0.13438907878E+04  0.25500000000E-02 0. -1.
         -2   -1    0    0    0  501 -0.00000000000E+00 -0.00000000000E+00 -0.23869136777E+03  0.23869136778E+03  0.25500000000E-02 0.  1.
    8880022    1    1    2    0    0 -0.55973200794E+02 -0.36225535645E+03 -0.11503294174E+02  0.39734861428E+03  0.15294330000E+03 0.  0.
    8880022    1    1    2    0    0  0.55973200794E+02  0.36225535645E+03  0.11167027142E+04  0.11852335413E+04  0.15294330000E+03 0.  0.
<mgrwt>
<rscale>  0 0.39718207E+03</rscale>
<asrwt>0</asrwt>
<pdfrwt beam="1">  1        2 0.20675243E+00 0.39718207E+03</pdfrwt>
<pdfrwt beam="2">  1       -2 0.36721749E-01 0.39718207E+03</pdfrwt>
<totfact> 0.11507390E+02</totfact>
</mgrwt>
</event>
<event>
 4    1  0.1701380E-008  0.7420081E+03  0.7818608E-02  0.9647973E-01
          2   -1    0    0  501    0  0.00000000000E+00  0.00000000000E+00  0.43684984953E+04  0.43684984953E+04  0.25500000000E-02 0. -1.
         -2   -1    0    0    0  501 -0.00000000000E+00 -0.00000000000E+00 -0.23086184536E+03  0.23086184537E+03  0.25500000000E-02 0.  1.
    8880022    1    1    2    0    0  0.35748878320E+03  0.63197000656E+03  0.36184599921E+04  0.36937553637E+04  0.15294330000E+03 0.  0.
    8880022    1    1    2    0    0 -0.35748878320E+03 -0.63197000656E+03  0.51917665786E+03  0.90560497702E+03  0.15294330000E+03 0.  0.
<mgrwt>
<rscale>  0 0.74200807E+03</rscale>
<asrwt>0</asrwt>
<pdfrwt beam="1">  1        2 0.67207670E+00 0.74200807E+03</pdfrwt>
<pdfrwt beam="2">  1       -2 0.35517207E-01 0.74200807E+03</pdfrwt>
<totfact> 0.13843751E+00</totfact>
</mgrwt>
</event>
<event>
 4    1  0.1701380E-008  0.1498119E+04  0.7818608E-02  0.8885705E-01
          2   -1    0    0  501    0  0.00000000000E+00  0.00000000000E+00  0.18809845365E+04  0.18809845365E+04  0.25500000000E-02 0. -1.
         -2   -1    0    0    0  501 -0.00000000000E+00 -0.00000000000E+00 -0.25970515606E+04  0.25970515606E+04  0.25500000000E-02 0.  1.
    8880022    1    1    2    0    0 -0.48549194035E+03  0.14089947749E+04  0.12881581684E+04  0.19757813188E+04  0.15294330000E+03 0.  0.
    8880022    1    1    2    0    0  0.48549194035E+03 -0.14089947749E+04 -0.20042251925E+04  0.25022547782E+04  0.15294330000E+03 0.  0.
<mgrwt>
<rscale>  0 0.14981189E+04</rscale>
<asrwt>0</asrwt>
<pdfrwt beam="1">  1        2 0.28938223E+00 0.14981189E+04</pdfrwt>
<pdfrwt beam="2">  1       -2 0.39954640E+00 0.14981189E+04</pdfrwt>
<totfact> 0.54680313E-02</totfact>
</mgrwt>
</event>
<event>
 4    1  0.1701380E-008  0.6172847E+03  0.7818608E-02  0.9870181E-01
          2   -1    0    0  501    0  0.00000000000E+00  0.00000000000E+00  0.65132588213E+03  0.65132588214E+03  0.25500000000E-02 0. -1.
         -2   -1    0    0    0  501 -0.00000000000E+00 -0.00000000000E+00 -0.99891712053E+03  0.99891712053E+03  0.25500000000E-02 0.  1.
    8880022    1    1    2    0    0  0.57291487429E+03  0.17151482711E+03  0.35733085448E+03  0.71325015364E+03  0.15294330000E+03 0.  0.
    8880022    1    1    2    0    0 -0.57291487429E+03 -0.17151482711E+03 -0.70492209287E+03  0.93699284903E+03  0.15294330000E+03 0.  0.
<mgrwt>
<rscale>  0 0.61728473E+03</rscale>
<asrwt>0</asrwt>
<pdfrwt beam="1">  1        2 0.10020398E+00 0.61728473E+03</pdfrwt>
<pdfrwt beam="2">  1       -2 0.15367956E+00 0.61728473E+03</pdfrwt>
<totfact> 0.12981092E+01</totfact>
</mgrwt>
</event>
<event>
 4    1  0.1701380E-008  0.5015155E+03  0.7818608E-02  0.1013384E+00
         -2   -1    0    0    0  501 -0.00000000000E+00  0.00000000000E+00  0.11072946562E+04  0.11072946562E+04  0.25500000000E-02 0.  1.
          2   -1    0    0  501    0  0.00000000000E+00 -0.00000000000E+00 -0.28454625359E+04  0.28454625359E+04  0.25500000000E-02 0. -1.
    8880022    1    1    2    0    0  0.29619007400E+03 -0.37469665834E+03 -0.27649373832E+04  0.28100527632E+04  0.15294330000E+03 0.  0.
    8880022    1    1    2    0    0 -0.29619007400E+03  0.37469665834E+03  0.10267695035E+04  0.11427044290E+04  0.15294330000E+03 0.  0.
<mgrwt>
<rscale>  0 0.50151550E+03</rscale>
<asrwt>0</asrwt>
<pdfrwt beam="1">  1        2 0.43776346E+00 0.50151550E+03</pdfrwt>
<pdfrwt beam="2">  1       -2 0.17035303E+00 0.50151550E+03</pdfrwt>
<totfact> 0.52735882E-01</totfact>
</mgrwt>
</event>
<event>
 4    1  0.1701380E-008  0.3767836E+03  0.7818608E-02  0.1052129E+00
          2   -1    0    0  501    0  0.00000000000E+00  0.00000000000E+00  0.16056378160E+04  0.16056378160E+04  0.25500000000E-02 0. -1.
         -2   -1    0    0    0  501 -0.00000000000E+00 -0.00000000000E+00 -0.53952276662E+03  0.53952276662E+03  0.25500000000E-02 0.  1.
    8880022    1    1    2    0    0  0.33562333202E+03 -0.77014110004E+02  0.15138205027E+04  0.15600058851E+04  0.15294330000E+03 0.  0.
    8880022    1    1    2    0    0 -0.33562333202E+03  0.77014110004E+02 -0.44770545330E+03  0.58515469755E+03  0.15294330000E+03 0.  0.
<mgrwt>
<rscale>  0 0.37678355E+03</rscale>
<asrwt>0</asrwt>
<pdfrwt beam="1">  1        2 0.24702120E+00 0.37678355E+03</pdfrwt>
<pdfrwt beam="2">  1       -2 0.83003504E-01 0.37678355E+03</pdfrwt>
<totfact> 0.15484196E+01</totfact>
</mgrwt>
</event>
<event>
 4    1  0.1701380E-008  0.7728811E+03  0.7818608E-02  0.9600122E-01
          2   -1    0    0  501    0  0.00000000000E+00  0.00000000000E+00  0.18884734479E+04  0.18884734479E+04  0.25500000000E-02 0. -1.
         -2   -1    0    0    0  501 -0.00000000000E+00 -0.00000000000E+00 -0.11213434180E+04  0.11213434180E+04  0.25500000000E-02 0.  1.
    8880022    1    1    2    0    0 -0.53045311338E+02  0.75573782838E+03  0.16586743143E+04  0.18299031680E+04  0.15294330000E+03 0.  0.
    8880022    1    1    2    0    0  0.53045311338E+02 -0.75573782838E+03 -0.89154428440E+03  0.11799136978E+04  0.15294330000E+03 0.  0.
<mgrwt>
<rscale>  0 0.77288105E+03</rscale>
<asrwt>0</asrwt>
<pdfrwt beam="1">  1        2 0.29053437E+00 0.77288105E+03</pdfrwt>
<pdfrwt beam="2">  1       -2 0.17251437E+00 0.77288105E+03</pdfrwt>
<totfact> 0.16282324E+00</totfact>
</mgrwt>
</event>
<event>
 4    1  0.1701380E-008  0.9172270E+03  0.7818608E-02  0.9404299E-01
         -2   -1    0    0    0  501 -0.00000000000E+00  0.00000000000E+00  0.19780576105E+04  0.19780576105E+04  0.25500000000E-02 0.  1.
          2   -1    0    0  501    0  0.00000000000E+00 -0.00000000000E+00 -0.94706733901E+03  0.94706733901E+03  0.25500000000E-02 0. -1.
    8880022    1    1    2    0    0 -0.48768788694E+03 -0.76162603437E+03 -0.57006669260E+03  0.10799450812E+04  0.15294330000E+03 0.  0.
    8880022    1    1    2    0    0  0.48768788694E+03  0.76162603437E+03  0.16010569641E+04  0.18451798683E+04  0.15294330000E+03 0.  0.
<mgrwt>
<rscale>  0 0.91722699E+03</rscale>
<asrwt>0</asrwt>
<pdfrwt beam="1">  1        2 0.14570267E+00 0.91722699E+03</pdfrwt>
<pdfrwt beam="2">  1       -2 0.30431655E+00 0.91722699E+03</pdfrwt>
<totfact> 0.82946825E-01</totfact>
</mgrwt>
</event>
<event>
 4    1  0.1701380E-008  0.1180384E+04  0.7818608E-02  0.9130202E-01
         -2   -1    0    0    0  501 -0.00000000000E+00  0.00000000000E+00  0.91830355469E+03  0.91830355469E+03  0.25500000000E-02 0.  1.
          2   -1    0    0  501    0  0.00000000000E+00 -0.00000000000E+00 -0.37882564426E+04  0.37882564426E+04  0.25500000000E-02 0. -1.
    8880022    1    1    2    0    0 -0.86427253254E+03  0.78926988775E+03  0.38708117692E+03  0.12422308388E+04  0.15294330000E+03 0.  0.
    8880022    1    1    2    0    0  0.86427253254E+03 -0.78926988775E+03 -0.32570340648E+04  0.34643291585E+04  0.15294330000E+03 0.  0.
<mgrwt>
<rscale>  0 0.11803837E+04</rscale>
<asrwt>0</asrwt>
<pdfrwt beam="1">  1        2 0.58280868E+00 0.11803837E+04</pdfrwt>
<pdfrwt beam="2">  1       -2 0.14127747E+00 0.11803837E+04</pdfrwt>
<totfact> 0.17689922E-01</totfact>
</mgrwt>
</event>
<event>
 4    1  0.1701380E-008  0.1656044E+04  0.7818608E-02  0.8786839E-01
          2   -1    0    0  501    0  0.00000000000E+00  0.00000000000E+00  0.13875104798E+04  0.13875104798E+04  0.25500000000E-02 0. -1.
         -2   -1    0    0    0  501 -0.00000000000E+00 -0.00000000000E+00 -0.25025834500E+04  0.25025834500E+04  0.25500000000E-02 0.  1.
    8880022    1    1    2    0    0 -0.66626882878E+03  0.15083688455E+04 -0.14492860847E+04  0.22006618402E+04  0.15294330000E+03 0.  0.
    8880022    1    1    2    0    0  0.66626882878E+03 -0.15083688455E+04  0.33421311453E+03  0.16894320896E+04  0.15294330000E+03 0.  0.
<mgrwt>
<rscale>  0 0.16560442E+04</rscale>
<asrwt>0</asrwt>
<pdfrwt beam="1">  1        2 0.21346315E+00 0.16560442E+04</pdfrwt>
<pdfrwt beam="2">  1       -2 0.38501284E+00 0.16560442E+04</pdfrwt>
<totfact> 0.12678195E-01</totfact>
</mgrwt>
</event>
<event>
 4    1  0.1701380E-008  0.4317529E+03  0.7818608E-02  0.1033308E+00
         -2   -1    0    0    0  501 -0.00000000000E+00  0.00000000000E+00  0.40837033112E+03  0.40837033113E+03  0.25500000000E-02 0.  1.
          2   -1    0    0  501    0  0.00000000000E+00 -0.00000000000E+00 -0.71342211982E+03  0.71342211982E+03  0.25500000000E-02 0. -1.
    8880022    1    1    2    0    0 -0.42116751515E+02  0.40155332626E+03 -0.48913954858E+03  0.65243240691E+03  0.15294330000E+03 0.  0.
    8880022    1    1    2    0    0  0.42116751515E+02 -0.40155332626E+03  0.18408775988E+03  0.46936004404E+03  0.15294330000E+03 0.  1.
<mgrwt>
<rscale>  0 0.43175288E+03</rscale>
<asrwt>0</asrwt>
<pdfrwt beam="1">  1        2 0.10975725E+00 0.43175288E+03</pdfrwt>
<pdfrwt beam="2">  1       -2 0.62826205E-01 0.43175288E+03</pdfrwt>
<totfact> 0.97542973E+01</totfact>
</mgrwt>
</event>
<event>
 4    1  0.1701380E-008  0.1077705E+04  0.7818608E-02  0.9227199E-01
         -2   -1    0    0    0  501 -0.00000000000E+00  0.00000000000E+00  0.82978682875E+03  0.82978682876E+03  0.25500000000E-02 0.  1.
          2   -1    0    0  501    0  0.00000000000E+00 -0.00000000000E+00 -0.19945295076E+04  0.19945295076E+04  0.25500000000E-02 0. -1.
    8880022    1    1    2    0    0 -0.49517649689E+03  0.94491106043E+03 -0.13535610948E+04  0.17301953547E+04  0.15294330000E+03 0.  0.
    8880022    1    1    2    0    0  0.49517649689E+03 -0.94491106043E+03  0.18881841594E+03  0.10941209816E+04  0.15294330000E+03 0.  0.
<mgrwt>
<rscale>  0 0.10777051E+04</rscale>
<asrwt>0</asrwt>
<pdfrwt beam="1">  1        2 0.30685069E+00 0.10777051E+04</pdfrwt>
<pdfrwt beam="2">  1       -2 0.12765951E+00 0.10777051E+04</pdfrwt>
<totfact> 0.30256088E+00</totfact>
</mgrwt>
</event>
<event>
 4    1  0.1701380E-008  0.3491725E+03  0.7818608E-02  0.1062955E+00
          2   -1    0    0  501    0  0.00000000000E+00  0.00000000000E+00  0.39841231521E+04  0.39841231521E+04  0.25500000000E-02 0. -1.
         -2   -1    0    0    0  501 -0.00000000000E+00 -0.00000000000E+00 -0.13376052660E+03  0.13376052662E+03  0.25500000000E-02 0.  1.
    8880022    1    1    2    0    0  0.14475335960E+03  0.27852514603E+03  0.11703727084E+03  0.36826507826E+03  0.15294330000E+03 0.  0.
    8880022    1    1    2    0    0 -0.14475335960E+03 -0.27852514603E+03  0.37333253546E+04  0.37496186004E+04  0.15294330000E+03 0.  0.
<mgrwt>
<rscale>  0 0.34917251E+03</rscale>
<asrwt>0</asrwt>
<pdfrwt beam="1">  1        2 0.61294193E+00 0.34917251E+03</pdfrwt>
<pdfrwt beam="2">  1       -2 0.20578546E-01 0.34917251E+03</pdfrwt>
<totfact> 0.88988328E+00</totfact>
</mgrwt>
</event>
<event>
 4    1  0.1701380E-008  0.5233347E+03  0.7818608E-02  0.1007862E+00
          2   -1    0    0  501    0  0.00000000000E+00  0.00000000000E+00  0.35555488407E+04  0.35555488407E+04  0.25500000000E-02 0. -1.
         -2   -1    0    0    0  501 -0.00000000000E+00 -0.00000000000E+00 -0.15362261740E+03  0.15362261742E+03  0.25500000000E-02 0.  1.
    8880022    1    1    2    0    0  0.44156979132E+03 -0.23559213547E+03  0.30104964759E+04  0.30556453033E+04  0.15294330000E+03 0.  0.
    8880022    1    1    2    0    0 -0.44156979132E+03  0.23559213547E+03  0.39142974734E+03  0.65352615481E+03  0.15294330000E+03 0.  0.
<mgrwt>
<rscale>  0 0.52333468E+03</rscale>
<asrwt>0</asrwt>
<pdfrwt beam="1">  1        2 0.54700747E+00 0.52333468E+03</pdfrwt>
<pdfrwt beam="2">  1       -2 0.23634251E-01 0.52333468E+03</pdfrwt>
<totfact> 0.13403742E+01</totfact>
</mgrwt>
</event>
<event>
 4    1  0.1701380E-008  0.4589200E+03  0.7818608E-02  0.1025095E+00
          2   -1    0    0  501    0  0.00000000000E+00  0.00000000000E+00  0.96518564007E+03  0.96518564007E+03  0.25500000000E-02 0. -1.
         -2   -1    0    0    0  501 -0.00000000000E+00 -0.00000000000E+00 -0.51870603527E+03  0.51870603528E+03  0.25500000000E-02 0.  1.
    8880022    1    1    2    0    0 -0.43023714507E+03  0.45955497940E+02 -0.34148272888E+03  0.57202973343E+03  0.15294330000E+03 0.  0.
    8880022    1    1    2    0    0  0.43023714507E+03 -0.45955497940E+02  0.78796233368E+03  0.91186194191E+03  0.15294330000E+03 0.  0.
<mgrwt>
<rscale>  0 0.45891999E+03</rscale>
<asrwt>0</asrwt>
<pdfrwt beam="1">  1        2 0.14849010E+00 0.45891999E+03</pdfrwt>
<pdfrwt beam="2">  1       -2 0.79800929E-01 0.45891999E+03</pdfrwt>
<totfact> 0.38734249E+01</totfact>
</mgrwt>
</event>
<event>
 4    1  0.1701380E-008  0.2628551E+04  0.7818608E-02  0.8358567E-01
         -2   -1    0    0    0  501 -0.00000000000E+00  0.00000000000E+00  0.22229474213E+04  0.22229474213E+04  0.25500000000E-02 0.  1.
          2   -1    0    0  501    0  0.00000000000E+00 -0.00000000000E+00 -0.33649292624E+04  0.33649292624E+04  0.25500000000E-02 0. -1.
    8880022    1    1    2    0    0 -0.23728143873E+04  0.11205543872E+04  0.20079742545E+03  0.26362096864E+04  0.15294330000E+03 0.  0.
    8880022    1    1    2    0    0  0.23728143873E+04 -0.11205543872E+04 -0.13427792665E+04  0.29516669973E+04  0.15294330000E+03 0.  0.
<mgrwt>
<rscale>  0 0.26285513E+04</rscale>
<asrwt>0</asrwt>
<pdfrwt beam="1">  1        2 0.51768143E+00 0.26285513E+04</pdfrwt>
<pdfrwt beam="2">  1       -2 0.34199191E+00 0.26285513E+04</pdfrwt>
<totfact> 0.14558634E-02</totfact>
</mgrwt>
</event>
<event>
 4    1  0.1701380E-008  0.1531458E+04  0.7818608E-02  0.8863799E-01
          2   -1    0    0  501    0  0.00000000000E+00  0.00000000000E+00  0.28893553274E+04  0.28893553274E+04  0.25500000000E-02 0. -1.
         -2   -1    0    0    0  501 -0.00000000000E+00 -0.00000000000E+00 -0.82086937132E+03  0.82086937132E+03  0.25500000000E-02 0.  1.
    8880022    1    1    2    0    0  0.12918129680E+04 -0.80820338644E+03  0.83845583882E+03  0.17459591361E+04  0.15294330000E+03 0.  0.
    8880022    1    1    2    0    0 -0.12918129680E+04  0.80820338644E+03  0.12300301173E+04  0.19642655627E+04  0.15294330000E+03 0.  1.
<mgrwt>
<rscale>  0 0.15314585E+04</rscale>
<asrwt>0</asrwt>
<pdfrwt beam="1">  1        2 0.44451621E+00 0.15314585E+04</pdfrwt>
<pdfrwt beam="2">  1       -2 0.12628759E+00 0.15314585E+04</pdfrwt>
<totfact> 0.90302757E-01</totfact>
</mgrwt>
</event>
<event>
 4    1  0.1701380E-008  0.4297857E+03  0.7818608E-02  0.1033928E+00
          2   -1    0    0  501    0  0.00000000000E+00  0.00000000000E+00  0.62675826990E+03  0.62675826991E+03  0.25500000000E-02 0. -1.
         -2   -1    0    0    0  501 -0.00000000000E+00 -0.00000000000E+00 -0.35400163961E+03  0.35400163962E+03  0.25500000000E-02 0.  1.
    8880022    1    1    2    0    0  0.21379986016E+03 -0.34002016517E+03  0.33705850444E+03  0.54619060900E+03  0.15294330000E+03 0.  0.
    8880022    1    1    2    0    0 -0.21379986016E+03  0.34002016517E+03 -0.64301874152E+02  0.43456930053E+03  0.15294330000E+03 0.  0.
<mgrwt>
<rscale>  0 0.42978570E+03</rscale>
<asrwt>0</asrwt>
<pdfrwt beam="1">  1        2 0.96424348E-01 0.42978570E+03</pdfrwt>
<pdfrwt beam="2">  1       -2 0.54461791E-01 0.42978570E+03</pdfrwt>
<totfact> 0.15394111E+02</totfact>
</mgrwt>
</event>
<event>
 4    1  0.1701380E-008  0.5995703E+03  0.7818608E-02  0.9906298E-01
          2   -1    0    0  501    0  0.00000000000E+00  0.00000000000E+00  0.33622314687E+04  0.33622314687E+04  0.25500000000E-02 0. -1.
         -2   -1    0    0    0  501 -0.00000000000E+00 -0.00000000000E+00 -0.12910192552E+03  0.12910192554E+03  0.25500000000E-02 0.  1.
    8880022    1    1    2    0    0  0.24247959307E+03  0.52658953396E+03  0.23401836021E+04  0.24157698224E+04  0.15294330000E+03 0.  0.
    8880022    1    1    2    0    0 -0.24247959307E+03 -0.52658953396E+03  0.89294594107E+03  0.10755635718E+04  0.15294330000E+03 0.  0.
<mgrwt>
<rscale>  0 0.59957030E+03</rscale>
<asrwt>0</asrwt>
<pdfrwt beam="1">  1        2 0.51726634E+00 0.59957030E+03</pdfrwt>
<pdfrwt beam="2">  1       -2 0.19861836E-01 0.59957030E+03</pdfrwt>
<totfact> 0.24077148E+01</totfact>
</mgrwt>
</event>
<event>
 4    1  0.1701380E-008  0.6657470E+03  0.7818608E-02  0.9777672E-01
         -2   -1    0    0    0  501 -0.00000000000E+00  0.00000000000E+00  0.12598765985E+04  0.12598765985E+04  0.25500000000E-02 0.  1.
          2   -1    0    0  501    0  0.00000000000E+00 -0.00000000000E+00 -0.17462396734E+04  0.17462396734E+04  0.25500000000E-02 0. -1.
    8880022    1    1    2    0    0 -0.40724140587E+03  0.50396606798E+03 -0.15863312006E+04  0.17203678942E+04  0.15294330000E+03 0.  0.
    8880022    1    1    2    0    0  0.40724140587E+03 -0.50396606798E+03  0.10999681257E+04  0.12857483777E+04  0.15294330000E+03 0.  0.
<mgrwt>
<rscale>  0 0.66574696E+03</rscale>
<asrwt>0</asrwt>
<pdfrwt beam="1">  1        2 0.26865226E+00 0.66574696E+03</pdfrwt>
<pdfrwt beam="2">  1       -2 0.19382717E+00 0.66574696E+03</pdfrwt>
<totfact> 0.14242594E+00</totfact>
</mgrwt>
</event>
<event>
 4    1  0.1701380E-008  0.4593647E+03  0.7818608E-02  0.1024966E+00
          2   -1    0    0  501    0  0.00000000000E+00  0.00000000000E+00  0.40801211769E+04  0.40801211769E+04  0.25500000000E-02 0. -1.
         -2   -1    0    0    0  501 -0.00000000000E+00 -0.00000000000E+00 -0.27152719062E+03  0.27152719063E+03  0.25500000000E-02 0.  1.
    8880022    1    1    2    0    0  0.23519739394E+03  0.36373952509E+03 -0.53375375351E+02  0.46245523020E+03  0.15294330000E+03 0.  0.
    8880022    1    1    2    0    0 -0.23519739394E+03 -0.36373952509E+03  0.38619693616E+04  0.38891931373E+04  0.15294330000E+03 0. -1.
<mgrwt>
<rscale>  0 0.45936468E+03</rscale>
<asrwt>0</asrwt>
<pdfrwt beam="1">  1        2 0.62771092E+00 0.45936468E+03</pdfrwt>
<pdfrwt beam="2">  1       -2 0.41773416E-01 0.45936468E+03</pdfrwt>
<totfact> 0.19472858E+00</totfact>
</mgrwt>
</event>
<event>
 4    1  0.1701380E-008  0.4118100E+03  0.7818608E-02  0.1039765E+00
         -2   -1    0    0    0  501 -0.00000000000E+00  0.00000000000E+00  0.88023497140E+03  0.88023497140E+03  0.25500000000E-02 0.  1.
          2   -1    0    0  501    0  0.00000000000E+00 -0.00000000000E+00 -0.46072529230E+03  0.46072529231E+03  0.25500000000E-02 0. -1.
    8880022    1    1    2    0    0 -0.38234699192E+03 -0.25650311195E+01  0.72118213728E+03  0.83047644745E+03  0.15294330000E+03 0.  0.
    8880022    1    1    2    0    0  0.38234699192E+03  0.25650311195E+01 -0.30167245819E+03  0.51048381626E+03  0.15294330000E+03 0.  0.
<mgrwt>
<rscale>  0 0.41180997E+03</rscale>
<asrwt>0</asrwt>
<pdfrwt beam="1">  1        2 0.70880815E-01 0.41180997E+03</pdfrwt>
<pdfrwt beam="2">  1       -2 0.13542076E+00 0.41180997E+03</pdfrwt>
<totfact> 0.27781191E+01</totfact>
</mgrwt>
</event>
<event>
 4    1  0.1701380E-008  0.2579057E+03  0.7818608E-02  0.1108408E+00
          2   -1    0    0  501    0  0.00000000000E+00  0.00000000000E+00  0.30422061052E+04  0.30422061052E+04  0.25500000000E-02 0. -1.
         -2   -1    0    0    0  501 -0.00000000000E+00 -0.00000000000E+00 -0.11585321746E+03  0.11585321749E+03  0.25500000000E-02 0.  1.
    8880022    1    1    2    0    0  0.12465872336E+03  0.16608399969E+03  0.28854228231E+04  0.28969259938E+04  0.15294330000E+03 0.  0.
    8880022    1    1    2    0    0 -0.12465872336E+03 -0.16608399969E+03  0.40930064628E+02  0.26113332891E+03  0.15294330000E+03 0.  1.
<mgrwt>
<rscale>  0 0.25790569E+03</rscale>
<asrwt>0</asrwt>
<pdfrwt beam="1">  1        2 0.46803177E+00 0.25790569E+03</pdfrwt>
<pdfrwt beam="2">  1       -2 0.17823569E-01 0.25790569E+03</pdfrwt>
<totfact> 0.50970728E+01</totfact>
</mgrwt>
</event>
<event>
 4    1  0.1701380E-008  0.4572933E+03  0.7818608E-02  0.1025569E+00
          2   -1    0    0  501    0  0.00000000000E+00  0.00000000000E+00  0.29653990716E+04  0.29653990716E+04  0.25500000000E-02 0. -1.
         -2   -1    0    0    0  501 -0.00000000000E+00 -0.00000000000E+00 -0.18404291953E+03  0.18404291955E+03  0.25500000000E-02 0.  1.
    8880022    1    1    2    0    0  0.42850547333E+03  0.45919151187E+02  0.15391181216E+03  0.48249974928E+03  0.15294330000E+03 0.  0.
    8880022    1    1    2    0    0 -0.42850547333E+03 -0.45919151187E+02  0.26274443399E+04  0.26669422418E+04  0.15294330000E+03 0.  0.
<mgrwt>
<rscale>  0 0.45729330E+03</rscale>
<asrwt>0</asrwt>
<pdfrwt beam="1">  1        2 0.45621521E+00 0.45729330E+03</pdfrwt>
<pdfrwt beam="2">  1       -2 0.28314298E-01 0.45729330E+03</pdfrwt>
<totfact> 0.23481729E+01</totfact>
</mgrwt>
</event>
<event>
 4    1  0.1701380E-008  0.6986441E+03  0.7818608E-02  0.9719554E-01
         -2   -1    0    0    0  501 -0.00000000000E+00  0.00000000000E+00  0.76910675538E+03  0.76910675538E+03  0.25500000000E-02 0.  1.
          2   -1    0    0  501    0  0.00000000000E+00 -0.00000000000E+00 -0.34208473888E+04  0.34208473888E+04  0.25500000000E-02 0. -1.
    8880022    1    1    2    0    0  0.20614169834E+03 -0.64978263846E+03  0.56481558363E+03  0.89839867184E+03  0.15294330000E+03 0.  0.
    8880022    1    1    2    0    0 -0.20614169834E+03  0.64978263846E+03 -0.32165562170E+04  0.32915554723E+04  0.15294330000E+03 0.  0.
<mgrwt>
<rscale>  0 0.69864407E+03</rscale>
<asrwt>0</asrwt>
<pdfrwt beam="1">  1        2 0.52628421E+00 0.69864407E+03</pdfrwt>
<pdfrwt beam="2">  1       -2 0.11832412E+00 0.69864407E+03</pdfrwt>
<totfact> 0.55803964E-01</totfact>
</mgrwt>
</event>
<event>
 4    1  0.1701380E-008  0.8017886E+03  0.7818608E-02  0.9557432E-01
          2   -1    0    0  501    0  0.00000000000E+00  0.00000000000E+00  0.18617118650E+04  0.18617118650E+04  0.25500000000E-02 0. -1.
         -2   -1    0    0    0  501 -0.00000000000E+00 -0.00000000000E+00 -0.41075848017E+03  0.41075848018E+03  0.25500000000E-02 0.  1.
    8880022    1    1    2    0    0  0.30321594495E+03  0.72631495948E+03  0.27192203773E+03  0.84664430386E+03  0.15294330000E+03 0.  0.
    8880022    1    1    2    0    0 -0.30321594495E+03 -0.72631495948E+03  0.11790313471E+04  0.14258260413E+04  0.15294330000E+03 0.  0.
<mgrwt>
<rscale>  0 0.80178861E+03</rscale>
<asrwt>0</asrwt>
<pdfrwt beam="1">  1        2 0.28641721E+00 0.80178861E+03</pdfrwt>
<pdfrwt beam="2">  1       -2 0.63193613E-01 0.80178861E+03</pdfrwt>
<totfact> 0.18942894E+01</totfact>
</mgrwt>
</event>
<event>
 4    1  0.1701380E-008  0.6358572E+03  0.7818608E-02  0.9833685E-01
          2   -1    0    0  501    0  0.00000000000E+00  0.00000000000E+00  0.24849640580E+04  0.24849640580E+04  0.25500000000E-02 0. -1.
         -2   -1    0    0    0  501 -0.00000000000E+00 -0.00000000000E+00 -0.33402944073E+03  0.33402944074E+03  0.25500000000E-02 0.  1.
    8880022    1    1    2    0    0  0.50176400134E+03 -0.35938225281E+03  0.66023293129E+02  0.63927571902E+03  0.15294330000E+03 0.  0.
    8880022    1    1    2    0    0 -0.50176400134E+03  0.35938225281E+03  0.20849113241E+04  0.21797177797E+04  0.15294330000E+03 0.  0.
<mgrwt>
<rscale>  0 0.63585719E+03</rscale>
<asrwt>0</asrwt>
<pdfrwt beam="1">  1        2 0.38230218E+00 0.63585719E+03</pdfrwt>
<pdfrwt beam="2">  1       -2 0.51389143E-01 0.63585719E+03</pdfrwt>
<totfact> 0.13574656E+01</totfact>
</mgrwt>
</event>
<event>
 4    1  0.1701380E-008  0.1179584E+04  0.7818608E-02  0.9130917E-01
          2   -1    0    0  501    0  0.00000000000E+00  0.00000000000E+00  0.22570762030E+04  0.22570762030E+04  0.25500000000E-02 0. -1.
         -2   -1    0    0    0  501 -0.00000000000E+00 -0.00000000000E+00 -0.10410771249E+04  0.10410771249E+04  0.25500000000E-02 0.  1.
    8880022    1    1    2    0    0  0.99868911397E+02 -0.11653549257E+04  0.16611575457E+04  0.20373664243E+04  0.15294330000E+03 0.  0.
    8880022    1    1    2    0    0 -0.99868911397E+02  0.11653549257E+04 -0.44515846756E+03  0.12607869037E+04  0.15294330000E+03 0.  0.
<mgrwt>
<rscale>  0 0.11795836E+04</rscale>
<asrwt>0</asrwt>
<pdfrwt beam="1">  1        2 0.34724249E+00 0.11795836E+04</pdfrwt>
<pdfrwt beam="2">  1       -2 0.16016571E+00 0.11795836E+04</pdfrwt>
<totfact> 0.11767008E+00</totfact>
</mgrwt>
</event>
<event>
 4    1  0.1701380E-008  0.3550746E+03  0.7818608E-02  0.1060551E+00
          2   -1    0    0  501    0  0.00000000000E+00  0.00000000000E+00  0.86013359344E+03  0.86013359345E+03  0.25500000000E-02 0. -1.
         -2   -1    0    0    0  501 -0.00000000000E+00 -0.00000000000E+00 -0.46159907625E+03  0.46159907625E+03  0.25500000000E-02 0.  1.
    8880022    1    1    2    0    0 -0.30522055620E+03  0.97604898470E+02 -0.34667904634E+03  0.49625025776E+03  0.15294330000E+03 0.  0.
    8880022    1    1    2    0    0  0.30522055620E+03 -0.97604898470E+02  0.74521356354E+03  0.82548241195E+03  0.15294330000E+03 0. -1.
<mgrwt>
<rscale>  0 0.35507458E+03</rscale>
<asrwt>0</asrwt>
<pdfrwt beam="1">  1        2 0.13232825E+00 0.35507458E+03</pdfrwt>
<pdfrwt beam="2">  1       -2 0.71015242E-01 0.35507458E+03</pdfrwt>
<totfact> 0.59596333E+01</totfact>
</mgrwt>
</event>
<event>
 4    1  0.1701380E-008  0.4165718E+03  0.7818608E-02  0.1038188E+00
         -2   -1    0    0    0  501 -0.00000000000E+00  0.00000000000E+00  0.45127001168E+03  0.45127001168E+03  0.25500000000E-02 0.  1.
          2   -1    0    0  501    0  0.00000000000E+00 -0.00000000000E+00 -0.81678090956E+03  0.81678090957E+03  0.25500000000E-02 0. -1.
    8880022    1    1    2    0    0 -0.18260155325E+03 -0.34175593663E+03 -0.64398383758E+03  0.76697280496E+03  0.15294330000E+03 0.  0.
    8880022    1    1    2    0    0  0.18260155325E+03  0.34175593663E+03  0.27847293970E+03  0.50107811629E+03  0.15294330000E+03 0.  0.
<mgrwt>
<rscale>  0 0.41657184E+03</rscale>
<asrwt>0</asrwt>
<pdfrwt beam="1">  1        2 0.12565860E+00 0.41657184E+03</pdfrwt>
<pdfrwt beam="2">  1       -2 0.69426155E-01 0.41657184E+03</pdfrwt>
<totfact> 0.66404031E+01</totfact>
</mgrwt>
</event>
<event>
 4    1  0.1701380E-008  0.4142689E+03  0.7818608E-02  0.1038948E+00
         -2   -1    0    0    0  501 -0.00000000000E+00  0.00000000000E+00  0.44766363655E+03  0.44766363656E+03  0.25500000000E-02 0.  1.
          2   -1    0    0  501    0  0.00000000000E+00 -0.00000000000E+00 -0.18639029667E+04  0.18639029667E+04  0.25500000000E-02 0. -1.
    8880022    1    1    2    0    0  0.31540200705E+03 -0.22079099222E+03  0.32196870556E+03  0.52467379263E+03  0.15294330000E+03 0.  0.
    8880022    1    1    2    0    0 -0.31540200705E+03  0.22079099222E+03 -0.17382080357E+04  0.17868928107E+04  0.15294330000E+03 0.  0.
<mgrwt>
<rscale>  0 0.41426892E+03</rscale>
<asrwt>0</asrwt>
<pdfrwt beam="1">  1        2 0.28675430E+00 0.41426892E+03</pdfrwt>
<pdfrwt beam="2">  1       -2 0.68871329E-01 0.41426892E+03</pdfrwt>
<totfact> 0.16818445E+01</totfact>
</mgrwt>
</event>
<event>
 4    1  0.1701380E-008  0.7719392E+03  0.7818608E-02  0.9601546E-01
          2   -1    0    0  501    0  0.00000000000E+00  0.00000000000E+00  0.40282899528E+04  0.40282899528E+04  0.25500000000E-02 0. -1.
         -2   -1    0    0    0  501 -0.00000000000E+00 -0.00000000000E+00 -0.15351484440E+03  0.15351484442E+03  0.25500000000E-02 0.  1.
    8880022    1    1    2    0    0 -0.54927936949E+03 -0.52037553705E+03  0.15384485712E+04  0.17212536666E+04  0.15294330000E+03 0.  0.
    8880022    1    1    2    0    0  0.54927936949E+03  0.52037553705E+03  0.23363265372E+04  0.24605511307E+04  0.15294330000E+03 0.  0.
<mgrwt>
<rscale>  0 0.77193923E+03</rscale>
<asrwt>0</asrwt>
<pdfrwt beam="1">  1        2 0.61973681E+00 0.77193923E+03</pdfrwt>
<pdfrwt beam="2">  1       -2 0.23617672E-01 0.77193923E+03</pdfrwt>
<totfact> 0.56686541E+00</totfact>
</mgrwt>
</event>
<event>
 4    1  0.1701380E-008  0.6988741E+03  0.7818608E-02  0.9719160E-01
          2   -1    0    0  501    0  0.00000000000E+00  0.00000000000E+00  0.21314585197E+04  0.21314585197E+04  0.25500000000E-02 0. -1.
         -2   -1    0    0    0  501 -0.00000000000E+00 -0.00000000000E+00 -0.38649300308E+03  0.38649300309E+03  0.25500000000E-02 0.  1.
    8880022    1    1    2    0    0  0.43970294027E+03 -0.52124340564E+03  0.16757673354E+04  0.18156599844E+04  0.15294330000E+03 0.  0.
    8880022    1    1    2    0    0 -0.43970294027E+03  0.52124340564E+03  0.69198181253E+02  0.70229153840E+03  0.15294330000E+03 0.  0.
<mgrwt>
<rscale>  0 0.69887411E+03</rscale>
<asrwt>0</asrwt>
<pdfrwt beam="1">  1        2 0.32791669E+00 0.69887411E+03</pdfrwt>
<pdfrwt beam="2">  1       -2 0.59460462E-01 0.69887411E+03</pdfrwt>
<totfact> 0.15578936E+01</totfact>
</mgrwt>
</event>
<event>
 4    1  0.1701380E-008  0.7299828E+03  0.7818608E-02  0.9667288E-01
          2   -1    0    0  501    0  0.00000000000E+00  0.00000000000E+00  0.10824719676E+04  0.10824719676E+04  0.25500000000E-02 0. -1.
         -2   -1    0    0    0  501 -0.00000000000E+00 -0.00000000000E+00 -0.16277469776E+04  0.16277469776E+04  0.25500000000E-02 0.  1.
    8880022    1    1    2    0    0  0.45130194093E+03  0.55300074899E+03  0.85916059294E+03  0.11274004824E+04  0.15294330000E+03 0.  0.
    8880022    1    1    2    0    0 -0.45130194093E+03 -0.55300074899E+03 -0.14044356030E+04  0.15828184628E+04  0.15294330000E+03 0.  0.
<mgrwt>
<rscale>  0 0.72998282E+03</rscale>
<asrwt>0</asrwt>
<pdfrwt beam="1">  1        2 0.16653415E+00 0.72998282E+03</pdfrwt>
<pdfrwt beam="2">  1       -2 0.25042261E+00 0.72998282E+03</pdfrwt>
<totfact> 0.14824875E+00</totfact>
</mgrwt>
</event>
<event>
 4    1  0.1701380E-008  0.1134767E+04  0.7818608E-02  0.9171953E-01
          2   -1    0    0  501    0  0.00000000000E+00  0.00000000000E+00  0.35921233063E+04  0.35921233063E+04  0.25500000000E-02 0. -1.
         -2   -1    0    0    0  501 -0.00000000000E+00 -0.00000000000E+00 -0.87338002036E+03  0.87338002036E+03  0.25500000000E-02 0.  1.
    8880022    1    1    2    0    0 -0.10924097599E+04 -0.26635660788E+03 -0.35498495633E+03  0.11889957520E+04  0.15294330000E+03 0.  0.
    8880022    1    1    2    0    0  0.10924097599E+04  0.26635660788E+03  0.30737282423E+04  0.32765075746E+04  0.15294330000E+03 0.  0.
<mgrwt>
<rscale>  0 0.11347672E+04</rscale>
<asrwt>0</asrwt>
<pdfrwt beam="1">  1        2 0.55263435E+00 0.11347672E+04</pdfrwt>
<pdfrwt beam="2">  1       -2 0.13436616E+00 0.11347672E+04</pdfrwt>
<totfact> 0.28184411E-01</totfact>
</mgrwt>
</event>
<event>
 4    1  0.1701380E-008  0.6498160E+03  0.7818608E-02  0.9807125E-01
          2   -1    0    0  501    0  0.00000000000E+00  0.00000000000E+00  0.13864412052E+04  0.13864412052E+04  0.25500000000E-02 0. -1.
         -2   -1    0    0    0  501 -0.00000000000E+00 -0.00000000000E+00 -0.15595872952E+04  0.15595872952E+04  0.25500000000E-02 0.  1.
    8880022    1    1    2    0    0 -0.31618824432E+03  0.54671209673E+03 -0.14079535971E+04  0.15506753713E+04  0.15294330000E+03 0.  1.
    8880022    1    1    2    0    0  0.31618824432E+03 -0.54671209673E+03  0.12348075070E+04  0.13953531291E+04  0.15294330000E+03 0.  0.
<mgrwt>
<rscale>  0 0.64981596E+03</rscale>
<asrwt>0</asrwt>
<pdfrwt beam="1">  1        2 0.21329865E+00 0.64981596E+03</pdfrwt>
<pdfrwt beam="2">  1       -2 0.23993651E+00 0.64981596E+03</pdfrwt>
<totfact> 0.11572380E+00</totfact>
</mgrwt>
</event>
<event>
 4    1  0.1716197E-008  0.1263688E+04  0.7818608E-02  0.9058867E-01
          2   -1    0    0  501    0  0.00000000000E+00  0.00000000000E+00  0.22994601919E+04  0.22994601919E+04  0.25500000000E-02 0. -1.
         -2   -1    0    0    0  501 -0.00000000000E+00 -0.00000000000E+00 -0.16371766146E+04  0.16371766146E+04  0.25500000000E-02 0.  1.
    8880022    1    1    2    0    0  0.12038506074E+04 -0.35250445613E+03  0.18247467334E+04  0.22195963531E+04  0.15294330000E+03 0.  0.
    8880022    1    1    2    0    0 -0.12038506074E+04  0.35250445613E+03 -0.11624631561E+04  0.17170404535E+04  0.15294330000E+03 0.  0.
<mgrwt>
<rscale>  0 0.12636880E+04</rscale>
<asrwt>0</asrwt>
<pdfrwt beam="1">  1        2 0.35376311E+00 0.12636880E+04</pdfrwt>
<pdfrwt beam="2">  1       -2 0.25187332E+00 0.12636880E+04</pdfrwt>
<totfact> 0.27434451E-01</totfact>
</mgrwt>
</event>
<event>
 4    1  0.1701380E-008  0.1937934E+04  0.7818608E-02  0.8636201E-01
         -2   -1    0    0    0  501 -0.00000000000E+00  0.00000000000E+00  0.14542616861E+04  0.14542616861E+04  0.25500000000E-02 0.  1.
          2   -1    0    0  501    0  0.00000000000E+00 -0.00000000000E+00 -0.41437539345E+04  0.41437539345E+04  0.25500000000E-02 0. -1.
    8880022    1    1    2    0    0 -0.11379206521E+04  0.15611958197E+04  0.37335234332E+03  0.19735702225E+04  0.15294330000E+03 0.  0.
    8880022    1    1    2    0    0  0.11379206521E+04 -0.15611958197E+04 -0.30628445917E+04  0.36244453981E+04  0.15294330000E+03 0.  0.
<mgrwt>
<rscale>  0 0.19379338E+04</rscale>
<asrwt>0</asrwt>
<pdfrwt beam="1">  1        2 0.63750060E+00 0.19379338E+04</pdfrwt>
<pdfrwt beam="2">  1       -2 0.22373257E+00 0.19379338E+04</pdfrwt>
<totfact> 0.21916293E-02</totfact>
</mgrwt>
</event>
<event>
 4    1  0.1701380E-008  0.1376165E+04  0.7818608E-02  0.8971255E-01
          2   -1    0    0  501    0  0.00000000000E+00  0.00000000000E+00  0.12295635636E+04  0.12295635636E+04  0.25500000000E-02 0. -1.
         -2   -1    0    0    0  501 -0.00000000000E+00 -0.00000000000E+00 -0.18128481047E+04  0.18128481047E+04  0.25500000000E-02 0.  1.
    8880022    1    1    2    0    0 -0.99895750609E+03 -0.93408859040E+03  0.29824985369E+03  0.14081130004E+04  0.15294330000E+03 0.  0.
    8880022    1    1    2    0    0  0.99895750609E+03  0.93408859040E+03 -0.88153439482E+03  0.16342986679E+04  0.15294330000E+03 0.  0.
<mgrwt>
<rscale>  0 0.13761647E+04</rscale>
<asrwt>0</asrwt>
<pdfrwt beam="1">  1        2 0.18916363E+00 0.13761647E+04</pdfrwt>
<pdfrwt beam="2">  1       -2 0.27889971E+00 0.13761647E+04</pdfrwt>
<totfact> 0.74326312E-01</totfact>
</mgrwt>
</event>
<event>
 4    1  0.1701380E-008  0.1278870E+04  0.7818608E-02  0.9046491E-01
          2   -1    0    0  501    0  0.00000000000E+00  0.00000000000E+00  0.35855858541E+04  0.35855858541E+04  0.25500000000E-02 0. -1.
         -2   -1    0    0    0  501 -0.00000000000E+00 -0.00000000000E+00 -0.77237566282E+03  0.77237566283E+03  0.25500000000E-02 0.  1.
    8880022    1    1    2    0    0  0.35705415708E+03  0.12184539596E+04  0.12330512258E+02  0.12789297938E+04  0.15294330000E+03 0.  0.
    8880022    1    1    2    0    0 -0.35705415708E+03 -0.12184539596E+04  0.28008796791E+04  0.30790317232E+04  0.15294330000E+03 0.  0.
<mgrwt>
<rscale>  0 0.12788704E+04</rscale>
<asrwt>0</asrwt>
<pdfrwt beam="1">  1        2 0.55162859E+00 0.12788704E+04</pdfrwt>
<pdfrwt beam="2">  1       -2 0.11882703E+00 0.12788704E+04</pdfrwt>
<totfact> 0.38013312E-01</totfact>
</mgrwt>
</event>
<event>
 4    1  0.1701380E-008  0.8207195E+03  0.7818608E-02  0.9530501E-01
          2   -1    0    0  501    0  0.00000000000E+00  0.00000000000E+00  0.52237726962E+03  0.52237726963E+03  0.25500000000E-02 0. -1.
         -2   -1    0    0    0  501 -0.00000000000E+00 -0.00000000000E+00 -0.30140956855E+04  0.30140956855E+04  0.25500000000E-02 0.  1.
    8880022    1    1    2    0    0 -0.75525169443E+03  0.28246027060E+03 -0.25834136857E+04  0.27106469433E+04  0.15294330000E+03 0.  1.
    8880022    1    1    2    0    0  0.75525169443E+03 -0.28246027060E+03  0.91695269817E+02  0.82582601190E+03  0.15294330000E+03 0.  0.
<mgrwt>
<rscale>  0 0.82071955E+03</rscale>
<asrwt>0</asrwt>
<pdfrwt beam="1">  1        2 0.80365735E-01 0.82071955E+03</pdfrwt>
<pdfrwt beam="2">  1       -2 0.46370702E+00 0.82071955E+03</pdfrwt>
<totfact> 0.17333693E-01</totfact>
</mgrwt>
</event>
<event>
 4    1  0.3971762E-008  0.1437303E+04  0.7818608E-02  0.8927251E-01
         -2   -1    0    0    0  501 -0.00000000000E+00  0.00000000000E+00  0.16391453474E+04  0.16391453474E+04  0.25500000000E-02 0.  1.
          2   -1    0    0  501    0  0.00000000000E+00 -0.00000000000E+00 -0.39997624463E+04  0.39997624463E+04  0.25500000000E-02 0. -1.
    8880022    1    1    2    0    0  0.14084870009E+04 -0.24210011305E+03  0.11530386778E+04  0.18426442799E+04  0.15294330000E+03 0.  0.
    8880022    1    1    2    0    0 -0.14084870009E+04  0.24210011305E+03 -0.35136557767E+04  0.37962635138E+04  0.15294330000E+03 0.  0.
<mgrwt>
<rscale>  0 0.14373029E+04</rscale>
<asrwt>0</asrwt>
<pdfrwt beam="1">  1        2 0.61534807E+00 0.14373029E+04</pdfrwt>
<pdfrwt beam="2">  1       -2 0.25217621E+00 0.14373029E+04</pdfrwt>
<totfact> 0.20559000E-02</totfact>
</mgrwt>
</event>
<event>
 4    1  0.1701380E-008  0.7569099E+03  0.7818608E-02  0.9624572E-01
         -2   -1    0    0    0  501 -0.00000000000E+00  0.00000000000E+00  0.13732478961E+04  0.13732478961E+04  0.25500000000E-02 0.  1.
          2   -1    0    0  501    0  0.00000000000E+00 -0.00000000000E+00 -0.98262152510E+03  0.98262152510E+03  0.25500000000E-02 0. -1.
    8880022    1    1    2    0    0 -0.43885649952E+02  0.73999663440E+03  0.10888573881E+04  0.13260931467E+04  0.15294330000E+03 0.  0.
    8880022    1    1    2    0    0  0.43885649952E+02 -0.73999663440E+03 -0.69823101710E+03  0.10297762745E+04  0.15294330000E+03 0.  0.
<mgrwt>
<rscale>  0 0.75690992E+03</rscale>
<asrwt>0</asrwt>
<pdfrwt beam="1">  1        2 0.15117254E+00 0.75690992E+03</pdfrwt>
<pdfrwt beam="2">  1       -2 0.21126891E+00 0.75690992E+03</pdfrwt>
<totfact> 0.29767004E+00</totfact>
</mgrwt>
</event>
<event>
 4    1  0.1701380E-008  0.9373073E+03  0.7818608E-02  0.9380111E-01
          2   -1    0    0  501    0  0.00000000000E+00  0.00000000000E+00  0.18252775897E+04  0.18252775897E+04  0.25500000000E-02 0. -1.
         -2   -1    0    0    0  501 -0.00000000000E+00 -0.00000000000E+00 -0.59811014909E+03  0.59811014909E+03  0.25500000000E-02 0.  1.
    8880022    1    1    2    0    0 -0.27908336458E+03 -0.88162681080E+03  0.78153370262E+02  0.94055991845E+03  0.15294330000E+03 0.  0.
    8880022    1    1    2    0    0  0.27908336458E+03  0.88162681080E+03  0.11490140704E+04  0.14828278204E+04  0.15294330000E+03 0.  0.
<mgrwt>
<rscale>  0 0.93730732E+03</rscale>
<asrwt>0</asrwt>
<pdfrwt beam="1">  1        2 0.28081193E+00 0.93730732E+03</pdfrwt>
<pdfrwt beam="2">  1       -2 0.92016947E-01 0.93730732E+03</pdfrwt>
<totfact> 0.84395093E+00</totfact>
</mgrwt>
</event>
<event>
 4    1  0.1701380E-008  0.5772130E+03  0.7818608E-02  0.9953843E-01
         -2   -1    0    0    0  501 -0.00000000000E+00  0.00000000000E+00  0.78613973340E+03  0.78613973340E+03  0.25500000000E-02 0.  1.
          2   -1    0    0  501    0  0.00000000000E+00 -0.00000000000E+00 -0.16693966644E+04  0.16693966644E+04  0.25500000000E-02 0. -1.
    8880022    1    1    2    0    0 -0.31470161380E+03 -0.45907087129E+03  0.61890255314E+03  0.84629498043E+03  0.15294330000E+03 0.  0.
    8880022    1    1    2    0    0  0.31470161380E+03  0.45907087129E+03 -0.15021594842E+04  0.16092414174E+04  0.15294330000E+03 0.  0.
<mgrwt>
<rscale>  0 0.57721298E+03</rscale>
<asrwt>0</asrwt>
<pdfrwt beam="1">  1        2 0.25683026E+00 0.57721298E+03</pdfrwt>
<pdfrwt beam="2">  1       -2 0.12094457E+00 0.57721298E+03</pdfrwt>
<totfact> 0.56316450E+00</totfact>
</mgrwt>
</event>
<event>
 4    1  0.1701380E-008  0.9664464E+03  0.7818608E-02  0.9346131E-01
         -2   -1    0    0    0  501 -0.00000000000E+00  0.00000000000E+00  0.90567375718E+03  0.90567375718E+03  0.25500000000E-02 0.  1.
          2   -1    0    0  501    0  0.00000000000E+00 -0.00000000000E+00 -0.21361334761E+04  0.21361334761E+04  0.25500000000E-02 0. -1.
    8880022    1    1    2    0    0  0.91296700105E+03 -0.27770184095E+03 -0.17090262448E+04  0.19633617639E+04  0.15294330000E+03 0.  0.
    8880022    1    1    2    0    0 -0.91296700105E+03  0.27770184095E+03  0.47856652597E+03  0.10784454693E+04  0.15294330000E+03 0.  0.
<mgrwt>
<rscale>  0 0.96644643E+03</rscale>
<asrwt>0</asrwt>
<pdfrwt beam="1">  1        2 0.32863592E+00 0.96644643E+03</pdfrwt>
<pdfrwt beam="2">  1       -2 0.13933442E+00 0.96644643E+03</pdfrwt>
<totfact> 0.20490419E+00</totfact>
</mgrwt>
</event>
<event>
 4    1  0.1701380E-008  0.7520948E+03  0.7818608E-02  0.9632070E-01
         -2   -1    0    0    0  501 -0.00000000000E+00  0.00000000000E+00  0.32839127706E+03  0.32839127707E+03  0.25500000000E-02 0.  1.
          2   -1    0    0  501    0  0.00000000000E+00 -0.00000000000E+00 -0.23813657337E+04  0.23813657337E+04  0.25500000000E-02 0. -1.
    8880022    1    1    2    0    0 -0.69110655877E+03 -0.25421759704E+03 -0.17391650598E+04  0.18948196802E+04  0.15294330000E+03 0.  0.
    8880022    1    1    2    0    0  0.69110655877E+03  0.25421759704E+03 -0.31380939686E+03  0.81493733059E+03  0.15294330000E+03 0.  0.
<mgrwt>
<rscale>  0 0.75209475E+03</rscale>
<asrwt>0</asrwt>
<pdfrwt beam="1">  1        2 0.36636395E+00 0.75209475E+03</pdfrwt>
<pdfrwt beam="2">  1       -2 0.50521737E-01 0.75209475E+03</pdfrwt>
<totfact> 0.15751769E+01</totfact>
</mgrwt>
</event>
<event>
 4    1  0.1701380E-008  0.9666762E+03  0.7818608E-02  0.9345868E-01
          2   -1    0    0  501    0  0.00000000000E+00  0.00000000000E+00  0.12211521743E+04  0.12211521743E+04  0.25500000000E-02 0. -1.
         -2   -1    0    0    0  501 -0.00000000000E+00 -0.00000000000E+00 -0.18999285961E+04  0.18999285961E+04  0.25500000000E-02 0.  1.
    8880022    1    1    2    0    0  0.29820176420E+03  0.90672312999E+03 -0.15453861141E+04  0.18228222682E+04  0.15294330000E+03 0.  0.
    8880022    1    1    2    0    0 -0.29820176420E+03 -0.90672312999E+03  0.86660969235E+03  0.12982585022E+04  0.15294330000E+03 0.  0.
<mgrwt>
<rscale>  0 0.96667615E+03</rscale>
<asrwt>0</asrwt>
<pdfrwt beam="1">  1        2 0.18786957E+00 0.96667615E+03</pdfrwt>
<pdfrwt beam="2">  1       -2 0.29229671E+00 0.96667615E+03</pdfrwt>
<totfact> 0.65699813E-01</totfact>
</mgrwt>
</event>
<event>
 4    1  0.1701380E-008  0.1751292E+03  0.7818608E-02  0.1172602E+00
         -2   -1    0    0    0  501 -0.00000000000E+00  0.00000000000E+00  0.27677892949E+03  0.27677892950E+03  0.25500000000E-02 0.  1.
          2   -1    0    0  501    0  0.00000000000E+00 -0.00000000000E+00 -0.66881964572E+03  0.66881964573E+03  0.25500000000E-02 0. -1.
    8880022    1    1    2    0    0 -0.49930214263E+02  0.69177603586E+02 -0.62788004748E+03  0.65184628109E+03  0.15294330000E+03 0. -1.
    8880022    1    1    2    0    0  0.49930214263E+02 -0.69177603586E+02  0.23583933125E+03  0.29375229414E+03  0.15294330000E+03 0.  0.
<mgrwt>
<rscale>  0 0.17512915E+03</rscale>
<asrwt>0</asrwt>
<pdfrwt beam="1">  1        2 0.10289533E+00 0.17512915E+03</pdfrwt>
<pdfrwt beam="2">  1       -2 0.42581374E-01 0.17512915E+03</pdfrwt>
<totfact> 0.23890500E+02</totfact>
</mgrwt>
</event>
<event>
 4    1  0.1701380E-008  0.7964847E+03  0.7818608E-02  0.9565119E-01
         -2   -1    0    0    0  501 -0.00000000000E+00  0.00000000000E+00  0.33383390827E+03  0.33383390828E+03  0.25500000000E-02 0.  1.
          2   -1    0    0  501    0  0.00000000000E+00 -0.00000000000E+00 -0.33897680473E+04  0.33897680473E+04  0.25500000000E-02 0. -1.
    8880022    1    1    2    0    0 -0.57247473128E+03  0.53223018593E+03 -0.29383286585E+03  0.84895564951E+03  0.15294330000E+03 0.  1.
    8880022    1    1    2    0    0  0.57247473128E+03 -0.53223018593E+03 -0.27621012732E+04  0.28746463061E+04  0.15294330000E+03 0.  0.
<mgrwt>
<rscale>  0 0.79648474E+03</rscale>
<asrwt>0</asrwt>
<pdfrwt beam="1">  1        2 0.52150275E+00 0.79648474E+03</pdfrwt>
<pdfrwt beam="2">  1       -2 0.51359065E-01 0.79648474E+03</pdfrwt>
<totfact> 0.37166422E+00</totfact>
</mgrwt>
</event>
<event>
 4    1  0.1701380E-008  0.3993713E+03  0.7818608E-02  0.1043998E+00
         -2   -1    0    0    0  501 -0.00000000000E+00  0.00000000000E+00  0.31149811613E+03  0.31149811614E+03  0.25500000000E-02 0.  1.
          2   -1    0    0  501    0  0.00000000000E+00 -0.00000000000E+00 -0.98732677222E+03  0.98732677222E+03  0.25500000000E-02 0. -1.
    8880022    1    1    2    0    0 -0.15792373828E+03  0.33341546990E+03  0.11266476281E+03  0.41495877443E+03  0.15294330000E+03 0.  0.
    8880022    1    1    2    0    0  0.15792373828E+03 -0.33341546990E+03 -0.78849341890E+03  0.88386611393E+03  0.15294330000E+03 0.  0.
<mgrwt>
<rscale>  0 0.39937130E+03</rscale>
<asrwt>0</asrwt>
<pdfrwt beam="1">  1        2 0.15189642E+00 0.39937130E+03</pdfrwt>
<pdfrwt beam="2">  1       -2 0.47922788E-01 0.39937130E+03</pdfrwt>
<totfact> 0.11093523E+02</totfact>
</mgrwt>
</event>
<event>
 4    1  0.1701380E-008  0.6979636E+03  0.7818608E-02  0.9720721E-01
          2   -1    0    0  501    0  0.00000000000E+00  0.00000000000E+00  0.23096688621E+04  0.23096688621E+04  0.25500000000E-02 0. -1.
         -2   -1    0    0    0  501 -0.00000000000E+00 -0.00000000000E+00 -0.46517314408E+03  0.46517314409E+03  0.25500000000E-02 0.  1.
    8880022    1    1    2    0    0  0.21749942067E+03 -0.64533367755E+03 -0.10348651328E+03  0.70559383842E+03  0.15294330000E+03 0.  0.
    8880022    1    1    2    0    0 -0.21749942067E+03  0.64533367755E+03  0.19479822313E+04  0.20692481678E+04  0.15294330000E+03 0.  0.
<mgrwt>
<rscale>  0 0.69796361E+03</rscale>
<asrwt>0</asrwt>
<pdfrwt beam="1">  1        2 0.35533366E+00 0.69796361E+03</pdfrwt>
<pdfrwt beam="2">  1       -2 0.71565101E-01 0.69796361E+03</pdfrwt>
<totfact> 0.83479609E+00</totfact>
</mgrwt>
</event>
<event>
 4    1  0.1701380E-008  0.6012705E+03  0.7818608E-02  0.9902774E-01
          2   -1    0    0  501    0  0.00000000000E+00  0.00000000000E+00  0.24503595084E+04  0.24503595084E+04  0.25500000000E-02 0. -1.
         -2   -1    0    0    0  501 -0.00000000000E+00 -0.00000000000E+00 -0.15355973050E+03  0.15355973052E+03  0.25500000000E-02 0.  1.
    8880022    1    1    2    0    0  0.36024925986E+03 -0.45645921257E+03  0.89062232540E+03  0.10745856511E+04  0.15294330000E+03 0.  0.
    8880022    1    1    2    0    0 -0.36024925986E+03  0.45645921257E+03  0.14061774525E+04  0.15293335878E+04  0.15294330000E+03 0.  0.
<mgrwt>
<rscale>  0 0.60127048E+03</rscale>
<asrwt>0</asrwt>
<pdfrwt beam="1">  1        2 0.37697839E+00 0.60127048E+03</pdfrwt>
<pdfrwt beam="2">  1       -2 0.23624574E-01 0.60127048E+03</pdfrwt>
<totfact> 0.62628911E+01</totfact>
</mgrwt>
</event>
<event>
 4    1  0.1701380E-008  0.8869109E+03  0.7818608E-02  0.9442093E-01
         -2   -1    0    0    0  501 -0.00000000000E+00  0.00000000000E+00  0.30592023155E+03  0.30592023157E+03  0.25500000000E-02 0.  1.
          2   -1    0    0  501    0  0.00000000000E+00 -0.00000000000E+00 -0.30508740158E+04  0.30508740158E+04  0.25500000000E-02 0. -1.
    8880022    1    1    2    0    0  0.87313103287E+03  0.29352442660E+02 -0.70703078881E+03  0.11342414010E+04  0.15294330000E+03 0.  1.
    8880022    1    1    2    0    0 -0.87313103287E+03 -0.29352442660E+02 -0.20379229955E+04  0.22225528464E+04  0.15294330000E+03 0.  0.
<mgrwt>
<rscale>  0 0.88691094E+03</rscale>
<asrwt>0</asrwt>
<pdfrwt beam="1">  1        2 0.46936521E+00 0.88691094E+03</pdfrwt>
<pdfrwt beam="2">  1       -2 0.47064653E-01 0.88691094E+03</pdfrwt>
<totfact> 0.72079945E+00</totfact>
</mgrwt>
</event>
<event>
 4    1  0.1701380E-008  0.9478982E+03  0.7818608E-02  0.9367611E-01
         -2   -1    0    0    0  501 -0.00000000000E+00  0.00000000000E+00  0.16801366455E+04  0.16801366455E+04  0.25500000000E-02 0.  1.
          2   -1    0    0  501    0  0.00000000000E+00 -0.00000000000E+00 -0.33273841056E+04  0.33273841056E+04  0.25500000000E-02 0. -1.
    8880022    1    1    2    0    0 -0.91430189916E+03 -0.19791768641E+03 -0.31173713437E+04  0.32582994216E+04  0.15294330000E+03 0.  0.
    8880022    1    1    2    0    0  0.91430189916E+03  0.19791768641E+03  0.14701238836E+04  0.17492213295E+04  0.15294330000E+03 0.  0.
<mgrwt>
<rscale>  0 0.94789822E+03</rscale>
<asrwt>0</asrwt>
<pdfrwt beam="1">  1        2 0.51190525E+00 0.94789822E+03</pdfrwt>
<pdfrwt beam="2">  1       -2 0.25848256E+00 0.94789822E+03</pdfrwt>
<totfact> 0.63592617E-02</totfact>
</mgrwt>
</event>
<event>
 4    1  0.1701380E-008  0.7386126E+03  0.7818608E-02  0.9653387E-01
          2   -1    0    0  501    0  0.00000000000E+00  0.00000000000E+00  0.44133222170E+04  0.44133222170E+04  0.25500000000E-02 0. -1.
         -2   -1    0    0    0  501 -0.00000000000E+00 -0.00000000000E+00 -0.85631589724E+03  0.85631589724E+03  0.25500000000E-02 0.  1.
    8880022    1    1    2    0    0  0.74362167768E+02 -0.71876787044E+03  0.42157383250E+04  0.42799530677E+04  0.15294330000E+03 0.  0.
    8880022    1    1    2    0    0 -0.74362167768E+02  0.71876787044E+03 -0.65873200527E+03  0.98968504654E+03  0.15294330000E+03 0.  0.
<mgrwt>
<rscale>  0 0.73861264E+03</rscale>
<asrwt>0</asrwt>
<pdfrwt beam="1">  1        2 0.67897264E+00 0.73861264E+03</pdfrwt>
<pdfrwt beam="2">  1       -2 0.13174091E+00 0.73861264E+03</pdfrwt>
<totfact> 0.71650734E-02</totfact>
</mgrwt>
</event>
<event>
 4    1  0.1701380E-008  0.1358549E+04  0.7818608E-02  0.8984382E-01
          2   -1    0    0  501    0  0.00000000000E+00  0.00000000000E+00  0.16926706353E+04  0.16926706353E+04  0.25500000000E-02 0. -1.
         -2   -1    0    0    0  501 -0.00000000000E+00 -0.00000000000E+00 -0.15090954198E+04  0.15090954198E+04  0.25500000000E-02 0.  1.
    8880022    1    1    2    0    0  0.80677546970E+03  0.10823015192E+04 -0.75147048532E+03  0.15525343089E+04  0.15294330000E+03 0.  0.
    8880022    1    1    2    0    0 -0.80677546970E+03 -0.10823015192E+04  0.93504570083E+03  0.16492317462E+04  0.15294330000E+03 0.  0.
<mgrwt>
<rscale>  0 0.13585488E+04</rscale>
<asrwt>0</asrwt>
<pdfrwt beam="1">  1        2 0.26041087E+00 0.13585488E+04</pdfrwt>
<pdfrwt beam="2">  1       -2 0.23216852E+00 0.13585488E+04</pdfrwt>
<totfact> 0.78191791E-01</totfact>
</mgrwt>
</event>
<event>
 4    1  0.1701380E-008  0.4239047E+03  0.7818608E-02  0.1035803E+00
          2   -1    0    0  501    0  0.00000000000E+00  0.00000000000E+00  0.24321477947E+04  0.24321477947E+04  0.25500000000E-02 0. -1.
         -2   -1    0    0    0  501 -0.00000000000E+00 -0.00000000000E+00 -0.12761053528E+04  0.12761053528E+04  0.25500000000E-02 0.  1.
    8880022    1    1    2    0    0  0.33953971870E+03  0.20252476863E+03 -0.12216304521E+04  0.12930878226E+04  0.15294330000E+03 0.  0.
    8880022    1    1    2    0    0 -0.33953971870E+03 -0.20252476863E+03  0.23776728940E+04  0.24151653249E+04  0.15294330000E+03 0.  0.
<mgrwt>
<rscale>  0 0.42390465E+03</rscale>
<asrwt>0</asrwt>
<pdfrwt beam="1">  1        2 0.37417659E+00 0.42390465E+03</pdfrwt>
<pdfrwt beam="2">  1       -2 0.19632390E+00 0.42390465E+03</pdfrwt>
<totfact> 0.62495606E-01</totfact>
</mgrwt>
</event>
<event>
 4    1  0.1701380E-008  0.2217431E+03  0.7818608E-02  0.1132590E+00
         -2   -1    0    0    0  501 -0.00000000000E+00  0.00000000000E+00  0.48108417307E+03  0.48108417308E+03  0.25500000000E-02 0.  1.
          2   -1    0    0  501    0  0.00000000000E+00 -0.00000000000E+00 -0.35402609605E+03  0.35402609606E+03  0.25500000000E-02 0. -1.
    8880022    1    1    2    0    0  0.15899814212E+03 -0.22314217136E+02  0.41568970717E+03  0.47113471443E+03  0.15294330000E+03 0.  1.
    8880022    1    1    2    0    0 -0.15899814212E+03  0.22314217136E+02 -0.28863163015E+03  0.36397555470E+03  0.15294330000E+03 0.  0.
<mgrwt>
<rscale>  0 0.22174306E+03</rscale>
<asrwt>0</asrwt>
<pdfrwt beam="1">  1        2 0.54465554E-01 0.22174306E+03</pdfrwt>
<pdfrwt beam="2">  1       -2 0.74012949E-01 0.22174306E+03</pdfrwt>
<totfact> 0.15630598E+02</totfact>
</mgrwt>
</event>
<event>
 4    1  0.1701380E-008  0.1052948E+04  0.7818608E-02  0.9252306E-01
         -2   -1    0    0    0  501 -0.00000000000E+00  0.00000000000E+00  0.67256022851E+03  0.67256022851E+03  0.25500000000E-02 0.  1.
          2   -1    0    0  501    0  0.00000000000E+00 -0.00000000000E+00 -0.22693049239E+04  0.22693049239E+04  0.25500000000E-02 0. -1.
    8880022    1    1    2    0    0  0.48012078071E+03  0.92454902756E+03 -0.15677379474E+04  0.18885181474E+04  0.15294330000E+03 0.  0.
    8880022    1    1    2    0    0 -0.48012078071E+03 -0.92454902756E+03 -0.29006747980E+02  0.10533470050E+04  0.15294330000E+03 0.  0.
<mgrwt>
<rscale>  0 0.10529475E+04</rscale>
<asrwt>0</asrwt>
<pdfrwt beam="1">  1        2 0.34912383E+00 0.10529475E+04</pdfrwt>
<pdfrwt beam="2">  1       -2 0.10347081E+00 0.10529475E+04</pdfrwt>
<totfact> 0.35836763E+00</totfact>
</mgrwt>
</event>
<event>
 4    1  0.1701380E-008  0.8365747E+03  0.7818608E-02  0.9508535E-01
         -2   -1    0    0    0  501 -0.00000000000E+00  0.00000000000E+00  0.65669731893E+03  0.65669731893E+03  0.25500000000E-02 0.  1.
          2   -1    0    0  501    0  0.00000000000E+00 -0.00000000000E+00 -0.30877703442E+04  0.30877703442E+04  0.25500000000E-02 0. -1.
    8880022    1    1    2    0    0  0.59983069557E+03 -0.56273324115E+03  0.29953554552E+03  0.88858244417E+03  0.15294330000E+03 0.  1.
    8880022    1    1    2    0    0 -0.59983069557E+03  0.56273324115E+03 -0.27306085708E+04  0.28558852190E+04  0.15294330000E+03 0.  0.
<mgrwt>
<rscale>  0 0.83657469E+03</rscale>
<asrwt>0</asrwt>
<pdfrwt beam="1">  1        2 0.47504158E+00 0.83657469E+03</pdfrwt>
<pdfrwt beam="2">  1       -2 0.10103036E+00 0.83657469E+03</pdfrwt>
<totfact> 0.12993387E+00</totfact>
</mgrwt>
</event>
<event>
 4    1  0.1701380E-008  0.4388306E+03  0.7818608E-02  0.1031106E+00
         -2   -1    0    0    0  501 -0.00000000000E+00  0.00000000000E+00  0.22188244595E+03  0.22188244596E+03  0.25500000000E-02 0.  1.
          2   -1    0    0  501    0  0.00000000000E+00 -0.00000000000E+00 -0.21736149229E+04  0.21736149229E+04  0.25500000000E-02 0. -1.
    8880022    1    1    2    0    0  0.38832543728E+03  0.13558749283E+03 -0.19041873227E+04  0.19540986736E+04  0.15294330000E+03 0.  0.
    8880022    1    1    2    0    0 -0.38832543728E+03 -0.13558749283E+03 -0.47545154286E+02  0.44139869524E+03  0.15294330000E+03 0.  0.
<mgrwt>
<rscale>  0 0.43883057E+03</rscale>
<asrwt>0</asrwt>
<pdfrwt beam="1">  1        2 0.33440228E+00 0.43883057E+03</pdfrwt>
<pdfrwt beam="2">  1       -2 0.34135762E-01 0.43883057E+03</pdfrwt>
<totfact> 0.46742738E+01</totfact>
</mgrwt>
</event>
<event>
 4    1  0.1701380E-008  0.5124902E+03  0.7818608E-02  0.1010569E+00
         -2   -1    0    0    0  501 -0.00000000000E+00  0.00000000000E+00  0.25711970888E+04  0.25711970888E+04  0.25500000000E-02 0.  1.
          2   -1    0    0  501    0  0.00000000000E+00 -0.00000000000E+00 -0.48367164460E+03  0.48367164460E+03  0.25500000000E-02 0. -1.
    8880022    1    1    2    0    0  0.42412003981E+03  0.24367340994E+03 -0.31282282858E+03  0.60042011456E+03  0.15294330000E+03 0.  0.
    8880022    1    1    2    0    0 -0.42412003981E+03 -0.24367340994E+03  0.24003482728E+04  0.24544486188E+04  0.15294330000E+03 0.  1.
<mgrwt>
<rscale>  0 0.51249019E+03</rscale>
<asrwt>0</asrwt>
<pdfrwt beam="1">  1        2 0.74411023E-01 0.51249019E+03</pdfrwt>
<pdfrwt beam="2">  1       -2 0.39556878E+00 0.51249019E+03</pdfrwt>
<totfact> 0.57080310E-01</totfact>
</mgrwt>
</event>
<event>
 4    1  0.1701380E-008  0.9018079E+03  0.7818608E-02  0.9423324E-01
         -2   -1    0    0    0  501 -0.00000000000E+00  0.00000000000E+00  0.10346861359E+04  0.10346861359E+04  0.25500000000E-02 0.  1.
          2   -1    0    0  501    0  0.00000000000E+00 -0.00000000000E+00 -0.11237879025E+04  0.11237879025E+04  0.25500000000E-02 0. -1.
    8880022    1    1    2    0    0  0.88803247610E+03  0.35553751729E+02  0.54714748301E+03  0.10548117221E+04  0.15294330000E+03 0.  0.
    8880022    1    1    2    0    0 -0.88803247610E+03 -0.35553751729E+02 -0.63624924966E+03  0.11036623164E+04  0.15294330000E+03 0.  0.
<mgrwt>
<rscale>  0 0.90180785E+03</rscale>
<asrwt>0</asrwt>
<pdfrwt beam="1">  1        2 0.17289045E+00 0.90180785E+03</pdfrwt>
<pdfrwt beam="2">  1       -2 0.15918248E+00 0.90180785E+03</pdfrwt>
<totfact> 0.53894312E+00</totfact>
</mgrwt>
</event>
<event>
 4    1  0.1701380E-008  0.1744902E+03  0.7818608E-02  0.1173245E+00
          2   -1    0    0  501    0  0.00000000000E+00  0.00000000000E+00  0.17095675869E+04  0.17095675869E+04  0.25500000000E-02 0. -1.
         -2   -1    0    0    0  501 -0.00000000000E+00 -0.00000000000E+00 -0.93328902242E+03  0.93328902243E+03  0.25500000000E-02 0.  1.
    8880022    1    1    2    0    0 -0.23017649486E+02  0.80779722743E+02 -0.92062008752E+03  0.93701023173E+03  0.15294330000E+03 0.  1.
    8880022    1    1    2    0    0  0.23017649486E+02 -0.80779722743E+02  0.16968986520E+04  0.17058463776E+04  0.15294330000E+03 0.  0.
<mgrwt>
<rscale>  0 0.17449020E+03</rscale>
<asrwt>0</asrwt>
<pdfrwt beam="1">  1        2 0.26301039E+00 0.17449020E+03</pdfrwt>
<pdfrwt beam="2">  1       -2 0.14358293E+00 0.17449020E+03</pdfrwt>
<totfact> 0.40507247E+00</totfact>
</mgrwt>
</event>
<event>
 4    1  0.1911612E-008  0.1245979E+04  0.7818608E-02  0.9073537E-01
         -2   -1    0    0    0  501 -0.00000000000E+00  0.00000000000E+00  0.12895721926E+04  0.12895721926E+04  0.25500000000E-02 0.  1.
          2   -1    0    0  501    0  0.00000000000E+00 -0.00000000000E+00 -0.26566151300E+04  0.26566151300E+04  0.25500000000E-02 0. -1.
    8880022    1    1    2    0    0  0.17488724124E+03  0.12241267163E+04  0.77556053498E+03  0.14676367265E+04  0.15294330000E+03 0.  0.
    8880022    1    1    2    0    0 -0.17488724124E+03 -0.12241267163E+04 -0.21426034723E+04  0.24785505961E+04  0.15294330000E+03 0.  0.
<mgrwt>
<rscale>  0 0.12459789E+04</rscale>
<asrwt>0</asrwt>
<pdfrwt beam="1">  1        2 0.40871002E+00 0.12459789E+04</pdfrwt>
<pdfrwt beam="2">  1       -2 0.19839572E+00 0.12459789E+04</pdfrwt>
<totfact> 0.37297864E-01</totfact>
</mgrwt>
</event>
<event>
 4    1  0.1701380E-008  0.9205312E+03  0.7818608E-02  0.9400274E-01
          2   -1    0    0  501    0  0.00000000000E+00  0.00000000000E+00  0.14143957169E+04  0.14143957169E+04  0.25500000000E-02 0. -1.
         -2   -1    0    0    0  501 -0.00000000000E+00 -0.00000000000E+00 -0.14716037041E+04  0.14716037041E+04  0.25500000000E-02 0.  1.
    8880022    1    1    2    0    0 -0.90092604361E+03 -0.11098793770E+03  0.10824933728E+04  0.14209748814E+04  0.15294330000E+03 0.  0.
    8880022    1    1    2    0    0  0.90092604361E+03  0.11098793770E+03 -0.11397013601E+04  0.14650245396E+04  0.15294330000E+03 0.  0.
<mgrwt>
<rscale>  0 0.92053121E+03</rscale>
<asrwt>0</asrwt>
<pdfrwt beam="1">  1        2 0.21759934E+00 0.92053121E+03</pdfrwt>
<pdfrwt beam="2">  1       -2 0.22640057E+00 0.92053121E+03</pdfrwt>
<totfact> 0.12870909E+00</totfact>
</mgrwt>
</event>
<event>
 4    1  0.1701380E-008  0.4692842E+03  0.7818608E-02  0.1022122E+00
          2   -1    0    0  501    0  0.00000000000E+00  0.00000000000E+00  0.80479742102E+03  0.80479742103E+03  0.25500000000E-02 0. -1.
         -2   -1    0    0    0  501 -0.00000000000E+00 -0.00000000000E+00 -0.58823206577E+03  0.58823206577E+03  0.25500000000E-02 0.  1.
    8880022    1    1    2    0    0  0.33949872273E+03  0.28561614993E+03  0.61764568440E+03  0.77570214148E+03  0.15294330000E+03 0.  0.
    8880022    1    1    2    0    0 -0.33949872273E+03 -0.28561614993E+03 -0.40108032914E+03  0.61732734532E+03  0.15294330000E+03 0.  0.
<mgrwt>
<rscale>  0 0.46928416E+03</rscale>
<asrwt>0</asrwt>
<pdfrwt beam="1">  1        2 0.12381499E+00 0.46928416E+03</pdfrwt>
<pdfrwt beam="2">  1       -2 0.90497242E-01 0.46928416E+03</pdfrwt>
<totfact> 0.37259809E+01</totfact>
</mgrwt>
</event>
<event>
 4    1  0.1701380E-008  0.5575467E+03  0.7818608E-02  0.9997621E-01
          2   -1    0    0  501    0  0.00000000000E+00  0.00000000000E+00  0.26480290551E+04  0.26480290551E+04  0.25500000000E-02 0. -1.
         -2   -1    0    0    0  501 -0.00000000000E+00 -0.00000000000E+00 -0.33571486134E+03  0.33571486135E+03  0.25500000000E-02 0.  1.
    8880022    1    1    2    0    0  0.23942124231E+03  0.47973337215E+03  0.23592399844E+04  0.24242259789E+04  0.15294330000E+03 0. -1.
    8880022    1    1    2    0    0 -0.23942124231E+03 -0.47973337215E+03 -0.46925790654E+02  0.55951793757E+03  0.15294330000E+03 0.  0.
<mgrwt>
<rscale>  0 0.55754667E+03</rscale>
<asrwt>0</asrwt>
<pdfrwt beam="1">  1        2 0.40738909E+00 0.55754667E+03</pdfrwt>
<pdfrwt beam="2">  1       -2 0.51648440E-01 0.55754667E+03</pdfrwt>
<totfact> 0.11037013E+01</totfact>
</mgrwt>
</event>
<event>
 4    1  0.1701380E-008  0.5559186E+03  0.7818608E-02  0.1000133E+00
          2   -1    0    0  501    0  0.00000000000E+00  0.00000000000E+00  0.10705493378E+04  0.10705493378E+04  0.25500000000E-02 0. -1.
         -2   -1    0    0    0  501 -0.00000000000E+00 -0.00000000000E+00 -0.71690454592E+03  0.71690454593E+03  0.25500000000E-02 0.  1.
    8880022    1    1    2    0    0 -0.70012664065E+02  0.52986039536E+03  0.86755555001E+03  0.10303873529E+04  0.15294330000E+03 0.  0.
    8880022    1    1    2    0    0  0.70012664065E+02 -0.52986039536E+03 -0.51391075814E+03  0.75706653079E+03  0.15294330000E+03 0.  0.
<mgrwt>
<rscale>  0 0.55591858E+03</rscale>
<asrwt>0</asrwt>
<pdfrwt beam="1">  1        2 0.16469990E+00 0.55591858E+03</pdfrwt>
<pdfrwt beam="2">  1       -2 0.11029301E+00 0.55591858E+03</pdfrwt>
<totfact> 0.15485035E+01</totfact>
</mgrwt>
</event>
<event>
 4    1  0.1701380E-008  0.1722649E+03  0.7818608E-02  0.1175506E+00
          2   -1    0    0  501    0  0.00000000000E+00  0.00000000000E+00  0.18211226272E+04  0.18211226272E+04  0.25500000000E-02 0. -1.
         -2   -1    0    0    0  501 -0.00000000000E+00 -0.00000000000E+00 -0.16492453007E+03  0.16492453009E+03  0.25500000000E-02 0.  1.
    8880022    1    1    2    0    0 -0.65109249469E+02 -0.45214417487E+02 -0.11459219080E+03  0.20689751357E+03  0.15294330000E+03 0.  1.
    8880022    1    1    2    0    0  0.65109249469E+02  0.45214417487E+02  0.17707902879E+04  0.17791496437E+04  0.15294330000E+03 0.  0.
<mgrwt>
<rscale>  0 0.17226494E+03</rscale>
<asrwt>0</asrwt>
<pdfrwt beam="1">  1        2 0.28017270E+00 0.17226494E+03</pdfrwt>
<pdfrwt beam="2">  1       -2 0.25373005E-01 0.17226494E+03</pdfrwt>
<totfact> 0.13312532E+02</totfact>
</mgrwt>
</event>
<event>
 4    1  0.1701380E-008  0.6224647E+03  0.7818608E-02  0.9859865E-01
          2   -1    0    0  501    0  0.00000000000E+00  0.00000000000E+00  0.15075854014E+04  0.15075854014E+04  0.25500000000E-02 0. -1.
         -2   -1    0    0    0  501 -0.00000000000E+00 -0.00000000000E+00 -0.79332488874E+03  0.79332488875E+03  0.25500000000E-02 0.  1.
    8880022    1    1    2    0    0 -0.38381949178E+03 -0.46556764797E+03  0.13030508437E+04  0.14440927226E+04  0.15294330000E+03 0.  0.
    8880022    1    1    2    0    0  0.38381949178E+03  0.46556764797E+03 -0.58879033106E+03  0.85681756756E+03  0.15294330000E+03 0.  0.
<mgrwt>
<rscale>  0 0.62246469E+03</rscale>
<asrwt>0</asrwt>
<pdfrwt beam="1">  1        2 0.23193621E+00 0.62246469E+03</pdfrwt>
<pdfrwt beam="2">  1       -2 0.12204998E+00 0.62246469E+03</pdfrwt>
<totfact> 0.66948788E+00</totfact>
</mgrwt>
</event>
<event>
 4    1  0.1701380E-008  0.1001801E+04  0.7818608E-02  0.9306572E-01
         -2   -1    0    0    0  501 -0.00000000000E+00  0.00000000000E+00  0.88224673270E+03  0.88224673270E+03  0.25500000000E-02 0.  1.
          2   -1    0    0  501    0  0.00000000000E+00 -0.00000000000E+00 -0.26831767357E+04  0.26831767357E+04  0.25500000000E-02 0. -1.
    8880022    1    1    2    0    0 -0.95396583715E+03 -0.26488068866E+03 -0.22534970405E+04  0.24661413508E+04  0.15294330000E+03 0.  0.
    8880022    1    1    2    0    0  0.95396583715E+03  0.26488068866E+03  0.45256703747E+03  0.10992821176E+04  0.15294330000E+03 0.  0.
<mgrwt>
<rscale>  0 0.10018005E+04</rscale>
<asrwt>0</asrwt>
<pdfrwt beam="1">  1        2 0.41279642E+00 0.10018005E+04</pdfrwt>
<pdfrwt beam="2">  1       -2 0.13573027E+00 0.10018005E+04</pdfrwt>
<totfact> 0.10675883E+00</totfact>
</mgrwt>
</event>
<event>
 4    1  0.1701380E-008  0.1395431E+04  0.7818608E-02  0.8957133E-01
          2   -1    0    0  501    0  0.00000000000E+00  0.00000000000E+00  0.29433117402E+04  0.29433117402E+04  0.25500000000E-02 0. -1.
         -2   -1    0    0    0  501 -0.00000000000E+00 -0.00000000000E+00 -0.10587967710E+04  0.10587967710E+04  0.25500000000E-02 0.  1.
    8880022    1    1    2    0    0  0.13464574548E+04 -0.33299870689E+03 -0.28339673962E+03  0.14239175473E+04  0.15294330000E+03 0.  0.
    8880022    1    1    2    0    0 -0.13464574548E+04  0.33299870689E+03  0.21679117088E+04  0.25781909639E+04  0.15294330000E+03 0.  0.
<mgrwt>
<rscale>  0 0.13954309E+04</rscale>
<asrwt>0</asrwt>
<pdfrwt beam="1">  1        2 0.45281718E+00 0.13954309E+04</pdfrwt>
<pdfrwt beam="2">  1       -2 0.16289181E+00 0.13954309E+04</pdfrwt>
<totfact> 0.43384513E-01</totfact>
</mgrwt>
</event>
<event>
 4    1  0.1701380E-008  0.6891997E+03  0.7818608E-02  0.9735882E-01
          2   -1    0    0  501    0  0.00000000000E+00  0.00000000000E+00  0.18771833692E+04  0.18771833692E+04  0.25500000000E-02 0. -1.
         -2   -1    0    0    0  501 -0.00000000000E+00 -0.00000000000E+00 -0.74015252977E+03  0.74015252977E+03  0.25500000000E-02 0.  1.
    8880022    1    1    2    0    0 -0.66190584298E+03  0.11612598052E+03  0.16301742693E+04  0.17698769419E+04  0.15294330000E+03 0.  0.
    8880022    1    1    2    0    0  0.66190584298E+03 -0.11612598052E+03 -0.49314342991E+03  0.84745895699E+03  0.15294330000E+03 0.  0.
<mgrwt>
<rscale>  0 0.68919971E+03</rscale>
<asrwt>0</asrwt>
<pdfrwt beam="1">  1        2 0.28879744E+00 0.68919971E+03</pdfrwt>
<pdfrwt beam="2">  1       -2 0.11386962E+00 0.68919971E+03</pdfrwt>
<totfact> 0.49299596E+00</totfact>
</mgrwt>
</event>
<event>
 4    1  0.1701380E-008  0.7819454E+03  0.7818608E-02  0.9586524E-01
          2   -1    0    0  501    0  0.00000000000E+00  0.00000000000E+00  0.95112431534E+03  0.95112431534E+03  0.25500000000E-02 0. -1.
         -2   -1    0    0    0  501 -0.00000000000E+00 -0.00000000000E+00 -0.11217793489E+04  0.11217793489E+04  0.25500000000E-02 0.  1.
    8880022    1    1    2    0    0 -0.76294157164E+03 -0.77247035866E+02 -0.76254343294E+03  0.10922046907E+04  0.15294330000E+03 0.  0.
    8880022    1    1    2    0    0  0.76294157164E+03  0.77247035866E+02  0.59188839939E+03  0.98069897351E+03  0.15294330000E+03 0.  0.
<mgrwt>
<rscale>  0 0.78194539E+03</rscale>
<asrwt>0</asrwt>
<pdfrwt beam="1">  1        2 0.14632682E+00 0.78194539E+03</pdfrwt>
<pdfrwt beam="2">  1       -2 0.17258144E+00 0.78194539E+03</pdfrwt>
<totfact> 0.56252257E+00</totfact>
</mgrwt>
</event>
<event>
 4    1  0.1701380E-008  0.5558011E+03  0.7818608E-02  0.1000160E+00
         -2   -1    0    0    0  501 -0.00000000000E+00  0.00000000000E+00  0.53427878808E+03  0.53427878809E+03  0.25500000000E-02 0.  1.
          2   -1    0    0  501    0  0.00000000000E+00 -0.00000000000E+00 -0.84089012357E+03  0.84089012358E+03  0.25500000000E-02 0. -1.
    8880022    1    1    2    0    0 -0.48913671620E+03 -0.21510099045E+03  0.23100842426E+03  0.60189675885E+03  0.15294330000E+03 0.  0.
    8880022    1    1    2    0    0  0.48913671620E+03  0.21510099045E+03 -0.53761975975E+03  0.77327215281E+03  0.15294330000E+03 0.  0.
<mgrwt>
<rscale>  0 0.55580106E+03</rscale>
<asrwt>0</asrwt>
<pdfrwt beam="1">  1        2 0.12936771E+00 0.55580106E+03</pdfrwt>
<pdfrwt beam="2">  1       -2 0.82196737E-01 0.55580106E+03</pdfrwt>
<totfact> 0.43281843E+01</totfact>
</mgrwt>
</event>
<event>
 4    1  0.1701380E-008  0.1430094E+04  0.7818608E-02  0.8932319E-01
         -2   -1    0    0    0  501 -0.00000000000E+00  0.00000000000E+00  0.17238201847E+04  0.17238201847E+04  0.25500000000E-02 0.  1.
          2   -1    0    0  501    0  0.00000000000E+00 -0.00000000000E+00 -0.19587185823E+04  0.19587185823E+04  0.25500000000E-02 0. -1.
    8880022    1    1    2    0    0 -0.10268188939E+04  0.98357465490E+03  0.10387297619E+04  0.17675201028E+04  0.15294330000E+03 0.  0.
    8880022    1    1    2    0    0  0.10268188939E+04 -0.98357465490E+03 -0.12736281594E+04  0.19150186642E+04  0.15294330000E+03 0. -1.
<mgrwt>
<rscale>  0 0.14300936E+04</rscale>
<asrwt>0</asrwt>
<pdfrwt beam="1">  1        2 0.30134132E+00 0.14300936E+04</pdfrwt>
<pdfrwt beam="2">  1       -2 0.26520311E+00 0.14300936E+04</pdfrwt>
<totfact> 0.34524389E-01</totfact>
</mgrwt>
</event>
<event>
 4    1  0.1701380E-008  0.3908179E+03  0.7818608E-02  0.1047006E+00
         -2   -1    0    0    0  501 -0.00000000000E+00  0.00000000000E+00  0.24164778354E+03  0.24164778356E+03  0.25500000000E-02 0.  1.
          2   -1    0    0  501    0  0.00000000000E+00 -0.00000000000E+00 -0.86167695901E+03  0.86167695901E+03  0.25500000000E-02 0. -1.
    8880022    1    1    2    0    0 -0.27924295229E+03  0.22665032170E+03 -0.25245829734E+02  0.39163248035E+03  0.15294330000E+03 0.  1.
    8880022    1    1    2    0    0  0.27924295229E+03 -0.22665032170E+03 -0.59478334573E+03  0.71169226222E+03  0.15294330000E+03 0.  0.
<mgrwt>
<rscale>  0 0.39081792E+03</rscale>
<asrwt>0</asrwt>
<pdfrwt beam="1">  1        2 0.13256569E+00 0.39081792E+03</pdfrwt>
<pdfrwt beam="2">  1       -2 0.37176582E-01 0.39081792E+03</pdfrwt>
<totfact> 0.21986166E+02</totfact>
</mgrwt>
</event>
<event>
 4    1  0.2680035E-008  0.1431720E+04  0.7818608E-02  0.8931173E-01
         -2   -1    0    0    0  501 -0.00000000000E+00  0.00000000000E+00  0.20021290686E+04  0.20021290686E+04  0.25500000000E-02 0.  1.
          2   -1    0    0  501    0  0.00000000000E+00 -0.00000000000E+00 -0.18606568286E+04  0.18606568286E+04  0.25500000000E-02 0. -1.
    8880022    1    1    2    0    0  0.13780588579E+04  0.35690935033E+03 -0.12245257658E+04  0.18839547511E+04  0.15294330000E+03 0.  0.
    8880022    1    1    2    0    0 -0.13780588579E+04 -0.35690935033E+03  0.13659980058E+04  0.19788311461E+04  0.15294330000E+03 0.  0.
<mgrwt>
<rscale>  0 0.14317200E+04</rscale>
<asrwt>0</asrwt>
<pdfrwt beam="1">  1        2 0.28625490E+00 0.14317200E+04</pdfrwt>
<pdfrwt beam="2">  1       -2 0.30801986E+00 0.14317200E+04</pdfrwt>
<totfact> 0.21449614E-01</totfact>
</mgrwt>
</event>
<event>
 4    1  0.1701380E-008  0.7006225E+03  0.7818608E-02  0.9716168E-01
         -2   -1    0    0    0  501 -0.00000000000E+00  0.00000000000E+00  0.16200195653E+04  0.16200195653E+04  0.25500000000E-02 0.  1.
          2   -1    0    0  501    0  0.00000000000E+00 -0.00000000000E+00 -0.10653966553E+04  0.10653966553E+04  0.25500000000E-02 0. -1.
    8880022    1    1    2    0    0 -0.64315793081E+03 -0.23200882519E+03 -0.85852392893E+03  0.11081223797E+04  0.15294330000E+03 0.  0.
    8880022    1    1    2    0    0  0.64315793081E+03  0.23200882519E+03  0.14131468389E+04  0.15772938408E+04  0.15294330000E+03 0.  0.
<mgrwt>
<rscale>  0 0.70062249E+03</rscale>
<asrwt>0</asrwt>
<pdfrwt beam="1">  1        2 0.16390718E+00 0.70062249E+03</pdfrwt>
<pdfrwt beam="2">  1       -2 0.24923378E+00 0.70062249E+03</pdfrwt>
<totfact> 0.15526985E+00</totfact>
</mgrwt>
</event>
<event>
 4    1  0.1701380E-008  0.4648228E+03  0.7818608E-02  0.1023392E+00
          2   -1    0    0  501    0  0.00000000000E+00  0.00000000000E+00  0.11408984145E+04  0.11408984145E+04  0.25500000000E-02 0. -1.
         -2   -1    0    0    0  501 -0.00000000000E+00 -0.00000000000E+00 -0.35654114037E+03  0.35654114037E+03  0.25500000000E-02 0.  1.
    8880022    1    1    2    0    0  0.10185661715E+03 -0.42695879776E+03 -0.12048873293E+03  0.48018514473E+03  0.15294330000E+03 0.  0.
    8880022    1    1    2    0    0 -0.10185661715E+03  0.42695879776E+03  0.90484600703E+03  0.10172544101E+04  0.15294330000E+03 0.  0.
<mgrwt>
<rscale>  0 0.46482280E+03</rscale>
<asrwt>0</asrwt>
<pdfrwt beam="1">  1        2 0.17552283E+00 0.46482280E+03</pdfrwt>
<pdfrwt beam="2">  1       -2 0.54852484E-01 0.46482280E+03</pdfrwt>
<totfact> 0.67401915E+01</totfact>
</mgrwt>
</event>
<event>
 4    1  0.1701380E-008  0.1259962E+04  0.7818608E-02  0.9061932E-01
          2   -1    0    0  501    0  0.00000000000E+00  0.00000000000E+00  0.22705303204E+04  0.22705303204E+04  0.25500000000E-02 0. -1.
         -2   -1    0    0    0  501 -0.00000000000E+00 -0.00000000000E+00 -0.10124140308E+04  0.10124140308E+04  0.25500000000E-02 0.  1.
    8880022    1    1    2    0    0 -0.32434621994E+03 -0.12078548548E+04  0.15420987937E+04  0.19913749429E+04  0.15294330000E+03 0.  0.
    8880022    1    1    2    0    0  0.32434621994E+03  0.12078548548E+04 -0.28398250409E+03  0.12915694083E+04  0.15294330000E+03 0.  0.
<mgrwt>
<rscale>  0 0.12599625E+04</rscale>
<asrwt>0</asrwt>
<pdfrwt beam="1">  1        2 0.34931236E+00 0.12599625E+04</pdfrwt>
<pdfrwt beam="2">  1       -2 0.15575600E+00 0.12599625E+04</pdfrwt>
<totfact> 0.12355972E+00</totfact>
</mgrwt>
</event>
<event>
 4    1  0.1701380E-008  0.2677947E+03  0.7818608E-02  0.1102548E+00
         -2   -1    0    0    0  501 -0.00000000000E+00  0.00000000000E+00  0.46852959617E+04  0.46852959617E+04  0.25500000000E-02 0.  1.
          2   -1    0    0  501    0  0.00000000000E+00 -0.00000000000E+00 -0.10401679049E+03  0.10401679052E+03  0.25500000000E-02 0. -1.
    8880022    1    1    2    0    0  0.19737587707E+03 -0.96773613190E+02  0.79178804542E+02  0.27925491073E+03  0.15294330000E+03 0.  0.
    8880022    1    1    2    0    0 -0.19737587707E+03  0.96773613190E+02  0.45021003667E+04  0.45100578415E+04  0.15294330000E+03 0.  0.
<mgrwt>
<rscale>  0 0.26779474E+03</rscale>
<asrwt>0</asrwt>
<pdfrwt beam="1">  1        2 0.16002584E-01 0.26779474E+03</pdfrwt>
<pdfrwt beam="2">  1       -2 0.72081472E+00 0.26779474E+03</pdfrwt>
<totfact> 0.87856575E-02</totfact>
</mgrwt>
</event>
<event>
 4    1  0.1701380E-008  0.9596791E+03  0.7818608E-02  0.9353908E-01
          2   -1    0    0  501    0  0.00000000000E+00  0.00000000000E+00  0.62727709292E+03  0.62727709292E+03  0.25500000000E-02 0. -1.
         -2   -1    0    0    0  501 -0.00000000000E+00 -0.00000000000E+00 -0.15488933792E+04  0.15488933792E+04  0.25500000000E-02 0.  1.
    8880022    1    1    2    0    0  0.41671499858E+03  0.85084722240E+03 -0.21249296463E+03  0.98292283468E+03  0.15294330000E+03 0.  0.
    8880022    1    1    2    0    0 -0.41671499858E+03 -0.85084722240E+03 -0.70912332164E+03  0.11932476374E+04  0.15294330000E+03 0.  0.
<mgrwt>
<rscale>  0 0.95967913E+03</rscale>
<asrwt>0</asrwt>
<pdfrwt beam="1">  1        2 0.96504169E-01 0.95967913E+03</pdfrwt>
<pdfrwt beam="2">  1       -2 0.23829129E+00 0.95967913E+03</pdfrwt>
<totfact> 0.35718047E+00</totfact>
</mgrwt>
</event>
<event>
 4    1  0.1701380E-008  0.1536964E+04  0.7818608E-02  0.8860238E-01
          2   -1    0    0  501    0  0.00000000000E+00  0.00000000000E+00  0.30220030225E+04  0.30220030225E+04  0.25500000000E-02 0. -1.
         -2   -1    0    0    0  501 -0.00000000000E+00 -0.00000000000E+00 -0.88224119267E+03  0.88224119267E+03  0.25500000000E-02 0.  1.
    8880022    1    1    2    0    0  0.37635918132E+03 -0.14823025481E+04  0.17289252836E+04  0.23133182589E+04  0.15294330000E+03 0.  0.
    8880022    1    1    2    0    0 -0.37635918132E+03  0.14823025481E+04  0.41083654621E+03  0.15909259563E+04  0.15294330000E+03 0.  0.
<mgrwt>
<rscale>  0 0.15369641E+04</rscale>
<asrwt>0</asrwt>
<pdfrwt beam="1">  1        2 0.46492355E+00 0.15369641E+04</pdfrwt>
<pdfrwt beam="2">  1       -2 0.13572941E+00 0.15369641E+04</pdfrwt>
<totfact> 0.62097115E-01</totfact>
</mgrwt>
</event>
<event>
 4    1  0.1701380E-008  0.1344101E+04  0.7818608E-02  0.8995306E-01
          2   -1    0    0  501    0  0.00000000000E+00  0.00000000000E+00  0.11088085368E+04  0.11088085368E+04  0.25500000000E-02 0. -1.
         -2   -1    0    0    0  501 -0.00000000000E+00 -0.00000000000E+00 -0.24647873286E+04  0.24647873286E+04  0.25500000000E-02 0.  1.
    8880022    1    1    2    0    0 -0.13027246561E+04  0.29346908389E+03  0.36228920018E+03  0.13920706700E+04  0.15294330000E+03 0.  0.
    8880022    1    1    2    0    0  0.13027246561E+04 -0.29346908389E+03 -0.17182679920E+04  0.21815251954E+04  0.15294330000E+03 0.  0.
<mgrwt>
<rscale>  0 0.13441009E+04</rscale>
<asrwt>0</asrwt>
<pdfrwt beam="1">  1        2 0.17058593E+00 0.13441009E+04</pdfrwt>
<pdfrwt beam="2">  1       -2 0.37919805E+00 0.13441009E+04</pdfrwt>
<totfact> 0.21045319E-01</totfact>
</mgrwt>
</event>
<event>
 4    1  0.1701380E-008  0.6229148E+03  0.7818608E-02  0.9858973E-01
         -2   -1    0    0    0  501 -0.00000000000E+00  0.00000000000E+00  0.23795498261E+03  0.23795498262E+03  0.25500000000E-02 0.  1.
          2   -1    0    0  501    0  0.00000000000E+00 -0.00000000000E+00 -0.17557695955E+04  0.17557695955E+04  0.25500000000E-02 0. -1.
    8880022    1    1    2    0    0 -0.60258362865E+03  0.39040757910E+02 -0.49280256485E+03  0.79427780482E+03  0.15294330000E+03 0.  0.
    8880022    1    1    2    0    0  0.60258362865E+03 -0.39040757910E+02 -0.10250120480E+04  0.11994467733E+04  0.15294330000E+03 0.  1.
<mgrwt>
<rscale>  0 0.62291481E+03</rscale>
<asrwt>0</asrwt>
<pdfrwt beam="1">  1        2 0.27011839E+00 0.62291481E+03</pdfrwt>
<pdfrwt beam="2">  1       -2 0.36608460E-01 0.62291481E+03</pdfrwt>
<totfact> 0.66699073E+01</totfact>
</mgrwt>
</event>
<event>
 4    1  0.1701380E-008  0.9323166E+03  0.7818608E-02  0.9386062E-01
          2   -1    0    0  501    0  0.00000000000E+00  0.00000000000E+00  0.28006504515E+04  0.28006504515E+04  0.25500000000E-02 0. -1.
         -2   -1    0    0    0  501 -0.00000000000E+00 -0.00000000000E+00 -0.65360383355E+03  0.65360383356E+03  0.25500000000E-02 0.  1.
    8880022    1    1    2    0    0  0.88843207979E+03  0.23772037789E+03 -0.17808204028E+03  0.94917195731E+03  0.15294330000E+03 0.  0.
    8880022    1    1    2    0    0 -0.88843207979E+03 -0.23772037789E+03  0.23251286582E+04  0.25050823278E+04  0.15294330000E+03 0.  0.
<mgrwt>
<rscale>  0 0.93231657E+03</rscale>
<asrwt>0</asrwt>
<pdfrwt beam="1">  1        2 0.43086930E+00 0.93231657E+03</pdfrwt>
<pdfrwt beam="2">  1       -2 0.10055444E+00 0.93231657E+03</pdfrwt>
<totfact> 0.19318102E+00</totfact>
</mgrwt>
</event>
<event>
 4    1  0.1701380E-008  0.3606588E+03  0.7818608E-02  0.1058323E+00
          2   -1    0    0  501    0  0.00000000000E+00  0.00000000000E+00  0.29908906741E+03  0.29908906742E+03  0.25500000000E-02 0. -1.
         -2   -1    0    0    0  501 -0.00000000000E+00 -0.00000000000E+00 -0.82408138575E+03  0.82408138575E+03  0.25500000000E-02 0.  1.
    8880022    1    1    2    0    0  0.19897550217E+03  0.25902097260E+03 -0.64842293660E+03  0.74197511578E+03  0.15294330000E+03 0.  1.
    8880022    1    1    2    0    0 -0.19897550217E+03 -0.25902097260E+03  0.12343061826E+03  0.38119533739E+03  0.15294330000E+03 0.  0.
<mgrwt>
<rscale>  0 0.36065880E+03</rscale>
<asrwt>0</asrwt>
<pdfrwt beam="1">  1        2 0.46013703E-01 0.36065880E+03</pdfrwt>
<pdfrwt beam="2">  1       -2 0.12678175E+00 0.36065880E+03</pdfrwt>
<totfact> 0.53121590E+01</totfact>
</mgrwt>
</event>
<event>
 4    1  0.1701380E-008  0.2281285E+04  0.7818608E-02  0.8485337E-01
         -2   -1    0    0    0  501 -0.00000000000E+00  0.00000000000E+00  0.23559842817E+04  0.23559842817E+04  0.25500000000E-02 0.  1.
          2   -1    0    0  501    0  0.00000000000E+00 -0.00000000000E+00 -0.30697795405E+04  0.30697795405E+04  0.25500000000E-02 0. -1.
    8880022    1    1    2    0    0  0.12915805092E+04 -0.18742169984E+04 -0.17934942283E+04  0.29018757329E+04  0.15294330000E+03 0.  0.
    8880022    1    1    2    0    0 -0.12915805092E+04  0.18742169984E+04  0.10796989696E+04  0.25238880892E+04  0.15294330000E+03 0.  0.
<mgrwt>
<rscale>  0 0.22812850E+04</rscale>
<asrwt>0</asrwt>
<pdfrwt beam="1">  1        2 0.47227377E+00 0.22812850E+04</pdfrwt>
<pdfrwt beam="2">  1       -2 0.36245912E+00 0.22812850E+04</pdfrwt>
<totfact> 0.17447689E-02</totfact>
</mgrwt>
</event>
<event>
 4    1  0.1701380E-008  0.1216572E+04  0.7818608E-02  0.9098473E-01
          2   -1    0    0  501    0  0.00000000000E+00  0.00000000000E+00  0.27755225567E+04  0.27755225567E+04  0.25500000000E-02 0. -1.
         -2   -1    0    0    0  501 -0.00000000000E+00 -0.00000000000E+00 -0.56201368164E+03  0.56201368164E+03  0.25500000000E-02 0.  1.
    8880022    1    1    2    0    0 -0.11936013972E+04 -0.17880835500E+03  0.14842763293E+04  0.19191468412E+04  0.15294330000E+03 0.  0.
    8880022    1    1    2    0    0  0.11936013972E+04  0.17880835500E+03  0.72923254573E+03  0.14183893972E+04  0.15294330000E+03 0.  0.
<mgrwt>
<rscale>  0 0.12165724E+04</rscale>
<asrwt>0</asrwt>
<pdfrwt beam="1">  1        2 0.42700347E+00 0.12165724E+04</pdfrwt>
<pdfrwt beam="2">  1       -2 0.86463643E-01 0.12165724E+04</pdfrwt>
<totfact> 0.27365158E+00</totfact>
</mgrwt>
</event>
<event>
 4    1  0.1701380E-008  0.7315098E+03  0.7818608E-02  0.9664814E-01
          2   -1    0    0  501    0  0.00000000000E+00  0.00000000000E+00  0.77777287560E+03  0.77777287560E+03  0.25500000000E-02 0. -1.
         -2   -1    0    0    0  501 -0.00000000000E+00 -0.00000000000E+00 -0.12521933597E+04  0.12521933597E+04  0.25500000000E-02 0.  1.
    8880022    1    1    2    0    0  0.57490484618E+03  0.42567519270E+03 -0.91850910885E+03  0.11742084942E+04  0.15294330000E+03 0.  0.
    8880022    1    1    2    0    0 -0.57490484618E+03 -0.42567519270E+03  0.44408862472E+03  0.85575774111E+03  0.15294330000E+03 0.  0.
<mgrwt>
<rscale>  0 0.73150981E+03</rscale>
<asrwt>0</asrwt>
<pdfrwt beam="1">  1        2 0.11965737E+00 0.73150981E+03</pdfrwt>
<pdfrwt beam="2">  1       -2 0.19264513E+00 0.73150981E+03</pdfrwt>
<totfact> 0.54433250E+00</totfact>
</mgrwt>
</event>
<event>
 4    1  0.1701380E-008  0.1137115E+04  0.7818608E-02  0.9169754E-01
          2   -1    0    0  501    0  0.00000000000E+00  0.00000000000E+00  0.13192322522E+04  0.13192322522E+04  0.25500000000E-02 0. -1.
         -2   -1    0    0    0  501 -0.00000000000E+00 -0.00000000000E+00 -0.11946574538E+04  0.11946574538E+04  0.25500000000E-02 0.  1.
    8880022    1    1    2    0    0  0.68498711786E+03 -0.89466826530E+03 -0.47034474095E+03  0.12305504804E+04  0.15294330000E+03 0.  0.
    8880022    1    1    2    0    0 -0.68498711786E+03  0.89466826530E+03  0.59491953938E+03  0.12833392256E+04  0.15294330000E+03 0.  0.
<mgrwt>
<rscale>  0 0.11371149E+04</rscale>
<asrwt>0</asrwt>
<pdfrwt beam="1">  1        2 0.20295881E+00 0.11371149E+04</pdfrwt>
<pdfrwt beam="2">  1       -2 0.18379345E+00 0.11371149E+04</pdfrwt>
<totfact> 0.26874882E+00</totfact>
</mgrwt>
</event>
<event>
 4    1  0.1701380E-008  0.5811526E+03  0.7818608E-02  0.9945299E-01
         -2   -1    0    0    0  501 -0.00000000000E+00  0.00000000000E+00  0.37875614881E+04  0.37875614881E+04  0.25500000000E-02 0.  1.
          2   -1    0    0  501    0  0.00000000000E+00 -0.00000000000E+00 -0.14493744942E+04  0.14493744942E+04  0.25500000000E-02 0. -1.
    8880022    1    1    2    0    0  0.42255859584E+02 -0.55907162138E+03  0.37057344785E+04  0.37510273677E+04  0.15294330000E+03 0.  0.
    8880022    1    1    2    0    0 -0.42255859584E+02  0.55907162138E+03 -0.13675474845E+04  0.14859086146E+04  0.15294330000E+03 0. -1.
<mgrwt>
<rscale>  0 0.58115255E+03</rscale>
<asrwt>0</asrwt>
<pdfrwt beam="1">  1        2 0.22298069E+00 0.58115255E+03</pdfrwt>
<pdfrwt beam="2">  1       -2 0.58270177E+00 0.58115255E+03</pdfrwt>
<totfact> 0.88405546E-03</totfact>
</mgrwt>
</event>
<event>
 4    1  0.1701380E-008  0.6886973E+03  0.7818608E-02  0.9736759E-01
          2   -1    0    0  501    0  0.00000000000E+00  0.00000000000E+00  0.32635047435E+04  0.32635047435E+04  0.25500000000E-02 0. -1.
         -2   -1    0    0    0  501 -0.00000000000E+00 -0.00000000000E+00 -0.37653797795E+03  0.37653797796E+03  0.25500000000E-02 0.  1.
    8880022    1    1    2    0    0  0.60317425346E+03 -0.29511541960E+03  0.28696428511E+04  0.29511275874E+04  0.15294330000E+03 0.  0.
    8880022    1    1    2    0    0 -0.60317425346E+03  0.29511541960E+03  0.17323914391E+02  0.68891513406E+03  0.15294330000E+03 0.  0.
<mgrwt>
<rscale>  0 0.68869728E+03</rscale>
<asrwt>0</asrwt>
<pdfrwt beam="1">  1        2 0.50207764E+00 0.68869728E+03</pdfrwt>
<pdfrwt beam="2">  1       -2 0.57928921E-01 0.68869728E+03</pdfrwt>
<totfact> 0.35837788E+00</totfact>
</mgrwt>
</event>
<event>
 4    1  0.1701380E-008  0.7678877E+03  0.7818608E-02  0.9607698E-01
          2   -1    0    0  501    0  0.00000000000E+00  0.00000000000E+00  0.17948633659E+04  0.17948633660E+04  0.25500000000E-02 0. -1.
         -2   -1    0    0    0  501 -0.00000000000E+00 -0.00000000000E+00 -0.53705352665E+03  0.53705352666E+03  0.25500000000E-02 0.  1.
    8880022    1    1    2    0    0  0.13724538844E+03  0.73988080060E+03  0.13554464915E+04  0.15578468282E+04  0.15294330000E+03 0.  0.
    8880022    1    1    2    0    0 -0.13724538844E+03 -0.73988080060E+03 -0.97636652218E+02  0.77407006441E+03  0.15294330000E+03 0.  0.
<mgrwt>
<rscale>  0 0.76788772E+03</rscale>
<asrwt>0</asrwt>
<pdfrwt beam="1">  1        2 0.27613282E+00 0.76788772E+03</pdfrwt>
<pdfrwt beam="2">  1       -2 0.82623620E-01 0.76788772E+03</pdfrwt>
<totfact> 0.11473678E+01</totfact>
</mgrwt>
</event>
<event>
 4    1  0.1701380E-008  0.6695890E+03  0.7818608E-02  0.9770701E-01
          2   -1    0    0  501    0  0.00000000000E+00  0.00000000000E+00  0.78024544967E+03  0.78024544968E+03  0.25500000000E-02 0. -1.
         -2   -1    0    0    0  501 -0.00000000000E+00 -0.00000000000E+00 -0.75010227026E+03  0.75010227027E+03  0.25500000000E-02 0.  1.
    8880022    1    1    2    0    0 -0.56298393955E+03  0.32864405071E+03  0.38516285029E+03  0.77246352827E+03  0.15294330000E+03 0.  0.
    8880022    1    1    2    0    0  0.56298393955E+03 -0.32864405071E+03 -0.35501967088E+03  0.75788419167E+03  0.15294330000E+03 0.  0.
<mgrwt>
<rscale>  0 0.66958904E+03</rscale>
<asrwt>0</asrwt>
<pdfrwt beam="1">  1        2 0.12003776E+00 0.66958904E+03</pdfrwt>
<pdfrwt beam="2">  1       -2 0.11540035E+00 0.66958904E+03</pdfrwt>
<totfact> 0.21289763E+01</totfact>
</mgrwt>
</event>
<event>
 4    1  0.1701380E-008  0.1065791E+04  0.7818608E-02  0.9239191E-01
          2   -1    0    0  501    0  0.00000000000E+00  0.00000000000E+00  0.17340173355E+04  0.17340173355E+04  0.25500000000E-02 0. -1.
         -2   -1    0    0    0  501 -0.00000000000E+00 -0.00000000000E+00 -0.11699909508E+04  0.11699909508E+04  0.25500000000E-02 0.  1.
    8880022    1    1    2    0    0 -0.99488346553E+03  0.35032351223E+03  0.12452760093E+04  0.16390923298E+04  0.15294330000E+03 0.  0.
    8880022    1    1    2    0    0  0.99488346553E+03 -0.35032351223E+03 -0.68124962460E+03  0.12649159566E+04  0.15294330000E+03 0.  0.
<mgrwt>
<rscale>  0 0.10657914E+04</rscale>
<asrwt>0</asrwt>
<pdfrwt beam="1">  1        2 0.26677190E+00 0.10657914E+04</pdfrwt>
<pdfrwt beam="2">  1       -2 0.17999861E+00 0.10657914E+04</pdfrwt>
<totfact> 0.16789082E+00</totfact>
</mgrwt>
</event>
<event>
 4    1  0.1701380E-008  0.9812804E+03  0.7818608E-02  0.9329318E-01
          2   -1    0    0  501    0  0.00000000000E+00  0.00000000000E+00  0.44348036677E+04  0.44348036677E+04  0.25500000000E-02 0. -1.
         -2   -1    0    0    0  501 -0.00000000000E+00 -0.00000000000E+00 -0.51380095097E+03  0.51380095098E+03  0.25500000000E-02 0.  1.
    8880022    1    1    2    0    0  0.90594664064E+03  0.34464502056E+03  0.80337275966E+02  0.98456347526E+03  0.15294330000E+03 0.  0.
    8880022    1    1    2    0    0 -0.90594664064E+03 -0.34464502056E+03  0.38406654408E+04  0.39640411435E+04  0.15294330000E+03 0.  0.
<mgrwt>
<rscale>  0 0.98128037E+03</rscale>
<asrwt>0</asrwt>
<pdfrwt beam="1">  1        2 0.68227751E+00 0.98128037E+03</pdfrwt>
<pdfrwt beam="2">  1       -2 0.79046297E-01 0.98128037E+03</pdfrwt>
<totfact> 0.21735635E-01</totfact>
</mgrwt>
</event>
<event>
 4    1  0.1701380E-008  0.9488706E+03  0.7818608E-02  0.9366472E-01
         -2   -1    0    0    0  501 -0.00000000000E+00  0.00000000000E+00  0.72785159314E+03  0.72785159314E+03  0.25500000000E-02 0.  1.
          2   -1    0    0  501    0  0.00000000000E+00 -0.00000000000E+00 -0.18193984883E+04  0.18193984883E+04  0.25500000000E-02 0. -1.
    8880022    1    1    2    0    0  0.86220945353E+03  0.36545668299E+03  0.17481331045E+03  0.96483940395E+03  0.15294330000E+03 0.  0.
    8880022    1    1    2    0    0 -0.86220945353E+03 -0.36545668299E+03 -0.12663602056E+04  0.15824106775E+04  0.15294330000E+03 0.  0.
<mgrwt>
<rscale>  0 0.94887058E+03</rscale>
<asrwt>0</asrwt>
<pdfrwt beam="1">  1        2 0.27990746E+00 0.94887058E+03</pdfrwt>
<pdfrwt beam="2">  1       -2 0.11197717E+00 0.94887058E+03</pdfrwt>
<totfact> 0.53153087E+00</totfact>
</mgrwt>
</event>
<event>
 4    1  0.1701380E-008  0.4003573E+03  0.7818608E-02  0.1043656E+00
          2   -1    0    0  501    0  0.00000000000E+00  0.00000000000E+00  0.18469936312E+04  0.18469936312E+04  0.25500000000E-02 0. -1.
         -2   -1    0    0    0  501 -0.00000000000E+00 -0.00000000000E+00 -0.10053544107E+04  0.10053544107E+04  0.25500000000E-02 0.  1.
    8880022    1    1    2    0    0 -0.21593360065E+03  0.30044464859E+03  0.17840510880E+04  0.18284212437E+04  0.15294330000E+03 0.  0.
    8880022    1    1    2    0    0  0.21593360065E+03 -0.30044464859E+03 -0.94241186757E+03  0.10239267981E+04  0.15294330000E+03 0.  1.
<mgrwt>
<rscale>  0 0.40035729E+03</rscale>
<asrwt>0</asrwt>
<pdfrwt beam="1">  1        2 0.28415286E+00 0.40035729E+03</pdfrwt>
<pdfrwt beam="2">  1       -2 0.15466991E+00 0.40035729E+03</pdfrwt>
<totfact> 0.25278821E+00</totfact>
</mgrwt>
</event>
<event>
 4    1  0.1701380E-008  0.1511980E+04  0.7818608E-02  0.8876525E-01
         -2   -1    0    0    0  501 -0.00000000000E+00  0.00000000000E+00  0.98142998386E+03  0.98142998386E+03  0.25500000000E-02 0.  1.
          2   -1    0    0  501    0  0.00000000000E+00 -0.00000000000E+00 -0.24568649042E+04  0.24568649042E+04  0.25500000000E-02 0. -1.
    8880022    1    1    2    0    0 -0.68966945040E+03  0.13368048550E+04 -0.34604572118E+03  0.15510739716E+04  0.15294330000E+03 0.  0.
    8880022    1    1    2    0    0  0.68966945040E+03 -0.13368048550E+04 -0.11293891991E+04  0.18872209164E+04  0.15294330000E+03 0.  0.
<mgrwt>
<rscale>  0 0.15119798E+04</rscale>
<asrwt>0</asrwt>
<pdfrwt beam="1">  1        2 0.37797921E+00 0.15119798E+04</pdfrwt>
<pdfrwt beam="2">  1       -2 0.15098923E+00 0.15119798E+04</pdfrwt>
<totfact> 0.10241914E+00</totfact>
</mgrwt>
</event>
<event>
 4    1  0.1701380E-008  0.6811918E+03  0.7818608E-02  0.9749949E-01
         -2   -1    0    0    0  501 -0.00000000000E+00  0.00000000000E+00  0.48328036176E+03  0.48328036176E+03  0.25500000000E-02 0.  1.
          2   -1    0    0  501    0  0.00000000000E+00 -0.00000000000E+00 -0.11522913470E+04  0.11522913470E+04  0.25500000000E-02 0. -1.
    8880022    1    1    2    0    0  0.11425224037E+03 -0.65389373562E+03 -0.66844472389E+03  0.95437969060E+03  0.15294330000E+03 0.  0.
    8880022    1    1    2    0    0 -0.11425224037E+03  0.65389373562E+03 -0.56626131617E+00  0.68119201814E+03  0.15294330000E+03 0.  0.
<mgrwt>
<rscale>  0 0.68119178E+03</rscale>
<asrwt>0</asrwt>
<pdfrwt beam="1">  1        2 0.17727559E+00 0.68119178E+03</pdfrwt>
<pdfrwt beam="2">  1       -2 0.74350825E-01 0.68119178E+03</pdfrwt>
<totfact> 0.33776906E+01</totfact>
</mgrwt>
</event>
<event>
 4    1  0.1701380E-008  0.7836233E+03  0.7818608E-02  0.9584029E-01
         -2   -1    0    0    0  501 -0.00000000000E+00  0.00000000000E+00  0.40466148200E+03  0.40466148201E+03  0.25500000000E-02 0.  1.
          2   -1    0    0  501    0  0.00000000000E+00 -0.00000000000E+00 -0.36622391814E+04  0.36622391814E+04  0.25500000000E-02 0. -1.
    8880022    1    1    2    0    0 -0.15481767949E+03 -0.75279827915E+03 -0.31849320411E+04  0.32799173042E+04  0.15294330000E+03 0.  0.
    8880022    1    1    2    0    0  0.15481767949E+03  0.75279827915E+03 -0.72645658294E+02  0.78698335920E+03  0.15294330000E+03 0.  0.
<mgrwt>
<rscale>  0 0.78362326E+03</rscale>
<asrwt>0</asrwt>
<pdfrwt beam="1">  1        2 0.56342139E+00 0.78362326E+03</pdfrwt>
<pdfrwt beam="2">  1       -2 0.62255615E-01 0.78362326E+03</pdfrwt>
<totfact> 0.16191843E+00</totfact>
</mgrwt>
</event>
<event>
 4    1  0.1701380E-008  0.7591736E+03  0.7818608E-02  0.9621067E-01
          2   -1    0    0  501    0  0.00000000000E+00  0.00000000000E+00  0.78881704060E+03  0.78881704060E+03  0.25500000000E-02 0. -1.
         -2   -1    0    0    0  501 -0.00000000000E+00 -0.00000000000E+00 -0.14341651910E+04  0.14341651910E+04  0.25500000000E-02 0.  1.
    8880022    1    1    2    0    0  0.36173922870E+03  0.64969035666E+03  0.45580148271E+03  0.88549391516E+03  0.15294330000E+03 0. -1.
    8880022    1    1    2    0    0 -0.36173922870E+03 -0.64969035666E+03 -0.11011496331E+04  0.13374883164E+04  0.15294330000E+03 0.  0.
<mgrwt>
<rscale>  0 0.75917355E+03</rscale>
<asrwt>0</asrwt>
<pdfrwt beam="1">  1        2 0.12135647E+00 0.75917355E+03</pdfrwt>
<pdfrwt beam="2">  1       -2 0.22064080E+00 0.75917355E+03</pdfrwt>
<totfact> 0.35192789E+00</totfact>
</mgrwt>
</event>
<event>
 4    1  0.1701380E-008  0.7330690E+03  0.7818608E-02  0.9662293E-01
          2   -1    0    0  501    0  0.00000000000E+00  0.00000000000E+00  0.31972904456E+04  0.31972904456E+04  0.25500000000E-02 0. -1.
         -2   -1    0    0    0  501 -0.00000000000E+00 -0.00000000000E+00 -0.38934549251E+03  0.38934549252E+03  0.25500000000E-02 0.  1.
    8880022    1    1    2    0    0  0.67249869956E+03  0.24848354755E+03  0.52056358159E+02  0.73491502349E+03  0.15294330000E+03 0.  0.
    8880022    1    1    2    0    0 -0.67249869956E+03 -0.24848354755E+03  0.27558885949E+04  0.28517209146E+04  0.15294330000E+03 0. -1.
<mgrwt>
<rscale>  0 0.73306905E+03</rscale>
<asrwt>0</asrwt>
<pdfrwt beam="1">  1        2 0.49189082E+00 0.73306905E+03</pdfrwt>
<pdfrwt beam="2">  1       -2 0.59899309E-01 0.73306905E+03</pdfrwt>
<totfact> 0.36470220E+00</totfact>
</mgrwt>
</event>
<event>
 4    1  0.1701380E-008  0.4690521E+03  0.7818608E-02  0.1022188E+00
         -2   -1    0    0    0  501 -0.00000000000E+00  0.00000000000E+00  0.80409744587E+03  0.80409744587E+03  0.25500000000E-02 0.  1.
          2   -1    0    0  501    0  0.00000000000E+00 -0.00000000000E+00 -0.91510522502E+03  0.91510522502E+03  0.25500000000E-02 0. -1.
    8880022    1    1    2    0    0  0.64295162347E+02  0.43873041020E+03  0.66420678614E+03  0.81313009323E+03  0.15294330000E+03 0.  0.
    8880022    1    1    2    0    0 -0.64295162347E+02 -0.43873041020E+03 -0.77521456530E+03  0.90607257767E+03  0.15294330000E+03 0.  0.
<mgrwt>
<rscale>  0 0.46905212E+03</rscale>
<asrwt>0</asrwt>
<pdfrwt beam="1">  1        2 0.14078542E+00 0.46905212E+03</pdfrwt>
<pdfrwt beam="2">  1       -2 0.12370730E+00 0.46905212E+03</pdfrwt>
<totfact> 0.14882346E+01</totfact>
</mgrwt>
</event>
<event>
 4    1  0.1701380E-008  0.9314718E+03  0.7818608E-02  0.9387073E-01
         -2   -1    0    0    0  501 -0.00000000000E+00  0.00000000000E+00  0.56290867134E+03  0.56290867135E+03  0.25500000000E-02 0.  1.
          2   -1    0    0  501    0  0.00000000000E+00 -0.00000000000E+00 -0.24752386583E+04  0.24752386583E+04  0.25500000000E-02 0. -1.
    8880022    1    1    2    0    0 -0.38990888904E+02  0.91800205274E+03 -0.23087599446E+02  0.93175788084E+03  0.15294330000E+03 0.  0.
    8880022    1    1    2    0    0  0.38990888904E+02 -0.91800205274E+03 -0.18892423875E+04  0.21063894488E+04  0.15294330000E+03 0.  0.
<mgrwt>
<rscale>  0 0.93147180E+03</rscale>
<asrwt>0</asrwt>
<pdfrwt beam="1">  1        2 0.38080594E+00 0.93147180E+03</pdfrwt>
<pdfrwt beam="2">  1       -2 0.86601336E-01 0.93147180E+03</pdfrwt>
<totfact> 0.42329553E+00</totfact>
</mgrwt>
</event>
<event>
 4    1  0.1701380E-008  0.1000386E+04  0.7818608E-02  0.9308121E-01
         -2   -1    0    0    0  501 -0.00000000000E+00  0.00000000000E+00  0.21195944316E+04  0.21195944316E+04  0.25500000000E-02 0.  1.
          2   -1    0    0  501    0  0.00000000000E+00 -0.00000000000E+00 -0.64991552203E+03  0.64991552203E+03  0.25500000000E-02 0. -1.
    8880022    1    1    2    0    0  0.99556613838E+02  0.98360010828E+03  0.10628843755E+02  0.10004425609E+04  0.15294330000E+03 0.  0.
    8880022    1    1    2    0    0 -0.99556613838E+02 -0.98360010828E+03  0.14590500658E+04  0.17690673927E+04  0.15294330000E+03 0.  0.
<mgrwt>
<rscale>  0 0.10003861E+04</rscale>
<asrwt>0</asrwt>
<pdfrwt beam="1">  1        2 0.99987004E-01 0.10003861E+04</pdfrwt>
<pdfrwt beam="2">  1       -2 0.32609145E+00 0.10003861E+04</pdfrwt>
<totfact> 0.99661920E-01</totfact>
</mgrwt>
</event>
<event>
 4    1  0.1701380E-008  0.2605140E+03  0.7818608E-02  0.1106835E+00
         -2   -1    0    0    0  501 -0.00000000000E+00  0.00000000000E+00  0.17875632637E+03  0.17875632639E+03  0.25500000000E-02 0.  1.
          2   -1    0    0  501    0  0.00000000000E+00 -0.00000000000E+00 -0.15208224296E+04  0.15208224296E+04  0.25500000000E-02 0. -1.
    8880022    1    1    2    0    0 -0.14216978043E+03 -0.15576797244E+03  0.65080447726E+02  0.26852006517E+03  0.15294330000E+03 0.  0.
    8880022    1    1    2    0    0  0.14216978043E+03  0.15576797244E+03 -0.14071465509E+04  0.14310586908E+04  0.15294330000E+03 0.  0.
<mgrwt>
<rscale>  0 0.26051403E+03</rscale>
<asrwt>0</asrwt>
<pdfrwt beam="1">  1        2 0.23397267E+00 0.26051403E+03</pdfrwt>
<pdfrwt beam="2">  1       -2 0.27500974E-01 0.26051403E+03</pdfrwt>
<totfact> 0.16128510E+02</totfact>
</mgrwt>
</event>
<event>
 4    1  0.1701380E-008  0.6925432E+03  0.7818608E-02  0.9730070E-01
         -2   -1    0    0    0  501 -0.00000000000E+00  0.00000000000E+00  0.30719194438E+03  0.30719194439E+03  0.25500000000E-02 0.  1.
          2   -1    0    0  501    0  0.00000000000E+00 -0.00000000000E+00 -0.27058254671E+04  0.27058254671E+04  0.25500000000E-02 0. -1.
    8880022    1    1    2    0    0 -0.51198508477E+03  0.44056288480E+03 -0.21951958670E+03  0.72650181311E+03  0.15294330000E+03 0.  0.
    8880022    1    1    2    0    0  0.51198508477E+03 -0.44056288480E+03 -0.21791139361E+04  0.22865155984E+04  0.15294330000E+03 0.  0.
<mgrwt>
<rscale>  0 0.69254317E+03</rscale>
<asrwt>0</asrwt>
<pdfrwt beam="1">  1        2 0.41628083E+00 0.69254317E+03</pdfrwt>
<pdfrwt beam="2">  1       -2 0.47260301E-01 0.69254317E+03</pdfrwt>
<totfact> 0.11899305E+01</totfact>
</mgrwt>
</event>
<event>
 4    1  0.1701380E-008  0.7046071E+03  0.7818608E-02  0.9709386E-01
          2   -1    0    0  501    0  0.00000000000E+00  0.00000000000E+00  0.16078950102E+04  0.16078950102E+04  0.25500000000E-02 0. -1.
         -2   -1    0    0    0  501 -0.00000000000E+00 -0.00000000000E+00 -0.59339508468E+03  0.59339508469E+03  0.25500000000E-02 0.  1.
    8880022    1    1    2    0    0 -0.49092730890E+03 -0.48173634435E+03  0.12695241528E+04  0.14519513613E+04  0.15294330000E+03 0.  0.
    8880022    1    1    2    0    0  0.49092730890E+03  0.48173634435E+03 -0.25502422729E+03  0.74933873356E+03  0.15294330000E+03 0.  0.
<mgrwt>
<rscale>  0 0.70460711E+03</rscale>
<asrwt>0</asrwt>
<pdfrwt beam="1">  1        2 0.24736846E+00 0.70460711E+03</pdfrwt>
<pdfrwt beam="2">  1       -2 0.91291552E-01 0.70460711E+03</pdfrwt>
<totfact> 0.11662264E+01</totfact>
</mgrwt>
</event>
<event>
 4    1  0.1701380E-008  0.3427453E+03  0.7818608E-02  0.1065633E+00
          2   -1    0    0  501    0  0.00000000000E+00  0.00000000000E+00  0.16033253590E+04  0.16033253590E+04  0.25500000000E-02 0. -1.
         -2   -1    0    0    0  501 -0.00000000000E+00 -0.00000000000E+00 -0.13763119273E+04  0.13763119273E+04  0.25500000000E-02 0.  1.
    8880022    1    1    2    0    0  0.23255834592E+01  0.30672022396E+03  0.15631271328E+04  0.16002627254E+04  0.15294330000E+03 0.  0.
    8880022    1    1    2    0    0 -0.23255834592E+01 -0.30672022396E+03 -0.13361137010E+04  0.13793745609E+04  0.15294330000E+03 0.  0.
<mgrwt>
<rscale>  0 0.34274532E+03</rscale>
<asrwt>0</asrwt>
<pdfrwt beam="1">  1        2 0.24666544E+00 0.34274532E+03</pdfrwt>
<pdfrwt beam="2">  1       -2 0.21174030E+00 0.34274532E+03</pdfrwt>
<totfact> 0.14396531E+00</totfact>
</mgrwt>
</event>
<event>
 4    1  0.1701380E-008  0.1124661E+04  0.7818608E-02  0.9181483E-01
         -2   -1    0    0    0  501 -0.00000000000E+00  0.00000000000E+00  0.52807941540E+03  0.52807941540E+03  0.25500000000E-02 0.  1.
          2   -1    0    0  501    0  0.00000000000E+00 -0.00000000000E+00 -0.28248130244E+04  0.28248130244E+04  0.25500000000E-02 0. -1.
    8880022    1    1    2    0    0  0.98690319285E+03 -0.51719730776E+03 -0.49459380709E+03  0.12286112706E+04  0.15294330000E+03 0.  0.
    8880022    1    1    2    0    0 -0.98690319285E+03  0.51719730776E+03 -0.18021398019E+04  0.21242811692E+04  0.15294330000E+03 0.  0.
<mgrwt>
<rscale>  0 0.11246611E+04</rscale>
<asrwt>0</asrwt>
<pdfrwt beam="1">  1        2 0.43458661E+00 0.11246611E+04</pdfrwt>
<pdfrwt beam="2">  1       -2 0.81242989E-01 0.11246611E+04</pdfrwt>
<totfact> 0.29814401E+00</totfact>
</mgrwt>
</event>
<event>
 4    1  0.1701380E-008  0.9785068E+03  0.7818608E-02  0.9332437E-01
          2   -1    0    0  501    0  0.00000000000E+00  0.00000000000E+00  0.63797426604E+03  0.63797426604E+03  0.25500000000E-02 0. -1.
         -2   -1    0    0    0  501 -0.00000000000E+00 -0.00000000000E+00 -0.24058434935E+04  0.24058434935E+04  0.25500000000E-02 0.  1.
    8880022    1    1    2    0    0 -0.85568984296E+03  0.44930925229E+03  0.49509381799E+02  0.97975851282E+03  0.15294330000E+03 0.  0.
    8880022    1    1    2    0    0  0.85568984296E+03 -0.44930925229E+03 -0.18173786093E+04  0.20640592467E+04  0.15294330000E+03 0.  1.
<mgrwt>
<rscale>  0 0.97850680E+03</rscale>
<asrwt>0</asrwt>
<pdfrwt beam="1">  1        2 0.98149888E-01 0.97850680E+03</pdfrwt>
<pdfrwt beam="2">  1       -2 0.37012976E+00 0.97850680E+03</pdfrwt>
<totfact> 0.54336020E-01</totfact>
</mgrwt>
</event>
<event>
 4    1  0.1701380E-008  0.6050732E+03  0.7818608E-02  0.9894936E-01
         -2   -1    0    0    0  501 -0.00000000000E+00  0.00000000000E+00  0.76809786769E+03  0.76809786769E+03  0.25500000000E-02 0.  1.
          2   -1    0    0  501    0  0.00000000000E+00 -0.00000000000E+00 -0.20258093123E+04  0.20258093123E+04  0.25500000000E-02 0. -1.
    8880022    1    1    2    0    0 -0.88953706483E+02 -0.57862698714E+03 -0.18504606670E+04  0.19468739777E+04  0.15294330000E+03 0.  0.
    8880022    1    1    2    0    0  0.88953706483E+02  0.57862698714E+03  0.59274922235E+03  0.84703320227E+03  0.15294330000E+03 0.  0.
<mgrwt>
<rscale>  0 0.60507322E+03</rscale>
<asrwt>0</asrwt>
<pdfrwt beam="1">  1        2 0.31166297E+00 0.60507322E+03</pdfrwt>
<pdfrwt beam="2">  1       -2 0.11816890E+00 0.60507322E+03</pdfrwt>
<totfact> 0.38023462E+00</totfact>
</mgrwt>
</event>
<event>
 4    1  0.1701380E-008  0.7079623E+03  0.7818608E-02  0.9703712E-01
          2   -1    0    0  501    0  0.00000000000E+00  0.00000000000E+00  0.15120339097E+04  0.15120339097E+04  0.25500000000E-02 0. -1.
         -2   -1    0    0    0  501 -0.00000000000E+00 -0.00000000000E+00 -0.96945201396E+03  0.96945201397E+03  0.25500000000E-02 0.  1.
    8880022    1    1    2    0    0  0.42008910724E+03  0.54894823364E+03  0.12778032765E+04  0.14608189099E+04  0.15294330000E+03 0. -1.
    8880022    1    1    2    0    0 -0.42008910724E+03 -0.54894823364E+03 -0.73522138073E+03  0.10206670137E+04  0.15294330000E+03 0.  0.
<mgrwt>
<rscale>  0 0.70796234E+03</rscale>
<asrwt>0</asrwt>
<pdfrwt beam="1">  1        2 0.23262060E+00 0.70796234E+03</pdfrwt>
<pdfrwt beam="2">  1       -2 0.14914646E+00 0.70796234E+03</pdfrwt>
<totfact> 0.39296731E+00</totfact>
</mgrwt>
</event>
<event>
 4    1  0.1701380E-008  0.1588013E+04  0.7818608E-02  0.8827946E-01
         -2   -1    0    0    0  501 -0.00000000000E+00  0.00000000000E+00  0.22382192795E+04  0.22382192795E+04  0.25500000000E-02 0.  1.
          2   -1    0    0  501    0  0.00000000000E+00 -0.00000000000E+00 -0.14583906360E+04  0.14583906360E+04  0.25500000000E-02 0. -1.
    8880022    1    1    2    0    0  0.13964735638E+04 -0.74044361372E+03 -0.49155589698E+03  0.16623519520E+04  0.15294330000E+03 0.  0.
    8880022    1    1    2    0    0 -0.13964735638E+04  0.74044361372E+03  0.12713845405E+04  0.20342579636E+04  0.15294330000E+03 0.  0.
<mgrwt>
<rscale>  0 0.15880135E+04</rscale>
<asrwt>0</asrwt>
<pdfrwt beam="1">  1        2 0.22436779E+00 0.15880135E+04</pdfrwt>
<pdfrwt beam="2">  1       -2 0.34434143E+00 0.15880135E+04</pdfrwt>
<totfact> 0.21124090E-01</totfact>
</mgrwt>
</event>
<event>
 4    1  0.1701380E-008  0.7965970E+03  0.7818608E-02  0.9564956E-01
         -2   -1    0    0    0  501 -0.00000000000E+00  0.00000000000E+00  0.84923400094E+03  0.84923400095E+03  0.25500000000E-02 0.  1.
          2   -1    0    0  501    0  0.00000000000E+00 -0.00000000000E+00 -0.10026275482E+04  0.10026275482E+04  0.25500000000E-02 0. -1.
    8880022    1    1    2    0    0 -0.56114777563E+03  0.54432378221E+03  0.39063287514E+03  0.88722088689E+03  0.15294330000E+03 0.  0.
    8880022    1    1    2    0    0  0.56114777563E+03 -0.54432378221E+03 -0.54402642235E+03  0.96464066222E+03  0.15294330000E+03 0.  0.
<mgrwt>
<rscale>  0 0.79659705E+03</rscale>
<asrwt>0</asrwt>
<pdfrwt beam="1">  1        2 0.15425039E+00 0.79659705E+03</pdfrwt>
<pdfrwt beam="2">  1       -2 0.13065139E+00 0.79659705E+03</pdfrwt>
<totfact> 0.10888772E+01</totfact>
</mgrwt>
</event>
<event>
 4    1  0.1701380E-008  0.6279729E+03  0.7818608E-02  0.9849013E-01
         -2   -1    0    0    0  501 -0.00000000000E+00  0.00000000000E+00  0.24593281135E+03  0.24593281137E+03  0.25500000000E-02 0.  1.
          2   -1    0    0  501    0  0.00000000000E+00 -0.00000000000E+00 -0.20414197536E+04  0.20414197536E+04  0.25500000000E-02 0. -1.
    8880022    1    1    2    0    0 -0.39166151350E+03 -0.46643278213E+03 -0.14274568445E+04  0.15594816374E+04  0.15294330000E+03 0.  0.
    8880022    1    1    2    0    0  0.39166151350E+03  0.46643278213E+03 -0.36803009779E+03  0.72787092763E+03  0.15294330000E+03 0.  0.
<mgrwt>
<rscale>  0 0.62797288E+03</rscale>
<asrwt>0</asrwt>
<pdfrwt beam="1">  1        2 0.31406457E+00 0.62797288E+03</pdfrwt>
<pdfrwt beam="2">  1       -2 0.37835818E-01 0.62797288E+03</pdfrwt>
<totfact> 0.43800778E+01</totfact>
</mgrwt>
</event>
<event>
 4    1  0.1701380E-008  0.6106095E+03  0.7818608E-02  0.9883636E-01
          2   -1    0    0  501    0  0.00000000000E+00  0.00000000000E+00  0.14402188273E+04  0.14402188273E+04  0.25500000000E-02 0. -1.
         -2   -1    0    0    0  501 -0.00000000000E+00 -0.00000000000E+00 -0.39592428825E+03  0.39592428826E+03  0.25500000000E-02 0.  1.
    8880022    1    1    2    0    0 -0.53095451966E+03 -0.25988394174E+03  0.10622803115E+04  0.12252687372E+04  0.15294330000E+03 0.  0.
    8880022    1    1    2    0    0  0.53095451966E+03  0.25988394174E+03 -0.17985772459E+02  0.61087437837E+03  0.15294330000E+03 0.  0.
<mgrwt>
<rscale>  0 0.61060955E+03</rscale>
<asrwt>0</asrwt>
<pdfrwt beam="1">  1        2 0.22157213E+00 0.61060955E+03</pdfrwt>
<pdfrwt beam="2">  1       -2 0.60911429E-01 0.61060955E+03</pdfrwt>
<totfact> 0.35783153E+01</totfact>
</mgrwt>
</event>
<event>
 4    1  0.1701380E-008  0.4456366E+03  0.7818608E-02  0.1029031E+00
          2   -1    0    0  501    0  0.00000000000E+00  0.00000000000E+00  0.62128449230E+03  0.62128449231E+03  0.25500000000E-02 0. -1.
         -2   -1    0    0    0  501 -0.00000000000E+00 -0.00000000000E+00 -0.11083399404E+04  0.11083399404E+04  0.25500000000E-02 0.  1.
    8880022    1    1    2    0    0 -0.39783038482E+03 -0.13012024584E+03 -0.97305108265E+03  0.10702431293E+04  0.15294330000E+03 0.  0.
    8880022    1    1    2    0    0  0.39783038482E+03  0.13012024584E+03  0.48599563453E+03  0.65938130339E+03  0.15294330000E+03 0. -1.
<mgrwt>
<rscale>  0 0.44563656E+03</rscale>
<asrwt>0</asrwt>
<pdfrwt beam="1">  1        2 0.95582230E-01 0.44563656E+03</pdfrwt>
<pdfrwt beam="2">  1       -2 0.17051384E+00 0.44563656E+03</pdfrwt>
<totfact> 0.10650924E+01</totfact>
</mgrwt>
</event>
<event>
 4    1  0.1701380E-008  0.7172184E+03  0.7818608E-02  0.9688231E-01
         -2   -1    0    0    0  501 -0.00000000000E+00  0.00000000000E+00  0.19406744982E+04  0.19406744982E+04  0.25500000000E-02 0.  1.
          2   -1    0    0  501    0  0.00000000000E+00 -0.00000000000E+00 -0.34488479658E+03  0.34488479659E+03  0.25500000000E-02 0. -1.
    8880022    1    1    2    0    0 -0.42414009559E+03 -0.55777756069E+03  0.24812055353E+03  0.75892429794E+03  0.15294330000E+03 0.  0.
    8880022    1    1    2    0    0  0.42414009559E+03  0.55777756069E+03  0.13476691481E+04  0.15266349968E+04  0.15294330000E+03 0.  0.
<mgrwt>
<rscale>  0 0.71721843E+03</rscale>
<asrwt>0</asrwt>
<pdfrwt beam="1">  1        2 0.53059200E-01 0.71721843E+03</pdfrwt>
<pdfrwt beam="2">  1       -2 0.29856530E+00 0.71721843E+03</pdfrwt>
<totfact> 0.31830059E+00</totfact>
</mgrwt>
</event>
<event>
 4    1  0.1701380E-008  0.1095017E+04  0.7818608E-02  0.9210062E-01
          2   -1    0    0  501    0  0.00000000000E+00  0.00000000000E+00  0.18331112669E+04  0.18331112669E+04  0.25500000000E-02 0. -1.
         -2   -1    0    0    0  501 -0.00000000000E+00 -0.00000000000E+00 -0.87938548812E+03  0.87938548812E+03  0.25500000000E-02 0.  1.
    8880022    1    1    2    0    0 -0.10672940622E+04 -0.19119292873E+03 -0.20957790776E+03  0.11148927768E+04  0.15294330000E+03 0.  0.
    8880022    1    1    2    0    0  0.10672940622E+04  0.19119292873E+03  0.11633036865E+04  0.15976039783E+04  0.15294330000E+03 0.  0.
<mgrwt>
<rscale>  0 0.10950174E+04</rscale>
<asrwt>0</asrwt>
<pdfrwt beam="1">  1        2 0.28201712E+00 0.10950174E+04</pdfrwt>
<pdfrwt beam="2">  1       -2 0.13529008E+00 0.10950174E+04</pdfrwt>
<totfact> 0.31964257E+00</totfact>
</mgrwt>
</event>
<event>
 4    1  0.1701380E-008  0.5056141E+03  0.7818608E-02  0.1012324E+00
         -2   -1    0    0    0  501 -0.00000000000E+00  0.00000000000E+00  0.48143263452E+03  0.48143263453E+03  0.25500000000E-02 0.  1.
          2   -1    0    0  501    0  0.00000000000E+00 -0.00000000000E+00 -0.14605352387E+04  0.14605352387E+04  0.25500000000E-02 0. -1.
    8880022    1    1    2    0    0  0.27608629314E+03 -0.39500673600E+03 -0.12641675163E+04  0.13615304348E+04  0.15294330000E+03 0.  0.
    8880022    1    1    2    0    0 -0.27608629314E+03  0.39500673600E+03  0.28506491211E+03  0.58043743838E+03  0.15294330000E+03 0.  0.
<mgrwt>
<rscale>  0 0.50561410E+03</rscale>
<asrwt>0</asrwt>
<pdfrwt beam="1">  1        2 0.22469773E+00 0.50561410E+03</pdfrwt>
<pdfrwt beam="2">  1       -2 0.74066560E-01 0.50561410E+03</pdfrwt>
<totfact> 0.23255240E+01</totfact>
</mgrwt>
</event>
<event>
 4    1  0.1944621E-008  0.1386631E+04  0.7818608E-02  0.8963553E-01
          2   -1    0    0  501    0  0.00000000000E+00  0.00000000000E+00  0.16101221927E+04  0.16101221927E+04  0.25500000000E-02 0. -1.
         -2   -1    0    0    0  501 -0.00000000000E+00 -0.00000000000E+00 -0.18057409763E+04  0.18057409763E+04  0.25500000000E-02 0.  1.
    8880022    1    1    2    0    0  0.13297021724E+04  0.36227996860E+03 -0.10917698659E+04  0.17648534603E+04  0.15294330000E+03 0.  0.
    8880022    1    1    2    0    0 -0.13297021724E+04 -0.36227996860E+03  0.89615108227E+03  0.16510097087E+04  0.15294330000E+03 0.  0.
<mgrwt>
<rscale>  0 0.13866313E+04</rscale>
<asrwt>0</asrwt>
<pdfrwt beam="1">  1        2 0.24771111E+00 0.13866313E+04</pdfrwt>
<pdfrwt beam="2">  1       -2 0.27780630E+00 0.13866313E+04</pdfrwt>
<totfact> 0.45483516E-01</totfact>
</mgrwt>
</event>
<event>
 4    1  0.1701380E-008  0.8120016E+03  0.7818608E-02  0.9542806E-01
         -2   -1    0    0    0  501 -0.00000000000E+00  0.00000000000E+00  0.67936025857E+03  0.67936025858E+03  0.25500000000E-02 0.  1.
          2   -1    0    0  501    0  0.00000000000E+00 -0.00000000000E+00 -0.23197185378E+04  0.23197185378E+04  0.25500000000E-02 0. -1.
    8880022    1    1    2    0    0  0.15244087438E+03 -0.78276222098E+03  0.32342280178E+03  0.87404169037E+03  0.15294330000E+03 0.  0.
    8880022    1    1    2    0    0 -0.15244087438E+03  0.78276222098E+03 -0.19637810810E+04  0.21250371060E+04  0.15294330000E+03 0.  0.
<mgrwt>
<rscale>  0 0.81200158E+03</rscale>
<asrwt>0</asrwt>
<pdfrwt beam="1">  1        2 0.35687977E+00 0.81200158E+03</pdfrwt>
<pdfrwt beam="2">  1       -2 0.10451696E+00 0.81200158E+03</pdfrwt>
<totfact> 0.33945107E+00</totfact>
</mgrwt>
</event>
<event>
 4    1  0.1701380E-008  0.1085098E+04  0.7818608E-02  0.9219839E-01
          2   -1    0    0  501    0  0.00000000000E+00  0.00000000000E+00  0.12860191019E+04  0.12860191019E+04  0.25500000000E-02 0. -1.
         -2   -1    0    0    0  501 -0.00000000000E+00 -0.00000000000E+00 -0.11255639889E+04  0.11255639889E+04  0.25500000000E-02 0.  1.
    8880022    1    1    2    0    0  0.10066487917E+04 -0.37510576328E+03 -0.44059857773E+03  0.11711382853E+04  0.15294330000E+03 0.  0.
    8880022    1    1    2    0    0 -0.10066487917E+04  0.37510576328E+03  0.60105369069E+03  0.12404448056E+04  0.15294330000E+03 0.  0.
<mgrwt>
<rscale>  0 0.10850980E+04</rscale>
<asrwt>0</asrwt>
<pdfrwt beam="1">  1        2 0.19784909E+00 0.10850980E+04</pdfrwt>
<pdfrwt beam="2">  1       -2 0.17316369E+00 0.10850980E+04</pdfrwt>
<totfact> 0.33496664E+00</totfact>
</mgrwt>
</event>
<event>
 4    1  0.1701380E-008  0.4878885E+03  0.7818608E-02  0.1016989E+00
         -2   -1    0    0    0  501 -0.00000000000E+00  0.00000000000E+00  0.12169206794E+04  0.12169206794E+04  0.25500000000E-02 0.  1.
          2   -1    0    0  501    0  0.00000000000E+00 -0.00000000000E+00 -0.15461644604E+04  0.15461644604E+04  0.25500000000E-02 0. -1.
    8880022    1    1    2    0    0 -0.42639299019E+03 -0.18119763692E+03  0.11265776289E+04  0.12276857793E+04  0.15294330000E+03 0.  0.
    8880022    1    1    2    0    0  0.42639299019E+03  0.18119763692E+03 -0.14558214099E+04  0.15353993605E+04  0.15294330000E+03 0.  0.
<mgrwt>
<rscale>  0 0.48788853E+03</rscale>
<asrwt>0</asrwt>
<pdfrwt beam="1">  1        2 0.23787145E+00 0.48788853E+03</pdfrwt>
<pdfrwt beam="2">  1       -2 0.18721857E+00 0.48788853E+03</pdfrwt>
<totfact> 0.21132898E+00</totfact>
</mgrwt>
</event>
<event>
 4    1  0.1701380E-008  0.5228611E+03  0.7818608E-02  0.1007978E+00
          2   -1    0    0  501    0  0.00000000000E+00  0.00000000000E+00  0.28908003210E+04  0.28908003210E+04  0.25500000000E-02 0. -1.
         -2   -1    0    0    0  501 -0.00000000000E+00 -0.00000000000E+00 -0.48340538315E+03  0.48340538315E+03  0.25500000000E-02 0.  1.
    8880022    1    1    2    0    0  0.12819215120E+03 -0.48327931382E+03 -0.30940574890E+03  0.60754892253E+03  0.15294330000E+03 0.  0.
    8880022    1    1    2    0    0 -0.12819215120E+03  0.48327931382E+03  0.27168006867E+04  0.27666567816E+04  0.15294330000E+03 0.  0.
<mgrwt>
<rscale>  0 0.52286114E+03</rscale>
<asrwt>0</asrwt>
<pdfrwt beam="1">  1        2 0.44473851E+00 0.52286114E+03</pdfrwt>
<pdfrwt beam="2">  1       -2 0.74370059E-01 0.52286114E+03</pdfrwt>
<totfact> 0.37154541E+00</totfact>
</mgrwt>
</event>
<event>
 4    1  0.1701380E-008  0.1187450E+04  0.7818608E-02  0.9123913E-01
         -2   -1    0    0    0  501 -0.00000000000E+00  0.00000000000E+00  0.17006914006E+04  0.17006914006E+04  0.25500000000E-02 0.  1.
          2   -1    0    0  501    0  0.00000000000E+00 -0.00000000000E+00 -0.14192766410E+04  0.14192766410E+04  0.25500000000E-02 0. -1.
    8880022    1    1    2    0    0 -0.10336486738E+04 -0.56410615563E+03 -0.86524861471E+03  0.14692488400E+04  0.15294330000E+03 0.  0.
    8880022    1    1    2    0    0  0.10336486738E+04  0.56410615563E+03  0.11466633743E+04  0.16507192016E+04  0.15294330000E+03 0.  0.
<mgrwt>
<rscale>  0 0.11874498E+04</rscale>
<asrwt>0</asrwt>
<pdfrwt beam="1">  1        2 0.21835025E+00 0.11874498E+04</pdfrwt>
<pdfrwt beam="2">  1       -2 0.26164483E+00 0.11874498E+04</pdfrwt>
<totfact> 0.74915855E-01</totfact>
</mgrwt>
</event>
<event>
 4    1  0.1701380E-008  0.1114196E+04  0.7818608E-02  0.9191465E-01
         -2   -1    0    0    0  501 -0.00000000000E+00  0.00000000000E+00  0.16774524809E+04  0.16774524809E+04  0.25500000000E-02 0.  1.
          2   -1    0    0  501    0  0.00000000000E+00 -0.00000000000E+00 -0.17675743136E+04  0.17675743136E+04  0.25500000000E-02 0. -1.
    8880022    1    1    2    0    0  0.69693351195E+03 -0.85575911762E+03  0.12682443088E+04  0.16881573585E+04  0.15294330000E+03 0.  0.
    8880022    1    1    2    0    0 -0.69693351195E+03  0.85575911762E+03 -0.13583661415E+04  0.17568694359E+04  0.15294330000E+03 0.  0.
<mgrwt>
<rscale>  0 0.11141955E+04</rscale>
<asrwt>0</asrwt>
<pdfrwt beam="1">  1        2 0.27193451E+00 0.11141955E+04</pdfrwt>
<pdfrwt beam="2">  1       -2 0.25806961E+00 0.11141955E+04</pdfrwt>
<totfact> 0.50749980E-01</totfact>
</mgrwt>
</event>
<event>
 4    1  0.1701380E-008  0.1205584E+04  0.7818608E-02  0.9107983E-01
          2   -1    0    0  501    0  0.00000000000E+00  0.00000000000E+00  0.28172624251E+04  0.28172624251E+04  0.25500000000E-02 0. -1.
         -2   -1    0    0    0  501 -0.00000000000E+00 -0.00000000000E+00 -0.10426084860E+04  0.10426084861E+04  0.25500000000E-02 0.  1.
    8880022    1    1    2    0    0  0.10479346958E+04 -0.57608471751E+03  0.22590496988E+04  0.25606128023E+04  0.15294330000E+03 0.  0.
    8880022    1    1    2    0    0 -0.10479346958E+04  0.57608471751E+03 -0.48439575972E+03  0.12992581089E+04  0.15294330000E+03 0.  1.
<mgrwt>
<rscale>  0 0.12055838E+04</rscale>
<asrwt>0</asrwt>
<pdfrwt beam="1">  1        2 0.43342499E+00 0.12055838E+04</pdfrwt>
<pdfrwt beam="2">  1       -2 0.16040131E+00 0.12055838E+04</pdfrwt>
<totfact> 0.55371424E-01</totfact>
</mgrwt>
</event>
<event>
 4    1  0.1701380E-008  0.4528283E+03  0.7818608E-02  0.1026882E+00
          2   -1    0    0  501    0  0.00000000000E+00  0.00000000000E+00  0.99762723455E+03  0.99762723455E+03  0.25500000000E-02 0. -1.
         -2   -1    0    0    0  501 -0.00000000000E+00 -0.00000000000E+00 -0.75460862147E+03  0.75460862147E+03  0.25500000000E-02 0.  1.
    8880022    1    1    2    0    0  0.23295385605E+02  0.42558096739E+03  0.86884294077E+03  0.97976606572E+03  0.15294330000E+03 0. -1.
    8880022    1    1    2    0    0 -0.23295385605E+02 -0.42558096739E+03 -0.62582432768E+03  0.77246979031E+03  0.15294330000E+03 0.  0.
<mgrwt>
<rscale>  0 0.45282832E+03</rscale>
<asrwt>0</asrwt>
<pdfrwt beam="1">  1        2 0.15348111E+00 0.45282832E+03</pdfrwt>
<pdfrwt beam="2">  1       -2 0.11609363E+00 0.45282832E+03</pdfrwt>
<totfact> 0.15445339E+01</totfact>
</mgrwt>
</event>
<event>
 4    1  0.1701380E-008  0.7526876E+03  0.7818608E-02  0.9631143E-01
         -2   -1    0    0    0  501 -0.00000000000E+00  0.00000000000E+00  0.21658593404E+04  0.21658593404E+04  0.25500000000E-02 0.  1.
          2   -1    0    0  501    0  0.00000000000E+00 -0.00000000000E+00 -0.64497241343E+03  0.64497241344E+03  0.25500000000E-02 0. -1.
    8880022    1    1    2    0    0  0.73697578480E+03  0.37002551558E+01  0.18440156033E+04  0.19917158928E+04  0.15294330000E+03 0.  0.
    8880022    1    1    2    0    0 -0.73697578480E+03 -0.37002551558E+01 -0.32312867638E+03  0.81911586103E+03  0.15294330000E+03 0.  0.
<mgrwt>
<rscale>  0 0.75268762E+03</rscale>
<asrwt>0</asrwt>
<pdfrwt beam="1">  1        2 0.99226525E-01 0.75268762E+03</pdfrwt>
<pdfrwt beam="2">  1       -2 0.33320913E+00 0.75268762E+03</pdfrwt>
<totfact> 0.94558486E-01</totfact>
</mgrwt>
</event>
<event>
 4    1  0.1701380E-008  0.3879931E+03  0.7818608E-02  0.1048018E+00
         -2   -1    0    0    0  501 -0.00000000000E+00  0.00000000000E+00  0.65446754525E+03  0.65446754525E+03  0.25500000000E-02 0.  1.
          2   -1    0    0  501    0  0.00000000000E+00 -0.00000000000E+00 -0.60639138676E+03  0.60639138676E+03  0.25500000000E-02 0. -1.
    8880022    1    1    2    0    0  0.32208501181E+03 -0.15299743678E+03 -0.47263435343E+03  0.61149150080E+03  0.15294330000E+03 0.  0.
    8880022    1    1    2    0    0 -0.32208501181E+03  0.15299743678E+03  0.52071051191E+03  0.64936743122E+03  0.15294330000E+03 0.  1.
<mgrwt>
<rscale>  0 0.38799307E+03</rscale>
<asrwt>0</asrwt>
<pdfrwt beam="1">  1        2 0.93290982E-01 0.38799307E+03</pdfrwt>
<pdfrwt beam="2">  1       -2 0.10068732E+00 0.38799307E+03</pdfrwt>
<totfact> 0.41806281E+01</totfact>
</mgrwt>
</event>
<event>
 4    1  0.1701380E-008  0.8642804E+03  0.7818608E-02  0.9471368E-01
         -2   -1    0    0    0  501 -0.00000000000E+00  0.00000000000E+00  0.11854545149E+04  0.11854545150E+04  0.25500000000E-02 0.  1.
          2   -1    0    0  501    0  0.00000000000E+00 -0.00000000000E+00 -0.18974962381E+04  0.18974962381E+04  0.25500000000E-02 0. -1.
    8880022    1    1    2    0    0 -0.83132237620E+03 -0.18025574362E+03  0.90377045176E+03  0.12505125784E+04  0.15294330000E+03 0.  0.
    8880022    1    1    2    0    0  0.83132237620E+03  0.18025574362E+03 -0.16158121749E+04  0.18324381747E+04  0.15294330000E+03 0.  0.
<mgrwt>
<rscale>  0 0.86428044E+03</rscale>
<asrwt>0</asrwt>
<pdfrwt beam="1">  1        2 0.29192250E+00 0.86428044E+03</pdfrwt>
<pdfrwt beam="2">  1       -2 0.18237762E+00 0.86428044E+03</pdfrwt>
<totfact> 0.13535386E+00</totfact>
</mgrwt>
</event>
<event>
 4    1  0.1701380E-008  0.1273083E+04  0.7818608E-02  0.9051187E-01
          2   -1    0    0  501    0  0.00000000000E+00  0.00000000000E+00  0.21605603490E+04  0.21605603490E+04  0.25500000000E-02 0. -1.
         -2   -1    0    0    0  501 -0.00000000000E+00 -0.00000000000E+00 -0.21345402067E+04  0.21345402067E+04  0.25500000000E-02 0.  1.
    8880022    1    1    2    0    0 -0.62214320068E+02  0.12623306776E+04 -0.17164903472E+04  0.21370727939E+04  0.15294330000E+03 0.  0.
    8880022    1    1    2    0    0  0.62214320068E+02 -0.12623306776E+04  0.17425104896E+04  0.21580277618E+04  0.15294330000E+03 0.  0.
<mgrwt>
<rscale>  0 0.12730833E+04</rscale>
<asrwt>0</asrwt>
<pdfrwt beam="1">  1        2 0.33239390E+00 0.12730833E+04</pdfrwt>
<pdfrwt beam="2">  1       -2 0.32839080E+00 0.12730833E+04</pdfrwt>
<totfact> 0.11187781E-01</totfact>
</mgrwt>
</event>
<event>
 4    1  0.1701380E-008  0.5182066E+03  0.7818608E-02  0.1009133E+00
         -2   -1    0    0    0  501 -0.00000000000E+00  0.00000000000E+00  0.17947676435E+03  0.17947676437E+03  0.25500000000E-02 0.  1.
          2   -1    0    0  501    0  0.00000000000E+00 -0.00000000000E+00 -0.24641370342E+04  0.24641370342E+04  0.25500000000E-02 0. -1.
    8880022    1    1    2    0    0  0.63310517445E+02 -0.49105825492E+03 -0.31390559943E+03  0.60586699012E+03  0.15294330000E+03 0.  0.
    8880022    1    1    2    0    0 -0.63310517445E+02  0.49105825492E+03 -0.19707546704E+04  0.20377468084E+04  0.15294330000E+03 0.  0.
<mgrwt>
<rscale>  0 0.51820660E+03</rscale>
<asrwt>0</asrwt>
<pdfrwt beam="1">  1        2 0.37909798E+00 0.51820660E+03</pdfrwt>
<pdfrwt beam="2">  1       -2 0.27611812E-01 0.51820660E+03</pdfrwt>
<totfact> 0.47151290E+01</totfact>
</mgrwt>
</event>
<event>
 4    1  0.1701380E-008  0.1122692E+04  0.7818608E-02  0.9183353E-01
          2   -1    0    0  501    0  0.00000000000E+00  0.00000000000E+00  0.15930748072E+04  0.15930748072E+04  0.25500000000E-02 0. -1.
         -2   -1    0    0    0  501 -0.00000000000E+00 -0.00000000000E+00 -0.14843847447E+04  0.14843847447E+04  0.25500000000E-02 0.  1.
    8880022    1    1    2    0    0 -0.71390630750E+03 -0.85286759954E+03  0.11058573319E+04  0.15758672056E+04  0.15294330000E+03 0.  0.
    8880022    1    1    2    0    0  0.71390630750E+03  0.85286759954E+03 -0.99716726946E+03  0.15015923463E+04  0.15294330000E+03 0.  0.
<mgrwt>
<rscale>  0 0.11226919E+04</rscale>
<asrwt>0</asrwt>
<pdfrwt beam="1">  1        2 0.24508843E+00 0.11226919E+04</pdfrwt>
<pdfrwt beam="2">  1       -2 0.22836688E+00 0.11226919E+04</pdfrwt>
<totfact> 0.96524379E-01</totfact>
</mgrwt>
</event>
<event>
 4    1  0.1701380E-008  0.1411801E+04  0.7818608E-02  0.8945321E-01
          2   -1    0    0  501    0  0.00000000000E+00  0.00000000000E+00  0.13544546163E+04  0.13544546163E+04  0.25500000000E-02 0. -1.
         -2   -1    0    0    0  501 -0.00000000000E+00 -0.00000000000E+00 -0.18793349148E+04  0.18793349148E+04  0.25500000000E-02 0.  1.
    8880022    1    1    2    0    0  0.27265746083E+03 -0.13767524000E+04  0.49071106264E+03  0.14946498794E+04  0.15294330000E+03 0.  0.
    8880022    1    1    2    0    0 -0.27265746083E+03  0.13767524000E+04 -0.10155913611E+04  0.17391396516E+04  0.15294330000E+03 0.  0.
<mgrwt>
<rscale>  0 0.14118006E+04</rscale>
<asrwt>0</asrwt>
<pdfrwt beam="1">  1        2 0.20837763E+00 0.14118006E+04</pdfrwt>
<pdfrwt beam="2">  1       -2 0.28912845E+00 0.14118006E+04</pdfrwt>
<totfact> 0.54145697E-01</totfact>
</mgrwt>
</event>
<event>
 4    1  0.1701380E-008  0.7051576E+03  0.7818608E-02  0.9708452E-01
         -2   -1    0    0    0  501 -0.00000000000E+00  0.00000000000E+00  0.10721985056E+04  0.10721985056E+04  0.25500000000E-02 0.  1.
          2   -1    0    0  501    0  0.00000000000E+00 -0.00000000000E+00 -0.12226419767E+04  0.12226419767E+04  0.25500000000E-02 0. -1.
    8880022    1    1    2    0    0 -0.60005024276E+03 -0.33733554027E+03  0.82875820078E+03  0.10881577868E+04  0.15294330000E+03 0.  0.
    8880022    1    1    2    0    0  0.60005024276E+03  0.33733554027E+03 -0.97920167186E+03  0.12066826956E+04  0.15294330000E+03 0.  0.
<mgrwt>
<rscale>  0 0.70515758E+03</rscale>
<asrwt>0</asrwt>
<pdfrwt beam="1">  1        2 0.18809877E+00 0.70515758E+03</pdfrwt>
<pdfrwt beam="2">  1       -2 0.16495362E+00 0.70515758E+03</pdfrwt>
<totfact> 0.43812587E+00</totfact>
</mgrwt>
</event>
<event>
 4    1  0.1701380E-008  0.1207033E+04  0.7818608E-02  0.9106723E-01
         -2   -1    0    0    0  501 -0.00000000000E+00  0.00000000000E+00  0.17627697884E+04  0.17627697884E+04  0.25500000000E-02 0.  1.
          2   -1    0    0  501    0  0.00000000000E+00 -0.00000000000E+00 -0.12025520183E+04  0.12025520183E+04  0.25500000000E-02 0. -1.
    8880022    1    1    2    0    0 -0.89489439886E+03  0.79542451029E+03  0.11092230478E+04  0.16392997162E+04  0.15294330000E+03 0.  0.
    8880022    1    1    2    0    0  0.89489439886E+03 -0.79542451029E+03 -0.54900527765E+03  0.13260220905E+04  0.15294330000E+03 0.  0.
<mgrwt>
<rscale>  0 0.12070326E+04</rscale>
<asrwt>0</asrwt>
<pdfrwt beam="1">  1        2 0.18500801E+00 0.12070326E+04</pdfrwt>
<pdfrwt beam="2">  1       -2 0.27119535E+00 0.12070326E+04</pdfrwt>
<totfact> 0.87554880E-01</totfact>
</mgrwt>
</event>
<event>
 4    1  0.1701380E-008  0.6503520E+03  0.7818608E-02  0.9806119E-01
          2   -1    0    0  501    0  0.00000000000E+00  0.00000000000E+00  0.19270157782E+04  0.19270157782E+04  0.25500000000E-02 0. -1.
         -2   -1    0    0    0  501 -0.00000000000E+00 -0.00000000000E+00 -0.28911957293E+03  0.28911957294E+03  0.25500000000E-02 0.  1.
    8880022    1    1    2    0    0 -0.28170189226E+03  0.56587110541E+03  0.27516060156E+03  0.70616646316E+03  0.15294330000E+03 0.  0.
    8880022    1    1    2    0    0  0.28170189226E+03 -0.56587110541E+03  0.13627356037E+04  0.15099688880E+04  0.15294330000E+03 0.  0.
<mgrwt>
<rscale>  0 0.65035199E+03</rscale>
<asrwt>0</asrwt>
<pdfrwt beam="1">  1        2 0.29646396E+00 0.65035199E+03</pdfrwt>
<pdfrwt beam="2">  1       -2 0.44479935E-01 0.65035199E+03</pdfrwt>
<totfact> 0.36712667E+01</totfact>
</mgrwt>
</event>
<event>
 4    1  0.2634897E-008  0.1010312E+04  0.7818608E-02  0.9297307E-01
          2   -1    0    0  501    0  0.00000000000E+00  0.00000000000E+00  0.16871205896E+04  0.16871205896E+04  0.25500000000E-02 0. -1.
         -2   -1    0    0    0  501 -0.00000000000E+00 -0.00000000000E+00 -0.20403049869E+04  0.20403049869E+04  0.25500000000E-02 0.  1.
    8880022    1    1    2    0    0 -0.57436222713E+03 -0.81697359130E+03 -0.17397456268E+04  0.20118261147E+04  0.15294330000E+03 0.  0.
    8880022    1    1    2    0    0  0.57436222713E+03  0.81697359130E+03  0.13865612295E+04  0.17155994617E+04  0.15294330000E+03 0.  0.
<mgrwt>
<rscale>  0 0.10103116E+04</rscale>
<asrwt>0</asrwt>
<pdfrwt beam="1">  1        2 0.25955701E+00 0.10103116E+04</pdfrwt>
<pdfrwt beam="2">  1       -2 0.31389307E+00 0.10103116E+04</pdfrwt>
<totfact> 0.26221260E-01</totfact>
</mgrwt>
</event>
<event>
 4    1  0.1701380E-008  0.2826830E+03  0.7818608E-02  0.1094233E+00
         -2   -1    0    0    0  501 -0.00000000000E+00  0.00000000000E+00  0.72617734029E+02  0.72617734073E+02  0.25500000000E-02 0.  1.
          2   -1    0    0  501    0  0.00000000000E+00 -0.00000000000E+00 -0.28236598908E+04  0.28236598908E+04  0.25500000000E-02 0. -1.
    8880022    1    1    2    0    0  0.14150438116E+03  0.19103537493E+03 -0.25068202713E+04  0.25227083719E+04  0.15294330000E+03 0.  0.
    8880022    1    1    2    0    0 -0.14150438116E+03 -0.19103537493E+03 -0.24422188548E+03  0.37356925292E+03  0.15294330000E+03 0.  1.
<mgrwt>
<rscale>  0 0.28268296E+03</rscale>
<asrwt>0</asrwt>
<pdfrwt beam="1">  1        2 0.43440913E+00 0.28268296E+03</pdfrwt>
<pdfrwt beam="2">  1       -2 0.11171961E-01 0.28268296E+03</pdfrwt>
<totfact> 0.14647938E+02</totfact>
</mgrwt>
</event>
<event>
 4    1  0.1701380E-008  0.1614852E+04  0.7818608E-02  0.8811475E-01
          2   -1    0    0  501    0  0.00000000000E+00  0.00000000000E+00  0.25012607601E+04  0.25012607601E+04  0.25500000000E-02 0. -1.
         -2   -1    0    0    0  501 -0.00000000000E+00 -0.00000000000E+00 -0.14212658635E+04  0.14212658635E+04  0.25500000000E-02 0.  1.
    8880022    1    1    2    0    0 -0.71045890780E+03  0.14420831668E+04 -0.47237822732E+03  0.16825244611E+04  0.15294330000E+03 0.  0.
    8880022    1    1    2    0    0  0.71045890780E+03 -0.14420831668E+04  0.15523731239E+04  0.22400021626E+04  0.15294330000E+03 0.  0.
<mgrwt>
<rscale>  0 0.16148521E+04</rscale>
<asrwt>0</asrwt>
<pdfrwt beam="1">  1        2 0.38480934E+00 0.16148521E+04</pdfrwt>
<pdfrwt beam="2">  1       -2 0.21865629E+00 0.16148521E+04</pdfrwt>
<totfact> 0.32463794E-01</totfact>
</mgrwt>
</event>
<event>
 4    1  0.1701380E-008  0.1666960E+04  0.7818608E-02  0.8780436E-01
         -2   -1    0    0    0  501 -0.00000000000E+00  0.00000000000E+00  0.10781734327E+04  0.10781734327E+04  0.25500000000E-02 0.  1.
          2   -1    0    0  501    0  0.00000000000E+00 -0.00000000000E+00 -0.28829723718E+04  0.28829723718E+04  0.25500000000E-02 0. -1.
    8880022    1    1    2    0    0 -0.12942687009E+04 -0.10393416470E+04 -0.25746837492E+03  0.16867258659E+04  0.15294330000E+03 0.  0.
    8880022    1    1    2    0    0  0.12942687009E+04  0.10393416470E+04 -0.15473305642E+04  0.22744199387E+04  0.15294330000E+03 0.  0.
<mgrwt>
<rscale>  0 0.16669596E+04</rscale>
<asrwt>0</asrwt>
<pdfrwt beam="1">  1        2 0.44353421E+00 0.16669596E+04</pdfrwt>
<pdfrwt beam="2">  1       -2 0.16587284E+00 0.16669596E+04</pdfrwt>
<totfact> 0.43580572E-01</totfact>
</mgrwt>
</event>
<event>
 4    1  0.1701380E-008  0.7293666E+03  0.7818608E-02  0.9668289E-01
         -2   -1    0    0    0  501 -0.00000000000E+00  0.00000000000E+00  0.75539115421E+03  0.75539115421E+03  0.25500000000E-02 0.  1.
          2   -1    0    0  501    0  0.00000000000E+00 -0.00000000000E+00 -0.11578853063E+04  0.11578853063E+04  0.25500000000E-02 0. -1.
    8880022    1    1    2    0    0  0.17709656571E+03  0.69081168871E+03 -0.80003609211E+03  0.10826049069E+04  0.15294330000E+03 0.  0.
    8880022    1    1    2    0    0 -0.17709656571E+03 -0.69081168871E+03  0.39754194001E+03  0.83067155358E+03  0.15294330000E+03 0.  0.
<mgrwt>
<rscale>  0 0.72936660E+03</rscale>
<asrwt>0</asrwt>
<pdfrwt beam="1">  1        2 0.17813620E+00 0.72936660E+03</pdfrwt>
<pdfrwt beam="2">  1       -2 0.11621402E+00 0.72936660E+03</pdfrwt>
<totfact> 0.11789269E+01</totfact>
</mgrwt>
</event>
<event>
 4    1  0.1701380E-008  0.1367955E+04  0.7818608E-02  0.8977347E-01
         -2   -1    0    0    0  501 -0.00000000000E+00  0.00000000000E+00  0.73332556514E+03  0.73332556515E+03  0.25500000000E-02 0.  1.
          2   -1    0    0  501    0  0.00000000000E+00 -0.00000000000E+00 -0.34954343335E+04  0.34954343335E+04  0.25500000000E-02 0. -1.
    8880022    1    1    2    0    0 -0.28924117331E+03 -0.13282499540E+04 -0.28246761348E+03  0.13968135174E+04  0.15294330000E+03 0.  0.
    8880022    1    1    2    0    0  0.28924117331E+03  0.13282499540E+04 -0.24796411549E+04  0.28319463813E+04  0.15294330000E+03 0.  0.
<mgrwt>
<rscale>  0 0.13679547E+04</rscale>
<asrwt>0</asrwt>
<pdfrwt beam="1">  1        2 0.53775912E+00 0.13679547E+04</pdfrwt>
<pdfrwt beam="2">  1       -2 0.11281932E+00 0.13679547E+04</pdfrwt>
<totfact> 0.49353300E-01</totfact>
</mgrwt>
</event>
<event>
 4    1  0.1701380E-008  0.2882795E+03  0.7818608E-02  0.1091251E+00
         -2   -1    0    0    0  501 -0.00000000000E+00  0.00000000000E+00  0.66545940866E+03  0.66545940867E+03  0.25500000000E-02 0.  1.
          2   -1    0    0  501    0  0.00000000000E+00 -0.00000000000E+00 -0.33363729383E+03  0.33363729384E+03  0.25500000000E-02 0. -1.
    8880022    1    1    2    0    0  0.19312138036E+03  0.14972484697E+03  0.56105669211E+03  0.63078495712E+03  0.15294330000E+03 0.  0.
    8880022    1    1    2    0    0 -0.19312138036E+03 -0.14972484697E+03 -0.22923457729E+03  0.36831174539E+03  0.15294330000E+03 0.  0.
<mgrwt>
<rscale>  0 0.28827947E+03</rscale>
<asrwt>0</asrwt>
<pdfrwt beam="1">  1        2 0.51328815E-01 0.28827947E+03</pdfrwt>
<pdfrwt beam="2">  1       -2 0.10237837E+00 0.28827947E+03</pdfrwt>
<totfact> 0.79639891E+01</totfact>
</mgrwt>
</event>
<event>
 4    1  0.1701380E-008  0.2534908E+03  0.7818608E-02  0.1111118E+00
          2   -1    0    0  501    0  0.00000000000E+00  0.00000000000E+00  0.69705676999E+03  0.69705676999E+03  0.25500000000E-02 0. -1.
         -2   -1    0    0    0  501 -0.00000000000E+00 -0.00000000000E+00 -0.15204437089E+03  0.15204437091E+03  0.25500000000E-02 0.  1.
    8880022    1    1    2    0    0  0.16862157572E+03 -0.11150194706E+03  0.61189215609E+01  0.25356461546E+03  0.15294330000E+03 0.  0.
    8880022    1    1    2    0    0 -0.16862157572E+03  0.11150194706E+03  0.53889347753E+03  0.59553652545E+03  0.15294330000E+03 0.  0.
<mgrwt>
<rscale>  0 0.25349078E+03</rscale>
<asrwt>0</asrwt>
<pdfrwt beam="1">  1        2 0.10723950E+00 0.25349078E+03</pdfrwt>
<pdfrwt beam="2">  1       -2 0.23391442E-01 0.25349078E+03</pdfrwt>
<totfact> 0.67733559E+02</totfact>
</mgrwt>
</event>
<event>
 4    1  0.1701380E-008  0.7172779E+03  0.7818608E-02  0.9688133E-01
         -2   -1    0    0    0  501 -0.00000000000E+00  0.00000000000E+00  0.26226725303E+03  0.26226725304E+03  0.25500000000E-02 0.  1.
          2   -1    0    0  501    0  0.00000000000E+00 -0.00000000000E+00 -0.30222552970E+04  0.30222552970E+04  0.25500000000E-02 0. -1.
    8880022    1    1    2    0    0 -0.52131049197E+03  0.46832812955E+03 -0.23528420808E+04  0.24597466082E+04  0.15294330000E+03 0.  0.
    8880022    1    1    2    0    0  0.52131049197E+03 -0.46832812955E+03 -0.40714596309E+03  0.82477594184E+03  0.15294330000E+03 0.  0.
<mgrwt>
<rscale>  0 0.71727785E+03</rscale>
<asrwt>0</asrwt>
<pdfrwt beam="1">  1        2 0.46496233E+00 0.71727785E+03</pdfrwt>
<pdfrwt beam="2">  1       -2 0.40348810E-01 0.71727785E+03</pdfrwt>
<totfact> 0.10488973E+01</totfact>
</mgrwt>
</event>
<event>
 4    1  0.1701380E-008  0.5455905E+03  0.7818608E-02  0.1002520E+00
         -2   -1    0    0    0  501 -0.00000000000E+00  0.00000000000E+00  0.11069938602E+04  0.11069938602E+04  0.25500000000E-02 0.  1.
          2   -1    0    0  501    0  0.00000000000E+00 -0.00000000000E+00 -0.69747670270E+03  0.69747670270E+03  0.25500000000E-02 0. -1.
    8880022    1    1    2    0    0  0.39786804191E+03  0.34055588041E+03 -0.50248663186E+03  0.74172889567E+03  0.15294330000E+03 0. -1.
    8880022    1    1    2    0    0 -0.39786804191E+03 -0.34055588041E+03  0.91200378936E+03  0.10627416672E+04  0.15294330000E+03 0.  0.
<mgrwt>
<rscale>  0 0.54559045E+03</rscale>
<asrwt>0</asrwt>
<pdfrwt beam="1">  1        2 0.10730411E+00 0.54559045E+03</pdfrwt>
<pdfrwt beam="2">  1       -2 0.17030675E+00 0.54559045E+03</pdfrwt>
<totfact> 0.91219114E+00</totfact>
</mgrwt>
</event>
<event>
 4    1  0.1701380E-008  0.2033231E+03  0.7818608E-02  0.1146965E+00
          2   -1    0    0  501    0  0.00000000000E+00  0.00000000000E+00  0.20982553707E+04  0.20982553707E+04  0.25500000000E-02 0. -1.
         -2   -1    0    0    0  501 -0.00000000000E+00 -0.00000000000E+00 -0.10892060665E+03  0.10892060668E+03  0.25500000000E-02 0.  1.
    8880022    1    1    2    0    0 -0.12378416120E+03  0.51245582640E+02  0.19934687555E+04  0.20038108594E+04  0.15294330000E+03 0.  0.
    8880022    1    1    2    0    0  0.12378416120E+03 -0.51245582640E+02 -0.41339914236E+01  0.20336511796E+03  0.15294330000E+03 0.  1.
<mgrwt>
<rscale>  0 0.20332310E+03</rscale>
<asrwt>0</asrwt>
<pdfrwt beam="1">  1        2 0.32280850E+00 0.20332310E+03</pdfrwt>
<pdfrwt beam="2">  1       -2 0.16757017E-01 0.20332310E+03</pdfrwt>
<totfact> 0.19229120E+02</totfact>
</mgrwt>
</event>
<event>
 4    1  0.1701380E-008  0.1005850E+04  0.7818608E-02  0.9302152E-01
         -2   -1    0    0    0  501 -0.00000000000E+00  0.00000000000E+00  0.13150124829E+04  0.13150124829E+04  0.25500000000E-02 0.  1.
          2   -1    0    0  501    0  0.00000000000E+00 -0.00000000000E+00 -0.12887972398E+04  0.12887972398E+04  0.25500000000E-02 0. -1.
    8880022    1    1    2    0    0 -0.76328239856E+03  0.63697899739E+03 -0.81340298750E+03  0.12935835250E+04  0.15294330000E+03 0.  0.
    8880022    1    1    2    0    0  0.76328239856E+03 -0.63697899739E+03  0.83961823061E+03  0.13102261977E+04  0.15294330000E+03 0.  0.
<mgrwt>
<rscale>  0 0.10058498E+04</rscale>
<asrwt>0</asrwt>
<pdfrwt beam="1">  1        2 0.19827650E+00 0.10058498E+04</pdfrwt>
<pdfrwt beam="2">  1       -2 0.20230961E+00 0.10058498E+04</pdfrwt>
<totfact> 0.21382549E+00</totfact>
</mgrwt>
</event>
<event>
 4    1  0.1701380E-008  0.2434869E+03  0.7818608E-02  0.1117491E+00
          2   -1    0    0  501    0  0.00000000000E+00  0.00000000000E+00  0.43177246968E+03  0.43177246969E+03  0.25500000000E-02 0. -1.
         -2   -1    0    0    0  501 -0.00000000000E+00 -0.00000000000E+00 -0.13833834098E+04  0.13833834098E+04  0.25500000000E-02 0.  1.
    8880022    1    1    2    0    0 -0.18227271514E+03  0.51680647532E+02 -0.13371656362E+04  0.13591533481E+04  0.15294330000E+03 0.  0.
    8880022    1    1    2    0    0  0.18227271514E+03 -0.51680647532E+02  0.38555469604E+03  0.45600253142E+03  0.15294330000E+03 0.  0.
<mgrwt>
<rscale>  0 0.24348693E+03</rscale>
<asrwt>0</asrwt>
<pdfrwt beam="1">  1        2 0.66426534E-01 0.24348693E+03</pdfrwt>
<pdfrwt beam="2">  1       -2 0.21282822E+00 0.24348693E+03</pdfrwt>
<totfact> 0.89751726E+00</totfact>
</mgrwt>
</event>
<event>
 4    1  0.1701380E-008  0.9625359E+03  0.7818608E-02  0.9350617E-01
         -2   -1    0    0    0  501 -0.00000000000E+00  0.00000000000E+00  0.17518704536E+04  0.17518704536E+04  0.25500000000E-02 0.  1.
          2   -1    0    0  501    0  0.00000000000E+00 -0.00000000000E+00 -0.19142519024E+04  0.19142519024E+04  0.25500000000E-02 0. -1.
    8880022    1    1    2    0    0  0.26328526142E+03  0.91310706179E+03 -0.16406190956E+04  0.19021320419E+04  0.15294330000E+03 0.  0.
    8880022    1    1    2    0    0 -0.26328526142E+03 -0.91310706179E+03  0.14782376467E+04  0.17639903141E+04  0.15294330000E+03 0.  0.
<mgrwt>
<rscale>  0 0.96253586E+03</rscale>
<asrwt>0</asrwt>
<pdfrwt beam="1">  1        2 0.29450029E+00 0.96253586E+03</pdfrwt>
<pdfrwt beam="2">  1       -2 0.26951853E+00 0.96253586E+03</pdfrwt>
<totfact> 0.36801002E-01</totfact>
</mgrwt>
</event>
<event>
 4    1  0.1701380E-008  0.8631152E+03  0.7818608E-02  0.9472901E-01
         -2   -1    0    0    0  501 -0.00000000000E+00  0.00000000000E+00  0.74722582377E+03  0.74722582377E+03  0.25500000000E-02 0.  1.
          2   -1    0    0  501    0  0.00000000000E+00 -0.00000000000E+00 -0.28235531103E+04  0.28235531103E+04  0.25500000000E-02 0. -1.
    8880022    1    1    2    0    0 -0.58687466877E+03 -0.61412896985E+03  0.39783398105E+03  0.95038928758E+03  0.15294330000E+03 0.  0.
    8880022    1    1    2    0    0  0.58687466877E+03  0.61412896985E+03 -0.24741612675E+04  0.26203896465E+04  0.15294330000E+03 0.  0.
<mgrwt>
<rscale>  0 0.86311524E+03</rscale>
<asrwt>0</asrwt>
<pdfrwt beam="1">  1        2 0.43439278E+00 0.86311524E+03</pdfrwt>
<pdfrwt beam="2">  1       -2 0.11495782E+00 0.86311524E+03</pdfrwt>
<totfact> 0.13707829E+00</totfact>
</mgrwt>
</event>
<event>
 4    1  0.1701380E-008  0.6015591E+03  0.7818608E-02  0.9902177E-01
         -2   -1    0    0    0  501 -0.00000000000E+00  0.00000000000E+00  0.19863909290E+03  0.19863909291E+03  0.25500000000E-02 0.  1.
          2   -1    0    0  501    0  0.00000000000E+00 -0.00000000000E+00 -0.27957987401E+04  0.27957987401E+04  0.25500000000E-02 0. -1.
    8880022    1    1    2    0    0  0.56057720920E+03  0.15567575728E+03 -0.41484953314E+03  0.73073492940E+03  0.15294330000E+03 0.  0.
    8880022    1    1    2    0    0 -0.56057720920E+03 -0.15567575728E+03 -0.21823101140E+04  0.22637029036E+04  0.15294330000E+03 0.  0.
<mgrwt>
<rscale>  0 0.60155914E+03</rscale>
<asrwt>0</asrwt>
<pdfrwt beam="1">  1        2 0.43012285E+00 0.60155914E+03</pdfrwt>
<pdfrwt beam="2">  1       -2 0.30559863E-01 0.60155914E+03</pdfrwt>
<totfact> 0.24876371E+01</totfact>
</mgrwt>
</event>
<event>
 4    1  0.1701380E-008  0.5171698E+03  0.7818608E-02  0.1009392E+00
          2   -1    0    0  501    0  0.00000000000E+00  0.00000000000E+00  0.13896068550E+04  0.13896068550E+04  0.25500000000E-02 0. -1.
         -2   -1    0    0    0  501 -0.00000000000E+00 -0.00000000000E+00 -0.13851854751E+04  0.13851854751E+04  0.25500000000E-02 0.  1.
    8880022    1    1    2    0    0  0.42764656949E+03  0.24736881297E+03  0.12896122857E+04  0.13894475227E+04  0.15294330000E+03 0. -1.
    8880022    1    1    2    0    0 -0.42764656949E+03 -0.24736881297E+03 -0.12851909058E+04  0.13853448074E+04  0.15294330000E+03 0.  0.
<mgrwt>
<rscale>  0 0.51716977E+03</rscale>
<asrwt>0</asrwt>
<pdfrwt beam="1">  1        2 0.21378567E+00 0.51716977E+03</pdfrwt>
<pdfrwt beam="2">  1       -2 0.21310546E+00 0.51716977E+03</pdfrwt>
<totfact> 0.17418807E+00</totfact>
</mgrwt>
</event>
<event>
 4    1  0.1701380E-008  0.1699514E+04  0.7818608E-02  0.8761641E-01
         -2   -1    0    0    0  501 -0.00000000000E+00  0.00000000000E+00  0.11693529332E+04  0.11693529332E+04  0.25500000000E-02 0.  1.
          2   -1    0    0  501    0  0.00000000000E+00 -0.00000000000E+00 -0.36130455132E+04  0.36130455132E+04  0.25500000000E-02 0. -1.
    8880022    1    1    2    0    0  0.13015141984E+04 -0.10821357945E+04 -0.25667870994E+04  0.30784321908E+04  0.15294330000E+03 0.  0.
    8880022    1    1    2    0    0 -0.13015141984E+04  0.10821357945E+04  0.12309451943E+03  0.17039662556E+04  0.15294330000E+03 0.  0.
<mgrwt>
<rscale>  0 0.16995143E+04</rscale>
<asrwt>0</asrwt>
<pdfrwt beam="1">  1        2 0.55585315E+00 0.16995143E+04</pdfrwt>
<pdfrwt beam="2">  1       -2 0.17990045E+00 0.16995143E+04</pdfrwt>
<totfact> 0.11379549E-01</totfact>
</mgrwt>
</event>
<event>
 4    1  0.1701380E-008  0.1528593E+04  0.7818608E-02  0.8865659E-01
         -2   -1    0    0    0  501 -0.00000000000E+00  0.00000000000E+00  0.13977870698E+04  0.13977870698E+04  0.25500000000E-02 0.  1.
          2   -1    0    0  501    0  0.00000000000E+00 -0.00000000000E+00 -0.19962113914E+04  0.19962113914E+04  0.25500000000E-02 0. -1.
    8880022    1    1    2    0    0  0.15178967162E+04 -0.95885429369E+02 -0.98349211695E+03  0.18176503662E+04  0.15294330000E+03 0.  0.
    8880022    1    1    2    0    0 -0.15178967162E+04  0.95885429369E+02  0.38506779535E+03  0.15763480950E+04  0.15294330000E+03 0.  0.
<mgrwt>
<rscale>  0 0.15285929E+04</rscale>
<asrwt>0</asrwt>
<pdfrwt beam="1">  1        2 0.30710944E+00 0.15285929E+04</pdfrwt>
<pdfrwt beam="2">  1       -2 0.21504416E+00 0.15285929E+04</pdfrwt>
<totfact> 0.66773421E-01</totfact>
</mgrwt>
</event>
<event>
 4    1  0.1701380E-008  0.9193339E+03  0.7818608E-02  0.9401731E-01
         -2   -1    0    0    0  501 -0.00000000000E+00  0.00000000000E+00  0.27584014990E+04  0.27584014990E+04  0.25500000000E-02 0.  1.
          2   -1    0    0  501    0  0.00000000000E+00 -0.00000000000E+00 -0.83158808635E+03  0.83158808636E+03  0.25500000000E-02 0. -1.
    8880022    1    1    2    0    0 -0.44274517084E+03  0.79104988991E+03  0.23898890460E+04  0.25606140903E+04  0.15294330000E+03 0.  0.
    8880022    1    1    2    0    0  0.44274517084E+03 -0.79104988991E+03 -0.46307563328E+03  0.10293754950E+04  0.15294330000E+03 0.  0.
<mgrwt>
<rscale>  0 0.91933393E+03</rscale>
<asrwt>0</asrwt>
<pdfrwt beam="1">  1        2 0.12793663E+00 0.91933393E+03</pdfrwt>
<pdfrwt beam="2">  1       -2 0.42436946E+00 0.91933393E+03</pdfrwt>
<totfact> 0.17330496E-01</totfact>
</mgrwt>
</event>
<event>
 4    1  0.1701380E-008  0.1025172E+04  0.7818608E-02  0.9281360E-01
         -2   -1    0    0    0  501 -0.00000000000E+00  0.00000000000E+00  0.31609919107E+04  0.31609919107E+04  0.25500000000E-02 0.  1.
          2   -1    0    0  501    0  0.00000000000E+00 -0.00000000000E+00 -0.12536542978E+04  0.12536542978E+04  0.25500000000E-02 0. -1.
    8880022    1    1    2    0    0  0.92296108856E+03  0.41919919494E+03 -0.93844457704E+03  0.13898399236E+04  0.15294330000E+03 0.  0.
    8880022    1    1    2    0    0 -0.92296108856E+03 -0.41919919494E+03  0.28457821899E+04  0.30248062849E+04  0.15294330000E+03 0.  0.
<mgrwt>
<rscale>  0 0.10251716E+04</rscale>
<asrwt>0</asrwt>
<pdfrwt beam="1">  1        2 0.19286989E+00 0.10251716E+04</pdfrwt>
<pdfrwt beam="2">  1       -2 0.48630644E+00 0.10251716E+04</pdfrwt>
<totfact> 0.35697501E-02</totfact>
</mgrwt>
</event>
<event>
 4    1  0.1701380E-008  0.8789823E+03  0.7818608E-02  0.9452243E-01
          2   -1    0    0  501    0  0.00000000000E+00  0.00000000000E+00  0.59354757759E+03  0.59354757760E+03  0.25500000000E-02 0. -1.
         -2   -1    0    0    0  501 -0.00000000000E+00 -0.00000000000E+00 -0.13946659393E+04  0.13946659393E+04  0.25500000000E-02 0.  1.
    8880022    1    1    2    0    0 -0.71457632840E+03  0.48846581164E+03 -0.14387249528E+03  0.89067902533E+03  0.15294330000E+03 0.  0.
    8880022    1    1    2    0    0  0.71457632840E+03 -0.48846581164E+03 -0.65724586642E+03  0.10975344916E+04  0.15294330000E+03 0.  0.
<mgrwt>
<rscale>  0 0.87898227E+03</rscale>
<asrwt>0</asrwt>
<pdfrwt beam="1">  1        2 0.91315013E-01 0.87898227E+03</pdfrwt>
<pdfrwt beam="2">  1       -2 0.21456399E+00 0.87898227E+03</pdfrwt>
<totfact> 0.54186170E+00</totfact>
</mgrwt>
</event>
<event>
 4    1  0.1701380E-008  0.6677625E+03  0.7818608E-02  0.9774008E-01
          2   -1    0    0  501    0  0.00000000000E+00  0.00000000000E+00  0.35120194237E+04  0.35120194237E+04  0.25500000000E-02 0. -1.
         -2   -1    0    0    0  501 -0.00000000000E+00 -0.00000000000E+00 -0.66108295101E+03  0.66108295101E+03  0.25500000000E-02 0.  1.
    8880022    1    1    2    0    0 -0.53854130243E+03  0.36398951777E+03  0.33009777880E+04  0.33678422044E+04  0.15294330000E+03 0.  0.
    8880022    1    1    2    0    0  0.53854130243E+03 -0.36398951777E+03 -0.45004131531E+03  0.80526017036E+03  0.15294330000E+03 0.  0.
<mgrwt>
<rscale>  0 0.66776250E+03</rscale>
<asrwt>0</asrwt>
<pdfrwt beam="1">  1        2 0.54031069E+00 0.66776250E+03</pdfrwt>
<pdfrwt beam="2">  1       -2 0.10170507E+00 0.66776250E+03</pdfrwt>
<totfact> 0.70414697E-01</totfact>
</mgrwt>
</event>
<event>
 4    1  0.1701380E-008  0.7177407E+03  0.7818608E-02  0.9687365E-01
         -2   -1    0    0    0  501 -0.00000000000E+00  0.00000000000E+00  0.45631249698E+03  0.45631249698E+03  0.25500000000E-02 0.  1.
          2   -1    0    0  501    0  0.00000000000E+00 -0.00000000000E+00 -0.18129126277E+04  0.18129126277E+04  0.25500000000E-02 0. -1.
    8880022    1    1    2    0    0  0.11302450756E+03 -0.69208784494E+03  0.18610227238E+02  0.71798197609E+03  0.15294330000E+03 0.  0.
    8880022    1    1    2    0    0 -0.11302450756E+03  0.69208784494E+03 -0.13752103580E+04  0.15512431486E+04  0.15294330000E+03 0.  0.
<mgrwt>
<rscale>  0 0.71774075E+03</rscale>
<asrwt>0</asrwt>
<pdfrwt beam="1">  1        2 0.27890963E+00 0.71774075E+03</pdfrwt>
<pdfrwt beam="2">  1       -2 0.70201924E-01 0.71774075E+03</pdfrwt>
<totfact> 0.16228385E+01</totfact>
</mgrwt>
</event>
<event>
 4    1  0.1701380E-008  0.2987519E+03  0.7818608E-02  0.1085866E+00
         -2   -1    0    0    0  501 -0.00000000000E+00  0.00000000000E+00  0.29381643955E+03  0.29381643956E+03  0.25500000000E-02 0.  1.
          2   -1    0    0  501    0  0.00000000000E+00 -0.00000000000E+00 -0.76528437775E+03  0.76528437775E+03  0.25500000000E-02 0. -1.
    8880022    1    1    2    0    0  0.25648988970E+03 -0.85998364158E+01  0.17549946362E+03  0.34648627022E+03  0.15294330000E+03 0.  0.
    8880022    1    1    2    0    0 -0.25648988970E+03  0.85998364158E+01 -0.64696740182E+03  0.71261454710E+03  0.15294330000E+03 0. -1.
<mgrwt>
<rscale>  0 0.29875186E+03</rscale>
<asrwt>0</asrwt>
<pdfrwt beam="1">  1        2 0.11773606E+00 0.29875186E+03</pdfrwt>
<pdfrwt beam="2">  1       -2 0.45202529E-01 0.29875186E+03</pdfrwt>
<totfact> 0.17746740E+02</totfact>
</mgrwt>
</event>
<event>
 4    1  0.1701380E-008  0.9755324E+03  0.7818608E-02  0.9335795E-01
          2   -1    0    0  501    0  0.00000000000E+00  0.00000000000E+00  0.40286550733E+04  0.40286550733E+04  0.25500000000E-02 0. -1.
         -2   -1    0    0    0  501 -0.00000000000E+00 -0.00000000000E+00 -0.50585182776E+03  0.50585182777E+03  0.25500000000E-02 0.  1.
    8880022    1    1    2    0    0 -0.57407655001E+03  0.77376220092E+03  0.10612312761E+03  0.98128772543E+03  0.15294330000E+03 0.  0.
    8880022    1    1    2    0    0  0.57407655001E+03 -0.77376220092E+03  0.34166801179E+04  0.35532191757E+04  0.15294330000E+03 0.  0.
<mgrwt>
<rscale>  0 0.97553241E+03</rscale>
<asrwt>0</asrwt>
<pdfrwt beam="1">  1        2 0.61979309E+00 0.97553241E+03</pdfrwt>
<pdfrwt beam="2">  1       -2 0.77823358E-01 0.97553241E+03</pdfrwt>
<totfact> 0.50507673E-01</totfact>
</mgrwt>
</event>
<event>
 4    1  0.1701380E-008  0.8166374E+03  0.7818608E-02  0.9536243E-01
          2   -1    0    0  501    0  0.00000000000E+00  0.00000000000E+00  0.95410105246E+03  0.95410105247E+03  0.25500000000E-02 0. -1.
         -2   -1    0    0    0  501 -0.00000000000E+00 -0.00000000000E+00 -0.10162066142E+04  0.10162066142E+04  0.25500000000E-02 0.  1.
    8880022    1    1    2    0    0  0.76471743551E+03  0.24230616899E+03 -0.58147818691E+03  0.10025036512E+04  0.15294330000E+03 0.  0.
    8880022    1    1    2    0    0 -0.76471743551E+03 -0.24230616899E+03  0.51937262516E+03  0.96780401554E+03  0.15294330000E+03 0.  0.
<mgrwt>
<rscale>  0 0.81663743E+03</rscale>
<asrwt>0</asrwt>
<pdfrwt beam="1">  1        2 0.14678478E+00 0.81663743E+03</pdfrwt>
<pdfrwt beam="2">  1       -2 0.15633948E+00 0.81663743E+03</pdfrwt>
<totfact> 0.73112818E+00</totfact>
</mgrwt>
</event>
<event>
 4    1  0.1701380E-008  0.6553326E+03  0.7818608E-02  0.9796824E-01
          2   -1    0    0  501    0  0.00000000000E+00  0.00000000000E+00  0.13936175229E+04  0.13936175229E+04  0.25500000000E-02 0. -1.
         -2   -1    0    0    0  501 -0.00000000000E+00 -0.00000000000E+00 -0.12570694132E+04  0.12570694132E+04  0.25500000000E-02 0.  1.
    8880022    1    1    2    0    0  0.55255554255E+03  0.31741375584E+03 -0.10832170809E+04  0.12660252831E+04  0.15294330000E+03 0.  0.
    8880022    1    1    2    0    0 -0.55255554255E+03 -0.31741375584E+03  0.12197651906E+04  0.13846616530E+04  0.15294330000E+03 0.  0.
<mgrwt>
<rscale>  0 0.65533257E+03</rscale>
<asrwt>0</asrwt>
<pdfrwt beam="1">  1        2 0.21440270E+00 0.65533257E+03</pdfrwt>
<pdfrwt beam="2">  1       -2 0.19339529E+00 0.65533257E+03</pdfrwt>
<totfact> 0.22479863E+00</totfact>
</mgrwt>
</event>
<event>
 4    1  0.1701380E-008  0.6381718E+03  0.7818608E-02  0.9829231E-01
          2   -1    0    0  501    0  0.00000000000E+00  0.00000000000E+00  0.29483296535E+04  0.29483296535E+04  0.25500000000E-02 0. -1.
         -2   -1    0    0    0  501 -0.00000000000E+00 -0.00000000000E+00 -0.20676455320E+03  0.20676455322E+03  0.25500000000E-02 0.  1.
    8880022    1    1    2    0    0  0.61848470096E+03 -0.36718196938E+02  0.46190682217E+03  0.78779509816E+03  0.15294330000E+03 0.  0.
    8880022    1    1    2    0    0 -0.61848470096E+03  0.36718196938E+02  0.22796582781E+04  0.23672991085E+04  0.15294330000E+03 0.  0.
<mgrwt>
<rscale>  0 0.63817177E+03</rscale>
<asrwt>0</asrwt>
<pdfrwt beam="1">  1        2 0.45358913E+00 0.63817177E+03</pdfrwt>
<pdfrwt beam="2">  1       -2 0.31809934E-01 0.63817177E+03</pdfrwt>
<totfact> 0.18601281E+01</totfact>
</mgrwt>
</event>
<event>
 4    1  0.1701380E-008  0.2826679E+03  0.7818608E-02  0.1094241E+00
         -2   -1    0    0    0  501 -0.00000000000E+00  0.00000000000E+00  0.10418408797E+03  0.10418408800E+03  0.25500000000E-02 0.  1.
          2   -1    0    0  501    0  0.00000000000E+00 -0.00000000000E+00 -0.18850554439E+04  0.18850554439E+04  0.25500000000E-02 0. -1.
    8880022    1    1    2    0    0  0.23554781996E+03 -0.32042425404E+02 -0.12441287504E+03  0.30883605522E+03  0.15294330000E+03 0.  0.
    8880022    1    1    2    0    0 -0.23554781996E+03  0.32042425404E+02 -0.16564584808E+04  0.16804034766E+04  0.15294330000E+03 0.  0.
<mgrwt>
<rscale>  0 0.28266791E+03</rscale>
<asrwt>0</asrwt>
<pdfrwt beam="1">  1        2 0.29000851E+00 0.28266791E+03</pdfrwt>
<pdfrwt beam="2">  1       -2 0.16028323E-01 0.28266791E+03</pdfrwt>
<totfact> 0.26228185E+02</totfact>
</mgrwt>
</event>
<event>
 4    1  0.1701380E-008  0.1044648E+04  0.7818608E-02  0.9260887E-01
          2   -1    0    0  501    0  0.00000000000E+00  0.00000000000E+00  0.30752682367E+04  0.30752682367E+04  0.25500000000E-02 0. -1.
         -2   -1    0    0    0  501 -0.00000000000E+00 -0.00000000000E+00 -0.55651525818E+03  0.55651525819E+03  0.25500000000E-02 0.  1.
    8880022    1    1    2    0    0 -0.99190856906E+03 -0.28985476636E+03  0.16628612562E+03  0.10578001340E+04  0.15294330000E+03 0.  0.
    8880022    1    1    2    0    0  0.99190856906E+03  0.28985476636E+03  0.23524668529E+04  0.25739833609E+04  0.15294330000E+03 0.  0.
<mgrwt>
<rscale>  0 0.10446483E+04</rscale>
<asrwt>0</asrwt>
<pdfrwt beam="1">  1        2 0.47311819E+00 0.10446483E+04</pdfrwt>
<pdfrwt beam="2">  1       -2 0.85617733E-01 0.10446483E+04</pdfrwt>
<totfact> 0.18783405E+00</totfact>
</mgrwt>
</event>
<event>
 4    1  0.1701380E-008  0.5504035E+03  0.7818608E-02  0.1001401E+00
          2   -1    0    0  501    0  0.00000000000E+00  0.00000000000E+00  0.38726137330E+04  0.38726137330E+04  0.25500000000E-02 0. -1.
         -2   -1    0    0    0  501 -0.00000000000E+00 -0.00000000000E+00 -0.12161320647E+03  0.12161320650E+03  0.25500000000E-02 0.  1.
    8880022    1    1    2    0    0  0.42317845573E+03 -0.31697381463E+03  0.68264765385E+03  0.87689901179E+03  0.15294330000E+03 0.  0.
    8880022    1    1    2    0    0 -0.42317845573E+03  0.31697381463E+03  0.30683528727E+04  0.31173279277E+04  0.15294330000E+03 0.  0.
<mgrwt>
<rscale>  0 0.55040354E+03</rscale>
<asrwt>0</asrwt>
<pdfrwt beam="1">  1        2 0.59578670E+00 0.55040354E+03</pdfrwt>
<pdfrwt beam="2">  1       -2 0.18709725E-01 0.55040354E+03</pdfrwt>
<totfact> 0.11873798E+01</totfact>
</mgrwt>
</event>
<event>
 4    1  0.1701380E-008  0.9887113E+03  0.7818608E-02  0.9321013E-01
          2   -1    0    0  501    0  0.00000000000E+00  0.00000000000E+00  0.20917370550E+04  0.20917370550E+04  0.25500000000E-02 0. -1.
         -2   -1    0    0    0  501 -0.00000000000E+00 -0.00000000000E+00 -0.75438405863E+03  0.75438405864E+03  0.25500000000E-02 0.  1.
    8880022    1    1    2    0    0 -0.93467941023E+03 -0.28378289270E+03 -0.20913705835E+03  0.10105880923E+04  0.15294330000E+03 0.  0.
    8880022    1    1    2    0    0  0.93467941023E+03  0.28378289270E+03  0.15464900547E+04  0.18355330214E+04  0.15294330000E+03 0.  0.
<mgrwt>
<rscale>  0 0.98871127E+03</rscale>
<asrwt>0</asrwt>
<pdfrwt beam="1">  1        2 0.32180570E+00 0.98871127E+03</pdfrwt>
<pdfrwt beam="2">  1       -2 0.11605909E+00 0.98871127E+03</pdfrwt>
<totfact> 0.34310957E+00</totfact>
</mgrwt>
</event>
<event>
 4    1  0.1701380E-008  0.8201077E+03  0.7818608E-02  0.9531360E-01
          2   -1    0    0  501    0  0.00000000000E+00  0.00000000000E+00  0.17542362076E+04  0.17542362076E+04  0.25500000000E-02 0. -1.
         -2   -1    0    0    0  501 -0.00000000000E+00 -0.00000000000E+00 -0.10351929199E+04  0.10351929199E+04  0.25500000000E-02 0.  1.
    8880022    1    1    2    0    0 -0.43163611917E+03 -0.68034934428E+03 -0.74717614274E+03  0.11094362582E+04  0.15294330000E+03 0.  0.
    8880022    1    1    2    0    0  0.43163611917E+03  0.68034934428E+03  0.14662194304E+04  0.16799928693E+04  0.15294330000E+03 0.  0.
<mgrwt>
<rscale>  0 0.82010769E+03</rscale>
<asrwt>0</asrwt>
<pdfrwt beam="1">  1        2 0.26988249E+00 0.82010769E+03</pdfrwt>
<pdfrwt beam="2">  1       -2 0.15926045E+00 0.82010769E+03</pdfrwt>
<totfact> 0.23821810E+00</totfact>
</mgrwt>
</event>
<event>
 4    1  0.1701380E-008  0.6303059E+03  0.7818608E-02  0.9844452E-01
         -2   -1    0    0    0  501 -0.00000000000E+00  0.00000000000E+00  0.60303318834E+03  0.60303318835E+03  0.25500000000E-02 0.  1.
          2   -1    0    0  501    0  0.00000000000E+00 -0.00000000000E+00 -0.71394354575E+03  0.71394354575E+03  0.25500000000E-02 0. -1.
    8880022    1    1    2    0    0 -0.51373906406E+03 -0.33161133068E+03  0.12752999872E+03  0.64307810892E+03  0.15294330000E+03 0.  0.
    8880022    1    1    2    0    0  0.51373906406E+03  0.33161133068E+03 -0.23844035613E+03  0.67389862518E+03  0.15294330000E+03 0.  0.
<mgrwt>
<rscale>  0 0.63030592E+03</rscale>
<asrwt>0</asrwt>
<pdfrwt beam="1">  1        2 0.10983747E+00 0.63030592E+03</pdfrwt>
<pdfrwt beam="2">  1       -2 0.92774337E-01 0.63030592E+03</pdfrwt>
<totfact> 0.40296903E+01</totfact>
</mgrwt>
</event>
<event>
 4    1  0.1701380E-008  0.7733426E+03  0.7818608E-02  0.9599425E-01
         -2   -1    0    0    0  501 -0.00000000000E+00  0.00000000000E+00  0.92260738642E+03  0.92260738642E+03  0.25500000000E-02 0.  1.
          2   -1    0    0  501    0  0.00000000000E+00 -0.00000000000E+00 -0.12615367586E+04  0.12615367586E+04  0.25500000000E-02 0. -1.
    8880022    1    1    2    0    0  0.62427397222E+03  0.43005716786E+03  0.59198526404E+03  0.97391240154E+03  0.15294330000E+03 0.  0.
    8880022    1    1    2    0    0 -0.62427397222E+03 -0.43005716786E+03 -0.93091463626E+03  0.12102317435E+04  0.15294330000E+03 0.  0.
<mgrwt>
<rscale>  0 0.77334262E+03</rscale>
<asrwt>0</asrwt>
<pdfrwt beam="1">  1        2 0.19408258E+00 0.77334262E+03</pdfrwt>
<pdfrwt beam="2">  1       -2 0.14193960E+00 0.77334262E+03</pdfrwt>
<totfact> 0.61453919E+00</totfact>
</mgrwt>
</event>
<event>
 4    1  0.1701380E-008  0.9341608E+03  0.7818608E-02  0.9383858E-01
          2   -1    0    0  501    0  0.00000000000E+00  0.00000000000E+00  0.14180625949E+04  0.14180625949E+04  0.25500000000E-02 0. -1.
         -2   -1    0    0    0  501 -0.00000000000E+00 -0.00000000000E+00 -0.25035382089E+04  0.25035382089E+04  0.25500000000E-02 0.  1.
    8880022    1    1    2    0    0 -0.35454237712E+03  0.85062587818E+03  0.11601057008E+04  0.14894635182E+04  0.15294330000E+03 0.  0.
    8880022    1    1    2    0    0  0.35454237712E+03 -0.85062587818E+03 -0.22455813148E+04  0.24321372856E+04  0.15294330000E+03 0.  0.
<mgrwt>
<rscale>  0 0.93416076E+03</rscale>
<asrwt>0</asrwt>
<pdfrwt beam="1">  1        2 0.21816348E+00 0.93416076E+03</pdfrwt>
<pdfrwt beam="2">  1       -2 0.38515972E+00 0.93416076E+03</pdfrwt>
<totfact> 0.13490031E-01</totfact>
</mgrwt>
</event>
<event>
 4    1  0.1701380E-008  0.1328123E+04  0.7818608E-02  0.9007556E-01
         -2   -1    0    0    0  501 -0.00000000000E+00  0.00000000000E+00  0.93131946998E+03  0.93131946999E+03  0.25500000000E-02 0.  1.
          2   -1    0    0  501    0  0.00000000000E+00 -0.00000000000E+00 -0.41501607398E+04  0.41501607398E+04  0.25500000000E-02 0. -1.
    8880022    1    1    2    0    0  0.13182086851E+04 -0.53341397919E+02 -0.34827477861E+04  0.37273909423E+04  0.15294330000E+03 0.  0.
    8880022    1    1    2    0    0 -0.13182086851E+04  0.53341397919E+02  0.26390651623E+03  0.13540892675E+04  0.15294330000E+03 0.  0.
<mgrwt>
<rscale>  0 0.13281231E+04</rscale>
<asrwt>0</asrwt>
<pdfrwt beam="1">  1        2 0.63848626E+00 0.13281231E+04</pdfrwt>
<pdfrwt beam="2">  1       -2 0.14327992E+00 0.13281231E+04</pdfrwt>
<totfact> 0.85974825E-02</totfact>
</mgrwt>
</event>
<event>
 4    1  0.1701380E-008  0.8115577E+03  0.7818608E-02  0.9543437E-01
          2   -1    0    0  501    0  0.00000000000E+00  0.00000000000E+00  0.14172968815E+04  0.14172968815E+04  0.25500000000E-02 0. -1.
         -2   -1    0    0    0  501 -0.00000000000E+00 -0.00000000000E+00 -0.77966091772E+03  0.77966091772E+03  0.25500000000E-02 0.  1.
    8880022    1    1    2    0    0  0.79546655939E+03  0.49671295598E+02  0.10169912900E+04  0.13011138388E+04  0.15294330000E+03 0.  0.
    8880022    1    1    2    0    0 -0.79546655939E+03 -0.49671295598E+02 -0.37935532624E+03  0.89584396034E+03  0.15294330000E+03 0.  0.
<mgrwt>
<rscale>  0 0.81155772E+03</rscale>
<asrwt>0</asrwt>
<pdfrwt beam="1">  1        2 0.21804567E+00 0.81155772E+03</pdfrwt>
<pdfrwt beam="2">  1       -2 0.11994784E+00 0.81155772E+03</pdfrwt>
<totfact> 0.76329400E+00</totfact>
</mgrwt>
</event>
<event>
 4    1  0.1701380E-008  0.3912888E+03  0.7818608E-02  0.1046838E+00
         -2   -1    0    0    0  501 -0.00000000000E+00  0.00000000000E+00  0.72109420737E+03  0.72109420737E+03  0.25500000000E-02 0.  1.
          2   -1    0    0  501    0  0.00000000000E+00 -0.00000000000E+00 -0.24228605604E+04  0.24228605604E+04  0.25500000000E-02 0. -1.
    8880022    1    1    2    0    0  0.15476152079E+03  0.32521400088E+03 -0.23524019079E+04  0.23847225549E+04  0.15294330000E+03 0.  0.
    8880022    1    1    2    0    0 -0.15476152079E+03 -0.32521400088E+03  0.65063555489E+03  0.75923221282E+03  0.15294330000E+03 0.  0.
<mgrwt>
<rscale>  0 0.39128880E+03</rscale>
<asrwt>0</asrwt>
<pdfrwt beam="1">  1        2 0.37274778E+00 0.39128880E+03</pdfrwt>
<pdfrwt beam="2">  1       -2 0.11093757E+00 0.39128880E+03</pdfrwt>
<totfact> 0.28610173E+00</totfact>
</mgrwt>
</event>
<event>
 4    1  0.1701380E-008  0.1492851E+04  0.7818608E-02  0.8889221E-01
          2   -1    0    0  501    0  0.00000000000E+00  0.00000000000E+00  0.12658050555E+04  0.12658050555E+04  0.25500000000E-02 0. -1.
         -2   -1    0    0    0  501 -0.00000000000E+00 -0.00000000000E+00 -0.20562042588E+04  0.20562042588E+04  0.25500000000E-02 0.  1.
    8880022    1    1    2    0    0 -0.14374015826E+04  0.37294561086E+03  0.23456375990E+03  0.15111662876E+04  0.15294330000E+03 0.  0.
    8880022    1    1    2    0    0  0.14374015826E+04 -0.37294561086E+03 -0.10249629632E+04  0.18108430267E+04  0.15294330000E+03 0.  0.
<mgrwt>
<rscale>  0 0.14928508E+04</rscale>
<asrwt>0</asrwt>
<pdfrwt beam="1">  1        2 0.19473924E+00 0.14928508E+04</pdfrwt>
<pdfrwt beam="2">  1       -2 0.31633912E+00 0.14928508E+04</pdfrwt>
<totfact> 0.41253019E-01</totfact>
</mgrwt>
</event>
<event>
 4    1  0.1701380E-008  0.7430986E+03  0.7818608E-02  0.9646240E-01
          2   -1    0    0  501    0  0.00000000000E+00  0.00000000000E+00  0.15489712929E+04  0.15489712929E+04  0.25500000000E-02 0. -1.
         -2   -1    0    0    0  501 -0.00000000000E+00 -0.00000000000E+00 -0.52772918409E+03  0.52772918409E+03  0.25500000000E-02 0.  1.
    8880022    1    1    2    0    0  0.68983071816E+03 -0.23008137255E+03  0.11020977628E+04  0.13292159303E+04  0.15294330000E+03 0.  0.
    8880022    1    1    2    0    0 -0.68983071816E+03  0.23008137255E+03 -0.80855653969E+02  0.74748454666E+03  0.15294330000E+03 0.  0.
<mgrwt>
<rscale>  0 0.74309859E+03</rscale>
<asrwt>0</asrwt>
<pdfrwt beam="1">  1        2 0.23830328E+00 0.74309859E+03</pdfrwt>
<pdfrwt beam="2">  1       -2 0.81189105E-01 0.74309859E+03</pdfrwt>
<totfact> 0.16341412E+01</totfact>
</mgrwt>
</event>
<event>
 4    1  0.1701380E-008  0.1046724E+04  0.7818608E-02  0.9258733E-01
          2   -1    0    0  501    0  0.00000000000E+00  0.00000000000E+00  0.24797697893E+04  0.24797697893E+04  0.25500000000E-02 0. -1.
         -2   -1    0    0    0  501 -0.00000000000E+00 -0.00000000000E+00 -0.67882169215E+03  0.67882169216E+03  0.25500000000E-02 0.  1.
    8880022    1    1    2    0    0 -0.10273027432E+04 -0.12995355826E+03  0.18336304773E+04  0.21113576755E+04  0.15294330000E+03 0.  0.
    8880022    1    1    2    0    0  0.10273027432E+04  0.12995355826E+03 -0.32682380185E+02  0.10472338060E+04  0.15294330000E+03 0.  0.
<mgrwt>
<rscale>  0 0.10467237E+04</rscale>
<asrwt>0</asrwt>
<pdfrwt beam="1">  1        2 0.38150304E+00 0.10467237E+04</pdfrwt>
<pdfrwt beam="2">  1       -2 0.10443411E+00 0.10467237E+04</pdfrwt>
<totfact> 0.26669325E+00</totfact>
</mgrwt>
</event>
<event>
 4    1  0.1701380E-008  0.1069980E+04  0.7818608E-02  0.9234956E-01
         -2   -1    0    0    0  501 -0.00000000000E+00  0.00000000000E+00  0.19002590289E+04  0.19002590289E+04  0.25500000000E-02 0.  1.
          2   -1    0    0  501    0  0.00000000000E+00 -0.00000000000E+00 -0.13022786329E+04  0.13022786329E+04  0.25500000000E-02 0. -1.
    8880022    1    1    2    0    0 -0.88986268307E+03 -0.57411592898E+03 -0.87482776154E+03  0.13820926018E+04  0.15294330000E+03 0.  0.
    8880022    1    1    2    0    0  0.88986268307E+03  0.57411592898E+03  0.14728081575E+04  0.18204450600E+04  0.15294330000E+03 0.  0.
<mgrwt>
<rscale>  0 0.10699796E+04</rscale>
<asrwt>0</asrwt>
<pdfrwt beam="1">  1        2 0.20035056E+00 0.10699796E+04</pdfrwt>
<pdfrwt beam="2">  1       -2 0.29234754E+00 0.10699796E+04</pdfrwt>
<totfact> 0.57916099E-01</totfact>
</mgrwt>
</event>
<event>
 4    1  0.1701380E-008  0.9491560E+03  0.7818608E-02  0.9366138E-01
          2   -1    0    0  501    0  0.00000000000E+00  0.00000000000E+00  0.13612837016E+04  0.13612837016E+04  0.25500000000E-02 0. -1.
         -2   -1    0    0    0  501 -0.00000000000E+00 -0.00000000000E+00 -0.11552420963E+04  0.11552420963E+04  0.25500000000E-02 0.  1.
    8880022    1    1    2    0    0  0.26867812934E+03 -0.89739486058E+03  0.92536403952E+03  0.13255925964E+04  0.15294330000E+03 0.  0.
    8880022    1    1    2    0    0 -0.26867812934E+03  0.89739486058E+03 -0.71932243426E+03  0.11909332015E+04  0.15294330000E+03 0.  0.
<mgrwt>
<rscale>  0 0.94915601E+03</rscale>
<asrwt>0</asrwt>
<pdfrwt beam="1">  1        2 0.20942826E+00 0.94915601E+03</pdfrwt>
<pdfrwt beam="2">  1       -2 0.17772955E+00 0.94915601E+03</pdfrwt>
<totfact> 0.28585889E+00</totfact>
</mgrwt>
</event>
<event>
 4    1  0.1701380E-008  0.6994928E+03  0.7818608E-02  0.9718100E-01
         -2   -1    0    0    0  501 -0.00000000000E+00  0.00000000000E+00  0.17373467118E+03  0.17373467120E+03  0.25500000000E-02 0.  1.
          2   -1    0    0  501    0  0.00000000000E+00 -0.00000000000E+00 -0.32891292469E+04  0.32891292469E+04  0.25500000000E-02 0. -1.
    8880022    1    1    2    0    0 -0.64583361402E+03 -0.22090162740E+03 -0.90122903193E+03  0.11408347851E+04  0.15294330000E+03 0.  0.
    8880022    1    1    2    0    0  0.64583361402E+03  0.22090162740E+03 -0.22141655438E+04  0.23220291330E+04  0.15294330000E+03 0.  0.
<mgrwt>
<rscale>  0 0.69949284E+03</rscale>
<asrwt>0</asrwt>
<pdfrwt beam="1">  1        2 0.50601984E+00 0.69949284E+03</pdfrwt>
<pdfrwt beam="2">  1       -2 0.26728413E-01 0.69949284E+03</pdfrwt>
<totfact> 0.15523178E+01</totfact>
</mgrwt>
</event>
<event>
 4    1  0.1701380E-008  0.4822661E+03  0.7818608E-02  0.1018514E+00
          2   -1    0    0  501    0  0.00000000000E+00  0.00000000000E+00  0.12765222286E+04  0.12765222286E+04  0.25500000000E-02 0. -1.
         -2   -1    0    0    0  501 -0.00000000000E+00 -0.00000000000E+00 -0.79930189024E+03  0.79930189024E+03  0.25500000000E-02 0.  1.
    8880022    1    1    2    0    0 -0.40518078623E+03  0.21217327943E+03  0.11505875195E+04  0.12475705444E+04  0.15294330000E+03 0.  0.
    8880022    1    1    2    0    0  0.40518078623E+03 -0.21217327943E+03 -0.67336718114E+03  0.82825357451E+03  0.15294330000E+03 0.  0.
<mgrwt>
<rscale>  0 0.48226613E+03</rscale>
<asrwt>0</asrwt>
<pdfrwt beam="1">  1        2 0.19638803E+00 0.48226613E+03</pdfrwt>
<pdfrwt beam="2">  1       -2 0.12296952E+00 0.48226613E+03</pdfrwt>
<totfact> 0.90947472E+00</totfact>
</mgrwt>
</event>
<event>
 4    1  0.1701380E-008  0.1271413E+04  0.7818608E-02  0.9052547E-01
         -2   -1    0    0    0  501 -0.00000000000E+00  0.00000000000E+00  0.10102789525E+04  0.10102789525E+04  0.25500000000E-02 0.  1.
          2   -1    0    0  501    0  0.00000000000E+00 -0.00000000000E+00 -0.19360510471E+04  0.19360510471E+04  0.25500000000E-02 0. -1.
    8880022    1    1    2    0    0  0.37271853680E+03  0.12058936877E+04  0.15082996973E+03  0.12803280933E+04  0.15294330000E+03 0.  0.
    8880022    1    1    2    0    0 -0.37271853680E+03 -0.12058936877E+04 -0.10766020644E+04  0.16660019063E+04  0.15294330000E+03 0.  0.
<mgrwt>
<rscale>  0 0.12714127E+04</rscale>
<asrwt>0</asrwt>
<pdfrwt beam="1">  1        2 0.29785401E+00 0.12714127E+04</pdfrwt>
<pdfrwt beam="2">  1       -2 0.15542753E+00 0.12714127E+04</pdfrwt>
<totfact> 0.19068660E+00</totfact>
</mgrwt>
</event>
<event>
 4    1  0.2543170E-008  0.1048917E+04  0.7818608E-02  0.9256463E-01
          2   -1    0    0  501    0  0.00000000000E+00  0.00000000000E+00  0.17296122248E+04  0.17296122248E+04  0.25500000000E-02 0. -1.
         -2   -1    0    0    0  501 -0.00000000000E+00 -0.00000000000E+00 -0.18843135126E+04  0.18843135126E+04  0.25500000000E-02 0.  1.
    8880022    1    1    2    0    0  0.88665270183E+03  0.53914859007E+03 -0.15480202678E+04  0.18699178106E+04  0.15294330000E+03 0.  0.
    8880022    1    1    2    0    0 -0.88665270183E+03 -0.53914859007E+03  0.13933189800E+04  0.17440079268E+04  0.15294330000E+03 0.  0.
<mgrwt>
<rscale>  0 0.10489165E+04</rscale>
<asrwt>0</asrwt>
<pdfrwt beam="1">  1        2 0.26609419E+00 0.10489165E+04</pdfrwt>
<pdfrwt beam="2">  1       -2 0.28989439E+00 0.10489165E+04</pdfrwt>
<totfact> 0.34509335E-01</totfact>
</mgrwt>
</event>
<event>
 4    1  0.1701380E-008  0.9138887E+03  0.7818608E-02  0.9408385E-01
         -2   -1    0    0    0  501 -0.00000000000E+00  0.00000000000E+00  0.84448440419E+03  0.84448440420E+03  0.25500000000E-02 0.  1.
          2   -1    0    0  501    0  0.00000000000E+00 -0.00000000000E+00 -0.19752080930E+04  0.19752080930E+04  0.25500000000E-02 0. -1.
    8880022    1    1    2    0    0  0.40154427366E+03  0.80657486362E+03  0.43084675439E+03  0.10103570622E+04  0.15294330000E+03 0.  0.
    8880022    1    1    2    0    0 -0.40154427366E+03 -0.80657486362E+03 -0.15615704432E+04  0.18093354350E+04  0.15294330000E+03 0.  0.
<mgrwt>
<rscale>  0 0.91388865E+03</rscale>
<asrwt>0</asrwt>
<pdfrwt beam="1">  1        2 0.30387817E+00 0.91388865E+03</pdfrwt>
<pdfrwt beam="2">  1       -2 0.12992068E+00 0.91388865E+03</pdfrwt>
<totfact> 0.30294829E+00</totfact>
</mgrwt>
</event>
<event>
 4    1  0.1701380E-008  0.6426220E+03  0.7818608E-02  0.9820723E-01
         -2   -1    0    0    0  501 -0.00000000000E+00  0.00000000000E+00  0.83793192397E+03  0.83793192397E+03  0.25500000000E-02 0.  1.
          2   -1    0    0  501    0  0.00000000000E+00 -0.00000000000E+00 -0.11262897785E+04  0.11262897785E+04  0.25500000000E-02 0. -1.
    8880022    1    1    2    0    0  0.23165809147E+03 -0.57957391336E+03  0.59235522999E+03  0.87398384648E+03  0.15294330000E+03 0.  1.
    8880022    1    1    2    0    0 -0.23165809147E+03  0.57957391336E+03 -0.88071308452E+03  0.10902378560E+04  0.15294330000E+03 0.  0.
<mgrwt>
<rscale>  0 0.64262201E+03</rscale>
<asrwt>0</asrwt>
<pdfrwt beam="1">  1        2 0.17327535E+00 0.64262201E+03</pdfrwt>
<pdfrwt beam="2">  1       -2 0.12891260E+00 0.64262201E+03</pdfrwt>
<totfact> 0.96275077E+00</totfact>
</mgrwt>
</event>
<event>
 4    1  0.1701380E-008  0.4545754E+03  0.7818608E-02  0.1026366E+00
          2   -1    0    0  501    0  0.00000000000E+00  0.00000000000E+00  0.23948085467E+04  0.23948085467E+04  0.25500000000E-02 0. -1.
         -2   -1    0    0    0  501 -0.00000000000E+00 -0.00000000000E+00 -0.19029975152E+03  0.19029975153E+03  0.25500000000E-02 0.  1.
    8880022    1    1    2    0    0 -0.24872507319E+03  0.34840054676E+03  0.20578513350E+04  0.21074607643E+04  0.15294330000E+03 0.  0.
    8880022    1    1    2    0    0  0.24872507319E+03 -0.34840054676E+03  0.14665746013E+03  0.47764753390E+03  0.15294330000E+03 0.  1.
<mgrwt>
<rscale>  0 0.45457536E+03</rscale>
<asrwt>0</asrwt>
<pdfrwt beam="1">  1        2 0.36843210E+00 0.45457536E+03</pdfrwt>
<pdfrwt beam="2">  1       -2 0.29276884E-01 0.45457536E+03</pdfrwt>
<totfact> 0.46912408E+01</totfact>
</mgrwt>
</event>
<event>
 4    1  0.1701380E-008  0.5361823E+03  0.7818608E-02  0.1004744E+00
          2   -1    0    0  501    0  0.00000000000E+00  0.00000000000E+00  0.19248887777E+04  0.19248887777E+04  0.25500000000E-02 0. -1.
         -2   -1    0    0    0  501 -0.00000000000E+00 -0.00000000000E+00 -0.37679151532E+03  0.37679151533E+03  0.25500000000E-02 0.  1.
    8880022    1    1    2    0    0  0.39870800268E+03  0.32424027720E+03 -0.12006904830E+03  0.54946160752E+03  0.15294330000E+03 0.  0.
    8880022    1    1    2    0    0 -0.39870800268E+03 -0.32424027720E+03  0.16681663106E+04  0.17522186855E+04  0.15294330000E+03 0.  0.
<mgrwt>
<rscale>  0 0.53618232E+03</rscale>
<asrwt>0</asrwt>
<pdfrwt beam="1">  1        2 0.29613674E+00 0.53618232E+03</pdfrwt>
<pdfrwt beam="2">  1       -2 0.57967925E-01 0.53618232E+03</pdfrwt>
<totfact> 0.21883424E+01</totfact>
</mgrwt>
</event>
<event>
 4    1  0.1701380E-008  0.5227828E+03  0.7818608E-02  0.1007998E+00
         -2   -1    0    0    0  501 -0.00000000000E+00  0.00000000000E+00  0.38886505631E+03  0.38886505632E+03  0.25500000000E-02 0.  1.
          2   -1    0    0  501    0  0.00000000000E+00 -0.00000000000E+00 -0.26971412672E+04  0.26971412672E+04  0.25500000000E-02 0. -1.
    8880022    1    1    2    0    0 -0.18040459690E+03 -0.46622355635E+03 -0.24809599189E+04  0.25354415779E+04  0.15294330000E+03 0.  0.
    8880022    1    1    2    0    0  0.18040459690E+03  0.46622355635E+03  0.17268370796E+03  0.55056474560E+03  0.15294330000E+03 0.  0.
<mgrwt>
<rscale>  0 0.52278282E+03</rscale>
<asrwt>0</asrwt>
<pdfrwt beam="1">  1        2 0.41494480E+00 0.52278282E+03</pdfrwt>
<pdfrwt beam="2">  1       -2 0.59825395E-01 0.52278282E+03</pdfrwt>
<totfact> 0.76963124E+00</totfact>
</mgrwt>
</event>
<event>
 4    1  0.2075503E-008  0.1022722E+04  0.7818608E-02  0.9283969E-01
         -2   -1    0    0    0  501 -0.00000000000E+00  0.00000000000E+00  0.18344897563E+04  0.18344897563E+04  0.25500000000E-02 0.  1.
          2   -1    0    0  501    0  0.00000000000E+00 -0.00000000000E+00 -0.18118979360E+04  0.18118979360E+04  0.25500000000E-02 0. -1.
    8880022    1    1    2    0    0 -0.38215350149E+03  0.93623077879E+03 -0.14980200361E+04  0.18138426204E+04  0.15294330000E+03 0.  0.
    8880022    1    1    2    0    0  0.38215350149E+03 -0.93623077879E+03  0.15206118564E+04  0.18325450720E+04  0.15294330000E+03 0.  0.
<mgrwt>
<rscale>  0 0.10227224E+04</rscale>
<asrwt>0</asrwt>
<pdfrwt beam="1">  1        2 0.27875353E+00 0.10227224E+04</pdfrwt>
<pdfrwt beam="2">  1       -2 0.28222919E+00 0.10227224E+04</pdfrwt>
<totfact> 0.34738178E-01</totfact>
</mgrwt>
</event>
<event>
 4    1  0.1701380E-008  0.9198456E+03  0.7818608E-02  0.9401108E-01
          2   -1    0    0  501    0  0.00000000000E+00  0.00000000000E+00  0.12487305201E+04  0.12487305201E+04  0.25500000000E-02 0. -1.
         -2   -1    0    0    0  501 -0.00000000000E+00 -0.00000000000E+00 -0.11260066042E+04  0.11260066042E+04  0.25500000000E-02 0.  1.
    8880022    1    1    2    0    0 -0.41922907542E+03 -0.80434527345E+03 -0.68794594139E+03  0.11486451183E+04  0.15294330000E+03 0.  0.
    8880022    1    1    2    0    0  0.41922907542E+03  0.80434527345E+03  0.81066985729E+03  0.12260920060E+04  0.15294330000E+03 0.  0.
<mgrwt>
<rscale>  0 0.91984563E+03</rscale>
<asrwt>0</asrwt>
<pdfrwt beam="1">  1        2 0.19211239E+00 0.91984563E+03</pdfrwt>
<pdfrwt beam="2">  1       -2 0.17323178E+00 0.91984563E+03</pdfrwt>
<totfact> 0.35853874E+00</totfact>
</mgrwt>
</event>
<event>
 4    1  0.1701380E-008  0.4972662E+03  0.7818608E-02  0.1014495E+00
         -2   -1    0    0    0  501 -0.00000000000E+00  0.00000000000E+00  0.16916374788E+04  0.16916374788E+04  0.25500000000E-02 0.  1.
          2   -1    0    0  501    0  0.00000000000E+00 -0.00000000000E+00 -0.28018145673E+03  0.28018145674E+03  0.25500000000E-02 0. -1.
    8880022    1    1    2    0    0 -0.44047101832E+02  0.47110704285E+03  0.23889376539E+02  0.49783968135E+03  0.15294330000E+03 0.  0.
    8880022    1    1    2    0    0  0.44047101832E+02 -0.47110704285E+03  0.13875666455E+04  0.14739792542E+04  0.15294330000E+03 0.  0.
<mgrwt>
<rscale>  0 0.49726617E+03</rscale>
<asrwt>0</asrwt>
<pdfrwt beam="1">  1        2 0.43104839E-01 0.49726617E+03</pdfrwt>
<pdfrwt beam="2">  1       -2 0.26025192E+00 0.49726617E+03</pdfrwt>
<totfact> 0.70280697E+00</totfact>
</mgrwt>
</event>
<event>
 4    1  0.1701380E-008  0.1751019E+04  0.7818608E-02  0.8732789E-01
          2   -1    0    0  501    0  0.00000000000E+00  0.00000000000E+00  0.41487556217E+04  0.41487556217E+04  0.25500000000E-02 0. -1.
         -2   -1    0    0    0  501 -0.00000000000E+00 -0.00000000000E+00 -0.23662014110E+04  0.23662014110E+04  0.25500000000E-02 0.  1.
    8880022    1    1    2    0    0 -0.15001418138E+04 -0.89008501604E+03 -0.18100173137E+04  0.25183786701E+04  0.15294330000E+03 0.  0.
    8880022    1    1    2    0    0  0.15001418138E+04  0.89008501604E+03  0.35925715244E+04  0.39965783625E+04  0.15294330000E+03 0.  0.
<mgrwt>
<rscale>  0 0.17510193E+04</rscale>
<asrwt>0</asrwt>
<pdfrwt beam="1">  1        2 0.63827009E+00 0.17510193E+04</pdfrwt>
<pdfrwt beam="2">  1       -2 0.36403099E+00 0.17510193E+04</pdfrwt>
<totfact> 0.29954057E-03</totfact>
</mgrwt>
</event>
<event>
 4    1  0.1701380E-008  0.7859997E+03  0.7818608E-02  0.9580506E-01
          2   -1    0    0  501    0  0.00000000000E+00  0.00000000000E+00  0.60404687420E+03  0.60404687420E+03  0.25500000000E-02 0. -1.
         -2   -1    0    0    0  501 -0.00000000000E+00 -0.00000000000E+00 -0.46120617591E+04  0.46120617591E+04  0.25500000000E-02 0.  1.
    8880022    1    1    2    0    0 -0.77077571724E+03  0.17567291470E+02  0.29676682744E+03  0.84015832966E+03  0.15294330000E+03 0. -1.
    8880022    1    1    2    0    0  0.77077571724E+03 -0.17567291470E+02 -0.43047817123E+04  0.43759503036E+04  0.15294330000E+03 0.  0.
<mgrwt>
<rscale>  0 0.78599966E+03</rscale>
<asrwt>0</asrwt>
<pdfrwt beam="1">  1        2 0.92930291E-01 0.78599966E+03</pdfrwt>
<pdfrwt beam="2">  1       -2 0.70954794E+00 0.78599966E+03</pdfrwt>
<totfact> 0.10966079E-02</totfact>
</mgrwt>
</event>
<event>
 4    1  0.1701380E-008  0.1204259E+04  0.7818608E-02  0.9109137E-01
         -2   -1    0    0    0  501 -0.00000000000E+00  0.00000000000E+00  0.89040431029E+03  0.89040431029E+03  0.25500000000E-02 0.  1.
          2   -1    0    0  501    0  0.00000000000E+00 -0.00000000000E+00 -0.19552004421E+04  0.19552004421E+04  0.25500000000E-02 0. -1.
    8880022    1    1    2    0    0 -0.11914317109E+04 -0.85661008290E+02  0.48985600297E+02  0.12052545673E+04  0.15294330000E+03 0.  0.
    8880022    1    1    2    0    0  0.11914317109E+04  0.85661008290E+02 -0.11137817321E+04  0.16403501851E+04  0.15294330000E+03 0.  0.
<mgrwt>
<rscale>  0 0.12042587E+04</rscale>
<asrwt>0</asrwt>
<pdfrwt beam="1">  1        2 0.30080007E+00 0.12042587E+04</pdfrwt>
<pdfrwt beam="2">  1       -2 0.13698528E+00 0.12042587E+04</pdfrwt>
<totfact> 0.26183856E+00</totfact>
</mgrwt>
</event>
<event>
 4    1  0.1701380E-008  0.6600353E+03  0.7818608E-02  0.9788129E-01
          2   -1    0    0  501    0  0.00000000000E+00  0.00000000000E+00  0.23365369166E+04  0.23365369166E+04  0.25500000000E-02 0. -1.
         -2   -1    0    0    0  501 -0.00000000000E+00 -0.00000000000E+00 -0.38316540224E+03  0.38316540225E+03  0.25500000000E-02 0.  1.
    8880022    1    1    2    0    0 -0.17213458066E+03 -0.61856659281E+03  0.23295621526E+01  0.66003941055E+03  0.15294330000E+03 0.  0.
    8880022    1    1    2    0    0  0.17213458066E+03  0.61856659281E+03  0.19510419522E+04  0.20596629083E+04  0.15294330000E+03 0.  0.
<mgrwt>
<rscale>  0 0.66003530E+03</rscale>
<asrwt>0</asrwt>
<pdfrwt beam="1">  1        2 0.35946721E+00 0.66003530E+03</pdfrwt>
<pdfrwt beam="2">  1       -2 0.58948525E-01 0.66003530E+03</pdfrwt>
<totfact> 0.12311435E+01</totfact>
</mgrwt>
</event>
<event>
 4    1  0.1701380E-008  0.1018717E+04  0.7818608E-02  0.9288251E-01
         -2   -1    0    0    0  501 -0.00000000000E+00  0.00000000000E+00  0.64621043239E+03  0.64621043240E+03  0.25500000000E-02 0.  1.
          2   -1    0    0  501    0  0.00000000000E+00 -0.00000000000E+00 -0.19775534763E+04  0.19775534763E+04  0.25500000000E-02 0. -1.
    8880022    1    1    2    0    0  0.10013354738E+04 -0.10825744751E+03 -0.96991017497E+02  0.10233236617E+04  0.15294330000E+03 0.  0.
    8880022    1    1    2    0    0 -0.10013354738E+04  0.10825744751E+03 -0.12343520264E+04  0.16004402470E+04  0.15294330000E+03 0.  0.
<mgrwt>
<rscale>  0 0.10187169E+04</rscale>
<asrwt>0</asrwt>
<pdfrwt beam="1">  1        2 0.30423899E+00 0.10187169E+04</pdfrwt>
<pdfrwt beam="2">  1       -2 0.99416991E-01 0.10187169E+04</pdfrwt>
<totfact> 0.57476606E+00</totfact>
</mgrwt>
</event>
<event>
 4    1  0.1701380E-008  0.1952053E+03  0.7818608E-02  0.1153849E+00
         -2   -1    0    0    0  501 -0.00000000000E+00  0.00000000000E+00  0.53002868515E+03  0.53002868515E+03  0.25500000000E-02 0.  1.
          2   -1    0    0  501    0  0.00000000000E+00 -0.00000000000E+00 -0.15648140743E+04  0.15648140743E+04  0.25500000000E-02 0. -1.
    8880022    1    1    2    0    0 -0.87380965933E+02 -0.84130878225E+02  0.50568486446E+03  0.54205375475E+03  0.15294330000E+03 0.  0.
    8880022    1    1    2    0    0  0.87380965933E+02  0.84130878225E+02 -0.15404702536E+04  0.15527890047E+04  0.15294330000E+03 0. -1.
<mgrwt>
<rscale>  0 0.19520525E+03</rscale>
<asrwt>0</asrwt>
<pdfrwt beam="1">  1        2 0.24074062E+00 0.19520525E+03</pdfrwt>
<pdfrwt beam="2">  1       -2 0.81542875E-01 0.19520525E+03</pdfrwt>
<totfact> 0.18098598E+01</totfact>
</mgrwt>
</event>
<event>
 4    1  0.1701380E-008  0.1501296E+04  0.7818608E-02  0.8883591E-01
         -2   -1    0    0    0  501 -0.00000000000E+00  0.00000000000E+00  0.20168385821E+04  0.20168385821E+04  0.25500000000E-02 0.  1.
          2   -1    0    0  501    0  0.00000000000E+00 -0.00000000000E+00 -0.22786126781E+04  0.22786126781E+04  0.25500000000E-02 0. -1.
    8880022    1    1    2    0    0  0.59620675800E+03  0.13693199053E+04  0.14022248820E+04  0.20542944712E+04  0.15294330000E+03 0.  0.
    8880022    1    1    2    0    0 -0.59620675800E+03 -0.13693199053E+04 -0.16639989780E+04  0.22411567891E+04  0.15294330000E+03 0.  0.
<mgrwt>
<rscale>  0 0.15012965E+04</rscale>
<asrwt>0</asrwt>
<pdfrwt beam="1">  1        2 0.35055580E+00 0.15012965E+04</pdfrwt>
<pdfrwt beam="2">  1       -2 0.31028286E+00 0.15012965E+04</pdfrwt>
<totfact> 0.12017440E-01</totfact>
</mgrwt>
</event>
<event>
 4    1  0.1701380E-008  0.1389815E+04  0.7818608E-02  0.8961224E-01
          2   -1    0    0  501    0  0.00000000000E+00  0.00000000000E+00  0.23923647912E+04  0.23923647912E+04  0.25500000000E-02 0. -1.
         -2   -1    0    0    0  501 -0.00000000000E+00 -0.00000000000E+00 -0.14282531673E+04  0.14282531673E+04  0.25500000000E-02 0.  1.
    8880022    1    1    2    0    0 -0.13330347513E+04  0.36223326510E+03 -0.77744020661E+03  0.15924821866E+04  0.15294330000E+03 0.  0.
    8880022    1    1    2    0    0  0.13330347513E+04 -0.36223326510E+03  0.17415518306E+04  0.22281357719E+04  0.15294330000E+03 0.  0.
<mgrwt>
<rscale>  0 0.13898152E+04</rscale>
<asrwt>0</asrwt>
<pdfrwt beam="1">  1        2 0.36805612E+00 0.13898152E+04</pdfrwt>
<pdfrwt beam="2">  1       -2 0.21973126E+00 0.13898152E+04</pdfrwt>
<totfact> 0.37878642E-01</totfact>
</mgrwt>
</event>
<event>
 4    1  0.1701380E-008  0.1082825E+04  0.7818608E-02  0.9222096E-01
         -2   -1    0    0    0  501 -0.00000000000E+00  0.00000000000E+00  0.13225309021E+04  0.13225309021E+04  0.25500000000E-02 0.  1.
          2   -1    0    0  501    0  0.00000000000E+00 -0.00000000000E+00 -0.24976825665E+04  0.24976825665E+04  0.25500000000E-02 0. -1.
    8880022    1    1    2    0    0  0.10231112841E+04 -0.31993901249E+03 -0.21216722645E+04  0.23820164824E+04  0.15294330000E+03 0.  0.
    8880022    1    1    2    0    0 -0.10231112841E+04  0.31993901249E+03  0.94652060009E+03  0.14381969861E+04  0.15294330000E+03 0.  1.
<mgrwt>
<rscale>  0 0.10828247E+04</rscale>
<asrwt>0</asrwt>
<pdfrwt beam="1">  1        2 0.38425886E+00 0.10828247E+04</pdfrwt>
<pdfrwt beam="2">  1       -2 0.20346629E+00 0.10828247E+04</pdfrwt>
<totfact> 0.43774562E-01</totfact>
</mgrwt>
</event>
<event>
 4    1  0.1701380E-008  0.3412090E+03  0.7818608E-02  0.1066282E+00
         -2   -1    0    0    0  501 -0.00000000000E+00  0.00000000000E+00  0.26331137670E+03  0.26331137671E+03  0.25500000000E-02 0.  1.
          2   -1    0    0  501    0  0.00000000000E+00 -0.00000000000E+00 -0.13619686706E+04  0.13619686706E+04  0.25500000000E-02 0. -1.
    8880022    1    1    2    0    0 -0.29532087820E+03 -0.76272612690E+02  0.11850046512E+03  0.36120070016E+03  0.15294330000E+03 0.  0.
    8880022    1    1    2    0    0  0.29532087820E+03  0.76272612690E+02 -0.12171577590E+04  0.12640793471E+04  0.15294330000E+03 0. -1.
<mgrwt>
<rscale>  0 0.34120901E+03</rscale>
<asrwt>0</asrwt>
<pdfrwt beam="1">  1        2 0.20953364E+00 0.34120901E+03</pdfrwt>
<pdfrwt beam="2">  1       -2 0.40509443E-01 0.34120901E+03</pdfrwt>
<totfact> 0.94079408E+01</totfact>
</mgrwt>
</event>
<event>
 4    1  0.1701380E-008  0.1358622E+04  0.7818608E-02  0.8984327E-01
          2   -1    0    0  501    0  0.00000000000E+00  0.00000000000E+00  0.22607240023E+04  0.22607240023E+04  0.25500000000E-02 0. -1.
         -2   -1    0    0    0  501 -0.00000000000E+00 -0.00000000000E+00 -0.14284574886E+04  0.14284574886E+04  0.25500000000E-02 0.  1.
    8880022    1    1    2    0    0  0.89095036576E+03 -0.10142340724E+04 -0.79121094943E+03  0.15722180915E+04  0.15294330000E+03 0.  0.
    8880022    1    1    2    0    0 -0.89095036576E+03  0.10142340724E+04  0.16234774632E+04  0.21169633994E+04  0.15294330000E+03 0.  0.
<mgrwt>
<rscale>  0 0.13586224E+04</rscale>
<asrwt>0</asrwt>
<pdfrwt beam="1">  1        2 0.34780369E+00 0.13586224E+04</pdfrwt>
<pdfrwt beam="2">  1       -2 0.21976269E+00 0.13586224E+04</pdfrwt>
<totfact> 0.45134477E-01</totfact>
</mgrwt>
</event>
<event>
 4    1  0.1701380E-008  0.4565928E+03  0.7818608E-02  0.1025774E+00
          2   -1    0    0  501    0  0.00000000000E+00  0.00000000000E+00  0.59708439824E+03  0.59708439824E+03  0.25500000000E-02 0. -1.
         -2   -1    0    0    0  501 -0.00000000000E+00 -0.00000000000E+00 -0.77297707445E+03  0.77297707445E+03  0.25500000000E-02 0.  1.
    8880022    1    1    2    0    0  0.23915715297E+03 -0.35761596344E+03 -0.59519025378E+03  0.75015225943E+03  0.15294330000E+03 0.  0.
    8880022    1    1    2    0    0 -0.23915715297E+03  0.35761596344E+03  0.41929757757E+03  0.61990921326E+03  0.15294330000E+03 0.  0.
<mgrwt>
<rscale>  0 0.45659279E+03</rscale>
<asrwt>0</asrwt>
<pdfrwt beam="1">  1        2 0.91859139E-01 0.45659279E+03</pdfrwt>
<pdfrwt beam="2">  1       -2 0.11891955E+00 0.45659279E+03</pdfrwt>
<totfact> 0.28300670E+01</totfact>
</mgrwt>
</event>
<event>
 4    1  0.1701380E-008  0.6283874E+03  0.7818608E-02  0.9848201E-01
          2   -1    0    0  501    0  0.00000000000E+00  0.00000000000E+00  0.21223395001E+04  0.21223395001E+04  0.25500000000E-02 0. -1.
         -2   -1    0    0    0  501 -0.00000000000E+00 -0.00000000000E+00 -0.44877684014E+03  0.44877684015E+03  0.25500000000E-02 0.  1.
    8880022    1    1    2    0    0  0.80006876126E+02 -0.60421682784E+03 -0.14683345951E+03  0.64531449164E+03  0.15294330000E+03 0.  0.
    8880022    1    1    2    0    0 -0.80006876126E+02  0.60421682784E+03  0.18203961194E+04  0.19258018486E+04  0.15294330000E+03 0.  0.
<mgrwt>
<rscale>  0 0.62838740E+03</rscale>
<asrwt>0</asrwt>
<pdfrwt beam="1">  1        2 0.32651376E+00 0.62838740E+03</pdfrwt>
<pdfrwt beam="2">  1       -2 0.69042593E-01 0.62838740E+03</pdfrwt>
<totfact> 0.11588743E+01</totfact>
</mgrwt>
</event>
<event>
 4    1  0.1701380E-008  0.7821223E+03  0.7818608E-02  0.9586261E-01
          2   -1    0    0  501    0  0.00000000000E+00  0.00000000000E+00  0.15697927003E+04  0.15697927003E+04  0.25500000000E-02 0. -1.
         -2   -1    0    0    0  501 -0.00000000000E+00 -0.00000000000E+00 -0.12129781353E+04  0.12129781353E+04  0.25500000000E-02 0.  1.
    8880022    1    1    2    0    0 -0.23612255702E+03  0.72977380623E+03  0.13247112050E+04  0.15383676738E+04  0.15294330000E+03 0.  0.
    8880022    1    1    2    0    0  0.23612255702E+03 -0.72977380623E+03 -0.96789664005E+03  0.12444031618E+04  0.15294330000E+03 0.  0.
<mgrwt>
<rscale>  0 0.78212232E+03</rscale>
<asrwt>0</asrwt>
<pdfrwt beam="1">  1        2 0.24150657E+00 0.78212232E+03</pdfrwt>
<pdfrwt beam="2">  1       -2 0.18661202E+00 0.78212232E+03</pdfrwt>
<totfact> 0.19439190E+00</totfact>
</mgrwt>
</event>
<event>
 4    1  0.1701380E-008  0.3246791E+03  0.7818608E-02  0.1073516E+00
         -2   -1    0    0    0  501 -0.00000000000E+00  0.00000000000E+00  0.24810593958E+03  0.24810593959E+03  0.25500000000E-02 0.  1.
          2   -1    0    0  501    0  0.00000000000E+00 -0.00000000000E+00 -0.12149972894E+04  0.12149972894E+04  0.25500000000E-02 0. -1.
    8880022    1    1    2    0    0  0.39245724553E+02 -0.28369817648E+03  0.10648595125E+03  0.34169546831E+03  0.15294330000E+03 0.  0.
    8880022    1    1    2    0    0 -0.39245724553E+02  0.28369817648E+03 -0.10733773011E+04  0.11214077607E+04  0.15294330000E+03 0. -1.
<mgrwt>
<rscale>  0 0.32467913E+03</rscale>
<asrwt>0</asrwt>
<pdfrwt beam="1">  1        2 0.18692266E+00 0.32467913E+03</pdfrwt>
<pdfrwt beam="2">  1       -2 0.38170145E-01 0.32467913E+03</pdfrwt>
<totfact> 0.12791526E+02</totfact>
</mgrwt>
</event>
<event>
 4    1  0.1701380E-008  0.6501203E+03  0.7818608E-02  0.9806553E-01
          2   -1    0    0  501    0  0.00000000000E+00  0.00000000000E+00  0.33698914468E+03  0.33698914469E+03  0.25500000000E-02 0. -1.
         -2   -1    0    0    0  501 -0.00000000000E+00 -0.00000000000E+00 -0.13591137507E+04  0.13591137507E+04  0.25500000000E-02 0.  1.
    8880022    1    1    2    0    0  0.62710353288E+03 -0.77498065046E+02 -0.27545872175E+03  0.70606936730E+03  0.15294330000E+03 0.  0.
    8880022    1    1    2    0    0 -0.62710353288E+03  0.77498065046E+02 -0.74666588431E+03  0.99003352814E+03  0.15294330000E+03 0.  0.
<mgrwt>
<rscale>  0 0.65012033E+03</rscale>
<asrwt>0</asrwt>
<pdfrwt beam="1">  1        2 0.51844484E-01 0.65012033E+03</pdfrwt>
<pdfrwt beam="2">  1       -2 0.20909442E+00 0.65012033E+03</pdfrwt>
<totfact> 0.11528686E+01</totfact>
</mgrwt>
</event>
<event>
 4    1  0.1701380E-008  0.6904382E+03  0.7818608E-02  0.9733725E-01
          2   -1    0    0  501    0  0.00000000000E+00  0.00000000000E+00  0.21968077777E+04  0.21968077777E+04  0.25500000000E-02 0. -1.
         -2   -1    0    0    0  501 -0.00000000000E+00 -0.00000000000E+00 -0.48308149397E+03  0.48308149397E+03  0.25500000000E-02 0.  1.
    8880022    1    1    2    0    0  0.65009556496E+03 -0.17518282499E+03 -0.13759124818E+03  0.70401439640E+03  0.15294330000E+03 0.  0.
    8880022    1    1    2    0    0 -0.65009556496E+03  0.17518282499E+03  0.18513175319E+04  0.19758748753E+04  0.15294330000E+03 0.  0.
<mgrwt>
<rscale>  0 0.69043821E+03</rscale>
<asrwt>0</asrwt>
<pdfrwt beam="1">  1        2 0.33797043E+00 0.69043821E+03</pdfrwt>
<pdfrwt beam="2">  1       -2 0.74320229E-01 0.69043821E+03</pdfrwt>
<totfact> 0.88790989E+00</totfact>
</mgrwt>
</event>
<event>
 4    1  0.1701380E-008  0.3269049E+03  0.7818608E-02  0.1072515E+00
         -2   -1    0    0    0  501 -0.00000000000E+00  0.00000000000E+00  0.62958178986E+03  0.62958178987E+03  0.25500000000E-02 0.  1.
          2   -1    0    0  501    0  0.00000000000E+00 -0.00000000000E+00 -0.26899662416E+04  0.26899662416E+04  0.25500000000E-02 0. -1.
    8880022    1    1    2    0    0 -0.11047012549E+02  0.28870937654E+03 -0.26367453638E+04  0.26569329889E+04  0.15294330000E+03 0.  0.
    8880022    1    1    2    0    0  0.11047012549E+02 -0.28870937654E+03  0.57636091213E+03  0.66261504257E+03  0.15294330000E+03 0.  0.
<mgrwt>
<rscale>  0 0.32690487E+03</rscale>
<asrwt>0</asrwt>
<pdfrwt beam="1">  1        2 0.41384096E+00 0.32690487E+03</pdfrwt>
<pdfrwt beam="2">  1       -2 0.96858738E-01 0.32690487E+03</pdfrwt>
<totfact> 0.28756032E+00</totfact>
</mgrwt>
</event>
<event>
 4    1  0.1701380E-008  0.4893465E+03  0.7818608E-02  0.1016598E+00
          2   -1    0    0  501    0  0.00000000000E+00  0.00000000000E+00  0.13091851809E+04  0.13091851809E+04  0.25500000000E-02 0. -1.
         -2   -1    0    0    0  501 -0.00000000000E+00 -0.00000000000E+00 -0.29582027096E+03  0.29582027097E+03  0.25500000000E-02 0.  1.
    8880022    1    1    2    0    0  0.38080743153E+03 -0.26655958063E+03  0.10024793783E+04  0.11155379271E+04  0.15294330000E+03 0.  0.
    8880022    1    1    2    0    0 -0.38080743153E+03  0.26655958063E+03  0.10885531619E+02  0.48946752471E+03  0.15294330000E+03 0.  0.
<mgrwt>
<rscale>  0 0.48934647E+03</rscale>
<asrwt>0</asrwt>
<pdfrwt beam="1">  1        2 0.20141310E+00 0.48934647E+03</pdfrwt>
<pdfrwt beam="2">  1       -2 0.45510812E-01 0.48934647E+03</pdfrwt>
<totfact> 0.78284806E+01</totfact>
</mgrwt>
</event>
<event>
 4    1  0.1701380E-008  0.9177746E+03  0.7818608E-02  0.9403631E-01
         -2   -1    0    0    0  501 -0.00000000000E+00  0.00000000000E+00  0.10945029719E+04  0.10945029719E+04  0.25500000000E-02 0.  1.
          2   -1    0    0  501    0  0.00000000000E+00 -0.00000000000E+00 -0.10524229640E+04  0.10524229640E+04  0.25500000000E-02 0. -1.
    8880022    1    1    2    0    0  0.68586090674E+03 -0.59035017191E+03 -0.53545696055E+03  0.10625555602E+04  0.15294330000E+03 0.  0.
    8880022    1    1    2    0    0 -0.68586090674E+03  0.59035017191E+03  0.57753696849E+03  0.10843703758E+04  0.15294330000E+03 0.  0.
<mgrwt>
<rscale>  0 0.91777457E+03</rscale>
<asrwt>0</asrwt>
<pdfrwt beam="1">  1        2 0.16191123E+00 0.91777457E+03</pdfrwt>
<pdfrwt beam="2">  1       -2 0.16838507E+00 0.91777457E+03</pdfrwt>
<totfact> 0.51045722E+00</totfact>
</mgrwt>
</event>
<event>
 4    1  0.1701380E-008  0.5770136E+03  0.7818608E-02  0.9954277E-01
         -2   -1    0    0    0  501 -0.00000000000E+00  0.00000000000E+00  0.20714260844E+04  0.20714260844E+04  0.25500000000E-02 0.  1.
          2   -1    0    0  501    0  0.00000000000E+00 -0.00000000000E+00 -0.17169183820E+04  0.17169183821E+04  0.25500000000E-02 0. -1.
    8880022    1    1    2    0    0 -0.54121848786E+03 -0.12897921126E+03  0.19805847618E+04  0.20629252871E+04  0.15294330000E+03 0.  0.
    8880022    1    1    2    0    0  0.54121848786E+03  0.12897921126E+03 -0.16260770594E+04  0.17254191794E+04  0.15294330000E+03 0.  0.
<mgrwt>
<rscale>  0 0.57701364E+03</rscale>
<asrwt>0</asrwt>
<pdfrwt beam="1">  1        2 0.26414129E+00 0.57701364E+03</pdfrwt>
<pdfrwt beam="2">  1       -2 0.31868094E+00 0.57701364E+03</pdfrwt>
<totfact> 0.26165945E-01</totfact>
</mgrwt>
</event>
<event>
 4    1  0.1701380E-008  0.8769397E+03  0.7818608E-02  0.9454876E-01
         -2   -1    0    0    0  501 -0.00000000000E+00  0.00000000000E+00  0.11301589939E+04  0.11301589939E+04  0.25500000000E-02 0.  1.
          2   -1    0    0  501    0  0.00000000000E+00 -0.00000000000E+00 -0.19868148396E+04  0.19868148396E+04  0.25500000000E-02 0. -1.
    8880022    1    1    2    0    0  0.45779872718E+03  0.73215569222E+03 -0.16920621098E+04  0.19058062516E+04  0.15294330000E+03 0.  0.
    8880022    1    1    2    0    0 -0.45779872718E+03 -0.73215569222E+03  0.83540626406E+03  0.12111675818E+04  0.15294330000E+03 0.  0.
<mgrwt>
<rscale>  0 0.87693973E+03</rscale>
<asrwt>0</asrwt>
<pdfrwt beam="1">  1        2 0.30566382E+00 0.87693973E+03</pdfrwt>
<pdfrwt beam="2">  1       -2 0.17387061E+00 0.87693973E+03</pdfrwt>
<totfact> 0.13821554E+00</totfact>
</mgrwt>
</event>
<event>
 4    1  0.1701380E-008  0.7356286E+03  0.7818608E-02  0.9658171E-01
          2   -1    0    0  501    0  0.00000000000E+00  0.00000000000E+00  0.22234728536E+04  0.22234728536E+04  0.25500000000E-02 0. -1.
         -2   -1    0    0    0  501 -0.00000000000E+00 -0.00000000000E+00 -0.12204192272E+04  0.12204192272E+04  0.25500000000E-02 0.  1.
    8880022    1    1    2    0    0  0.36123744928E+02  0.71864649968E+03  0.20422370326E+04  0.21706868652E+04  0.15294330000E+03 0.  0.
    8880022    1    1    2    0    0 -0.36123744928E+02 -0.71864649968E+03 -0.10391834061E+04  0.12732052156E+04  0.15294330000E+03 0.  0.
<mgrwt>
<rscale>  0 0.73562855E+03</rscale>
<asrwt>0</asrwt>
<pdfrwt beam="1">  1        2 0.34207274E+00 0.73562855E+03</pdfrwt>
<pdfrwt beam="2">  1       -2 0.18775681E+00 0.73562855E+03</pdfrwt>
<totfact> 0.84511851E-01</totfact>
</mgrwt>
</event>
<event>
 4    1  0.1701380E-008  0.2497790E+03  0.7818608E-02  0.1113445E+00
         -2   -1    0    0    0  501 -0.00000000000E+00  0.00000000000E+00  0.18032481140E+03  0.18032481142E+03  0.25500000000E-02 0.  1.
          2   -1    0    0  501    0  0.00000000000E+00 -0.00000000000E+00 -0.39984497421E+03  0.39984497422E+03  0.25500000000E-02 0. -1.
    8880022    1    1    2    0    0 -0.19727455530E+03  0.89802617500E+01 -0.21622715181E+03  0.33036908067E+03  0.15294330000E+03 0.  0.
    8880022    1    1    2    0    0  0.19727455530E+03 -0.89802617500E+01 -0.32930110040E+01  0.24980070497E+03  0.15294330000E+03 0.  0.
<mgrwt>
<rscale>  0 0.24977900E+03</rscale>
<asrwt>0</asrwt>
<pdfrwt beam="1">  1        2 0.61514611E-01 0.24977900E+03</pdfrwt>
<pdfrwt beam="2">  1       -2 0.27742279E-01 0.24977900E+03</pdfrwt>
<totfact> 0.94297324E+02</totfact>
</mgrwt>
</event>
<event>
 4    1  0.1701380E-008  0.5882621E+03  0.7818608E-02  0.9930062E-01
          2   -1    0    0  501    0  0.00000000000E+00  0.00000000000E+00  0.69075725112E+03  0.69075725113E+03  0.25500000000E-02 0. -1.
         -2   -1    0    0    0  501 -0.00000000000E+00 -0.00000000000E+00 -0.85224799433E+03  0.85224799434E+03  0.25500000000E-02 0.  1.
    8880022    1    1    2    0    0 -0.23026448713E+03  0.51926771602E+03  0.41456404511E+03  0.71966359881E+03  0.15294330000E+03 0.  0.
    8880022    1    1    2    0    0  0.23026448713E+03 -0.51926771602E+03 -0.57605478833E+03  0.82334164665E+03  0.15294330000E+03 0.  0.
<mgrwt>
<rscale>  0 0.58826214E+03</rscale>
<asrwt>0</asrwt>
<pdfrwt beam="1">  1        2 0.10627035E+00 0.58826214E+03</pdfrwt>
<pdfrwt beam="2">  1       -2 0.13111508E+00 0.58826214E+03</pdfrwt>
<totfact> 0.18274473E+01</totfact>
</mgrwt>
</event>
<event>
 4    1  0.1701380E-008  0.3448824E+04  0.7818608E-02  0.8126026E-01
          2   -1    0    0  501    0  0.00000000000E+00  0.00000000000E+00  0.33486143165E+04  0.33486143165E+04  0.25500000000E-02 0. -1.
         -2   -1    0    0    0  501 -0.00000000000E+00 -0.00000000000E+00 -0.38274693307E+04  0.38274693307E+04  0.25500000000E-02 0.  1.
    8880022    1    1    2    0    0  0.24760308325E+04  0.23958847183E+04 -0.12019554378E+04  0.36522706354E+04  0.15294330000E+03 0.  0.
    8880022    1    1    2    0    0 -0.24760308325E+04 -0.23958847183E+04  0.72310042364E+03  0.35238130118E+04  0.15294330000E+03 0.  0.
<mgrwt>
<rscale>  0 0.34488236E+04</rscale>
<asrwt>0</asrwt>
<pdfrwt beam="1">  1        2 0.51517143E+00 0.34488236E+04</pdfrwt>
<pdfrwt beam="2">  1       -2 0.58884143E+00 0.34488236E+04</pdfrwt>
<totfact> 0.43558671E-04</totfact>
</mgrwt>
</event>
<event>
 4    1  0.1701380E-008  0.5408408E+03  0.7818608E-02  0.1003636E+00
         -2   -1    0    0    0  501 -0.00000000000E+00  0.00000000000E+00  0.83683313097E+03  0.83683313097E+03  0.25500000000E-02 0.  1.
          2   -1    0    0  501    0  0.00000000000E+00 -0.00000000000E+00 -0.11904729204E+04  0.11904729204E+04  0.25500000000E-02 0. -1.
    8880022    1    1    2    0    0  0.28389695931E+03  0.43418852990E+03  0.67512120499E+03  0.86504188190E+03  0.15294330000E+03 0.  1.
    8880022    1    1    2    0    0 -0.28389695931E+03 -0.43418852990E+03 -0.10287609944E+04  0.11622641695E+04  0.15294330000E+03 0.  0.
<mgrwt>
<rscale>  0 0.54084084E+03</rscale>
<asrwt>0</asrwt>
<pdfrwt beam="1">  1        2 0.18314968E+00 0.54084084E+03</pdfrwt>
<pdfrwt beam="2">  1       -2 0.12874356E+00 0.54084084E+03</pdfrwt>
<totfact> 0.89939868E+00</totfact>
</mgrwt>
</event>
<event>
 4    1  0.1701380E-008  0.1633789E+04  0.7818608E-02  0.8800055E-01
         -2   -1    0    0    0  501 -0.00000000000E+00  0.00000000000E+00  0.16615810368E+04  0.16615810368E+04  0.25500000000E-02 0.  1.
          2   -1    0    0  501    0  0.00000000000E+00 -0.00000000000E+00 -0.22361657631E+04  0.22361657631E+04  0.25500000000E-02 0. -1.
    8880022    1    1    2    0    0  0.13965881177E+04 -0.83391629880E+03 -0.13214812197E+04  0.21013279209E+04  0.15294330000E+03 0.  0.
    8880022    1    1    2    0    0 -0.13965881177E+04  0.83391629880E+03  0.74689649348E+03  0.17964188790E+04  0.15294330000E+03 0.  0.
<mgrwt>
<rscale>  0 0.16337890E+04</rscale>
<asrwt>0</asrwt>
<pdfrwt beam="1">  1        2 0.34402550E+00 0.16337890E+04</pdfrwt>
<pdfrwt beam="2">  1       -2 0.25562785E+00 0.16337890E+04</pdfrwt>
<totfact> 0.26999533E-01</totfact>
</mgrwt>
</event>
<event>
 4    1  0.1701380E-008  0.1685465E+04  0.7818608E-02  0.8769698E-01
         -2   -1    0    0    0  501 -0.00000000000E+00  0.00000000000E+00  0.20991289634E+04  0.20991289634E+04  0.25500000000E-02 0.  1.
          2   -1    0    0  501    0  0.00000000000E+00 -0.00000000000E+00 -0.16349205319E+04  0.16349205319E+04  0.25500000000E-02 0. -1.
    8880022    1    1    2    0    0  0.16769633590E+04  0.72080966607E+02  0.10069555874E+04  0.19633524853E+04  0.15294330000E+03 0.  0.
    8880022    1    1    2    0    0 -0.16769633590E+04 -0.72080966607E+02 -0.54274715597E+03  0.17706970101E+04  0.15294330000E+03 0.  0.
<mgrwt>
<rscale>  0 0.16854653E+04</rscale>
<asrwt>0</asrwt>
<pdfrwt beam="1">  1        2 0.25152624E+00 0.16854653E+04</pdfrwt>
<pdfrwt beam="2">  1       -2 0.32294292E+00 0.16854653E+04</pdfrwt>
<totfact> 0.22562901E-01</totfact>
</mgrwt>
</event>
<event>
 4    1  0.1701380E-008  0.1232037E+04  0.7818608E-02  0.9085268E-01
         -2   -1    0    0    0  501 -0.00000000000E+00  0.00000000000E+00  0.12810084888E+04  0.12810084888E+04  0.25500000000E-02 0.  1.
          2   -1    0    0  501    0  0.00000000000E+00 -0.00000000000E+00 -0.19707835645E+04  0.19707835645E+04  0.25500000000E-02 0. -1.
    8880022    1    1    2    0    0 -0.88749033952E+03  0.84076396772E+03 -0.13715840492E+04  0.18436804521E+04  0.15294330000E+03 0.  0.
    8880022    1    1    2    0    0  0.88749033952E+03 -0.84076396772E+03  0.68180897351E+03  0.14081116012E+04  0.15294330000E+03 0.  0.
<mgrwt>
<rscale>  0 0.12320369E+04</rscale>
<asrwt>0</asrwt>
<pdfrwt beam="1">  1        2 0.30319747E+00 0.12320369E+04</pdfrwt>
<pdfrwt beam="2">  1       -2 0.19707823E+00 0.12320369E+04</pdfrwt>
<totfact> 0.93290687E-01</totfact>
</mgrwt>
</event>
<event>
 4    1  0.1701380E-008  0.7959074E+03  0.7818608E-02  0.9565960E-01
         -2   -1    0    0    0  501 -0.00000000000E+00  0.00000000000E+00  0.73995296617E+03  0.73995296618E+03  0.25500000000E-02 0.  1.
          2   -1    0    0  501    0  0.00000000000E+00 -0.00000000000E+00 -0.12233700850E+04  0.12233700850E+04  0.25500000000E-02 0. -1.
    8880022    1    1    2    0    0 -0.70008751370E+03  0.34634426438E+03  0.29616448288E+03  0.84922431091E+03  0.15294330000E+03 0.  0.
    8880022    1    1    2    0    0  0.70008751370E+03 -0.34634426438E+03 -0.77958160169E+03  0.11140987403E+04  0.15294330000E+03 0.  0.
<mgrwt>
<rscale>  0 0.79590736E+03</rscale>
<asrwt>0</asrwt>
<pdfrwt beam="1">  1        2 0.18821078E+00 0.79590736E+03</pdfrwt>
<pdfrwt beam="2">  1       -2 0.11383892E+00 0.79590736E+03</pdfrwt>
<totfact> 0.11246490E+01</totfact>
</mgrwt>
</event>
<event>
 4    1  0.1701380E-008  0.2151129E+04  0.7818608E-02  0.8539049E-01
         -2   -1    0    0    0  501 -0.00000000000E+00  0.00000000000E+00  0.12031021505E+04  0.12031021505E+04  0.25500000000E-02 0.  1.
          2   -1    0    0  501    0  0.00000000000E+00 -0.00000000000E+00 -0.43206784500E+04  0.43206784500E+04  0.25500000000E-02 0. -1.
    8880022    1    1    2    0    0  0.15884791115E+04  0.14424630007E+04 -0.64352876377E+03  0.22453254372E+04  0.15294330000E+03 0.  0.
    8880022    1    1    2    0    0 -0.15884791115E+04 -0.14424630007E+04 -0.24740475357E+04  0.32784551633E+04  0.15294330000E+03 0.  0.
<mgrwt>
<rscale>  0 0.21511292E+04</rscale>
<asrwt>0</asrwt>
<pdfrwt beam="1">  1        2 0.66471975E+00 0.21511292E+04</pdfrwt>
<pdfrwt beam="2">  1       -2 0.18509264E+00 0.21511292E+04</pdfrwt>
<totfact> 0.26924091E-02</totfact>
</mgrwt>
</event>
<event>
 4    1  0.1701380E-008  0.7070145E+03  0.7818608E-02  0.9705311E-01
         -2   -1    0    0    0  501 -0.00000000000E+00  0.00000000000E+00  0.14739458521E+04  0.14739458522E+04  0.25500000000E-02 0.  1.
          2   -1    0    0  501    0  0.00000000000E+00 -0.00000000000E+00 -0.75832900596E+03  0.75832900596E+03  0.25500000000E-02 0. -1.
    8880022    1    1    2    0    0 -0.31098284759E+03  0.61625277296E+03 -0.47203350278E+03  0.85010887093E+03  0.15294330000E+03 0.  0.
    8880022    1    1    2    0    0  0.31098284759E+03 -0.61625277296E+03  0.11876503490E+04  0.13821659872E+04  0.15294330000E+03 0.  0.
<mgrwt>
<rscale>  0 0.70701447E+03</rscale>
<asrwt>0</asrwt>
<pdfrwt beam="1">  1        2 0.11666600E+00 0.70701447E+03</pdfrwt>
<pdfrwt beam="2">  1       -2 0.22676090E+00 0.70701447E+03</pdfrwt>
<totfact> 0.34204788E+00</totfact>
</mgrwt>
</event>
<event>
 4    1  0.1701380E-008  0.6573002E+03  0.7818608E-02  0.9793177E-01
         -2   -1    0    0    0  501 -0.00000000000E+00  0.00000000000E+00  0.15590271356E+04  0.15590271356E+04  0.25500000000E-02 0.  1.
          2   -1    0    0  501    0  0.00000000000E+00 -0.00000000000E+00 -0.43159299854E+03  0.43159299855E+03  0.25500000000E-02 0. -1.
    8880022    1    1    2    0    0 -0.59881894143E+03 -0.22375817743E+03  0.11591627777E+04  0.13325546311E+04  0.15294330000E+03 0.  0.
    8880022    1    1    2    0    0  0.59881894143E+03  0.22375817743E+03 -0.31728640723E+02  0.65806550300E+03  0.15294330000E+03 0.  0.
<mgrwt>
<rscale>  0 0.65730016E+03</rscale>
<asrwt>0</asrwt>
<pdfrwt beam="1">  1        2 0.66398922E-01 0.65730016E+03</pdfrwt>
<pdfrwt beam="2">  1       -2 0.23985033E+00 0.65730016E+03</pdfrwt>
<totfact> 0.56261258E+00</totfact>
</mgrwt>
</event>
<event>
 4    1  0.1701380E-008  0.1178382E+04  0.7818608E-02  0.9131992E-01
          2   -1    0    0  501    0  0.00000000000E+00  0.00000000000E+00  0.30679044667E+04  0.30679044667E+04  0.25500000000E-02 0. -1.
         -2   -1    0    0    0  501 -0.00000000000E+00 -0.00000000000E+00 -0.60391541363E+03  0.60391541363E+03  0.25500000000E-02 0.  1.
    8880022    1    1    2    0    0  0.71707558805E+03 -0.92249425097E+03  0.21509214605E+04  0.24525594436E+04  0.15294330000E+03 0.  0.
    8880022    1    1    2    0    0 -0.71707558805E+03  0.92249425097E+03  0.31306759254E+03  0.12192604367E+04  0.15294330000E+03 0.  0.
<mgrwt>
<rscale>  0 0.11783822E+04</rscale>
<asrwt>0</asrwt>
<pdfrwt beam="1">  1        2 0.47198529E+00 0.11783822E+04</pdfrwt>
<pdfrwt beam="2">  1       -2 0.92910065E-01 0.11783822E+04</pdfrwt>
<totfact> 0.15417460E+00</totfact>
</mgrwt>
</event>
<event>
 4    1  0.1701380E-008  0.4612826E+03  0.7818608E-02  0.1024410E+00
          2   -1    0    0  501    0  0.00000000000E+00  0.00000000000E+00  0.21970264110E+04  0.21970264110E+04  0.25500000000E-02 0. -1.
         -2   -1    0    0    0  501 -0.00000000000E+00 -0.00000000000E+00 -0.14516255784E+03  0.14516255786E+03  0.25500000000E-02 0.  1.
    8880022    1    1    2    0    0 -0.28247529544E+03 -0.33105547177E+03  0.17015407838E+04  0.17629585105E+04  0.15294330000E+03 0.  0.
    8880022    1    1    2    0    0  0.28247529544E+03  0.33105547177E+03  0.35032306940E+03  0.57923045836E+03  0.15294330000E+03 0.  0.
<mgrwt>
<rscale>  0 0.46128264E+03</rscale>
<asrwt>0</asrwt>
<pdfrwt beam="1">  1        2 0.33800404E+00 0.46128264E+03</pdfrwt>
<pdfrwt beam="2">  1       -2 0.22332703E-01 0.46128264E+03</pdfrwt>
<totfact> 0.97712786E+01</totfact>
</mgrwt>
</event>
<event>
 4    1  0.1701380E-008  0.6848400E+03  0.7818608E-02  0.9743515E-01
         -2   -1    0    0    0  501 -0.00000000000E+00  0.00000000000E+00  0.16295209030E+03  0.16295209032E+03  0.25500000000E-02 0.  1.
          2   -1    0    0  501    0  0.00000000000E+00 -0.00000000000E+00 -0.36620677586E+04  0.36620677586E+04  0.25500000000E-02 0. -1.
    8880022    1    1    2    0    0  0.46898906238E+03  0.47504038607E+03 -0.86471341555E+03  0.11030571395E+04  0.15294330000E+03 0.  0.
    8880022    1    1    2    0    0 -0.46898906238E+03 -0.47504038607E+03 -0.26344022527E+04  0.27219627094E+04  0.15294330000E+03 0.  0.
<mgrwt>
<rscale>  0 0.68483995E+03</rscale>
<asrwt>0</asrwt>
<pdfrwt beam="1">  1        2 0.56339498E+00 0.68483995E+03</pdfrwt>
<pdfrwt beam="2">  1       -2 0.25069555E-01 0.68483995E+03</pdfrwt>
<totfact> 0.97735084E+00</totfact>
</mgrwt>
</event>
<event>
 4    1  0.1701380E-008  0.8195255E+03  0.7818608E-02  0.9532177E-01
          2   -1    0    0  501    0  0.00000000000E+00  0.00000000000E+00  0.21813545729E+04  0.21813545729E+04  0.25500000000E-02 0. -1.
         -2   -1    0    0    0  501 -0.00000000000E+00 -0.00000000000E+00 -0.90107674285E+03  0.90107674286E+03  0.25500000000E-02 0.  1.
    8880022    1    1    2    0    0 -0.77764341713E+03 -0.20856929109E+03  0.18906208740E+04  0.20605992759E+04  0.15294330000E+03 0.  0.
    8880022    1    1    2    0    0  0.77764341713E+03  0.20856929109E+03 -0.61034304398E+03  0.10218320399E+04  0.15294330000E+03 0.  0.
<mgrwt>
<rscale>  0 0.81952553E+03</rscale>
<asrwt>0</asrwt>
<pdfrwt beam="1">  1        2 0.33559301E+00 0.81952553E+03</pdfrwt>
<pdfrwt beam="2">  1       -2 0.13862719E+00 0.81952553E+03</pdfrwt>
<totfact> 0.20059507E+00</totfact>
</mgrwt>
</event>
<event>
 4    1  0.2472046E-008  0.1273611E+04  0.7818608E-02  0.9050758E-01
         -2   -1    0    0    0  501 -0.00000000000E+00  0.00000000000E+00  0.12794315109E+04  0.12794315109E+04  0.25500000000E-02 0.  1.
          2   -1    0    0  501    0  0.00000000000E+00 -0.00000000000E+00 -0.27734565339E+04  0.27734565339E+04  0.25500000000E-02 0. -1.
    8880022    1    1    2    0    0  0.37422836778E+03 -0.12077441411E+04  0.74607237800E+03  0.14760448597E+04  0.15294330000E+03 0.  0.
    8880022    1    1    2    0    0 -0.37422836778E+03  0.12077441411E+04 -0.22400974010E+04  0.25768431851E+04  0.15294330000E+03 0.  0.
<mgrwt>
<rscale>  0 0.12736108E+04</rscale>
<asrwt>0</asrwt>
<pdfrwt beam="1">  1        2 0.42668562E+00 0.12736108E+04</pdfrwt>
<pdfrwt beam="2">  1       -2 0.19683562E+00 0.12736108E+04</pdfrwt>
<totfact> 0.32442539E-01</totfact>
</mgrwt>
</event>
<event>
 4    1  0.1701380E-008  0.5405862E+03  0.7818608E-02  0.1003697E+00
         -2   -1    0    0    0  501 -0.00000000000E+00  0.00000000000E+00  0.27195665496E+03  0.27195665497E+03  0.25500000000E-02 0.  1.
          2   -1    0    0  501    0  0.00000000000E+00 -0.00000000000E+00 -0.25646952636E+04  0.25646952636E+04  0.25500000000E-02 0. -1.
    8880022    1    1    2    0    0 -0.29613470196E+03 -0.42561257396E+03 -0.65256141074E+02  0.54451064432E+03  0.15294330000E+03 0.  0.
    8880022    1    1    2    0    0  0.29613470196E+03  0.42561257396E+03 -0.22274824676E+04  0.22921412743E+04  0.15294330000E+03 0.  0.
<mgrwt>
<rscale>  0 0.54058624E+03</rscale>
<asrwt>0</asrwt>
<pdfrwt beam="1">  1        2 0.39456849E+00 0.54058624E+03</pdfrwt>
<pdfrwt beam="2">  1       -2 0.41839487E-01 0.54058624E+03</pdfrwt>
<totfact> 0.18820680E+01</totfact>
</mgrwt>
</event>
<event>
 4    1  0.1701380E-008  0.3890182E+03  0.7818608E-02  0.1047650E+00
          2   -1    0    0  501    0  0.00000000000E+00  0.00000000000E+00  0.12105242345E+04  0.12105242345E+04  0.25500000000E-02 0. -1.
         -2   -1    0    0    0  501 -0.00000000000E+00 -0.00000000000E+00 -0.23669358068E+03  0.23669358069E+03  0.25500000000E-02 0.  1.
    8880022    1    1    2    0    0  0.75783912674E+02  0.34957163801E+03 -0.10126803801E+02  0.38915001824E+03  0.15294330000E+03 0.  0.
    8880022    1    1    2    0    0 -0.75783912674E+02 -0.34957163801E+03  0.98395745765E+03  0.10580677970E+04  0.15294330000E+03 0.  0.
<mgrwt>
<rscale>  0 0.38901823E+03</rscale>
<asrwt>0</asrwt>
<pdfrwt beam="1">  1        2 0.18623450E+00 0.38901823E+03</pdfrwt>
<pdfrwt beam="2">  1       -2 0.36414396E-01 0.38901823E+03</pdfrwt>
<totfact> 0.13932256E+02</totfact>
</mgrwt>
</event>
<event>
 4    1  0.1701380E-008  0.8727799E+03  0.7818608E-02  0.9460262E-01
         -2   -1    0    0    0  501 -0.00000000000E+00  0.00000000000E+00  0.36830315374E+03  0.36830315375E+03  0.25500000000E-02 0.  1.
          2   -1    0    0  501    0  0.00000000000E+00 -0.00000000000E+00 -0.21135170566E+04  0.21135170566E+04  0.25500000000E-02 0. -1.
    8880022    1    1    2    0    0 -0.23240179500E+03  0.82725001836E+03 -0.10542022380E+04  0.13686077593E+04  0.15294330000E+03 0.  0.
    8880022    1    1    2    0    0  0.23240179500E+03 -0.82725001836E+03 -0.69101166489E+03  0.11132124511E+04  0.15294330000E+03 0.  1.
<mgrwt>
<rscale>  0 0.87277995E+03</rscale>
<asrwt>0</asrwt>
<pdfrwt beam="1">  1        2 0.32515646E+00 0.87277995E+03</pdfrwt>
<pdfrwt beam="2">  1       -2 0.56662025E-01 0.87277995E+03</pdfrwt>
<totfact> 0.17210191E+01</totfact>
</mgrwt>
</event>
<event>
 4    1  0.1701380E-008  0.9954612E+03  0.7818608E-02  0.9313537E-01
          2   -1    0    0  501    0  0.00000000000E+00  0.00000000000E+00  0.94047556395E+03  0.94047556395E+03  0.25500000000E-02 0. -1.
         -2   -1    0    0    0  501 -0.00000000000E+00 -0.00000000000E+00 -0.14077013678E+04  0.14077013678E+04  0.25500000000E-02 0.  1.
    8880022    1    1    2    0    0 -0.61768966574E+03  0.76551338382E+03 -0.82241808586E+03  0.12912453001E+04  0.15294330000E+03 0.  0.
    8880022    1    1    2    0    0  0.61768966574E+03 -0.76551338382E+03  0.35519228198E+03  0.10569316317E+04  0.15294330000E+03 0.  0.
<mgrwt>
<rscale>  0 0.99546116E+03</rscale>
<asrwt>0</asrwt>
<pdfrwt beam="1">  1        2 0.14468855E+00 0.99546116E+03</pdfrwt>
<pdfrwt beam="2">  1       -2 0.21656944E+00 0.99546116E+03</pdfrwt>
<totfact> 0.28455529E+00</totfact>
</mgrwt>
</event>
<event>
 4    1  0.1701380E-008  0.8498627E+03  0.7818608E-02  0.9490521E-01
          2   -1    0    0  501    0  0.00000000000E+00  0.00000000000E+00  0.26183628402E+04  0.26183628402E+04  0.25500000000E-02 0. -1.
         -2   -1    0    0    0  501 -0.00000000000E+00 -0.00000000000E+00 -0.37144188929E+03  0.37144188930E+03  0.25500000000E-02 0.  1.
    8880022    1    1    2    0    0  0.80941150745E+03 -0.20911249188E+03  0.18818380309E+04  0.20648440740E+04  0.15294330000E+03 0.  0.
    8880022    1    1    2    0    0 -0.80941150745E+03  0.20911249188E+03  0.36508292007E+03  0.92496065549E+03  0.15294330000E+03 0.  0.
<mgrwt>
<rscale>  0 0.84986274E+03</rscale>
<asrwt>0</asrwt>
<pdfrwt beam="1">  1        2 0.40282504E+00 0.84986274E+03</pdfrwt>
<pdfrwt beam="2">  1       -2 0.57144908E-01 0.84986274E+03</pdfrwt>
<totfact> 0.88219532E+00</totfact>
</mgrwt>
</event>
<event>
 4    1  0.1701380E-008  0.1003623E+04  0.7818608E-02  0.9304580E-01
         -2   -1    0    0    0  501 -0.00000000000E+00  0.00000000000E+00  0.23560393570E+04  0.23560393570E+04  0.25500000000E-02 0.  1.
          2   -1    0    0  501    0  0.00000000000E+00 -0.00000000000E+00 -0.14382744866E+04  0.14382744866E+04  0.25500000000E-02 0. -1.
    8880022    1    1    2    0    0 -0.69525546060E+03  0.70745121861E+03  0.20492764813E+04  0.22818398568E+04  0.15294330000E+03 0.  0.
    8880022    1    1    2    0    0  0.69525546060E+03 -0.70745121861E+03 -0.11315116108E+04  0.15124739868E+04  0.15294330000E+03 0.  0.
<mgrwt>
<rscale>  0 0.10036230E+04</rscale>
<asrwt>0</asrwt>
<pdfrwt beam="1">  1        2 0.22127300E+00 0.10036230E+04</pdfrwt>
<pdfrwt beam="2">  1       -2 0.36246759E+00 0.10036230E+04</pdfrwt>
<totfact> 0.18086586E-01</totfact>
</mgrwt>
</event>
<event>
 4    1  0.1701380E-008  0.8328559E+03  0.7818608E-02  0.9513641E-01
          2   -1    0    0  501    0  0.00000000000E+00  0.00000000000E+00  0.23591517354E+04  0.23591517354E+04  0.25500000000E-02 0. -1.
         -2   -1    0    0    0  501 -0.00000000000E+00 -0.00000000000E+00 -0.54416024704E+03  0.54416024705E+03  0.25500000000E-02 0.  1.
    8880022    1    1    2    0    0 -0.71978451492E+03 -0.39008656071E+03 -0.76714759692E+02  0.83638153981E+03  0.15294330000E+03 0.  0.
    8880022    1    1    2    0    0  0.71978451492E+03  0.39008656071E+03  0.18917062480E+04  0.20669304426E+04  0.15294330000E+03 0.  0.
<mgrwt>
<rscale>  0 0.83285589E+03</rscale>
<asrwt>0</asrwt>
<pdfrwt beam="1">  1        2 0.36294642E+00 0.83285589E+03</pdfrwt>
<pdfrwt beam="2">  1       -2 0.83716961E-01 0.83285589E+03</pdfrwt>
<totfact> 0.53974768E+00</totfact>
</mgrwt>
</event>
<event>
 4    1  0.1701380E-008  0.1154981E+04  0.7818608E-02  0.9153200E-01
          2   -1    0    0  501    0  0.00000000000E+00  0.00000000000E+00  0.13234878106E+04  0.13234878106E+04  0.25500000000E-02 0. -1.
         -2   -1    0    0    0  501 -0.00000000000E+00 -0.00000000000E+00 -0.14543788070E+04  0.14543788070E+04  0.25500000000E-02 0.  1.
    8880022    1    1    2    0    0 -0.86036389957E+03  0.75522464453E+03 -0.83498136541E+03  0.14251932630E+04  0.15294330000E+03 0.  0.
    8880022    1    1    2    0    0  0.86036389957E+03 -0.75522464453E+03  0.70409036898E+03  0.13526733545E+04  0.15294330000E+03 0.  0.
<mgrwt>
<rscale>  0 0.11549814E+04</rscale>
<asrwt>0</asrwt>
<pdfrwt beam="1">  1        2 0.20361351E+00 0.11549814E+04</pdfrwt>
<pdfrwt beam="2">  1       -2 0.22375059E+00 0.11549814E+04</pdfrwt>
<totfact> 0.14627626E+00</totfact>
</mgrwt>
</event>
<event>
 4    1  0.1701380E-008  0.1798364E+04  0.7818608E-02  0.8707170E-01
          2   -1    0    0  501    0  0.00000000000E+00  0.00000000000E+00  0.15044726569E+04  0.15044726569E+04  0.25500000000E-02 0. -1.
         -2   -1    0    0    0  501 -0.00000000000E+00 -0.00000000000E+00 -0.25811771526E+04  0.25811771526E+04  0.25500000000E-02 0.  1.
    8880022    1    1    2    0    0  0.11803441150E+04  0.13481502373E+04 -0.13736061413E+04  0.22629420622E+04  0.15294330000E+03 0.  0.
    8880022    1    1    2    0    0 -0.11803441150E+04 -0.13481502373E+04  0.29690164557E+03  0.18227077474E+04  0.15294330000E+03 0.  0.
<mgrwt>
<rscale>  0 0.17983640E+04</rscale>
<asrwt>0</asrwt>
<pdfrwt beam="1">  1        2 0.23145733E+00 0.17983640E+04</pdfrwt>
<pdfrwt beam="2">  1       -2 0.39710418E+00 0.17983640E+04</pdfrwt>
<totfact> 0.89186574E-02</totfact>
</mgrwt>
</event>
<event>
 4    1  0.1701380E-008  0.2725234E+03  0.7818608E-02  0.1099844E+00
         -2   -1    0    0    0  501 -0.00000000000E+00  0.00000000000E+00  0.21787667577E+03  0.21787667579E+03  0.25500000000E-02 0.  1.
          2   -1    0    0  501    0  0.00000000000E+00 -0.00000000000E+00 -0.10386775723E+04  0.10386775723E+04  0.25500000000E-02 0. -1.
    8880022    1    1    2    0    0 -0.42115238699E+02  0.22159346197E+03  0.10456338508E+03  0.29189469031E+03  0.15294330000E+03 0.  0.
    8880022    1    1    2    0    0  0.42115238699E+02 -0.22159346197E+03 -0.92536428159E+03  0.96465955776E+03  0.15294330000E+03 0.  0.
<mgrwt>
<rscale>  0 0.27252341E+03</rscale>
<asrwt>0</asrwt>
<pdfrwt beam="1">  1        2 0.15979655E+00 0.27252341E+03</pdfrwt>
<pdfrwt beam="2">  1       -2 0.33519489E-01 0.27252341E+03</pdfrwt>
<totfact> 0.20906154E+02</totfact>
</mgrwt>
</event>
<event>
 4    1  0.1701380E-008  0.8883806E+03  0.7818608E-02  0.9440224E-01
         -2   -1    0    0    0  501 -0.00000000000E+00  0.00000000000E+00  0.86337287235E+03  0.86337287235E+03  0.25500000000E-02 0.  1.
          2   -1    0    0  501    0  0.00000000000E+00 -0.00000000000E+00 -0.17884353524E+04  0.17884353524E+04  0.25500000000E-02 0. -1.
    8880022    1    1    2    0    0  0.51057402157E+03  0.71073382255E+03  0.46453630192E+03  0.10025038787E+04  0.15294330000E+03 0.  1.
    8880022    1    1    2    0    0 -0.51057402157E+03 -0.71073382255E+03 -0.13895987820E+04  0.16493043461E+04  0.15294330000E+03 0.  0.
<mgrwt>
<rscale>  0 0.88838058E+03</rscale>
<asrwt>0</asrwt>
<pdfrwt beam="1">  1        2 0.27514390E+00 0.88838058E+03</pdfrwt>
<pdfrwt beam="2">  1       -2 0.13282660E+00 0.88838058E+03</pdfrwt>
<totfact> 0.36383574E+00</totfact>
</mgrwt>
</event>
<event>
 4    1  0.1701380E-008  0.1345064E+04  0.7818608E-02  0.8994573E-01
         -2   -1    0    0    0  501 -0.00000000000E+00  0.00000000000E+00  0.71407375849E+03  0.71407375849E+03  0.25500000000E-02 0.  1.
          2   -1    0    0  501    0  0.00000000000E+00 -0.00000000000E+00 -0.40689877980E+04  0.40689877980E+04  0.25500000000E-02 0. -1.
    8880022    1    1    2    0    0  0.93793275325E+03  0.95188572996E+03 -0.31465122549E+04  0.34219490522E+04  0.15294330000E+03 0.  0.
    8880022    1    1    2    0    0 -0.93793275325E+03 -0.95188572996E+03 -0.20840178461E+03  0.13611125043E+04  0.15294330000E+03 0.  0.
<mgrwt>
<rscale>  0 0.13450635E+04</rscale>
<asrwt>0</asrwt>
<pdfrwt beam="1">  1        2 0.62599811E+00 0.13450635E+04</pdfrwt>
<pdfrwt beam="2">  1       -2 0.10985750E+00 0.13450635E+04</pdfrwt>
<totfact> 0.19617496E-01</totfact>
</mgrwt>
</event>
<event>
 4    1  0.1701380E-008  0.1200487E+04  0.7818608E-02  0.9112430E-01
          2   -1    0    0  501    0  0.00000000000E+00  0.00000000000E+00  0.14572974184E+04  0.14572974184E+04  0.25500000000E-02 0. -1.
         -2   -1    0    0    0  501 -0.00000000000E+00 -0.00000000000E+00 -0.16350241140E+04  0.16350241140E+04  0.25500000000E-02 0.  1.
    8880022    1    1    2    0    0 -0.98464489561E+02 -0.11866264000E+04  0.88307684245E+03  0.14902999133E+04  0.15294330000E+03 0.  0.
    8880022    1    1    2    0    0  0.98464489561E+02  0.11866264000E+04 -0.10608035380E+04  0.16020216191E+04  0.15294330000E+03 0.  0.
<mgrwt>
<rscale>  0 0.12004870E+04</rscale>
<asrwt>0</asrwt>
<pdfrwt beam="1">  1        2 0.22419960E+00 0.12004870E+04</pdfrwt>
<pdfrwt beam="2">  1       -2 0.25154217E+00 0.12004870E+04</pdfrwt>
<totfact> 0.82001974E-01</totfact>
</mgrwt>
</event>
<event>
 4    1  0.1701380E-008  0.1075537E+04  0.7818608E-02  0.9229369E-01
         -2   -1    0    0    0  501 -0.00000000000E+00  0.00000000000E+00  0.64466534635E+03  0.64466534636E+03  0.25500000000E-02 0.  1.
          2   -1    0    0  501    0  0.00000000000E+00 -0.00000000000E+00 -0.21677953866E+04  0.21677953866E+04  0.25500000000E-02 0. -1.
    8880022    1    1    2    0    0  0.23754788042E+03  0.10377663842E+04 -0.17793338955E+03  0.10901559557E+04  0.15294330000E+03 0.  0.
    8880022    1    1    2    0    0 -0.23754788042E+03 -0.10377663842E+04 -0.13451966507E+04  0.17223047772E+04  0.15294330000E+03 0. -1.
<mgrwt>
<rscale>  0 0.10755369E+04</rscale>
<asrwt>0</asrwt>
<pdfrwt beam="1">  1        2 0.33350698E+00 0.10755369E+04</pdfrwt>
<pdfrwt beam="2">  1       -2 0.99179285E-01 0.10755369E+04</pdfrwt>
<totfact> 0.45062672E+00</totfact>
</mgrwt>
</event>
<event>
 4    1  0.1701380E-008  0.1558114E+04  0.7818608E-02  0.8846702E-01
          2   -1    0    0  501    0  0.00000000000E+00  0.00000000000E+00  0.42297119675E+04  0.42297119675E+04  0.25500000000E-02 0. -1.
         -2   -1    0    0    0  501 -0.00000000000E+00 -0.00000000000E+00 -0.70424160998E+03  0.70424160998E+03  0.25500000000E-02 0.  1.
    8880022    1    1    2    0    0  0.48009967114E+03  0.14743921011E+04  0.70169358618E+03  0.17088280498E+04  0.15294330000E+03 0.  0.
    8880022    1    1    2    0    0 -0.48009967114E+03 -0.14743921011E+04  0.28237767713E+04  0.32251255277E+04  0.15294330000E+03 0.  0.
<mgrwt>
<rscale>  0 0.15581141E+04</rscale>
<asrwt>0</asrwt>
<pdfrwt beam="1">  1        2 0.65072491E+00 0.15581141E+04</pdfrwt>
<pdfrwt beam="2">  1       -2 0.10834486E+00 0.15581141E+04</pdfrwt>
<totfact> 0.14409014E-01</totfact>
</mgrwt>
</event>
<event>
 4    1  0.1701380E-008  0.3740234E+03  0.7818608E-02  0.1053165E+00
         -2   -1    0    0    0  501 -0.00000000000E+00  0.00000000000E+00  0.16688852382E+03  0.16688852384E+03  0.25500000000E-02 0.  1.
          2   -1    0    0  501    0  0.00000000000E+00 -0.00000000000E+00 -0.15371035224E+04  0.15371035224E+04  0.25500000000E-02 0. -1.
    8880022    1    1    2    0    0  0.84408854969E+01  0.34121926988E+03 -0.11061997438E+03  0.39003880632E+03  0.15294330000E+03 0.  0.
    8880022    1    1    2    0    0 -0.84408854969E+01 -0.34121926988E+03 -0.12595950242E+04  0.13139532399E+04  0.15294330000E+03 0.  0.
<mgrwt>
<rscale>  0 0.37402338E+03</rscale>
<asrwt>0</asrwt>
<pdfrwt beam="1">  1        2 0.23647746E+00 0.37402338E+03</pdfrwt>
<pdfrwt beam="2">  1       -2 0.25675159E-01 0.37402338E+03</pdfrwt>
<totfact> 0.17497692E+02</totfact>
</mgrwt>
</event>
<event>
 4    1  0.1701380E-008  0.3165591E+03  0.7818608E-02  0.1077244E+00
         -2   -1    0    0    0  501 -0.00000000000E+00  0.00000000000E+00  0.51076761351E+03  0.51076761351E+03  0.25500000000E-02 0.  1.
          2   -1    0    0  501    0  0.00000000000E+00 -0.00000000000E+00 -0.26874128708E+04  0.26874128708E+04  0.25500000000E-02 0. -1.
    8880022    1    1    2    0    0  0.18094341713E+03  0.20994647002E+03 -0.26279360675E+04  0.26469336350E+04  0.15294330000E+03 0.  0.
    8880022    1    1    2    0    0 -0.18094341713E+03 -0.20994647002E+03  0.45129081019E+03  0.55124684929E+03  0.15294330000E+03 0.  0.
<mgrwt>
<rscale>  0 0.31655915E+03</rscale>
<asrwt>0</asrwt>
<pdfrwt beam="1">  1        2 0.41344813E+00 0.31655915E+03</pdfrwt>
<pdfrwt beam="2">  1       -2 0.78579634E-01 0.31655915E+03</pdfrwt>
<totfact> 0.46540224E+00</totfact>
</mgrwt>
</event>
<event>
 4    1  0.1701380E-008  0.1846702E+04  0.7818608E-02  0.8681850E-01
          2   -1    0    0  501    0  0.00000000000E+00  0.00000000000E+00  0.11148338203E+04  0.11148338203E+04  0.25500000000E-02 0. -1.
         -2   -1    0    0    0  501 -0.00000000000E+00 -0.00000000000E+00 -0.33957273310E+04  0.33957273310E+04  0.25500000000E-02 0.  1.
    8880022    1    1    2    0    0  0.13031117577E+04 -0.12995452359E+04 -0.43028999095E+03  0.18961696133E+04  0.15294330000E+03 0.  0.
    8880022    1    1    2    0    0 -0.13031117577E+04  0.12995452359E+04 -0.18506035198E+04  0.26143915379E+04  0.15294330000E+03 0.  0.
<mgrwt>
<rscale>  0 0.18467024E+04</rscale>
<asrwt>0</asrwt>
<pdfrwt beam="1">  1        2 0.17151290E+00 0.18467024E+04</pdfrwt>
<pdfrwt beam="2">  1       -2 0.52241959E+00 0.18467024E+04</pdfrwt>
<totfact> 0.23232289E-02</totfact>
</mgrwt>
</event>
<event>
 4    1  0.1701380E-008  0.9642378E+03  0.7818608E-02  0.9348662E-01
          2   -1    0    0  501    0  0.00000000000E+00  0.00000000000E+00  0.15975192074E+04  0.15975192074E+04  0.25500000000E-02 0. -1.
         -2   -1    0    0    0  501 -0.00000000000E+00 -0.00000000000E+00 -0.90666883958E+03  0.90666883958E+03  0.25500000000E-02 0.  1.
    8880022    1    1    2    0    0  0.64048262891E+03 -0.70437556248E+03 -0.40383657857E+03  0.10453891936E+04  0.15294330000E+03 0.  0.
    8880022    1    1    2    0    0 -0.64048262891E+03  0.70437556248E+03  0.10946869464E+04  0.14587988533E+04  0.15294330000E+03 0.  0.
<mgrwt>
<rscale>  0 0.96423783E+03</rscale>
<asrwt>0</asrwt>
<pdfrwt beam="1">  1        2 0.24577219E+00 0.96423783E+03</pdfrwt>
<pdfrwt beam="2">  1       -2 0.13948751E+00 0.96423783E+03</pdfrwt>
<totfact> 0.40484907E+00</totfact>
</mgrwt>
</event>
<event>
 4    1  0.1727450E-008  0.9853989E+03  0.7818608E-02  0.9324706E-01
         -2   -1    0    0    0  501 -0.00000000000E+00  0.00000000000E+00  0.22095992396E+04  0.22095992396E+04  0.25500000000E-02 0.  1.
          2   -1    0    0  501    0  0.00000000000E+00 -0.00000000000E+00 -0.20929011688E+04  0.20929011688E+04  0.25500000000E-02 0. -1.
    8880022    1    1    2    0    0 -0.47489877184E+03 -0.84975908252E+03 -0.18537575445E+04  0.20993875365E+04  0.15294330000E+03 0.  0.
    8880022    1    1    2    0    0  0.47489877184E+03  0.84975908252E+03  0.19704556152E+04  0.22031128719E+04  0.15294330000E+03 0.  0.
<mgrwt>
<rscale>  0 0.98539890E+03</rscale>
<asrwt>0</asrwt>
<pdfrwt beam="1">  1        2 0.32198480E+00 0.98539890E+03</pdfrwt>
<pdfrwt beam="2">  1       -2 0.33993834E+00 0.98539890E+03</pdfrwt>
<totfact> 0.10894270E-01</totfact>
</mgrwt>
</event>
<event>
 4    1  0.1701380E-008  0.9157892E+03  0.7818608E-02  0.9406057E-01
         -2   -1    0    0    0  501 -0.00000000000E+00  0.00000000000E+00  0.19838147783E+04  0.19838147783E+04  0.25500000000E-02 0.  1.
          2   -1    0    0  501    0  0.00000000000E+00 -0.00000000000E+00 -0.73740094875E+03  0.73740094875E+03  0.25500000000E-02 0. -1.
    8880022    1    1    2    0    0  0.63406389840E+03 -0.64283839365E+03  0.15119810657E+04  0.17676981144E+04  0.15294330000E+03 0.  0.
    8880022    1    1    2    0    0 -0.63406389840E+03  0.64283839365E+03 -0.26556723619E+03  0.95351761261E+03  0.15294330000E+03 0.  0.
<mgrwt>
<rscale>  0 0.91578921E+03</rscale>
<asrwt>0</asrwt>
<pdfrwt beam="1">  1        2 0.11344630E+00 0.91578921E+03</pdfrwt>
<pdfrwt beam="2">  1       -2 0.30520227E+00 0.91578921E+03</pdfrwt>
<totfact> 0.11518468E+00</totfact>
</mgrwt>
</event>
<event>
 4    1  0.1701380E-008  0.3723206E+03  0.7818608E-02  0.1053809E+00
          2   -1    0    0  501    0  0.00000000000E+00  0.00000000000E+00  0.73786667415E+03  0.73786667416E+03  0.25500000000E-02 0. -1.
         -2   -1    0    0    0  501 -0.00000000000E+00 -0.00000000000E+00 -0.29051905928E+03  0.29051905929E+03  0.25500000000E-02 0.  1.
    8880022    1    1    2    0    0 -0.77488965505E+02 -0.33049424165E+03 -0.81971193052E+02  0.38123734476E+03  0.15294330000E+03 0.  0.
    8880022    1    1    2    0    0  0.77488965505E+02  0.33049424165E+03  0.52931880793E+03  0.64714838868E+03  0.15294330000E+03 0.  0.
<mgrwt>
<rscale>  0 0.37232061E+03</rscale>
<asrwt>0</asrwt>
<pdfrwt beam="1">  1        2 0.11351795E+00 0.37232061E+03</pdfrwt>
<pdfrwt beam="2">  1       -2 0.44695240E-01 0.37232061E+03</pdfrwt>
<totfact> 0.18846936E+02</totfact>
</mgrwt>
</event>
<event>
 4    1  0.1701380E-008  0.9896744E+03  0.7818608E-02  0.9319943E-01
         -2   -1    0    0    0  501 -0.00000000000E+00  0.00000000000E+00  0.26857417833E+04  0.26857417833E+04  0.25500000000E-02 0.  1.
          2   -1    0    0  501    0  0.00000000000E+00 -0.00000000000E+00 -0.55499949305E+03  0.55499949306E+03  0.25500000000E-02 0. -1.
    8880022    1    1    2    0    0  0.10106862730E+03 -0.97254760945E+03  0.20142299912E+04  0.22442321249E+04  0.15294330000E+03 0.  0.
    8880022    1    1    2    0    0 -0.10106862730E+03  0.97254760945E+03  0.11651229906E+03  0.99650915145E+03  0.15294330000E+03 0.  0.
<mgrwt>
<rscale>  0 0.98967438E+03</rscale>
<asrwt>0</asrwt>
<pdfrwt beam="1">  1        2 0.85384538E-01 0.98967438E+03</pdfrwt>
<pdfrwt beam="2">  1       -2 0.41319104E+00 0.98967438E+03</pdfrwt>
<totfact> 0.33844675E-01</totfact>
</mgrwt>
</event>
<event>
 4    1  0.1701380E-008  0.2700763E+03  0.7818608E-02  0.1101236E+00
          2   -1    0    0  501    0  0.00000000000E+00  0.00000000000E+00  0.99710828894E+03  0.99710828894E+03  0.25500000000E-02 0. -1.
         -2   -1    0    0    0  501 -0.00000000000E+00 -0.00000000000E+00 -0.18858091287E+04  0.18858091287E+04  0.25500000000E-02 0.  1.
    8880022    1    1    2    0    0  0.11509575363E+03 -0.19053222712E+03  0.96887383039E+03  0.10058119677E+04  0.15294330000E+03 0.  0.
    8880022    1    1    2    0    0 -0.11509575363E+03  0.19053222712E+03 -0.18575746701E+04  0.18771054499E+04  0.15294330000E+03 0.  0.
<mgrwt>
<rscale>  0 0.27007631E+03</rscale>
<asrwt>0</asrwt>
<pdfrwt beam="1">  1        2 0.15340128E+00 0.27007631E+03</pdfrwt>
<pdfrwt beam="2">  1       -2 0.29012448E+00 0.27007631E+03</pdfrwt>
<totfact> 0.11200405E+00</totfact>
</mgrwt>
</event>
<event>
 4    1  0.1701380E-008  0.1369923E+04  0.7818608E-02  0.8975882E-01
         -2   -1    0    0    0  501 -0.00000000000E+00  0.00000000000E+00  0.18454620497E+04  0.18454620497E+04  0.25500000000E-02 0.  1.
          2   -1    0    0  501    0  0.00000000000E+00 -0.00000000000E+00 -0.10491958776E+04  0.10491958776E+04  0.25500000000E-02 0. -1.
    8880022    1    1    2    0    0  0.60765015473E+03  0.12182199085E+04  0.65197751465E+03  0.15171568108E+04  0.15294330000E+03 0.  0.
    8880022    1    1    2    0    0 -0.60765015473E+03 -0.12182199085E+04  0.14428865742E+03  0.13775011164E+04  0.15294330000E+03 0.  0.
<mgrwt>
<rscale>  0 0.13699234E+04</rscale>
<asrwt>0</asrwt>
<pdfrwt beam="1">  1        2 0.16141475E+00 0.13699234E+04</pdfrwt>
<pdfrwt beam="2">  1       -2 0.28391724E+00 0.13699234E+04</pdfrwt>
<totfact> 0.89544932E-01</totfact>
</mgrwt>
</event>
<event>
 4    1  0.1701380E-008  0.8453844E+03  0.7818608E-02  0.9496553E-01
         -2   -1    0    0    0  501 -0.00000000000E+00  0.00000000000E+00  0.20672991781E+04  0.20672991781E+04  0.25500000000E-02 0.  1.
          2   -1    0    0  501    0  0.00000000000E+00 -0.00000000000E+00 -0.61709412787E+03  0.61709412788E+03  0.25500000000E-02 0. -1.
    8880022    1    1    2    0    0 -0.18002531198E+03 -0.81171054679E+03  0.16151988536E+04  0.18230584507E+04  0.15294330000E+03 0.  0.
    8880022    1    1    2    0    0  0.18002531198E+03  0.81171054679E+03 -0.16499380345E+03  0.86133485528E+03  0.15294330000E+03 0.  0.
<mgrwt>
<rscale>  0 0.84538440E+03</rscale>
<asrwt>0</asrwt>
<pdfrwt beam="1">  1        2 0.94937557E-01 0.84538440E+03</pdfrwt>
<pdfrwt beam="2">  1       -2 0.31804603E+00 0.84538440E+03</pdfrwt>
<totfact> 0.12163454E+00</totfact>
</mgrwt>
</event>
<event>
 4    1  0.1701380E-008  0.5544655E+03  0.7818608E-02  0.1000466E+00
          2   -1    0    0  501    0  0.00000000000E+00  0.00000000000E+00  0.15504854952E+04  0.15504854952E+04  0.25500000000E-02 0. -1.
         -2   -1    0    0    0  501 -0.00000000000E+00 -0.00000000000E+00 -0.79585549849E+03  0.79585549849E+03  0.25500000000E-02 0.  1.
    8880022    1    1    2    0    0 -0.10793567154E+03  0.52191012290E+03 -0.63926139611E+03  0.84621928077E+03  0.15294330000E+03 0.  0.
    8880022    1    1    2    0    0  0.10793567154E+03 -0.52191012290E+03  0.13938913928E+04  0.15001217129E+04  0.15294330000E+03 0.  0.
<mgrwt>
<rscale>  0 0.55446545E+03</rscale>
<asrwt>0</asrwt>
<pdfrwt beam="1">  1        2 0.23853623E+00 0.55446545E+03</pdfrwt>
<pdfrwt beam="2">  1       -2 0.12243931E+00 0.55446545E+03</pdfrwt>
<totfact> 0.63718625E+00</totfact>
</mgrwt>
</event>
<event>
 4    1  0.1701380E-008  0.1108769E+04  0.7818608E-02  0.9196687E-01
         -2   -1    0    0    0  501 -0.00000000000E+00  0.00000000000E+00  0.32019274977E+03  0.32019274978E+03  0.25500000000E-02 0.  1.
          2   -1    0    0  501    0  0.00000000000E+00 -0.00000000000E+00 -0.41631870094E+04  0.41631870094E+04  0.25500000000E-02 0. -1.
    8880022    1    1    2    0    0 -0.83759961748E+03 -0.71021370416E+03 -0.12963965578E+04  0.17058758199E+04  0.15294330000E+03 0.  0.
    8880022    1    1    2    0    0  0.83759961748E+03  0.71021370416E+03 -0.25465977018E+04  0.27775039393E+04  0.15294330000E+03 0.  0.
<mgrwt>
<rscale>  0 0.11087688E+04</rscale>
<asrwt>0</asrwt>
<pdfrwt beam="1">  1        2 0.64049027E+00 0.11087688E+04</pdfrwt>
<pdfrwt beam="2">  1       -2 0.49260426E-01 0.11087688E+04</pdfrwt>
<totfact> 0.10162070E+00</totfact>
</mgrwt>
</event>
<event>
 4    1  0.1701380E-008  0.8046013E+03  0.7818608E-02  0.9553381E-01
          2   -1    0    0  501    0  0.00000000000E+00  0.00000000000E+00  0.31448143622E+04  0.31448143622E+04  0.25500000000E-02 0. -1.
         -2   -1    0    0    0  501 -0.00000000000E+00 -0.00000000000E+00 -0.33740468233E+03  0.33740468234E+03  0.25500000000E-02 0.  1.
    8880022    1    1    2    0    0  0.73245234531E+03 -0.29581283899E+03  0.24908598419E+04  0.26175878360E+04  0.15294330000E+03 0.  0.
    8880022    1    1    2    0    0 -0.73245234531E+03  0.29581283899E+03  0.31654983789E+03  0.86463120852E+03  0.15294330000E+03 0.  0.
<mgrwt>
<rscale>  0 0.80460135E+03</rscale>
<asrwt>0</asrwt>
<pdfrwt beam="1">  1        2 0.48381759E+00 0.80460135E+03</pdfrwt>
<pdfrwt beam="2">  1       -2 0.51908413E-01 0.80460135E+03</pdfrwt>
<totfact> 0.52307625E+00</totfact>
</mgrwt>
</event>
<event>
 4    1  0.1701380E-008  0.8153712E+03  0.7818608E-02  0.9538031E-01
          2   -1    0    0  501    0  0.00000000000E+00  0.00000000000E+00  0.85252166191E+03  0.85252166191E+03  0.25500000000E-02 0. -1.
         -2   -1    0    0    0  501 -0.00000000000E+00 -0.00000000000E+00 -0.21756238581E+04  0.21756238581E+04  0.25500000000E-02 0.  1.
    8880022    1    1    2    0    0 -0.55703786132E+03 -0.57545406534E+03  0.55117849805E+03  0.98418898083E+03  0.15294330000E+03 0.  0.
    8880022    1    1    2    0    0  0.55703786132E+03  0.57545406534E+03 -0.18742806942E+04  0.20439565391E+04  0.15294330000E+03 0.  0.
<mgrwt>
<rscale>  0 0.81537121E+03</rscale>
<asrwt>0</asrwt>
<pdfrwt beam="1">  1        2 0.13115718E+00 0.81537121E+03</pdfrwt>
<pdfrwt beam="2">  1       -2 0.33471136E+00 0.81537121E+03</pdfrwt>
<totfact> 0.63816124E-01</totfact>
</mgrwt>
</event>
<event>
 4    1  0.1701380E-008  0.1963476E+04  0.7818608E-02  0.8623890E-01
          2   -1    0    0  501    0  0.00000000000E+00  0.00000000000E+00  0.20093067467E+04  0.20093067467E+04  0.25500000000E-02 0. -1.
         -2   -1    0    0    0  501 -0.00000000000E+00 -0.00000000000E+00 -0.19758072103E+04  0.19758072103E+04  0.25500000000E-02 0.  1.
    8880022    1    1    2    0    0 -0.18618656604E+04  0.60440190014E+03  0.35553262008E+03  0.19954048440E+04  0.15294330000E+03 0.  0.
    8880022    1    1    2    0    0  0.18618656604E+04 -0.60440190014E+03 -0.32203308372E+03  0.19897091130E+04  0.15294330000E+03 0.  0.
<mgrwt>
<rscale>  0 0.19634758E+04</rscale>
<asrwt>0</asrwt>
<pdfrwt beam="1">  1        2 0.30912412E+00 0.19634758E+04</pdfrwt>
<pdfrwt beam="2">  1       -2 0.30397034E+00 0.19634758E+04</pdfrwt>
<totfact> 0.17730106E-01</totfact>
</mgrwt>
</event>
<event>
 4    1  0.1701380E-008  0.6332931E+03  0.7818608E-02  0.9838644E-01
          2   -1    0    0  501    0  0.00000000000E+00  0.00000000000E+00  0.70715511693E+03  0.70715511693E+03  0.25500000000E-02 0. -1.
         -2   -1    0    0    0  501 -0.00000000000E+00 -0.00000000000E+00 -0.73986854309E+03  0.73986854309E+03  0.25500000000E-02 0.  1.
    8880022    1    1    2    0    0 -0.34604443036E+03  0.50785995750E+03  0.33322038383E+03  0.71560880474E+03  0.15294330000E+03 0.  0.
    8880022    1    1    2    0    0  0.34604443036E+03 -0.50785995750E+03 -0.36593380999E+03  0.73141485528E+03  0.15294330000E+03 0.  0.
<mgrwt>
<rscale>  0 0.63329309E+03</rscale>
<asrwt>0</asrwt>
<pdfrwt beam="1">  1        2 0.10879309E+00 0.63329309E+03</pdfrwt>
<pdfrwt beam="2">  1       -2 0.11382593E+00 0.63329309E+03</pdfrwt>
<totfact> 0.25071357E+01</totfact>
</mgrwt>
</event>
<event>
 4    1  0.1701380E-008  0.3850735E+03  0.7818608E-02  0.1049074E+00
          2   -1    0    0  501    0  0.00000000000E+00  0.00000000000E+00  0.16261916980E+04  0.16261916980E+04  0.25500000000E-02 0. -1.
         -2   -1    0    0    0  501 -0.00000000000E+00 -0.00000000000E+00 -0.46114732078E+03  0.46114732079E+03  0.25500000000E-02 0.  1.
    8880022    1    1    2    0    0  0.16954208149E+03 -0.31007327885E+03 -0.35228677113E+03  0.52190763338E+03  0.15294330000E+03 0.  0.
    8880022    1    1    2    0    0 -0.16954208149E+03  0.31007327885E+03  0.15173311483E+04  0.15654313854E+04  0.15294330000E+03 0. -1.
<mgrwt>
<rscale>  0 0.38507351E+03</rscale>
<asrwt>0</asrwt>
<pdfrwt beam="1">  1        2 0.25018334E+00 0.38507351E+03</pdfrwt>
<pdfrwt beam="2">  1       -2 0.70945742E-01 0.38507351E+03</pdfrwt>
<totfact> 0.21294233E+01</totfact>
</mgrwt>
</event>
<event>
 4    1  0.1701380E-008  0.3591179E+03  0.7818608E-02  0.1058934E+00
         -2   -1    0    0    0  501 -0.00000000000E+00  0.00000000000E+00  0.11213930803E+04  0.11213930803E+04  0.25500000000E-02 0.  1.
          2   -1    0    0  501    0  0.00000000000E+00 -0.00000000000E+00 -0.21504645360E+04  0.21504645360E+04  0.25500000000E-02 0. -1.
    8880022    1    1    2    0    0  0.26250927399E+03  0.19147549877E+03 -0.21061195309E+04  0.21365170529E+04  0.15294330000E+03 0.  0.
    8880022    1    1    2    0    0 -0.26250927399E+03 -0.19147549877E+03  0.10770480753E+04  0.11353405635E+04  0.15294330000E+03 0.  0.
<mgrwt>
<rscale>  0 0.35911786E+03</rscale>
<asrwt>0</asrwt>
<pdfrwt beam="1">  1        2 0.33084070E+00 0.35911786E+03</pdfrwt>
<pdfrwt beam="2">  1       -2 0.17252201E+00 0.35911786E+03</pdfrwt>
<totfact> 0.13185540E+00</totfact>
</mgrwt>
</event>
<event>
 4    1  0.1701380E-008  0.3600401E+03  0.7818608E-02  0.1058568E+00
          2   -1    0    0  501    0  0.00000000000E+00  0.00000000000E+00  0.34449325630E+03  0.34449325631E+03  0.25500000000E-02 0. -1.
         -2   -1    0    0    0  501 -0.00000000000E+00 -0.00000000000E+00 -0.76035871132E+03  0.76035871132E+03  0.25500000000E-02 0.  1.
    8880022    1    1    2    0    0 -0.35190704392E+02  0.32403527915E+03 -0.60055059938E+03  0.70020705740E+03  0.15294330000E+03 0.  1.
    8880022    1    1    2    0    0  0.35190704392E+02 -0.32403527915E+03  0.18468514437E+03  0.40464491023E+03  0.15294330000E+03 0.  0.
<mgrwt>
<rscale>  0 0.36004014E+03</rscale>
<asrwt>0</asrwt>
<pdfrwt beam="1">  1        2 0.52998963E-01 0.36004014E+03</pdfrwt>
<pdfrwt beam="2">  1       -2 0.11697826E+00 0.36004014E+03</pdfrwt>
<totfact> 0.55485832E+01</totfact>
</mgrwt>
</event>
<event>
 4    1  0.1701380E-008  0.2004122E+03  0.7818608E-02  0.1149392E+00
         -2   -1    0    0    0  501 -0.00000000000E+00  0.00000000000E+00  0.10837038562E+03  0.10837038565E+03  0.25500000000E-02 0.  1.
          2   -1    0    0  501    0  0.00000000000E+00 -0.00000000000E+00 -0.15147539167E+04  0.15147539167E+04  0.25500000000E-02 0. -1.
    8880022    1    1    2    0    0  0.85904306523E+02  0.96921834471E+02  0.21307528448E+01  0.20042351409E+03  0.15294330000E+03 0.  0.
    8880022    1    1    2    0    0 -0.85904306523E+02 -0.96921834471E+02 -0.14085142840E+04  0.14227007883E+04  0.15294330000E+03 0. -1.
<mgrwt>
<rscale>  0 0.20041219E+03</rscale>
<asrwt>0</asrwt>
<pdfrwt beam="1">  1        2 0.23303905E+00 0.20041219E+03</pdfrwt>
<pdfrwt beam="2">  1       -2 0.16672368E-01 0.20041219E+03</pdfrwt>
<totfact> 0.39111008E+02</totfact>
</mgrwt>
</event>
<event>
 4    1  0.1701380E-008  0.4648835E+03  0.7818608E-02  0.1023374E+00
         -2   -1    0    0    0  501 -0.00000000000E+00  0.00000000000E+00  0.45746803588E+03  0.45746803588E+03  0.25500000000E-02 0.  1.
          2   -1    0    0  501    0  0.00000000000E+00 -0.00000000000E+00 -0.24156057840E+04  0.24156057840E+04  0.25500000000E-02 0. -1.
    8880022    1    1    2    0    0 -0.42170409043E+03  0.12202720775E+03  0.30936170280E+03  0.55840961264E+03  0.15294330000E+03 0.  0.
    8880022    1    1    2    0    0  0.42170409043E+03 -0.12202720775E+03 -0.22674994509E+04  0.23146642072E+04  0.15294330000E+03 0.  0.
<mgrwt>
<rscale>  0 0.46488346E+03</rscale>
<asrwt>0</asrwt>
<pdfrwt beam="1">  1        2 0.37163165E+00 0.46488346E+03</pdfrwt>
<pdfrwt beam="2">  1       -2 0.70379699E-01 0.46488346E+03</pdfrwt>
<totfact> 0.79650564E+00</totfact>
</mgrwt>
</event>
<event>
 4    1  0.1701380E-008  0.4850287E+03  0.7818608E-02  0.1017762E+00
          2   -1    0    0  501    0  0.00000000000E+00  0.00000000000E+00  0.11373398518E+04  0.11373398518E+04  0.25500000000E-02 0. -1.
         -2   -1    0    0    0  501 -0.00000000000E+00 -0.00000000000E+00 -0.32763508497E+03  0.32763508498E+03  0.25500000000E-02 0.  1.
    8880022    1    1    2    0    0  0.42179534995E+03 -0.18425478029E+03 -0.39902846701E+02  0.48666726980E+03  0.15294330000E+03 0.  0.
    8880022    1    1    2    0    0 -0.42179534995E+03  0.18425478029E+03  0.84960761354E+03  0.97830766699E+03  0.15294330000E+03 0.  0.
<mgrwt>
<rscale>  0 0.48502865E+03</rscale>
<asrwt>0</asrwt>
<pdfrwt beam="1">  1        2 0.17497536E+00 0.48502865E+03</pdfrwt>
<pdfrwt beam="2">  1       -2 0.50405397E-01 0.48502865E+03</pdfrwt>
<totfact> 0.80276715E+01</totfact>
</mgrwt>
</event>
<event>
 4    1  0.1701380E-008  0.1096160E+04  0.7818608E-02  0.9208943E-01
         -2   -1    0    0    0  501 -0.00000000000E+00  0.00000000000E+00  0.84535502625E+03  0.84535502625E+03  0.25500000000E-02 0.  1.
          2   -1    0    0  501    0  0.00000000000E+00 -0.00000000000E+00 -0.44995704601E+04  0.44995704601E+04  0.25500000000E-02 0. -1.
    8880022    1    1    2    0    0  0.94324586737E+03  0.53708600903E+03 -0.40375250936E+04  0.41836795625E+04  0.15294330000E+03 0.  0.
    8880022    1    1    2    0    0 -0.94324586737E+03 -0.53708600903E+03  0.38330965973E+03  0.11612459239E+04  0.15294330000E+03 0.  0.
<mgrwt>
<rscale>  0 0.10961596E+04</rscale>
<asrwt>0</asrwt>
<pdfrwt beam="1">  1        2 0.69224160E+00 0.10961596E+04</pdfrwt>
<pdfrwt beam="2">  1       -2 0.13005462E+00 0.10961596E+04</pdfrwt>
<totfact> 0.55996392E-02</totfact>
</mgrwt>
</event>
<event>
 4    1  0.1701380E-008  0.6909455E+03  0.7818608E-02  0.9732843E-01
         -2   -1    0    0    0  501 -0.00000000000E+00  0.00000000000E+00  0.71885433361E+03  0.71885433362E+03  0.25500000000E-02 0.  1.
          2   -1    0    0  501    0  0.00000000000E+00 -0.00000000000E+00 -0.11522460143E+04  0.11522460143E+04  0.25500000000E-02 0. -1.
    8880022    1    1    2    0    0 -0.54370915763E+03  0.39798799722E+03 -0.82561596177E+03  0.10765906666E+04  0.15294330000E+03 0.  0.
    8880022    1    1    2    0    0  0.54370915763E+03 -0.39798799722E+03  0.39222428110E+03  0.79450968133E+03  0.15294330000E+03 0.  0.
<mgrwt>
<rscale>  0 0.69094555E+03</rscale>
<asrwt>0</asrwt>
<pdfrwt beam="1">  1        2 0.17726862E+00 0.69094555E+03</pdfrwt>
<pdfrwt beam="2">  1       -2 0.11059297E+00 0.69094555E+03</pdfrwt>
<totfact> 0.13470013E+01</totfact>
</mgrwt>
</event>
<event>
 4    1  0.1701380E-008  0.6109155E+03  0.7818608E-02  0.9883015E-01
          2   -1    0    0  501    0  0.00000000000E+00  0.00000000000E+00  0.89351986250E+03  0.89351986251E+03  0.25500000000E-02 0. -1.
         -2   -1    0    0    0  501 -0.00000000000E+00 -0.00000000000E+00 -0.43060401890E+03  0.43060401891E+03  0.25500000000E-02 0.  1.
    8880022    1    1    2    0    0 -0.13611368546E+03  0.57558589497E+03  0.34609531684E+03  0.70213935882E+03  0.15294330000E+03 0.  0.
    8880022    1    1    2    0    0  0.13611368546E+03 -0.57558589497E+03  0.11682052676E+03  0.62198452259E+03  0.15294330000E+03 0.  0.
<mgrwt>
<rscale>  0 0.61091547E+03</rscale>
<asrwt>0</asrwt>
<pdfrwt beam="1">  1        2 0.13746459E+00 0.61091547E+03</pdfrwt>
<pdfrwt beam="2">  1       -2 0.66246772E-01 0.61091547E+03</pdfrwt>
<totfact> 0.63704269E+01</totfact>
</mgrwt>
</event>
<event>
 4    1  0.1701380E-008  0.9060623E+03  0.7818608E-02  0.9418035E-01
         -2   -1    0    0    0  501 -0.00000000000E+00  0.00000000000E+00  0.76269376269E+03  0.76269376269E+03  0.25500000000E-02 0.  1.
          2   -1    0    0  501    0  0.00000000000E+00 -0.00000000000E+00 -0.15693141617E+04  0.15693141617E+04  0.25500000000E-02 0. -1.
    8880022    1    1    2    0    0 -0.88084153308E+03  0.14722588689E+03 -0.10568005604E+04  0.13920403534E+04  0.15294330000E+03 0.  0.
    8880022    1    1    2    0    0  0.88084153308E+03 -0.14722588689E+03  0.25018016141E+03  0.93996757091E+03  0.15294330000E+03 0.  0.
<mgrwt>
<rscale>  0 0.90606232E+03</rscale>
<asrwt>0</asrwt>
<pdfrwt beam="1">  1        2 0.24143295E+00 0.90606232E+03</pdfrwt>
<pdfrwt beam="2">  1       -2 0.11733750E+00 0.90606232E+03</pdfrwt>
<totfact> 0.65476659E+00</totfact>
</mgrwt>
</event>
<event>
 4    1  0.1701380E-008  0.1310321E+04  0.7818608E-02  0.9021421E-01
          2   -1    0    0  501    0  0.00000000000E+00  0.00000000000E+00  0.21153204913E+04  0.21153204913E+04  0.25500000000E-02 0. -1.
         -2   -1    0    0    0  501 -0.00000000000E+00 -0.00000000000E+00 -0.89627839145E+03  0.89627839146E+03  0.25500000000E-02 0.  1.
    8880022    1    1    2    0    0  0.11667663865E+04 -0.57637186126E+03  0.10721737124E+04  0.16930730775E+04  0.15294330000E+03 0.  0.
    8880022    1    1    2    0    0 -0.11667663865E+04  0.57637186126E+03  0.14686838743E+03  0.13185258053E+04  0.15294330000E+03 0.  0.
<mgrwt>
<rscale>  0 0.13103206E+04</rscale>
<asrwt>0</asrwt>
<pdfrwt beam="1">  1        2 0.32543392E+00 0.13103206E+04</pdfrwt>
<pdfrwt beam="2">  1       -2 0.13788899E+00 0.13103206E+04</pdfrwt>
<totfact> 0.20739902E+00</totfact>
</mgrwt>
</event>
<event>
 4    1  0.1701380E-008  0.5264024E+03  0.7818608E-02  0.1007108E+00
          2   -1    0    0  501    0  0.00000000000E+00  0.00000000000E+00  0.46818695833E+03  0.46818695834E+03  0.25500000000E-02 0. -1.
         -2   -1    0    0    0  501 -0.00000000000E+00 -0.00000000000E+00 -0.14370600297E+04  0.14370600297E+04  0.25500000000E-02 0.  1.
    8880022    1    1    2    0    0  0.36715653670E+03  0.34482447139E+03  0.24613792424E+03  0.58110529964E+03  0.15294330000E+03 0.  0.
    8880022    1    1    2    0    0 -0.36715653670E+03 -0.34482447139E+03 -0.12150109957E+04  0.13241416884E+04  0.15294330000E+03 0.  0.
<mgrwt>
<rscale>  0 0.52640240E+03</rscale>
<asrwt>0</asrwt>
<pdfrwt beam="1">  1        2 0.72028764E-01 0.52640240E+03</pdfrwt>
<pdfrwt beam="2">  1       -2 0.22108616E+00 0.52640240E+03</pdfrwt>
<totfact> 0.68225108E+00</totfact>
</mgrwt>
</event>
<event>
 4    1  0.1701380E-008  0.9812631E+03  0.7818608E-02  0.9329337E-01
          2   -1    0    0  501    0  0.00000000000E+00  0.00000000000E+00  0.18013054253E+04  0.18013054253E+04  0.25500000000E-02 0. -1.
         -2   -1    0    0    0  501 -0.00000000000E+00 -0.00000000000E+00 -0.13424345478E+04  0.13424345478E+04  0.25500000000E-02 0.  1.
    8880022    1    1    2    0    0  0.40238131722E+03 -0.88180203163E+03  0.14488357347E+04  0.17498577618E+04  0.15294330000E+03 0.  0.
    8880022    1    1    2    0    0 -0.40238131722E+03  0.88180203163E+03 -0.98996485725E+03  0.13938822113E+04  0.15294330000E+03 0.  0.
<mgrwt>
<rscale>  0 0.98126306E+03</rscale>
<asrwt>0</asrwt>
<pdfrwt beam="1">  1        2 0.27712391E+00 0.98126306E+03</pdfrwt>
<pdfrwt beam="2">  1       -2 0.20652839E+00 0.98126306E+03</pdfrwt>
<totfact> 0.10381004E+00</totfact>
</mgrwt>
</event>
<event>
 4    1  0.1701380E-008  0.1692121E+03  0.7818608E-02  0.1178672E+00
          2   -1    0    0  501    0  0.00000000000E+00  0.00000000000E+00  0.15842872366E+04  0.15842872366E+04  0.25500000000E-02 0. -1.
         -2   -1    0    0    0  501 -0.00000000000E+00 -0.00000000000E+00 -0.38474150420E+02  0.38474150504E+02  0.25500000000E-02 0.  1.
    8880022    1    1    2    0    0  0.12555917702E+02 -0.71298231662E+02  0.18206907855E+03  0.24855963326E+03  0.15294330000E+03 0.  1.
    8880022    1    1    2    0    0 -0.12555917702E+02  0.71298231662E+02  0.13637440076E+04  0.13742017538E+04  0.15294330000E+03 0.  0.
<mgrwt>
<rscale>  0 0.16921212E+03</rscale>
<asrwt>0</asrwt>
<pdfrwt beam="1">  1        2 0.24373651E+00 0.16921212E+03</pdfrwt>
<pdfrwt beam="2">  1       -2 0.59190997E-02 0.16921212E+03</pdfrwt>
<totfact> 0.18661478E+03</totfact>
</mgrwt>
</event>
<event>
 4    1  0.1701380E-008  0.8837457E+03  0.7818608E-02  0.9446131E-01
          2   -1    0    0  501    0  0.00000000000E+00  0.00000000000E+00  0.48812363104E+04  0.48812363104E+04  0.25500000000E-02 0. -1.
         -2   -1    0    0    0  501 -0.00000000000E+00 -0.00000000000E+00 -0.18913675778E+03  0.18913675780E+03  0.25500000000E-02 0.  1.
    8880022    1    1    2    0    0  0.68227614267E+03 -0.54047572238E+03  0.33410643774E+04  0.34559683980E+04  0.15294330000E+03 0.  0.
    8880022    1    1    2    0    0 -0.68227614267E+03  0.54047572238E+03  0.13510351752E+04  0.16144046702E+04  0.15294330000E+03 0.  0.
<mgrwt>
<rscale>  0 0.88374566E+03</rscale>
<asrwt>0</asrwt>
<pdfrwt beam="1">  1        2 0.75095939E+00 0.88374566E+03</pdfrwt>
<pdfrwt beam="2">  1       -2 0.29097964E-01 0.88374566E+03</pdfrwt>
<totfact> 0.58559608E-01</totfact>
</mgrwt>
</event>
<event>
 4    1  0.1701380E-008  0.8922153E+03  0.7818608E-02  0.9435365E-01
          2   -1    0    0  501    0  0.00000000000E+00  0.00000000000E+00  0.34097999210E+04  0.34097999210E+04  0.25500000000E-02 0. -1.
         -2   -1    0    0    0  501 -0.00000000000E+00 -0.00000000000E+00 -0.80900334492E+03  0.80900334492E+03  0.25500000000E-02 0.  1.
    8880022    1    1    2    0    0 -0.33009079232E+03  0.81467575554E+03  0.30795932861E+04  0.32062350162E+04  0.15294330000E+03 0.  0.
    8880022    1    1    2    0    0  0.33009079232E+03 -0.81467575554E+03 -0.47879671006E+03  0.10125682498E+04  0.15294330000E+03 0.  0.
<mgrwt>
<rscale>  0 0.89221532E+03</rscale>
<asrwt>0</asrwt>
<pdfrwt beam="1">  1        2 0.52458461E+00 0.89221532E+03</pdfrwt>
<pdfrwt beam="2">  1       -2 0.12446205E+00 0.89221532E+03</pdfrwt>
<totfact> 0.47814553E-01</totfact>
</mgrwt>
</event>
<event>
 4    1  0.1701380E-008  0.5441859E+03  0.7818608E-02  0.1002849E+00
          2   -1    0    0  501    0  0.00000000000E+00  0.00000000000E+00  0.11605432590E+04  0.11605432590E+04  0.25500000000E-02 0. -1.
         -2   -1    0    0    0  501 -0.00000000000E+00 -0.00000000000E+00 -0.58581096399E+03  0.58581096399E+03  0.25500000000E-02 0.  1.
    8880022    1    1    2    0    0  0.50940301475E+03 -0.11513148182E+03 -0.36862880674E+03  0.65728649744E+03  0.15294330000E+03 0.  0.
    8880022    1    1    2    0    0 -0.50940301475E+03  0.11513148182E+03  0.94336110180E+03  0.10890677256E+04  0.15294330000E+03 0.  0.
<mgrwt>
<rscale>  0 0.54418594E+03</rscale>
<asrwt>0</asrwt>
<pdfrwt beam="1">  1        2 0.17854511E+00 0.54418594E+03</pdfrwt>
<pdfrwt beam="2">  1       -2 0.90124765E-01 0.54418594E+03</pdfrwt>
<totfact> 0.22037013E+01</totfact>
</mgrwt>
</event>
<event>
 4    1  0.1701380E-008  0.1847965E+04  0.7818608E-02  0.8681200E-01
          2   -1    0    0  501    0  0.00000000000E+00  0.00000000000E+00  0.33563087904E+04  0.33563087904E+04  0.25500000000E-02 0. -1.
         -2   -1    0    0    0  501 -0.00000000000E+00 -0.00000000000E+00 -0.14002990859E+04  0.14002990860E+04  0.25500000000E-02 0.  1.
    8880022    1    1    2    0    0  0.91897401852E+03 -0.15959543199E+04 -0.26551887829E+03  0.18669427859E+04  0.15294330000E+03 0.  0.
    8880022    1    1    2    0    0 -0.91897401852E+03  0.15959543199E+04  0.22215285827E+04  0.28896650904E+04  0.15294330000E+03 0.  0.
<mgrwt>
<rscale>  0 0.18479651E+04</rscale>
<asrwt>0</asrwt>
<pdfrwt beam="1">  1        2 0.51635519E+00 0.18479651E+04</pdfrwt>
<pdfrwt beam="2">  1       -2 0.21543063E+00 0.18479651E+04</pdfrwt>
<totfact> 0.97736941E-02</totfact>
</mgrwt>
</event>
<event>
 4    1  0.1701380E-008  0.1127682E+04  0.7818608E-02  0.9178623E-01
          2   -1    0    0  501    0  0.00000000000E+00  0.00000000000E+00  0.18975084913E+04  0.18975084913E+04  0.25500000000E-02 0. -1.
         -2   -1    0    0    0  501 -0.00000000000E+00 -0.00000000000E+00 -0.10717741429E+04  0.10717741429E+04  0.25500000000E-02 0.  1.
    8880022    1    1    2    0    0 -0.11084991341E+04  0.13966287775E+03 -0.49592563760E+03  0.12319131222E+04  0.15294330000E+03 0.  0.
    8880022    1    1    2    0    0  0.11084991341E+04 -0.13966287775E+03  0.13216599860E+04  0.17373695120E+04  0.15294330000E+03 0.  0.
<mgrwt>
<rscale>  0 0.11276824E+04</rscale>
<asrwt>0</asrwt>
<pdfrwt beam="1">  1        2 0.29192438E+00 0.11276824E+04</pdfrwt>
<pdfrwt beam="2">  1       -2 0.16488833E+00 0.11276824E+04</pdfrwt>
<totfact> 0.17317340E+00</totfact>
</mgrwt>
</event>
<event>
 4    1  0.1701380E-008  0.6737185E+03  0.7818608E-02  0.9763264E-01
          2   -1    0    0  501    0  0.00000000000E+00  0.00000000000E+00  0.73623358507E+03  0.73623358508E+03  0.25500000000E-02 0. -1.
         -2   -1    0    0    0  501 -0.00000000000E+00 -0.00000000000E+00 -0.12172604951E+04  0.12172604951E+04  0.25500000000E-02 0.  1.
    8880022    1    1    2    0    0  0.39300593895E+03  0.52540582315E+03  0.44566456681E+03  0.80778308114E+03  0.15294330000E+03 0.  0.
    8880022    1    1    2    0    0 -0.39300593895E+03 -0.52540582315E+03 -0.92669147682E+03  0.11457109990E+04  0.15294330000E+03 0.  1.
<mgrwt>
<rscale>  0 0.67371849E+03</rscale>
<asrwt>0</asrwt>
<pdfrwt beam="1">  1        2 0.11326671E+00 0.67371849E+03</pdfrwt>
<pdfrwt beam="2">  1       -2 0.18727085E+00 0.67371849E+03</pdfrwt>
<totfact> 0.63955641E+00</totfact>
</mgrwt>
</event>
<event>
 4    1  0.1701380E-008  0.8864371E+03  0.7818608E-02  0.9442696E-01
          2   -1    0    0  501    0  0.00000000000E+00  0.00000000000E+00  0.19822011548E+04  0.19822011548E+04  0.25500000000E-02 0. -1.
         -2   -1    0    0    0  501 -0.00000000000E+00 -0.00000000000E+00 -0.16688639055E+04  0.16688639055E+04  0.25500000000E-02 0.  1.
    8880022    1    1    2    0    0  0.89235767184E+02 -0.86857128928E+03  0.17507100149E+04  0.19623344047E+04  0.15294330000E+03 0.  0.
    8880022    1    1    2    0    0 -0.89235767184E+02  0.86857128928E+03 -0.14373727656E+04  0.16887306555E+04  0.15294330000E+03 0.  0.
<mgrwt>
<rscale>  0 0.88643712E+03</rscale>
<asrwt>0</asrwt>
<pdfrwt beam="1">  1        2 0.30495402E+00 0.88643712E+03</pdfrwt>
<pdfrwt beam="2">  1       -2 0.25674829E+00 0.88643712E+03</pdfrwt>
<totfact> 0.40918601E-01</totfact>
</mgrwt>
</event>
<event>
 4    1  0.1701380E-008  0.8447803E+03  0.7818608E-02  0.9497370E-01
          2   -1    0    0  501    0  0.00000000000E+00  0.00000000000E+00  0.42583631316E+04  0.42583631316E+04  0.25500000000E-02 0. -1.
         -2   -1    0    0    0  501 -0.00000000000E+00 -0.00000000000E+00 -0.25355940061E+03  0.25355940062E+03  0.25500000000E-02 0.  1.
    8880022    1    1    2    0    0  0.31401201746E+03 -0.76919345626E+03  0.33160131662E+04  0.34219288555E+04  0.15294330000E+03 0.  0.
    8880022    1    1    2    0    0 -0.31401201746E+03  0.76919345626E+03  0.68879056479E+03  0.10899936768E+04  0.15294330000E+03 0.  0.
<mgrwt>
<rscale>  0 0.84478031E+03</rscale>
<asrwt>0</asrwt>
<pdfrwt beam="1">  1        2 0.65513277E+00 0.84478031E+03</pdfrwt>
<pdfrwt beam="2">  1       -2 0.39009140E-01 0.84478031E+03</pdfrwt>
<totfact> 0.14108012E+00</totfact>
</mgrwt>
</event>
<event>
 4    1  0.1701380E-008  0.4917074E+03  0.7818608E-02  0.1015966E+00
          2   -1    0    0  501    0  0.00000000000E+00  0.00000000000E+00  0.16552403457E+04  0.16552403457E+04  0.25500000000E-02 0. -1.
         -2   -1    0    0    0  501 -0.00000000000E+00 -0.00000000000E+00 -0.20249550162E+04  0.20249550162E+04  0.25500000000E-02 0.  1.
    8880022    1    1    2    0    0  0.65732103659E+02 -0.46267026156E+03  0.15876319818E+04  0.16620323231E+04  0.15294330000E+03 0.  0.
    8880022    1    1    2    0    0 -0.65732103659E+02  0.46267026156E+03 -0.19573466523E+04  0.20181630387E+04  0.15294330000E+03 0.  0.
<mgrwt>
<rscale>  0 0.49170737E+03</rscale>
<asrwt>0</asrwt>
<pdfrwt beam="1">  1        2 0.25465236E+00 0.49170737E+03</pdfrwt>
<pdfrwt beam="2">  1       -2 0.31153154E+00 0.49170737E+03</pdfrwt>
<totfact> 0.32135897E-01</totfact>
</mgrwt>
</event>
<event>
 4    1  0.1701380E-008  0.1486559E+04  0.7818608E-02  0.8893440E-01
          2   -1    0    0  501    0  0.00000000000E+00  0.00000000000E+00  0.26377972669E+04  0.26377972669E+04  0.25500000000E-02 0. -1.
         -2   -1    0    0    0  501 -0.00000000000E+00 -0.00000000000E+00 -0.17360554312E+04  0.17360554312E+04  0.25500000000E-02 0.  1.
    8880022    1    1    2    0    0 -0.75373440365E+03  0.12721444508E+04  0.20239854370E+04  0.25112498396E+04  0.15294330000E+03 0.  0.
    8880022    1    1    2    0    0  0.75373440365E+03 -0.12721444508E+04 -0.11222436013E+04  0.18626028585E+04  0.15294330000E+03 0.  0.
<mgrwt>
<rscale>  0 0.14865594E+04</rscale>
<asrwt>0</asrwt>
<pdfrwt beam="1">  1        2 0.40581496E+00 0.14865594E+04</pdfrwt>
<pdfrwt beam="2">  1       -2 0.26708545E+00 0.14865594E+04</pdfrwt>
<totfact> 0.13722768E-01</totfact>
</mgrwt>
</event>
<event>
 4    1  0.1701380E-008  0.6802867E+03  0.7818608E-02  0.9751551E-01
          2   -1    0    0  501    0  0.00000000000E+00  0.00000000000E+00  0.14675562837E+04  0.14675562837E+04  0.25500000000E-02 0. -1.
         -2   -1    0    0    0  501 -0.00000000000E+00 -0.00000000000E+00 -0.35946391157E+03  0.35946391158E+03  0.25500000000E-02 0.  1.
    8880022    1    1    2    0    0  0.43461462868E+03 -0.50050817062E+03  0.23401918229E+03  0.71941290996E+03  0.15294330000E+03 0.  0.
    8880022    1    1    2    0    0 -0.43461462868E+03  0.50050817062E+03  0.87407318984E+03  0.11076072853E+04  0.15294330000E+03 0.  0.
<mgrwt>
<rscale>  0 0.68028667E+03</rscale>
<asrwt>0</asrwt>
<pdfrwt beam="1">  1        2 0.22577789E+00 0.68028667E+03</pdfrwt>
<pdfrwt beam="2">  1       -2 0.55302140E-01 0.68028667E+03</pdfrwt>
<totfact> 0.41921461E+01</totfact>
</mgrwt>
</event>
<event>
 4    1  0.1701380E-008  0.2703157E+03  0.7818608E-02  0.1101099E+00
         -2   -1    0    0    0  501 -0.00000000000E+00  0.00000000000E+00  0.10971246108E+04  0.10971246108E+04  0.25500000000E-02 0.  1.
          2   -1    0    0  501    0  0.00000000000E+00 -0.00000000000E+00 -0.57534065617E+03  0.57534065618E+03  0.25500000000E-02 0. -1.
    8880022    1    1    2    0    0 -0.74178974232E+02 -0.21018188798E+03  0.10472349053E+04  0.10815597746E+04  0.15294330000E+03 0.  0.
    8880022    1    1    2    0    0  0.74178974232E+02  0.21018188798E+03 -0.52545095068E+03  0.59090549231E+03  0.15294330000E+03 0. -1.
<mgrwt>
<rscale>  0 0.27031574E+03</rscale>
<asrwt>0</asrwt>
<pdfrwt beam="1">  1        2 0.88513947E-01 0.27031574E+03</pdfrwt>
<pdfrwt beam="2">  1       -2 0.16878840E+00 0.27031574E+03</pdfrwt>
<totfact> 0.12470714E+01</totfact>
</mgrwt>
</event>
<event>
 4    1  0.1701380E-008  0.6094057E+03  0.7818608E-02  0.9886082E-01
         -2   -1    0    0    0  501 -0.00000000000E+00  0.00000000000E+00  0.38895669118E+03  0.38895669119E+03  0.25500000000E-02 0.  1.
          2   -1    0    0  501    0  0.00000000000E+00 -0.00000000000E+00 -0.18886286473E+04  0.18886286473E+04  0.25500000000E-02 0. -1.
    8880022    1    1    2    0    0 -0.39785334772E+03 -0.43554149453E+03 -0.15506013441E+04  0.16660551795E+04  0.15294330000E+03 0.  0.
    8880022    1    1    2    0    0  0.39785334772E+03  0.43554149453E+03  0.50929388033E+02  0.61153015897E+03  0.15294330000E+03 0.  0.
<mgrwt>
<rscale>  0 0.60940572E+03</rscale>
<asrwt>0</asrwt>
<pdfrwt beam="1">  1        2 0.29055825E+00 0.60940572E+03</pdfrwt>
<pdfrwt beam="2">  1       -2 0.59839492E-01 0.60940572E+03</pdfrwt>
<totfact> 0.21139533E+01</totfact>
</mgrwt>
</event>
<event>
 4    1  0.1701380E-008  0.1087409E+04  0.7818608E-02  0.9217552E-01
         -2   -1    0    0    0  501 -0.00000000000E+00  0.00000000000E+00  0.81908542299E+03  0.81908542299E+03  0.25500000000E-02 0.  1.
          2   -1    0    0  501    0  0.00000000000E+00 -0.00000000000E+00 -0.38262291680E+04  0.38262291680E+04  0.25500000000E-02 0. -1.
    8880022    1    1    2    0    0 -0.59511023042E+03 -0.89716770878E+03  0.32926991456E+03  0.11361674233E+04  0.15294330000E+03 0.  0.
    8880022    1    1    2    0    0  0.59511023042E+03  0.89716770878E+03 -0.33364136596E+04  0.35091471678E+04  0.15294330000E+03 0.  0.
<mgrwt>
<rscale>  0 0.10874087E+04</rscale>
<asrwt>0</asrwt>
<pdfrwt beam="1">  1        2 0.58865063E+00 0.10874087E+04</pdfrwt>
<pdfrwt beam="2">  1       -2 0.12601314E+00 0.10874087E+04</pdfrwt>
<totfact> 0.22589799E-01</totfact>
</mgrwt>
</event>
<event>
 4    1  0.1701380E-008  0.1039910E+04  0.7818608E-02  0.9265824E-01
          2   -1    0    0  501    0  0.00000000000E+00  0.00000000000E+00  0.12430216273E+04  0.12430216273E+04  0.25500000000E-02 0. -1.
         -2   -1    0    0    0  501 -0.00000000000E+00 -0.00000000000E+00 -0.18907992564E+04  0.18907992564E+04  0.25500000000E-02 0.  1.
    8880022    1    1    2    0    0 -0.11635804450E+03  0.10219987580E+04 -0.14752046038E+04  0.18048936068E+04  0.15294330000E+03 0.  0.
    8880022    1    1    2    0    0  0.11635804450E+03 -0.10219987580E+04  0.82742697470E+03  0.13289272769E+04  0.15294330000E+03 0.  0.
<mgrwt>
<rscale>  0 0.10399098E+04</rscale>
<asrwt>0</asrwt>
<pdfrwt beam="1">  1        2 0.19123410E+00 0.10399098E+04</pdfrwt>
<pdfrwt beam="2">  1       -2 0.29089219E+00 0.10399098E+04</pdfrwt>
<totfact> 0.64310214E-01</totfact>
</mgrwt>
</event>
<event>
 4    1  0.1701380E-008  0.5172956E+03  0.7818608E-02  0.1009361E+00
         -2   -1    0    0    0  501 -0.00000000000E+00  0.00000000000E+00  0.88844300628E+03  0.88844300629E+03  0.25500000000E-02 0.  1.
          2   -1    0    0  501    0  0.00000000000E+00 -0.00000000000E+00 -0.51678373901E+03  0.51678373901E+03  0.25500000000E-02 0. -1.
    8880022    1    1    2    0    0 -0.46142929031E+03  0.17687879615E+03 -0.26798118596E+03  0.58258790540E+03  0.15294330000E+03 0.  0.
    8880022    1    1    2    0    0  0.46142929031E+03 -0.17687879615E+03  0.63964045323E+03  0.82263883990E+03  0.15294330000E+03 0.  0.
<mgrwt>
<rscale>  0 0.51729561E+03</rscale>
<asrwt>0</asrwt>
<pdfrwt beam="1">  1        2 0.79505191E-01 0.51729561E+03</pdfrwt>
<pdfrwt beam="2">  1       -2 0.13668354E+00 0.51729561E+03</pdfrwt>
<totfact> 0.23479785E+01</totfact>
</mgrwt>
</event>
<event>
 4    1  0.1701380E-008  0.1212533E+04  0.7818608E-02  0.9101957E-01
         -2   -1    0    0    0  501 -0.00000000000E+00  0.00000000000E+00  0.10031544601E+04  0.10031544601E+04  0.25500000000E-02 0.  1.
          2   -1    0    0  501    0  0.00000000000E+00 -0.00000000000E+00 -0.36372906537E+04  0.36372906537E+04  0.25500000000E-02 0. -1.
    8880022    1    1    2    0    0 -0.34493403266E+03  0.11523301107E+04  0.47575881144E+03  0.13025291822E+04  0.15294330000E+03 0.  0.
    8880022    1    1    2    0    0  0.34493403266E+03 -0.11523301107E+04 -0.31098950050E+04  0.33379159315E+04  0.15294330000E+03 0.  0.
<mgrwt>
<rscale>  0 0.12125328E+04</rscale>
<asrwt>0</asrwt>
<pdfrwt beam="1">  1        2 0.55958317E+00 0.12125328E+04</pdfrwt>
<pdfrwt beam="2">  1       -2 0.15433146E+00 0.12125328E+04</pdfrwt>
<totfact> 0.17940849E-01</totfact>
</mgrwt>
</event>
<event>
 4    1  0.1701380E-008  0.9519892E+03  0.7818608E-02  0.9362829E-01
         -2   -1    0    0    0  501 -0.00000000000E+00  0.00000000000E+00  0.63565322380E+03  0.63565322381E+03  0.25500000000E-02 0.  1.
          2   -1    0    0  501    0  0.00000000000E+00 -0.00000000000E+00 -0.26394278656E+04  0.26394278656E+04  0.25500000000E-02 0. -1.
    8880022    1    1    2    0    0 -0.81477922407E+03 -0.46800273511E+03  0.10853619361E+03  0.95815630373E+03  0.15294330000E+03 0.  0.
    8880022    1    1    2    0    0  0.81477922407E+03  0.46800273511E+03 -0.21123108354E+04  0.23169247857E+04  0.15294330000E+03 0.  0.
<mgrwt>
<rscale>  0 0.95198918E+03</rscale>
<asrwt>0</asrwt>
<pdfrwt beam="1">  1        2 0.40606582E+00 0.95198918E+03</pdfrwt>
<pdfrwt beam="2">  1       -2 0.97792805E-01 0.95198918E+03</pdfrwt>
<totfact> 0.25590241E+00</totfact>
</mgrwt>
</event>
<event>
 4    1  0.1701380E-008  0.1024015E+04  0.7818608E-02  0.9282590E-01
         -2   -1    0    0    0  501 -0.00000000000E+00  0.00000000000E+00  0.54971345281E+03  0.54971345282E+03  0.25500000000E-02 0.  1.
          2   -1    0    0  501    0  0.00000000000E+00 -0.00000000000E+00 -0.32839191339E+04  0.32839191339E+04  0.25500000000E-02 0. -1.
    8880022    1    1    2    0    0  0.10080771572E+04  0.94847846093E+02 -0.12616131181E+03  0.10317577227E+04  0.15294330000E+03 0.  0.
    8880022    1    1    2    0    0 -0.10080771572E+04 -0.94847846093E+02 -0.26080443692E+04  0.28018748640E+04  0.15294330000E+03 0.  0.
<mgrwt>
<rscale>  0 0.10240153E+04</rscale>
<asrwt>0</asrwt>
<pdfrwt beam="1">  1        2 0.50521832E+00 0.10240153E+04</pdfrwt>
<pdfrwt beam="2">  1       -2 0.84571302E-01 0.10240153E+04</pdfrwt>
<totfact> 0.14254106E+00</totfact>
</mgrwt>
</event>
<event>
 4    1  0.1701380E-008  0.7761429E+03  0.7818608E-02  0.9595206E-01
          2   -1    0    0  501    0  0.00000000000E+00  0.00000000000E+00  0.10060217121E+04  0.10060217121E+04  0.25500000000E-02 0. -1.
         -2   -1    0    0    0  501 -0.00000000000E+00 -0.00000000000E+00 -0.66314294491E+03  0.66314294492E+03  0.25500000000E-02 0.  1.
    8880022    1    1    2    0    0  0.74004588631E+03  0.17702591820E+03  0.43142127997E+03  0.88798764822E+03  0.15294330000E+03 0.  0.
    8880022    1    1    2    0    0 -0.74004588631E+03 -0.17702591820E+03 -0.88542512759E+02  0.78117700884E+03  0.15294330000E+03 0.  0.
<mgrwt>
<rscale>  0 0.77614286E+03</rscale>
<asrwt>0</asrwt>
<pdfrwt beam="1">  1        2 0.15477257E+00 0.77614286E+03</pdfrwt>
<pdfrwt beam="2">  1       -2 0.10202199E+00 0.77614286E+03</pdfrwt>
<totfact> 0.19933350E+01</totfact>
</mgrwt>
</event>
<event>
 4    1  0.1701380E-008  0.7904000E+03  0.7818608E-02  0.9574018E-01
         -2   -1    0    0    0  501 -0.00000000000E+00  0.00000000000E+00  0.62204499253E+03  0.62204499253E+03  0.25500000000E-02 0.  1.
          2   -1    0    0  501    0  0.00000000000E+00 -0.00000000000E+00 -0.15420989086E+04  0.15420989086E+04  0.25500000000E-02 0. -1.
    8880022    1    1    2    0    0  0.63451534694E+03 -0.44579239398E+03  0.17897457584E+03  0.81040985670E+03  0.15294330000E+03 0.  0.
    8880022    1    1    2    0    0 -0.63451534694E+03  0.44579239398E+03 -0.10990284920E+04  0.13537340445E+04  0.15294330000E+03 0.  0.
<mgrwt>
<rscale>  0 0.79040005E+03</rscale>
<asrwt>0</asrwt>
<pdfrwt beam="1">  1        2 0.23724598E+00 0.79040005E+03</pdfrwt>
<pdfrwt beam="2">  1       -2 0.95699230E-01 0.79040005E+03</pdfrwt>
<totfact> 0.11230198E+01</totfact>
</mgrwt>
</event>
<event>
 4    1  0.1701380E-008  0.9530936E+03  0.7818608E-02  0.9361542E-01
         -2   -1    0    0    0  501 -0.00000000000E+00  0.00000000000E+00  0.94036700240E+03  0.94036700240E+03  0.25500000000E-02 0.  1.
          2   -1    0    0  501    0  0.00000000000E+00 -0.00000000000E+00 -0.25490319082E+04  0.25490319082E+04  0.25500000000E-02 0. -1.
    8880022    1    1    2    0    0  0.48381260268E+03 -0.80679685890E+03 -0.21792569647E+04  0.23785601479E+04  0.15294330000E+03 0.  0.
    8880022    1    1    2    0    0 -0.48381260268E+03  0.80679685890E+03  0.57059205888E+03  0.11108387627E+04  0.15294330000E+03 0.  0.
<mgrwt>
<rscale>  0 0.95309363E+03</rscale>
<asrwt>0</asrwt>
<pdfrwt beam="1">  1        2 0.39215875E+00 0.95309363E+03</pdfrwt>
<pdfrwt beam="2">  1       -2 0.14467185E+00 0.95309363E+03</pdfrwt>
<totfact> 0.10901276E+00</totfact>
</mgrwt>
</event>
<event>
 4    1  0.1701380E-008  0.3432123E+03  0.7818608E-02  0.1065436E+00
          2   -1    0    0  501    0  0.00000000000E+00  0.00000000000E+00  0.13038289724E+04  0.13038289724E+04  0.25500000000E-02 0. -1.
         -2   -1    0    0    0  501 -0.00000000000E+00 -0.00000000000E+00 -0.11600793396E+03  0.11600793399E+03  0.25500000000E-02 0.  1.
    8880022    1    1    2    0    0 -0.17700594896E+03  0.25114130153E+03  0.92781014349E+03  0.98925546482E+03  0.15294330000E+03 0.  1.
    8880022    1    1    2    0    0  0.17700594896E+03 -0.25114130153E+03  0.26001089492E+03  0.43058144154E+03  0.15294330000E+03 0.  0.
<mgrwt>
<rscale>  0 0.34321234E+03</rscale>
<asrwt>0</asrwt>
<pdfrwt beam="1">  1        2 0.20058907E+00 0.34321234E+03</pdfrwt>
<pdfrwt beam="2">  1       -2 0.17847375E-01 0.34321234E+03</pdfrwt>
<totfact> 0.44483136E+02</totfact>
</mgrwt>
</event>
<event>
 4    1  0.1701380E-008  0.7971765E+03  0.7818608E-02  0.9564113E-01
         -2   -1    0    0    0  501 -0.00000000000E+00  0.00000000000E+00  0.94036971983E+03  0.94036971983E+03  0.25500000000E-02 0.  1.
          2   -1    0    0  501    0  0.00000000000E+00 -0.00000000000E+00 -0.12801951704E+04  0.12801951704E+04  0.25500000000E-02 0. -1.
    8880022    1    1    2    0    0  0.58413718059E+03  0.52046365714E+03  0.59297439417E+03  0.99353356728E+03  0.15294330000E+03 0.  0.
    8880022    1    1    2    0    0 -0.58413718059E+03 -0.52046365714E+03 -0.93279984473E+03  0.12270313229E+04  0.15294330000E+03 0.  0.
<mgrwt>
<rscale>  0 0.79717647E+03</rscale>
<asrwt>0</asrwt>
<pdfrwt beam="1">  1        2 0.19695310E+00 0.79717647E+03</pdfrwt>
<pdfrwt beam="2">  1       -2 0.14467226E+00 0.79717647E+03</pdfrwt>
<totfact> 0.56844102E+00</totfact>
</mgrwt>
</event>
<event>
 4    1  0.1701380E-008  0.2626342E+03  0.7818608E-02  0.1105571E+00
          2   -1    0    0  501    0  0.00000000000E+00  0.00000000000E+00  0.49786651135E+03  0.49786651135E+03  0.25500000000E-02 0. -1.
         -2   -1    0    0    0  501 -0.00000000000E+00 -0.00000000000E+00 -0.64074222669E+03  0.64074222669E+03  0.25500000000E-02 0.  1.
    8880022    1    1    2    0    0 -0.21320919490E+03  0.11265542156E+02  0.43257331449E+03  0.50605967894E+03  0.15294330000E+03 0. -1.
    8880022    1    1    2    0    0  0.21320919490E+03 -0.11265542156E+02 -0.57544902983E+03  0.63254905910E+03  0.15294330000E+03 0.  0.
<mgrwt>
<rscale>  0 0.26263421E+03</rscale>
<asrwt>0</asrwt>
<pdfrwt beam="1">  1        2 0.76594847E-01 0.26263421E+03</pdfrwt>
<pdfrwt beam="2">  1       -2 0.98575728E-01 0.26263421E+03</pdfrwt>
<totfact> 0.56235606E+01</totfact>
</mgrwt>
</event>
<event>
 4    1  0.1701380E-008  0.5999586E+03  0.7818608E-02  0.9905492E-01
          2   -1    0    0  501    0  0.00000000000E+00  0.00000000000E+00  0.11435240182E+04  0.11435240182E+04  0.25500000000E-02 0. -1.
         -2   -1    0    0    0  501 -0.00000000000E+00 -0.00000000000E+00 -0.24389244597E+04  0.24389244597E+04  0.25500000000E-02 0.  1.
    8880022    1    1    2    0    0 -0.57136524265E+03  0.10050096433E+03 -0.23193432295E+04  0.23956843184E+04  0.15294330000E+03 0.  0.
    8880022    1    1    2    0    0  0.57136524265E+03 -0.10050096433E+03  0.10239427880E+04  0.11867641596E+04  0.15294330000E+03 0.  0.
<mgrwt>
<rscale>  0 0.59995861E+03</rscale>
<asrwt>0</asrwt>
<pdfrwt beam="1">  1        2 0.17592677E+00 0.59995861E+03</pdfrwt>
<pdfrwt beam="2">  1       -2 0.37521915E+00 0.59995861E+03</pdfrwt>
<totfact> 0.24433264E-01</totfact>
</mgrwt>
</event>
<event>
 4    1  0.1701380E-008  0.7756484E+03  0.7818608E-02  0.9595950E-01
         -2   -1    0    0    0  501 -0.00000000000E+00  0.00000000000E+00  0.92398063392E+03  0.92398063392E+03  0.25500000000E-02 0.  1.
          2   -1    0    0  501    0  0.00000000000E+00 -0.00000000000E+00 -0.99741831564E+03  0.99741831564E+03  0.25500000000E-02 0. -1.
    8880022    1    1    2    0    0 -0.69961783195E+03  0.29794921600E+03 -0.60278668990E+03  0.98233512236E+03  0.15294330000E+03 0.  0.
    8880022    1    1    2    0    0  0.69961783195E+03 -0.29794921600E+03  0.52934900818E+03  0.93906382721E+03  0.15294330000E+03 0.  1.
<mgrwt>
<rscale>  0 0.77564844E+03</rscale>
<asrwt>0</asrwt>
<pdfrwt beam="1">  1        2 0.15344897E+00 0.77564844E+03</pdfrwt>
<pdfrwt beam="2">  1       -2 0.14215087E+00 0.77564844E+03</pdfrwt>
<totfact> 0.88564787E+00</totfact>
</mgrwt>
</event>
<event>
 4    1  0.1701380E-008  0.8726391E+03  0.7818608E-02  0.9460445E-01
         -2   -1    0    0    0  501 -0.00000000000E+00  0.00000000000E+00  0.17962328717E+04  0.17962328717E+04  0.25500000000E-02 0.  1.
          2   -1    0    0  501    0  0.00000000000E+00 -0.00000000000E+00 -0.78984319479E+03  0.78984319479E+03  0.25500000000E-02 0. -1.
    8880022    1    1    2    0    0  0.34782633872E+03 -0.78557247376E+03 -0.37688617231E+03  0.95054832246E+03  0.15294330000E+03 0.  0.
    8880022    1    1    2    0    0 -0.34782633872E+03  0.78557247376E+03  0.13832758492E+04  0.16355277440E+04  0.15294330000E+03 0.  0.
<mgrwt>
<rscale>  0 0.87263906E+03</rscale>
<asrwt>0</asrwt>
<pdfrwt beam="1">  1        2 0.12151434E+00 0.87263906E+03</pdfrwt>
<pdfrwt beam="2">  1       -2 0.27634352E+00 0.87263906E+03</pdfrwt>
<totfact> 0.15816170E+00</totfact>
</mgrwt>
</event>
<event>
 4    1  0.1701380E-008  0.5585130E+03  0.7818608E-02  0.9995425E-01
          2   -1    0    0  501    0  0.00000000000E+00  0.00000000000E+00  0.88254766090E+03  0.88254766090E+03  0.25500000000E-02 0. -1.
         -2   -1    0    0    0  501 -0.00000000000E+00 -0.00000000000E+00 -0.16048363100E+04  0.16048363100E+04  0.25500000000E-02 0.  1.
    8880022    1    1    2    0    0 -0.46117006219E+03 -0.27544018578E+03  0.73708517382E+03  0.92478718021E+03  0.15294330000E+03 0.  0.
    8880022    1    1    2    0    0  0.46117006219E+03  0.27544018578E+03 -0.14593738229E+04  0.15625967907E+04  0.15294330000E+03 0.  0.
<mgrwt>
<rscale>  0 0.55851300E+03</rscale>
<asrwt>0</asrwt>
<pdfrwt beam="1">  1        2 0.13577656E+00 0.55851300E+03</pdfrwt>
<pdfrwt beam="2">  1       -2 0.24689789E+00 0.55851300E+03</pdfrwt>
<totfact> 0.21648268E+00</totfact>
</mgrwt>
</event>
<event>
 4    1  0.1701380E-008  0.8397597E+03  0.7818608E-02  0.9504185E-01
         -2   -1    0    0    0  501 -0.00000000000E+00  0.00000000000E+00  0.60120790142E+03  0.60120790142E+03  0.25500000000E-02 0.  1.
          2   -1    0    0  501    0  0.00000000000E+00 -0.00000000000E+00 -0.12854690838E+04  0.12854690838E+04  0.25500000000E-02 0. -1.
    8880022    1    1    2    0    0 -0.49936478118E+02 -0.82420327963E+03 -0.62120447501E+03  0.10445531824E+04  0.15294330000E+03 0.  0.
    8880022    1    1    2    0    0  0.49936478118E+02  0.82420327963E+03 -0.63056707387E+02  0.84212380287E+03  0.15294330000E+03 0.  0.
<mgrwt>
<rscale>  0 0.83975970E+03</rscale>
<asrwt>0</asrwt>
<pdfrwt beam="1">  1        2 0.19776447E+00 0.83975970E+03</pdfrwt>
<pdfrwt beam="2">  1       -2 0.92493523E-01 0.83975970E+03</pdfrwt>
<totfact> 0.16896432E+01</totfact>
</mgrwt>
</event>
<event>
 4    1  0.1701380E-008  0.8737217E+03  0.7818608E-02  0.9459040E-01
          2   -1    0    0  501    0  0.00000000000E+00  0.00000000000E+00  0.28792513921E+04  0.28792513921E+04  0.25500000000E-02 0. -1.
         -2   -1    0    0    0  501 -0.00000000000E+00 -0.00000000000E+00 -0.52536687032E+03  0.52536687032E+03  0.25500000000E-02 0.  1.
    8880022    1    1    2    0    0  0.37918475964E+03 -0.77215084265E+03  0.23750269549E+04  0.25306407677E+04  0.15294330000E+03 0.  0.
    8880022    1    1    2    0    0 -0.37918475964E+03  0.77215084265E+03 -0.21142433112E+02  0.87397749470E+03  0.15294330000E+03 0.  0.
<mgrwt>
<rscale>  0 0.87372173E+03</rscale>
<asrwt>0</asrwt>
<pdfrwt beam="1">  1        2 0.44296175E+00 0.87372173E+03</pdfrwt>
<pdfrwt beam="2">  1       -2 0.80825674E-01 0.87372173E+03</pdfrwt>
<totfact> 0.29027687E+00</totfact>
</mgrwt>
</event>
<event>
 4    1  0.1701380E-008  0.1459404E+04  0.7818608E-02  0.8911907E-01
         -2   -1    0    0    0  501 -0.00000000000E+00  0.00000000000E+00  0.14079035619E+04  0.14079035619E+04  0.25500000000E-02 0.  1.
          2   -1    0    0  501    0  0.00000000000E+00 -0.00000000000E+00 -0.20006052074E+04  0.20006052074E+04  0.25500000000E-02 0. -1.
    8880022    1    1    2    0    0  0.14489260934E+04  0.84143498156E+02 -0.11379060059E+04  0.18505914416E+04  0.15294330000E+03 0.  0.
    8880022    1    1    2    0    0 -0.14489260934E+04 -0.84143498156E+02  0.54520436030E+03  0.15579173277E+04  0.15294330000E+03 0.  0.
<mgrwt>
<rscale>  0 0.14594035E+04</rscale>
<asrwt>0</asrwt>
<pdfrwt beam="1">  1        2 0.30778542E+00 0.14594035E+04</pdfrwt>
<pdfrwt beam="2">  1       -2 0.21660055E+00 0.14594035E+04</pdfrwt>
<totfact> 0.65359528E-01</totfact>
</mgrwt>
</event>
<event>
 4    1  0.1701380E-008  0.5175808E+03  0.7818608E-02  0.1009289E+00
          2   -1    0    0  501    0  0.00000000000E+00  0.00000000000E+00  0.25524165944E+04  0.25524165944E+04  0.25500000000E-02 0. -1.
         -2   -1    0    0    0  501 -0.00000000000E+00 -0.00000000000E+00 -0.26990459304E+03  0.26990459306E+03  0.25500000000E-02 0.  1.
    8880022    1    1    2    0    0  0.35965049267E+03 -0.33933727184E+03  0.38075960232E+02  0.51897947233E+03  0.15294330000E+03 0.  0.
    8880022    1    1    2    0    0 -0.35965049267E+03  0.33933727184E+03  0.22444360411E+04  0.23033417151E+04  0.15294330000E+03 0. -1.
<mgrwt>
<rscale>  0 0.51758083E+03</rscale>
<asrwt>0</asrwt>
<pdfrwt beam="1">  1        2 0.39267949E+00 0.51758083E+03</pdfrwt>
<pdfrwt beam="2">  1       -2 0.41523783E-01 0.51758083E+03</pdfrwt>
<totfact> 0.19509043E+01</totfact>
</mgrwt>
</event>
<event>
 4    1  0.1701380E-008  0.7061138E+03  0.7818608E-02  0.9706834E-01
         -2   -1    0    0    0  501 -0.00000000000E+00  0.00000000000E+00  0.11522485636E+04  0.11522485636E+04  0.25500000000E-02 0.  1.
          2   -1    0    0  501    0  0.00000000000E+00 -0.00000000000E+00 -0.38804853136E+04  0.38804853136E+04  0.25500000000E-02 0. -1.
    8880022    1    1    2    0    0  0.67744202578E+02  0.68601436103E+03 -0.37360383645E+04  0.38021808603E+04  0.15294330000E+03 0.  0.
    8880022    1    1    2    0    0 -0.67744202578E+02 -0.68601436103E+03  0.10078016145E+04  0.12305530170E+04  0.15294330000E+03 0.  0.
<mgrwt>
<rscale>  0 0.70611375E+03</rscale>
<asrwt>0</asrwt>
<pdfrwt beam="1">  1        2 0.59699773E+00 0.70611375E+03</pdfrwt>
<pdfrwt beam="2">  1       -2 0.17726901E+00 0.70611375E+03</pdfrwt>
<totfact> 0.90967026E-02</totfact>
</mgrwt>
</event>
<event>
 4    1  0.1701380E-008  0.8259417E+03  0.7818608E-02  0.9523209E-01
          2   -1    0    0  501    0  0.00000000000E+00  0.00000000000E+00  0.19611777113E+04  0.19611777113E+04  0.25500000000E-02 0. -1.
         -2   -1    0    0    0  501 -0.00000000000E+00 -0.00000000000E+00 -0.60554694338E+03  0.60554694339E+03  0.25500000000E-02 0.  1.
    8880022    1    1    2    0    0  0.42415901303E+03 -0.69200948871E+03  0.15150301746E+04  0.17255422579E+04  0.15294330000E+03 0.  0.
    8880022    1    1    2    0    0 -0.42415901303E+03  0.69200948871E+03 -0.15939940669E+03  0.84118239679E+03  0.15294330000E+03 0.  0.
<mgrwt>
<rscale>  0 0.82594168E+03</rscale>
<asrwt>0</asrwt>
<pdfrwt beam="1">  1        2 0.30171965E+00 0.82594168E+03</pdfrwt>
<pdfrwt beam="2">  1       -2 0.93161069E-01 0.82594168E+03</pdfrwt>
<totfact> 0.70084605E+00</totfact>
</mgrwt>
</event>
<event>
 4    1  0.1701380E-008  0.6886826E+03  0.7818608E-02  0.9736785E-01
         -2   -1    0    0    0  501 -0.00000000000E+00  0.00000000000E+00  0.13604815033E+04  0.13604815033E+04  0.25500000000E-02 0.  1.
          2   -1    0    0  501    0  0.00000000000E+00 -0.00000000000E+00 -0.19663070112E+04  0.19663070112E+04  0.25500000000E-02 0. -1.
    8880022    1    1    2    0    0  0.64022278667E+03  0.20250133829E+03  0.12058380456E+04  0.13886428821E+04  0.15294330000E+03 0.  0.
    8880022    1    1    2    0    0 -0.64022278667E+03 -0.20250133829E+03 -0.18116635535E+04  0.19381456325E+04  0.15294330000E+03 0.  0.
<mgrwt>
<rscale>  0 0.68868256E+03</rscale>
<asrwt>0</asrwt>
<pdfrwt beam="1">  1        2 0.30250877E+00 0.68868256E+03</pdfrwt>
<pdfrwt beam="2">  1       -2 0.20930485E+00 0.68868256E+03</pdfrwt>
<totfact> 0.85442575E-01</totfact>
</mgrwt>
</event>
<event>
 4    1  0.1701380E-008  0.1215775E+04  0.7818608E-02  0.9099160E-01
          2   -1    0    0  501    0  0.00000000000E+00  0.00000000000E+00  0.20757842481E+04  0.20757842481E+04  0.25500000000E-02 0. -1.
         -2   -1    0    0    0  501 -0.00000000000E+00 -0.00000000000E+00 -0.10147018514E+04  0.10147018514E+04  0.25500000000E-02 0.  1.
    8880022    1    1    2    0    0  0.12019611942E+04 -0.10002928993E+03 -0.31334390855E+03  0.12555049300E+04  0.15294330000E+03 0.  0.
    8880022    1    1    2    0    0 -0.12019611942E+04  0.10002928993E+03  0.13744263052E+04  0.18349811696E+04  0.15294330000E+03 0.  0.
<mgrwt>
<rscale>  0 0.12157747E+04</rscale>
<asrwt>0</asrwt>
<pdfrwt beam="1">  1        2 0.31935142E+00 0.12157747E+04</pdfrwt>
<pdfrwt beam="2">  1       -2 0.15610798E+00 0.12157747E+04</pdfrwt>
<totfact> 0.15860827E+00</totfact>
</mgrwt>
</event>
<event>
 4    1  0.1701380E-008  0.8901570E+03  0.7818608E-02  0.9437970E-01
          2   -1    0    0  501    0  0.00000000000E+00  0.00000000000E+00  0.18576555369E+04  0.18576555369E+04  0.25500000000E-02 0. -1.
         -2   -1    0    0    0  501 -0.00000000000E+00 -0.00000000000E+00 -0.95451331284E+03  0.95451331285E+03  0.25500000000E-02 0.  1.
    8880022    1    1    2    0    0 -0.40376810340E+02  0.87598942995E+03  0.14973095241E+04  0.17419285956E+04  0.15294330000E+03 0.  0.
    8880022    1    1    2    0    0  0.40376810340E+02 -0.87598942995E+03 -0.59416730003E+03  0.10702402542E+04  0.15294330000E+03 0.  0.
<mgrwt>
<rscale>  0 0.89015696E+03</rscale>
<asrwt>0</asrwt>
<pdfrwt beam="1">  1        2 0.28579316E+00 0.89015696E+03</pdfrwt>
<pdfrwt beam="2">  1       -2 0.14684820E+00 0.89015696E+03</pdfrwt>
<totfact> 0.25689724E+00</totfact>
</mgrwt>
</event>
<event>
 4    1  0.1701380E-008  0.5633119E+03  0.7818608E-02  0.9984589E-01
         -2   -1    0    0    0  501 -0.00000000000E+00  0.00000000000E+00  0.70069046627E+03  0.70069046627E+03  0.25500000000E-02 0.  1.
          2   -1    0    0  501    0  0.00000000000E+00 -0.00000000000E+00 -0.85180554189E+03  0.85180554189E+03  0.25500000000E-02 0. -1.
    8880022    1    1    2    0    0  0.53119813926E+02  0.53954324227E+03 -0.60678770436E+03  0.82795627667E+03  0.15294330000E+03 0.  0.
    8880022    1    1    2    0    0 -0.53119813926E+02 -0.53954324227E+03  0.45567262874E+03  0.72453973149E+03  0.15294330000E+03 0.  0.
<mgrwt>
<rscale>  0 0.56331188E+03</rscale>
<asrwt>0</asrwt>
<pdfrwt beam="1">  1        2 0.13104701E+00 0.56331188E+03</pdfrwt>
<pdfrwt beam="2">  1       -2 0.10779853E+00 0.56331188E+03</pdfrwt>
<totfact> 0.22628140E+01</totfact>
</mgrwt>
</event>
<event>
 4    1  0.1701380E-008  0.6453558E+03  0.7818608E-02  0.9815533E-01
         -2   -1    0    0    0  501 -0.00000000000E+00  0.00000000000E+00  0.42944289121E+03  0.42944289122E+03  0.25500000000E-02 0.  1.
          2   -1    0    0  501    0  0.00000000000E+00 -0.00000000000E+00 -0.20282905760E+04  0.20282905760E+04  0.25500000000E-02 0. -1.
    8880022    1    1    2    0    0  0.41817759036E+03 -0.46714022929E+03 -0.16871483661E+04  0.18063647896E+04  0.15294330000E+03 0.  0.
    8880022    1    1    2    0    0 -0.41817759036E+03  0.46714022929E+03  0.88300681264E+02  0.65136867765E+03  0.15294330000E+03 0.  0.
<mgrwt>
<rscale>  0 0.64535583E+03</rscale>
<asrwt>0</asrwt>
<pdfrwt beam="1">  1        2 0.31204470E+00 0.64535583E+03</pdfrwt>
<pdfrwt beam="2">  1       -2 0.66068139E-01 0.64535583E+03</pdfrwt>
<totfact> 0.14297676E+01</totfact>
</mgrwt>
</event>
<event>
 4    1  0.1701380E-008  0.1199406E+04  0.7818608E-02  0.9113377E-01
         -2   -1    0    0    0  501 -0.00000000000E+00  0.00000000000E+00  0.11736526149E+04  0.11736526149E+04  0.25500000000E-02 0.  1.
          2   -1    0    0  501    0  0.00000000000E+00 -0.00000000000E+00 -0.17602800031E+04  0.17602800031E+04  0.25500000000E-02 0. -1.
    8880022    1    1    2    0    0  0.24769484083E+03  0.11635419352E+04  0.51508546339E+03  0.13053303248E+04  0.15294330000E+03 0.  0.
    8880022    1    1    2    0    0 -0.24769484083E+03 -0.11635419352E+04 -0.11017128516E+04  0.16286022932E+04  0.15294330000E+03 0.  0.
<mgrwt>
<rscale>  0 0.11994058E+04</rscale>
<asrwt>0</asrwt>
<pdfrwt beam="1">  1        2 0.27081231E+00 0.11994058E+04</pdfrwt>
<pdfrwt beam="2">  1       -2 0.18056194E+00 0.11994058E+04</pdfrwt>
<totfact> 0.15837418E+00</totfact>
</mgrwt>
</event>
<event>
 4    1  0.1701380E-008  0.6435719E+03  0.7818608E-02  0.9818916E-01
         -2   -1    0    0    0  501 -0.00000000000E+00  0.00000000000E+00  0.17915287139E+03  0.17915287140E+03  0.25500000000E-02 0.  1.
          2   -1    0    0  501    0  0.00000000000E+00 -0.00000000000E+00 -0.25185013514E+04  0.25185013514E+04  0.25500000000E-02 0. -1.
    8880022    1    1    2    0    0  0.41598951341E+03 -0.46663241552E+03 -0.15559919667E+04  0.16838336438E+04  0.15294330000E+03 0.  0.
    8880022    1    1    2    0    0 -0.41598951341E+03  0.46663241552E+03 -0.78335651328E+03  0.10138205790E+04  0.15294330000E+03 0.  0.
<mgrwt>
<rscale>  0 0.64357186E+03</rscale>
<asrwt>0</asrwt>
<pdfrwt beam="1">  1        2 0.38746172E+00 0.64357186E+03</pdfrwt>
<pdfrwt beam="2">  1       -2 0.27561982E-01 0.64357186E+03</pdfrwt>
<totfact> 0.43124240E+01</totfact>
</mgrwt>
</event>
<event>
 4    1  0.1701380E-008  0.8573467E+03  0.7818608E-02  0.9480529E-01
         -2   -1    0    0    0  501 -0.00000000000E+00  0.00000000000E+00  0.67969453176E+03  0.67969453176E+03  0.25500000000E-02 0.  1.
          2   -1    0    0  501    0  0.00000000000E+00 -0.00000000000E+00 -0.15289713693E+04  0.15289713693E+04  0.25500000000E-02 0. -1.
    8880022    1    1    2    0    0  0.31616907945E+03 -0.78210543332E+03  0.17283137575E+03  0.87459369601E+03  0.15294330000E+03 0.  0.
    8880022    1    1    2    0    0 -0.31616907945E+03  0.78210543332E+03 -0.10221082133E+04  0.13340722051E+04  0.15294330000E+03 0.  0.
<mgrwt>
<rscale>  0 0.85734675E+03</rscale>
<asrwt>0</asrwt>
<pdfrwt beam="1">  1        2 0.23522636E+00 0.85734675E+03</pdfrwt>
<pdfrwt beam="2">  1       -2 0.10456839E+00 0.85734675E+03</pdfrwt>
<totfact> 0.91771102E+00</totfact>
</mgrwt>
</event>
<event>
 4    1  0.1701380E-008  0.3735260E+03  0.7818608E-02  0.1053353E+00
          2   -1    0    0  501    0  0.00000000000E+00  0.00000000000E+00  0.12896014307E+04  0.12896014307E+04  0.25500000000E-02 0. -1.
         -2   -1    0    0    0  501 -0.00000000000E+00 -0.00000000000E+00 -0.20114420883E+03  0.20114420885E+03  0.25500000000E-02 0.  1.
    8880022    1    1    2    0    0 -0.32503571358E+03 -0.10238084772E+03  0.37524055464E+02  0.37540612786E+03  0.15294330000E+03 0.  0.
    8880022    1    1    2    0    0  0.32503571358E+03  0.10238084772E+03  0.10509331664E+04  0.11153395117E+04  0.15294330000E+03 0.  0.
<mgrwt>
<rscale>  0 0.37352604E+03</rscale>
<asrwt>0</asrwt>
<pdfrwt beam="1">  1        2 0.19840021E+00 0.37352604E+03</pdfrwt>
<pdfrwt beam="2">  1       -2 0.30945264E-01 0.37352604E+03</pdfrwt>
<totfact> 0.17063796E+02</totfact>
</mgrwt>
</event>
<event>
 4    1  0.1701380E-008  0.8601822E+03  0.7818608E-02  0.9476772E-01
          2   -1    0    0  501    0  0.00000000000E+00  0.00000000000E+00  0.65730748349E+03  0.65730748349E+03  0.25500000000E-02 0. -1.
         -2   -1    0    0    0  501 -0.00000000000E+00 -0.00000000000E+00 -0.13571355749E+04  0.13571355749E+04  0.25500000000E-02 0.  1.
    8880022    1    1    2    0    0  0.37405273295E+03  0.75934599963E+03 -0.76587593676E+03  0.11517288733E+04  0.15294330000E+03 0.  0.
    8880022    1    1    2    0    0 -0.37405273295E+03 -0.75934599963E+03  0.66047845356E+02  0.86271418504E+03  0.15294330000E+03 0.  0.
<mgrwt>
<rscale>  0 0.86018222E+03</rscale>
<asrwt>0</asrwt>
<pdfrwt beam="1">  1        2 0.10112423E+00 0.86018222E+03</pdfrwt>
<pdfrwt beam="2">  1       -2 0.20879009E+00 0.86018222E+03</pdfrwt>
<totfact> 0.52147937E+00</totfact>
</mgrwt>
</event>
<event>
 4    1  0.1701380E-008  0.4545513E+03  0.7818608E-02  0.1026373E+00
         -2   -1    0    0    0  501 -0.00000000000E+00  0.00000000000E+00  0.10824943243E+04  0.10824943243E+04  0.25500000000E-02 0.  1.
          2   -1    0    0  501    0  0.00000000000E+00 -0.00000000000E+00 -0.21071225929E+04  0.21071225929E+04  0.25500000000E-02 0. -1.
    8880022    1    1    2    0    0  0.39621497684E+03 -0.16198440340E+03 -0.20331763801E+04  0.20833682105E+04  0.15294330000E+03 0.  0.
    8880022    1    1    2    0    0 -0.39621497684E+03  0.16198440340E+03  0.10085481115E+04  0.11062487067E+04  0.15294330000E+03 0.  1.
<mgrwt>
<rscale>  0 0.45455133E+03</rscale>
<asrwt>0</asrwt>
<pdfrwt beam="1">  1        2 0.32417271E+00 0.45455133E+03</pdfrwt>
<pdfrwt beam="2">  1       -2 0.16653759E+00 0.45455133E+03</pdfrwt>
<totfact> 0.14767644E+00</totfact>
</mgrwt>
</event>
<event>
 4    1  0.1701380E-008  0.1224040E+04  0.7818608E-02  0.9092071E-01
          2   -1    0    0  501    0  0.00000000000E+00  0.00000000000E+00  0.16197974552E+04  0.16197974552E+04  0.25500000000E-02 0. -1.
         -2   -1    0    0    0  501 -0.00000000000E+00 -0.00000000000E+00 -0.10787446288E+04  0.10787446288E+04  0.25500000000E-02 0.  1.
    8880022    1    1    2    0    0  0.51316385843E+02 -0.12133623383E+04  0.77994437645E+03  0.14514084259E+04  0.15294330000E+03 0.  0.
    8880022    1    1    2    0    0 -0.51316385843E+02  0.12133623383E+04 -0.23889155010E+03  0.12471336581E+04  0.15294330000E+03 0.  0.
<mgrwt>
<rscale>  0 0.12240397E+04</rscale>
<asrwt>0</asrwt>
<pdfrwt beam="1">  1        2 0.24919961E+00 0.12240397E+04</pdfrwt>
<pdfrwt beam="2">  1       -2 0.16596071E+00 0.12240397E+04</pdfrwt>
<totfact> 0.23990461E+00</totfact>
</mgrwt>
</event>
<event>
 4    1  0.1701380E-008  0.7458327E+03  0.7818608E-02  0.9641911E-01
         -2   -1    0    0    0  501 -0.00000000000E+00  0.00000000000E+00  0.74960967721E+03  0.74960967722E+03  0.25500000000E-02 0.  1.
          2   -1    0    0  501    0  0.00000000000E+00 -0.00000000000E+00 -0.49521091844E+04  0.49521091844E+04  0.25500000000E-02 0. -1.
    8880022    1    1    2    0    0 -0.65868844318E+03 -0.31464946987E+03 -0.47298438158E+04  0.47882866382E+04  0.15294330000E+03 0.  0.
    8880022    1    1    2    0    0  0.65868844318E+03  0.31464946987E+03  0.52734430861E+03  0.91343222349E+03  0.15294330000E+03 0.  0.
<mgrwt>
<rscale>  0 0.74583269E+03</rscale>
<asrwt>0</asrwt>
<pdfrwt beam="1">  1        2 0.76186293E+00 0.74583269E+03</pdfrwt>
<pdfrwt beam="2">  1       -2 0.11532457E+00 0.74583269E+03</pdfrwt>
<totfact> 0.27296796E-02</totfact>
</mgrwt>
</event>
<event>
 4    1  0.1701380E-008  0.4974927E+03  0.7818608E-02  0.1014435E+00
          2   -1    0    0  501    0  0.00000000000E+00  0.00000000000E+00  0.25779381020E+04  0.25779381020E+04  0.25500000000E-02 0. -1.
         -2   -1    0    0    0  501 -0.00000000000E+00 -0.00000000000E+00 -0.16289776724E+03  0.16289776726E+03  0.25500000000E-02 0.  1.
    8880022    1    1    2    0    0 -0.18962501533E+03  0.43376223125E+03  0.32934736975E+03  0.59663109429E+03  0.15294330000E+03 0.  0.
    8880022    1    1    2    0    0  0.18962501533E+03 -0.43376223125E+03  0.20856929650E+04  0.21442047750E+04  0.15294330000E+03 0.  0.
<mgrwt>
<rscale>  0 0.49749269E+03</rscale>
<asrwt>0</asrwt>
<pdfrwt beam="1">  1        2 0.39660585E+00 0.49749269E+03</pdfrwt>
<pdfrwt beam="2">  1       -2 0.25061195E-01 0.49749269E+03</pdfrwt>
<totfact> 0.48687709E+01</totfact>
</mgrwt>
</event>
<event>
 4    1  0.1701380E-008  0.1436932E+04  0.7818608E-02  0.8927511E-01
          2   -1    0    0  501    0  0.00000000000E+00  0.00000000000E+00  0.19616554102E+04  0.19616554102E+04  0.25500000000E-02 0. -1.
         -2   -1    0    0    0  501 -0.00000000000E+00 -0.00000000000E+00 -0.11864543832E+04  0.11864543832E+04  0.25500000000E-02 0.  1.
    8880022    1    1    2    0    0 -0.14828822350E+03  0.14210532594E+04  0.91636764947E+03  0.17042602751E+04  0.15294330000E+03 0.  0.
    8880022    1    1    2    0    0  0.14828822350E+03 -0.14210532594E+04 -0.14116662242E+03  0.14438495183E+04  0.15294330000E+03 0.  0.
<mgrwt>
<rscale>  0 0.14369319E+04</rscale>
<asrwt>0</asrwt>
<pdfrwt beam="1">  1        2 0.30179314E+00 0.14369319E+04</pdfrwt>
<pdfrwt beam="2">  1       -2 0.18253145E+00 0.14369319E+04</pdfrwt>
<totfact> 0.11572596E+00</totfact>
</mgrwt>
</event>
<event>
 4    1  0.1701380E-008  0.1024474E+04  0.7818608E-02  0.9282102E-01
          2   -1    0    0  501    0  0.00000000000E+00  0.00000000000E+00  0.18720113723E+04  0.18720113723E+04  0.25500000000E-02 0. -1.
         -2   -1    0    0    0  501 -0.00000000000E+00 -0.00000000000E+00 -0.71390380526E+03  0.71390380527E+03  0.25500000000E-02 0.  1.
    8880022    1    1    2    0    0 -0.80789106499E+03 -0.61111952157E+03 -0.20002186316E+02  0.10246691090E+04  0.15294330000E+03 0.  0.
    8880022    1    1    2    0    0  0.80789106499E+03  0.61111952157E+03  0.11781097534E+04  0.15612460685E+04  0.15294330000E+03 0.  0.
<mgrwt>
<rscale>  0 0.10244739E+04</rscale>
<asrwt>0</asrwt>
<pdfrwt beam="1">  1        2 0.28800174E+00 0.10244739E+04</pdfrwt>
<pdfrwt beam="2">  1       -2 0.10983136E+00 0.10244739E+04</pdfrwt>
<totfact> 0.51656447E+00</totfact>
</mgrwt>
</event>
<event>
 4    1  0.1701380E-008  0.1001076E+04  0.7818608E-02  0.9307365E-01
         -2   -1    0    0    0  501 -0.00000000000E+00  0.00000000000E+00  0.16419212839E+04  0.16419212839E+04  0.25500000000E-02 0.  1.
          2   -1    0    0  501    0  0.00000000000E+00 -0.00000000000E+00 -0.18815815393E+04  0.18815815393E+04  0.25500000000E-02 0. -1.
    8880022    1    1    2    0    0  0.86816696845E+03 -0.47439204972E+03 -0.15679174089E+04  0.18602468535E+04  0.15294330000E+03 0.  0.
    8880022    1    1    2    0    0 -0.86816696845E+03  0.47439204972E+03  0.13282571535E+04  0.16632559697E+04  0.15294330000E+03 0.  0.
<mgrwt>
<rscale>  0 0.10010761E+04</rscale>
<asrwt>0</asrwt>
<pdfrwt beam="1">  1        2 0.28947408E+00 0.10010761E+04</pdfrwt>
<pdfrwt beam="2">  1       -2 0.25260328E+00 0.10010761E+04</pdfrwt>
<totfact> 0.48245468E-01</totfact>
</mgrwt>
</event>
<event>
 4    1  0.1701380E-008  0.1114300E+04  0.7818608E-02  0.9191365E-01
          2   -1    0    0  501    0  0.00000000000E+00  0.00000000000E+00  0.22998110403E+04  0.22998110403E+04  0.25500000000E-02 0. -1.
         -2   -1    0    0    0  501 -0.00000000000E+00 -0.00000000000E+00 -0.12045014731E+04  0.12045014731E+04  0.25500000000E-02 0.  1.
    8880022    1    1    2    0    0  0.56332349471E+03  0.94917816706E+03 -0.75386373596E+03  0.13453530161E+04  0.15294330000E+03 0.  0.
    8880022    1    1    2    0    0 -0.56332349471E+03 -0.94917816706E+03  0.18491733032E+04  0.21589594972E+04  0.15294330000E+03 0.  0.
<mgrwt>
<rscale>  0 0.11142999E+04</rscale>
<asrwt>0</asrwt>
<pdfrwt beam="1">  1        2 0.35381708E+00 0.11142999E+04</pdfrwt>
<pdfrwt beam="2">  1       -2 0.18530792E+00 0.11142999E+04</pdfrwt>
<totfact> 0.74506337E-01</totfact>
</mgrwt>
</event>
<event>
 4    1  0.1701380E-008  0.4872831E+03  0.7818608E-02  0.1017153E+00
         -2   -1    0    0    0  501 -0.00000000000E+00  0.00000000000E+00  0.15991310327E+04  0.15991310327E+04  0.25500000000E-02 0.  1.
          2   -1    0    0  501    0  0.00000000000E+00 -0.00000000000E+00 -0.68994533441E+03  0.68994533442E+03  0.25500000000E-02 0. -1.
    8880022    1    1    2    0    0  0.43165456961E+03 -0.16651562232E+03 -0.55933445836E+03  0.74182195254E+03  0.15294330000E+03 0.  0.
    8880022    1    1    2    0    0 -0.43165456961E+03  0.16651562232E+03  0.14685201566E+04  0.15472544146E+04  0.15294330000E+03 0.  0.
<mgrwt>
<rscale>  0 0.48728305E+03</rscale>
<asrwt>0</asrwt>
<pdfrwt beam="1">  1        2 0.10614544E+00 0.48728305E+03</pdfrwt>
<pdfrwt beam="2">  1       -2 0.24602016E+00 0.48728305E+03</pdfrwt>
<totfact> 0.30658689E+00</totfact>
</mgrwt>
</event>
<event>
 4    1  0.1701380E-008  0.7826564E+03  0.7818608E-02  0.9585466E-01
          2   -1    0    0  501    0  0.00000000000E+00  0.00000000000E+00  0.86783441981E+03  0.86783441981E+03  0.25500000000E-02 0. -1.
         -2   -1    0    0    0  501 -0.00000000000E+00 -0.00000000000E+00 -0.94212775185E+03  0.94212775185E+03  0.25500000000E-02 0.  1.
    8880022    1    1    2    0    0 -0.57681539054E+03  0.50640233387E+03 -0.49036405010E+03  0.92358425342E+03  0.15294330000E+03 0.  0.
    8880022    1    1    2    0    0  0.57681539054E+03 -0.50640233387E+03  0.41607071806E+03  0.88637791824E+03  0.15294330000E+03 0.  0.
<mgrwt>
<rscale>  0 0.78265636E+03</rscale>
<asrwt>0</asrwt>
<pdfrwt beam="1">  1        2 0.13351299E+00 0.78265636E+03</pdfrwt>
<pdfrwt beam="2">  1       -2 0.14494273E+00 0.78265636E+03</pdfrwt>
<totfact> 0.10247797E+01</totfact>
</mgrwt>
</event>
<event>
 4    1  0.1701380E-008  0.3087777E+03  0.7818608E-02  0.1080933E+00
         -2   -1    0    0    0  501 -0.00000000000E+00  0.00000000000E+00  0.53044122803E+03  0.53044122803E+03  0.25500000000E-02 0.  1.
          2   -1    0    0  501    0  0.00000000000E+00 -0.00000000000E+00 -0.43876622682E+04  0.43876622682E+04  0.25500000000E-02 0. -1.
    8880022    1    1    2    0    0 -0.24820680027E+03 -0.10171220913E+03 -0.43367670856E+04  0.43477456684E+04  0.15294330000E+03 0. -1.
    8880022    1    1    2    0    0  0.24820680027E+03  0.10171220913E+03  0.47954604538E+03  0.57035782790E+03  0.15294330000E+03 0.  0.
<mgrwt>
<rscale>  0 0.30877766E+03</rscale>
<asrwt>0</asrwt>
<pdfrwt beam="1">  1        2 0.67502494E+00 0.30877766E+03</pdfrwt>
<pdfrwt beam="2">  1       -2 0.81606346E-01 0.30877766E+03</pdfrwt>
<totfact> 0.28928830E-01</totfact>
</mgrwt>
</event>
<event>
 4    1  0.1701380E-008  0.4482570E+03  0.7818608E-02  0.1028243E+00
          2   -1    0    0  501    0  0.00000000000E+00  0.00000000000E+00  0.29674792217E+03  0.29674792218E+03  0.25500000000E-02 0. -1.
         -2   -1    0    0    0  501 -0.00000000000E+00 -0.00000000000E+00 -0.91854544923E+03  0.91854544924E+03  0.25500000000E-02 0.  1.
    8880022    1    1    2    0    0  0.36442960428E+03 -0.21150360191E+03  0.62493460793E+00  0.44825746358E+03  0.15294330000E+03 0.  0.
    8880022    1    1    2    0    0 -0.36442960428E+03  0.21150360191E+03 -0.62242246168E+03  0.76703590784E+03  0.15294330000E+03 0.  0.
<mgrwt>
<rscale>  0 0.44825703E+03</rscale>
<asrwt>0</asrwt>
<pdfrwt beam="1">  1        2 0.45653527E-01 0.44825703E+03</pdfrwt>
<pdfrwt beam="2">  1       -2 0.14131468E+00 0.44825703E+03</pdfrwt>
<totfact> 0.40358550E+01</totfact>
</mgrwt>
</event>
<event>
 4    1  0.1701380E-008  0.1323234E+04  0.7818608E-02  0.9011341E-01
          2   -1    0    0  501    0  0.00000000000E+00  0.00000000000E+00  0.23298236663E+04  0.23298236663E+04  0.25500000000E-02 0. -1.
         -2   -1    0    0    0  501 -0.00000000000E+00 -0.00000000000E+00 -0.95951206703E+03  0.95951206703E+03  0.25500000000E-02 0.  1.
    8880022    1    1    2    0    0 -0.10862970544E+04  0.73994217681E+03 -0.80545201714E+02  0.13256828044E+04  0.15294330000E+03 0.  0.
    8880022    1    1    2    0    0  0.10862970544E+04 -0.73994217681E+03  0.14508568010E+04  0.19636529290E+04  0.15294330000E+03 0.  0.
<mgrwt>
<rscale>  0 0.13232337E+04</rscale>
<asrwt>0</asrwt>
<pdfrwt beam="1">  1        2 0.35843441E+00 0.13232337E+04</pdfrwt>
<pdfrwt beam="2">  1       -2 0.14761724E+00 0.13232337E+04</pdfrwt>
<totfact> 0.13114374E+00</totfact>
</mgrwt>
</event>
<event>
 4    1  0.1701380E-008  0.2124821E+03  0.7818608E-02  0.1139615E+00
          2   -1    0    0  501    0  0.00000000000E+00  0.00000000000E+00  0.97786579753E+03  0.97786579754E+03  0.25500000000E-02 0. -1.
         -2   -1    0    0    0  501 -0.00000000000E+00 -0.00000000000E+00 -0.72117877312E+02  0.72117877357E+02  0.25500000000E-02 0.  1.
    8880022    1    1    2    0    0 -0.25611517273E+02  0.14526194428E+03  0.13797073308E+03  0.25334671593E+03  0.15294330000E+03 0.  1.
    8880022    1    1    2    0    0  0.25611517273E+02 -0.14526194428E+03  0.76777718714E+03  0.79663695896E+03  0.15294330000E+03 0.  0.
<mgrwt>
<rscale>  0 0.21248208E+03</rscale>
<asrwt>0</asrwt>
<pdfrwt beam="1">  1        2 0.15044089E+00 0.21248208E+03</pdfrwt>
<pdfrwt beam="2">  1       -2 0.11095058E-01 0.21248208E+03</pdfrwt>
<totfact> 0.15211788E+03</totfact>
</mgrwt>
</event>
<event>
 4    1  0.1701380E-008  0.5144586E+03  0.7818608E-02  0.1010072E+00
         -2   -1    0    0    0  501 -0.00000000000E+00  0.00000000000E+00  0.14777302867E+04  0.14777302867E+04  0.25500000000E-02 0.  1.
          2   -1    0    0  501    0  0.00000000000E+00 -0.00000000000E+00 -0.11945065813E+04  0.11945065813E+04  0.25500000000E-02 0. -1.
    8880022    1    1    2    0    0 -0.18554201936E+03  0.45480784561E+03  0.13734957423E+04  0.14666827279E+04  0.15294330000E+03 0.  1.
    8880022    1    1    2    0    0  0.18554201936E+03 -0.45480784561E+03 -0.10902720369E+04  0.12055541401E+04  0.15294330000E+03 0.  0.
<mgrwt>
<rscale>  0 0.51445862E+03</rscale>
<asrwt>0</asrwt>
<pdfrwt beam="1">  1        2 0.18377024E+00 0.51445862E+03</pdfrwt>
<pdfrwt beam="2">  1       -2 0.22734312E+00 0.51445862E+03</pdfrwt>
<totfact> 0.18382249E+00</totfact>
</mgrwt>
</event>
<event>
 4    1  0.1701380E-008  0.1173842E+04  0.7818608E-02  0.9136065E-01
         -2   -1    0    0    0  501 -0.00000000000E+00  0.00000000000E+00  0.16404981026E+04  0.16404981026E+04  0.25500000000E-02 0.  1.
          2   -1    0    0  501    0  0.00000000000E+00 -0.00000000000E+00 -0.98305085341E+03  0.98305085341E+03  0.25500000000E-02 0. -1.
    8880022    1    1    2    0    0 -0.74809185750E+03  0.89155641672E+03 -0.17179525872E+03  0.11863471395E+04  0.15294330000E+03 0.  0.
    8880022    1    1    2    0    0  0.74809185750E+03 -0.89155641672E+03  0.82924250790E+03  0.14372018165E+04  0.15294330000E+03 0.  0.
<mgrwt>
<rscale>  0 0.11738424E+04</rscale>
<asrwt>0</asrwt>
<pdfrwt beam="1">  1        2 0.15123859E+00 0.11738424E+04</pdfrwt>
<pdfrwt beam="2">  1       -2 0.25238432E+00 0.11738424E+04</pdfrwt>
<totfact> 0.15683656E+00</totfact>
</mgrwt>
</event>
<event>
 4    1  0.1701380E-008  0.8867624E+03  0.7818608E-02  0.9442282E-01
          2   -1    0    0  501    0  0.00000000000E+00  0.00000000000E+00  0.13744749541E+04  0.13744749541E+04  0.25500000000E-02 0. -1.
         -2   -1    0    0    0  501 -0.00000000000E+00 -0.00000000000E+00 -0.21626464026E+04  0.21626464026E+04  0.25500000000E-02 0.  1.
    8880022    1    1    2    0    0  0.75093502682E+03 -0.44615291422E+03 -0.19107845417E+04  0.21065244017E+04  0.15294330000E+03 0.  0.
    8880022    1    1    2    0    0 -0.75093502682E+03  0.44615291422E+03  0.11226130932E+04  0.14305969549E+04  0.15294330000E+03 0.  0.
<mgrwt>
<rscale>  0 0.88676236E+03</rscale>
<asrwt>0</asrwt>
<pdfrwt beam="1">  1        2 0.21145769E+00 0.88676236E+03</pdfrwt>
<pdfrwt beam="2">  1       -2 0.33271483E+00 0.88676236E+03</pdfrwt>
<totfact> 0.30796297E-01</totfact>
</mgrwt>
</event>
<event>
 4    1  0.1701380E-008  0.1795987E+04  0.7818608E-02  0.8708436E-01
         -2   -1    0    0    0  501 -0.00000000000E+00  0.00000000000E+00  0.27922819197E+04  0.27922819197E+04  0.25500000000E-02 0.  1.
          2   -1    0    0  501    0  0.00000000000E+00 -0.00000000000E+00 -0.20358101048E+04  0.20358101048E+04  0.25500000000E-02 0. -1.
    8880022    1    1    2    0    0  0.11934290978E+04 -0.13333808235E+04 -0.12094893926E+04  0.21652791219E+04  0.15294330000E+03 0.  0.
    8880022    1    1    2    0    0 -0.11934290978E+04  0.13333808235E+04  0.19659612075E+04  0.26628129026E+04  0.15294330000E+03 0.  0.
<mgrwt>
<rscale>  0 0.17959869E+04</rscale>
<asrwt>0</asrwt>
<pdfrwt beam="1">  1        2 0.31320156E+00 0.17959869E+04</pdfrwt>
<pdfrwt beam="2">  1       -2 0.42958183E+00 0.17959869E+04</pdfrwt>
<totfact> 0.27332674E-02</totfact>
</mgrwt>
</event>
<event>
 4    1  0.1701380E-008  0.6725536E+03  0.7818608E-02  0.9765356E-01
         -2   -1    0    0    0  501 -0.00000000000E+00  0.00000000000E+00  0.78884977769E+03  0.78884977770E+03  0.25500000000E-02 0.  1.
          2   -1    0    0  501    0  0.00000000000E+00 -0.00000000000E+00 -0.11908586734E+04  0.11908586734E+04  0.25500000000E-02 0. -1.
    8880022    1    1    2    0    0  0.58452253860E+03  0.29541518155E+03 -0.91376592947E+03  0.11345909194E+04  0.15294330000E+03 0.  0.
    8880022    1    1    2    0    0 -0.58452253860E+03 -0.29541518155E+03  0.51175703379E+03  0.84511753163E+03  0.15294330000E+03 0.  0.
<mgrwt>
<rscale>  0 0.67255363E+03</rscale>
<asrwt>0</asrwt>
<pdfrwt beam="1">  1        2 0.18320903E+00 0.67255363E+03</pdfrwt>
<pdfrwt beam="2">  1       -2 0.12136150E+00 0.67255363E+03</pdfrwt>
<totfact> 0.10202425E+01</totfact>
</mgrwt>
</event>
<event>
 4    1  0.1701380E-008  0.8699792E+03  0.7818608E-02  0.9463907E-01
         -2   -1    0    0    0  501 -0.00000000000E+00  0.00000000000E+00  0.96188812457E+03  0.96188812457E+03  0.25500000000E-02 0.  1.
          2   -1    0    0  501    0  0.00000000000E+00 -0.00000000000E+00 -0.11017604380E+04  0.11017604380E+04  0.25500000000E-02 0. -1.
    8880022    1    1    2    0    0 -0.54579422608E+03  0.65998545688E+03 -0.62157414122E+03  0.10692138264E+04  0.15294330000E+03 0.  0.
    8880022    1    1    2    0    0  0.54579422608E+03 -0.65998545688E+03  0.48170182782E+03  0.99443473614E+03  0.15294330000E+03 0.  0.
<mgrwt>
<rscale>  0 0.86997919E+03</rscale>
<asrwt>0</asrwt>
<pdfrwt beam="1">  1        2 0.16950160E+00 0.86997919E+03</pdfrwt>
<pdfrwt beam="2">  1       -2 0.14798279E+00 0.86997919E+03</pdfrwt>
<totfact> 0.67819162E+00</totfact>
</mgrwt>
</event>
<event>
 4    1  0.1701380E-008  0.6922044E+03  0.7818608E-02  0.9730657E-01
         -2   -1    0    0    0  501 -0.00000000000E+00  0.00000000000E+00  0.97105833937E+03  0.97105833938E+03  0.25500000000E-02 0.  1.
          2   -1    0    0  501    0  0.00000000000E+00 -0.00000000000E+00 -0.12271896466E+04  0.12271896466E+04  0.25500000000E-02 0. -1.
    8880022    1    1    2    0    0 -0.57994093281E+03 -0.34557751150E+03  0.72183561706E+03  0.10000968019E+04  0.15294330000E+03 0.  0.
    8880022    1    1    2    0    0  0.57994093281E+03  0.34557751150E+03 -0.97796692426E+03  0.11981511841E+04  0.15294330000E+03 0.  0.
<mgrwt>
<rscale>  0 0.69220442E+03</rscale>
<asrwt>0</asrwt>
<pdfrwt beam="1">  1        2 0.18879841E+00 0.69220442E+03</pdfrwt>
<pdfrwt beam="2">  1       -2 0.14939359E+00 0.69220442E+03</pdfrwt>
<totfact> 0.56938052E+00</totfact>
</mgrwt>
</event>
<event>
 4    1  0.1701380E-008  0.3430843E+03  0.7818608E-02  0.1065490E+00
          2   -1    0    0  501    0  0.00000000000E+00  0.00000000000E+00  0.38537334744E+04  0.38537334744E+04  0.25500000000E-02 0. -1.
         -2   -1    0    0    0  501 -0.00000000000E+00 -0.00000000000E+00 -0.39262663637E+02  0.39262663720E+02  0.25500000000E-02 0.  1.
    8880022    1    1    2    0    0 -0.29124113188E+03  0.97435994819E+02  0.98996056987E+03  0.10477255141E+04  0.15294330000E+03 0.  0.
    8880022    1    1    2    0    0  0.29124113188E+03 -0.97435994819E+02  0.28245102409E+04  0.28452706240E+04  0.15294330000E+03 0.  0.
<mgrwt>
<rscale>  0 0.34308428E+03</rscale>
<asrwt>0</asrwt>
<pdfrwt beam="1">  1        2 0.59288206E+00 0.34308428E+03</pdfrwt>
<pdfrwt beam="2">  1       -2 0.60404099E-02 0.34308428E+03</pdfrwt>
<totfact> 0.82099568E+01</totfact>
</mgrwt>
</event>
<event>
 4    1  0.1701380E-008  0.9971188E+03  0.7818608E-02  0.9311710E-01
         -2   -1    0    0    0  501 -0.00000000000E+00  0.00000000000E+00  0.11324509330E+04  0.11324509330E+04  0.25500000000E-02 0.  1.
          2   -1    0    0  501    0  0.00000000000E+00 -0.00000000000E+00 -0.10597518196E+04  0.10597518196E+04  0.25500000000E-02 0. -1.
    8880022    1    1    2    0    0  0.66184635895E+03 -0.72994090098E+03  0.49032931330E+03  0.11111565193E+04  0.15294330000E+03 0.  0.
    8880022    1    1    2    0    0 -0.66184635895E+03  0.72994090098E+03 -0.41763019983E+03  0.10810462333E+04  0.15294330000E+03 0.  0.
<mgrwt>
<rscale>  0 0.99711884E+03</rscale>
<asrwt>0</asrwt>
<pdfrwt beam="1">  1        2 0.16303874E+00 0.99711884E+03</pdfrwt>
<pdfrwt beam="2">  1       -2 0.17422322E+00 0.99711884E+03</pdfrwt>
<totfact> 0.45530636E+00</totfact>
</mgrwt>
</event>
<event>
 4    1  0.1701380E-008  0.9354825E+03  0.7818608E-02  0.9382282E-01
         -2   -1    0    0    0  501 -0.00000000000E+00  0.00000000000E+00  0.69452880037E+03  0.69452880037E+03  0.25500000000E-02 0.  1.
          2   -1    0    0  501    0  0.00000000000E+00 -0.00000000000E+00 -0.13861679716E+04  0.13861679717E+04  0.25500000000E-02 0. -1.
    8880022    1    1    2    0    0  0.12365354604E+03 -0.91457400231E+03 -0.65964850534E+03  0.11446674665E+04  0.15294330000E+03 0.  0.
    8880022    1    1    2    0    0 -0.12365354604E+03  0.91457400231E+03 -0.31990665935E+02  0.93602930557E+03  0.15294330000E+03 0.  0.
<mgrwt>
<rscale>  0 0.93548247E+03</rscale>
<asrwt>0</asrwt>
<pdfrwt beam="1">  1        2 0.21325661E+00 0.93548247E+03</pdfrwt>
<pdfrwt beam="2">  1       -2 0.10685058E+00 0.93548247E+03</pdfrwt>
<totfact> 0.10395240E+01</totfact>
</mgrwt>
</event>
<event>
 4    1  0.1701380E-008  0.9032067E+03  0.7818608E-02  0.9421582E-01
         -2   -1    0    0    0  501 -0.00000000000E+00  0.00000000000E+00  0.48417553283E+03  0.48417553284E+03  0.25500000000E-02 0.  1.
          2   -1    0    0  501    0  0.00000000000E+00 -0.00000000000E+00 -0.35532256841E+04  0.35532256841E+04  0.25500000000E-02 0. -1.
    8880022    1    1    2    0    0  0.74176083601E+03  0.49211953156E+03 -0.29983461433E+04  0.31314313052E+04  0.15294330000E+03 0.  0.
    8880022    1    1    2    0    0 -0.74176083601E+03 -0.49211953156E+03 -0.70704007955E+02  0.90596991172E+03  0.15294330000E+03 0.  0.
<mgrwt>
<rscale>  0 0.90320674E+03</rscale>
<asrwt>0</asrwt>
<pdfrwt beam="1">  1        2 0.54665009E+00 0.90320674E+03</pdfrwt>
<pdfrwt beam="2">  1       -2 0.74488546E-01 0.90320674E+03</pdfrwt>
<totfact> 0.12762370E+00</totfact>
</mgrwt>
</event>
<event>
 4    1  0.1701380E-008  0.6063944E+03  0.7818608E-02  0.9892228E-01
         -2   -1    0    0    0  501 -0.00000000000E+00  0.00000000000E+00  0.77434269446E+03  0.77434269447E+03  0.25500000000E-02 0.  1.
          2   -1    0    0  501    0  0.00000000000E+00 -0.00000000000E+00 -0.54320538927E+03  0.54320538928E+03  0.25500000000E-02 0. -1.
    8880022    1    1    2    0    0  0.58634517778E+03  0.22842867734E+02 -0.11808311153E+03  0.61778454040E+03  0.15294330000E+03 0.  0.
    8880022    1    1    2    0    0 -0.58634517778E+03 -0.22842867734E+02  0.34922041672E+03  0.69976354334E+03  0.15294330000E+03 0.  0.
<mgrwt>
<rscale>  0 0.60639436E+03</rscale>
<asrwt>0</asrwt>
<pdfrwt beam="1">  1        2 0.83570060E-01 0.60639436E+03</pdfrwt>
<pdfrwt beam="2">  1       -2 0.11912964E+00 0.60639436E+03</pdfrwt>
<totfact> 0.30969502E+01</totfact>
</mgrwt>
</event>
<event>
 4    1  0.1701380E-008  0.8432133E+03  0.7818608E-02  0.9499491E-01
         -2   -1    0    0    0  501 -0.00000000000E+00  0.00000000000E+00  0.78944004005E+03  0.78944004005E+03  0.25500000000E-02 0.  1.
          2   -1    0    0  501    0  0.00000000000E+00 -0.00000000000E+00 -0.10822742373E+04  0.10822742373E+04  0.25500000000E-02 0. -1.
    8880022    1    1    2    0    0 -0.52614702985E+03  0.64092615436E+03 -0.52979628920E+03  0.99583773449E+03  0.15294330000E+03 0. -1.
    8880022    1    1    2    0    0  0.52614702985E+03 -0.64092615436E+03  0.23696209192E+03  0.87587654289E+03  0.15294330000E+03 0.  0.
<mgrwt>
<rscale>  0 0.84321331E+03</rscale>
<asrwt>0</asrwt>
<pdfrwt beam="1">  1        2 0.16650373E+00 0.84321331E+03</pdfrwt>
<pdfrwt beam="2">  1       -2 0.12145231E+00 0.84321331E+03</pdfrwt>
<totfact> 0.11601515E+01</totfact>
</mgrwt>
</event>
<event>
 4    1  0.1701380E-008  0.1539159E+04  0.7818608E-02  0.8858822E-01
          2   -1    0    0  501    0  0.00000000000E+00  0.00000000000E+00  0.29672822798E+04  0.29672822799E+04  0.25500000000E-02 0. -1.
         -2   -1    0    0    0  501 -0.00000000000E+00 -0.00000000000E+00 -0.80985033113E+03  0.80985033113E+03  0.25500000000E-02 0.  1.
    8880022    1    1    2    0    0  0.15019144778E+04  0.29978802432E+03  0.85393276790E+03  0.17601740776E+04  0.15294330000E+03 0.  0.
    8880022    1    1    2    0    0 -0.15019144778E+04 -0.29978802432E+03  0.13034991808E+04  0.20169585334E+04  0.15294330000E+03 0.  0.
<mgrwt>
<rscale>  0 0.15391594E+04</rscale>
<asrwt>0</asrwt>
<pdfrwt beam="1">  1        2 0.45650496E+00 0.15391594E+04</pdfrwt>
<pdfrwt beam="2">  1       -2 0.12459236E+00 0.15391594E+04</pdfrwt>
<totfact> 0.83607875E-01</totfact>
</mgrwt>
</event>
<event>
 4    1  0.1701380E-008  0.6590011E+03  0.7818608E-02  0.9790034E-01
         -2   -1    0    0    0  501 -0.00000000000E+00  0.00000000000E+00  0.41568743567E+03  0.41568743568E+03  0.25500000000E-02 0.  1.
          2   -1    0    0  501    0  0.00000000000E+00 -0.00000000000E+00 -0.28844101548E+04  0.28844101548E+04  0.25500000000E-02 0. -1.
    8880022    1    1    2    0    0 -0.69028089388E+02 -0.63728005342E+03  0.83407021835E+02  0.66425832920E+03  0.15294330000E+03 0.  0.
    8880022    1    1    2    0    0  0.69028089388E+02  0.63728005342E+03 -0.25521297410E+04  0.26358392613E+04  0.15294330000E+03 0.  0.
<mgrwt>
<rscale>  0 0.65900106E+03</rscale>
<asrwt>0</asrwt>
<pdfrwt beam="1">  1        2 0.44375540E+00 0.65900106E+03</pdfrwt>
<pdfrwt beam="2">  1       -2 0.63951915E-01 0.65900106E+03</pdfrwt>
<totfact> 0.50245714E+00</totfact>
</mgrwt>
</event>
<event>
 4    1  0.1701380E-008  0.1686550E+04  0.7818608E-02  0.8769073E-01
         -2   -1    0    0    0  501 -0.00000000000E+00  0.00000000000E+00  0.10751909001E+04  0.10751909001E+04  0.25500000000E-02 0.  1.
          2   -1    0    0  501    0  0.00000000000E+00 -0.00000000000E+00 -0.31122338745E+04  0.31122338745E+04  0.25500000000E-02 0. -1.
    8880022    1    1    2    0    0  0.16529738314E+04 -0.29788572582E+03 -0.20774434042E+03  0.16992962534E+04  0.15294330000E+03 0.  0.
    8880022    1    1    2    0    0 -0.16529738314E+04  0.29788572582E+03 -0.18292986340E+04  0.24881285212E+04  0.15294330000E+03 0.  0.
<mgrwt>
<rscale>  0 0.16865497E+04</rscale>
<asrwt>0</asrwt>
<pdfrwt beam="1">  1        2 0.47880521E+00 0.16865497E+04</pdfrwt>
<pdfrwt beam="2">  1       -2 0.16541399E+00 0.16865497E+04</pdfrwt>
<totfact> 0.31506733E-01</totfact>
</mgrwt>
</event>
<event>
 4    1  0.1701380E-008  0.4491138E+03  0.7818608E-02  0.1027987E+00
         -2   -1    0    0    0  501 -0.00000000000E+00  0.00000000000E+00  0.22384014704E+03  0.22384014706E+03  0.25500000000E-02 0.  1.
          2   -1    0    0  501    0  0.00000000000E+00 -0.00000000000E+00 -0.18257288293E+04  0.18257288293E+04  0.25500000000E-02 0. -1.
    8880022    1    1    2    0    0 -0.33456746252E+03 -0.25763578569E+03 -0.71659482955E+02  0.45479481039E+03  0.15294330000E+03 0.  0.
    8880022    1    1    2    0    0  0.33456746252E+03  0.25763578569E+03 -0.15302291993E+04  0.15947741660E+04  0.15294330000E+03 0. -1.
<mgrwt>
<rscale>  0 0.44911384E+03</rscale>
<asrwt>0</asrwt>
<pdfrwt beam="1">  1        2 0.28088135E+00 0.44911384E+03</pdfrwt>
<pdfrwt beam="2">  1       -2 0.34436947E-01 0.44911384E+03</pdfrwt>
<totfact> 0.70530661E+01</totfact>
</mgrwt>
</event>
<event>
 4    1  0.2526870E-008  0.7000311E+03  0.7818608E-02  0.9717179E-01
         -2   -1    0    0    0  501 -0.00000000000E+00  0.00000000000E+00  0.22078395631E+04  0.22078395631E+04  0.25500000000E-02 0.  1.
          2   -1    0    0  501    0  0.00000000000E+00 -0.00000000000E+00 -0.31525085747E+04  0.31525085747E+04  0.25500000000E-02 0. -1.
    8880022    1    1    2    0    0  0.59714910452E+03 -0.33176015194E+03 -0.30564362689E+04  0.31355774859E+04  0.15294330000E+03 0.  0.
    8880022    1    1    2    0    0 -0.59714910452E+03  0.33176015194E+03  0.21117672573E+04  0.22247706519E+04  0.15294330000E+03 0.  0.
<mgrwt>
<rscale>  0 0.70003107E+03</rscale>
<asrwt>0</asrwt>
<pdfrwt beam="1">  1        2 0.48500132E+00 0.70003107E+03</pdfrwt>
<pdfrwt beam="2">  1       -2 0.33966763E+00 0.70003107E+03</pdfrwt>
<totfact> 0.28562517E-02</totfact>
</mgrwt>
</event>
<event>
 4    1  0.1701380E-008  0.3935885E+03  0.7818608E-02  0.1046023E+00
         -2   -1    0    0    0  501 -0.00000000000E+00  0.00000000000E+00  0.12311354671E+04  0.12311354671E+04  0.25500000000E-02 0.  1.
          2   -1    0    0  501    0  0.00000000000E+00 -0.00000000000E+00 -0.46233091864E+03  0.46233091865E+03  0.25500000000E-02 0. -1.
    8880022    1    1    2    0    0  0.13311688196E+02  0.36241283917E+03 -0.33797523443E+03  0.51878625573E+03  0.15294330000E+03 0.  0.
    8880022    1    1    2    0    0 -0.13311688196E+02 -0.36241283917E+03  0.11067797829E+04  0.11746801300E+04  0.15294330000E+03 0.  0.
<mgrwt>
<rscale>  0 0.39358852E+03</rscale>
<asrwt>0</asrwt>
<pdfrwt beam="1">  1        2 0.71127834E-01 0.39358852E+03</pdfrwt>
<pdfrwt beam="2">  1       -2 0.18940546E+00 0.39358852E+03</pdfrwt>
<totfact> 0.11277782E+01</totfact>
</mgrwt>
</event>
<event>
 4    1  0.1701380E-008  0.4618727E+03  0.7818608E-02  0.1024239E+00
          2   -1    0    0  501    0  0.00000000000E+00  0.00000000000E+00  0.28002539034E+04  0.28002539034E+04  0.25500000000E-02 0. -1.
         -2   -1    0    0    0  501 -0.00000000000E+00 -0.00000000000E+00 -0.17872451436E+03  0.17872451438E+03  0.25500000000E-02 0.  1.
    8880022    1    1    2    0    0  0.42457245203E+03 -0.98351471322E+02  0.18253070758E+03  0.49663255145E+03  0.15294330000E+03 0.  0.
    8880022    1    1    2    0    0 -0.42457245203E+03  0.98351471322E+02  0.24389986814E+04  0.24823458663E+04  0.15294330000E+03 0.  0.
<mgrwt>
<rscale>  0 0.46187274E+03</rscale>
<asrwt>0</asrwt>
<pdfrwt beam="1">  1        2 0.43080830E+00 0.46187274E+03</pdfrwt>
<pdfrwt beam="2">  1       -2 0.27496079E-01 0.46187274E+03</pdfrwt>
<totfact> 0.30966891E+01</totfact>
</mgrwt>
</event>
<event>
 4    1  0.1701380E-008  0.8329354E+03  0.7818608E-02  0.9513531E-01
         -2   -1    0    0    0  501 -0.00000000000E+00  0.00000000000E+00  0.95448060812E+03  0.95448060813E+03  0.25500000000E-02 0.  1.
          2   -1    0    0  501    0  0.00000000000E+00 -0.00000000000E+00 -0.15313416634E+04  0.15313416634E+04  0.25500000000E-02 0. -1.
    8880022    1    1    2    0    0 -0.48424162100E+03 -0.66022710704E+03  0.61243493814E+03  0.10338558830E+04  0.15294330000E+03 0.  0.
    8880022    1    1    2    0    0  0.48424162100E+03  0.66022710704E+03 -0.11892959934E+04  0.14519663885E+04  0.15294330000E+03 0.  0.
<mgrwt>
<rscale>  0 0.83293543E+03</rscale>
<asrwt>0</asrwt>
<pdfrwt beam="1">  1        2 0.23559103E+00 0.83293543E+03</pdfrwt>
<pdfrwt beam="2">  1       -2 0.14684317E+00 0.83293543E+03</pdfrwt>
<totfact> 0.39186112E+00</totfact>
</mgrwt>
</event>
<event>
 4    1  0.1701380E-008  0.7738053E+03  0.7818608E-02  0.9598726E-01
          2   -1    0    0  501    0  0.00000000000E+00  0.00000000000E+00  0.22035414340E+04  0.22035414340E+04  0.25500000000E-02 0. -1.
         -2   -1    0    0    0  501 -0.00000000000E+00 -0.00000000000E+00 -0.87755047533E+03  0.87755047534E+03  0.25500000000E-02 0.  1.
    8880022    1    1    2    0    0  0.73564287439E+03 -0.18496636654E+03  0.19429942375E+04  0.20914113071E+04  0.15294330000E+03 0.  0.
    8880022    1    1    2    0    0 -0.73564287439E+03  0.18496636654E+03 -0.61700327884E+03  0.98968060226E+03  0.15294330000E+03 0.  0.
<mgrwt>
<rscale>  0 0.77380530E+03</rscale>
<asrwt>0</asrwt>
<pdfrwt beam="1">  1        2 0.33900637E+00 0.77380530E+03</pdfrwt>
<pdfrwt beam="2">  1       -2 0.13500777E+00 0.77380530E+03</pdfrwt>
<totfact> 0.21045227E+00</totfact>
</mgrwt>
</event>
<event>
 4    1  0.1701380E-008  0.8763751E+03  0.7818608E-02  0.9455605E-01
          2   -1    0    0  501    0  0.00000000000E+00  0.00000000000E+00  0.19517542586E+04  0.19517542586E+04  0.25500000000E-02 0. -1.
         -2   -1    0    0    0  501 -0.00000000000E+00 -0.00000000000E+00 -0.42431222747E+03  0.42431222747E+03  0.25500000000E-02 0.  1.
    8880022    1    1    2    0    0  0.82835838508E+03  0.24179331698E+03  0.44362338846E+03  0.98226014175E+03  0.15294330000E+03 0.  0.
    8880022    1    1    2    0    0 -0.82835838508E+03 -0.24179331698E+03  0.10838186427E+04  0.13938063444E+04  0.15294330000E+03 0.  0.
<mgrwt>
<rscale>  0 0.87637508E+03</rscale>
<asrwt>0</asrwt>
<pdfrwt beam="1">  1        2 0.30026989E+00 0.87637508E+03</pdfrwt>
<pdfrwt beam="2">  1       -2 0.65278804E-01 0.87637508E+03</pdfrwt>
<totfact> 0.15629111E+01</totfact>
</mgrwt>
</event>
<event>
 4    1  0.1701380E-008  0.9292846E+03  0.7818608E-02  0.9389697E-01
          2   -1    0    0  501    0  0.00000000000E+00  0.00000000000E+00  0.70972448987E+03  0.70972448987E+03  0.25500000000E-02 0. -1.
         -2   -1    0    0    0  501 -0.00000000000E+00 -0.00000000000E+00 -0.14728600287E+04  0.14728600287E+04  0.25500000000E-02 0.  1.
    8880022    1    1    2    0    0 -0.18631065753E+03  0.89747786471E+03  0.73481713629E+02  0.93218527879E+03  0.15294330000E+03 0.  0.
    8880022    1    1    2    0    0  0.18631065753E+03 -0.89747786471E+03 -0.83661725250E+03  0.12503992398E+04  0.15294330000E+03 0.  0.
<mgrwt>
<rscale>  0 0.92928458E+03</rscale>
<asrwt>0</asrwt>
<pdfrwt beam="1">  1        2 0.10918838E+00 0.92928458E+03</pdfrwt>
<pdfrwt beam="2">  1       -2 0.22659385E+00 0.92928458E+03</pdfrwt>
<totfact> 0.36270276E+00</totfact>
</mgrwt>
</event>
<event>
 4    1  0.1701380E-008  0.5272290E+03  0.7818608E-02  0.1006906E+00
         -2   -1    0    0    0  501 -0.00000000000E+00  0.00000000000E+00  0.18512627616E+03  0.18512627618E+03  0.25500000000E-02 0.  1.
          2   -1    0    0  501    0  0.00000000000E+00 -0.00000000000E+00 -0.16604615242E+04  0.16604615242E+04  0.25500000000E-02 0. -1.
    8880022    1    1    2    0    0 -0.45316915553E+03  0.22184798039E+03 -0.45216406486E+03  0.69456663071E+03  0.15294330000E+03 0.  0.
    8880022    1    1    2    0    0  0.45316915553E+03 -0.22184798039E+03 -0.10231711832E+04  0.11510211697E+04  0.15294330000E+03 0.  0.
<mgrwt>
<rscale>  0 0.52722904E+03</rscale>
<asrwt>0</asrwt>
<pdfrwt beam="1">  1        2 0.25545561E+00 0.52722904E+03</pdfrwt>
<pdfrwt beam="2">  1       -2 0.28480967E-01 0.52722904E+03</pdfrwt>
<totfact> 0.12166796E+02</totfact>
</mgrwt>
</event>
<event>
 4    1  0.1701380E-008  0.7791662E+03  0.7818608E-02  0.9590673E-01
         -2   -1    0    0    0  501 -0.00000000000E+00  0.00000000000E+00  0.11041034281E+04  0.11041034282E+04  0.25500000000E-02 0.  1.
          2   -1    0    0  501    0  0.00000000000E+00 -0.00000000000E+00 -0.88900499383E+03  0.88900499384E+03  0.25500000000E-02 0. -1.
    8880022    1    1    2    0    0 -0.42957332292E+03  0.63180307978E+03  0.72307019620E+03  0.10629819063E+04  0.15294330000E+03 0.  0.
    8880022    1    1    2    0    0  0.42957332292E+03 -0.63180307978E+03 -0.50797176188E+03  0.93012651573E+03  0.15294330000E+03 0.  0.
<mgrwt>
<rscale>  0 0.77916624E+03</rscale>
<asrwt>0</asrwt>
<pdfrwt beam="1">  1        2 0.13677000E+00 0.77916624E+03</pdfrwt>
<pdfrwt beam="2">  1       -2 0.16986207E+00 0.77916624E+03</pdfrwt>
<totfact> 0.64691082E+00</totfact>
</mgrwt>
</event>
<event>
 4    1  0.1701380E-008  0.1276624E+04  0.7818608E-02  0.9048311E-01
         -2   -1    0    0    0  501 -0.00000000000E+00  0.00000000000E+00  0.77459002922E+03  0.77459002922E+03  0.25500000000E-02 0.  1.
          2   -1    0    0  501    0  0.00000000000E+00 -0.00000000000E+00 -0.33845441713E+04  0.33845441713E+04  0.25500000000E-02 0. -1.
    8880022    1    1    2    0    0  0.12340442175E+04  0.28898241257E+03 -0.25850513794E+02  0.12768852210E+04  0.15294330000E+03 0.  0.
    8880022    1    1    2    0    0 -0.12340442175E+04 -0.28898241257E+03 -0.25841036283E+04  0.28822489796E+04  0.15294330000E+03 0.  0.
<mgrwt>
<rscale>  0 0.12766235E+04</rscale>
<asrwt>0</asrwt>
<pdfrwt beam="1">  1        2 0.52069909E+00 0.12766235E+04</pdfrwt>
<pdfrwt beam="2">  1       -2 0.11916770E+00 0.12766235E+04</pdfrwt>
<totfact> 0.51950108E-01</totfact>
</mgrwt>
</event>
<event>
 4    1  0.1701380E-008  0.5032434E+03  0.7818608E-02  0.1012936E+00
         -2   -1    0    0    0  501 -0.00000000000E+00  0.00000000000E+00  0.39588336991E+03  0.39588336992E+03  0.25500000000E-02 0.  1.
          2   -1    0    0  501    0  0.00000000000E+00 -0.00000000000E+00 -0.72484903137E+03  0.72484903137E+03  0.25500000000E-02 0. -1.
    8880022    1    1    2    0    0 -0.49011275864E+02  0.47692784332E+03 -0.35652241466E+03  0.61673507932E+03  0.15294330000E+03 0.  1.
    8880022    1    1    2    0    0  0.49011275864E+02 -0.47692784332E+03  0.27556753196E+02  0.50399732197E+03  0.15294330000E+03 0. -1.
<mgrwt>
<rscale>  0 0.50324341E+03</rscale>
<asrwt>0</asrwt>
<pdfrwt beam="1">  1        2 0.11151524E+00 0.50324341E+03</pdfrwt>
<pdfrwt beam="2">  1       -2 0.60905134E-01 0.50324341E+03</pdfrwt>
<totfact> 0.10137574E+02</totfact>
</mgrwt>
</event>
<event>
 4    1  0.1701380E-008  0.1274704E+04  0.7818608E-02  0.9049869E-01
         -2   -1    0    0    0  501 -0.00000000000E+00  0.00000000000E+00  0.23531142176E+04  0.23531142176E+04  0.25500000000E-02 0.  1.
          2   -1    0    0  501    0  0.00000000000E+00 -0.00000000000E+00 -0.19466196211E+04  0.19466196211E+04  0.25500000000E-02 0. -1.
    8880022    1    1    2    0    0 -0.38504619218E+03 -0.12054952312E+04 -0.15237162784E+04  0.19866006827E+04  0.15294330000E+03 0.  0.
    8880022    1    1    2    0    0  0.38504619218E+03  0.12054952312E+04  0.19302108748E+04  0.23131331559E+04  0.15294330000E+03 0.  0.
<mgrwt>
<rscale>  0 0.12747043E+04</rscale>
<asrwt>0</asrwt>
<pdfrwt beam="1">  1        2 0.29947994E+00 0.12747043E+04</pdfrwt>
<pdfrwt beam="2">  1       -2 0.36201757E+00 0.12747043E+04</pdfrwt>
<totfact> 0.90631295E-02</totfact>
</mgrwt>
</event>
<event>
 4    1  0.1701380E-008  0.6882953E+03  0.7818608E-02  0.9737461E-01
         -2   -1    0    0    0  501 -0.00000000000E+00  0.00000000000E+00  0.15328185049E+04  0.15328185049E+04  0.25500000000E-02 0.  1.
          2   -1    0    0  501    0  0.00000000000E+00 -0.00000000000E+00 -0.34769732596E+03  0.34769732597E+03  0.25500000000E-02 0. -1.
    8880022    1    1    2    0    0 -0.18016566987E+03 -0.64645119198E+03  0.27917040263E+03  0.74275606960E+03  0.15294330000E+03 0.  0.
    8880022    1    1    2    0    0  0.18016566987E+03  0.64645119198E+03  0.90595077627E+03  0.11377597612E+04  0.15294330000E+03 0.  0.
<mgrwt>
<rscale>  0 0.68829533E+03</rscale>
<asrwt>0</asrwt>
<pdfrwt beam="1">  1        2 0.53491896E-01 0.68829533E+03</pdfrwt>
<pdfrwt beam="2">  1       -2 0.23581823E+00 0.68829533E+03</pdfrwt>
<totfact> 0.75564458E+00</totfact>
</mgrwt>
</event>
<event>
 4    1  0.1701380E-008  0.9696593E+03  0.7818608E-02  0.9342462E-01
         -2   -1    0    0    0  501 -0.00000000000E+00  0.00000000000E+00  0.67559786135E+03  0.67559786136E+03  0.25500000000E-02 0.  1.
          2   -1    0    0  501    0  0.00000000000E+00 -0.00000000000E+00 -0.41104529525E+04  0.41104529525E+04  0.25500000000E-02 0. -1.
    8880022    1    1    2    0    0  0.81907579079E+02 -0.95401189833E+03  0.22876676804E+03  0.99627980048E+03  0.15294330000E+03 0.  0.
    8880022    1    1    2    0    0 -0.81907579079E+02  0.95401189833E+03 -0.36636218592E+04  0.37897710134E+04  0.15294330000E+03 0.  0.
<mgrwt>
<rscale>  0 0.96965933E+03</rscale>
<asrwt>0</asrwt>
<pdfrwt beam="1">  1        2 0.63237736E+00 0.96965933E+03</pdfrwt>
<pdfrwt beam="2">  1       -2 0.10393814E+00 0.96965933E+03</pdfrwt>
<totfact> 0.22185482E-01</totfact>
</mgrwt>
</event>
<event>
 4    1  0.1701380E-008  0.6660755E+03  0.7818608E-02  0.9777074E-01
          2   -1    0    0  501    0  0.00000000000E+00  0.00000000000E+00  0.21783359267E+04  0.21783359267E+04  0.25500000000E-02 0. -1.
         -2   -1    0    0    0  501 -0.00000000000E+00 -0.00000000000E+00 -0.80069708461E+03  0.80069708461E+03  0.25500000000E-02 0.  1.
    8880022    1    1    2    0    0  0.64805745031E+03  0.16925605562E+02  0.19750210736E+04  0.20843139949E+04  0.15294330000E+03 0.  0.
    8880022    1    1    2    0    0 -0.64805745031E+03 -0.16925605562E+02 -0.59738223145E+03  0.89471901650E+03  0.15294330000E+03 0.  1.
<mgrwt>
<rscale>  0 0.66607551E+03</rscale>
<asrwt>0</asrwt>
<pdfrwt beam="1">  1        2 0.33512860E+00 0.66607551E+03</pdfrwt>
<pdfrwt beam="2">  1       -2 0.12318417E+00 0.66607551E+03</pdfrwt>
<totfact> 0.27961519E+00</totfact>
</mgrwt>
</event>
<event>
 4    1  0.1701380E-008  0.1053056E+04  0.7818608E-02  0.9252195E-01
          2   -1    0    0  501    0  0.00000000000E+00  0.00000000000E+00  0.28356738507E+04  0.28356738507E+04  0.25500000000E-02 0. -1.
         -2   -1    0    0    0  501 -0.00000000000E+00 -0.00000000000E+00 -0.76751110847E+03  0.76751110847E+03  0.25500000000E-02 0.  1.
    8880022    1    1    2    0    0 -0.15749500449E+02  0.10417708339E+04 -0.22765022534E+03  0.10773814529E+04  0.15294330000E+03 0.  0.
    8880022    1    1    2    0    0  0.15749500449E+02 -0.10417708339E+04  0.22958129675E+04  0.25258035062E+04  0.15294330000E+03 0.  0.
<mgrwt>
<rscale>  0 0.10530556E+04</rscale>
<asrwt>0</asrwt>
<pdfrwt beam="1">  1        2 0.43625753E+00 0.10530556E+04</pdfrwt>
<pdfrwt beam="2">  1       -2 0.11807863E+00 0.10530556E+04</pdfrwt>
<totfact> 0.12230379E+00</totfact>
</mgrwt>
</event>
<event>
 4    1  0.1701380E-008  0.1722112E+04  0.7818608E-02  0.8748852E-01
         -2   -1    0    0    0  501 -0.00000000000E+00  0.00000000000E+00  0.20877133253E+04  0.20877133253E+04  0.25500000000E-02 0.  1.
          2   -1    0    0  501    0  0.00000000000E+00 -0.00000000000E+00 -0.24383870679E+04  0.24383870679E+04  0.25500000000E-02 0. -1.
    8880022    1    1    2    0    0 -0.14190026948E+04  0.96369656002E+03  0.12867899406E+04  0.21497673622E+04  0.15294330000E+03 0.  0.
    8880022    1    1    2    0    0  0.14190026948E+04 -0.96369656002E+03 -0.16374636831E+04  0.23763330310E+04  0.15294330000E+03 0.  0.
<mgrwt>
<rscale>  0 0.17221125E+04</rscale>
<asrwt>0</asrwt>
<pdfrwt beam="1">  1        2 0.37513647E+00 0.17221125E+04</pdfrwt>
<pdfrwt beam="2">  1       -2 0.32118666E+00 0.17221125E+04</pdfrwt>
<totfact> 0.81204242E-02</totfact>
</mgrwt>
</event>
<event>
 4    1  0.1701380E-008  0.1697377E+04  0.7818608E-02  0.8762862E-01
         -2   -1    0    0    0  501 -0.00000000000E+00  0.00000000000E+00  0.15666370869E+04  0.15666370869E+04  0.25500000000E-02 0.  1.
          2   -1    0    0  501    0  0.00000000000E+00 -0.00000000000E+00 -0.25376073917E+04  0.25376073917E+04  0.25500000000E-02 0. -1.
    8880022    1    1    2    0    0  0.10041519416E+04 -0.13599174839E+04  0.59122577536E+03  0.17973970778E+04  0.15294330000E+03 0.  0.
    8880022    1    1    2    0    0 -0.10041519416E+04  0.13599174839E+04 -0.15621960802E+04  0.23068474008E+04  0.15294330000E+03 0.  0.
<mgrwt>
<rscale>  0 0.16973769E+04</rscale>
<asrwt>0</asrwt>
<pdfrwt beam="1">  1        2 0.39040114E+00 0.16973769E+04</pdfrwt>
<pdfrwt beam="2">  1       -2 0.24102109E+00 0.16973769E+04</pdfrwt>
<totfact> 0.22168688E-01</totfact>
</mgrwt>
</event>
<event>
 4    1  0.1701380E-008  0.7439089E+03  0.7818608E-02  0.9644955E-01
          2   -1    0    0  501    0  0.00000000000E+00  0.00000000000E+00  0.33392309544E+04  0.33392309544E+04  0.25500000000E-02 0. -1.
         -2   -1    0    0    0  501 -0.00000000000E+00 -0.00000000000E+00 -0.25096763454E+03  0.25096763455E+03  0.25500000000E-02 0.  1.
    8880022    1    1    2    0    0 -0.60684718134E+03  0.40217575252E+03  0.25903037655E+04  0.26950091072E+04  0.15294330000E+03 0.  0.
    8880022    1    1    2    0    0  0.60684718134E+03 -0.40217575252E+03  0.49795955436E+03  0.89518948174E+03  0.15294330000E+03 0.  0.
<mgrwt>
<rscale>  0 0.74390893E+03</rscale>
<asrwt>0</asrwt>
<pdfrwt beam="1">  1        2 0.51372783E+00 0.74390893E+03</pdfrwt>
<pdfrwt beam="2">  1       -2 0.38610406E-01 0.74390893E+03</pdfrwt>
<totfact> 0.71577027E+00</totfact>
</mgrwt>
</event>
<event>
 4    1  0.1701380E-008  0.9058852E+03  0.7818608E-02  0.9418254E-01
         -2   -1    0    0    0  501 -0.00000000000E+00  0.00000000000E+00  0.22440276623E+04  0.22440276623E+04  0.25500000000E-02 0.  1.
          2   -1    0    0  501    0  0.00000000000E+00 -0.00000000000E+00 -0.11374945283E+04  0.11374945283E+04  0.25500000000E-02 0. -1.
    8880022    1    1    2    0    0 -0.80563516457E+03 -0.38495231594E+03  0.19459745353E+04  0.21464959467E+04  0.15294330000E+03 0.  1.
    8880022    1    1    2    0    0  0.80563516457E+03  0.38495231594E+03 -0.83944140133E+03  0.12350262439E+04  0.15294330000E+03 0.  0.
<mgrwt>
<rscale>  0 0.90588518E+03</rscale>
<asrwt>0</asrwt>
<pdfrwt beam="1">  1        2 0.17499916E+00 0.90588518E+03</pdfrwt>
<pdfrwt beam="2">  1       -2 0.34523502E+00 0.90588518E+03</pdfrwt>
<totfact> 0.35382120E-01</totfact>
</mgrwt>
</event>
<event>
 4    1  0.1701380E-008  0.4827089E+03  0.7818608E-02  0.1018393E+00
         -2   -1    0    0    0  501 -0.00000000000E+00  0.00000000000E+00  0.13923589710E+03  0.13923589712E+03  0.25500000000E-02 0.  1.
          2   -1    0    0  501    0  0.00000000000E+00 -0.00000000000E+00 -0.32235274744E+04  0.32235274744E+04  0.25500000000E-02 0. -1.
    8880022    1    1    2    0    0 -0.32864381093E+03  0.31876234417E+03 -0.37621229605E+03  0.61199961702E+03  0.15294330000E+03 0.  0.
    8880022    1    1    2    0    0  0.32864381093E+03 -0.31876234417E+03 -0.27080792812E+04  0.27507637545E+04  0.15294330000E+03 0.  0.
<mgrwt>
<rscale>  0 0.48270886E+03</rscale>
<asrwt>0</asrwt>
<pdfrwt beam="1">  1        2 0.49592725E+00 0.48270886E+03</pdfrwt>
<pdfrwt beam="2">  1       -2 0.21420910E-01 0.48270886E+03</pdfrwt>
<totfact> 0.26641324E+01</totfact>
</mgrwt>
</event>
<event>
 4    1  0.1701380E-008  0.1270369E+04  0.7818608E-02  0.9053399E-01
          2   -1    0    0  501    0  0.00000000000E+00  0.00000000000E+00  0.18789138379E+04  0.18789138379E+04  0.25500000000E-02 0. -1.
         -2   -1    0    0    0  501 -0.00000000000E+00 -0.00000000000E+00 -0.23676556776E+04  0.23676556776E+04  0.25500000000E-02 0.  1.
    8880022    1    1    2    0    0 -0.10472655716E+04 -0.70262337664E+03  0.14505739160E+04  0.19282118985E+04  0.15294330000E+03 0.  0.
    8880022    1    1    2    0    0  0.10472655716E+04  0.70262337664E+03 -0.19393157557E+04  0.23183576170E+04  0.15294330000E+03 0.  0.
<mgrwt>
<rscale>  0 0.12703686E+04</rscale>
<asrwt>0</asrwt>
<pdfrwt beam="1">  1        2 0.28906367E+00 0.12703686E+04</pdfrwt>
<pdfrwt beam="2">  1       -2 0.36425472E+00 0.12703686E+04</pdfrwt>
<totfact> 0.95696556E-02</totfact>
</mgrwt>
</event>
<event>
 4    1  0.1701380E-008  0.7127364E+03  0.7818608E-02  0.9695696E-01
         -2   -1    0    0    0  501 -0.00000000000E+00  0.00000000000E+00  0.39897715866E+03  0.39897715866E+03  0.25500000000E-02 0.  1.
          2   -1    0    0  501    0  0.00000000000E+00 -0.00000000000E+00 -0.55322311488E+04  0.55322311488E+04  0.25500000000E-02 0. -1.
    8880022    1    1    2    0    0  0.45955102987E+03  0.52289042721E+03  0.35427885698E+02  0.71361637875E+03  0.15294330000E+03 0.  0.
    8880022    1    1    2    0    0 -0.45955102987E+03 -0.52289042721E+03 -0.51686818758E+04  0.52175919287E+04  0.15294330000E+03 0.  0.
<mgrwt>
<rscale>  0 0.71273642E+03</rscale>
<asrwt>0</asrwt>
<pdfrwt beam="1">  1        2 0.85111243E+00 0.71273642E+03</pdfrwt>
<pdfrwt beam="2">  1       -2 0.61381105E-01 0.71273642E+03</pdfrwt>
<totfact> 0.16272558E-02</totfact>
</mgrwt>
</event>
<event>
 4    1  0.1701380E-008  0.9134265E+03  0.7818608E-02  0.9408952E-01
          2   -1    0    0  501    0  0.00000000000E+00  0.00000000000E+00  0.17550002043E+04  0.17550002043E+04  0.25500000000E-02 0. -1.
         -2   -1    0    0    0  501 -0.00000000000E+00 -0.00000000000E+00 -0.53885331637E+03  0.53885331638E+03  0.25500000000E-02 0.  1.
    8880022    1    1    2    0    0  0.13461394309E+03 -0.89041300809E+03  0.21453513374E+03  0.93828205529E+03  0.15294330000E+03 0.  0.
    8880022    1    1    2    0    0 -0.13461394309E+03  0.89041300809E+03  0.10016117542E+04  0.13555714654E+04  0.15294330000E+03 0.  0.
<mgrwt>
<rscale>  0 0.91342646E+03</rscale>
<asrwt>0</asrwt>
<pdfrwt beam="1">  1        2 0.27000003E+00 0.91342646E+03</pdfrwt>
<pdfrwt beam="2">  1       -2 0.82900510E-01 0.91342646E+03</pdfrwt>
<totfact> 0.11756371E+01</totfact>
</mgrwt>
</event>
<event>
 4    1  0.1701380E-008  0.3416703E+03  0.7818608E-02  0.1066087E+00
          2   -1    0    0  501    0  0.00000000000E+00  0.00000000000E+00  0.47677471817E+03  0.47677471817E+03  0.25500000000E-02 0. -1.
         -2   -1    0    0    0  501 -0.00000000000E+00 -0.00000000000E+00 -0.39421298844E+03  0.39421298845E+03  0.25500000000E-02 0.  1.
    8880022    1    1    2    0    0  0.30519734005E+03  0.14196464233E+02  0.30934399763E+03  0.46090380543E+03  0.15294330000E+03 0.  0.
    8880022    1    1    2    0    0 -0.30519734005E+03 -0.14196464233E+02 -0.22678226791E+03  0.41008390120E+03  0.15294330000E+03 0.  0.
<mgrwt>
<rscale>  0 0.34167032E+03</rscale>
<asrwt>0</asrwt>
<pdfrwt beam="1">  1        2 0.73349956E-01 0.34167032E+03</pdfrwt>
<pdfrwt beam="2">  1       -2 0.60648152E-01 0.34167032E+03</pdfrwt>
<totfact> 0.17037737E+02</totfact>
</mgrwt>
</event>
<event>
 4    1  0.1701380E-008  0.1088872E+04  0.7818608E-02  0.9216107E-01
         -2   -1    0    0    0  501 -0.00000000000E+00  0.00000000000E+00  0.11920910026E+04  0.11920910026E+04  0.25500000000E-02 0.  1.
          2   -1    0    0  501    0  0.00000000000E+00 -0.00000000000E+00 -0.12479707806E+04  0.12479707806E+04  0.25500000000E-02 0. -1.
    8880022    1    1    2    0    0 -0.47895327247E+02 -0.10770124224E+04 -0.57767788292E+03  0.12326204240E+04  0.15294330000E+03 0.  0.
    8880022    1    1    2    0    0  0.47895327247E+02  0.10770124224E+04  0.52179810494E+03  0.12074413591E+04  0.15294330000E+03 0.  0.
<mgrwt>
<rscale>  0 0.10888716E+04</rscale>
<asrwt>0</asrwt>
<pdfrwt beam="1">  1        2 0.19199551E+00 0.10888716E+04</pdfrwt>
<pdfrwt beam="2">  1       -2 0.18339861E+00 0.10888716E+04</pdfrwt>
<totfact> 0.29925651E+00</totfact>
</mgrwt>
</event>
<event>
 4    1  0.1701380E-008  0.6057753E+03  0.7818608E-02  0.9893496E-01
          2   -1    0    0  501    0  0.00000000000E+00  0.00000000000E+00  0.15079877588E+04  0.15079877588E+04  0.25500000000E-02 0. -1.
         -2   -1    0    0    0  501 -0.00000000000E+00 -0.00000000000E+00 -0.44906727917E+03  0.44906727917E+03  0.25500000000E-02 0.  1.
    8880022    1    1    2    0    0 -0.20917979035E+03  0.54755450374E+03  0.11917625315E+04  0.13368850750E+04  0.15294330000E+03 0.  0.
    8880022    1    1    2    0    0  0.20917979035E+03 -0.54755450374E+03 -0.13284205184E+03  0.62016996300E+03  0.15294330000E+03 0.  0.
<mgrwt>
<rscale>  0 0.60577535E+03</rscale>
<asrwt>0</asrwt>
<pdfrwt beam="1">  1        2 0.23199811E+00 0.60577535E+03</pdfrwt>
<pdfrwt beam="2">  1       -2 0.69087275E-01 0.60577535E+03</pdfrwt>
<totfact> 0.25076703E+01</totfact>
</mgrwt>
</event>
<event>
 4    1  0.1701380E-008  0.1693741E+04  0.7818608E-02  0.8764942E-01
          2   -1    0    0  501    0  0.00000000000E+00  0.00000000000E+00  0.14969604295E+04  0.14969604295E+04  0.25500000000E-02 0. -1.
         -2   -1    0    0    0  501 -0.00000000000E+00 -0.00000000000E+00 -0.24013332556E+04  0.24013332556E+04  0.25500000000E-02 0.  1.
    8880022    1    1    2    0    0  0.56596026826E+03  0.15890422349E+04 -0.13281063865E+04  0.21523532415E+04  0.15294330000E+03 0.  0.
    8880022    1    1    2    0    0 -0.56596026826E+03 -0.15890422349E+04  0.42373356035E+03  0.17459404436E+04  0.15294330000E+03 0.  0.
<mgrwt>
<rscale>  0 0.16937408E+04</rscale>
<asrwt>0</asrwt>
<pdfrwt beam="1">  1        2 0.23030160E+00 0.16937408E+04</pdfrwt>
<pdfrwt beam="2">  1       -2 0.36943589E+00 0.16937408E+04</pdfrwt>
<totfact> 0.13761049E-01</totfact>
</mgrwt>
</event>
<event>
 4    1  0.1701380E-008  0.7455604E+03  0.7818608E-02  0.9642341E-01
          2   -1    0    0  501    0  0.00000000000E+00  0.00000000000E+00  0.26917720102E+04  0.26917720102E+04  0.25500000000E-02 0. -1.
         -2   -1    0    0    0  501 -0.00000000000E+00 -0.00000000000E+00 -0.91451687197E+03  0.91451687198E+03  0.25500000000E-02 0.  1.
    8880022    1    1    2    0    0  0.49628019089E+02 -0.72801495792E+03 -0.69792834664E+03  0.10212562603E+04  0.15294330000E+03 0.  0.
    8880022    1    1    2    0    0 -0.49628019089E+02  0.72801495792E+03  0.24751834849E+04  0.25850326219E+04  0.15294330000E+03 0.  0.
<mgrwt>
<rscale>  0 0.74556044E+03</rscale>
<asrwt>0</asrwt>
<pdfrwt beam="1">  1        2 0.41411876E+00 0.74556044E+03</pdfrwt>
<pdfrwt beam="2">  1       -2 0.14069491E+00 0.74556044E+03</pdfrwt>
<totfact> 0.10085215E+00</totfact>
</mgrwt>
</event>
<event>
 4    1  0.1701380E-008  0.9112825E+03  0.7818608E-02  0.9411587E-01
         -2   -1    0    0    0  501 -0.00000000000E+00  0.00000000000E+00  0.13440144574E+04  0.13440144574E+04  0.25500000000E-02 0.  1.
          2   -1    0    0  501    0  0.00000000000E+00 -0.00000000000E+00 -0.17199930281E+04  0.17199930281E+04  0.25500000000E-02 0. -1.
    8880022    1    1    2    0    0 -0.79867084522E+03 -0.41130155185E+03  0.10383485431E+04  0.13815221444E+04  0.15294330000E+03 0.  0.
    8880022    1    1    2    0    0  0.79867084522E+03  0.41130155185E+03 -0.14143271137E+04  0.16824853412E+04  0.15294330000E+03 0.  0.
<mgrwt>
<rscale>  0 0.91128247E+03</rscale>
<asrwt>0</asrwt>
<pdfrwt beam="1">  1        2 0.26461431E+00 0.91128247E+03</pdfrwt>
<pdfrwt beam="2">  1       -2 0.20677146E+00 0.91128247E+03</pdfrwt>
<totfact> 0.11589998E+00</totfact>
</mgrwt>
</event>
<event>
 4    1  0.1701380E-008  0.4478357E+03  0.7818608E-02  0.1028369E+00
          2   -1    0    0  501    0  0.00000000000E+00  0.00000000000E+00  0.23400128986E+04  0.23400128986E+04  0.25500000000E-02 0. -1.
         -2   -1    0    0    0  501 -0.00000000000E+00 -0.00000000000E+00 -0.25311227918E+03  0.25311227920E+03  0.25500000000E-02 0.  1.
    8880022    1    1    2    0    0 -0.31970081109E+03 -0.27378193813E+03 -0.10986889488E+02  0.44797044881E+03  0.15294330000E+03 0.  0.
    8880022    1    1    2    0    0  0.31970081109E+03  0.27378193813E+03  0.20978875089E+04  0.21451547290E+04  0.15294330000E+03 0.  0.
<mgrwt>
<rscale>  0 0.44783570E+03</rscale>
<asrwt>0</asrwt>
<pdfrwt beam="1">  1        2 0.36000197E+00 0.44783570E+03</pdfrwt>
<pdfrwt beam="2">  1       -2 0.38940352E-01 0.44783570E+03</pdfrwt>
<totfact> 0.29478621E+01</totfact>
</mgrwt>
</event>
<event>
 4    1  0.1701380E-008  0.8200883E+03  0.7818608E-02  0.9531387E-01
         -2   -1    0    0    0  501 -0.00000000000E+00  0.00000000000E+00  0.36605063366E+03  0.36605063367E+03  0.25500000000E-02 0.  1.
          2   -1    0    0  501    0  0.00000000000E+00 -0.00000000000E+00 -0.21519495333E+04  0.21519495333E+04  0.25500000000E-02 0. -1.
    8880022    1    1    2    0    0  0.80523612338E+03  0.27348718030E+02 -0.13743685109E+04  0.16004479447E+04  0.15294330000E+03 0.  0.
    8880022    1    1    2    0    0 -0.80523612338E+03 -0.27348718030E+02 -0.41153038868E+03  0.91755222227E+03  0.15294330000E+03 0.  0.
<mgrwt>
<rscale>  0 0.82008830E+03</rscale>
<asrwt>0</asrwt>
<pdfrwt beam="1">  1        2 0.33106915E+00 0.82008830E+03</pdfrwt>
<pdfrwt beam="2">  1       -2 0.56315483E-01 0.82008830E+03</pdfrwt>
<totfact> 0.16715835E+01</totfact>
</mgrwt>
</event>
<event>
 4    1  0.1701380E-008  0.2531319E+04  0.7818608E-02  0.8391912E-01
         -2   -1    0    0    0  501 -0.00000000000E+00  0.00000000000E+00  0.27550400820E+04  0.27550400820E+04  0.25500000000E-02 0.  1.
          2   -1    0    0  501    0  0.00000000000E+00 -0.00000000000E+00 -0.28286782969E+04  0.28286782969E+04  0.25500000000E-02 0. -1.
    8880022    1    1    2    0    0  0.20232237862E+04 -0.15135228710E+04  0.11403747954E+04  0.27763343274E+04  0.15294330000E+03 0.  0.
    8880022    1    1    2    0    0 -0.20232237862E+04  0.15135228710E+04 -0.12140130103E+04  0.28073840515E+04  0.15294330000E+03 0.  0.
<mgrwt>
<rscale>  0 0.25313193E+04</rscale>
<asrwt>0</asrwt>
<pdfrwt beam="1">  1        2 0.43518128E+00 0.25313193E+04</pdfrwt>
<pdfrwt beam="2">  1       -2 0.42385232E+00 0.25313193E+04</pdfrwt>
<totfact> 0.95539350E-03</totfact>
</mgrwt>
</event>
<event>
 4    1  0.1701380E-008  0.8591305E+03  0.7818608E-02  0.9478164E-01
          2   -1    0    0  501    0  0.00000000000E+00  0.00000000000E+00  0.23397040477E+04  0.23397040477E+04  0.25500000000E-02 0. -1.
         -2   -1    0    0    0  501 -0.00000000000E+00 -0.00000000000E+00 -0.42230600439E+03  0.42230600440E+03  0.25500000000E-02 0.  1.
    8880022    1    1    2    0    0 -0.78908895773E+03 -0.30340089032E+03  0.16533098968E+04  0.18632065777E+04  0.15294330000E+03 0.  0.
    8880022    1    1    2    0    0  0.78908895773E+03  0.30340089032E+03  0.26408814657E+03  0.89880347442E+03  0.15294330000E+03 0.  0.
<mgrwt>
<rscale>  0 0.85913045E+03</rscale>
<asrwt>0</asrwt>
<pdfrwt beam="1">  1        2 0.35995447E+00 0.85913045E+03</pdfrwt>
<pdfrwt beam="2">  1       -2 0.64970155E-01 0.85913045E+03</pdfrwt>
<totfact> 0.96599228E+00</totfact>
</mgrwt>
</event>
<event>
 4    1  0.1701380E-008  0.7585999E+03  0.7818608E-02  0.9621954E-01
         -2   -1    0    0    0  501 -0.00000000000E+00  0.00000000000E+00  0.17381735377E+04  0.17381735377E+04  0.25500000000E-02 0.  1.
          2   -1    0    0  501    0  0.00000000000E+00 -0.00000000000E+00 -0.67624302811E+03  0.67624302812E+03  0.25500000000E-02 0. -1.
    8880022    1    1    2    0    0 -0.92962373381E+02  0.73718389789E+03 -0.33150317942E+03  0.82786962329E+03  0.15294330000E+03 0.  0.
    8880022    1    1    2    0    0  0.92962373381E+02 -0.73718389789E+03  0.13934336890E+04  0.15865469425E+04  0.15294330000E+03 0.  0.
<mgrwt>
<rscale>  0 0.75859987E+03</rscale>
<asrwt>0</asrwt>
<pdfrwt beam="1">  1        2 0.10403739E+00 0.75859987E+03</pdfrwt>
<pdfrwt beam="2">  1       -2 0.26741131E+00 0.75859987E+03</pdfrwt>
<totfact> 0.22228743E+00</totfact>
</mgrwt>
</event>
<event>
 4    1  0.1701380E-008  0.5655482E+03  0.7818608E-02  0.9979579E-01
         -2   -1    0    0    0  501 -0.00000000000E+00  0.00000000000E+00  0.10275547261E+04  0.10275547261E+04  0.25500000000E-02 0.  1.
          2   -1    0    0  501    0  0.00000000000E+00 -0.00000000000E+00 -0.91044952677E+03  0.91044952678E+03  0.25500000000E-02 0. -1.
    8880022    1    1    2    0    0  0.54416623295E+03 -0.18336042854E+02  0.84464944611E+03  0.10165025526E+04  0.15294330000E+03 0.  0.
    8880022    1    1    2    0    0 -0.54416623295E+03  0.18336042854E+02 -0.72754424681E+03  0.92150170029E+03  0.15294330000E+03 0.  0.
<mgrwt>
<rscale>  0 0.56554819E+03</rscale>
<asrwt>0</asrwt>
<pdfrwt beam="1">  1        2 0.14006916E+00 0.56554819E+03</pdfrwt>
<pdfrwt beam="2">  1       -2 0.15808534E+00 0.56554819E+03</pdfrwt>
<totfact> 0.78467105E+00</totfact>
</mgrwt>
</event>
<event>
 4    1  0.1701380E-008  0.8861684E+03  0.7818608E-02  0.9443039E-01
         -2   -1    0    0    0  501 -0.00000000000E+00  0.00000000000E+00  0.49165672976E+03  0.49165672976E+03  0.25500000000E-02 0.  1.
          2   -1    0    0  501    0  0.00000000000E+00 -0.00000000000E+00 -0.25069037177E+04  0.25069037177E+04  0.25500000000E-02 0. -1.
    8880022    1    1    2    0    0 -0.25606665526E+03  0.83446553490E+03 -0.19107614044E+04  0.21062534649E+04  0.15294330000E+03 0.  0.
    8880022    1    1    2    0    0  0.25606665526E+03 -0.83446553490E+03 -0.10448558350E+03  0.89230698252E+03  0.15294330000E+03 0.  0.
<mgrwt>
<rscale>  0 0.88616845E+03</rscale>
<asrwt>0</asrwt>
<pdfrwt beam="1">  1        2 0.38567749E+00 0.88616845E+03</pdfrwt>
<pdfrwt beam="2">  1       -2 0.75639498E-01 0.88616845E+03</pdfrwt>
<totfact> 0.55501788E+00</totfact>
</mgrwt>
</event>
<event>
 4    1  0.1701380E-008  0.5839724E+03  0.7818608E-02  0.9939228E-01
         -2   -1    0    0    0  501 -0.00000000000E+00  0.00000000000E+00  0.11286764962E+04  0.11286764962E+04  0.25500000000E-02 0.  1.
          2   -1    0    0  501    0  0.00000000000E+00 -0.00000000000E+00 -0.11223027541E+04  0.11223027541E+04  0.25500000000E-02 0. -1.
    8880022    1    1    2    0    0 -0.36607025883E+02  0.56239849503E+03 -0.95894636693E+03  0.11227653046E+04  0.15294330000E+03 0.  0.
    8880022    1    1    2    0    0  0.36607025883E+02 -0.56239849503E+03  0.96532010900E+03  0.11282139458E+04  0.15294330000E+03 0.  0.
<mgrwt>
<rscale>  0 0.58397243E+03</rscale>
<asrwt>0</asrwt>
<pdfrwt beam="1">  1        2 0.17266196E+00 0.58397243E+03</pdfrwt>
<pdfrwt beam="2">  1       -2 0.17364254E+00 0.58397243E+03</pdfrwt>
<totfact> 0.44534674E+00</totfact>
</mgrwt>
</event>
<event>
 4    1  0.1701380E-008  0.1153816E+04  0.7818608E-02  0.9154270E-01
         -2   -1    0    0    0  501 -0.00000000000E+00  0.00000000000E+00  0.18436312594E+04  0.18436312594E+04  0.25500000000E-02 0.  1.
          2   -1    0    0  501    0  0.00000000000E+00 -0.00000000000E+00 -0.10966866001E+04  0.10966866001E+04  0.25500000000E-02 0. -1.
    8880022    1    1    2    0    0 -0.10520564548E+04 -0.44841576648E+03 -0.48573418806E+03  0.12518901063E+04  0.15294330000E+03 0.  0.
    8880022    1    1    2    0    0  0.10520564548E+04  0.44841576648E+03  0.12326788474E+04  0.16884277532E+04  0.15294330000E+03 0.  0.
<mgrwt>
<rscale>  0 0.11538159E+04</rscale>
<asrwt>0</asrwt>
<pdfrwt beam="1">  1        2 0.16872102E+00 0.11538159E+04</pdfrwt>
<pdfrwt beam="2">  1       -2 0.28363557E+00 0.11538159E+04</pdfrwt>
<totfact> 0.85954384E-01</totfact>
</mgrwt>
</event>
<event>
 4    1  0.1701380E-008  0.9249872E+03  0.7818608E-02  0.9394874E-01
          2   -1    0    0  501    0  0.00000000000E+00  0.00000000000E+00  0.10727871388E+04  0.10727871388E+04  0.25500000000E-02 0. -1.
         -2   -1    0    0    0  501 -0.00000000000E+00 -0.00000000000E+00 -0.96810088027E+03  0.96810088027E+03  0.25500000000E-02 0.  1.
    8880022    1    1    2    0    0  0.72788408026E+03 -0.54990408788E+03 -0.37596453224E+03  0.99847419730E+03  0.15294330000E+03 0.  0.
    8880022    1    1    2    0    0 -0.72788408026E+03  0.54990408788E+03  0.48065079078E+03  0.10424138218E+04  0.15294330000E+03 0.  0.
<mgrwt>
<rscale>  0 0.92498724E+03</rscale>
<asrwt>0</asrwt>
<pdfrwt beam="1">  1        2 0.16504417E+00 0.92498724E+03</pdfrwt>
<pdfrwt beam="2">  1       -2 0.14893860E+00 0.92498724E+03</pdfrwt>
<totfact> 0.69071374E+00</totfact>
</mgrwt>
</event>
<event>
 4    1  0.1701380E-008  0.1429238E+04  0.7818608E-02  0.8932922E-01
         -2   -1    0    0    0  501 -0.00000000000E+00  0.00000000000E+00  0.65770004297E+03  0.65770004297E+03  0.25500000000E-02 0.  1.
          2   -1    0    0  501    0  0.00000000000E+00 -0.00000000000E+00 -0.36667059590E+04  0.36667059590E+04  0.25500000000E-02 0. -1.
    8880022    1    1    2    0    0 -0.19839226187E+03  0.14071143202E+04 -0.23501353992E+04  0.27506105226E+04  0.15294330000E+03 0.  0.
    8880022    1    1    2    0    0  0.19839226187E+03 -0.14071143202E+04 -0.65887051687E+03  0.15737954793E+04  0.15294330000E+03 0.  0.
<mgrwt>
<rscale>  0 0.14292382E+04</rscale>
<asrwt>0</asrwt>
<pdfrwt beam="1">  1        2 0.56410860E+00 0.14292382E+04</pdfrwt>
<pdfrwt beam="2">  1       -2 0.10118462E+00 0.14292382E+04</pdfrwt>
<totfact> 0.48247299E-01</totfact>
</mgrwt>
</event>
<event>
 4    1  0.1701380E-008  0.5894181E+03  0.7818608E-02  0.9927607E-01
          2   -1    0    0  501    0  0.00000000000E+00  0.00000000000E+00  0.10237305670E+04  0.10237305670E+04  0.25500000000E-02 0. -1.
         -2   -1    0    0    0  501 -0.00000000000E+00 -0.00000000000E+00 -0.45474086655E+03  0.45474086656E+03  0.25500000000E-02 0.  1.
    8880022    1    1    2    0    0  0.52636825552E+03 -0.21669918763E+03 -0.87868458306E+02  0.59593170525E+03  0.15294330000E+03 0.  0.
    8880022    1    1    2    0    0 -0.52636825552E+03  0.21669918763E+03  0.65685815880E+03  0.88253972836E+03  0.15294330000E+03 0.  0.
<mgrwt>
<rscale>  0 0.58941813E+03</rscale>
<asrwt>0</asrwt>
<pdfrwt beam="1">  1        2 0.15749701E+00 0.58941813E+03</pdfrwt>
<pdfrwt beam="2">  1       -2 0.69960134E-01 0.58941813E+03</pdfrwt>
<totfact> 0.46736827E+01</totfact>
</mgrwt>
</event>
<event>
 4    1  0.1701380E-008  0.6028569E+03  0.7818608E-02  0.9899497E-01
          2   -1    0    0  501    0  0.00000000000E+00  0.00000000000E+00  0.12180720119E+04  0.12180720119E+04  0.25500000000E-02 0. -1.
         -2   -1    0    0    0  501 -0.00000000000E+00 -0.00000000000E+00 -0.51118464952E+03  0.51118464953E+03  0.25500000000E-02 0.  1.
    8880022    1    1    2    0    0  0.58179020888E+03 -0.39559786244E+02 -0.20443664077E+03  0.63657742415E+03  0.15294330000E+03 0.  0.
    8880022    1    1    2    0    0 -0.58179020888E+03  0.39559786244E+02  0.91132400311E+03  0.10926792372E+04  0.15294330000E+03 0.  0.
<mgrwt>
<rscale>  0 0.60285693E+03</rscale>
<asrwt>0</asrwt>
<pdfrwt beam="1">  1        2 0.18739569E+00 0.60285693E+03</pdfrwt>
<pdfrwt beam="2">  1       -2 0.78643794E-01 0.60285693E+03</pdfrwt>
<totfact> 0.27522746E+01</totfact>
</mgrwt>
</event>
<event>
 4    1  0.1701380E-008  0.1051307E+04  0.7818608E-02  0.9253996E-01
         -2   -1    0    0    0  501 -0.00000000000E+00  0.00000000000E+00  0.58266328325E+03  0.58266328326E+03  0.25500000000E-02 0.  1.
          2   -1    0    0  501    0  0.00000000000E+00 -0.00000000000E+00 -0.20309270640E+04  0.20309270640E+04  0.25500000000E-02 0. -1.
    8880022    1    1    2    0    0 -0.89926415842E+03  0.52266498228E+03 -0.38841144229E+03  0.11207630489E+04  0.15294330000E+03 0.  0.
    8880022    1    1    2    0    0  0.89926415842E+03 -0.52266498228E+03 -0.10598523384E+04  0.14928272983E+04  0.15294330000E+03 0.  0.
<mgrwt>
<rscale>  0 0.10513070E+04</rscale>
<asrwt>0</asrwt>
<pdfrwt beam="1">  1        2 0.31245031E+00 0.10513070E+04</pdfrwt>
<pdfrwt beam="2">  1       -2 0.89640507E-01 0.10513070E+04</pdfrwt>
<totfact> 0.68207734E+00</totfact>
</mgrwt>
</event>
<event>
 4    1  0.1701380E-008  0.9626471E+03  0.7818608E-02  0.9350489E-01
         -2   -1    0    0    0  501 -0.00000000000E+00  0.00000000000E+00  0.98654334637E+03  0.98654334638E+03  0.25500000000E-02 0.  1.
          2   -1    0    0  501    0  0.00000000000E+00 -0.00000000000E+00 -0.12157344302E+04  0.12157344302E+04  0.25500000000E-02 0. -1.
    8880022    1    1    2    0    0  0.22863829878E+03 -0.92250872939E+03 -0.63963925933E+03  0.11557801965E+04  0.15294330000E+03 0.  0.
    8880022    1    1    2    0    0 -0.22863829878E+03  0.92250872939E+03  0.41044817547E+03  0.10464975801E+04  0.15294330000E+03 0.  0.
<mgrwt>
<rscale>  0 0.96264712E+03</rscale>
<asrwt>0</asrwt>
<pdfrwt beam="1">  1        2 0.18703607E+00 0.96264712E+03</pdfrwt>
<pdfrwt beam="2">  1       -2 0.15177590E+00 0.96264712E+03</pdfrwt>
<totfact> 0.53573062E+00</totfact>
</mgrwt>
</event>
<event>
 4    1  0.1701380E-008  0.2269213E+04  0.7818608E-02  0.8490160E-01
          2   -1    0    0  501    0  0.00000000000E+00  0.00000000000E+00  0.21892384325E+04  0.21892384325E+04  0.25500000000E-02 0. -1.
         -2   -1    0    0    0  501 -0.00000000000E+00 -0.00000000000E+00 -0.25430314625E+04  0.25430314625E+04  0.25500000000E-02 0.  1.
    8880022    1    1    2    0    0 -0.19114311204E+04  0.12134109352E+04 -0.82522117690E+03  0.24146048682E+04  0.15294330000E+03 0.  0.
    8880022    1    1    2    0    0  0.19114311204E+04 -0.12134109352E+04  0.47142814692E+03  0.23176650268E+04  0.15294330000E+03 0.  0.
<mgrwt>
<rscale>  0 0.22692128E+04</rscale>
<asrwt>0</asrwt>
<pdfrwt beam="1">  1        2 0.33680591E+00 0.22692128E+04</pdfrwt>
<pdfrwt beam="2">  1       -2 0.39123561E+00 0.22692128E+04</pdfrwt>
<totfact> 0.38209489E-02</totfact>
</mgrwt>
</event>
<event>
 4    1  0.1701380E-008  0.7563743E+03  0.7818608E-02  0.9625403E-01
         -2   -1    0    0    0  501 -0.00000000000E+00  0.00000000000E+00  0.36730601716E+04  0.36730601716E+04  0.25500000000E-02 0.  1.
          2   -1    0    0  501    0  0.00000000000E+00 -0.00000000000E+00 -0.23025332014E+03  0.23025332015E+03  0.25500000000E-02 0. -1.
    8880022    1    1    2    0    0  0.53151565386E+03  0.51594723443E+03  0.28315237966E+04  0.29308069030E+04  0.15294330000E+03 0.  0.
    8880022    1    1    2    0    0 -0.53151565386E+03 -0.51594723443E+03  0.61128305492E+03  0.97250658881E+03  0.15294330000E+03 0.  0.
<mgrwt>
<rscale>  0 0.75637431E+03</rscale>
<asrwt>0</asrwt>
<pdfrwt beam="1">  1        2 0.35423587E-01 0.75637431E+03</pdfrwt>
<pdfrwt beam="2">  1       -2 0.56508619E+00 0.75637431E+03</pdfrwt>
<totfact> 0.10901749E-01</totfact>
</mgrwt>
</event>
<event>
 4    1  0.1701380E-008  0.1090785E+04  0.7818608E-02  0.9214221E-01
         -2   -1    0    0    0  501 -0.00000000000E+00  0.00000000000E+00  0.74764080816E+03  0.74764080816E+03  0.25500000000E-02 0.  1.
          2   -1    0    0  501    0  0.00000000000E+00 -0.00000000000E+00 -0.22530766147E+04  0.22530766147E+04  0.25500000000E-02 0. -1.
    8880022    1    1    2    0    0  0.95268046611E+03  0.50874305690E+03 -0.15657789452E+04  0.19082648995E+04  0.15294330000E+03 0.  0.
    8880022    1    1    2    0    0 -0.95268046611E+03 -0.50874305690E+03  0.60343138631E+02  0.10924525234E+04  0.15294330000E+03 0.  0.
<mgrwt>
<rscale>  0 0.10907847E+04</rscale>
<asrwt>0</asrwt>
<pdfrwt beam="1">  1        2 0.34662717E+00 0.10907847E+04</pdfrwt>
<pdfrwt beam="2">  1       -2 0.11502166E+00 0.10907847E+04</pdfrwt>
<totfact> 0.28162814E+00</totfact>
</mgrwt>
</event>
<event>
 4    1  0.1701380E-008  0.5215711E+03  0.7818608E-02  0.1008297E+00
          2   -1    0    0  501    0  0.00000000000E+00  0.00000000000E+00  0.12402146006E+04  0.12402146006E+04  0.25500000000E-02 0. -1.
         -2   -1    0    0    0  501 -0.00000000000E+00 -0.00000000000E+00 -0.22201185053E+03  0.22201185054E+03  0.25500000000E-02 0.  1.
    8880022    1    1    2    0    0 -0.49406577964E+03  0.67407801157E+02  0.58921227958E+03  0.78689743276E+03  0.15294330000E+03 0.  0.
    8880022    1    1    2    0    0  0.49406577964E+03 -0.67407801157E+02  0.42899047047E+03  0.67532901836E+03  0.15294330000E+03 0.  0.
<mgrwt>
<rscale>  0 0.52157114E+03</rscale>
<asrwt>0</asrwt>
<pdfrwt beam="1">  1        2 0.19080224E+00 0.52157114E+03</pdfrwt>
<pdfrwt beam="2">  1       -2 0.34155670E-01 0.52157114E+03</pdfrwt>
<totfact> 0.14875954E+02</totfact>
</mgrwt>
</event>
<event>
 4    1  0.1701380E-008  0.7279613E+03  0.7818608E-02  0.9670574E-01
         -2   -1    0    0    0  501 -0.00000000000E+00  0.00000000000E+00  0.12997563312E+04  0.12997563312E+04  0.25500000000E-02 0.  1.
          2   -1    0    0  501    0  0.00000000000E+00 -0.00000000000E+00 -0.15219209832E+04  0.15219209832E+04  0.25500000000E-02 0. -1.
    8880022    1    1    2    0    0  0.67091350888E+03  0.23751017861E+03  0.10960764978E+04  0.13157930549E+04  0.15294330000E+03 0.  0.
    8880022    1    1    2    0    0 -0.67091350888E+03 -0.23751017861E+03 -0.13182411498E+04  0.15058842596E+04  0.15294330000E+03 0.  0.
<mgrwt>
<rscale>  0 0.72796131E+03</rscale>
<asrwt>0</asrwt>
<pdfrwt beam="1">  1        2 0.23414169E+00 0.72796131E+03</pdfrwt>
<pdfrwt beam="2">  1       -2 0.19996251E+00 0.72796131E+03</pdfrwt>
<totfact> 0.17024500E+00</totfact>
</mgrwt>
</event>
<event>
 4    1  0.1701380E-008  0.3722718E+03  0.7818608E-02  0.1053828E+00
          2   -1    0    0  501    0  0.00000000000E+00  0.00000000000E+00  0.20285051033E+04  0.20285051033E+04  0.25500000000E-02 0. -1.
         -2   -1    0    0    0  501 -0.00000000000E+00 -0.00000000000E+00 -0.17122622607E+03  0.17122622609E+03  0.25500000000E-02 0.  1.
    8880022    1    1    2    0    0  0.28626860140E+03  0.18233200080E+03  0.17813006739E+04  0.18197852660E+04  0.15294330000E+03 0.  0.
    8880022    1    1    2    0    0 -0.28626860140E+03 -0.18233200080E+03  0.75978203338E+02  0.37994606336E+03  0.15294330000E+03 0.  0.
<mgrwt>
<rscale>  0 0.37227184E+03</rscale>
<asrwt>0</asrwt>
<pdfrwt beam="1">  1        2 0.31207768E+00 0.37227184E+03</pdfrwt>
<pdfrwt beam="2">  1       -2 0.26342498E-01 0.37227184E+03</pdfrwt>
<totfact> 0.91367697E+01</totfact>
</mgrwt>
</event>
<event>
 4    1  0.1701380E-008  0.1093923E+04  0.7818608E-02  0.9211136E-01
          2   -1    0    0  501    0  0.00000000000E+00  0.00000000000E+00  0.13755257130E+04  0.13755257130E+04  0.25500000000E-02 0. -1.
         -2   -1    0    0    0  501 -0.00000000000E+00 -0.00000000000E+00 -0.15597202709E+04  0.15597202709E+04  0.25500000000E-02 0.  1.
    8880022    1    1    2    0    0  0.89796988473E+03  0.60574330410E+03 -0.10680684604E+04  0.15288678012E+04  0.15294330000E+03 0.  0.
    8880022    1    1    2    0    0 -0.89796988473E+03 -0.60574330410E+03  0.88387390255E+03  0.14063781828E+04  0.15294330000E+03 0.  0.
<mgrwt>
<rscale>  0 0.10939225E+04</rscale>
<asrwt>0</asrwt>
<pdfrwt beam="1">  1        2 0.21161934E+00 0.10939225E+04</pdfrwt>
<pdfrwt beam="2">  1       -2 0.23995696E+00 0.10939225E+04</pdfrwt>
<totfact> 0.10900523E+00</totfact>
</mgrwt>
</event>
<event>
 4    1  0.1701380E-008  0.1091906E+04  0.7818608E-02  0.9213117E-01
          2   -1    0    0  501    0  0.00000000000E+00  0.00000000000E+00  0.14944119173E+04  0.14944119173E+04  0.25500000000E-02 0. -1.
         -2   -1    0    0    0  501 -0.00000000000E+00 -0.00000000000E+00 -0.93238885623E+03  0.93238885623E+03  0.25500000000E-02 0.  1.
    8880022    1    1    2    0    0 -0.99454933781E+03 -0.42395684921E+03  0.74200112059E+03  0.13201610172E+04  0.15294330000E+03 0.  0.
    8880022    1    1    2    0    0  0.99454933781E+03  0.42395684921E+03 -0.17997805955E+03  0.11066397563E+04  0.15294330000E+03 0.  0.
<mgrwt>
<rscale>  0 0.10919063E+04</rscale>
<asrwt>0</asrwt>
<pdfrwt beam="1">  1        2 0.22990953E+00 0.10919063E+04</pdfrwt>
<pdfrwt beam="2">  1       -2 0.14344444E+00 0.10919063E+04</pdfrwt>
<totfact> 0.42368335E+00</totfact>
</mgrwt>
</event>
<event>
 4    1  0.1701380E-008  0.5833226E+03  0.7818608E-02  0.9940623E-01
          2   -1    0    0  501    0  0.00000000000E+00  0.00000000000E+00  0.10131202257E+04  0.10131202257E+04  0.25500000000E-02 0. -1.
         -2   -1    0    0    0  501 -0.00000000000E+00 -0.00000000000E+00 -0.63407765076E+03  0.63407765077E+03  0.25500000000E-02 0.  1.
    8880022    1    1    2    0    0 -0.36711364231E+03  0.42673310793E+03 -0.37530146956E+03  0.69362556025E+03  0.15294330000E+03 0.  0.
    8880022    1    1    2    0    0  0.36711364231E+03 -0.42673310793E+03  0.75434404448E+03  0.95357231621E+03  0.15294330000E+03 0.  0.
<mgrwt>
<rscale>  0 0.58332257E+03</rscale>
<asrwt>0</asrwt>
<pdfrwt beam="1">  1        2 0.15586465E+00 0.58332257E+03</pdfrwt>
<pdfrwt beam="2">  1       -2 0.97550408E-01 0.58332257E+03</pdfrwt>
<totfact> 0.22428983E+01</totfact>
</mgrwt>
</event>
<event>
 4    1  0.1701380E-008  0.4886853E+03  0.7818608E-02  0.1016775E+00
         -2   -1    0    0    0  501 -0.00000000000E+00  0.00000000000E+00  0.82831178725E+03  0.82831178725E+03  0.25500000000E-02 0.  1.
          2   -1    0    0  501    0  0.00000000000E+00 -0.00000000000E+00 -0.76690943439E+03  0.76690943440E+03  0.25500000000E-02 0. -1.
    8880022    1    1    2    0    0  0.40422130835E+03  0.22809380993E+03  0.66079246561E+03  0.82186372829E+03  0.15294330000E+03 0.  0.
    8880022    1    1    2    0    0 -0.40422130835E+03 -0.22809380993E+03 -0.59939011276E+03  0.77335749336E+03  0.15294330000E+03 0.  0.
<mgrwt>
<rscale>  0 0.48868528E+03</rscale>
<asrwt>0</asrwt>
<pdfrwt beam="1">  1        2 0.11798607E+00 0.48868528E+03</pdfrwt>
<pdfrwt beam="2">  1       -2 0.12743258E+00 0.48868528E+03</pdfrwt>
<totfact> 0.17432016E+01</totfact>
</mgrwt>
</event>
<event>
 4    1  0.1701380E-008  0.5204246E+03  0.7818608E-02  0.1008581E+00
         -2   -1    0    0    0  501 -0.00000000000E+00  0.00000000000E+00  0.30814467809E+03  0.30814467810E+03  0.25500000000E-02 0.  1.
          2   -1    0    0  501    0  0.00000000000E+00 -0.00000000000E+00 -0.15629091411E+04  0.15629091411E+04  0.25500000000E-02 0. -1.
    8880022    1    1    2    0    0  0.39858356491E+03  0.29762610222E+03 -0.12462623252E+04  0.13505597325E+04  0.15294330000E+03 0.  0.
    8880022    1    1    2    0    0 -0.39858356491E+03 -0.29762610222E+03 -0.85021378606E+01  0.52049408671E+03  0.15294330000E+03 0.  0.
<mgrwt>
<rscale>  0 0.52042464E+03</rscale>
<asrwt>0</asrwt>
<pdfrwt beam="1">  1        2 0.24044756E+00 0.52042464E+03</pdfrwt>
<pdfrwt beam="2">  1       -2 0.47406875E-01 0.52042464E+03</pdfrwt>
<totfact> 0.51947073E+01</totfact>
</mgrwt>
</event>
<event>
 4    1  0.1701380E-008  0.1250824E+04  0.7818608E-02  0.9069498E-01
          2   -1    0    0  501    0  0.00000000000E+00  0.00000000000E+00  0.33420161695E+04  0.33420161695E+04  0.25500000000E-02 0. -1.
         -2   -1    0    0    0  501 -0.00000000000E+00 -0.00000000000E+00 -0.71527078265E+03  0.71527078265E+03  0.25500000000E-02 0.  1.
    8880022    1    1    2    0    0 -0.11223368497E+04  0.53059312488E+03  0.12096103908E+03  0.12566591799E+04  0.15294330000E+03 0.  0.
    8880022    1    1    2    0    0  0.11223368497E+04 -0.53059312488E+03  0.25057843478E+04  0.28006277723E+04  0.15294330000E+03 0.  0.
<mgrwt>
<rscale>  0 0.12508240E+04</rscale>
<asrwt>0</asrwt>
<pdfrwt beam="1">  1        2 0.51415633E+00 0.12508240E+04</pdfrwt>
<pdfrwt beam="2">  1       -2 0.11004166E+00 0.12508240E+04</pdfrwt>
<totfact> 0.67727334E-01</totfact>
</mgrwt>
</event>
<event>
 4    1  0.1701380E-008  0.1338153E+04  0.7818608E-02  0.8999845E-01
          2   -1    0    0  501    0  0.00000000000E+00  0.00000000000E+00  0.25172063524E+04  0.25172063524E+04  0.25500000000E-02 0. -1.
         -2   -1    0    0    0  501 -0.00000000000E+00 -0.00000000000E+00 -0.15585884450E+04  0.15585884450E+04  0.25500000000E-02 0.  1.
    8880022    1    1    2    0    0 -0.27143729724E+03  0.13013770882E+04 -0.10231949302E+04  0.16845118136E+04  0.15294330000E+03 0.  0.
    8880022    1    1    2    0    0  0.27143729724E+03 -0.13013770882E+04  0.19818128376E+04  0.23912829838E+04  0.15294330000E+03 0.  0.
<mgrwt>
<rscale>  0 0.13381525E+04</rscale>
<asrwt>0</asrwt>
<pdfrwt beam="1">  1        2 0.38726252E+00 0.13381525E+04</pdfrwt>
<pdfrwt beam="2">  1       -2 0.23978284E+00 0.13381525E+04</pdfrwt>
<totfact> 0.24210096E-01</totfact>
</mgrwt>
</event>
<event>
 4    1  0.1701380E-008  0.7057627E+03  0.7818608E-02  0.9707428E-01
          2   -1    0    0  501    0  0.00000000000E+00  0.00000000000E+00  0.45119544320E+03  0.45119544321E+03  0.25500000000E-02 0. -1.
         -2   -1    0    0    0  501 -0.00000000000E+00 -0.00000000000E+00 -0.52612062487E+04  0.52612062487E+04  0.25500000000E-02 0.  1.
    8880022    1    1    2    0    0 -0.61541747039E+03 -0.30979140918E+03 -0.49439255071E+04  0.49940465009E+04  0.15294330000E+03 0.  0.
    8880022    1    1    2    0    0  0.61541747039E+03  0.30979140918E+03  0.13391470166E+03  0.71835519098E+03  0.15294330000E+03 0.  0.
<mgrwt>
<rscale>  0 0.70576273E+03</rscale>
<asrwt>0</asrwt>
<pdfrwt beam="1">  1        2 0.69414687E-01 0.70576273E+03</pdfrwt>
<pdfrwt beam="2">  1       -2 0.80941630E+00 0.70576273E+03</pdfrwt>
<totfact> 0.55433761E-03</totfact>
</mgrwt>
</event>
<event>
 4    1  0.1701380E-008  0.4748006E+03  0.7818608E-02  0.1020574E+00
          2   -1    0    0  501    0  0.00000000000E+00  0.00000000000E+00  0.26303510975E+04  0.26303510975E+04  0.25500000000E-02 0. -1.
         -2   -1    0    0    0  501 -0.00000000000E+00 -0.00000000000E+00 -0.42711055761E+03  0.42711055761E+03  0.25500000000E-02 0.  1.
    8880022    1    1    2    0    0 -0.35507407302E+03 -0.27562003907E+03 -0.26515093660E+03  0.54382044414E+03  0.15294330000E+03 0.  0.
    8880022    1    1    2    0    0  0.35507407302E+03  0.27562003907E+03  0.24683914765E+04  0.25136412110E+04  0.15294330000E+03 0.  0.
<mgrwt>
<rscale>  0 0.47480065E+03</rscale>
<asrwt>0</asrwt>
<pdfrwt beam="1">  1        2 0.40466940E+00 0.47480065E+03</pdfrwt>
<pdfrwt beam="2">  1       -2 0.65709317E-01 0.47480065E+03</pdfrwt>
<totfact> 0.69801585E+00</totfact>
</mgrwt>
</event>
<event>
 4    1  0.1701380E-008  0.5902274E+03  0.7818608E-02  0.9925891E-01
          2   -1    0    0  501    0  0.00000000000E+00  0.00000000000E+00  0.36085046458E+03  0.36085046459E+03  0.25500000000E-02 0. -1.
         -2   -1    0    0    0  501 -0.00000000000E+00 -0.00000000000E+00 -0.19161923461E+04  0.19161923461E+04  0.25500000000E-02 0.  1.
    8880022    1    1    2    0    0  0.29228285440E+03  0.48943588976E+03 -0.15796487549E+04  0.16863150948E+04  0.15294330000E+03 0.  0.
    8880022    1    1    2    0    0 -0.29228285440E+03 -0.48943588976E+03  0.24306873392E+02  0.59072771585E+03  0.15294330000E+03 0.  0.
<mgrwt>
<rscale>  0 0.59022742E+03</rscale>
<asrwt>0</asrwt>
<pdfrwt beam="1">  1        2 0.55515457E-01 0.59022742E+03</pdfrwt>
<pdfrwt beam="2">  1       -2 0.29479882E+00 0.59022742E+03</pdfrwt>
<totfact> 0.32546757E+00</totfact>
</mgrwt>
</event>
<event>
 4    1  0.1701380E-008  0.1925528E+03  0.7818608E-02  0.1156179E+00
         -2   -1    0    0    0  501 -0.00000000000E+00  0.00000000000E+00  0.65070080100E+03  0.65070080101E+03  0.25500000000E-02 0.  1.
          2   -1    0    0  501    0  0.00000000000E+00 -0.00000000000E+00 -0.60881529798E+03  0.60881529799E+03  0.25500000000E-02 0. -1.
    8880022    1    1    2    0    0 -0.80100541780E+02 -0.85257415668E+02  0.62050723961E+03  0.64969670705E+03  0.15294330000E+03 0.  1.
    8880022    1    1    2    0    0  0.80100541780E+02  0.85257415668E+02 -0.57862173659E+03  0.60981939195E+03  0.15294330000E+03 0.  0.
<mgrwt>
<rscale>  0 0.19255279E+03</rscale>
<asrwt>0</asrwt>
<pdfrwt beam="1">  1        2 0.93663893E-01 0.19255279E+03</pdfrwt>
<pdfrwt beam="2">  1       -2 0.10010781E+00 0.19255279E+03</pdfrwt>
<totfact> 0.43814410E+01</totfact>
</mgrwt>
</event>
<event>
 4    1  0.1701380E-008  0.1410511E+04  0.7818608E-02  0.8946245E-01
         -2   -1    0    0    0  501 -0.00000000000E+00  0.00000000000E+00  0.12452110117E+04  0.12452110117E+04  0.25500000000E-02 0.  1.
          2   -1    0    0  501    0  0.00000000000E+00 -0.00000000000E+00 -0.20770566528E+04  0.20770566528E+04  0.25500000000E-02 0. -1.
    8880022    1    1    2    0    0 -0.11779464377E+04  0.76065172586E+03  0.38204522605E+03  0.14613346865E+04  0.15294330000E+03 0.  0.
    8880022    1    1    2    0    0  0.11779464377E+04 -0.76065172586E+03 -0.12138908672E+04  0.18609329780E+04  0.15294330000E+03 0.  0.
<mgrwt>
<rscale>  0 0.14105107E+04</rscale>
<asrwt>0</asrwt>
<pdfrwt beam="1">  1        2 0.31954718E+00 0.14105107E+04</pdfrwt>
<pdfrwt beam="2">  1       -2 0.19157092E+00 0.14105107E+04</pdfrwt>
<totfact> 0.86852841E-01</totfact>
</mgrwt>
</event>
<event>
 4    1  0.1701380E-008  0.1018830E+04  0.7818608E-02  0.9288130E-01
         -2   -1    0    0    0  501 -0.00000000000E+00  0.00000000000E+00  0.77271569357E+03  0.77271569357E+03  0.25500000000E-02 0.  1.
          2   -1    0    0  501    0  0.00000000000E+00 -0.00000000000E+00 -0.18362687254E+04  0.18362687254E+04  0.25500000000E-02 0. -1.
    8880022    1    1    2    0    0 -0.17476153701E+03 -0.99200868753E+03 -0.12076548458E+04  0.15800141489E+04  0.15294330000E+03 0.  0.
    8880022    1    1    2    0    0  0.17476153701E+03  0.99200868753E+03  0.14410181400E+03  0.10289702701E+04  0.15294330000E+03 0.  0.
<mgrwt>
<rscale>  0 0.10188300E+04</rscale>
<asrwt>0</asrwt>
<pdfrwt beam="1">  1        2 0.28250288E+00 0.10188300E+04</pdfrwt>
<pdfrwt beam="2">  1       -2 0.11887934E+00 0.10188300E+04</pdfrwt>
<totfact> 0.44545459E+00</totfact>
</mgrwt>
</event>
<event>
 4    1  0.1701380E-008  0.8943236E+03  0.7818608E-02  0.9432705E-01
          2   -1    0    0  501    0  0.00000000000E+00  0.00000000000E+00  0.38245935953E+04  0.38245935953E+04  0.25500000000E-02 0. -1.
         -2   -1    0    0    0  501 -0.00000000000E+00 -0.00000000000E+00 -0.13078126699E+04  0.13078126699E+04  0.25500000000E-02 0.  1.
    8880022    1    1    2    0    0  0.87922798230E+03 -0.58147941758E+02 -0.10937083593E+04  0.14128031201E+04  0.15294330000E+03 0.  0.
    8880022    1    1    2    0    0 -0.87922798230E+03  0.58147941758E+02  0.36104892847E+04  0.37196031450E+04  0.15294330000E+03 0.  0.
<mgrwt>
<rscale>  0 0.89432359E+03</rscale>
<asrwt>0</asrwt>
<pdfrwt beam="1">  1        2 0.58839902E+00 0.89432359E+03</pdfrwt>
<pdfrwt beam="2">  1       -2 0.20120195E+00 0.89432359E+03</pdfrwt>
<totfact> 0.65684018E-02</totfact>
</mgrwt>
</event>
<event>
 4    1  0.1701380E-008  0.1134667E+04  0.7818608E-02  0.9172047E-01
         -2   -1    0    0    0  501 -0.00000000000E+00  0.00000000000E+00  0.73966508779E+03  0.73966508780E+03  0.25500000000E-02 0.  1.
          2   -1    0    0  501    0  0.00000000000E+00 -0.00000000000E+00 -0.25466507654E+04  0.25466507654E+04  0.25500000000E-02 0. -1.
    8880022    1    1    2    0    0 -0.10555720475E+04  0.38709836348E+03 -0.18279203471E+04  0.21514557720E+04  0.15294330000E+03 0.  0.
    8880022    1    1    2    0    0  0.10555720475E+04 -0.38709836348E+03  0.20934669511E+02  0.11348600812E+04  0.15294330000E+03 0.  0.
<mgrwt>
<rscale>  0 0.11346670E+04</rscale>
<asrwt>0</asrwt>
<pdfrwt beam="1">  1        2 0.39179242E+00 0.11346670E+04</pdfrwt>
<pdfrwt beam="2">  1       -2 0.11379463E+00 0.11346670E+04</pdfrwt>
<totfact> 0.19589369E+00</totfact>
</mgrwt>
</event>
<event>
 4    1  0.1701380E-008  0.4926696E+03  0.7818608E-02  0.1015710E+00
          2   -1    0    0  501    0  0.00000000000E+00  0.00000000000E+00  0.19649968807E+04  0.19649968807E+04  0.25500000000E-02 0. -1.
         -2   -1    0    0    0  501 -0.00000000000E+00 -0.00000000000E+00 -0.76870194351E+03  0.76870194352E+03  0.25500000000E-02 0.  1.
    8880022    1    1    2    0    0 -0.44763487664E+03 -0.13767620976E+03 -0.65407528499E+03  0.81886375727E+03  0.15294330000E+03 0.  0.
    8880022    1    1    2    0    0  0.44763487664E+03  0.13767620976E+03  0.18503702222E+04  0.19148350670E+04  0.15294330000E+03 0.  0.
<mgrwt>
<rscale>  0 0.49266964E+03</rscale>
<asrwt>0</asrwt>
<pdfrwt beam="1">  1        2 0.30230720E+00 0.49266964E+03</pdfrwt>
<pdfrwt beam="2">  1       -2 0.11826184E+00 0.49266964E+03</pdfrwt>
<totfact> 0.42040133E+00</totfact>
</mgrwt>
</event>
<event>
 4    1  0.1701380E-008  0.8542012E+03  0.7818608E-02  0.9484715E-01
         -2   -1    0    0    0  501 -0.00000000000E+00  0.00000000000E+00  0.17227839864E+04  0.17227839864E+04  0.25500000000E-02 0.  1.
          2   -1    0    0  501    0  0.00000000000E+00 -0.00000000000E+00 -0.95200541336E+03  0.95200541337E+03  0.25500000000E-02 0. -1.
    8880022    1    1    2    0    0 -0.21594104531E+03  0.81218075114E+03  0.13818269204E+04  0.16245323630E+04  0.15294330000E+03 0.  0.
    8880022    1    1    2    0    0  0.21594104531E+03 -0.81218075114E+03 -0.61104834731E+03  0.10502570368E+04  0.15294330000E+03 0.  0.
<mgrwt>
<rscale>  0 0.85420124E+03</rscale>
<asrwt>0</asrwt>
<pdfrwt beam="1">  1        2 0.14646237E+00 0.85420124E+03</pdfrwt>
<pdfrwt beam="2">  1       -2 0.26504369E+00 0.85420124E+03</pdfrwt>
<totfact> 0.14340255E+00</totfact>
</mgrwt>
</event>
<event>
 4    1  0.1701380E-008  0.4255327E+03  0.7818608E-02  0.1035281E+00
         -2   -1    0    0    0  501 -0.00000000000E+00  0.00000000000E+00  0.12045307476E+04  0.12045307476E+04  0.25500000000E-02 0.  1.
          2   -1    0    0  501    0  0.00000000000E+00 -0.00000000000E+00 -0.25104546788E+03  0.25104546790E+03  0.25500000000E-02 0. -1.
    8880022    1    1    2    0    0  0.39673131302E+03  0.17050687149E+02  0.15770107665E+02  0.42582485834E+03  0.15294330000E+03 0.  0.
    8880022    1    1    2    0    0 -0.39673131302E+03 -0.17050687149E+02  0.93771517200E+03  0.10297513571E+04  0.15294330000E+03 0.  1.
<mgrwt>
<rscale>  0 0.42553274E+03</rscale>
<asrwt>0</asrwt>
<pdfrwt beam="1">  1        2 0.38622381E-01 0.42553274E+03</pdfrwt>
<pdfrwt beam="2">  1       -2 0.18531242E+00 0.42553274E+03</pdfrwt>
<totfact> 0.23412350E+01</totfact>
</mgrwt>
</event>
<event>
 4    1  0.1701380E-008  0.5580913E+03  0.7818608E-02  0.9996383E-01
         -2   -1    0    0    0  501 -0.00000000000E+00  0.00000000000E+00  0.11152400720E+04  0.11152400720E+04  0.25500000000E-02 0.  1.
          2   -1    0    0  501    0  0.00000000000E+00 -0.00000000000E+00 -0.34540911173E+04  0.34540911173E+04  0.25500000000E-02 0. -1.
    8880022    1    1    2    0    0  0.53481078167E+03 -0.45295253113E+02  0.10209299008E+04  0.11635135356E+04  0.15294330000E+03 0.  0.
    8880022    1    1    2    0    0 -0.53481078167E+03  0.45295253113E+02 -0.33597809461E+04  0.34058176538E+04  0.15294330000E+03 0.  0.
<mgrwt>
<rscale>  0 0.55809129E+03</rscale>
<asrwt>0</asrwt>
<pdfrwt beam="1">  1        2 0.53139863E+00 0.55809129E+03</pdfrwt>
<pdfrwt beam="2">  1       -2 0.17157540E+00 0.55809129E+03</pdfrwt>
<totfact> 0.21081235E-01</totfact>
</mgrwt>
</event>
<event>
 4    1  0.1701380E-008  0.8044394E+03  0.7818608E-02  0.9553613E-01
          2   -1    0    0  501    0  0.00000000000E+00  0.00000000000E+00  0.34557154212E+04  0.34557154212E+04  0.25500000000E-02 0. -1.
         -2   -1    0    0    0  501 -0.00000000000E+00 -0.00000000000E+00 -0.28072668385E+03  0.28072668386E+03  0.25500000000E-02 0.  1.
    8880022    1    1    2    0    0  0.36859000859E+03  0.69847868935E+03  0.50951322937E+03  0.95222185326E+03  0.15294330000E+03 0.  0.
    8880022    1    1    2    0    0 -0.36859000859E+03 -0.69847868935E+03  0.26654755080E+04  0.27842202518E+04  0.15294330000E+03 0.  0.
<mgrwt>
<rscale>  0 0.80443939E+03</rscale>
<asrwt>0</asrwt>
<pdfrwt beam="1">  1        2 0.53164857E+00 0.80443939E+03</pdfrwt>
<pdfrwt beam="2">  1       -2 0.43188717E-01 0.80443939E+03</pdfrwt>
<totfact> 0.47510753E+00</totfact>
</mgrwt>
</event>
<event>
 4    1  0.1701380E-008  0.7926463E+03  0.7818608E-02  0.9570723E-01
         -2   -1    0    0    0  501 -0.00000000000E+00  0.00000000000E+00  0.51369879339E+03  0.51369879340E+03  0.25500000000E-02 0.  1.
          2   -1    0    0  501    0  0.00000000000E+00 -0.00000000000E+00 -0.40691087039E+04  0.40691087039E+04  0.25500000000E-02 0. -1.
    8880022    1    1    2    0    0  0.77220396692E+03  0.92722556584E+02  0.13863518115E+03  0.80467869705E+03  0.15294330000E+03 0.  0.
    8880022    1    1    2    0    0 -0.77220396692E+03 -0.92722556584E+02 -0.36940450916E+04  0.37781288002E+04  0.15294330000E+03 0.  0.
<mgrwt>
<rscale>  0 0.79264626E+03</rscale>
<asrwt>0</asrwt>
<pdfrwt beam="1">  1        2 0.62601670E+00 0.79264626E+03</pdfrwt>
<pdfrwt beam="2">  1       -2 0.79030586E-01 0.79264626E+03</pdfrwt>
<totfact> 0.47159367E-01</totfact>
</mgrwt>
</event>
<event>
 4    1  0.1701380E-008  0.6224222E+03  0.7818608E-02  0.9859949E-01
          2   -1    0    0  501    0  0.00000000000E+00  0.00000000000E+00  0.38189370585E+04  0.38189370585E+04  0.25500000000E-02 0. -1.
         -2   -1    0    0    0  501 -0.00000000000E+00 -0.00000000000E+00 -0.31709125341E+03  0.31709125342E+03  0.25500000000E-02 0.  1.
    8880022    1    1    2    0    0  0.17868346782E+03 -0.57627245629E+03  0.34563495483E+04  0.35119455546E+04  0.15294330000E+03 0.  0.
    8880022    1    1    2    0    0 -0.17868346782E+03  0.57627245629E+03  0.45496256770E+02  0.62408275729E+03  0.15294330000E+03 0.  0.
<mgrwt>
<rscale>  0 0.62242219E+03</rscale>
<asrwt>0</asrwt>
<pdfrwt beam="1">  1        2 0.58752882E+00 0.62242219E+03</pdfrwt>
<pdfrwt beam="2">  1       -2 0.48783267E-01 0.62242219E+03</pdfrwt>
<totfact> 0.21506881E+00</totfact>
</mgrwt>
</event>
<event>
 4    1  0.1701380E-008  0.9877674E+03  0.7818608E-02  0.9322064E-01
          2   -1    0    0  501    0  0.00000000000E+00  0.00000000000E+00  0.19512549080E+04  0.19512549080E+04  0.25500000000E-02 0. -1.
         -2   -1    0    0    0  501 -0.00000000000E+00 -0.00000000000E+00 -0.73501814202E+03  0.73501814203E+03  0.25500000000E-02 0.  1.
    8880022    1    1    2    0    0  0.48790994489E+03  0.84512523546E+03  0.13675607875E+04  0.16869816058E+04  0.15294330000E+03 0.  0.
    8880022    1    1    2    0    0 -0.48790994489E+03 -0.84512523546E+03 -0.15132402152E+03  0.99929144419E+03  0.15294330000E+03 0.  0.
<mgrwt>
<rscale>  0 0.98776740E+03</rscale>
<asrwt>0</asrwt>
<pdfrwt beam="1">  1        2 0.30019307E+00 0.98776740E+03</pdfrwt>
<pdfrwt beam="2">  1       -2 0.11307971E+00 0.98776740E+03</pdfrwt>
<totfact> 0.43710196E+00</totfact>
</mgrwt>
</event>
<event>
 4    1  0.1701380E-008  0.5186185E+03  0.7818608E-02  0.1009030E+00
         -2   -1    0    0    0  501 -0.00000000000E+00  0.00000000000E+00  0.18485932943E+03  0.18485932945E+03  0.25500000000E-02 0.  1.
          2   -1    0    0  501    0  0.00000000000E+00 -0.00000000000E+00 -0.19681919280E+04  0.19681919280E+04  0.25500000000E-02 0. -1.
    8880022    1    1    2    0    0 -0.35260527283E+03  0.34819971815E+03 -0.34194527824E+03  0.62120185807E+03  0.15294330000E+03 0.  0.
    8880022    1    1    2    0    0  0.35260527283E+03 -0.34819971815E+03 -0.14413873203E+04  0.15318493994E+04  0.15294330000E+03 0.  0.
<mgrwt>
<rscale>  0 0.51861853E+03</rscale>
<asrwt>0</asrwt>
<pdfrwt beam="1">  1        2 0.30279874E+00 0.51861853E+03</pdfrwt>
<pdfrwt beam="2">  1       -2 0.28439898E-01 0.51861853E+03</pdfrwt>
<totfact> 0.83359841E+01</totfact>
</mgrwt>
</event>
<event>
 4    1  0.1701380E-008  0.1474282E+04  0.7818608E-02  0.8901737E-01
          2   -1    0    0  501    0  0.00000000000E+00  0.00000000000E+00  0.41796884405E+04  0.41796884405E+04  0.25500000000E-02 0. -1.
         -2   -1    0    0    0  501 -0.00000000000E+00 -0.00000000000E+00 -0.87052922756E+03  0.87052922757E+03  0.25500000000E-02 0.  1.
    8880022    1    1    2    0    0  0.57585957120E+03 -0.13485183047E+04  0.52292877715E+02  0.14752091587E+04  0.15294330000E+03 0.  0.
    8880022    1    1    2    0    0 -0.57585957120E+03  0.13485183047E+04  0.32568663352E+04  0.35750085094E+04  0.15294330000E+03 0. -1.
<mgrwt>
<rscale>  0 0.14742820E+04</rscale>
<asrwt>0</asrwt>
<pdfrwt beam="1">  1        2 0.64302898E+00 0.14742820E+04</pdfrwt>
<pdfrwt beam="2">  1       -2 0.13392758E+00 0.14742820E+04</pdfrwt>
<totfact> 0.94629579E-02</totfact>
</mgrwt>
</event>
<event>
 4    1  0.1701380E-008  0.8862809E+03  0.7818608E-02  0.9442895E-01
          2   -1    0    0  501    0  0.00000000000E+00  0.00000000000E+00  0.57165810823E+03  0.57165810824E+03  0.25500000000E-02 0. -1.
         -2   -1    0    0    0  501 -0.00000000000E+00 -0.00000000000E+00 -0.15014320408E+04  0.15014320408E+04  0.25500000000E-02 0.  1.
    8880022    1    1    2    0    0 -0.26736945980E+03 -0.83103299464E+03 -0.16298336507E+03  0.90114232867E+03  0.15294330000E+03 0.  0.
    8880022    1    1    2    0    0  0.26736945980E+03  0.83103299464E+03 -0.76679056746E+03  0.11719478203E+04  0.15294330000E+03 0.  0.
<mgrwt>
<rscale>  0 0.88628095E+03</rscale>
<asrwt>0</asrwt>
<pdfrwt beam="1">  1        2 0.87947402E-01 0.88628095E+03</pdfrwt>
<pdfrwt beam="2">  1       -2 0.23098954E+00 0.88628095E+03</pdfrwt>
<totfact> 0.44708978E+00</totfact>
</mgrwt>
</event>
<event>
 4    1  0.1701380E-008  0.1243101E+04  0.7818608E-02  0.9075945E-01
          2   -1    0    0  501    0  0.00000000000E+00  0.00000000000E+00  0.22130531802E+04  0.22130531802E+04  0.25500000000E-02 0. -1.
         -2   -1    0    0    0  501 -0.00000000000E+00 -0.00000000000E+00 -0.14736515490E+04  0.14736515490E+04  0.25500000000E-02 0.  1.
    8880022    1    1    2    0    0 -0.93768521667E+03 -0.80165823334E+03  0.17068185177E+04  0.21115232876E+04  0.15294330000E+03 0.  0.
    8880022    1    1    2    0    0  0.93768521667E+03  0.80165823334E+03 -0.96741688648E+03  0.15751814416E+04  0.15294330000E+03 0.  1.
<mgrwt>
<rscale>  0 0.12431014E+04</rscale>
<asrwt>0</asrwt>
<pdfrwt beam="1">  1        2 0.34046972E+00 0.12431014E+04</pdfrwt>
<pdfrwt beam="2">  1       -2 0.22671562E+00 0.12431014E+04</pdfrwt>
<totfact> 0.44041282E-01</totfact>
</mgrwt>
</event>
<event>
 4    1  0.1701380E-008  0.1055095E+04  0.7818608E-02  0.9250099E-01
         -2   -1    0    0    0  501 -0.00000000000E+00  0.00000000000E+00  0.89873775078E+03  0.89873775079E+03  0.25500000000E-02 0.  1.
          2   -1    0    0  501    0  0.00000000000E+00 -0.00000000000E+00 -0.23417779934E+04  0.23417779934E+04  0.25500000000E-02 0. -1.
    8880022    1    1    2    0    0  0.79835033625E+03  0.67265968890E+03 -0.18335674138E+04  0.21154657716E+04  0.15294330000E+03 0.  0.
    8880022    1    1    2    0    0 -0.79835033625E+03 -0.67265968890E+03  0.39052717122E+03  0.11250499726E+04  0.15294330000E+03 0.  0.
<mgrwt>
<rscale>  0 0.10550952E+04</rscale>
<asrwt>0</asrwt>
<pdfrwt beam="1">  1        2 0.36027354E+00 0.10550952E+04</pdfrwt>
<pdfrwt beam="2">  1       -2 0.13826735E+00 0.10550952E+04</pdfrwt>
<totfact> 0.15849382E+00</totfact>
</mgrwt>
</event>
<event>
 4    1  0.1701380E-008  0.4916080E+03  0.7818608E-02  0.1015993E+00
          2   -1    0    0  501    0  0.00000000000E+00  0.00000000000E+00  0.21730758787E+04  0.21730758787E+04  0.25500000000E-02 0. -1.
         -2   -1    0    0    0  501 -0.00000000000E+00 -0.00000000000E+00 -0.12320570457E+03  0.12320570459E+03  0.25500000000E-02 0.  1.
    8880022    1    1    2    0    0 -0.62566237289E+02 -0.46300346582E+03  0.13831173442E+04  0.14678869112E+04  0.15294330000E+03 0.  0.
    8880022    1    1    2    0    0  0.62566237289E+02  0.46300346582E+03  0.66675282994E+03  0.82839467204E+03  0.15294330000E+03 0.  0.
<mgrwt>
<rscale>  0 0.49160797E+03</rscale>
<asrwt>0</asrwt>
<pdfrwt beam="1">  1        2 0.33431935E+00 0.49160797E+03</pdfrwt>
<pdfrwt beam="2">  1       -2 0.18954724E-01 0.49160797E+03</pdfrwt>
<totfact> 0.13329626E+02</totfact>
</mgrwt>
</event>
<event>
 4    1  0.1701380E-008  0.2985016E+03  0.7818608E-02  0.1085992E+00
         -2   -1    0    0    0  501 -0.00000000000E+00  0.00000000000E+00  0.97717636648E+02  0.97717636681E+02  0.25500000000E-02 0.  1.
          2   -1    0    0  501    0  0.00000000000E+00 -0.00000000000E+00 -0.21852735894E+04  0.21852735894E+04  0.25500000000E-02 0. -1.
    8880022    1    1    2    0    0 -0.21576219467E+03  0.13841315221E+03 -0.19151606404E+04  0.19382836368E+04  0.15294330000E+03 0.  0.
    8880022    1    1    2    0    0  0.21576219467E+03 -0.13841315221E+03 -0.17239531241E+03  0.34470758928E+03  0.15294330000E+03 0.  0.
<mgrwt>
<rscale>  0 0.29850156E+03</rscale>
<asrwt>0</asrwt>
<pdfrwt beam="1">  1        2 0.33619590E+00 0.29850156E+03</pdfrwt>
<pdfrwt beam="2">  1       -2 0.15033484E-01 0.29850156E+03</pdfrwt>
<totfact> 0.20175893E+02</totfact>
</mgrwt>
</event>
<event>
 4    1  0.1701380E-008  0.5382906E+03  0.7818608E-02  0.1004241E+00
          2   -1    0    0  501    0  0.00000000000E+00  0.00000000000E+00  0.44626781767E+04  0.44626781767E+04  0.25500000000E-02 0. -1.
         -2   -1    0    0    0  501 -0.00000000000E+00 -0.00000000000E+00 -0.40740913484E+03  0.40740913485E+03  0.25500000000E-02 0.  1.
    8880022    1    1    2    0    0 -0.29600941443E+03  0.42278071709E+03 -0.20495627607E+03  0.57598944113E+03  0.15294330000E+03 0.  1.
    8880022    1    1    2    0    0  0.29600941443E+03 -0.42278071709E+03  0.42602253179E+04  0.42940978704E+04  0.15294330000E+03 0.  0.
<mgrwt>
<rscale>  0 0.53829059E+03</rscale>
<asrwt>0</asrwt>
<pdfrwt beam="1">  1        2 0.68656589E+00 0.53829059E+03</pdfrwt>
<pdfrwt beam="2">  1       -2 0.62678327E-01 0.53829059E+03</pdfrwt>
<totfact> 0.38708995E-01</totfact>
</mgrwt>
</event>
<event>
 4    1  0.1701380E-008  0.1604048E+03  0.7818608E-02  0.1188240E+00
          2   -1    0    0  501    0  0.00000000000E+00  0.00000000000E+00  0.21195064851E+04  0.21195064851E+04  0.25500000000E-02 0. -1.
         -2   -1    0    0    0  501 -0.00000000000E+00 -0.00000000000E+00 -0.14863556099E+04  0.14863556099E+04  0.25500000000E-02 0.  1.
    8880022    1    1    2    0    0  0.48338611392E+02  0.11978409930E+01 -0.14789779947E+04  0.14876510404E+04  0.15294330000E+03 0.  0.
    8880022    1    1    2    0    0 -0.48338611392E+02 -0.11978409930E+01  0.21121288698E+04  0.21182110546E+04  0.15294330000E+03 0. -1.
<mgrwt>
<rscale>  0 0.16040483E+03</rscale>
<asrwt>0</asrwt>
<pdfrwt beam="1">  1        2 0.32607792E+00 0.16040483E+03</pdfrwt>
<pdfrwt beam="2">  1       -2 0.22867009E+00 0.16040483E+03</pdfrwt>
<totfact> 0.69262231E-01</totfact>
</mgrwt>
</event>
<event>
 4    1  0.1701380E-008  0.1416006E+04  0.7818608E-02  0.8942314E-01
         -2   -1    0    0    0  501 -0.00000000000E+00  0.00000000000E+00  0.21950228807E+04  0.21950228807E+04  0.25500000000E-02 0.  1.
          2   -1    0    0  501    0  0.00000000000E+00 -0.00000000000E+00 -0.17455255419E+04  0.17455255419E+04  0.25500000000E-02 0. -1.
    8880022    1    1    2    0    0 -0.19860256009E+03 -0.13936417654E+04  0.15850702143E+04  0.21254457379E+04  0.15294330000E+03 0.  0.
    8880022    1    1    2    0    0  0.19860256009E+03  0.13936417654E+04 -0.11355728755E+04  0.18151026847E+04  0.15294330000E+03 0.  0.
<mgrwt>
<rscale>  0 0.14160056E+04</rscale>
<asrwt>0</asrwt>
<pdfrwt beam="1">  1        2 0.26854239E+00 0.14160056E+04</pdfrwt>
<pdfrwt beam="2">  1       -2 0.33769583E+00 0.14160056E+04</pdfrwt>
<totfact> 0.16336783E-01</totfact>
</mgrwt>
</event>
<event>
 4    1  0.1701380E-008  0.6667377E+03  0.7818608E-02  0.9775869E-01
         -2   -1    0    0    0  501 -0.00000000000E+00  0.00000000000E+00  0.27635196887E+03  0.27635196888E+03  0.25500000000E-02 0.  1.
          2   -1    0    0  501    0  0.00000000000E+00 -0.00000000000E+00 -0.36207425158E+04  0.36207425158E+04  0.25500000000E-02 0. -1.
    8880022    1    1    2    0    0  0.18612316888E+03 -0.62169582576E+03 -0.31247808189E+04  0.31951203972E+04  0.15294330000E+03 0.  0.
    8880022    1    1    2    0    0 -0.18612316888E+03  0.62169582576E+03 -0.21960972803E+03  0.70197408742E+03  0.15294330000E+03 0.  0.
<mgrwt>
<rscale>  0 0.66673772E+03</rscale>
<asrwt>0</asrwt>
<pdfrwt beam="1">  1        2 0.55703728E+00 0.66673772E+03</pdfrwt>
<pdfrwt beam="2">  1       -2 0.42515690E-01 0.66673772E+03</pdfrwt>
<totfact> 0.38860308E+00</totfact>
</mgrwt>
</event>
<event>
 4    1  0.1701380E-008  0.6095107E+03  0.7818608E-02  0.9885868E-01
          2   -1    0    0  501    0  0.00000000000E+00  0.00000000000E+00  0.26164834416E+04  0.26164834416E+04  0.25500000000E-02 0. -1.
         -2   -1    0    0    0  501 -0.00000000000E+00 -0.00000000000E+00 -0.11195531732E+04  0.11195531732E+04  0.25500000000E-02 0.  1.
    8880022    1    1    2    0    0 -0.57916042206E+03  0.11262704916E+03 -0.99708421439E+03  0.11686232200E+04  0.15294330000E+03 0.  1.
    8880022    1    1    2    0    0  0.57916042206E+03 -0.11262704916E+03  0.24940144828E+04  0.25674133949E+04  0.15294330000E+03 0.  0.
<mgrwt>
<rscale>  0 0.60951071E+03</rscale>
<asrwt>0</asrwt>
<pdfrwt beam="1">  1        2 0.40253591E+00 0.60951071E+03</pdfrwt>
<pdfrwt beam="2">  1       -2 0.17223895E+00 0.60951071E+03</pdfrwt>
<totfact> 0.67063939E-01</totfact>
</mgrwt>
</event>
<event>
 4    1  0.1701380E-008  0.5362407E+03  0.7818608E-02  0.1004730E+00
          2   -1    0    0  501    0  0.00000000000E+00  0.00000000000E+00  0.19943806840E+04  0.19943806840E+04  0.25500000000E-02 0. -1.
         -2   -1    0    0    0  501 -0.00000000000E+00 -0.00000000000E+00 -0.49537232388E+03  0.49537232389E+03  0.25500000000E-02 0.  1.
    8880022    1    1    2    0    0  0.19240648094E+03 -0.47659430521E+03 -0.29866550732E+03  0.61380381552E+03  0.15294330000E+03 0.  0.
    8880022    1    1    2    0    0 -0.19240648094E+03  0.47659430521E+03  0.17976738674E+04  0.18759491924E+04  0.15294330000E+03 0.  0.
<mgrwt>
<rscale>  0 0.53624065E+03</rscale>
<asrwt>0</asrwt>
<pdfrwt beam="1">  1        2 0.30682780E+00 0.53624065E+03</pdfrwt>
<pdfrwt beam="2">  1       -2 0.76211126E-01 0.53624065E+03</pdfrwt>
<totfact> 0.11151316E+01</totfact>
</mgrwt>
</event>
<event>
 4    1  0.1701380E-008  0.6047998E+03  0.7818608E-02  0.9895498E-01
         -2   -1    0    0    0  501 -0.00000000000E+00  0.00000000000E+00  0.96989494859E+03  0.96989494859E+03  0.25500000000E-02 0.  1.
          2   -1    0    0  501    0  0.00000000000E+00 -0.00000000000E+00 -0.58578471465E+03  0.58578471466E+03  0.25500000000E-02 0. -1.
    8880022    1    1    2    0    0 -0.21568887738E+03 -0.54393882071E+03  0.65628008872E+03  0.89246083408E+03  0.15294330000E+03 0.  0.
    8880022    1    1    2    0    0  0.21568887738E+03  0.54393882071E+03 -0.27216985478E+03  0.66321882917E+03  0.15294330000E+03 0.  0.
<mgrwt>
<rscale>  0 0.60479979E+03</rscale>
<asrwt>0</asrwt>
<pdfrwt beam="1">  1        2 0.90120725E-01 0.60479979E+03</pdfrwt>
<pdfrwt beam="2">  1       -2 0.14921461E+00 0.60479979E+03</pdfrwt>
<totfact> 0.15976633E+01</totfact>
</mgrwt>
</event>
<event>
 4    1  0.1701380E-008  0.9142011E+03  0.7818608E-02  0.9408001E-01
         -2   -1    0    0    0  501 -0.00000000000E+00  0.00000000000E+00  0.79210996364E+03  0.79210996364E+03  0.25500000000E-02 0.  1.
          2   -1    0    0  501    0  0.00000000000E+00 -0.00000000000E+00 -0.26232296386E+04  0.26232296386E+04  0.25500000000E-02 0. -1.
    8880022    1    1    2    0    0  0.88783719052E+03 -0.15529709607E+03  0.40474811626E+03  0.99979235622E+03  0.15294330000E+03 0.  0.
    8880022    1    1    2    0    0 -0.88783719052E+03  0.15529709607E+03 -0.22358677912E+04  0.24155472460E+04  0.15294330000E+03 0.  0.
<mgrwt>
<rscale>  0 0.91420114E+03</rscale>
<asrwt>0</asrwt>
<pdfrwt beam="1">  1        2 0.40357378E+00 0.91420114E+03</pdfrwt>
<pdfrwt beam="2">  1       -2 0.12186307E+00 0.91420114E+03</pdfrwt>
<totfact> 0.15420387E+00</totfact>
</mgrwt>
</event>
<event>
 4    1  0.1701380E-008  0.1308011E+04  0.7818608E-02  0.9023236E-01
          2   -1    0    0  501    0  0.00000000000E+00  0.00000000000E+00  0.13935647274E+04  0.13935647274E+04  0.25500000000E-02 0. -1.
         -2   -1    0    0    0  501 -0.00000000000E+00 -0.00000000000E+00 -0.15182864815E+04  0.15182864815E+04  0.25500000000E-02 0.  1.
    8880022    1    1    2    0    0  0.22681929038E+02  0.12988409238E+04  0.57456995799E+03  0.14286442891E+04  0.15294330000E+03 0.  0.
    8880022    1    1    2    0    0 -0.22681929038E+02 -0.12988409238E+04 -0.69929171211E+03  0.14832069197E+04  0.15294330000E+03 0.  0.
<mgrwt>
<rscale>  0 0.13080114E+04</rscale>
<asrwt>0</asrwt>
<pdfrwt beam="1">  1        2 0.21439457E+00 0.13080114E+04</pdfrwt>
<pdfrwt beam="2">  1       -2 0.23358253E+00 0.13080114E+04</pdfrwt>
<totfact> 0.11371958E+00</totfact>
</mgrwt>
</event>
<event>
 4    1  0.1701380E-008  0.7248376E+03  0.7818608E-02  0.9675675E-01
          2   -1    0    0  501    0  0.00000000000E+00  0.00000000000E+00  0.17291821505E+04  0.17291821505E+04  0.25500000000E-02 0. -1.
         -2   -1    0    0    0  501 -0.00000000000E+00 -0.00000000000E+00 -0.87184473719E+03  0.87184473720E+03  0.25500000000E-02 0.  1.
    8880022    1    1    2    0    0 -0.77777505353E+02  0.70423613162E+03  0.14783861050E+04  0.16465160181E+04  0.15294330000E+03 0.  0.
    8880022    1    1    2    0    0  0.77777505353E+02 -0.70423613162E+03 -0.62104869179E+03  0.95451086950E+03  0.15294330000E+03 0.  0.
<mgrwt>
<rscale>  0 0.72483758E+03</rscale>
<asrwt>0</asrwt>
<pdfrwt beam="1">  1        2 0.26602802E+00 0.72483758E+03</pdfrwt>
<pdfrwt beam="2">  1       -2 0.13412996E+00 0.72483758E+03</pdfrwt>
<totfact> 0.39207307E+00</totfact>
</mgrwt>
</event>
<event>
 4    1  0.1701380E-008  0.1176105E+04  0.7818608E-02  0.9134033E-01
          2   -1    0    0  501    0  0.00000000000E+00  0.00000000000E+00  0.26356487640E+04  0.26356487640E+04  0.25500000000E-02 0. -1.
         -2   -1    0    0    0  501 -0.00000000000E+00 -0.00000000000E+00 -0.70494734167E+03  0.70494734167E+03  0.25500000000E-02 0.  1.
    8880022    1    1    2    0    0  0.33276839002E+03 -0.11176298478E+04  0.18096837913E+04  0.21582813430E+04  0.15294330000E+03 0.  0.
    8880022    1    1    2    0    0 -0.33276839002E+03  0.11176298478E+04  0.12101763103E+03  0.11823147627E+04  0.15294330000E+03 0.  0.
<mgrwt>
<rscale>  0 0.11761050E+04</rscale>
<asrwt>0</asrwt>
<pdfrwt beam="1">  1        2 0.40548442E+00 0.11761050E+04</pdfrwt>
<pdfrwt beam="2">  1       -2 0.10845344E+00 0.11761050E+04</pdfrwt>
<totfact> 0.19455351E+00</totfact>
</mgrwt>
</event>
<event>
 4    1  0.1701380E-008  0.1743330E+04  0.7818608E-02  0.8737030E-01
          2   -1    0    0  501    0  0.00000000000E+00  0.00000000000E+00  0.32456188834E+04  0.32456188834E+04  0.25500000000E-02 0. -1.
         -2   -1    0    0    0  501 -0.00000000000E+00 -0.00000000000E+00 -0.17985472354E+04  0.17985472354E+04  0.25500000000E-02 0.  1.
    8880022    1    1    2    0    0 -0.15721830516E+04  0.73759615667E+03 -0.10226443124E+04  0.20211384616E+04  0.15294330000E+03 0.  0.
    8880022    1    1    2    0    0  0.15721830516E+04 -0.73759615667E+03  0.24697159604E+04  0.30230276572E+04  0.15294330000E+03 0.  0.
<mgrwt>
<rscale>  0 0.17433299E+04</rscale>
<asrwt>0</asrwt>
<pdfrwt beam="1">  1        2 0.49932598E+00 0.17433299E+04</pdfrwt>
<pdfrwt beam="2">  1       -2 0.27669958E+00 0.17433299E+04</pdfrwt>
<totfact> 0.48723992E-02</totfact>
</mgrwt>
</event>
<event>
 4    1  0.1701380E-008  0.1090045E+04  0.7818608E-02  0.9214949E-01
         -2   -1    0    0    0  501 -0.00000000000E+00  0.00000000000E+00  0.10634420828E+04  0.10634420828E+04  0.25500000000E-02 0.  1.
          2   -1    0    0  501    0  0.00000000000E+00 -0.00000000000E+00 -0.13045836533E+04  0.13045836533E+04  0.25500000000E-02 0. -1.
    8880022    1    1    2    0    0 -0.23629030587E+03  0.10530782658E+04 -0.56916565559E+03  0.12296943275E+04  0.15294330000E+03 0.  0.
    8880022    1    1    2    0    0  0.23629030587E+03 -0.10530782658E+04  0.32802408502E+03  0.11383314086E+04  0.15294330000E+03 0.  0.
<mgrwt>
<rscale>  0 0.10900452E+04</rscale>
<asrwt>0</asrwt>
<pdfrwt beam="1">  1        2 0.20070518E+00 0.10900452E+04</pdfrwt>
<pdfrwt beam="2">  1       -2 0.16360647E+00 0.10900452E+04</pdfrwt>
<totfact> 0.38237173E+00</totfact>
</mgrwt>
</event>
<event>
 4    1  0.1701380E-008  0.9082912E+03  0.7818608E-02  0.9415276E-01
         -2   -1    0    0    0  501 -0.00000000000E+00  0.00000000000E+00  0.73298370784E+03  0.73298370784E+03  0.25500000000E-02 0.  1.
          2   -1    0    0  501    0  0.00000000000E+00 -0.00000000000E+00 -0.52110514494E+04  0.52110514494E+04  0.25500000000E-02 0. -1.
    8880022    1    1    2    0    0 -0.75906011838E+03  0.47479354628E+03  0.39252208696E+03  0.98947785052E+03  0.15294330000E+03 0.  0.
    8880022    1    1    2    0    0  0.75906011838E+03 -0.47479354628E+03 -0.48705898285E+04  0.49545573067E+04  0.15294330000E+03 0.  0.
<mgrwt>
<rscale>  0 0.90829116E+03</rscale>
<asrwt>0</asrwt>
<pdfrwt beam="1">  1        2 0.80170020E+00 0.90829116E+03</pdfrwt>
<pdfrwt beam="2">  1       -2 0.11276673E+00 0.90829116E+03</pdfrwt>
<totfact> 0.12589613E-02</totfact>
</mgrwt>
</event>
<event>
 4    1  0.1701380E-008  0.8469063E+03  0.7818608E-02  0.9494499E-01
         -2   -1    0    0    0  501 -0.00000000000E+00  0.00000000000E+00  0.30523185376E+03  0.30523185377E+03  0.25500000000E-02 0.  1.
          2   -1    0    0  501    0  0.00000000000E+00 -0.00000000000E+00 -0.34352039645E+04  0.34352039645E+04  0.25500000000E-02 0. -1.
    8880022    1    1    2    0    0 -0.16852681316E+03  0.81575565446E+03 -0.26162236602E+04  0.27498866282E+04  0.15294330000E+03 0.  0.
    8880022    1    1    2    0    0  0.16852681316E+03 -0.81575565446E+03 -0.51374845048E+03  0.99054919006E+03  0.15294330000E+03 0.  0.
<mgrwt>
<rscale>  0 0.84690627E+03</rscale>
<asrwt>0</asrwt>
<pdfrwt beam="1">  1        2 0.52849289E+00 0.84690627E+03</pdfrwt>
<pdfrwt beam="2">  1       -2 0.46958749E-01 0.84690627E+03</pdfrwt>
<totfact> 0.41168435E+00</totfact>
</mgrwt>
</event>
<event>
 4    1  0.1701380E-008  0.1645330E+04  0.7818608E-02  0.8793174E-01
         -2   -1    0    0    0  501 -0.00000000000E+00  0.00000000000E+00  0.17412590165E+04  0.17412590165E+04  0.25500000000E-02 0.  1.
          2   -1    0    0  501    0  0.00000000000E+00 -0.00000000000E+00 -0.16838212023E+04  0.16838212023E+04  0.25500000000E-02 0. -1.
    8880022    1    1    2    0    0 -0.15466148472E+04  0.54009525498E+03 -0.44553849212E+03  0.17045869210E+04  0.15294330000E+03 0.  0.
    8880022    1    1    2    0    0  0.15466148472E+04 -0.54009525498E+03  0.50297630629E+03  0.17204932978E+04  0.15294330000E+03 0.  0.
<mgrwt>
<rscale>  0 0.16453304E+04</rscale>
<asrwt>0</asrwt>
<pdfrwt beam="1">  1        2 0.25904942E+00 0.16453304E+04</pdfrwt>
<pdfrwt beam="2">  1       -2 0.26788600E+00 0.16453304E+04</pdfrwt>
<totfact> 0.46262903E-01</totfact>
</mgrwt>
</event>
<event>
 4    1  0.1701380E-008  0.1343829E+04  0.7818608E-02  0.8995513E-01
          2   -1    0    0  501    0  0.00000000000E+00  0.00000000000E+00  0.23089196584E+04  0.23089196584E+04  0.25500000000E-02 0. -1.
         -2   -1    0    0    0  501 -0.00000000000E+00 -0.00000000000E+00 -0.21397915224E+04  0.21397915224E+04  0.25500000000E-02 0.  1.
    8880022    1    1    2    0    0 -0.10668123935E+04  0.80274291112E+03  0.18563618647E+04  0.22917146179E+04  0.15294330000E+03 0.  0.
    8880022    1    1    2    0    0  0.10668123935E+04 -0.80274291112E+03 -0.16872337286E+04  0.21569965629E+04  0.15294330000E+03 0.  0.
<mgrwt>
<rscale>  0 0.13438291E+04</rscale>
<asrwt>0</asrwt>
<pdfrwt beam="1">  1        2 0.35521841E+00 0.13438291E+04</pdfrwt>
<pdfrwt beam="2">  1       -2 0.32919870E+00 0.13438291E+04</pdfrwt>
<totfact> 0.90301300E-02</totfact>
</mgrwt>
</event>
<event>
 4    1  0.1701380E-008  0.1865367E+03  0.7818608E-02  0.1161623E+00
          2   -1    0    0  501    0  0.00000000000E+00  0.00000000000E+00  0.19016201212E+04  0.19016201212E+04  0.25500000000E-02 0. -1.
         -2   -1    0    0    0  501 -0.00000000000E+00 -0.00000000000E+00 -0.54701492496E+02  0.54701492555E+02  0.25500000000E-02 0.  1.
    8880022    1    1    2    0    0  0.12089962758E+02 -0.10610422195E+03  0.12549780969E+03  0.22482354495E+03  0.15294330000E+03 0.  0.
    8880022    1    1    2    0    0 -0.12089962758E+02  0.10610422195E+03  0.17214208190E+04  0.17314980688E+04  0.15294330000E+03 0. -1.
<mgrwt>
<rscale>  0 0.18653666E+03</rscale>
<asrwt>0</asrwt>
<pdfrwt beam="1">  1        2 0.29255689E+00 0.18653666E+03</pdfrwt>
<pdfrwt beam="2">  1       -2 0.84156157E-02 0.18653666E+03</pdfrwt>
<totfact> 0.74140592E+02</totfact>
</mgrwt>
</event>
<event>
 4    1  0.1701380E-008  0.1172166E+04  0.7818608E-02  0.9137575E-01
         -2   -1    0    0    0  501 -0.00000000000E+00  0.00000000000E+00  0.12382276830E+04  0.12382276830E+04  0.25500000000E-02 0.  1.
          2   -1    0    0  501    0  0.00000000000E+00 -0.00000000000E+00 -0.17087913076E+04  0.17087913076E+04  0.25500000000E-02 0. -1.
    8880022    1    1    2    0    0 -0.10236266535E+03  0.11576282497E+04  0.63724903318E+03  0.13341886160E+04  0.15294330000E+03 0.  0.
    8880022    1    1    2    0    0  0.10236266535E+03 -0.11576282497E+04 -0.11078126578E+04  0.16128303747E+04  0.15294330000E+03 0.  0.
<mgrwt>
<rscale>  0 0.11721659E+04</rscale>
<asrwt>0</asrwt>
<pdfrwt beam="1">  1        2 0.26289097E+00 0.11721659E+04</pdfrwt>
<pdfrwt beam="2">  1       -2 0.19049657E+00 0.11721659E+04</pdfrwt>
<totfact> 0.14519022E+00</totfact>
</mgrwt>
</event>
<event>
 4    1  0.1701380E-008  0.1110639E+04  0.7818608E-02  0.9194884E-01
         -2   -1    0    0    0  501 -0.00000000000E+00  0.00000000000E+00  0.81650010469E+03  0.81650010469E+03  0.25500000000E-02 0.  1.
          2   -1    0    0  501    0  0.00000000000E+00 -0.00000000000E+00 -0.25631965002E+04  0.25631965002E+04  0.25500000000E-02 0. -1.
    8880022    1    1    2    0    0 -0.10997161477E+04  0.27408773786E+02  0.20947877667E+03  0.11302211541E+04  0.15294330000E+03 0.  0.
    8880022    1    1    2    0    0  0.10997161477E+04 -0.27408773786E+02 -0.19561751722E+04  0.22494754508E+04  0.15294330000E+03 0.  0.
<mgrwt>
<rscale>  0 0.11106388E+04</rscale>
<asrwt>0</asrwt>
<pdfrwt beam="1">  1        2 0.39433792E+00 0.11106388E+04</pdfrwt>
<pdfrwt beam="2">  1       -2 0.12561540E+00 0.11106388E+04</pdfrwt>
<totfact> 0.15029713E+00</totfact>
</mgrwt>
</event>
<event>
 4    1  0.1701380E-008  0.1727883E+04  0.7818608E-02  0.8745620E-01
         -2   -1    0    0    0  501 -0.00000000000E+00  0.00000000000E+00  0.15974110037E+04  0.15974110037E+04  0.25500000000E-02 0.  1.
          2   -1    0    0  501    0  0.00000000000E+00 -0.00000000000E+00 -0.19099103426E+04  0.19099103426E+04  0.25500000000E-02 0. -1.
    8880022    1    1    2    0    0 -0.16818850032E+04  0.36530860855E+03  0.10037340903E+03  0.17307957759E+04  0.15294330000E+03 0.  0.
    8880022    1    1    2    0    0  0.16818850032E+04 -0.36530860855E+03 -0.41287274792E+03  0.17765255705E+04  0.15294330000E+03 0.  0.
<mgrwt>
<rscale>  0 0.17278829E+04</rscale>
<asrwt>0</asrwt>
<pdfrwt beam="1">  1        2 0.29383236E+00 0.17278829E+04</pdfrwt>
<pdfrwt beam="2">  1       -2 0.24575554E+00 0.17278829E+04</pdfrwt>
<totfact> 0.46927668E-01</totfact>
</mgrwt>
</event>
<event>
 4    1  0.1701380E-008  0.1029009E+04  0.7818608E-02  0.9277288E-01
          2   -1    0    0  501    0  0.00000000000E+00  0.00000000000E+00  0.19414262203E+04  0.19414262204E+04  0.25500000000E-02 0. -1.
         -2   -1    0    0    0  501 -0.00000000000E+00 -0.00000000000E+00 -0.11236665622E+04  0.11236665622E+04  0.25500000000E-02 0.  1.
    8880022    1    1    2    0    0  0.35679608633E+03 -0.95297641359E+03  0.15082853640E+04  0.18258652427E+04  0.15294330000E+03 0.  0.
    8880022    1    1    2    0    0 -0.35679608633E+03  0.95297641359E+03 -0.69052570591E+03  0.12392275399E+04  0.15294330000E+03 0.  0.
<mgrwt>
<rscale>  0 0.10290088E+04</rscale>
<asrwt>0</asrwt>
<pdfrwt beam="1">  1        2 0.29868096E+00 0.10290088E+04</pdfrwt>
<pdfrwt beam="2">  1       -2 0.17287178E+00 0.10290088E+04</pdfrwt>
<totfact> 0.14541550E+00</totfact>
</mgrwt>
</event>
<event>
 4    1  0.1701380E-008  0.6238601E+03  0.7818608E-02  0.9857104E-01
          2   -1    0    0  501    0  0.00000000000E+00  0.00000000000E+00  0.35428812556E+04  0.35428812556E+04  0.25500000000E-02 0. -1.
         -2   -1    0    0    0  501 -0.00000000000E+00 -0.00000000000E+00 -0.45293281236E+03  0.45293281237E+03  0.25500000000E-02 0.  1.
    8880022    1    1    2    0    0  0.33329505322E+03  0.50470209408E+03 -0.19384733812E+03  0.65328266454E+03  0.15294330000E+03 0.  0.
    8880022    1    1    2    0    0 -0.33329505322E+03 -0.50470209408E+03  0.32837957814E+04  0.33425314034E+04  0.15294330000E+03 0.  0.
<mgrwt>
<rscale>  0 0.62386012E+03</rscale>
<asrwt>0</asrwt>
<pdfrwt beam="1">  1        2 0.54505862E+00 0.62386012E+03</pdfrwt>
<pdfrwt beam="2">  1       -2 0.69681976E-01 0.62386012E+03</pdfrwt>
<totfact> 0.16021637E+00</totfact>
</mgrwt>
</event>
<event>
 4    1  0.1701380E-008  0.2268621E+03  0.7818608E-02  0.1128868E+00
          2   -1    0    0  501    0  0.00000000000E+00  0.00000000000E+00  0.11697102408E+04  0.11697102408E+04  0.25500000000E-02 0. -1.
         -2   -1    0    0    0  501 -0.00000000000E+00 -0.00000000000E+00 -0.44570838177E+02  0.44570838250E+02  0.25500000000E-02 0.  1.
    8880022    1    1    2    0    0  0.16733821613E+03  0.85254628276E+01  0.63132273896E+03  0.67084634294E+03  0.15294330000E+03 0. -1.
    8880022    1    1    2    0    0 -0.16733821613E+03 -0.85254628276E+01  0.49381666370E+03  0.54343473615E+03  0.15294330000E+03 0.  1.
<mgrwt>
<rscale>  0 0.22686211E+03</rscale>
<asrwt>0</asrwt>
<pdfrwt beam="1">  1        2 0.17995543E+00 0.22686211E+03</pdfrwt>
<pdfrwt beam="2">  1       -2 0.68570519E-02 0.22686211E+03</pdfrwt>
<totfact> 0.24980336E+03</totfact>
</mgrwt>
</event>
<event>
 4    1  0.1701380E-008  0.9991971E+03  0.7818608E-02  0.9309426E-01
          2   -1    0    0  501    0  0.00000000000E+00  0.00000000000E+00  0.29870379778E+04  0.29870379778E+04  0.25500000000E-02 0. -1.
         -2   -1    0    0    0  501 -0.00000000000E+00 -0.00000000000E+00 -0.16628944690E+04  0.16628944690E+04  0.25500000000E-02 0.  1.
    8880022    1    1    2    0    0  0.75265054214E+02  0.98454987263E+03  0.27402841324E+04  0.29167708274E+04  0.15294330000E+03 0.  0.
    8880022    1    1    2    0    0 -0.75265054214E+02 -0.98454987263E+03 -0.14161406237E+04  0.17331616194E+04  0.15294330000E+03 0.  0.
<mgrwt>
<rscale>  0 0.99919714E+03</rscale>
<asrwt>0</asrwt>
<pdfrwt beam="1">  1        2 0.45954430E+00 0.99919714E+03</pdfrwt>
<pdfrwt beam="2">  1       -2 0.25582992E+00 0.99919714E+03</pdfrwt>
<totfact> 0.10739050E-01</totfact>
</mgrwt>
</event>
<event>
 4    1  0.1701380E-008  0.9647354E+03  0.7818608E-02  0.9348091E-01
          2   -1    0    0  501    0  0.00000000000E+00  0.00000000000E+00  0.15445323865E+04  0.15445323865E+04  0.25500000000E-02 0. -1.
         -2   -1    0    0    0  501 -0.00000000000E+00 -0.00000000000E+00 -0.66154481536E+03  0.66154481537E+03  0.25500000000E-02 0.  1.
    8880022    1    1    2    0    0 -0.78315398612E+03 -0.54221088791E+03  0.11220012664E+03  0.97123804208E+03  0.15294330000E+03 0.  0.
    8880022    1    1    2    0    0  0.78315398612E+03  0.54221088791E+03  0.77078744452E+03  0.12348391598E+04  0.15294330000E+03 0.  0.
<mgrwt>
<rscale>  0 0.96473544E+03</rscale>
<asrwt>0</asrwt>
<pdfrwt beam="1">  1        2 0.23762037E+00 0.96473544E+03</pdfrwt>
<pdfrwt beam="2">  1       -2 0.10177613E+00 0.96473544E+03</pdfrwt>
<totfact> 0.94833391E+00</totfact>
</mgrwt>
</event>
<event>
 4    1  0.1701380E-008  0.5922541E+03  0.7818608E-02  0.9921608E-01
         -2   -1    0    0    0  501 -0.00000000000E+00  0.00000000000E+00  0.14863016743E+04  0.14863016743E+04  0.25500000000E-02 0.  1.
          2   -1    0    0  501    0  0.00000000000E+00 -0.00000000000E+00 -0.86585866140E+03  0.86585866140E+03  0.25500000000E-02 0. -1.
    8880022    1    1    2    0    0 -0.47061602073E+03  0.32541332809E+03 -0.69285833580E+03  0.91149196352E+03  0.15294330000E+03 0.  0.
    8880022    1    1    2    0    0  0.47061602073E+03 -0.32541332809E+03  0.13133013487E+04  0.14406683722E+04  0.15294330000E+03 0.  0.
<mgrwt>
<rscale>  0 0.59225411E+03</rscale>
<asrwt>0</asrwt>
<pdfrwt beam="1">  1        2 0.13320903E+00 0.59225411E+03</pdfrwt>
<pdfrwt beam="2">  1       -2 0.22866179E+00 0.59225411E+03</pdfrwt>
<totfact> 0.28481268E+00</totfact>
</mgrwt>
</event>
<event>
 4    1  0.1701380E-008  0.7826798E+03  0.7818608E-02  0.9585431E-01
         -2   -1    0    0    0  501 -0.00000000000E+00  0.00000000000E+00  0.58195082798E+03  0.58195082798E+03  0.25500000000E-02 0.  1.
          2   -1    0    0  501    0  0.00000000000E+00 -0.00000000000E+00 -0.20918422669E+04  0.20918422669E+04  0.25500000000E-02 0. -1.
    8880022    1    1    2    0    0  0.54723185741E+03  0.53826874754E+03 -0.16972308589E+04  0.18690051342E+04  0.15294330000E+03 0.  0.
    8880022    1    1    2    0    0 -0.54723185741E+03 -0.53826874754E+03  0.18733941997E+03  0.80478796067E+03  0.15294330000E+03 0.  0.
<mgrwt>
<rscale>  0 0.78267976E+03</rscale>
<asrwt>0</asrwt>
<pdfrwt beam="1">  1        2 0.32182188E+00 0.78267976E+03</pdfrwt>
<pdfrwt beam="2">  1       -2 0.89530898E-01 0.78267976E+03</pdfrwt>
<totfact> 0.65595762E+00</totfact>
</mgrwt>
</event>
<event>
 4    1  0.1701380E-008  0.1264135E+04  0.7818608E-02  0.9058500E-01
          2   -1    0    0  501    0  0.00000000000E+00  0.00000000000E+00  0.40813199105E+04  0.40813199105E+04  0.25500000000E-02 0. -1.
         -2   -1    0    0    0  501 -0.00000000000E+00 -0.00000000000E+00 -0.79232461067E+03  0.79232461067E+03  0.25500000000E-02 0.  1.
    8880022    1    1    2    0    0 -0.66057648483E+03  0.10669043464E+04 -0.88598975368E+02  0.12672362085E+04  0.15294330000E+03 0.  0.
    8880022    1    1    2    0    0  0.66057648483E+03 -0.10669043464E+04  0.33775942752E+04  0.36064083126E+04  0.15294330000E+03 0.  0.
<mgrwt>
<rscale>  0 0.12641352E+04</rscale>
<asrwt>0</asrwt>
<pdfrwt beam="1">  1        2 0.62789536E+00 0.12641352E+04</pdfrwt>
<pdfrwt beam="2">  1       -2 0.12189610E+00 0.12641352E+04</pdfrwt>
<totfact> 0.15009650E-01</totfact>
</mgrwt>
</event>
<event>
 4    1  0.1701380E-008  0.1658783E+04  0.7818608E-02  0.8785227E-01
         -2   -1    0    0    0  501 -0.00000000000E+00  0.00000000000E+00  0.16010392393E+04  0.16010392393E+04  0.25500000000E-02 0.  1.
          2   -1    0    0  501    0  0.00000000000E+00 -0.00000000000E+00 -0.17584077732E+04  0.17584077732E+04  0.25500000000E-02 0. -1.
    8880022    1    1    2    0    0 -0.16219478381E+04 -0.31217854118E+03 -0.33138583905E+03  0.16915609532E+04  0.15294330000E+03 0.  0.
    8880022    1    1    2    0    0  0.16219478381E+04  0.31217854118E+03  0.17401730523E+03  0.16678860593E+04  0.15294330000E+03 0.  0.
<mgrwt>
<rscale>  0 0.16587833E+04</rscale>
<asrwt>0</asrwt>
<pdfrwt beam="1">  1        2 0.27052427E+00 0.16587833E+04</pdfrwt>
<pdfrwt beam="2">  1       -2 0.24631373E+00 0.16587833E+04</pdfrwt>
<totfact> 0.56948754E-01</totfact>
</mgrwt>
</event>
<event>
 4    1  0.1701380E-008  0.9104447E+03  0.7818608E-02  0.9412618E-01
          2   -1    0    0  501    0  0.00000000000E+00  0.00000000000E+00  0.21020401430E+04  0.21020401430E+04  0.25500000000E-02 0. -1.
         -2   -1    0    0    0  501 -0.00000000000E+00 -0.00000000000E+00 -0.90490723809E+03  0.90490723809E+03  0.25500000000E-02 0.  1.
    8880022    1    1    2    0    0  0.40519686762E+03  0.80083290270E+03 -0.53076675377E+03  0.10538609204E+04  0.15294330000E+03 0.  0.
    8880022    1    1    2    0    0 -0.40519686762E+03 -0.80083290270E+03  0.17278996587E+04  0.19530864607E+04  0.15294330000E+03 0.  0.
<mgrwt>
<rscale>  0 0.91044467E+03</rscale>
<asrwt>0</asrwt>
<pdfrwt beam="1">  1        2 0.32339079E+00 0.91044467E+03</pdfrwt>
<pdfrwt beam="2">  1       -2 0.13921650E+00 0.91044467E+03</pdfrwt>
<totfact> 0.21622934E+00</totfact>
</mgrwt>
</event>
<event>
 4    1  0.1701380E-008  0.6631876E+03  0.7818608E-02  0.9782343E-01
          2   -1    0    0  501    0  0.00000000000E+00  0.00000000000E+00  0.29798919494E+04  0.29798919494E+04  0.25500000000E-02 0. -1.
         -2   -1    0    0    0  501 -0.00000000000E+00 -0.00000000000E+00 -0.41064407447E+03  0.41064407448E+03  0.25500000000E-02 0.  1.
    8880022    1    1    2    0    0 -0.46096561670E+03  0.45159371450E+03 -0.72200905855E+02  0.66710629332E+03  0.15294330000E+03 0.  0.
    8880022    1    1    2    0    0  0.46096561670E+03 -0.45159371450E+03  0.26414487807E+04  0.27234297305E+04  0.15294330000E+03 0.  0.
<mgrwt>
<rscale>  0 0.66318763E+03</rscale>
<asrwt>0</asrwt>
<pdfrwt beam="1">  1        2 0.45844490E+00 0.66318763E+03</pdfrwt>
<pdfrwt beam="2">  1       -2 0.63176013E-01 0.66318763E+03</pdfrwt>
<totfact> 0.45135326E+00</totfact>
</mgrwt>
</event>
<event>
 4    1  0.1701380E-008  0.2836244E+03  0.7818608E-02  0.1093726E+00
         -2   -1    0    0    0  501 -0.00000000000E+00  0.00000000000E+00  0.12330202239E+03  0.12330202241E+03  0.25500000000E-02 0.  1.
          2   -1    0    0  501    0  0.00000000000E+00 -0.00000000000E+00 -0.89270158055E+03  0.89270158056E+03  0.25500000000E-02 0. -1.
    8880022    1    1    2    0    0 -0.19461291354E+02  0.23805967097E+03 -0.12113565622E+03  0.30840987181E+03  0.15294330000E+03 0.  0.
    8880022    1    1    2    0    0  0.19461291354E+02 -0.23805967097E+03 -0.64826390194E+03  0.70759373116E+03  0.15294330000E+03 0.  0.
<mgrwt>
<rscale>  0 0.28362440E+03</rscale>
<asrwt>0</asrwt>
<pdfrwt beam="1">  1        2 0.13733870E+00 0.28362440E+03</pdfrwt>
<pdfrwt beam="2">  1       -2 0.18969543E-01 0.28362440E+03</pdfrwt>
<totfact> 0.70922984E+02</totfact>
</mgrwt>
</event>
<event>
 4    1  0.1701380E-008  0.1005153E+04  0.7818608E-02  0.9302911E-01
          2   -1    0    0  501    0  0.00000000000E+00  0.00000000000E+00  0.35784497323E+04  0.35784497323E+04  0.25500000000E-02 0. -1.
         -2   -1    0    0    0  501 -0.00000000000E+00 -0.00000000000E+00 -0.74064284622E+03  0.74064284622E+03  0.25500000000E-02 0.  1.
    8880022    1    1    2    0    0  0.57911621738E+03  0.80719614442E+03  0.31176760803E+04  0.32757040470E+04  0.15294330000E+03 0.  0.
    8880022    1    1    2    0    0 -0.57911621738E+03 -0.80719614442E+03 -0.27986919424E+03  0.10433885315E+04  0.15294330000E+03 0.  0.
<mgrwt>
<rscale>  0 0.10051532E+04</rscale>
<asrwt>0</asrwt>
<pdfrwt beam="1">  1        2 0.55053074E+00 0.10051532E+04</pdfrwt>
<pdfrwt beam="2">  1       -2 0.11394505E+00 0.10051532E+04</pdfrwt>
<totfact> 0.44607507E-01</totfact>
</mgrwt>
</event>
<event>
 4    1  0.1701380E-008  0.8413815E+03  0.7818608E-02  0.9501978E-01
         -2   -1    0    0    0  501 -0.00000000000E+00  0.00000000000E+00  0.27643294041E+03  0.27643294043E+03  0.25500000000E-02 0.  1.
          2   -1    0    0  501    0  0.00000000000E+00 -0.00000000000E+00 -0.28379621155E+04  0.28379621155E+04  0.25500000000E-02 0. -1.
    8880022    1    1    2    0    0  0.50019026615E+02  0.82585063835E+03 -0.17672981177E+04  0.19573618648E+04  0.15294330000E+03 0.  0.
    8880022    1    1    2    0    0 -0.50019026615E+02 -0.82585063835E+03 -0.79423105740E+03  0.11570331912E+04  0.15294330000E+03 0.  0.
<mgrwt>
<rscale>  0 0.84138150E+03</rscale>
<asrwt>0</asrwt>
<pdfrwt beam="1">  1        2 0.43660953E+00 0.84138150E+03</pdfrwt>
<pdfrwt beam="2">  1       -2 0.42528147E-01 0.84138150E+03</pdfrwt>
<totfact> 0.11974462E+01</totfact>
</mgrwt>
</event>
<event>
 4    1  0.1701380E-008  0.8538889E+03  0.7818608E-02  0.9485132E-01
         -2   -1    0    0    0  501 -0.00000000000E+00  0.00000000000E+00  0.52135836033E+03  0.52135836033E+03  0.25500000000E-02 0.  1.
          2   -1    0    0  501    0  0.00000000000E+00 -0.00000000000E+00 -0.20787762439E+04  0.20787762439E+04  0.25500000000E-02 0. -1.
    8880022    1    1    2    0    0 -0.10810391761E+03  0.83309547732E+03 -0.35004072149E+02  0.85460603170E+03  0.15294330000E+03 0.  1.
    8880022    1    1    2    0    0  0.10810391761E+03 -0.83309547732E+03 -0.15224138114E+04  0.17455285726E+04  0.15294330000E+03 0.  0.
<mgrwt>
<rscale>  0 0.85388886E+03</rscale>
<asrwt>0</asrwt>
<pdfrwt beam="1">  1        2 0.31981173E+00 0.85388886E+03</pdfrwt>
<pdfrwt beam="2">  1       -2 0.80208980E-01 0.85388886E+03</pdfrwt>
<totfact> 0.84792832E+00</totfact>
</mgrwt>
</event>
<event>
 4    1  0.1701380E-008  0.9125232E+03  0.7818608E-02  0.9410061E-01
          2   -1    0    0  501    0  0.00000000000E+00  0.00000000000E+00  0.21529050009E+04  0.21529050009E+04  0.25500000000E-02 0. -1.
         -2   -1    0    0    0  501 -0.00000000000E+00 -0.00000000000E+00 -0.10880203480E+04  0.10880203480E+04  0.25500000000E-02 0.  1.
    8880022    1    1    2    0    0 -0.40257360073E+03 -0.80451312576E+03  0.18333733461E+04  0.20479151234E+04  0.15294330000E+03 0.  0.
    8880022    1    1    2    0    0  0.40257360073E+03  0.80451312576E+03 -0.76848869322E+03  0.11930102255E+04  0.15294330000E+03 0.  0.
<mgrwt>
<rscale>  0 0.91252316E+03</rscale>
<asrwt>0</asrwt>
<pdfrwt beam="1">  1        2 0.33121616E+00 0.91252316E+03</pdfrwt>
<pdfrwt beam="2">  1       -2 0.16738775E+00 0.91252316E+03</pdfrwt>
<totfact> 0.12375672E+00</totfact>
</mgrwt>
</event>
<event>
 4    1  0.1701380E-008  0.1058422E+04  0.7818608E-02  0.9246692E-01
          2   -1    0    0  501    0  0.00000000000E+00  0.00000000000E+00  0.24207180818E+04  0.24207180818E+04  0.25500000000E-02 0. -1.
         -2   -1    0    0    0  501 -0.00000000000E+00 -0.00000000000E+00 -0.63685090316E+03  0.63685090317E+03  0.25500000000E-02 0.  1.
    8880022    1    1    2    0    0  0.77309312498E+03  0.70653592412E+03  0.16912001523E+04  0.19950978923E+04  0.15294330000E+03 0.  0.
    8880022    1    1    2    0    0 -0.77309312498E+03 -0.70653592412E+03  0.92667026401E+02  0.10624710927E+04  0.15294330000E+03 0.  0.
<mgrwt>
<rscale>  0 0.10584222E+04</rscale>
<asrwt>0</asrwt>
<pdfrwt beam="1">  1        2 0.37241816E+00 0.10584222E+04</pdfrwt>
<pdfrwt beam="2">  1       -2 0.97977063E-01 0.10584222E+04</pdfrwt>
<totfact> 0.33515058E+00</totfact>
</mgrwt>
</event>
<event>
 4    1  0.1701380E-008  0.1143026E+04  0.7818608E-02  0.9164241E-01
         -2   -1    0    0    0  501 -0.00000000000E+00  0.00000000000E+00  0.13623295131E+04  0.13623295131E+04  0.25500000000E-02 0.  1.
          2   -1    0    0  501    0  0.00000000000E+00 -0.00000000000E+00 -0.15318300477E+04  0.15318300477E+04  0.25500000000E-02 0. -1.
    8880022    1    1    2    0    0 -0.88852715117E+03 -0.70259303480E+03 -0.96964234248E+03  0.14989047322E+04  0.15294330000E+03 0.  0.
    8880022    1    1    2    0    0  0.88852715117E+03  0.70259303480E+03  0.80014180795E+03  0.13952548286E+04  0.15294330000E+03 0.  0.
<mgrwt>
<rscale>  0 0.11430263E+04</rscale>
<asrwt>0</asrwt>
<pdfrwt beam="1">  1        2 0.23566616E+00 0.11430263E+04</pdfrwt>
<pdfrwt beam="2">  1       -2 0.20958916E+00 0.11430263E+04</pdfrwt>
<totfact> 0.13702752E+00</totfact>
</mgrwt>
</event>
<event>
 4    1  0.1701380E-008  0.5220918E+03  0.7818608E-02  0.1008168E+00
          2   -1    0    0  501    0  0.00000000000E+00  0.00000000000E+00  0.65748627055E+03  0.65748627055E+03  0.25500000000E-02 0. -1.
         -2   -1    0    0    0  501 -0.00000000000E+00 -0.00000000000E+00 -0.16191917883E+04  0.16191917883E+04  0.25500000000E-02 0.  1.
    8880022    1    1    2    0    0  0.18982436813E+03 -0.46168699268E+03  0.50099977107E+03  0.72358869088E+03  0.15294330000E+03 0.  0.
    8880022    1    1    2    0    0 -0.18982436813E+03  0.46168699268E+03 -0.14627052888E+04  0.15530893680E+04  0.15294330000E+03 0.  0.
<mgrwt>
<rscale>  0 0.52209178E+03</rscale>
<asrwt>0</asrwt>
<pdfrwt beam="1">  1        2 0.10115173E+00 0.52209178E+03</pdfrwt>
<pdfrwt beam="2">  1       -2 0.24910643E+00 0.52209178E+03</pdfrwt>
<totfact> 0.30935288E+00</totfact>
</mgrwt>
</event>
<event>
 4    1  0.1701380E-008  0.3353602E+03  0.7818608E-02  0.1068789E+00
          2   -1    0    0  501    0  0.00000000000E+00  0.00000000000E+00  0.35499586856E+04  0.35499586856E+04  0.25500000000E-02 0. -1.
         -2   -1    0    0    0  501 -0.00000000000E+00 -0.00000000000E+00 -0.18069414729E+03  0.18069414731E+03  0.25500000000E-02 0.  1.
    8880022    1    1    2    0    0  0.29474155820E+03 -0.46928169616E+02  0.33785604313E+04  0.33951637781E+04  0.15294330000E+03 0.  0.
    8880022    1    1    2    0    0 -0.29474155820E+03  0.46928169616E+02 -0.92958930057E+01  0.33548905478E+03  0.15294330000E+03 0.  0.
<mgrwt>
<rscale>  0 0.33536024E+03</rscale>
<asrwt>0</asrwt>
<pdfrwt beam="1">  1        2 0.54614749E+00 0.33536024E+03</pdfrwt>
<pdfrwt beam="2">  1       -2 0.27799100E-01 0.33536024E+03</pdfrwt>
<totfact> 0.10794466E+01</totfact>
</mgrwt>
</event>
<event>
 4    1  0.1701380E-008  0.5539090E+03  0.7818608E-02  0.1000593E+00
         -2   -1    0    0    0  501 -0.00000000000E+00  0.00000000000E+00  0.27761199289E+03  0.27761199291E+03  0.25500000000E-02 0.  1.
          2   -1    0    0  501    0  0.00000000000E+00 -0.00000000000E+00 -0.19605959931E+04  0.19605959931E+04  0.25500000000E-02 0. -1.
    8880022    1    1    2    0    0  0.23202435680E+03  0.47915368129E+03 -0.10229289820E+03  0.56327528126E+03  0.15294330000E+03 0.  0.
    8880022    1    1    2    0    0 -0.23202435680E+03 -0.47915368129E+03 -0.15806911020E+04  0.16749327047E+04  0.15294330000E+03 0.  0.
<mgrwt>
<rscale>  0 0.55390902E+03</rscale>
<asrwt>0</asrwt>
<pdfrwt beam="1">  1        2 0.30163014E+00 0.55390902E+03</pdfrwt>
<pdfrwt beam="2">  1       -2 0.42709539E-01 0.55390902E+03</pdfrwt>
<totfact> 0.38728938E+01</totfact>
</mgrwt>
</event>
<event>
 4    1  0.1701380E-008  0.1667817E+04  0.7818608E-02  0.8779935E-01
         -2   -1    0    0    0  501 -0.00000000000E+00  0.00000000000E+00  0.14705310430E+04  0.14705310430E+04  0.25500000000E-02 0.  1.
          2   -1    0    0  501    0  0.00000000000E+00 -0.00000000000E+00 -0.25325391784E+04  0.25325391784E+04  0.25500000000E-02 0. -1.
    8880022    1    1    2    0    0  0.13929337309E+04  0.90441074259E+03 -0.15379430233E+04  0.22686744072E+04  0.15294330000E+03 0.  0.
    8880022    1    1    2    0    0 -0.13929337309E+04 -0.90441074259E+03  0.47593488793E+03  0.17343958143E+04  0.15294330000E+03 0.  0.
<mgrwt>
<rscale>  0 0.16678174E+04</rscale>
<asrwt>0</asrwt>
<pdfrwt beam="1">  1        2 0.38962141E+00 0.16678174E+04</pdfrwt>
<pdfrwt beam="2">  1       -2 0.22623554E+00 0.16678174E+04</pdfrwt>
<totfact> 0.27712890E-01</totfact>
</mgrwt>
</event>
<event>
 4    1  0.1701380E-008  0.9955691E+03  0.7818608E-02  0.9313418E-01
         -2   -1    0    0    0  501 -0.00000000000E+00  0.00000000000E+00  0.40844322058E+03  0.40844322059E+03  0.25500000000E-02 0.  1.
          2   -1    0    0  501    0  0.00000000000E+00 -0.00000000000E+00 -0.30912347376E+04  0.30912347376E+04  0.25500000000E-02 0. -1.
    8880022    1    1    2    0    0 -0.98368487962E+03 -0.11413560202E+02 -0.53006119620E+03  0.11278841858E+04  0.15294330000E+03 0.  0.
    8880022    1    1    2    0    0  0.98368487962E+03  0.11413560202E+02 -0.21527303208E+04  0.23717937724E+04  0.15294330000E+03 0.  0.
<mgrwt>
<rscale>  0 0.99556912E+03</rscale>
<asrwt>0</asrwt>
<pdfrwt beam="1">  1        2 0.47557456E+00 0.99556912E+03</pdfrwt>
<pdfrwt beam="2">  1       -2 0.62837421E-01 0.99556912E+03</pdfrwt>
<totfact> 0.36699624E+00</totfact>
</mgrwt>
</event>
<event>
 4    1  0.1701380E-008  0.1713386E+04  0.7818608E-02  0.8753767E-01
          2   -1    0    0  501    0  0.00000000000E+00  0.00000000000E+00  0.23022170816E+04  0.23022170816E+04  0.25500000000E-02 0. -1.
         -2   -1    0    0    0  501 -0.00000000000E+00 -0.00000000000E+00 -0.14823438415E+04  0.14823438415E+04  0.25500000000E-02 0.  1.
    8880022    1    1    2    0    0 -0.16266938806E+04  0.51591222337E+03 -0.29750609804E+03  0.17390226953E+04  0.15294330000E+03 0.  0.
    8880022    1    1    2    0    0  0.16266938806E+04 -0.51591222337E+03  0.11173793381E+04  0.20455382278E+04  0.15294330000E+03 0.  0.
<mgrwt>
<rscale>  0 0.17133856E+04</rscale>
<asrwt>0</asrwt>
<pdfrwt beam="1">  1        2 0.35418724E+00 0.17133856E+04</pdfrwt>
<pdfrwt beam="2">  1       -2 0.22805290E+00 0.17133856E+04</pdfrwt>
<totfact> 0.36456038E-01</totfact>
</mgrwt>
</event>
<event>
 4    1  0.1701380E-008  0.6446030E+03  0.7818608E-02  0.9816959E-01
          2   -1    0    0  501    0  0.00000000000E+00  0.00000000000E+00  0.40519610424E+04  0.40519610424E+04  0.25500000000E-02 0. -1.
         -2   -1    0    0    0  501 -0.00000000000E+00 -0.00000000000E+00 -0.16496462031E+03  0.16496462033E+03  0.25500000000E-02 0.  1.
    8880022    1    1    2    0    0 -0.18262497783E+03 -0.59897367407E+03  0.64653663338E+03  0.91297459771E+03  0.15294330000E+03 0.  0.
    8880022    1    1    2    0    0  0.18262497783E+03  0.59897367407E+03  0.32404597887E+04  0.33039510650E+04  0.15294330000E+03 0.  0.
<mgrwt>
<rscale>  0 0.64460298E+03</rscale>
<asrwt>0</asrwt>
<pdfrwt beam="1">  1        2 0.62337861E+00 0.64460298E+03</pdfrwt>
<pdfrwt beam="2">  1       -2 0.25379173E-01 0.64460298E+03</pdfrwt>
<totfact> 0.49125010E+00</totfact>
</mgrwt>
</event>
<event>
 4    1  0.1701380E-008  0.7188242E+03  0.7818608E-02  0.9685571E-01
         -2   -1    0    0    0  501 -0.00000000000E+00  0.00000000000E+00  0.11667588156E+04  0.11667588156E+04  0.25500000000E-02 0.  1.
          2   -1    0    0  501    0  0.00000000000E+00 -0.00000000000E+00 -0.91451025860E+03  0.91451025860E+03  0.25500000000E-02 0. -1.
    8880022    1    1    2    0    0 -0.98465043934E+02  0.69542880201E+03  0.87345872108E+03  0.11312110210E+04  0.15294330000E+03 0.  0.
    8880022    1    1    2    0    0  0.98465043934E+02 -0.69542880201E+03 -0.62121016407E+03  0.95005805323E+03  0.15294330000E+03 0. -1.
<mgrwt>
<rscale>  0 0.71882420E+03</rscale>
<asrwt>0</asrwt>
<pdfrwt beam="1">  1        2 0.14069389E+00 0.71882420E+03</pdfrwt>
<pdfrwt beam="2">  1       -2 0.17950136E+00 0.71882420E+03</pdfrwt>
<totfact> 0.53684934E+00</totfact>
</mgrwt>
</event>
<event>
 4    1  0.1701380E-008  0.4771971E+03  0.7818608E-02  0.1019908E+00
         -2   -1    0    0    0  501 -0.00000000000E+00  0.00000000000E+00  0.19266392240E+03  0.19266392241E+03  0.25500000000E-02 0.  1.
          2   -1    0    0  501    0  0.00000000000E+00 -0.00000000000E+00 -0.30948036188E+04  0.30948036188E+04  0.25500000000E-02 0. -1.
    8880022    1    1    2    0    0 -0.45198387188E+03  0.60019781029E+01 -0.27433509461E+04  0.27845451174E+04  0.15294330000E+03 0.  0.
    8880022    1    1    2    0    0  0.45198387188E+03 -0.60019781029E+01 -0.15878875032E+03  0.50292242386E+03  0.15294330000E+03 0.  1.
<mgrwt>
<rscale>  0 0.47719713E+03</rscale>
<asrwt>0</asrwt>
<pdfrwt beam="1">  1        2 0.47612360E+00 0.47719713E+03</pdfrwt>
<pdfrwt beam="2">  1       -2 0.29640606E-01 0.47719713E+03</pdfrwt>
<totfact> 0.17923375E+01</totfact>
</mgrwt>
</event>
<event>
 4    1  0.1701380E-008  0.1928651E+04  0.7818608E-02  0.8640725E-01
         -2   -1    0    0    0  501 -0.00000000000E+00  0.00000000000E+00  0.19246997324E+04  0.19246997324E+04  0.25500000000E-02 0.  1.
          2   -1    0    0  501    0  0.00000000000E+00 -0.00000000000E+00 -0.21498578773E+04  0.21498578773E+04  0.25500000000E-02 0. -1.
    8880022    1    1    2    0    0  0.17935745691E+04  0.69238268963E+03  0.53504461541E+03  0.20014914232E+04  0.15294330000E+03 0.  0.
    8880022    1    1    2    0    0 -0.17935745691E+04 -0.69238268963E+03 -0.76020276022E+03  0.20730661865E+04  0.15294330000E+03 0.  0.
<mgrwt>
<rscale>  0 0.19286511E+04</rscale>
<asrwt>0</asrwt>
<pdfrwt beam="1">  1        2 0.33074736E+00 0.19286511E+04</pdfrwt>
<pdfrwt beam="2">  1       -2 0.29610765E+00 0.19286511E+04</pdfrwt>
<totfact> 0.16566384E-01</totfact>
</mgrwt>
</event>
<event>
 4    1  0.1701380E-008  0.5955660E+03  0.7818608E-02  0.9914648E-01
         -2   -1    0    0    0  501 -0.00000000000E+00  0.00000000000E+00  0.58109875053E+03  0.58109875054E+03  0.25500000000E-02 0.  1.
          2   -1    0    0  501    0  0.00000000000E+00 -0.00000000000E+00 -0.11309046708E+04  0.11309046708E+04  0.25500000000E-02 0. -1.
    8880022    1    1    2    0    0  0.23012758811E+03 -0.52758741892E+03 -0.85563622155E+03  0.10425028480E+04  0.15294330000E+03 0.  0.
    8880022    1    1    2    0    0 -0.23012758811E+03  0.52758741892E+03  0.30583030134E+03  0.66950057330E+03  0.15294330000E+03 0.  0.
<mgrwt>
<rscale>  0 0.59556599E+03</rscale>
<asrwt>0</asrwt>
<pdfrwt beam="1">  1        2 0.17398533E+00 0.59556599E+03</pdfrwt>
<pdfrwt beam="2">  1       -2 0.89399808E-01 0.59556599E+03</pdfrwt>
<totfact> 0.23210464E+01</totfact>
</mgrwt>
</event>
<event>
 4    1  0.1701380E-008  0.4708718E+03  0.7818608E-02  0.1021674E+00
          2   -1    0    0  501    0  0.00000000000E+00  0.00000000000E+00  0.71530369391E+03  0.71530369391E+03  0.25500000000E-02 0. -1.
         -2   -1    0    0    0  501 -0.00000000000E+00 -0.00000000000E+00 -0.86711782341E+03  0.86711782341E+03  0.25500000000E-02 0.  1.
    8880022    1    1    2    0    0 -0.25251252057E+03  0.36683244634E+03  0.55831254071E+03  0.73036508874E+03  0.15294330000E+03 0.  0.
    8880022    1    1    2    0    0  0.25251252057E+03 -0.36683244634E+03 -0.71012667020E+03  0.85205642858E+03  0.15294330000E+03 0.  0.
<mgrwt>
<rscale>  0 0.47087182E+03</rscale>
<asrwt>0</asrwt>
<pdfrwt beam="1">  1        2 0.11004672E+00 0.47087182E+03</pdfrwt>
<pdfrwt beam="2">  1       -2 0.13340274E+00 0.47087182E+03</pdfrwt>
<totfact> 0.17021105E+01</totfact>
</mgrwt>
</event>
<event>
 4    1  0.1701380E-008  0.7777349E+03  0.7818608E-02  0.9592816E-01
          2   -1    0    0  501    0  0.00000000000E+00  0.00000000000E+00  0.15139327483E+04  0.15139327483E+04  0.25500000000E-02 0. -1.
         -2   -1    0    0    0  501 -0.00000000000E+00 -0.00000000000E+00 -0.93004892722E+03  0.93004892722E+03  0.25500000000E-02 0.  1.
    8880022    1    1    2    0    0  0.47140822603E+03  0.59937816205E+03 -0.63097539536E+03  0.10014996252E+04  0.15294330000E+03 0.  1.
    8880022    1    1    2    0    0 -0.47140822603E+03 -0.59937816205E+03  0.12148592164E+04  0.14424820503E+04  0.15294330000E+03 0.  0.
<mgrwt>
<rscale>  0 0.77773488E+03</rscale>
<asrwt>0</asrwt>
<pdfrwt beam="1">  1        2 0.23291273E+00 0.77773488E+03</pdfrwt>
<pdfrwt beam="2">  1       -2 0.14308445E+00 0.77773488E+03</pdfrwt>
<totfact> 0.43233428E+00</totfact>
</mgrwt>
</event>
<event>
 4    1  0.1701380E-008  0.1037707E+04  0.7818608E-02  0.9268129E-01
          2   -1    0    0  501    0  0.00000000000E+00  0.00000000000E+00  0.25163991533E+04  0.25163991533E+04  0.25500000000E-02 0. -1.
         -2   -1    0    0    0  501 -0.00000000000E+00 -0.00000000000E+00 -0.77554753909E+03  0.77554753910E+03  0.25500000000E-02 0.  1.
    8880022    1    1    2    0    0 -0.38072792585E+03  0.95314770419E+03 -0.23154756135E+03  0.10632263285E+04  0.15294330000E+03 0.  0.
    8880022    1    1    2    0    0  0.38072792585E+03 -0.95314770419E+03  0.19723991756E+04  0.22287203639E+04  0.15294330000E+03 0.  0.
<mgrwt>
<rscale>  0 0.10377071E+04</rscale>
<asrwt>0</asrwt>
<pdfrwt beam="1">  1        2 0.38713833E+00 0.10377071E+04</pdfrwt>
<pdfrwt beam="2">  1       -2 0.11931500E+00 0.10377071E+04</pdfrwt>
<totfact> 0.18379363E+00</totfact>
</mgrwt>
</event>
<event>
 4    1  0.1701380E-008  0.5472140E+03  0.7818608E-02  0.1002141E+00
         -2   -1    0    0    0  501 -0.00000000000E+00  0.00000000000E+00  0.11077595014E+04  0.11077595014E+04  0.25500000000E-02 0.  1.
          2   -1    0    0  501    0  0.00000000000E+00 -0.00000000000E+00 -0.30815913623E+03  0.30815913624E+03  0.25500000000E-02 0. -1.
    8880022    1    1    2    0    0 -0.49935545143E+03 -0.16338816127E+03  0.64789872521E+03  0.84806601704E+03  0.15294330000E+03 0.  0.
    8880022    1    1    2    0    0  0.49935545143E+03  0.16338816127E+03  0.15170163993E+03  0.56785262057E+03  0.15294330000E+03 0.  0.
<mgrwt>
<rscale>  0 0.54721405E+03</rscale>
<asrwt>0</asrwt>
<pdfrwt beam="1">  1        2 0.47409098E-01 0.54721405E+03</pdfrwt>
<pdfrwt beam="2">  1       -2 0.17042454E+00 0.54721405E+03</pdfrwt>
<totfact> 0.23284926E+01</totfact>
</mgrwt>
</event>
<event>
 4    1  0.1701380E-008  0.4622396E+03  0.7818608E-02  0.1024134E+00
          2   -1    0    0  501    0  0.00000000000E+00  0.00000000000E+00  0.21900508023E+04  0.21900508023E+04  0.25500000000E-02 0. -1.
         -2   -1    0    0    0  501 -0.00000000000E+00 -0.00000000000E+00 -0.11319341859E+03  0.11319341862E+03  0.25500000000E-02 0.  1.
    8880022    1    1    2    0    0  0.14203390756E+03 -0.41243205077E+03  0.61047160101E+03  0.76572910096E+03  0.15294330000E+03 0.  0.
    8880022    1    1    2    0    0 -0.14203390756E+03  0.41243205077E+03  0.14663857827E+04  0.15375151200E+04  0.15294330000E+03 0.  0.
<mgrwt>
<rscale>  0 0.46223964E+03</rscale>
<asrwt>0</asrwt>
<pdfrwt beam="1">  1        2 0.33693090E+00 0.46223964E+03</pdfrwt>
<pdfrwt beam="2">  1       -2 0.17414372E-01 0.46223964E+03</pdfrwt>
<totfact> 0.15163948E+02</totfact>
</mgrwt>
</event>
<event>
 4    1  0.1701380E-008  0.1271938E+04  0.7818608E-02  0.9052119E-01
          2   -1    0    0  501    0  0.00000000000E+00  0.00000000000E+00  0.25828511052E+04  0.25828511052E+04  0.25500000000E-02 0. -1.
         -2   -1    0    0    0  501 -0.00000000000E+00 -0.00000000000E+00 -0.73100411931E+03  0.73100411932E+03  0.25500000000E-02 0.  1.
    8880022    1    1    2    0    0  0.10285680994E+04  0.73245018220E+03  0.29905735265E+03  0.13066225766E+04  0.15294330000E+03 0.  0.
    8880022    1    1    2    0    0 -0.10285680994E+04 -0.73245018220E+03  0.15527896332E+04  0.20072326479E+04  0.15294330000E+03 0.  0.
<mgrwt>
<rscale>  0 0.12719384E+04</rscale>
<asrwt>0</asrwt>
<pdfrwt beam="1">  1        2 0.39736170E+00 0.12719384E+04</pdfrwt>
<pdfrwt beam="2">  1       -2 0.11246218E+00 0.12719384E+04</pdfrwt>
<totfact> 0.18895199E+00</totfact>
</mgrwt>
</event>
<event>
 4    1  0.1976732E-008  0.1150931E+04  0.7818608E-02  0.9156925E-01
         -2   -1    0    0    0  501 -0.00000000000E+00  0.00000000000E+00  0.13091069502E+04  0.13091069502E+04  0.25500000000E-02 0.  1.
          2   -1    0    0  501    0  0.00000000000E+00 -0.00000000000E+00 -0.21759623474E+04  0.21759623474E+04  0.25500000000E-02 0. -1.
    8880022    1    1    2    0    0  0.34494544979E+03 -0.10873196324E+04  0.84110178423E+03  0.14255157701E+04  0.15294330000E+03 0.  0.
    8880022    1    1    2    0    0 -0.34494544979E+03  0.10873196324E+04 -0.17079571814E+04  0.20595535275E+04  0.15294330000E+03 0.  0.
<mgrwt>
<rscale>  0 0.11509314E+04</rscale>
<asrwt>0</asrwt>
<pdfrwt beam="1">  1        2 0.33476344E+00 0.11509314E+04</pdfrwt>
<pdfrwt beam="2">  1       -2 0.20140107E+00 0.11509314E+04</pdfrwt>
<totfact> 0.67914869E-01</totfact>
</mgrwt>
</event>
<event>
 4    1  0.1701380E-008  0.3172731E+03  0.7818608E-02  0.1076911E+00
          2   -1    0    0  501    0  0.00000000000E+00  0.00000000000E+00  0.24021891531E+04  0.24021891531E+04  0.25500000000E-02 0. -1.
         -2   -1    0    0    0  501 -0.00000000000E+00 -0.00000000000E+00 -0.19184291923E+03  0.19184291925E+03  0.25500000000E-02 0.  1.
    8880022    1    1    2    0    0  0.18176539720E+03  0.21031383869E+03 -0.41472223401E+02  0.31997213737E+03  0.15294330000E+03 0.  1.
    8880022    1    1    2    0    0 -0.18176539720E+03 -0.21031383869E+03  0.22518184573E+04  0.22740599350E+04  0.15294330000E+03 0.  0.
<mgrwt>
<rscale>  0 0.31727311E+03</rscale>
<asrwt>0</asrwt>
<pdfrwt beam="1">  1        2 0.36956755E+00 0.31727311E+03</pdfrwt>
<pdfrwt beam="2">  1       -2 0.29514296E-01 0.31727311E+03</pdfrwt>
<totfact> 0.47512587E+01</totfact>
</mgrwt>
</event>
<event>
 4    1  0.1701380E-008  0.8529787E+03  0.7818608E-02  0.9486348E-01
         -2   -1    0    0    0  501 -0.00000000000E+00  0.00000000000E+00  0.79967483390E+03  0.79967483391E+03  0.25500000000E-02 0.  1.
          2   -1    0    0  501    0  0.00000000000E+00 -0.00000000000E+00 -0.25997575089E+04  0.25997575089E+04  0.25500000000E-02 0. -1.
    8880022    1    1    2    0    0  0.81024094964E+03 -0.21838170656E+03  0.47034590216E+03  0.97406256828E+03  0.15294330000E+03 0.  0.
    8880022    1    1    2    0    0 -0.81024094964E+03  0.21838170656E+03 -0.22704285772E+04  0.24253697745E+04  0.15294330000E+03 0. -1.
<mgrwt>
<rscale>  0 0.85297867E+03</rscale>
<asrwt>0</asrwt>
<pdfrwt beam="1">  1        2 0.39996269E+00 0.85297867E+03</pdfrwt>
<pdfrwt beam="2">  1       -2 0.12302690E+00 0.85297867E+03</pdfrwt>
<totfact> 0.15700198E+00</totfact>
</mgrwt>
</event>
<event>
 4    1  0.1701380E-008  0.5263787E+03  0.7818608E-02  0.1007114E+00
         -2   -1    0    0    0  501 -0.00000000000E+00  0.00000000000E+00  0.12461627296E+04  0.12461627296E+04  0.25500000000E-02 0.  1.
          2   -1    0    0  501    0  0.00000000000E+00 -0.00000000000E+00 -0.12190340623E+04  0.12190340623E+04  0.25500000000E-02 0. -1.
    8880022    1    1    2    0    0  0.43137196407E+03  0.26000207481E+03  0.11281004452E+04  0.12448634936E+04  0.15294330000E+03 0.  0.
    8880022    1    1    2    0    0 -0.43137196407E+03 -0.26000207481E+03 -0.11009717779E+04  0.12203332983E+04  0.15294330000E+03 0.  0.
<mgrwt>
<rscale>  0 0.52637867E+03</rscale>
<asrwt>0</asrwt>
<pdfrwt beam="1">  1        2 0.18754370E+00 0.52637867E+03</pdfrwt>
<pdfrwt beam="2">  1       -2 0.19171734E+00 0.52637867E+03</pdfrwt>
<totfact> 0.29815784E+00</totfact>
</mgrwt>
</event>
<event>
 4    1  0.1701380E-008  0.7221313E+03  0.7818608E-02  0.9680116E-01
          2   -1    0    0  501    0  0.00000000000E+00  0.00000000000E+00  0.80409177486E+03  0.80409177487E+03  0.25500000000E-02 0. -1.
         -2   -1    0    0    0  501 -0.00000000000E+00 -0.00000000000E+00 -0.94167541380E+03  0.94167541381E+03  0.25500000000E-02 0.  1.
    8880022    1    1    2    0    0  0.38722359880E+03 -0.59003379478E+03  0.41823283199E+03  0.83450125777E+03  0.15294330000E+03 0.  0.
    8880022    1    1    2    0    0 -0.38722359880E+03  0.59003379478E+03 -0.55581647093E+03  0.91126593090E+03  0.15294330000E+03 0.  0.
<mgrwt>
<rscale>  0 0.72213132E+03</rscale>
<asrwt>0</asrwt>
<pdfrwt beam="1">  1        2 0.12370643E+00 0.72213132E+03</pdfrwt>
<pdfrwt beam="2">  1       -2 0.14487314E+00 0.72213132E+03</pdfrwt>
<totfact> 0.11450417E+01</totfact>
</mgrwt>
</event>
<event>
 4    1  0.1701380E-008  0.4632999E+03  0.7818608E-02  0.1023828E+00
         -2   -1    0    0    0  501 -0.00000000000E+00  0.00000000000E+00  0.65153313299E+03  0.65153313300E+03  0.25500000000E-02 0.  1.
          2   -1    0    0  501    0  0.00000000000E+00 -0.00000000000E+00 -0.81285887399E+03  0.81285887400E+03  0.25500000000E-02 0. -1.
    8880022    1    1    2    0    0 -0.56857430121E+01  0.43729029470E+03 -0.64531067635E+03  0.79440081290E+03  0.15294330000E+03 0.  0.
    8880022    1    1    2    0    0  0.56857430121E+01 -0.43729029470E+03  0.48398493535E+03  0.66999119410E+03  0.15294330000E+03 0.  0.
<mgrwt>
<rscale>  0 0.46329988E+03</rscale>
<asrwt>0</asrwt>
<pdfrwt beam="1">  1        2 0.12505521E+00 0.46329988E+03</pdfrwt>
<pdfrwt beam="2">  1       -2 0.10023587E+00 0.46329988E+03</pdfrwt>
<totfact> 0.29031293E+01</totfact>
</mgrwt>
</event>
<event>
 4    1  0.1701380E-008  0.8741620E+03  0.7818608E-02  0.9458469E-01
         -2   -1    0    0    0  501 -0.00000000000E+00  0.00000000000E+00  0.20538609670E+04  0.20538609670E+04  0.25500000000E-02 0.  1.
          2   -1    0    0  501    0  0.00000000000E+00 -0.00000000000E+00 -0.60505051814E+03  0.60505051815E+03  0.25500000000E-02 0. -1.
    8880022    1    1    2    0    0 -0.85102481021E+03  0.12854715957E+03 -0.10058215843E+03  0.87992955596E+03  0.15294330000E+03 0.  0.
    8880022    1    1    2    0    0  0.85102481021E+03 -0.12854715957E+03  0.15493926073E+04  0.17789819292E+04  0.15294330000E+03 0.  0.
<mgrwt>
<rscale>  0 0.87416203E+03</rscale>
<asrwt>0</asrwt>
<pdfrwt beam="1">  1        2 0.93084695E-01 0.87416203E+03</pdfrwt>
<pdfrwt beam="2">  1       -2 0.31597861E+00 0.87416203E+03</pdfrwt>
<totfact> 0.12769290E+00</totfact>
</mgrwt>
</event>
<event>
 4    1  0.1701380E-008  0.1186156E+04  0.7818608E-02  0.9125061E-01
         -2   -1    0    0    0  501 -0.00000000000E+00  0.00000000000E+00  0.11169264054E+04  0.11169264054E+04  0.25500000000E-02 0.  1.
          2   -1    0    0  501    0  0.00000000000E+00 -0.00000000000E+00 -0.15171482950E+04  0.15171482950E+04  0.25500000000E-02 0. -1.
    8880022    1    1    2    0    0 -0.11707990898E+04 -0.11315210486E+03  0.34245083310E+03  0.12346003943E+04  0.15294330000E+03 0.  0.
    8880022    1    1    2    0    0  0.11707990898E+04  0.11315210486E+03 -0.74267272278E+03  0.13994743062E+04  0.15294330000E+03 0.  0.
<mgrwt>
<rscale>  0 0.11861558E+04</rscale>
<asrwt>0</asrwt>
<pdfrwt beam="1">  1        2 0.23340743E+00 0.11861558E+04</pdfrwt>
<pdfrwt beam="2">  1       -2 0.17183483E+00 0.11861558E+04</pdfrwt>
<totfact> 0.24959908E+00</totfact>
</mgrwt>
</event>
<event>
 4    1  0.1701380E-008  0.3779437E+03  0.7818608E-02  0.1051696E+00
          2   -1    0    0  501    0  0.00000000000E+00  0.00000000000E+00  0.18823427744E+04  0.18823427744E+04  0.25500000000E-02 0. -1.
         -2   -1    0    0    0  501 -0.00000000000E+00 -0.00000000000E+00 -0.13083450649E+03  0.13083450651E+03  0.25500000000E-02 0.  1.
    8880022    1    1    2    0    0  0.17742019857E+03  0.29660051643E+03  0.15280927032E+04  0.15741374640E+04  0.15294330000E+03 0.  0.
    8880022    1    1    2    0    0 -0.17742019857E+03 -0.29660051643E+03  0.22341556472E+03  0.43903981686E+03  0.15294330000E+03 0.  0.
<mgrwt>
<rscale>  0 0.37794371E+03</rscale>
<asrwt>0</asrwt>
<pdfrwt beam="1">  1        2 0.28959118E+00 0.37794371E+03</pdfrwt>
<pdfrwt beam="2">  1       -2 0.20128387E-01 0.37794371E+03</pdfrwt>
<totfact> 0.17539965E+02</totfact>
</mgrwt>
</event>
<event>
 4    1  0.1701380E-008  0.7263622E+03  0.7818608E-02  0.9673182E-01
          2   -1    0    0  501    0  0.00000000000E+00  0.00000000000E+00  0.14560421529E+04  0.14560421529E+04  0.25500000000E-02 0. -1.
         -2   -1    0    0    0  501 -0.00000000000E+00 -0.00000000000E+00 -0.76869521543E+03  0.76869521543E+03  0.25500000000E-02 0.  1.
    8880022    1    1    2    0    0 -0.70168770612E+03 -0.10883386573E+03 -0.46508217089E+03  0.86249842084E+03  0.15294330000E+03 0.  0.
    8880022    1    1    2    0    0  0.70168770612E+03  0.10883386573E+03  0.11524291084E+04  0.13622389475E+04  0.15294330000E+03 0.  0.
<mgrwt>
<rscale>  0 0.72636224E+03</rscale>
<asrwt>0</asrwt>
<pdfrwt beam="1">  1        2 0.22400649E+00 0.72636224E+03</pdfrwt>
<pdfrwt beam="2">  1       -2 0.11826080E+00 0.72636224E+03</pdfrwt>
<totfact> 0.76061881E+00</totfact>
</mgrwt>
</event>
<event>
 4    1  0.1869629E-008  0.1253219E+04  0.7818608E-02  0.9067508E-01
          2   -1    0    0  501    0  0.00000000000E+00  0.00000000000E+00  0.12263598568E+04  0.12263598568E+04  0.25500000000E-02 0. -1.
         -2   -1    0    0    0  501 -0.00000000000E+00 -0.00000000000E+00 -0.25554747182E+04  0.25554747182E+04  0.25500000000E-02 0.  1.
    8880022    1    1    2    0    0 -0.28145810818E+03 -0.12115891497E+04 -0.20001041402E+04  0.23602913292E+04  0.15294330000E+03 0.  0.
    8880022    1    1    2    0    0  0.28145810818E+03  0.12115891497E+04  0.67098927879E+03  0.14215432458E+04  0.15294330000E+03 0.  0.
<mgrwt>
<rscale>  0 0.12532193E+04</rscale>
<asrwt>0</asrwt>
<pdfrwt beam="1">  1        2 0.18867075E+00 0.12532193E+04</pdfrwt>
<pdfrwt beam="2">  1       -2 0.39314996E+00 0.12532193E+04</pdfrwt>
<totfact> 0.14673877E-01</totfact>
</mgrwt>
</event>
<event>
 4    1  0.1701380E-008  0.4643855E+03  0.7818608E-02  0.1023517E+00
          2   -1    0    0  501    0  0.00000000000E+00  0.00000000000E+00  0.75583954420E+03  0.75583954420E+03  0.25500000000E-02 0. -1.
         -2   -1    0    0    0  501 -0.00000000000E+00 -0.00000000000E+00 -0.53241980092E+03  0.53241980093E+03  0.25500000000E-02 0.  1.
    8880022    1    1    2    0    0 -0.23991064216E+03  0.36702198403E+03 -0.32710870076E+03  0.56802641497E+03  0.15294330000E+03 0.  0.
    8880022    1    1    2    0    0  0.23991064216E+03 -0.36702198403E+03  0.55052844404E+03  0.72023293016E+03  0.15294330000E+03 0.  0.
<mgrwt>
<rscale>  0 0.46438551E+03</rscale>
<asrwt>0</asrwt>
<pdfrwt beam="1">  1        2 0.11628301E+00 0.46438551E+03</pdfrwt>
<pdfrwt beam="2">  1       -2 0.81910739E-01 0.46438551E+03</pdfrwt>
<totfact> 0.50690393E+01</totfact>
</mgrwt>
</event>
<event>
 4    1  0.1701380E-008  0.6472078E+03  0.7818608E-02  0.9812033E-01
          2   -1    0    0  501    0  0.00000000000E+00  0.00000000000E+00  0.14984404879E+04  0.14984404879E+04  0.25500000000E-02 0. -1.
         -2   -1    0    0    0  501 -0.00000000000E+00 -0.00000000000E+00 -0.38850822418E+03  0.38850822418E+03  0.25500000000E-02 0.  1.
    8880022    1    1    2    0    0 -0.22181480837E+03  0.58845936779E+03  0.10546264124E+04  0.12373822205E+04  0.15294330000E+03 0.  0.
    8880022    1    1    2    0    0  0.22181480837E+03 -0.58845936779E+03  0.55305851243E+02  0.64956649155E+03  0.15294330000E+03 0.  0.
<mgrwt>
<rscale>  0 0.64720776E+03</rscale>
<asrwt>0</asrwt>
<pdfrwt beam="1">  1        2 0.23052931E+00 0.64720776E+03</pdfrwt>
<pdfrwt beam="2">  1       -2 0.59770495E-01 0.64720776E+03</pdfrwt>
<totfact> 0.34397837E+01</totfact>
</mgrwt>
</event>
<event>
 4    1  0.1701380E-008  0.1090867E+04  0.7818608E-02  0.9214140E-01
          2   -1    0    0  501    0  0.00000000000E+00  0.00000000000E+00  0.39336388151E+04  0.39336388151E+04  0.25500000000E-02 0. -1.
         -2   -1    0    0    0  501 -0.00000000000E+00 -0.00000000000E+00 -0.74478916392E+03  0.74478916392E+03  0.25500000000E-02 0.  1.
    8880022    1    1    2    0    0  0.92515039761E+03 -0.55740022498E+03  0.33970208833E+04  0.35678762316E+04  0.15294330000E+03 0.  0.
    8880022    1    1    2    0    0 -0.92515039761E+03  0.55740022498E+03 -0.20817123210E+03  0.11105517475E+04  0.15294330000E+03 0.  0.
<mgrwt>
<rscale>  0 0.10908666E+04</rscale>
<asrwt>0</asrwt>
<pdfrwt beam="1">  1        2 0.60517519E+00 0.10908666E+04</pdfrwt>
<pdfrwt beam="2">  1       -2 0.11458295E+00 0.10908666E+04</pdfrwt>
<totfact> 0.23675730E-01</totfact>
</mgrwt>
</event>
<event>
 4    1  0.1701380E-008  0.1599575E+04  0.7818608E-02  0.8820809E-01
          2   -1    0    0  501    0  0.00000000000E+00  0.00000000000E+00  0.12438878588E+04  0.12438878588E+04  0.25500000000E-02 0. -1.
         -2   -1    0    0    0  501 -0.00000000000E+00 -0.00000000000E+00 -0.22800961258E+04  0.22800961258E+04  0.25500000000E-02 0.  1.
    8880022    1    1    2    0    0  0.69167131766E+03  0.14341690241E+04 -0.10692940665E+04  0.19240663853E+04  0.15294330000E+03 0.  0.
    8880022    1    1    2    0    0 -0.69167131766E+03 -0.14341690241E+04  0.33085799501E+02  0.15999175993E+04  0.15294330000E+03 0.  0.
<mgrwt>
<rscale>  0 0.15995755E+04</rscale>
<asrwt>0</asrwt>
<pdfrwt beam="1">  1        2 0.19136736E+00 0.15995755E+04</pdfrwt>
<pdfrwt beam="2">  1       -2 0.35078402E+00 0.15995755E+04</pdfrwt>
<totfact> 0.25660044E-01</totfact>
</mgrwt>
</event>
<event>
 4    1  0.1701380E-008  0.6169054E+03  0.7818608E-02  0.9870940E-01
          2   -1    0    0  501    0  0.00000000000E+00  0.00000000000E+00  0.19540328311E+04  0.19540328311E+04  0.25500000000E-02 0. -1.
         -2   -1    0    0    0  501 -0.00000000000E+00 -0.00000000000E+00 -0.11183129728E+04  0.11183129728E+04  0.25500000000E-02 0.  1.
    8880022    1    1    2    0    0  0.23827383583E+03  0.54809320179E+03 -0.97815076908E+03  0.11564389992E+04  0.15294330000E+03 0.  0.
    8880022    1    1    2    0    0 -0.23827383583E+03 -0.54809320179E+03  0.18138706274E+04  0.19159068048E+04  0.15294330000E+03 0. -1.
<mgrwt>
<rscale>  0 0.61690537E+03</rscale>
<asrwt>0</asrwt>
<pdfrwt beam="1">  1        2 0.30062044E+00 0.61690537E+03</pdfrwt>
<pdfrwt beam="2">  1       -2 0.17204815E+00 0.61690537E+03</pdfrwt>
<totfact> 0.15608890E+00</totfact>
</mgrwt>
</event>
<event>
 4    1  0.1701380E-008  0.5268428E+03  0.7818608E-02  0.1007001E+00
          2   -1    0    0  501    0  0.00000000000E+00  0.00000000000E+00  0.22315731625E+04  0.22315731625E+04  0.25500000000E-02 0. -1.
         -2   -1    0    0    0  501 -0.00000000000E+00 -0.00000000000E+00 -0.53958335650E+03  0.53958335650E+03  0.25500000000E-02 0.  1.
    8880022    1    1    2    0    0 -0.50405520894E+03  0.10002818606E+02  0.20614310466E+04  0.21276891979E+04  0.15294330000E+03 0.  0.
    8880022    1    1    2    0    0  0.50405520894E+03 -0.10002818606E+02 -0.36944124060E+03  0.64346732108E+03  0.15294330000E+03 0.  0.
<mgrwt>
<rscale>  0 0.52684283E+03</rscale>
<asrwt>0</asrwt>
<pdfrwt beam="1">  1        2 0.34331895E+00 0.52684283E+03</pdfrwt>
<pdfrwt beam="2">  1       -2 0.83012823E-01 0.52684283E+03</pdfrwt>
<totfact> 0.68650854E+00</totfact>
</mgrwt>
</event>
<event>
 4    1  0.1701380E-008  0.7188454E+03  0.7818608E-02  0.9685536E-01
         -2   -1    0    0    0  501 -0.00000000000E+00  0.00000000000E+00  0.40926387402E+03  0.40926387403E+03  0.25500000000E-02 0.  1.
          2   -1    0    0  501    0  0.00000000000E+00 -0.00000000000E+00 -0.19557320358E+04  0.19557320358E+04  0.25500000000E-02 0. -1.
    8880022    1    1    2    0    0 -0.11242309486E+03  0.69333112770E+03 -0.14772007696E+04  0.16428209798E+04  0.15294330000E+03 0.  0.
    8880022    1    1    2    0    0  0.11242309486E+03 -0.69333112770E+03 -0.69267392143E+02  0.72217493000E+03  0.15294330000E+03 0.  0.
<mgrwt>
<rscale>  0 0.71884536E+03</rscale>
<asrwt>0</asrwt>
<pdfrwt beam="1">  1        2 0.30088185E+00 0.71884536E+03</pdfrwt>
<pdfrwt beam="2">  1       -2 0.62963674E-01 0.71884536E+03</pdfrwt>
<totfact> 0.17156591E+01</totfact>
</mgrwt>
</event>
<event>
 4    1  0.1701380E-008  0.1786498E+03  0.7818608E-02  0.1169116E+00
         -2   -1    0    0    0  501 -0.00000000000E+00  0.00000000000E+00  0.29625575100E+03  0.29625575101E+03  0.25500000000E-02 0.  1.
          2   -1    0    0  501    0  0.00000000000E+00 -0.00000000000E+00 -0.90461564092E+03  0.90461564092E+03  0.25500000000E-02 0. -1.
    8880022    1    1    2    0    0 -0.84579368682E+02 -0.37019155509E+02 -0.86772982008E+03  0.88592933192E+03  0.15294330000E+03 0.  0.
    8880022    1    1    2    0    0  0.84579368682E+02  0.37019155509E+02  0.25936993016E+03  0.31494206001E+03  0.15294330000E+03 0.  1.
<mgrwt>
<rscale>  0 0.17864977E+03</rscale>
<asrwt>0</asrwt>
<pdfrwt beam="1">  1        2 0.13917164E+00 0.17864977E+03</pdfrwt>
<pdfrwt beam="2">  1       -2 0.45577808E-01 0.17864977E+03</pdfrwt>
<totfact> 0.14357786E+02</totfact>
</mgrwt>
</event>
<event>
 4    1  0.1701380E-008  0.1493488E+04  0.7818608E-02  0.8888795E-01
         -2   -1    0    0    0  501 -0.00000000000E+00  0.00000000000E+00  0.92454060186E+03  0.92454060186E+03  0.25500000000E-02 0.  1.
          2   -1    0    0  501    0  0.00000000000E+00 -0.00000000000E+00 -0.28818364701E+04  0.28818364701E+04  0.25500000000E-02 0. -1.
    8880022    1    1    2    0    0  0.45239538886E+03  0.14150801879E+04 -0.17466524715E+04  0.22981079250E+04  0.15294330000E+03 0.  0.
    8880022    1    1    2    0    0 -0.45239538886E+03 -0.14150801879E+04 -0.21064339682E+03  0.15082691470E+04  0.15294330000E+03 0.  0.
<mgrwt>
<rscale>  0 0.14934876E+04</rscale>
<asrwt>0</asrwt>
<pdfrwt beam="1">  1        2 0.44335945E+00 0.14934876E+04</pdfrwt>
<pdfrwt beam="2">  1       -2 0.14223702E+00 0.14934876E+04</pdfrwt>
<totfact> 0.67394556E-01</totfact>
</mgrwt>
</event>
<event>
 4    1  0.1701380E-008  0.7982792E+03  0.7818608E-02  0.9562511E-01
          2   -1    0    0  501    0  0.00000000000E+00  0.00000000000E+00  0.17906740861E+04  0.17906740861E+04  0.25500000000E-02 0. -1.
         -2   -1    0    0    0  501 -0.00000000000E+00 -0.00000000000E+00 -0.40697644414E+03  0.40697644415E+03  0.25500000000E-02 0.  1.
    8880022    1    1    2    0    0  0.28305316015E+03 -0.73057441227E+03  0.10812307845E+04  0.13439902253E+04  0.15294330000E+03 0.  0.
    8880022    1    1    2    0    0 -0.28305316015E+03  0.73057441227E+03  0.30246685745E+03  0.85366030493E+03  0.15294330000E+03 0.  0.
<mgrwt>
<rscale>  0 0.79827922E+03</rscale>
<asrwt>0</asrwt>
<pdfrwt beam="1">  1        2 0.27548832E+00 0.79827922E+03</pdfrwt>
<pdfrwt beam="2">  1       -2 0.62611760E-01 0.79827922E+03</pdfrwt>
<totfact> 0.21135975E+01</totfact>
</mgrwt>
</event>
<event>
 4    1  0.1701380E-008  0.5797903E+03  0.7818608E-02  0.9948245E-01
         -2   -1    0    0    0  501 -0.00000000000E+00  0.00000000000E+00  0.99485598070E+03  0.99485598071E+03  0.25500000000E-02 0.  1.
          2   -1    0    0  501    0  0.00000000000E+00 -0.00000000000E+00 -0.11823082485E+04  0.11823082485E+04  0.25500000000E-02 0. -1.
    8880022    1    1    2    0    0  0.11586780149E+03 -0.54711959097E+03  0.82624321473E+03  0.10093734181E+04  0.15294330000E+03 0.  0.
    8880022    1    1    2    0    0 -0.11586780149E+03  0.54711959097E+03 -0.10136954825E+04  0.11677908111E+04  0.15294330000E+03 0.  0.
<mgrwt>
<rscale>  0 0.57979035E+03</rscale>
<asrwt>0</asrwt>
<pdfrwt beam="1">  1        2 0.18189358E+00 0.57979035E+03</pdfrwt>
<pdfrwt beam="2">  1       -2 0.15305477E+00 0.57979035E+03</pdfrwt>
<totfact> 0.57822798E+00</totfact>
</mgrwt>
</event>
<event>
 4    1  0.1701380E-008  0.9721217E+03  0.7818608E-02  0.9339661E-01
          2   -1    0    0  501    0  0.00000000000E+00  0.00000000000E+00  0.15918182413E+04  0.15918182413E+04  0.25500000000E-02 0. -1.
         -2   -1    0    0    0  501 -0.00000000000E+00 -0.00000000000E+00 -0.23468922971E+04  0.23468922971E+04  0.25500000000E-02 0.  1.
    8880022    1    1    2    0    0  0.24819692007E+03  0.92737653830E+03  0.13246039426E+04  0.16430447994E+04  0.15294330000E+03 0.  0.
    8880022    1    1    2    0    0 -0.24819692007E+03 -0.92737653830E+03 -0.20796779984E+04  0.22956657390E+04  0.15294330000E+03 0.  0.
<mgrwt>
<rscale>  0 0.97212170E+03</rscale>
<asrwt>0</asrwt>
<pdfrwt beam="1">  1        2 0.24489511E+00 0.97212170E+03</pdfrwt>
<pdfrwt beam="2">  1       -2 0.36106035E+00 0.97212170E+03</pdfrwt>
<totfact> 0.15227306E-01</totfact>
</mgrwt>
</event>
<event>
 4    1  0.1701380E-008  0.7893585E+03  0.7818608E-02  0.9575549E-01
          2   -1    0    0  501    0  0.00000000000E+00  0.00000000000E+00  0.17499470507E+04  0.17499470507E+04  0.25500000000E-02 0. -1.
         -2   -1    0    0    0  501 -0.00000000000E+00 -0.00000000000E+00 -0.11169376546E+04  0.11169376546E+04  0.25500000000E-02 0.  1.
    8880022    1    1    2    0    0  0.48041366223E+03  0.60736961326E+03  0.14996091171E+04  0.16946723256E+04  0.15294330000E+03 0. -1.
    8880022    1    1    2    0    0 -0.48041366223E+03 -0.60736961326E+03 -0.86659972089E+03  0.11722123797E+04  0.15294330000E+03 0.  0.
<mgrwt>
<rscale>  0 0.78935847E+03</rscale>
<asrwt>0</asrwt>
<pdfrwt beam="1">  1        2 0.26922262E+00 0.78935847E+03</pdfrwt>
<pdfrwt beam="2">  1       -2 0.17183656E+00 0.78935847E+03</pdfrwt>
<totfact> 0.19536865E+00</totfact>
</mgrwt>
</event>
<event>
 4    1  0.1701380E-008  0.4949224E+03  0.7818608E-02  0.1015113E+00
         -2   -1    0    0    0  501 -0.00000000000E+00  0.00000000000E+00  0.61639915232E+03  0.61639915233E+03  0.25500000000E-02 0.  1.
          2   -1    0    0  501    0  0.00000000000E+00 -0.00000000000E+00 -0.19163905707E+04  0.19163905707E+04  0.25500000000E-02 0. -1.
    8880022    1    1    2    0    0 -0.25857858833E+03  0.39331109928E+03  0.47747877320E+03  0.68770207142E+03  0.15294330000E+03 0.  0.
    8880022    1    1    2    0    0  0.25857858833E+03 -0.39331109928E+03 -0.17774701916E+04  0.18450876516E+04  0.15294330000E+03 0.  0.
<mgrwt>
<rscale>  0 0.49492238E+03</rscale>
<asrwt>0</asrwt>
<pdfrwt beam="1">  1        2 0.29482932E+00 0.49492238E+03</pdfrwt>
<pdfrwt beam="2">  1       -2 0.94830640E-01 0.49492238E+03</pdfrwt>
<totfact> 0.75548809E+00</totfact>
</mgrwt>
</event>
<event>
 4    1  0.1701380E-008  0.7988452E+03  0.7818608E-02  0.9561690E-01
          2   -1    0    0  501    0  0.00000000000E+00  0.00000000000E+00  0.26606635504E+04  0.26606635504E+04  0.25500000000E-02 0. -1.
         -2   -1    0    0    0  501 -0.00000000000E+00 -0.00000000000E+00 -0.30717764284E+03  0.30717764285E+03  0.25500000000E-02 0.  1.
    8880022    1    1    2    0    0  0.15002425140E+03  0.76958084896E+03  0.48200584940E+03  0.93299691906E+03  0.15294330000E+03 0.  0.
    8880022    1    1    2    0    0 -0.15002425140E+03 -0.76958084896E+03  0.18714800581E+04  0.20348442742E+04  0.15294330000E+03 0.  0.
<mgrwt>
<rscale>  0 0.79884517E+03</rscale>
<asrwt>0</asrwt>
<pdfrwt beam="1">  1        2 0.40933286E+00 0.79884517E+03</pdfrwt>
<pdfrwt beam="2">  1       -2 0.47258098E-01 0.79884517E+03</pdfrwt>
<totfact> 0.12416446E+01</totfact>
</mgrwt>
</event>
<event>
 4    1  0.1701380E-008  0.8424348E+03  0.7818608E-02  0.9500547E-01
         -2   -1    0    0    0  501 -0.00000000000E+00  0.00000000000E+00  0.77742606094E+03  0.77742606094E+03  0.25500000000E-02 0.  1.
          2   -1    0    0  501    0  0.00000000000E+00 -0.00000000000E+00 -0.27152001854E+04  0.27152001854E+04  0.25500000000E-02 0. -1.
    8880022    1    1    2    0    0  0.73254585697E+03 -0.38688657745E+03  0.45389121101E+03  0.95692922456E+03  0.15294330000E+03 0.  0.
    8880022    1    1    2    0    0 -0.73254585697E+03  0.38688657745E+03 -0.23916653355E+04  0.25356970218E+04  0.15294330000E+03 0.  0.
<mgrwt>
<rscale>  0 0.84243475E+03</rscale>
<asrwt>0</asrwt>
<pdfrwt beam="1">  1        2 0.41772310E+00 0.84243475E+03</pdfrwt>
<pdfrwt beam="2">  1       -2 0.11960401E+00 0.84243475E+03</pdfrwt>
<totfact> 0.14463698E+00</totfact>
</mgrwt>
</event>
<event>
 4    1  0.1701380E-008  0.4314359E+03  0.7818608E-02  0.1033407E+00
         -2   -1    0    0    0  501 -0.00000000000E+00  0.00000000000E+00  0.62884362072E+03  0.62884362073E+03  0.25500000000E-02 0.  1.
          2   -1    0    0  501    0  0.00000000000E+00 -0.00000000000E+00 -0.10628086597E+04  0.10628086597E+04  0.25500000000E-02 0. -1.
    8880022    1    1    2    0    0 -0.14005373909E+02  0.40317379371E+03  0.50146893027E+03  0.66151946266E+03  0.15294330000E+03 0.  0.
    8880022    1    1    2    0    0  0.14005373909E+02 -0.40317379371E+03 -0.93543396926E+03  0.10301328178E+04  0.15294330000E+03 0.  0.
<mgrwt>
<rscale>  0 0.43143587E+03</rscale>
<asrwt>0</asrwt>
<pdfrwt beam="1">  1        2 0.16350902E+00 0.43143587E+03</pdfrwt>
<pdfrwt beam="2">  1       -2 0.96745172E-01 0.43143587E+03</pdfrwt>
<totfact> 0.21818335E+01</totfact>
</mgrwt>
</event>
<event>
 4    1  0.1701380E-008  0.1237265E+04  0.7818608E-02  0.9080849E-01
          2   -1    0    0  501    0  0.00000000000E+00  0.00000000000E+00  0.31584255255E+04  0.31584255255E+04  0.25500000000E-02 0. -1.
         -2   -1    0    0    0  501 -0.00000000000E+00 -0.00000000000E+00 -0.69307513315E+03  0.69307513315E+03  0.25500000000E-02 0.  1.
    8880022    1    1    2    0    0 -0.11303660145E+04 -0.47927719686E+03  0.22886501861E+04  0.26016812421E+04  0.15294330000E+03 0.  0.
    8880022    1    1    2    0    0  0.11303660145E+04  0.47927719686E+03  0.17670020622E+03  0.12498194165E+04  0.15294330000E+03 0.  0.
<mgrwt>
<rscale>  0 0.12372654E+04</rscale>
<asrwt>0</asrwt>
<pdfrwt beam="1">  1        2 0.48591163E+00 0.12372654E+04</pdfrwt>
<pdfrwt beam="2">  1       -2 0.10662694E+00 0.12372654E+04</pdfrwt>
<totfact> 0.96531072E-01</totfact>
</mgrwt>
</event>
<event>
 4    1  0.1701380E-008  0.4118462E+03  0.7818608E-02  0.1039753E+00
          2   -1    0    0  501    0  0.00000000000E+00  0.00000000000E+00  0.28810264743E+03  0.28810264744E+03  0.25500000000E-02 0. -1.
         -2   -1    0    0    0  501 -0.00000000000E+00 -0.00000000000E+00 -0.83579731364E+03  0.83579731364E+03  0.25500000000E-02 0.  1.
    8880022    1    1    2    0    0 -0.19103740198E+03  0.33125574907E+03  0.31677673935E+02  0.41306269293E+03  0.15294330000E+03 0.  1.
    8880022    1    1    2    0    0  0.19103740198E+03 -0.33125574907E+03 -0.57937234014E+03  0.71083726815E+03  0.15294330000E+03 0.  0.
<mgrwt>
<rscale>  0 0.41184623E+03</rscale>
<asrwt>0</asrwt>
<pdfrwt beam="1">  1        2 0.44323485E-01 0.41184623E+03</pdfrwt>
<pdfrwt beam="2">  1       -2 0.12858420E+00 0.41184623E+03</pdfrwt>
<totfact> 0.53141646E+01</totfact>
</mgrwt>
</event>
<event>
 4    1  0.1701380E-008  0.1247496E+04  0.7818608E-02  0.9072270E-01
         -2   -1    0    0    0  501 -0.00000000000E+00  0.00000000000E+00  0.14531199879E+04  0.14531199879E+04  0.25500000000E-02 0.  1.
          2   -1    0    0  501    0  0.00000000000E+00 -0.00000000000E+00 -0.12965569993E+04  0.12965569993E+04  0.25500000000E-02 0. -1.
    8880022    1    1    2    0    0 -0.77252087536E+03 -0.96750552177E+03 -0.49519213916E+03  0.13421856597E+04  0.15294330000E+03 0.  0.
    8880022    1    1    2    0    0  0.77252087536E+03  0.96750552177E+03  0.65175512773E+03  0.14074913275E+04  0.15294330000E+03 0.  0.
<mgrwt>
<rscale>  0 0.12474963E+04</rscale>
<asrwt>0</asrwt>
<pdfrwt beam="1">  1        2 0.19947031E+00 0.12474963E+04</pdfrwt>
<pdfrwt beam="2">  1       -2 0.22355692E+00 0.12474963E+04</pdfrwt>
<totfact> 0.15057226E+00</totfact>
</mgrwt>
</event>
<event>
 4    1  0.1701380E-008  0.3523823E+03  0.7818608E-02  0.1061641E+00
         -2   -1    0    0    0  501 -0.00000000000E+00  0.00000000000E+00  0.50226041436E+02  0.50226041501E+02  0.25500000000E-02 0.  1.
          2   -1    0    0  501    0  0.00000000000E+00 -0.00000000000E+00 -0.26002253287E+04  0.26002253287E+04  0.25500000000E-02 0. -1.
    8880022    1    1    2    0    0 -0.77465055454E+02 -0.30786486000E+03 -0.98104365803E+03  0.10424106287E+04  0.15294330000E+03 0. -1.
    8880022    1    1    2    0    0  0.77465055454E+02  0.30786486000E+03 -0.15689556293E+04  0.16080407415E+04  0.15294330000E+03 0.  1.
<mgrwt>
<rscale>  0 0.35238226E+03</rscale>
<asrwt>0</asrwt>
<pdfrwt beam="1">  1        2 0.40003456E+00 0.35238226E+03</pdfrwt>
<pdfrwt beam="2">  1       -2 0.77270853E-02 0.35238226E+03</pdfrwt>
<totfact> 0.34682089E+02</totfact>
</mgrwt>
</event>
<event>
 4    1  0.1701380E-008  0.1165105E+04  0.7818608E-02  0.9143961E-01
          2   -1    0    0  501    0  0.00000000000E+00  0.00000000000E+00  0.30108020054E+04  0.30108020054E+04  0.25500000000E-02 0. -1.
         -2   -1    0    0    0  501 -0.00000000000E+00 -0.00000000000E+00 -0.93524935882E+03  0.93524935882E+03  0.25500000000E-02 0.  1.
    8880022    1    1    2    0    0  0.91068565278E+03  0.71044255110E+03 -0.38214270916E+03  0.12261735928E+04  0.15294330000E+03 0.  0.
    8880022    1    1    2    0    0 -0.91068565278E+03 -0.71044255110E+03  0.24576953557E+04  0.27198777714E+04  0.15294330000E+03 0.  0.
<mgrwt>
<rscale>  0 0.11651046E+04</rscale>
<asrwt>0</asrwt>
<pdfrwt beam="1">  1        2 0.46320031E+00 0.11651046E+04</pdfrwt>
<pdfrwt beam="2">  1       -2 0.14388452E+00 0.11651046E+04</pdfrwt>
<totfact> 0.56782995E-01</totfact>
</mgrwt>
</event>
<event>
 4    1  0.1701380E-008  0.6359375E+03  0.7818608E-02  0.9833530E-01
         -2   -1    0    0    0  501 -0.00000000000E+00  0.00000000000E+00  0.82345196558E+03  0.82345196558E+03  0.25500000000E-02 0.  1.
          2   -1    0    0  501    0  0.00000000000E+00 -0.00000000000E+00 -0.98481404583E+03  0.98481404584E+03  0.25500000000E-02 0. -1.
    8880022    1    1    2    0    0  0.16383151855E+03  0.59513371205E+03 -0.72083235543E+03  0.96125742615E+03  0.15294330000E+03 0.  0.
    8880022    1    1    2    0    0 -0.16383151855E+03 -0.59513371205E+03  0.55947027517E+03  0.84700858526E+03  0.15294330000E+03 0.  0.
<mgrwt>
<rscale>  0 0.63593754E+03</rscale>
<asrwt>0</asrwt>
<pdfrwt beam="1">  1        2 0.15150985E+00 0.63593754E+03</pdfrwt>
<pdfrwt beam="2">  1       -2 0.12668492E+00 0.63593754E+03</pdfrwt>
<totfact> 0.12320897E+01</totfact>
</mgrwt>
</event>
<event>
 4    1  0.1701380E-008  0.2822766E+03  0.7818608E-02  0.1094452E+00
         -2   -1    0    0    0  501 -0.00000000000E+00  0.00000000000E+00  0.23316744427E+03  0.23316744428E+03  0.25500000000E-02 0.  1.
          2   -1    0    0  501    0  0.00000000000E+00 -0.00000000000E+00 -0.10829403030E+04  0.10829403030E+04  0.25500000000E-02 0. -1.
    8880022    1    1    2    0    0  0.91752959260E+01 -0.23707430447E+03 -0.96930160681E+03  0.10095670705E+04  0.15294330000E+03 0. -1.
    8880022    1    1    2    0    0 -0.91752959260E+01  0.23707430447E+03  0.11952874806E+03  0.30654067678E+03  0.15294330000E+03 0.  0.
<mgrwt>
<rscale>  0 0.28227658E+03</rscale>
<asrwt>0</asrwt>
<pdfrwt beam="1">  1        2 0.16660620E+00 0.28227658E+03</pdfrwt>
<pdfrwt beam="2">  1       -2 0.35871915E-01 0.28227658E+03</pdfrwt>
<totfact> 0.17298657E+02</totfact>
</mgrwt>
</event>
<event>
 4    1  0.1701380E-008  0.7189146E+03  0.7818608E-02  0.9685422E-01
         -2   -1    0    0    0  501 -0.00000000000E+00  0.00000000000E+00  0.38352198105E+03  0.38352198106E+03  0.25500000000E-02 0.  1.
          2   -1    0    0  501    0  0.00000000000E+00 -0.00000000000E+00 -0.17653597716E+04  0.17653597716E+04  0.25500000000E-02 0. -1.
    8880022    1    1    2    0    0 -0.34620836913E+03 -0.61121702053E+03 -0.12135844930E+04  0.14105408380E+04  0.15294330000E+03 0.  0.
    8880022    1    1    2    0    0  0.34620836913E+03  0.61121702053E+03 -0.16825329752E+03  0.73834091461E+03  0.15294330000E+03 0.  0.
<mgrwt>
<rscale>  0 0.71891455E+03</rscale>
<asrwt>0</asrwt>
<pdfrwt beam="1">  1        2 0.27159381E+00 0.71891455E+03</pdfrwt>
<pdfrwt beam="2">  1       -2 0.59003383E-01 0.71891455E+03</pdfrwt>
<totfact> 0.24992481E+01</totfact>
</mgrwt>
</event>
<event>
 4    1  0.1701380E-008  0.1498984E+04  0.7818608E-02  0.8885129E-01
         -2   -1    0    0    0  501 -0.00000000000E+00  0.00000000000E+00  0.11124936285E+04  0.11124936285E+04  0.25500000000E-02 0.  1.
          2   -1    0    0  501    0  0.00000000000E+00 -0.00000000000E+00 -0.25235128550E+04  0.25235128550E+04  0.25500000000E-02 0. -1.
    8880022    1    1    2    0    0 -0.23336553681E+03  0.14727870418E+04 -0.15177926224E+04  0.21332246113E+04  0.15294330000E+03 0.  0.
    8880022    1    1    2    0    0  0.23336553681E+03 -0.14727870418E+04  0.10677339596E+03  0.15027818722E+04  0.15294330000E+03 0.  0.
<mgrwt>
<rscale>  0 0.14989839E+04</rscale>
<asrwt>0</asrwt>
<pdfrwt beam="1">  1        2 0.38823275E+00 0.14989839E+04</pdfrwt>
<pdfrwt beam="2">  1       -2 0.17115287E+00 0.14989839E+04</pdfrwt>
<totfact> 0.66490008E-01</totfact>
</mgrwt>
</event>
<event>
 4    1  0.1701380E-008  0.2658584E+03  0.7818608E-02  0.1103674E+00
         -2   -1    0    0    0  501 -0.00000000000E+00  0.00000000000E+00  0.20904392171E+03  0.20904392173E+03  0.25500000000E-02 0.  1.
          2   -1    0    0  501    0  0.00000000000E+00 -0.00000000000E+00 -0.11024104223E+04  0.11024104223E+04  0.25500000000E-02 0. -1.
    8880022    1    1    2    0    0  0.13358874198E+03  0.17158990464E+03 -0.99267038079E+03  0.10276551879E+04  0.15294330000E+03 0.  0.
    8880022    1    1    2    0    0 -0.13358874198E+03 -0.17158990464E+03  0.99303880215E+02  0.28379915609E+03  0.15294330000E+03 0.  1.
<mgrwt>
<rscale>  0 0.26585842E+03</rscale>
<asrwt>0</asrwt>
<pdfrwt beam="1">  1        2 0.16960160E+00 0.26585842E+03</pdfrwt>
<pdfrwt beam="2">  1       -2 0.32160604E-01 0.26585842E+03</pdfrwt>
<totfact> 0.20701628E+02</totfact>
</mgrwt>
</event>
<event>
 4    1  0.1701380E-008  0.1650794E+04  0.7818608E-02  0.8789937E-01
          2   -1    0    0  501    0  0.00000000000E+00  0.00000000000E+00  0.31860203564E+04  0.31860203564E+04  0.25500000000E-02 0. -1.
         -2   -1    0    0    0  501 -0.00000000000E+00 -0.00000000000E+00 -0.86433749611E+03  0.86433749611E+03  0.25500000000E-02 0.  1.
    8880022    1    1    2    0    0 -0.10098303609E+04  0.12969089095E+04  0.13674984328E+04  0.21436356253E+04  0.15294330000E+03 0.  0.
    8880022    1    1    2    0    0  0.10098303609E+04 -0.12969089095E+04  0.95418442749E+03  0.19067222273E+04  0.15294330000E+03 0.  0.
<mgrwt>
<rscale>  0 0.16507943E+04</rscale>
<asrwt>0</asrwt>
<pdfrwt beam="1">  1        2 0.49015697E+00 0.16507943E+04</pdfrwt>
<pdfrwt beam="2">  1       -2 0.13297500E+00 0.16507943E+04</pdfrwt>
<totfact> 0.50856969E-01</totfact>
</mgrwt>
</event>
<event>
 4    1  0.1701380E-008  0.1117777E+04  0.7818608E-02  0.9188036E-01
          2   -1    0    0  501    0  0.00000000000E+00  0.00000000000E+00  0.14945031258E+04  0.14945031258E+04  0.25500000000E-02 0. -1.
         -2   -1    0    0    0  501 -0.00000000000E+00 -0.00000000000E+00 -0.18429663634E+04  0.18429663634E+04  0.25500000000E-02 0.  1.
    8880022    1    1    2    0    0  0.11071636457E+04 -0.14916796269E+02 -0.14077143444E+04  0.17975219547E+04  0.15294330000E+03 0.  1.
    8880022    1    1    2    0    0 -0.11071636457E+04  0.14916796269E+02  0.10592511067E+04  0.15399475346E+04  0.15294330000E+03 0.  0.
<mgrwt>
<rscale>  0 0.11177770E+04</rscale>
<asrwt>0</asrwt>
<pdfrwt beam="1">  1        2 0.22992356E+00 0.11177770E+04</pdfrwt>
<pdfrwt beam="2">  1       -2 0.28353329E+00 0.11177770E+04</pdfrwt>
<totfact> 0.50475184E-01</totfact>
</mgrwt>
</event>
<event>
 4    1  0.1701380E-008  0.6702389E+03  0.7818608E-02  0.9769526E-01
         -2   -1    0    0    0  501 -0.00000000000E+00  0.00000000000E+00  0.27407263558E+03  0.27407263559E+03  0.25500000000E-02 0.  1.
          2   -1    0    0  501    0  0.00000000000E+00 -0.00000000000E+00 -0.23462189567E+04  0.23462189567E+04  0.25500000000E-02 0. -1.
    8880022    1    1    2    0    0 -0.65232597128E+03  0.17301065411E+02 -0.17553488534E+04  0.18789544300E+04  0.15294330000E+03 0.  0.
    8880022    1    1    2    0    0  0.65232597128E+03 -0.17301065411E+02 -0.31679746767E+03  0.74133716230E+03  0.15294330000E+03 0.  0.
<mgrwt>
<rscale>  0 0.67023888E+03</rscale>
<asrwt>0</asrwt>
<pdfrwt beam="1">  1        2 0.36095675E+00 0.67023888E+03</pdfrwt>
<pdfrwt beam="2">  1       -2 0.42165022E-01 0.67023888E+03</pdfrwt>
<totfact> 0.23977575E+01</totfact>
</mgrwt>
</event>
<event>
 4    1  0.1701380E-008  0.8434270E+03  0.7818608E-02  0.9499202E-01
          2   -1    0    0  501    0  0.00000000000E+00  0.00000000000E+00  0.16670121617E+04  0.16670121617E+04  0.25500000000E-02 0. -1.
         -2   -1    0    0    0  501 -0.00000000000E+00 -0.00000000000E+00 -0.23251604781E+04  0.23251604781E+04  0.25500000000E-02 0.  1.
    8880022    1    1    2    0    0 -0.63289456233E+03  0.53611752822E+03 -0.21327141320E+04  0.22934338345E+04  0.15294330000E+03 0.  0.
    8880022    1    1    2    0    0  0.63289456233E+03 -0.53611752822E+03  0.14745658156E+04  0.16987388053E+04  0.15294330000E+03 0.  0.
<mgrwt>
<rscale>  0 0.84342705E+03</rscale>
<asrwt>0</asrwt>
<pdfrwt beam="1">  1        2 0.25646341E+00 0.84342705E+03</pdfrwt>
<pdfrwt beam="2">  1       -2 0.35771700E+00 0.84342705E+03</pdfrwt>
<totfact> 0.14919194E-01</totfact>
</mgrwt>
</event>
<event>
 4    1  0.1701380E-008  0.8168524E+03  0.7818608E-02  0.9535939E-01
          2   -1    0    0  501    0  0.00000000000E+00  0.00000000000E+00  0.94289577961E+03  0.94289577961E+03  0.25500000000E-02 0. -1.
         -2   -1    0    0    0  501 -0.00000000000E+00 -0.00000000000E+00 -0.18403699859E+04  0.18403699859E+04  0.25500000000E-02 0.  1.
    8880022    1    1    2    0    0  0.44692001849E+03 -0.66642226370E+03  0.64303463901E+03  0.10395870990E+04  0.15294330000E+03 0.  0.
    8880022    1    1    2    0    0 -0.44692001849E+03  0.66642226370E+03 -0.15405088453E+04  0.17436786665E+04  0.15294330000E+03 0.  0.
<mgrwt>
<rscale>  0 0.81685237E+03</rscale>
<asrwt>0</asrwt>
<pdfrwt beam="1">  1        2 0.14506089E+00 0.81685237E+03</pdfrwt>
<pdfrwt beam="2">  1       -2 0.28313384E+00 0.81685237E+03</pdfrwt>
<totfact> 0.11384104E+00</totfact>
</mgrwt>
</event>
<event>
 4    1  0.1701380E-008  0.7636150E+03  0.7818608E-02  0.9614229E-01
         -2   -1    0    0    0  501 -0.00000000000E+00  0.00000000000E+00  0.41296619124E+03  0.41296619124E+03  0.25500000000E-02 0.  1.
          2   -1    0    0  501    0  0.00000000000E+00 -0.00000000000E+00 -0.18773621998E+04  0.18773621998E+04  0.25500000000E-02 0. -1.
    8880022    1    1    2    0    0 -0.70732516619E+03  0.24373615371E+03 -0.13023488024E+04  0.15097086671E+04  0.15294330000E+03 0.  0.
    8880022    1    1    2    0    0  0.70732516619E+03 -0.24373615371E+03 -0.16204720612E+03  0.78061972392E+03  0.15294330000E+03 0.  0.
<mgrwt>
<rscale>  0 0.76361499E+03</rscale>
<asrwt>0</asrwt>
<pdfrwt beam="1">  1        2 0.28882495E+00 0.76361499E+03</pdfrwt>
<pdfrwt beam="2">  1       -2 0.63533261E-01 0.76361499E+03</pdfrwt>
<totfact> 0.18453458E+01</totfact>
</mgrwt>
</event>
<event>
 4    1  0.1701380E-008  0.1418018E+04  0.7818608E-02  0.8940878E-01
         -2   -1    0    0    0  501 -0.00000000000E+00  0.00000000000E+00  0.10197204629E+04  0.10197204629E+04  0.25500000000E-02 0.  1.
          2   -1    0    0  501    0  0.00000000000E+00 -0.00000000000E+00 -0.30713193101E+04  0.30713193101E+04  0.25500000000E-02 0. -1.
    8880022    1    1    2    0    0  0.10258567025E+04 -0.96695482645E+03 -0.22496407999E+04  0.26592591059E+04  0.15294330000E+03 0.  0.
    8880022    1    1    2    0    0 -0.10258567025E+04  0.96695482645E+03  0.19804195273E+03  0.14317806671E+04  0.15294330000E+03 0.  0.
<mgrwt>
<rscale>  0 0.14180181E+04</rscale>
<asrwt>0</asrwt>
<pdfrwt beam="1">  1        2 0.47251066E+00 0.14180181E+04</pdfrwt>
<pdfrwt beam="2">  1       -2 0.15688007E+00 0.14180181E+04</pdfrwt>
<totfact> 0.39912640E-01</totfact>
</mgrwt>
</event>
<event>
 4    1  0.1701380E-008  0.5113095E+03  0.7818608E-02  0.1010868E+00
         -2   -1    0    0    0  501 -0.00000000000E+00  0.00000000000E+00  0.65263774972E+03  0.65263774972E+03  0.25500000000E-02 0.  1.
          2   -1    0    0  501    0  0.00000000000E+00 -0.00000000000E+00 -0.94535935235E+03  0.94535935235E+03  0.25500000000E-02 0. -1.
    8880022    1    1    2    0    0 -0.52558347972E+02 -0.48506013670E+03 -0.75289537970E+03  0.91010374241E+03  0.15294330000E+03 0.  0.
    8880022    1    1    2    0    0  0.52558347972E+02  0.48506013670E+03  0.46017377706E+03  0.68789335967E+03  0.15294330000E+03 0.  0.
<mgrwt>
<rscale>  0 0.51130947E+03</rscale>
<asrwt>0</asrwt>
<pdfrwt beam="1">  1        2 0.14543990E+00 0.51130947E+03</pdfrwt>
<pdfrwt beam="2">  1       -2 0.10040581E+00 0.51130947E+03</pdfrwt>
<totfact> 0.23386161E+01</totfact>
</mgrwt>
</event>
<event>
 4    1  0.1701380E-008  0.7629710E+03  0.7818608E-02  0.9615218E-01
          2   -1    0    0  501    0  0.00000000000E+00  0.00000000000E+00  0.28290475441E+04  0.28290475441E+04  0.25500000000E-02 0. -1.
         -2   -1    0    0    0  501 -0.00000000000E+00 -0.00000000000E+00 -0.21796498254E+03  0.21796498256E+03  0.25500000000E-02 0.  1.
    8880022    1    1    2    0    0  0.74409081145E+03  0.71147054408E+02  0.94513324239E+03  0.12146610794E+04  0.15294330000E+03 0.  0.
    8880022    1    1    2    0    0 -0.74409081145E+03 -0.71147054408E+02  0.16659493191E+04  0.18323514472E+04  0.15294330000E+03 0.  0.
<mgrwt>
<rscale>  0 0.76297096E+03</rscale>
<asrwt>0</asrwt>
<pdfrwt beam="1">  1        2 0.43523809E+00 0.76297096E+03</pdfrwt>
<pdfrwt beam="2">  1       -2 0.33533074E-01 0.76297096E+03</pdfrwt>
<totfact> 0.19422556E+01</totfact>
</mgrwt>
</event>
<event>
 4    1  0.1701380E-008  0.9515474E+03  0.7818608E-02  0.9363344E-01
          2   -1    0    0  501    0  0.00000000000E+00  0.00000000000E+00  0.11289398873E+04  0.11289398873E+04  0.25500000000E-02 0. -1.
         -2   -1    0    0    0  501 -0.00000000000E+00 -0.00000000000E+00 -0.11519764560E+04  0.11519764560E+04  0.25500000000E-02 0.  1.
    8880022    1    1    2    0    0  0.87526835716E+03 -0.34052317058E+03 -0.64009611842E+03  0.11468066186E+04  0.15294330000E+03 0.  0.
    8880022    1    1    2    0    0 -0.87526835716E+03  0.34052317058E+03  0.61705954974E+03  0.11341097247E+04  0.15294330000E+03 0.  0.
<mgrwt>
<rscale>  0 0.95154736E+03</rscale>
<asrwt>0</asrwt>
<pdfrwt beam="1">  1        2 0.17368306E+00 0.95154736E+03</pdfrwt>
<pdfrwt beam="2">  1       -2 0.17722715E+00 0.95154736E+03</pdfrwt>
<totfact> 0.39504107E+00</totfact>
</mgrwt>
</event>
<event>
 4    1  0.1701380E-008  0.1482150E+04  0.7818608E-02  0.8896411E-01
         -2   -1    0    0    0  501 -0.00000000000E+00  0.00000000000E+00  0.12633905306E+04  0.12633905306E+04  0.25500000000E-02 0.  1.
          2   -1    0    0  501    0  0.00000000000E+00 -0.00000000000E+00 -0.24315044279E+04  0.24315044279E+04  0.25500000000E-02 0. -1.
    8880022    1    1    2    0    0 -0.14578016203E+04 -0.21952467728E+03  0.40202341412E+03  0.15357054166E+04  0.15294330000E+03 0.  0.
    8880022    1    1    2    0    0  0.14578016203E+04  0.21952467728E+03 -0.15701373115E+04  0.21591895419E+04  0.15294330000E+03 0.  0.
<mgrwt>
<rscale>  0 0.14821499E+04</rscale>
<asrwt>0</asrwt>
<pdfrwt beam="1">  1        2 0.37407760E+00 0.14821499E+04</pdfrwt>
<pdfrwt beam="2">  1       -2 0.19436778E+00 0.14821499E+04</pdfrwt>
<totfact> 0.52039493E-01</totfact>
</mgrwt>
</event>
<event>
 4    1  0.2654395E-008  0.1212203E+04  0.7818608E-02  0.9102242E-01
         -2   -1    0    0    0  501 -0.00000000000E+00  0.00000000000E+00  0.23734113577E+04  0.23734113578E+04  0.25500000000E-02 0.  1.
          2   -1    0    0  501    0  0.00000000000E+00 -0.00000000000E+00 -0.11936485183E+04  0.11936485183E+04  0.25500000000E-02 0. -1.
    8880022    1    1    2    0    0  0.17776810647E+03 -0.11893032320E+04  0.18272427852E+04  0.21927725660E+04  0.15294330000E+03 0.  0.
    8880022    1    1    2    0    0 -0.17776810647E+03  0.11893032320E+04 -0.64747994576E+03  0.13742873100E+04  0.15294330000E+03 0.  0.
<mgrwt>
<rscale>  0 0.12122027E+04</rscale>
<asrwt>0</asrwt>
<pdfrwt beam="1">  1        2 0.18363824E+00 0.12122027E+04</pdfrwt>
<pdfrwt beam="2">  1       -2 0.36514020E+00 0.12122027E+04</pdfrwt>
<totfact> 0.23370565E-01</totfact>
</mgrwt>
</event>
<event>
 4    1  0.1701380E-008  0.8248248E+03  0.7818608E-02  0.9524763E-01
          2   -1    0    0  501    0  0.00000000000E+00  0.00000000000E+00  0.35770914386E+04  0.35770914386E+04  0.25500000000E-02 0. -1.
         -2   -1    0    0    0  501 -0.00000000000E+00 -0.00000000000E+00 -0.29159172992E+03  0.29159172993E+03  0.25500000000E-02 0.  1.
    8880022    1    1    2    0    0  0.66321121442E+03  0.46593479172E+03  0.50207235529E+03  0.96561516560E+03  0.15294330000E+03 0.  0.
    8880022    1    1    2    0    0 -0.66321121442E+03 -0.46593479172E+03  0.27834273534E+04  0.29030680029E+04  0.15294330000E+03 0.  0.
<mgrwt>
<rscale>  0 0.82482483E+03</rscale>
<asrwt>0</asrwt>
<pdfrwt beam="1">  1        2 0.55032171E+00 0.82482483E+03</pdfrwt>
<pdfrwt beam="2">  1       -2 0.44860270E-01 0.82482483E+03</pdfrwt>
<totfact> 0.36219405E+00</totfact>
</mgrwt>
</event>
<event>
 4    1  0.1701380E-008  0.5045740E+03  0.7818608E-02  0.1012592E+00
         -2   -1    0    0    0  501 -0.00000000000E+00  0.00000000000E+00  0.25234810605E+03  0.25234810606E+03  0.25500000000E-02 0.  1.
          2   -1    0    0  501    0  0.00000000000E+00 -0.00000000000E+00 -0.33212350529E+04  0.33212350529E+04  0.25500000000E-02 0. -1.
    8880022    1    1    2    0    0 -0.27866186162E+03  0.39185562316E+03 -0.30253455955E+04  0.30671339860E+04  0.15294330000E+03 0.  0.
    8880022    1    1    2    0    0  0.27866186162E+03 -0.39185562316E+03 -0.43541351308E+02  0.50644917298E+03  0.15294330000E+03 0.  0.
<mgrwt>
<rscale>  0 0.50457399E+03</rscale>
<asrwt>0</asrwt>
<pdfrwt beam="1">  1        2 0.51095921E+00 0.50457399E+03</pdfrwt>
<pdfrwt beam="2">  1       -2 0.38822788E-01 0.50457399E+03</pdfrwt>
<totfact> 0.77053944E+00</totfact>
</mgrwt>
</event>
<event>
 4    1  0.1701380E-008  0.7547015E+03  0.7818608E-02  0.9628003E-01
         -2   -1    0    0    0  501 -0.00000000000E+00  0.00000000000E+00  0.18014718199E+03  0.18014718201E+03  0.25500000000E-02 0.  1.
          2   -1    0    0  501    0  0.00000000000E+00 -0.00000000000E+00 -0.35955205317E+04  0.35955205317E+04  0.25500000000E-02 0. -1.
    8880022    1    1    2    0    0  0.72331656118E+03 -0.15164359635E+03 -0.23634238088E+04  0.24809970538E+04  0.15294330000E+03 0.  0.
    8880022    1    1    2    0    0 -0.72331656118E+03  0.15164359635E+03 -0.10519495409E+04  0.12946706599E+04  0.15294330000E+03 0.  0.
<mgrwt>
<rscale>  0 0.75470145E+03</rscale>
<asrwt>0</asrwt>
<pdfrwt beam="1">  1        2 0.55315695E+00 0.75470145E+03</pdfrwt>
<pdfrwt beam="2">  1       -2 0.27714954E-01 0.75470145E+03</pdfrwt>
<totfact> 0.89443995E+00</totfact>
</mgrwt>
</event>
<event>
 4    1  0.1701380E-008  0.4972432E+03  0.7818608E-02  0.1014501E+00
          2   -1    0    0  501    0  0.00000000000E+00  0.00000000000E+00  0.13956998428E+04  0.13956998428E+04  0.25500000000E-02 0. -1.
         -2   -1    0    0    0  501 -0.00000000000E+00 -0.00000000000E+00 -0.66027874117E+03  0.66027874117E+03  0.25500000000E-02 0.  1.
    8880022    1    1    2    0    0 -0.17159892526E+03  0.44092289160E+03  0.12470479187E+04  0.13425272258E+04  0.15294330000E+03 0.  0.
    8880022    1    1    2    0    0  0.17159892526E+03 -0.44092289160E+03 -0.51162681708E+03  0.71345135815E+03  0.15294330000E+03 0.  0.
<mgrwt>
<rscale>  0 0.49724324E+03</rscale>
<asrwt>0</asrwt>
<pdfrwt beam="1">  1        2 0.21472305E+00 0.49724324E+03</pdfrwt>
<pdfrwt beam="2">  1       -2 0.10158134E+00 0.49724324E+03</pdfrwt>
<totfact> 0.12326111E+01</totfact>
</mgrwt>
</event>
<event>
 4    1  0.1701380E-008  0.8066385E+03  0.7818608E-02  0.9550458E-01
         -2   -1    0    0    0  501 -0.00000000000E+00  0.00000000000E+00  0.31173230378E+03  0.31173230379E+03  0.25500000000E-02 0.  1.
          2   -1    0    0  501    0  0.00000000000E+00 -0.00000000000E+00 -0.23731649803E+04  0.23731649803E+04  0.25500000000E-02 0. -1.
    8880022    1    1    2    0    0  0.58048196918E+03 -0.53880852888E+03 -0.14966739880E+04  0.17002054660E+04  0.15294330000E+03 0. -1.
    8880022    1    1    2    0    0 -0.58048196918E+03  0.53880852888E+03 -0.56475868859E+03  0.98469181813E+03  0.15294330000E+03 0.  0.
<mgrwt>
<rscale>  0 0.80663846E+03</rscale>
<asrwt>0</asrwt>
<pdfrwt beam="1">  1        2 0.36510229E+00 0.80663846E+03</pdfrwt>
<pdfrwt beam="2">  1       -2 0.47958817E-01 0.80663846E+03</pdfrwt>
<totfact> 0.17553232E+01</totfact>
</mgrwt>
</event>
<event>
 4    1  0.1701380E-008  0.3917390E+03  0.7818608E-02  0.1046678E+00
         -2   -1    0    0    0  501 -0.00000000000E+00  0.00000000000E+00  0.12418165018E+04  0.12418165018E+04  0.25500000000E-02 0.  1.
          2   -1    0    0  501    0  0.00000000000E+00 -0.00000000000E+00 -0.71058356663E+03  0.71058356664E+03  0.25500000000E-02 0. -1.
    8880022    1    1    2    0    0  0.33238633885E+03  0.13995387428E+03 -0.62164757039E+03  0.73478236231E+03  0.15294330000E+03 0.  0.
    8880022    1    1    2    0    0 -0.33238633885E+03 -0.13995387428E+03  0.11528805056E+04  0.12176177061E+04  0.15294330000E+03 0.  0.
<mgrwt>
<rscale>  0 0.39173897E+03</rscale>
<asrwt>0</asrwt>
<pdfrwt beam="1">  1        2 0.10932055E+00 0.39173897E+03</pdfrwt>
<pdfrwt beam="2">  1       -2 0.19104869E+00 0.39173897E+03</pdfrwt>
<totfact> 0.66428652E+00</totfact>
</mgrwt>
</event>
<event>
 4    1  0.1701380E-008  0.1285757E+04  0.7818608E-02  0.9040937E-01
         -2   -1    0    0    0  501 -0.00000000000E+00  0.00000000000E+00  0.72562429797E+03  0.72562429797E+03  0.25500000000E-02 0.  1.
          2   -1    0    0  501    0  0.00000000000E+00 -0.00000000000E+00 -0.36001256049E+04  0.36001256049E+04  0.25500000000E-02 0. -1.
    8880022    1    1    2    0    0 -0.11291712923E+04  0.59561107400E+03 -0.12667015797E+03  0.12919819429E+04  0.15294330000E+03 0.  0.
    8880022    1    1    2    0    0  0.11291712923E+04 -0.59561107400E+03 -0.27478311490E+04  0.30337679600E+04  0.15294330000E+03 0.  0.
<mgrwt>
<rscale>  0 0.12857574E+04</rscale>
<asrwt>0</asrwt>
<pdfrwt beam="1">  1        2 0.55386547E+00 0.12857574E+04</pdfrwt>
<pdfrwt beam="2">  1       -2 0.11163451E+00 0.12857574E+04</pdfrwt>
<totfact> 0.43252907E-01</totfact>
</mgrwt>
</event>
<event>
 4    1  0.1701380E-008  0.9599546E+03  0.7818608E-02  0.9353590E-01
          2   -1    0    0  501    0  0.00000000000E+00  0.00000000000E+00  0.17767966929E+04  0.17767966929E+04  0.25500000000E-02 0. -1.
         -2   -1    0    0    0  501 -0.00000000000E+00 -0.00000000000E+00 -0.71006191584E+03  0.71006191585E+03  0.25500000000E-02 0.  1.
    8880022    1    1    2    0    0  0.25120772195E+03 -0.91379198439E+03  0.11789800764E+04  0.15203640301E+04  0.15294330000E+03 0.  0.
    8880022    1    1    2    0    0 -0.25120772195E+03  0.91379198439E+03 -0.11224529940E+03  0.96649457865E+03  0.15294330000E+03 0.  0.
<mgrwt>
<rscale>  0 0.95995456E+03</rscale>
<asrwt>0</asrwt>
<pdfrwt beam="1">  1        2 0.27335333E+00 0.95995456E+03</pdfrwt>
<pdfrwt beam="2">  1       -2 0.10924030E+00 0.95995456E+03</pdfrwt>
<totfact> 0.59498796E+00</totfact>
</mgrwt>
</event>
<event>
 4    1  0.1701380E-008  0.1162291E+04  0.7818608E-02  0.9146519E-01
         -2   -1    0    0    0  501 -0.00000000000E+00  0.00000000000E+00  0.12441824673E+04  0.12441824673E+04  0.25500000000E-02 0.  1.
          2   -1    0    0  501    0  0.00000000000E+00 -0.00000000000E+00 -0.14541302247E+04  0.14541302247E+04  0.25500000000E-02 0. -1.
    8880022    1    1    2    0    0 -0.79009313427E+03 -0.83861825002E+03  0.57405135526E+03  0.12963233939E+04  0.15294330000E+03 0.  0.
    8880022    1    1    2    0    0  0.79009313427E+03  0.83861825002E+03 -0.78399911266E+03  0.14019892980E+04  0.15294330000E+03 0.  0.
<mgrwt>
<rscale>  0 0.11622906E+04</rscale>
<asrwt>0</asrwt>
<pdfrwt beam="1">  1        2 0.22371234E+00 0.11622906E+04</pdfrwt>
<pdfrwt beam="2">  1       -2 0.19141269E+00 0.11622906E+04</pdfrwt>
<totfact> 0.19910213E+00</totfact>
</mgrwt>
</event>
<event>
 4    1  0.1701380E-008  0.4233569E+03  0.7818608E-02  0.1035979E+00
          2   -1    0    0  501    0  0.00000000000E+00  0.00000000000E+00  0.41350502319E+03  0.41350502320E+03  0.25500000000E-02 0. -1.
         -2   -1    0    0    0  501 -0.00000000000E+00 -0.00000000000E+00 -0.89781194067E+03  0.89781194068E+03  0.25500000000E-02 0.  1.
    8880022    1    1    2    0    0  0.35167837319E+03 -0.17933683507E+03 -0.71369111533E+03  0.82981084573E+03  0.15294330000E+03 0.  0.
    8880022    1    1    2    0    0 -0.35167837319E+03  0.17933683507E+03  0.22938419784E+03  0.48150611815E+03  0.15294330000E+03 0.  0.
<mgrwt>
<rscale>  0 0.42335686E+03</rscale>
<asrwt>0</asrwt>
<pdfrwt beam="1">  1        2 0.63616158E-01 0.42335686E+03</pdfrwt>
<pdfrwt beam="2">  1       -2 0.13812491E+00 0.42335686E+03</pdfrwt>
<totfact> 0.29771013E+01</totfact>
</mgrwt>
</event>
<event>
 4    1  0.1701380E-008  0.5236654E+03  0.7818608E-02  0.1007780E+00
          2   -1    0    0  501    0  0.00000000000E+00  0.00000000000E+00  0.11703063475E+04  0.11703063475E+04  0.25500000000E-02 0. -1.
         -2   -1    0    0    0  501 -0.00000000000E+00 -0.00000000000E+00 -0.27799229023E+03  0.27799229025E+03  0.25500000000E-02 0.  1.
    8880022    1    1    2    0    0  0.43838284636E+03  0.24218653058E+03  0.73318068085E+03  0.90098801288E+03  0.15294330000E+03 0.  0.
    8880022    1    1    2    0    0 -0.43838284636E+03 -0.24218653058E+03  0.15913337640E+03  0.54731062485E+03  0.15294330000E+03 0.  0.
<mgrwt>
<rscale>  0 0.52366544E+03</rscale>
<asrwt>0</asrwt>
<pdfrwt beam="1">  1        2 0.18004713E+00 0.52366544E+03</pdfrwt>
<pdfrwt beam="2">  1       -2 0.42768045E-01 0.52366544E+03</pdfrwt>
<totfact> 0.10600950E+02</totfact>
</mgrwt>
</event>
<event>
 4    1  0.1701380E-008  0.3620289E+03  0.7818608E-02  0.1057783E+00
         -2   -1    0    0    0  501 -0.00000000000E+00  0.00000000000E+00  0.10436565962E+03  0.10436565965E+03  0.25500000000E-02 0.  1.
          2   -1    0    0  501    0  0.00000000000E+00 -0.00000000000E+00 -0.25579941132E+04  0.25579941132E+04  0.25500000000E-02 0. -1.
    8880022    1    1    2    0    0  0.30724798710E+03  0.11520392002E+03 -0.27703907396E+03  0.45586793074E+03  0.15294330000E+03 0.  0.
    8880022    1    1    2    0    0 -0.30724798710E+03 -0.11520392002E+03 -0.21765893797E+04  0.22064918421E+04  0.15294330000E+03 0.  0.
<mgrwt>
<rscale>  0 0.36202890E+03</rscale>
<asrwt>0</asrwt>
<pdfrwt beam="1">  1        2 0.39353751E+00 0.36202890E+03</pdfrwt>
<pdfrwt beam="2">  1       -2 0.16056257E-01 0.36202890E+03</pdfrwt>
<totfact> 0.11151675E+02</totfact>
</mgrwt>
</event>
<event>
 4    1  0.1701380E-008  0.7277675E+03  0.7818608E-02  0.9670890E-01
          2   -1    0    0  501    0  0.00000000000E+00  0.00000000000E+00  0.60151270734E+03  0.60151270735E+03  0.25500000000E-02 0. -1.
         -2   -1    0    0    0  501 -0.00000000000E+00 -0.00000000000E+00 -0.13222066433E+04  0.13222066433E+04  0.25500000000E-02 0.  1.
    8880022    1    1    2    0    0 -0.35486522156E+03 -0.61670455404E+03 -0.91627419461E+03  0.11701298582E+04  0.15294330000E+03 0.  1.
    8880022    1    1    2    0    0  0.35486522156E+03  0.61670455404E+03  0.19558025866E+03  0.75358949239E+03  0.15294330000E+03 0.  0.
<mgrwt>
<rscale>  0 0.72776747E+03</rscale>
<asrwt>0</asrwt>
<pdfrwt beam="1">  1        2 0.92540417E-01 0.72776747E+03</pdfrwt>
<pdfrwt beam="2">  1       -2 0.20341641E+00 0.72776747E+03</pdfrwt>
<totfact> 0.63927369E+00</totfact>
</mgrwt>
</event>
<event>
 4    1  0.1701380E-008  0.1021777E+04  0.7818608E-02  0.9284978E-01
          2   -1    0    0  501    0  0.00000000000E+00  0.00000000000E+00  0.86695291465E+03  0.86695291466E+03  0.25500000000E-02 0. -1.
         -2   -1    0    0    0  501 -0.00000000000E+00 -0.00000000000E+00 -0.12409781907E+04  0.12409781907E+04  0.25500000000E-02 0.  1.
    8880022    1    1    2    0    0 -0.67892447914E+03  0.74812963897E+03 -0.36833193954E+03  0.10861383318E+04  0.15294330000E+03 0.  0.
    8880022    1    1    2    0    0  0.67892447914E+03 -0.74812963897E+03 -0.56933365331E+01  0.10217927736E+04  0.15294330000E+03 0.  0.
<mgrwt>
<rscale>  0 0.10217769E+04</rscale>
<asrwt>0</asrwt>
<pdfrwt beam="1">  1        2 0.13337737E+00 0.10217769E+04</pdfrwt>
<pdfrwt beam="2">  1       -2 0.19091972E+00 0.10217769E+04</pdfrwt>
<totfact> 0.46728045E+00</totfact>
</mgrwt>
</event>
<event>
 4    1  0.1701380E-008  0.5457722E+03  0.7818608E-02  0.1002477E+00
          2   -1    0    0  501    0  0.00000000000E+00  0.00000000000E+00  0.46674001762E+03  0.46674001763E+03  0.25500000000E-02 0. -1.
         -2   -1    0    0    0  501 -0.00000000000E+00 -0.00000000000E+00 -0.23759964320E+04  0.23759964320E+04  0.25500000000E-02 0.  1.
    8880022    1    1    2    0    0 -0.17140365890E+03 -0.49507212043E+03 -0.21702117810E+04  0.22377860590E+04  0.15294330000E+03 0.  0.
    8880022    1    1    2    0    0  0.17140365890E+03  0.49507212043E+03  0.26095536660E+03  0.60495039060E+03  0.15294330000E+03 0.  0.
<mgrwt>
<rscale>  0 0.54577218E+03</rscale>
<asrwt>0</asrwt>
<pdfrwt beam="1">  1        2 0.71806158E-01 0.54577218E+03</pdfrwt>
<pdfrwt beam="2">  1       -2 0.36553790E+00 0.54577218E+03</pdfrwt>
<totfact> 0.91324907E-01</totfact>
</mgrwt>
</event>
<event>
 4    1  0.1701380E-008  0.1647413E+04  0.7818608E-02  0.8791938E-01
          2   -1    0    0  501    0  0.00000000000E+00  0.00000000000E+00  0.18805927803E+04  0.18805927803E+04  0.25500000000E-02 0. -1.
         -2   -1    0    0    0  501 -0.00000000000E+00 -0.00000000000E+00 -0.16559358584E+04  0.16559358584E+04  0.25500000000E-02 0.  1.
    8880022    1    1    2    0    0  0.11758277031E+03 -0.16360785854E+04 -0.52154211543E+03  0.17279978810E+04  0.15294330000E+03 0.  0.
    8880022    1    1    2    0    0 -0.11758277031E+03  0.16360785854E+04  0.74619903738E+03  0.18085307578E+04  0.15294330000E+03 0.  0.
<mgrwt>
<rscale>  0 0.16474133E+04</rscale>
<asrwt>0</asrwt>
<pdfrwt beam="1">  1        2 0.28932196E+00 0.16474133E+04</pdfrwt>
<pdfrwt beam="2">  1       -2 0.25475936E+00 0.16474133E+04</pdfrwt>
<totfact> 0.43204798E-01</totfact>
</mgrwt>
</event>
<event>
 4    1  0.1701380E-008  0.1485572E+04  0.7818608E-02  0.8894104E-01
          2   -1    0    0  501    0  0.00000000000E+00  0.00000000000E+00  0.27550085328E+04  0.27550085328E+04  0.25500000000E-02 0. -1.
         -2   -1    0    0    0  501 -0.00000000000E+00 -0.00000000000E+00 -0.17318170851E+04  0.17318170851E+04  0.25500000000E-02 0.  1.
    8880022    1    1    2    0    0 -0.11326616810E+04 -0.94900474068E+03 -0.11330661120E+04  0.18683583566E+04  0.15294330000E+03 0.  0.
    8880022    1    1    2    0    0  0.11326616810E+04  0.94900474068E+03  0.21562575597E+04  0.26184672613E+04  0.15294330000E+03 0.  0.
<mgrwt>
<rscale>  0 0.14855720E+04</rscale>
<asrwt>0</asrwt>
<pdfrwt beam="1">  1        2 0.42384746E+00 0.14855720E+04</pdfrwt>
<pdfrwt beam="2">  1       -2 0.26643340E+00 0.14855720E+04</pdfrwt>
<totfact> 0.11801467E-01</totfact>
</mgrwt>
</event>
<event>
 4    1  0.1701380E-008  0.1030792E+04  0.7818608E-02  0.9275402E-01
          2   -1    0    0  501    0  0.00000000000E+00  0.00000000000E+00  0.13241849554E+04  0.13241849554E+04  0.25500000000E-02 0. -1.
         -2   -1    0    0    0  501 -0.00000000000E+00 -0.00000000000E+00 -0.10822876353E+04  0.10822876353E+04  0.25500000000E-02 0.  1.
    8880022    1    1    2    0    0 -0.98529990699E+03 -0.26139153098E+03  0.73283010182E+03  0.12647422861E+04  0.15294330000E+03 0.  0.
    8880022    1    1    2    0    0  0.98529990699E+03  0.26139153098E+03 -0.49093278168E+03  0.11417303046E+04  0.15294330000E+03 0.  0.
<mgrwt>
<rscale>  0 0.10307925E+04</rscale>
<asrwt>0</asrwt>
<pdfrwt beam="1">  1        2 0.20372076E+00 0.10307925E+04</pdfrwt>
<pdfrwt beam="2">  1       -2 0.16650579E+00 0.10307925E+04</pdfrwt>
<totfact> 0.35707368E+00</totfact>
</mgrwt>
</event>
<event>
 4    1  0.1701380E-008  0.6102039E+03  0.7818608E-02  0.9884460E-01
          2   -1    0    0  501    0  0.00000000000E+00  0.00000000000E+00  0.11942434507E+04  0.11942434507E+04  0.25500000000E-02 0. -1.
         -2   -1    0    0    0  501 -0.00000000000E+00 -0.00000000000E+00 -0.69797963131E+03  0.69797963132E+03  0.25500000000E-02 0.  1.
    8880022    1    1    2    0    0 -0.18689400311E+03 -0.56038177488E+03  0.95188991315E+03  0.11306826088E+04  0.15294330000E+03 0.  0.
    8880022    1    1    2    0    0  0.18689400311E+03  0.56038177488E+03 -0.45562609378E+03  0.76154047323E+03  0.15294330000E+03 0.  0.
<mgrwt>
<rscale>  0 0.61020386E+03</rscale>
<asrwt>0</asrwt>
<pdfrwt beam="1">  1        2 0.18372976E+00 0.61020386E+03</pdfrwt>
<pdfrwt beam="2">  1       -2 0.10738148E+00 0.61020386E+03</pdfrwt>
<totfact> 0.13807808E+01</totfact>
</mgrwt>
</event>
<event>
 4    1  0.1701380E-008  0.7909028E+03  0.7818608E-02  0.9573279E-01
          2   -1    0    0  501    0  0.00000000000E+00  0.00000000000E+00  0.62916993200E+03  0.62916993200E+03  0.25500000000E-02 0. -1.
         -2   -1    0    0    0  501 -0.00000000000E+00 -0.00000000000E+00 -0.23631695417E+04  0.23631695417E+04  0.25500000000E-02 0.  1.
    8880022    1    1    2    0    0  0.66435455833E+03 -0.40095970046E+03  0.27175091068E+03  0.83628695496E+03  0.15294330000E+03 0.  0.
    8880022    1    1    2    0    0 -0.66435455833E+03  0.40095970046E+03 -0.20057505204E+04  0.21560525187E+04  0.15294330000E+03 0.  0.
<mgrwt>
<rscale>  0 0.79090285E+03</rscale>
<asrwt>0</asrwt>
<pdfrwt beam="1">  1        2 0.96795375E-01 0.79090285E+03</pdfrwt>
<pdfrwt beam="2">  1       -2 0.36356454E+00 0.79090285E+03</pdfrwt>
<totfact> 0.62728001E-01</totfact>
</mgrwt>
</event>
<event>
 4    1  0.1701380E-008  0.1298775E+04  0.7818608E-02  0.9030537E-01
          2   -1    0    0  501    0  0.00000000000E+00  0.00000000000E+00  0.13451006238E+04  0.13451006238E+04  0.25500000000E-02 0. -1.
         -2   -1    0    0    0  501 -0.00000000000E+00 -0.00000000000E+00 -0.12888346875E+04  0.12888346875E+04  0.25500000000E-02 0.  1.
    8880022    1    1    2    0    0 -0.51144209488E+03  0.11839983136E+04 -0.18823946583E+03  0.13123455233E+04  0.15294330000E+03 0.  0.
    8880022    1    1    2    0    0  0.51144209488E+03 -0.11839983136E+04  0.24450540212E+03  0.13215897880E+04  0.15294330000E+03 0.  0.
<mgrwt>
<rscale>  0 0.12987751E+04</rscale>
<asrwt>0</asrwt>
<pdfrwt beam="1">  1        2 0.20693856E+00 0.12987751E+04</pdfrwt>
<pdfrwt beam="2">  1       -2 0.19828226E+00 0.12987751E+04</pdfrwt>
<totfact> 0.20415927E+00</totfact>
</mgrwt>
</event>
<event>
 4    1  0.1701380E-008  0.1634934E+04  0.7818608E-02  0.8799369E-01
         -2   -1    0    0    0  501 -0.00000000000E+00  0.00000000000E+00  0.68533781822E+03  0.68533781822E+03  0.25500000000E-02 0.  1.
          2   -1    0    0  501    0  0.00000000000E+00 -0.00000000000E+00 -0.46068343780E+04  0.46068343780E+04  0.25500000000E-02 0. -1.
    8880022    1    1    2    0    0 -0.14399958768E+04  0.75896632607E+03 -0.29970240491E+04  0.34139658483E+04  0.15294330000E+03 0.  0.
    8880022    1    1    2    0    0  0.14399958768E+04 -0.75896632607E+03 -0.92447251066E+03  0.18782063479E+04  0.15294330000E+03 0.  0.
<mgrwt>
<rscale>  0 0.16349341E+04</rscale>
<asrwt>0</asrwt>
<pdfrwt beam="1">  1        2 0.70874373E+00 0.16349341E+04</pdfrwt>
<pdfrwt beam="2">  1       -2 0.10543659E+00 0.16349341E+04</pdfrwt>
<totfact> 0.67413300E-02</totfact>
</mgrwt>
</event>
<event>
 4    1  0.1701380E-008  0.1292756E+04  0.7818608E-02  0.9035330E-01
         -2   -1    0    0    0  501 -0.00000000000E+00  0.00000000000E+00  0.72258249036E+03  0.72258249036E+03  0.25500000000E-02 0.  1.
          2   -1    0    0  501    0  0.00000000000E+00 -0.00000000000E+00 -0.23341811853E+04  0.23341811853E+04  0.25500000000E-02 0. -1.
    8880022    1    1    2    0    0  0.81884970050E+03 -0.98859068250E+03 -0.65965933841E+03  0.14513333405E+04  0.15294330000E+03 0.  0.
    8880022    1    1    2    0    0 -0.81884970050E+03  0.98859068250E+03 -0.95193935656E+03  0.16054303352E+04  0.15294330000E+03 0.  0.
<mgrwt>
<rscale>  0 0.12927560E+04</rscale>
<asrwt>0</asrwt>
<pdfrwt beam="1">  1        2 0.35910479E+00 0.12927560E+04</pdfrwt>
<pdfrwt beam="2">  1       -2 0.11116654E+00 0.12927560E+04</pdfrwt>
<totfact> 0.26936240E+00</totfact>
</mgrwt>
</event>
<event>
 4    1  0.1701380E-008  0.7717487E+03  0.7818608E-02  0.9601835E-01
          2   -1    0    0  501    0  0.00000000000E+00  0.00000000000E+00  0.31215812386E+04  0.31215812386E+04  0.25500000000E-02 0. -1.
         -2   -1    0    0    0  501 -0.00000000000E+00 -0.00000000000E+00 -0.26989236355E+03  0.26989236357E+03  0.25500000000E-02 0.  1.
    8880022    1    1    2    0    0 -0.29307201391E+03  0.69736160145E+03  0.50786729936E+03  0.92386430567E+03  0.15294330000E+03 0.  0.
    8880022    1    1    2    0    0  0.29307201391E+03 -0.69736160145E+03  0.23438215757E+04  0.24676092965E+04  0.15294330000E+03 0.  0.
<mgrwt>
<rscale>  0 0.77174870E+03</rscale>
<asrwt>0</asrwt>
<pdfrwt beam="1">  1        2 0.48024327E+00 0.77174870E+03</pdfrwt>
<pdfrwt beam="2">  1       -2 0.41521901E-01 0.77174870E+03</pdfrwt>
<totfact> 0.85201778E+00</totfact>
</mgrwt>
</event>
<event>
 4    1  0.4937562E-008  0.1330270E+04  0.7818608E-02  0.9005900E-01
         -2   -1    0    0    0  501 -0.00000000000E+00  0.00000000000E+00  0.20800047378E+04  0.20800047378E+04  0.25500000000E-02 0.  1.
          2   -1    0    0  501    0  0.00000000000E+00 -0.00000000000E+00 -0.30961650973E+04  0.30961650973E+04  0.25500000000E-02 0. -1.
    8880022    1    1    2    0    0  0.92552282146E+03 -0.94320366457E+03 -0.27120838281E+04  0.30207641400E+04  0.15294330000E+03 0.  0.
    8880022    1    1    2    0    0 -0.92552282146E+03  0.94320366457E+03  0.16959234686E+04  0.21554056950E+04  0.15294330000E+03 0.  0.
<mgrwt>
<rscale>  0 0.13302696E+04</rscale>
<asrwt>0</asrwt>
<pdfrwt beam="1">  1        2 0.47633309E+00 0.13302696E+04</pdfrwt>
<pdfrwt beam="2">  1       -2 0.32000073E+00 0.13302696E+04</pdfrwt>
<totfact> 0.35105252E-02</totfact>
</mgrwt>
</event>
<event>
 4    1  0.1701380E-008  0.8038596E+03  0.7818608E-02  0.9554447E-01
         -2   -1    0    0    0  501 -0.00000000000E+00  0.00000000000E+00  0.95345865958E+03  0.95345865959E+03  0.25500000000E-02 0.  1.
          2   -1    0    0  501    0  0.00000000000E+00 -0.00000000000E+00 -0.42911235111E+04  0.42911235111E+04  0.25500000000E-02 0. -1.
    8880022    1    1    2    0    0 -0.77306462176E+03  0.15864967324E+03 -0.40751494758E+04  0.41536771096E+04  0.15294330000E+03 0.  0.
    8880022    1    1    2    0    0  0.77306462176E+03 -0.15864967324E+03  0.73748462424E+03  0.10909050611E+04  0.15294330000E+03 0.  0.
<mgrwt>
<rscale>  0 0.80385962E+03</rscale>
<asrwt>0</asrwt>
<pdfrwt beam="1">  1        2 0.66017283E+00 0.80385962E+03</pdfrwt>
<pdfrwt beam="2">  1       -2 0.14668595E+00 0.80385962E+03</pdfrwt>
<totfact> 0.68487903E-02</totfact>
</mgrwt>
</event>
<event>
 4    1  0.1701380E-008  0.6277567E+03  0.7818608E-02  0.9849436E-01
         -2   -1    0    0    0  501 -0.00000000000E+00  0.00000000000E+00  0.11115953104E+04  0.11115953104E+04  0.25500000000E-02 0.  1.
          2   -1    0    0  501    0  0.00000000000E+00 -0.00000000000E+00 -0.15292775567E+04  0.15292775567E+04  0.25500000000E-02 0. -1.
    8880022    1    1    2    0    0  0.47837131108E+03 -0.37662676435E+03 -0.13661497160E+04  0.15034771466E+04  0.15294330000E+03 0.  0.
    8880022    1    1    2    0    0 -0.47837131108E+03  0.37662676435E+03  0.94846746974E+03  0.11373957205E+04  0.15294330000E+03 0.  0.
<mgrwt>
<rscale>  0 0.62775671E+03</rscale>
<asrwt>0</asrwt>
<pdfrwt beam="1">  1        2 0.23527347E+00 0.62775671E+03</pdfrwt>
<pdfrwt beam="2">  1       -2 0.17101466E+00 0.62775671E+03</pdfrwt>
<totfact> 0.26959708E+00</totfact>
</mgrwt>
</event>
<event>
 4    1  0.1701380E-008  0.3797560E+03  0.7818608E-02  0.1051024E+00
         -2   -1    0    0    0  501 -0.00000000000E+00  0.00000000000E+00  0.52853064512E+03  0.52853064513E+03  0.25500000000E-02 0.  1.
          2   -1    0    0  501    0  0.00000000000E+00 -0.00000000000E+00 -0.63710242157E+03  0.63710242158E+03  0.25500000000E-02 0. -1.
    8880022    1    1    2    0    0 -0.14487252143E+03  0.31596658845E+03  0.38639358409E+03  0.54176986565E+03  0.15294330000E+03 0.  0.
    8880022    1    1    2    0    0  0.14487252143E+03 -0.31596658845E+03 -0.49496536054E+03  0.62386320106E+03  0.15294330000E+03 0. -1.
<mgrwt>
<rscale>  0 0.37975596E+03</rscale>
<asrwt>0</asrwt>
<pdfrwt beam="1">  1        2 0.98015757E-01 0.37975596E+03</pdfrwt>
<pdfrwt beam="2">  1       -2 0.81312407E-01 0.37975596E+03</pdfrwt>
<totfact> 0.64343352E+01</totfact>
</mgrwt>
</event>
<event>
 4    1  0.1701380E-008  0.4937045E+03  0.7818608E-02  0.1015435E+00
          2   -1    0    0  501    0  0.00000000000E+00  0.00000000000E+00  0.22897916028E+04  0.22897916028E+04  0.25500000000E-02 0. -1.
         -2   -1    0    0    0  501 -0.00000000000E+00 -0.00000000000E+00 -0.15534489729E+03  0.15534489732E+03  0.25500000000E-02 0.  1.
    8880022    1    1    2    0    0 -0.32391695929E+03 -0.33975038812E+03  0.17531290594E+04  0.18213197618E+04  0.15294330000E+03 0. -1.
    8880022    1    1    2    0    0  0.32391695929E+03  0.33975038812E+03  0.38131764605E+03  0.62381673827E+03  0.15294330000E+03 0.  1.
<mgrwt>
<rscale>  0 0.49370454E+03</rscale>
<asrwt>0</asrwt>
<pdfrwt beam="1">  1        2 0.35227566E+00 0.49370454E+03</pdfrwt>
<pdfrwt beam="2">  1       -2 0.23899213E-01 0.49370454E+03</pdfrwt>
<totfact> 0.76681273E+01</totfact>
</mgrwt>
</event>
<event>
 4    1  0.1701380E-008  0.1279607E+04  0.7818608E-02  0.9045896E-01
         -2   -1    0    0    0  501 -0.00000000000E+00  0.00000000000E+00  0.22001476305E+04  0.22001476305E+04  0.25500000000E-02 0.  1.
          2   -1    0    0  501    0  0.00000000000E+00 -0.00000000000E+00 -0.13620655013E+04  0.13620655013E+04  0.25500000000E-02 0. -1.
    8880022    1    1    2    0    0 -0.75590523409E+03 -0.10210819861E+04  0.16186260564E+04  0.20633330097E+04  0.15294330000E+03 0.  0.
    8880022    1    1    2    0    0  0.75590523409E+03  0.10210819861E+04 -0.78054392716E+03  0.14988801221E+04  0.15294330000E+03 0.  0.
<mgrwt>
<rscale>  0 0.12796065E+04</rscale>
<asrwt>0</asrwt>
<pdfrwt beam="1">  1        2 0.20954854E+00 0.12796065E+04</pdfrwt>
<pdfrwt beam="2">  1       -2 0.33848425E+00 0.12796065E+04</pdfrwt>
<totfact> 0.27092017E-01</totfact>
</mgrwt>
</event>
<event>
 4    1  0.1701380E-008  0.6905511E+03  0.7818608E-02  0.9733529E-01
          2   -1    0    0  501    0  0.00000000000E+00  0.00000000000E+00  0.23114888525E+04  0.23114888525E+04  0.25500000000E-02 0. -1.
         -2   -1    0    0    0  501 -0.00000000000E+00 -0.00000000000E+00 -0.69916280708E+03  0.69916280708E+03  0.25500000000E-02 0.  1.
    8880022    1    1    2    0    0 -0.35606101756E+03  0.57156777365E+03  0.20700383919E+04  0.21821823401E+04  0.15294330000E+03 0.  0.
    8880022    1    1    2    0    0  0.35606101756E+03 -0.57156777365E+03 -0.45771234657E+03  0.82846931948E+03  0.15294330000E+03 0.  1.
<mgrwt>
<rscale>  0 0.69055110E+03</rscale>
<asrwt>0</asrwt>
<pdfrwt beam="1">  1        2 0.35561367E+00 0.69055110E+03</pdfrwt>
<pdfrwt beam="2">  1       -2 0.10756351E+00 0.69055110E+03</pdfrwt>
<totfact> 0.32732179E+00</totfact>
</mgrwt>
</event>
<event>
 4    1  0.1701380E-008  0.5326054E+03  0.7818608E-02  0.1005602E+00
         -2   -1    0    0    0  501 -0.00000000000E+00  0.00000000000E+00  0.34782244327E+03  0.34782244328E+03  0.25500000000E-02 0.  1.
          2   -1    0    0  501    0  0.00000000000E+00 -0.00000000000E+00 -0.10522178874E+04  0.10522178874E+04  0.25500000000E-02 0. -1.
    8880022    1    1    2    0    0  0.49009872983E+03 -0.14170430921E+03 -0.68418563467E+03  0.86705162011E+03  0.15294330000E+03 0.  0.
    8880022    1    1    2    0    0 -0.49009872983E+03  0.14170430921E+03 -0.20209809498E+02  0.53298871061E+03  0.15294330000E+03 0.  0.
<mgrwt>
<rscale>  0 0.53260542E+03</rscale>
<asrwt>0</asrwt>
<pdfrwt beam="1">  1        2 0.16187967E+00 0.53260542E+03</pdfrwt>
<pdfrwt beam="2">  1       -2 0.53511146E-01 0.53260542E+03</pdfrwt>
<totfact> 0.79554109E+01</totfact>
</mgrwt>
</event>
<event>
 4    1  0.1701380E-008  0.1414008E+04  0.7818608E-02  0.8943741E-01
          2   -1    0    0  501    0  0.00000000000E+00  0.00000000000E+00  0.17672252807E+04  0.17672252807E+04  0.25500000000E-02 0. -1.
         -2   -1    0    0    0  501 -0.00000000000E+00 -0.00000000000E+00 -0.14594125510E+04  0.14594125510E+04  0.25500000000E-02 0.  1.
    8880022    1    1    2    0    0  0.12573910126E+04 -0.62848521823E+03  0.91877061132E+03  0.16862849455E+04  0.15294330000E+03 0.  0.
    8880022    1    1    2    0    0 -0.12573910126E+04  0.62848521823E+03 -0.61095788163E+03  0.15403528863E+04  0.15294330000E+03 0.  0.
<mgrwt>
<rscale>  0 0.14140076E+04</rscale>
<asrwt>0</asrwt>
<pdfrwt beam="1">  1        2 0.27188081E+00 0.14140076E+04</pdfrwt>
<pdfrwt beam="2">  1       -2 0.22452501E+00 0.14140076E+04</pdfrwt>
<totfact> 0.78882035E-01</totfact>
</mgrwt>
</event>
<event>
 4    1  0.1701380E-008  0.3960878E+03  0.7818608E-02  0.1045143E+00
          2   -1    0    0  501    0  0.00000000000E+00  0.00000000000E+00  0.10766256669E+04  0.10766256669E+04  0.25500000000E-02 0. -1.
         -2   -1    0    0    0  501 -0.00000000000E+00 -0.00000000000E+00 -0.18026199671E+03  0.18026199673E+03  0.25500000000E-02 0.  1.
    8880022    1    1    2    0    0  0.68754379989E+01 -0.36530350324E+03  0.17308223714E+03  0.43225343834E+03  0.15294330000E+03 0.  0.
    8880022    1    1    2    0    0 -0.68754379989E+01  0.36530350324E+03  0.72328143307E+03  0.82463422531E+03  0.15294330000E+03 0.  0.
<mgrwt>
<rscale>  0 0.39608784E+03</rscale>
<asrwt>0</asrwt>
<pdfrwt beam="1">  1        2 0.16563472E+00 0.39608784E+03</pdfrwt>
<pdfrwt beam="2">  1       -2 0.27732615E-01 0.39608784E+03</pdfrwt>
<totfact> 0.27657965E+02</totfact>
</mgrwt>
</event>
<event>
 4    1  0.1701380E-008  0.1587969E+04  0.7818608E-02  0.8827974E-01
          2   -1    0    0  501    0  0.00000000000E+00  0.00000000000E+00  0.46207829373E+04  0.46207829373E+04  0.25500000000E-02 0. -1.
         -2   -1    0    0    0  501 -0.00000000000E+00 -0.00000000000E+00 -0.81990985243E+03  0.81990985243E+03  0.25500000000E-02 0.  1.
    8880022    1    1    2    0    0 -0.11868599659E+04  0.10438470292E+04  0.32729298836E+03  0.16213468328E+04  0.15294330000E+03 0.  0.
    8880022    1    1    2    0    0  0.11868599659E+04 -0.10438470292E+04  0.34735800966E+04  0.38193459570E+04  0.15294330000E+03 0.  0.
<mgrwt>
<rscale>  0 0.15879688E+04</rscale>
<asrwt>0</asrwt>
<pdfrwt beam="1">  1        2 0.71088967E+00 0.15879688E+04</pdfrwt>
<pdfrwt beam="2">  1       -2 0.12613998E+00 0.15879688E+04</pdfrwt>
<totfact> 0.42093740E-02</totfact>
</mgrwt>
</event>
<event>
 4    1  0.1701380E-008  0.5633999E+03  0.7818608E-02  0.9984391E-01
          2   -1    0    0  501    0  0.00000000000E+00  0.00000000000E+00  0.40021998761E+04  0.40021998761E+04  0.25500000000E-02 0. -1.
         -2   -1    0    0    0  501 -0.00000000000E+00 -0.00000000000E+00 -0.25748537620E+03  0.25748537622E+03  0.25500000000E-02 0.  1.
    8880022    1    1    2    0    0  0.52946370866E+03  0.11702983765E+03  0.36440709988E+04  0.36873666618E+04  0.15294330000E+03 0.  0.
    8880022    1    1    2    0    0 -0.52946370866E+03 -0.11702983765E+03  0.10064350114E+03  0.57231859050E+03  0.15294330000E+03 0.  0.
<mgrwt>
<rscale>  0 0.56339991E+03</rscale>
<asrwt>0</asrwt>
<pdfrwt beam="1">  1        2 0.61572307E+00 0.56339991E+03</pdfrwt>
<pdfrwt beam="2">  1       -2 0.39613134E-01 0.56339991E+03</pdfrwt>
<totfact> 0.23967566E+00</totfact>
</mgrwt>
</event>
<event>
 4    1  0.1701380E-008  0.8171458E+03  0.7818608E-02  0.9535526E-01
         -2   -1    0    0    0  501 -0.00000000000E+00  0.00000000000E+00  0.92449656962E+03  0.92449656962E+03  0.25500000000E-02 0.  1.
          2   -1    0    0  501    0  0.00000000000E+00 -0.00000000000E+00 -0.91503898953E+03  0.91503898953E+03  0.25500000000E-02 0. -1.
    8880022    1    1    2    0    0  0.54567124010E+03  0.58870912212E+03  0.42689929138E+03  0.92193827925E+03  0.15294330000E+03 0.  0.
    8880022    1    1    2    0    0 -0.54567124010E+03 -0.58870912212E+03 -0.41744171130E+03  0.91759727990E+03  0.15294330000E+03 0.  0.
<mgrwt>
<rscale>  0 0.81714576E+03</rscale>
<asrwt>0</asrwt>
<pdfrwt beam="1">  1        2 0.14077523E+00 0.81714576E+03</pdfrwt>
<pdfrwt beam="2">  1       -2 0.14223024E+00 0.81714576E+03</pdfrwt>
<totfact> 0.99645110E+00</totfact>
</mgrwt>
</event>
<event>
 4    1  0.1701380E-008  0.8645484E+03  0.7818608E-02  0.9471016E-01
          2   -1    0    0  501    0  0.00000000000E+00  0.00000000000E+00  0.17574132035E+04  0.17574132035E+04  0.25500000000E-02 0. -1.
         -2   -1    0    0    0  501 -0.00000000000E+00 -0.00000000000E+00 -0.15686930503E+04  0.15686930503E+04  0.25500000000E-02 0.  1.
    8880022    1    1    2    0    0  0.69077770853E+03  0.49686855173E+03  0.15141797187E+04  0.17436123634E+04  0.15294330000E+03 0.  0.
    8880022    1    1    2    0    0 -0.69077770853E+03 -0.49686855173E+03 -0.13254595655E+04  0.15824938904E+04  0.15294330000E+03 0.  0.
<mgrwt>
<rscale>  0 0.86454835E+03</rscale>
<asrwt>0</asrwt>
<pdfrwt beam="1">  1        2 0.27037126E+00 0.86454835E+03</pdfrwt>
<pdfrwt beam="2">  1       -2 0.24133739E+00 0.86454835E+03</pdfrwt>
<totfact> 0.67711226E-01</totfact>
</mgrwt>
</event>
<event>
 4    1  0.1701380E-008  0.9757674E+03  0.7818608E-02  0.9335529E-01
          2   -1    0    0  501    0  0.00000000000E+00  0.00000000000E+00  0.22582663505E+04  0.22582663505E+04  0.25500000000E-02 0. -1.
         -2   -1    0    0    0  501 -0.00000000000E+00 -0.00000000000E+00 -0.77871614900E+03  0.77871614900E+03  0.25500000000E-02 0.  1.
    8880022    1    1    2    0    0  0.93358585155E+03  0.23905598156E+03 -0.28851942000E+03  0.10175290724E+04  0.15294330000E+03 0.  0.
    8880022    1    1    2    0    0 -0.93358585155E+03 -0.23905598156E+03  0.17680696215E+04  0.20194534270E+04  0.15294330000E+03 0.  0.
<mgrwt>
<rscale>  0 0.97576737E+03</rscale>
<asrwt>0</asrwt>
<pdfrwt beam="1">  1        2 0.34742559E+00 0.97576737E+03</pdfrwt>
<pdfrwt beam="2">  1       -2 0.11980249E+00 0.97576737E+03</pdfrwt>
<totfact> 0.25684739E+00</totfact>
</mgrwt>
</event>
<event>
 4    1  0.1701380E-008  0.9247063E+03  0.7818608E-02  0.9395214E-01
          2   -1    0    0  501    0  0.00000000000E+00  0.00000000000E+00  0.86038982479E+03  0.86038982479E+03  0.25500000000E-02 0. -1.
         -2   -1    0    0    0  501 -0.00000000000E+00 -0.00000000000E+00 -0.18829371658E+04  0.18829371658E+04  0.25500000000E-02 0.  1.
    8880022    1    1    2    0    0 -0.81989925649E+03 -0.39931856315E+03 -0.14538283830E+04  0.17229912146E+04  0.15294330000E+03 0.  0.
    8880022    1    1    2    0    0  0.81989925649E+03  0.39931856315E+03  0.43128104189E+03  0.10203357760E+04  0.15294330000E+03 0.  0.
<mgrwt>
<rscale>  0 0.92470631E+03</rscale>
<asrwt>0</asrwt>
<pdfrwt beam="1">  1        2 0.13236767E+00 0.92470631E+03</pdfrwt>
<pdfrwt beam="2">  1       -2 0.28968264E+00 0.92470631E+03</pdfrwt>
<totfact> 0.11623964E+00</totfact>
</mgrwt>
</event>
<event>
 4    1  0.1701380E-008  0.1137529E+04  0.7818608E-02  0.9169367E-01
         -2   -1    0    0    0  501 -0.00000000000E+00  0.00000000000E+00  0.10885051259E+04  0.10885051259E+04  0.25500000000E-02 0.  1.
          2   -1    0    0  501    0  0.00000000000E+00 -0.00000000000E+00 -0.19741621469E+04  0.19741621469E+04  0.25500000000E-02 0. -1.
    8880022    1    1    2    0    0  0.35584042243E+03  0.10695593111E+04  0.52305443577E+03  0.12520212147E+04  0.15294330000E+03 0.  0.
    8880022    1    1    2    0    0 -0.35584042243E+03 -0.10695593111E+04 -0.14087114567E+04  0.18106460581E+04  0.15294330000E+03 0.  0.
<mgrwt>
<rscale>  0 0.11375285E+04</rscale>
<asrwt>0</asrwt>
<pdfrwt beam="1">  1        2 0.30371725E+00 0.11375285E+04</pdfrwt>
<pdfrwt beam="2">  1       -2 0.16746233E+00 0.11375285E+04</pdfrwt>
<totfact> 0.15031046E+00</totfact>
</mgrwt>
</event>
<event>
 4    1  0.1701380E-008  0.1719957E+04  0.7818608E-02  0.8750063E-01
          2   -1    0    0  501    0  0.00000000000E+00  0.00000000000E+00  0.15292481571E+04  0.15292481571E+04  0.25500000000E-02 0. -1.
         -2   -1    0    0    0  501 -0.00000000000E+00 -0.00000000000E+00 -0.20310734974E+04  0.20310734974E+04  0.25500000000E-02 0.  1.
    8880022    1    1    2    0    0 -0.89686477463E+03 -0.14596214710E+04 -0.63918776421E+03  0.18348879840E+04  0.15294330000E+03 0.  0.
    8880022    1    1    2    0    0  0.89686477463E+03  0.14596214710E+04  0.13736242389E+03  0.17254336705E+04  0.15294330000E+03 0.  0.
<mgrwt>
<rscale>  0 0.17199572E+04</rscale>
<asrwt>0</asrwt>
<pdfrwt beam="1">  1        2 0.23526895E+00 0.17199572E+04</pdfrwt>
<pdfrwt beam="2">  1       -2 0.31247285E+00 0.17199572E+04</pdfrwt>
<totfact> 0.29955567E-01</totfact>
</mgrwt>
</event>
<event>
 4    1  0.1701380E-008  0.5248267E+03  0.7818608E-02  0.1007495E+00
          2   -1    0    0  501    0  0.00000000000E+00  0.00000000000E+00  0.48846239537E+03  0.48846239537E+03  0.25500000000E-02 0. -1.
         -2   -1    0    0    0  501 -0.00000000000E+00 -0.00000000000E+00 -0.14240953185E+04  0.14240953185E+04  0.25500000000E-02 0.  1.
    8880022    1    1    2    0    0 -0.78084068478E+02 -0.49593783388E+03 -0.12110306520E+04  0.13198630042E+04  0.15294330000E+03 0.  0.
    8880022    1    1    2    0    0  0.78084068478E+02  0.49593783388E+03  0.27539772883E+03  0.59269470968E+03  0.15294330000E+03 0.  0.
<mgrwt>
<rscale>  0 0.52482674E+03</rscale>
<asrwt>0</asrwt>
<pdfrwt beam="1">  1        2 0.75148062E-01 0.52482674E+03</pdfrwt>
<pdfrwt beam="2">  1       -2 0.21909158E+00 0.52482674E+03</pdfrwt>
<totfact> 0.66900084E+00</totfact>
</mgrwt>
</event>
<event>
 4    1  0.1701380E-008  0.3819653E+03  0.7818608E-02  0.1050210E+00
         -2   -1    0    0    0  501 -0.00000000000E+00  0.00000000000E+00  0.10572544415E+04  0.10572544415E+04  0.25500000000E-02 0.  1.
          2   -1    0    0  501    0  0.00000000000E+00 -0.00000000000E+00 -0.24770645217E+03  0.24770645218E+03  0.25500000000E-02 0. -1.
    8880022    1    1    2    0    0  0.10127154168E+03  0.33503712677E+03  0.83900594611E+03  0.92186139527E+03  0.15294330000E+03 0.  0.
    8880022    1    1    2    0    0 -0.10127154168E+03 -0.33503712677E+03 -0.29457956757E+02  0.38309949843E+03  0.15294330000E+03 0.  0.
<mgrwt>
<rscale>  0 0.38196525E+03</rscale>
<asrwt>0</asrwt>
<pdfrwt beam="1">  1        2 0.38108684E-01 0.38196525E+03</pdfrwt>
<pdfrwt beam="2">  1       -2 0.16265453E+00 0.38196525E+03</pdfrwt>
<totfact> 0.34257964E+01</totfact>
</mgrwt>
</event>
<event>
 4    1  0.1701380E-008  0.7678445E+03  0.7818608E-02  0.9607764E-01
          2   -1    0    0  501    0  0.00000000000E+00  0.00000000000E+00  0.28405653494E+04  0.28405653494E+04  0.25500000000E-02 0. -1.
         -2   -1    0    0    0  501 -0.00000000000E+00 -0.00000000000E+00 -0.72563439778E+03  0.72563439778E+03  0.25500000000E-02 0.  1.
    8880022    1    1    2    0    0 -0.43436754985E+03 -0.61442516878E+03  0.25641183087E+04  0.26766187271E+04  0.15294330000E+03 0.  0.
    8880022    1    1    2    0    0  0.43436754985E+03  0.61442516878E+03 -0.44918735711E+03  0.88958102003E+03  0.15294330000E+03 0.  0.
<mgrwt>
<rscale>  0 0.76784446E+03</rscale>
<asrwt>0</asrwt>
<pdfrwt beam="1">  1        2 0.43701005E+00 0.76784446E+03</pdfrwt>
<pdfrwt beam="2">  1       -2 0.11163606E+00 0.76784446E+03</pdfrwt>
<totfact> 0.14655710E+00</totfact>
</mgrwt>
</event>
<event>
 4    1  0.1701380E-008  0.5596881E+03  0.7818608E-02  0.9992761E-01
          2   -1    0    0  501    0  0.00000000000E+00  0.00000000000E+00  0.13897197275E+04  0.13897197275E+04  0.25500000000E-02 0. -1.
         -2   -1    0    0    0  501 -0.00000000000E+00 -0.00000000000E+00 -0.37200143956E+03  0.37200143957E+03  0.25500000000E-02 0.  1.
    8880022    1    1    2    0    0 -0.37323763403E+03  0.38801132863E+03 -0.44103141473E+02  0.56142306927E+03  0.15294330000E+03 0.  0.
    8880022    1    1    2    0    0  0.37323763403E+03 -0.38801132863E+03  0.10618214294E+04  0.12002980978E+04  0.15294330000E+03 0. -1.
<mgrwt>
<rscale>  0 0.55968811E+03</rscale>
<asrwt>0</asrwt>
<pdfrwt beam="1">  1        2 0.21380304E+00 0.55968811E+03</pdfrwt>
<pdfrwt beam="2">  1       -2 0.57230990E-01 0.55968811E+03</pdfrwt>
<totfact> 0.43824240E+01</totfact>
</mgrwt>
</event>
<event>
 4    1  0.1701380E-008  0.1683164E+04  0.7818608E-02  0.8771025E-01
         -2   -1    0    0    0  501 -0.00000000000E+00  0.00000000000E+00  0.11618345451E+04  0.11618345451E+04  0.25500000000E-02 0.  1.
          2   -1    0    0  501    0  0.00000000000E+00 -0.00000000000E+00 -0.40097599731E+04  0.40097599731E+04  0.25500000000E-02 0. -1.
    8880022    1    1    2    0    0 -0.13884337175E+04 -0.93909684081E+03 -0.30426766626E+04  0.34772005968E+04  0.15294330000E+03 0.  0.
    8880022    1    1    2    0    0  0.13884337175E+04  0.93909684081E+03  0.19475123454E+03  0.16943939214E+04  0.15294330000E+03 0.  0.
<mgrwt>
<rscale>  0 0.16831645E+04</rscale>
<asrwt>0</asrwt>
<pdfrwt beam="1">  1        2 0.61688614E+00 0.16831645E+04</pdfrwt>
<pdfrwt beam="2">  1       -2 0.17874378E+00 0.16831645E+04</pdfrwt>
<totfact> 0.58049078E-02</totfact>
</mgrwt>
</event>
<event>
 4    1  0.1701380E-008  0.6238892E+03  0.7818608E-02  0.9857047E-01
         -2   -1    0    0    0  501 -0.00000000000E+00  0.00000000000E+00  0.18351209502E+04  0.18351209502E+04  0.25500000000E-02 0.  1.
          2   -1    0    0  501    0  0.00000000000E+00 -0.00000000000E+00 -0.33001938100E+03  0.33001938101E+03  0.25500000000E-02 0. -1.
    8880022    1    1    2    0    0  0.59774866293E+03  0.92425969403E+02  0.10545231325E+03  0.63273838767E+03  0.15294330000E+03 0.  0.
    8880022    1    1    2    0    0 -0.59774866293E+03 -0.92425969403E+02  0.13996492559E+04  0.15324019435E+04  0.15294330000E+03 0.  0.
<mgrwt>
<rscale>  0 0.62388915E+03</rscale>
<asrwt>0</asrwt>
<pdfrwt beam="1">  1        2 0.50772212E-01 0.62388915E+03</pdfrwt>
<pdfrwt beam="2">  1       -2 0.28232630E+00 0.62388915E+03</pdfrwt>
<totfact> 0.42421195E+00</totfact>
</mgrwt>
</event>
<event>
 4    1  0.1701380E-008  0.1481520E+04  0.7818608E-02  0.8896836E-01
         -2   -1    0    0    0  501 -0.00000000000E+00  0.00000000000E+00  0.73441862230E+03  0.73441862230E+03  0.25500000000E-02 0.  1.
          2   -1    0    0  501    0  0.00000000000E+00 -0.00000000000E+00 -0.34785306702E+04  0.34785306702E+04  0.25500000000E-02 0. -1.
    8880022    1    1    2    0    0 -0.83908057276E+03  0.12113849795E+04 -0.58153248187E+03  0.15915657249E+04  0.15294330000E+03 0.  0.
    8880022    1    1    2    0    0  0.83908057276E+03 -0.12113849795E+04 -0.21625795660E+04  0.26213835676E+04  0.15294330000E+03 0.  0.
<mgrwt>
<rscale>  0 0.14815200E+04</rscale>
<asrwt>0</asrwt>
<pdfrwt beam="1">  1        2 0.53515855E+00 0.14815200E+04</pdfrwt>
<pdfrwt beam="2">  1       -2 0.11298748E+00 0.14815200E+04</pdfrwt>
<totfact> 0.49796651E-01</totfact>
</mgrwt>
</event>
<event>
 4    1  0.1701380E-008  0.3066737E+03  0.7818608E-02  0.1081951E+00
          2   -1    0    0  501    0  0.00000000000E+00  0.00000000000E+00  0.93185815239E+03  0.93185815239E+03  0.25500000000E-02 0. -1.
         -2   -1    0    0    0  501 -0.00000000000E+00 -0.00000000000E+00 -0.15148118133E+04  0.15148118133E+04  0.25500000000E-02 0.  1.
    8880022    1    1    2    0    0  0.12194272054E+03  0.23619287400E+03  0.89040271274E+03  0.94173549614E+03  0.15294330000E+03 0. -1.
    8880022    1    1    2    0    0 -0.12194272054E+03 -0.23619287400E+03 -0.14733563736E+04  0.15049344695E+04  0.15294330000E+03 0.  0.
<mgrwt>
<rscale>  0 0.30667369E+03</rscale>
<asrwt>0</asrwt>
<pdfrwt beam="1">  1        2 0.14336279E+00 0.30667369E+03</pdfrwt>
<pdfrwt beam="2">  1       -2 0.23304797E+00 0.30667369E+03</pdfrwt>
<totfact> 0.26208140E+00</totfact>
</mgrwt>
</event>
<event>
 4    1  0.1701380E-008  0.6120247E+03  0.7818608E-02  0.9880768E-01
          2   -1    0    0  501    0  0.00000000000E+00  0.00000000000E+00  0.15938883982E+04  0.15938883982E+04  0.25500000000E-02 0. -1.
         -2   -1    0    0    0  501 -0.00000000000E+00 -0.00000000000E+00 -0.81484558984E+03  0.81484558985E+03  0.25500000000E-02 0.  1.
    8880022    1    1    2    0    0  0.91561597545E+02 -0.58549038749E+03  0.14054774548E+04  0.15329517438E+04  0.15294330000E+03 0. -1.
    8880022    1    1    2    0    0 -0.91561597545E+02  0.58549038749E+03 -0.62643464644E+03  0.87578224421E+03  0.15294330000E+03 0.  0.
<mgrwt>
<rscale>  0 0.61202465E+03</rscale>
<asrwt>0</asrwt>
<pdfrwt beam="1">  1        2 0.24521360E+00 0.61202465E+03</pdfrwt>
<pdfrwt beam="2">  1       -2 0.12536086E+00 0.61202465E+03</pdfrwt>
<totfact> 0.56247558E+00</totfact>
</mgrwt>
</event>
<event>
 4    1  0.1701380E-008  0.1449459E+04  0.7818608E-02  0.8918776E-01
          2   -1    0    0  501    0  0.00000000000E+00  0.00000000000E+00  0.87726913511E+03  0.87726913511E+03  0.25500000000E-02 0. -1.
         -2   -1    0    0    0  501 -0.00000000000E+00 -0.00000000000E+00 -0.45603554252E+04  0.45603554252E+04  0.25500000000E-02 0.  1.
    8880022    1    1    2    0    0  0.18307112906E+03 -0.14296935405E+04  0.31980805505E+02  0.14498113957E+04  0.15294330000E+03 0.  0.
    8880022    1    1    2    0    0 -0.18307112906E+03  0.14296935405E+04 -0.37150670956E+04  0.39878131647E+04  0.15294330000E+03 0.  0.
<mgrwt>
<rscale>  0 0.14494586E+04</rscale>
<asrwt>0</asrwt>
<pdfrwt beam="1">  1        2 0.13496449E+00 0.14494586E+04</pdfrwt>
<pdfrwt beam="2">  1       -2 0.70159313E+00 0.14494586E+04</pdfrwt>
<totfact> 0.64353182E-03</totfact>
</mgrwt>
</event>
<event>
 4    1  0.1701380E-008  0.6643902E+03  0.7818608E-02  0.9780145E-01
          2   -1    0    0  501    0  0.00000000000E+00  0.00000000000E+00  0.39402105655E+03  0.39402105656E+03  0.25500000000E-02 0. -1.
         -2   -1    0    0    0  501 -0.00000000000E+00 -0.00000000000E+00 -0.14754482794E+04  0.14754482794E+04  0.25500000000E-02 0.  1.
    8880022    1    1    2    0    0  0.64562309304E+03  0.34547885111E+02 -0.99932274367E+03  0.12000251388E+04  0.15294330000E+03 0.  0.
    8880022    1    1    2    0    0 -0.64562309304E+03 -0.34547885111E+02 -0.82104479180E+02  0.66944419719E+03  0.15294330000E+03 0.  0.
<mgrwt>
<rscale>  0 0.66439024E+03</rscale>
<asrwt>0</asrwt>
<pdfrwt beam="1">  1        2 0.60618625E-01 0.66439024E+03</pdfrwt>
<pdfrwt beam="2">  1       -2 0.22699204E+00 0.66439024E+03</pdfrwt>
<totfact> 0.74675289E+00</totfact>
</mgrwt>
</event>
<event>
 4    1  0.1701380E-008  0.4388168E+03  0.7818608E-02  0.1031110E+00
          2   -1    0    0  501    0  0.00000000000E+00  0.00000000000E+00  0.15118895549E+04  0.15118895549E+04  0.25500000000E-02 0. -1.
         -2   -1    0    0    0  501 -0.00000000000E+00 -0.00000000000E+00 -0.73944161262E+03  0.73944161262E+03  0.25500000000E-02 0.  1.
    8880022    1    1    2    0    0  0.19418451626E+03  0.36257534731E+03  0.14103672631E+04  0.14770565252E+04  0.15294330000E+03 0. -1.
    8880022    1    1    2    0    0 -0.19418451626E+03 -0.36257534731E+03 -0.63791932082E+03  0.77427464231E+03  0.15294330000E+03 0.  0.
<mgrwt>
<rscale>  0 0.43881677E+03</rscale>
<asrwt>0</asrwt>
<pdfrwt beam="1">  1        2 0.23259839E+00 0.43881677E+03</pdfrwt>
<pdfrwt beam="2">  1       -2 0.11376025E+00 0.43881677E+03</pdfrwt>
<totfact> 0.82170614E+00</totfact>
</mgrwt>
</event>
<event>
 4    1  0.1701380E-008  0.4363268E+03  0.7818608E-02  0.1031880E+00
          2   -1    0    0  501    0  0.00000000000E+00  0.00000000000E+00  0.41795461877E+03  0.41795461878E+03  0.25500000000E-02 0. -1.
         -2   -1    0    0    0  501 -0.00000000000E+00 -0.00000000000E+00 -0.18775412089E+04  0.18775412089E+04  0.25500000000E-02 0.  1.
    8880022    1    1    2    0    0  0.25663870766E+02 -0.40783667653E+03 -0.17286584722E+04  0.17828744082E+04  0.15294330000E+03 0.  0.
    8880022    1    1    2    0    0 -0.25663870766E+02  0.40783667653E+03  0.26907188204E+03  0.51262141948E+03  0.15294330000E+03 0.  0.
<mgrwt>
<rscale>  0 0.43632676E+03</rscale>
<asrwt>0</asrwt>
<pdfrwt beam="1">  1        2 0.64300712E-01 0.43632676E+03</pdfrwt>
<pdfrwt beam="2">  1       -2 0.28885249E+00 0.43632676E+03</pdfrwt>
<totfact> 0.30984498E+00</totfact>
</mgrwt>
</event>
<event>
 4    1  0.1701380E-008  0.1884753E+04  0.7818608E-02  0.8662483E-01
          2   -1    0    0  501    0  0.00000000000E+00  0.00000000000E+00  0.35122851111E+04  0.35122851111E+04  0.25500000000E-02 0. -1.
         -2   -1    0    0    0  501 -0.00000000000E+00 -0.00000000000E+00 -0.11867344579E+04  0.11867344579E+04  0.25500000000E-02 0.  1.
    8880022    1    1    2    0    0 -0.14794140694E+04  0.11576852745E+04  0.20658954449E+04  0.27964650589E+04  0.15294330000E+03 0.  0.
    8880022    1    1    2    0    0  0.14794140694E+04 -0.11576852745E+04  0.25965520831E+03  0.19025545101E+04  0.15294330000E+03 0.  0.
<mgrwt>
<rscale>  0 0.18847527E+04</rscale>
<asrwt>0</asrwt>
<pdfrwt beam="1">  1        2 0.54035156E+00 0.18847527E+04</pdfrwt>
<pdfrwt beam="2">  1       -2 0.18257453E+00 0.18847527E+04</pdfrwt>
<totfact> 0.12587542E-01</totfact>
</mgrwt>
</event>
<event>
 4    1  0.1701380E-008  0.1084036E+04  0.7818608E-02  0.9220893E-01
          2   -1    0    0  501    0  0.00000000000E+00  0.00000000000E+00  0.12488727898E+04  0.12488727898E+04  0.25500000000E-02 0. -1.
         -2   -1    0    0    0  501 -0.00000000000E+00 -0.00000000000E+00 -0.11192333327E+04  0.11192333327E+04  0.25500000000E-02 0.  1.
    8880022    1    1    2    0    0 -0.93678188648E+03  0.52362328404E+03  0.53738296316E+03  0.12099230341E+04  0.15294330000E+03 0.  0.
    8880022    1    1    2    0    0  0.93678188648E+03 -0.52362328404E+03 -0.40774350603E+03  0.11581830884E+04  0.15294330000E+03 0.  0.
<mgrwt>
<rscale>  0 0.10840357E+04</rscale>
<asrwt>0</asrwt>
<pdfrwt beam="1">  1        2 0.19213428E+00 0.10840357E+04</pdfrwt>
<pdfrwt beam="2">  1       -2 0.17218974E+00 0.10840357E+04</pdfrwt>
<totfact> 0.35791718E+00</totfact>
</mgrwt>
</event>
<event>
 4    1  0.1701380E-008  0.7336490E+03  0.7818608E-02  0.9661358E-01
          2   -1    0    0  501    0  0.00000000000E+00  0.00000000000E+00  0.13889044803E+04  0.13889044803E+04  0.25500000000E-02 0. -1.
         -2   -1    0    0    0  501 -0.00000000000E+00 -0.00000000000E+00 -0.12055490467E+04  0.12055490467E+04  0.25500000000E-02 0.  1.
    8880022    1    1    2    0    0  0.62116814793E+03  0.35916468013E+03  0.11602537443E+04  0.13727452567E+04  0.15294330000E+03 0.  0.
    8880022    1    1    2    0    0 -0.62116814793E+03 -0.35916468013E+03 -0.97689831070E+03  0.12217082704E+04  0.15294330000E+03 0.  0.
<mgrwt>
<rscale>  0 0.73364895E+03</rscale>
<asrwt>0</asrwt>
<pdfrwt beam="1">  1        2 0.21367761E+00 0.73364895E+03</pdfrwt>
<pdfrwt beam="2">  1       -2 0.18546908E+00 0.73364895E+03</pdfrwt>
<totfact> 0.25179458E+00</totfact>
</mgrwt>
</event>
<event>
 4    1  0.1701380E-008  0.4031765E+03  0.7818608E-02  0.1042685E+00
          2   -1    0    0  501    0  0.00000000000E+00  0.00000000000E+00  0.17475267817E+04  0.17475267817E+04  0.25500000000E-02 0. -1.
         -2   -1    0    0    0  501 -0.00000000000E+00 -0.00000000000E+00 -0.19220885166E+03  0.19220885167E+03  0.25500000000E-02 0.  1.
    8880022    1    1    2    0    0 -0.25489417007E+03  0.27237579756E+03  0.80933167263E+02  0.41121945918E+03  0.15294330000E+03 0.  0.
    8880022    1    1    2    0    0  0.25489417007E+03 -0.27237579756E+03  0.14743847627E+04  0.15285161741E+04  0.15294330000E+03 0.  0.
<mgrwt>
<rscale>  0 0.40317647E+03</rscale>
<asrwt>0</asrwt>
<pdfrwt beam="1">  1        2 0.26885027E+00 0.40317647E+03</pdfrwt>
<pdfrwt beam="2">  1       -2 0.29570593E-01 0.40317647E+03</pdfrwt>
<totfact> 0.10393076E+02</totfact>
</mgrwt>
</event>
<event>
 4    1  0.1701380E-008  0.1149815E+04  0.7818608E-02  0.9157954E-01
         -2   -1    0    0    0  501 -0.00000000000E+00  0.00000000000E+00  0.11016553968E+04  0.11016553969E+04  0.25500000000E-02 0.  1.
          2   -1    0    0  501    0  0.00000000000E+00 -0.00000000000E+00 -0.15028747944E+04  0.15028747944E+04  0.25500000000E-02 0. -1.
    8880022    1    1    2    0    0  0.48777844864E+02  0.11385536014E+04 -0.78514641420E+03  0.13923110738E+04  0.15294330000E+03 0.  0.
    8880022    1    1    2    0    0 -0.48777844864E+02 -0.11385536014E+04  0.38392701666E+03  0.12122191174E+04  0.15294330000E+03 0.  0.
<mgrwt>
<rscale>  0 0.11498153E+04</rscale>
<asrwt>0</asrwt>
<pdfrwt beam="1">  1        2 0.23121151E+00 0.11498153E+04</pdfrwt>
<pdfrwt beam="2">  1       -2 0.16948545E+00 0.11498153E+04</pdfrwt>
<totfact> 0.26526620E+00</totfact>
</mgrwt>
</event>
<event>
 4    1  0.1701380E-008  0.4262711E+03  0.7818608E-02  0.1035044E+00
         -2   -1    0    0    0  501 -0.00000000000E+00  0.00000000000E+00  0.20951292014E+03  0.20951292015E+03  0.25500000000E-02 0.  1.
          2   -1    0    0  501    0  0.00000000000E+00 -0.00000000000E+00 -0.89097163481E+03  0.89097163481E+03  0.25500000000E-02 0. -1.
    8880022    1    1    2    0    0 -0.24778085532E+03 -0.31131980812E+03 -0.43044961944E+03  0.60580021713E+03  0.15294330000E+03 0.  0.
    8880022    1    1    2    0    0  0.24778085532E+03  0.31131980812E+03 -0.25100909523E+03  0.49468433783E+03  0.15294330000E+03 0.  0.
<mgrwt>
<rscale>  0 0.42627107E+03</rscale>
<asrwt>0</asrwt>
<pdfrwt beam="1">  1        2 0.13707256E+00 0.42627107E+03</pdfrwt>
<pdfrwt beam="2">  1       -2 0.32232757E-01 0.42627107E+03</pdfrwt>
<totfact> 0.27405695E+02</totfact>
</mgrwt>
</event>
<event>
 4    1  0.1701380E-008  0.2514092E+03  0.7818608E-02  0.1112417E+00
         -2   -1    0    0    0  501 -0.00000000000E+00  0.00000000000E+00  0.38061005352E+02  0.38061005437E+02  0.25500000000E-02 0.  1.
          2   -1    0    0  501    0  0.00000000000E+00 -0.00000000000E+00 -0.25459095199E+04  0.25459095199E+04  0.25500000000E-02 0. -1.
    8880022    1    1    2    0    0 -0.15210181097E+03  0.12915103440E+03 -0.20157708782E+04  0.20313884013E+04  0.15294330000E+03 0.  0.
    8880022    1    1    2    0    0  0.15210181097E+03 -0.12915103440E+03 -0.49207763641E+03  0.55258212409E+03  0.15294330000E+03 0.  0.
<mgrwt>
<rscale>  0 0.25140924E+03</rscale>
<asrwt>0</asrwt>
<pdfrwt beam="1">  1        2 0.39167825E+00 0.25140924E+03</pdfrwt>
<pdfrwt beam="2">  1       -2 0.58555413E-02 0.25140924E+03</pdfrwt>
<totfact> 0.58410000E+02</totfact>
</mgrwt>
</event>
<event>
 4    1  0.1701380E-008  0.1661065E+04  0.7818608E-02  0.8783887E-01
         -2   -1    0    0    0  501 -0.00000000000E+00  0.00000000000E+00  0.17753127269E+04  0.17753127269E+04  0.25500000000E-02 0.  1.
          2   -1    0    0  501    0  0.00000000000E+00 -0.00000000000E+00 -0.32453804622E+04  0.32453804622E+04  0.25500000000E-02 0. -1.
    8880022    1    1    2    0    0 -0.16516345336E+04 -0.88597869292E+02  0.10771393200E+04  0.19797391199E+04  0.15294330000E+03 0.  0.
    8880022    1    1    2    0    0  0.16516345336E+04  0.88597869292E+02 -0.25472070554E+04  0.30409540692E+04  0.15294330000E+03 0.  0.
<mgrwt>
<rscale>  0 0.16610653E+04</rscale>
<asrwt>0</asrwt>
<pdfrwt beam="1">  1        2 0.49928930E+00 0.16610653E+04</pdfrwt>
<pdfrwt beam="2">  1       -2 0.27312504E+00 0.16610653E+04</pdfrwt>
<totfact> 0.51800742E-02</totfact>
</mgrwt>
</event>
<event>
 4    1  0.1701380E-008  0.7762466E+03  0.7818608E-02  0.9595050E-01
         -2   -1    0    0    0  501 -0.00000000000E+00  0.00000000000E+00  0.51472614916E+03  0.51472614916E+03  0.25500000000E-02 0.  1.
          2   -1    0    0  501    0  0.00000000000E+00 -0.00000000000E+00 -0.41292379102E+04  0.41292379102E+04  0.25500000000E-02 0. -1.
    8880022    1    1    2    0    0 -0.55275086758E+03 -0.52310000144E+03 -0.37727280906E+04  0.38517575250E+04  0.15294330000E+03 0.  0.
    8880022    1    1    2    0    0  0.55275086758E+03  0.52310000144E+03  0.15821632953E+03  0.79220653434E+03  0.15294330000E+03 0.  0.
<mgrwt>
<rscale>  0 0.77624660E+03</rscale>
<asrwt>0</asrwt>
<pdfrwt beam="1">  1        2 0.63526735E+00 0.77624660E+03</pdfrwt>
<pdfrwt beam="2">  1       -2 0.79188641E-01 0.77624660E+03</pdfrwt>
<totfact> 0.42107539E-01</totfact>
</mgrwt>
</event>
<event>
 4    1  0.1701380E-008  0.1444800E+04  0.7818608E-02  0.8922013E-01
         -2   -1    0    0    0  501 -0.00000000000E+00  0.00000000000E+00  0.10198822019E+04  0.10198822019E+04  0.25500000000E-02 0.  1.
          2   -1    0    0  501    0  0.00000000000E+00 -0.00000000000E+00 -0.30099796228E+04  0.30099796228E+04  0.25500000000E-02 0. -1.
    8880022    1    1    2    0    0 -0.14282268798E+04 -0.15563877513E+03  0.14478786508E+03  0.14520367170E+04  0.15294330000E+03 0.  0.
    8880022    1    1    2    0    0  0.14282268798E+04  0.15563877513E+03 -0.21348852860E+04  0.25778251077E+04  0.15294330000E+03 0.  0.
<mgrwt>
<rscale>  0 0.14448000E+04</rscale>
<asrwt>0</asrwt>
<pdfrwt beam="1">  1        2 0.46307378E+00 0.14448000E+04</pdfrwt>
<pdfrwt beam="2">  1       -2 0.15690496E+00 0.14448000E+04</pdfrwt>
<totfact> 0.43449589E-01</totfact>
</mgrwt>
</event>
<event>
 4    1  0.1701380E-008  0.1910718E+04  0.7818608E-02  0.8649540E-01
          2   -1    0    0  501    0  0.00000000000E+00  0.00000000000E+00  0.12868356161E+04  0.12868356161E+04  0.25500000000E-02 0. -1.
         -2   -1    0    0    0  501 -0.00000000000E+00 -0.00000000000E+00 -0.35591583044E+04  0.35591583044E+04  0.25500000000E-02 0.  1.
    8880022    1    1    2    0    0  0.71593792970E+03  0.17649036858E+04 -0.44786040947E+02  0.19112429416E+04  0.15294330000E+03 0.  0.
    8880022    1    1    2    0    0 -0.71593792970E+03 -0.17649036858E+04 -0.22275366473E+04  0.29347509788E+04  0.15294330000E+03 0.  0.
<mgrwt>
<rscale>  0 0.19107181E+04</rscale>
<asrwt>0</asrwt>
<pdfrwt beam="1">  1        2 0.19797471E+00 0.19107181E+04</pdfrwt>
<pdfrwt beam="2">  1       -2 0.54756281E+00 0.19107181E+04</pdfrwt>
<totfact> 0.13097293E-02</totfact>
</mgrwt>
</event>
<event>
 4    1  0.1701380E-008  0.3928027E+03  0.7818608E-02  0.1046301E+00
         -2   -1    0    0    0  501 -0.00000000000E+00  0.00000000000E+00  0.16912226102E+03  0.16912226103E+03  0.25500000000E-02 0.  1.
          2   -1    0    0  501    0  0.00000000000E+00 -0.00000000000E+00 -0.15265863429E+04  0.15265863429E+04  0.25500000000E-02 0. -1.
    8880022    1    1    2    0    0 -0.14578836961E+03 -0.33113151136E+03 -0.14091054964E+03  0.41731254779E+03  0.15294330000E+03 0.  1.
    8880022    1    1    2    0    0  0.14578836961E+03  0.33113151136E+03 -0.12165535322E+04  0.12783960561E+04  0.15294330000E+03 0.  0.
<mgrwt>
<rscale>  0 0.39280272E+03</rscale>
<asrwt>0</asrwt>
<pdfrwt beam="1">  1        2 0.23485943E+00 0.39280272E+03</pdfrwt>
<pdfrwt beam="2">  1       -2 0.26018810E-01 0.39280272E+03</pdfrwt>
<totfact> 0.17261084E+02</totfact>
</mgrwt>
</event>
<event>
 4    1  0.1701380E-008  0.3998472E+03  0.7818608E-02  0.1043833E+00
         -2   -1    0    0    0  501 -0.00000000000E+00  0.00000000000E+00  0.30090672236E+03  0.30090672237E+03  0.25500000000E-02 0.  1.
          2   -1    0    0  501    0  0.00000000000E+00 -0.00000000000E+00 -0.29892698481E+04  0.29892698481E+04  0.25500000000E-02 0. -1.
    8880022    1    1    2    0    0 -0.19731308461E+03 -0.31233582962E+03 -0.28359216226E+04  0.28639708844E+04  0.15294330000E+03 0.  0.
    8880022    1    1    2    0    0  0.19731308461E+03  0.31233582962E+03  0.14755849691E+03  0.42620568608E+03  0.15294330000E+03 0.  0.
<mgrwt>
<rscale>  0 0.39984719E+03</rscale>
<asrwt>0</asrwt>
<pdfrwt beam="1">  1        2 0.45988765E+00 0.39984719E+03</pdfrwt>
<pdfrwt beam="2">  1       -2 0.46293344E-01 0.39984719E+03</pdfrwt>
<totfact> 0.90878120E+00</totfact>
</mgrwt>
</event>
<event>
 4    1  0.1701380E-008  0.6697700E+03  0.7818608E-02  0.9770373E-01
         -2   -1    0    0    0  501 -0.00000000000E+00  0.00000000000E+00  0.48882761544E+03  0.48882761545E+03  0.25500000000E-02 0.  1.
          2   -1    0    0  501    0  0.00000000000E+00 -0.00000000000E+00 -0.29535716260E+04  0.29535716260E+04  0.25500000000E-02 0. -1.
    8880022    1    1    2    0    0 -0.64222709842E+03  0.11289185940E+03 -0.26613772557E+04  0.27443616322E+04  0.15294330000E+03 0.  0.
    8880022    1    1    2    0    0  0.64222709842E+03 -0.11289185940E+03  0.19663324516E+03  0.69803760929E+03  0.15294330000E+03 0.  0.
<mgrwt>
<rscale>  0 0.66977001E+03</rscale>
<asrwt>0</asrwt>
<pdfrwt beam="1">  1        2 0.45439562E+00 0.66977001E+03</pdfrwt>
<pdfrwt beam="2">  1       -2 0.75204250E-01 0.66977001E+03</pdfrwt>
<totfact> 0.32018953E+00</totfact>
</mgrwt>
</event>
<event>
 4    1  0.1701380E-008  0.4750719E+03  0.7818608E-02  0.1020498E+00
          2   -1    0    0  501    0  0.00000000000E+00  0.00000000000E+00  0.28073319326E+04  0.28073319326E+04  0.25500000000E-02 0. -1.
         -2   -1    0    0    0  501 -0.00000000000E+00 -0.00000000000E+00 -0.32000945359E+03  0.32000945360E+03  0.25500000000E-02 0.  1.
    8880022    1    1    2    0    0 -0.78855529601E+02 -0.44281307765E+03 -0.10941136867E+03  0.48750806855E+03  0.15294330000E+03 0.  0.
    8880022    1    1    2    0    0  0.78855529601E+02  0.44281307765E+03  0.25967338477E+04  0.26398333176E+04  0.15294330000E+03 0.  0.
<mgrwt>
<rscale>  0 0.47507186E+03</rscale>
<asrwt>0</asrwt>
<pdfrwt beam="1">  1        2 0.43189721E+00 0.47507186E+03</pdfrwt>
<pdfrwt beam="2">  1       -2 0.49232225E-01 0.47507186E+03</pdfrwt>
<totfact> 0.10049664E+01</totfact>
</mgrwt>
</event>
<event>
 4    1  0.1701380E-008  0.1025451E+04  0.7818608E-02  0.9281063E-01
          2   -1    0    0  501    0  0.00000000000E+00  0.00000000000E+00  0.35973159241E+04  0.35973159241E+04  0.25500000000E-02 0. -1.
         -2   -1    0    0    0  501 -0.00000000000E+00 -0.00000000000E+00 -0.72694416735E+03  0.72694416735E+03  0.25500000000E-02 0.  1.
    8880022    1    1    2    0    0  0.55344929320E+03 -0.84961839608E+03  0.31070106162E+04  0.32718594348E+04  0.15294330000E+03 0. -1.
    8880022    1    1    2    0    0 -0.55344929320E+03  0.84961839608E+03 -0.23663885950E+03  0.10524006566E+04  0.15294330000E+03 0.  0.
<mgrwt>
<rscale>  0 0.10254507E+04</rscale>
<asrwt>0</asrwt>
<pdfrwt beam="1">  1        2 0.55343321E+00 0.10254507E+04</pdfrwt>
<pdfrwt beam="2">  1       -2 0.11183757E+00 0.10254507E+04</pdfrwt>
<totfact> 0.45113749E-01</totfact>
</mgrwt>
</event>
<event>
 4    1  0.1701380E-008  0.1064624E+04  0.7818608E-02  0.9240374E-01
         -2   -1    0    0    0  501 -0.00000000000E+00  0.00000000000E+00  0.87359702593E+03  0.87359702594E+03  0.25500000000E-02 0.  1.
          2   -1    0    0  501    0  0.00000000000E+00 -0.00000000000E+00 -0.25352373603E+04  0.25352373603E+04  0.25500000000E-02 0. -1.
    8880022    1    1    2    0    0 -0.30623497726E+03 -0.10080937781E+04 -0.20217725861E+04  0.22849483517E+04  0.15294330000E+03 0.  0.
    8880022    1    1    2    0    0  0.30623497726E+03  0.10080937781E+04  0.36013225178E+03  0.11238860345E+04  0.15294330000E+03 0.  0.
<mgrwt>
<rscale>  0 0.10646241E+04</rscale>
<asrwt>0</asrwt>
<pdfrwt beam="1">  1        2 0.39003651E+00 0.10646241E+04</pdfrwt>
<pdfrwt beam="2">  1       -2 0.13439954E+00 0.10646241E+04</pdfrwt>
<totfact> 0.13216657E+00</totfact>
</mgrwt>
</event>
<event>
 4    1  0.1701380E-008  0.1618692E+04  0.7818608E-02  0.8809147E-01
          2   -1    0    0  501    0  0.00000000000E+00  0.00000000000E+00  0.27516589715E+04  0.27516589715E+04  0.25500000000E-02 0. -1.
         -2   -1    0    0    0  501 -0.00000000000E+00 -0.00000000000E+00 -0.15098829098E+04  0.15098829098E+04  0.25500000000E-02 0.  1.
    8880022    1    1    2    0    0 -0.32576527173E+03 -0.15781787940E+04  0.19158412706E+04  0.25081089979E+04  0.15294330000E+03 0.  0.
    8880022    1    1    2    0    0  0.32576527173E+03  0.15781787940E+04 -0.67406520880E+03  0.17534328834E+04  0.15294330000E+03 0.  0.
<mgrwt>
<rscale>  0 0.16186917E+04</rscale>
<asrwt>0</asrwt>
<pdfrwt beam="1">  1        2 0.42333215E+00 0.16186917E+04</pdfrwt>
<pdfrwt beam="2">  1       -2 0.23228968E+00 0.16186917E+04</pdfrwt>
<totfact> 0.18945983E-01</totfact>
</mgrwt>
</event>
<event>
 4    1  0.1701380E-008  0.2358741E+04  0.7818608E-02  0.8455114E-01
          2   -1    0    0  501    0  0.00000000000E+00  0.00000000000E+00  0.16907012289E+04  0.16907012289E+04  0.25500000000E-02 0. -1.
         -2   -1    0    0    0  501 -0.00000000000E+00 -0.00000000000E+00 -0.46128318369E+04  0.46128318369E+04  0.25500000000E-02 0.  1.
    8880022    1    1    2    0    0  0.23519439720E+04 -0.92887136260E+02  0.22626788917E+03  0.23695690068E+04  0.15294330000E+03 0.  0.
    8880022    1    1    2    0    0 -0.23519439720E+04  0.92887136260E+02 -0.31483984972E+04  0.39339640590E+04  0.15294330000E+03 0.  0.
<mgrwt>
<rscale>  0 0.23587412E+04</rscale>
<asrwt>0</asrwt>
<pdfrwt beam="1">  1        2 0.26010788E+00 0.23587412E+04</pdfrwt>
<pdfrwt beam="2">  1       -2 0.70966643E+00 0.23587412E+04</pdfrwt>
<totfact> 0.17536870E-03</totfact>
</mgrwt>
</event>
<event>
 4    1  0.1701380E-008  0.1828168E+03  0.7818608E-02  0.1165104E+00
         -2   -1    0    0    0  501 -0.00000000000E+00  0.00000000000E+00  0.16240039054E+03  0.16240039056E+03  0.25500000000E-02 0.  1.
          2   -1    0    0  501    0  0.00000000000E+00 -0.00000000000E+00 -0.21194290309E+04  0.21194290309E+04  0.25500000000E-02 0. -1.
    8880022    1    1    2    0    0  0.98825782983E+02  0.16242120561E+02 -0.20626224962E+04  0.20707084674E+04  0.15294330000E+03 0. -1.
    8880022    1    1    2    0    0 -0.98825782983E+02 -0.16242120561E+02  0.10559385585E+03  0.21112095412E+03  0.15294330000E+03 0.  0.
<mgrwt>
<rscale>  0 0.18281683E+03</rscale>
<asrwt>0</asrwt>
<pdfrwt beam="1">  1        2 0.32606598E+00 0.18281683E+03</pdfrwt>
<pdfrwt beam="2">  1       -2 0.24984677E-01 0.18281683E+03</pdfrwt>
<totfact> 0.95407874E+01</totfact>
</mgrwt>
</event>
<event>
 4    1  0.1701380E-008  0.8330940E+03  0.7818608E-02  0.9513313E-01
          2   -1    0    0  501    0  0.00000000000E+00  0.00000000000E+00  0.23123211262E+04  0.23123211262E+04  0.25500000000E-02 0. -1.
         -2   -1    0    0    0  501 -0.00000000000E+00 -0.00000000000E+00 -0.54575173469E+03  0.54575173470E+03  0.25500000000E-02 0.  1.
    8880022    1    1    2    0    0  0.80270345369E+03  0.16223784027E+03 -0.75366301250E+02  0.83649607516E+03  0.15294330000E+03 0.  1.
    8880022    1    1    2    0    0 -0.80270345369E+03 -0.16223784027E+03  0.18419356928E+04  0.20215767858E+04  0.15294330000E+03 0.  0.
<mgrwt>
<rscale>  0 0.83309399E+03</rscale>
<asrwt>0</asrwt>
<pdfrwt beam="1">  1        2 0.35574172E+00 0.83309399E+03</pdfrwt>
<pdfrwt beam="2">  1       -2 0.83961804E-01 0.83309399E+03</pdfrwt>
<totfact> 0.56947467E+00</totfact>
</mgrwt>
</event>
<event>
 4    1  0.1701380E-008  0.6536136E+03  0.7818608E-02  0.9800022E-01
         -2   -1    0    0    0  501 -0.00000000000E+00  0.00000000000E+00  0.56243884066E+03  0.56243884066E+03  0.25500000000E-02 0.  1.
          2   -1    0    0  501    0  0.00000000000E+00 -0.00000000000E+00 -0.33038905291E+04  0.33038905291E+04  0.25500000000E-02 0. -1.
    8880022    1    1    2    0    0 -0.72567171918E+02  0.63131061057E+03 -0.30671798180E+04  0.31360489107E+04  0.15294330000E+03 0.  0.
    8880022    1    1    2    0    0  0.72567171918E+02 -0.63131061057E+03  0.32572812955E+03  0.73028045904E+03  0.15294330000E+03 0.  0.
<mgrwt>
<rscale>  0 0.65361360E+03</rscale>
<asrwt>0</asrwt>
<pdfrwt beam="1">  1        2 0.50829084E+00 0.65361360E+03</pdfrwt>
<pdfrwt beam="2">  1       -2 0.86529054E-01 0.65361360E+03</pdfrwt>
<totfact> 0.14158824E+00</totfact>
</mgrwt>
</event>
<event>
 4    1  0.1701380E-008  0.9029943E+03  0.7818608E-02  0.9421846E-01
          2   -1    0    0  501    0  0.00000000000E+00  0.00000000000E+00  0.36207390640E+04  0.36207390640E+04  0.25500000000E-02 0. -1.
         -2   -1    0    0    0  501 -0.00000000000E+00 -0.00000000000E+00 -0.48294687418E+03  0.48294687419E+03  0.25500000000E-02 0.  1.
    8880022    1    1    2    0    0  0.82943244647E+03 -0.32256596502E+03  0.69938882797E+02  0.90569867251E+03  0.15294330000E+03 0.  0.
    8880022    1    1    2    0    0 -0.82943244647E+03  0.32256596502E+03  0.30678533070E+04  0.31979872657E+04  0.15294330000E+03 0.  0.
<mgrwt>
<rscale>  0 0.90299426E+03</rscale>
<asrwt>0</asrwt>
<pdfrwt beam="1">  1        2 0.55703678E+00 0.90299426E+03</pdfrwt>
<pdfrwt beam="2">  1       -2 0.74299519E-01 0.90299426E+03</pdfrwt>
<totfact> 0.11509472E+00</totfact>
</mgrwt>
</event>
<event>
 4    1  0.1701380E-008  0.5678236E+03  0.7818608E-02  0.9974506E-01
         -2   -1    0    0    0  501 -0.00000000000E+00  0.00000000000E+00  0.68077203615E+03  0.68077203616E+03  0.25500000000E-02 0.  1.
          2   -1    0    0  501    0  0.00000000000E+00 -0.00000000000E+00 -0.11553666697E+04  0.11553666697E+04  0.25500000000E-02 0. -1.
    8880022    1    1    2    0    0  0.47722944921E+03 -0.26699081435E+03  0.46792938777E+03  0.73578638686E+03  0.15294330000E+03 0.  0.
    8880022    1    1    2    0    0 -0.47722944921E+03  0.26699081435E+03 -0.94252402129E+03  0.11003523190E+04  0.15294330000E+03 0.  0.
<mgrwt>
<rscale>  0 0.56782365E+03</rscale>
<asrwt>0</asrwt>
<pdfrwt beam="1">  1        2 0.17774872E+00 0.56782365E+03</pdfrwt>
<pdfrwt beam="2">  1       -2 0.10473416E+00 0.56782365E+03</pdfrwt>
<totfact> 0.15555003E+01</totfact>
</mgrwt>
</event>
<event>
 4    1  0.1701380E-008  0.8825543E+03  0.7818608E-02  0.9447656E-01
         -2   -1    0    0    0  501 -0.00000000000E+00  0.00000000000E+00  0.99367534988E+03  0.99367534988E+03  0.25500000000E-02 0.  1.
          2   -1    0    0  501    0  0.00000000000E+00 -0.00000000000E+00 -0.25977835424E+04  0.25977835424E+04  0.25500000000E-02 0. -1.
    8880022    1    1    2    0    0  0.68167681753E+03  0.53928398881E+03 -0.23025987947E+04  0.24659406657E+04  0.15294330000E+03 0.  0.
    8880022    1    1    2    0    0 -0.68167681753E+03 -0.53928398881E+03  0.69849060218E+03  0.11255182266E+04  0.15294330000E+03 0.  0.
<mgrwt>
<rscale>  0 0.88255434E+03</rscale>
<asrwt>0</asrwt>
<pdfrwt beam="1">  1        2 0.39965900E+00 0.88255434E+03</pdfrwt>
<pdfrwt beam="2">  1       -2 0.15287313E+00 0.88255434E+03</pdfrwt>
<totfact> 0.89396745E-01</totfact>
</mgrwt>
</event>
<event>
 4    1  0.1701380E-008  0.3391429E+03  0.7818608E-02  0.1067162E+00
          2   -1    0    0  501    0  0.00000000000E+00  0.00000000000E+00  0.12982274889E+04  0.12982274889E+04  0.25500000000E-02 0. -1.
         -2   -1    0    0    0  501 -0.00000000000E+00 -0.00000000000E+00 -0.11233013048E+03  0.11233013051E+03  0.25500000000E-02 0.  1.
    8880022    1    1    2    0    0 -0.27481016940E+03  0.12690804834E+03  0.91713758772E+03  0.97783397863E+03  0.15294330000E+03 0.  0.
    8880022    1    1    2    0    0  0.27481016940E+03 -0.12690804834E+03  0.26875977073E+03  0.43272364081E+03  0.15294330000E+03 0.  0.
<mgrwt>
<rscale>  0 0.33914294E+03</rscale>
<asrwt>0</asrwt>
<pdfrwt beam="1">  1        2 0.19972729E+00 0.33914294E+03</pdfrwt>
<pdfrwt beam="2">  1       -2 0.17281560E-01 0.33914294E+03</pdfrwt>
<totfact> 0.47343027E+02</totfact>
</mgrwt>
</event>
<event>
 4    1  0.1701380E-008  0.4715352E+03  0.7818608E-02  0.1021488E+00
         -2   -1    0    0    0  501 -0.00000000000E+00  0.00000000000E+00  0.49515415947E+03  0.49515415948E+03  0.25500000000E-02 0.  1.
          2   -1    0    0  501    0  0.00000000000E+00 -0.00000000000E+00 -0.20962774633E+04  0.20962774633E+04  0.25500000000E-02 0. -1.
    8880022    1    1    2    0    0  0.41150695196E+03  0.17209248660E+03 -0.19491465505E+04  0.20053722157E+04  0.15294330000E+03 0.  0.
    8880022    1    1    2    0    0 -0.41150695196E+03 -0.17209248660E+03  0.34802324659E+03  0.58605940709E+03  0.15294330000E+03 0.  1.
<mgrwt>
<rscale>  0 0.47153520E+03</rscale>
<asrwt>0</asrwt>
<pdfrwt beam="1">  1        2 0.32250422E+00 0.47153520E+03</pdfrwt>
<pdfrwt beam="2">  1       -2 0.76177564E-01 0.47153520E+03</pdfrwt>
<totfact> 0.99840139E+00</totfact>
</mgrwt>
</event>
<event>
 4    1  0.1701380E-008  0.8657688E+03  0.7818608E-02  0.9469414E-01
         -2   -1    0    0    0  501 -0.00000000000E+00  0.00000000000E+00  0.28067715451E+04  0.28067715451E+04  0.25500000000E-02 0.  1.
          2   -1    0    0  501    0  0.00000000000E+00 -0.00000000000E+00 -0.14956403985E+04  0.14956403985E+04  0.25500000000E-02 0. -1.
    8880022    1    1    2    0    0 -0.66151290268E+02  0.84958104857E+03 -0.12941510850E+04  0.15570429137E+04  0.15294330000E+03 0.  0.
    8880022    1    1    2    0    0  0.66151290268E+02 -0.84958104857E+03  0.26052822315E+04  0.27453690299E+04  0.15294330000E+03 0.  0.
<mgrwt>
<rscale>  0 0.86576879E+03</rscale>
<asrwt>0</asrwt>
<pdfrwt beam="1">  1        2 0.23009852E+00 0.86576879E+03</pdfrwt>
<pdfrwt beam="2">  1       -2 0.43181101E+00 0.86576879E+03</pdfrwt>
<totfact> 0.61350307E-02</totfact>
</mgrwt>
</event>
<event>
 4    1  0.1701380E-008  0.9968803E+03  0.7818608E-02  0.9311973E-01
          2   -1    0    0  501    0  0.00000000000E+00  0.00000000000E+00  0.20773822693E+04  0.20773822693E+04  0.25500000000E-02 0. -1.
         -2   -1    0    0    0  501 -0.00000000000E+00 -0.00000000000E+00 -0.53124387938E+03  0.53124387939E+03  0.25500000000E-02 0.  1.
    8880022    1    1    2    0    0 -0.95353619025E+03  0.24728017658E+03  0.11845311334E+04  0.15481874599E+04  0.15294330000E+03 0.  0.
    8880022    1    1    2    0    0  0.95353619025E+03 -0.24728017658E+03  0.36160725653E+03  0.10604386889E+04  0.15294330000E+03 0.  0.
<mgrwt>
<rscale>  0 0.99688034E+03</rscale>
<asrwt>0</asrwt>
<pdfrwt beam="1">  1        2 0.31959727E+00 0.99688034E+03</pdfrwt>
<pdfrwt beam="2">  1       -2 0.81729828E-01 0.99688034E+03</pdfrwt>
<totfact> 0.79954139E+00</totfact>
</mgrwt>
</event>
<event>
 4    1  0.1701380E-008  0.1290079E+04  0.7818608E-02  0.9037470E-01
         -2   -1    0    0    0  501 -0.00000000000E+00  0.00000000000E+00  0.15855626656E+04  0.15855626656E+04  0.25500000000E-02 0.  1.
          2   -1    0    0  501    0  0.00000000000E+00 -0.00000000000E+00 -0.17132620268E+04  0.17132620268E+04  0.25500000000E-02 0. -1.
    8880022    1    1    2    0    0  0.12622256893E+03  0.12747468915E+04 -0.10903777837E+04  0.16891498271E+04  0.15294330000E+03 0.  0.
    8880022    1    1    2    0    0 -0.12622256893E+03 -0.12747468915E+04  0.96267842237E+03  0.16096748653E+04  0.15294330000E+03 0.  0.
<mgrwt>
<rscale>  0 0.12900788E+04</rscale>
<asrwt>0</asrwt>
<pdfrwt beam="1">  1        2 0.26357877E+00 0.12900788E+04</pdfrwt>
<pdfrwt beam="2">  1       -2 0.24393272E+00 0.12900788E+04</pdfrwt>
<totfact> 0.64877048E-01</totfact>
</mgrwt>
</event>
<event>
 4    1  0.1701380E-008  0.8925293E+03  0.7818608E-02  0.9434969E-01
          2   -1    0    0  501    0  0.00000000000E+00  0.00000000000E+00  0.21252077546E+04  0.21252077546E+04  0.25500000000E-02 0. -1.
         -2   -1    0    0    0  501 -0.00000000000E+00 -0.00000000000E+00 -0.68906265854E+03  0.68906265855E+03  0.25500000000E-02 0.  1.
    8880022    1    1    2    0    0  0.64985844996E+03  0.59236891890E+03 -0.23215280320E+03  0.92222747634E+03  0.15294330000E+03 0.  0.
    8880022    1    1    2    0    0 -0.64985844996E+03 -0.59236891890E+03  0.16682978993E+04  0.18920429368E+04  0.15294330000E+03 0.  0.
<mgrwt>
<rscale>  0 0.89252932E+03</rscale>
<asrwt>0</asrwt>
<pdfrwt beam="1">  1        2 0.32695504E+00 0.89252932E+03</pdfrwt>
<pdfrwt beam="2">  1       -2 0.10600964E+00 0.89252932E+03</pdfrwt>
<totfact> 0.41531555E+00</totfact>
</mgrwt>
</event>
<event>
 4    1  0.1701380E-008  0.6728253E+03  0.7818608E-02  0.9764867E-01
         -2   -1    0    0    0  501 -0.00000000000E+00  0.00000000000E+00  0.11297695141E+04  0.11297695141E+04  0.25500000000E-02 0.  1.
          2   -1    0    0  501    0  0.00000000000E+00 -0.00000000000E+00 -0.68805940782E+03  0.68805940783E+03  0.25500000000E-02 0. -1.
    8880022    1    1    2    0    0 -0.61129276509E+03  0.23584606472E+03  0.80824424605E+03  0.10516428221E+04  0.15294330000E+03 0.  0.
    8880022    1    1    2    0    0  0.61129276509E+03 -0.23584606472E+03 -0.36653413982E+03  0.76618609982E+03  0.15294330000E+03 0.  0.
<mgrwt>
<rscale>  0 0.67282528E+03</rscale>
<asrwt>0</asrwt>
<pdfrwt beam="1">  1        2 0.10585529E+00 0.67282528E+03</pdfrwt>
<pdfrwt beam="2">  1       -2 0.17381069E+00 0.67282528E+03</pdfrwt>
<totfact> 0.86128928E+00</totfact>
</mgrwt>
</event>
<event>
 4    1  0.1701380E-008  0.5359727E+03  0.7818608E-02  0.1004794E+00
          2   -1    0    0  501    0  0.00000000000E+00  0.00000000000E+00  0.37946028474E+03  0.37946028475E+03  0.25500000000E-02 0. -1.
         -2   -1    0    0    0  501 -0.00000000000E+00 -0.00000000000E+00 -0.14904271158E+04  0.14904271158E+04  0.25500000000E-02 0.  1.
    8880022    1    1    2    0    0 -0.41075210582E+03 -0.30847658707E+03 -0.12113214807E+04  0.13246004982E+04  0.15294330000E+03 0.  0.
    8880022    1    1    2    0    0  0.41075210582E+03  0.30847658707E+03  0.10035464960E+03  0.54528690239E+03  0.15294330000E+03 0.  0.
<mgrwt>
<rscale>  0 0.53597271E+03</rscale>
<asrwt>0</asrwt>
<pdfrwt beam="1">  1        2 0.58378506E-01 0.53597271E+03</pdfrwt>
<pdfrwt beam="2">  1       -2 0.22929648E+00 0.53597271E+03</pdfrwt>
<totfact> 0.76768984E+00</totfact>
</mgrwt>
</event>
<event>
 4    1  0.1701380E-008  0.5339672E+03  0.7818608E-02  0.1005275E+00
          2   -1    0    0  501    0  0.00000000000E+00  0.00000000000E+00  0.20901751456E+04  0.20901751456E+04  0.25500000000E-02 0. -1.
         -2   -1    0    0    0  501 -0.00000000000E+00 -0.00000000000E+00 -0.31899398448E+03  0.31899398449E+03  0.25500000000E-02 0.  1.
    8880022    1    1    2    0    0  0.50145992086E+03 -0.10132725912E+03  0.17969240393E+04  0.18745817991E+04  0.15294330000E+03 0.  0.
    8880022    1    1    2    0    0 -0.50145992086E+03  0.10132725912E+03 -0.25742878126E+02  0.53458733099E+03  0.15294330000E+03 0.  0.
<mgrwt>
<rscale>  0 0.53396715E+03</rscale>
<asrwt>0</asrwt>
<pdfrwt beam="1">  1        2 0.32156540E+00 0.53396715E+03</pdfrwt>
<pdfrwt beam="2">  1       -2 0.49075999E-01 0.53396715E+03</pdfrwt>
<totfact> 0.25086677E+01</totfact>
</mgrwt>
</event>
<event>
 4    1  0.2349473E-008  0.6849874E+03  0.7818608E-02  0.9743256E-01
         -2   -1    0    0    0  501 -0.00000000000E+00  0.00000000000E+00  0.18311123899E+04  0.18311123899E+04  0.25500000000E-02 0.  1.
          2   -1    0    0  501    0  0.00000000000E+00 -0.00000000000E+00 -0.36775416720E+04  0.36775416720E+04  0.25500000000E-02 0. -1.
    8880022    1    1    2    0    0  0.62582917886E+03 -0.23270981550E+03 -0.35798519582E+04  0.36447973489E+04  0.15294330000E+03 0.  0.
    8880022    1    1    2    0    0 -0.62582917886E+03  0.23270981550E+03  0.17334226761E+04  0.18638567130E+04  0.15294330000E+03 0.  0.
<mgrwt>
<rscale>  0 0.68498735E+03</rscale>
<asrwt>0</asrwt>
<pdfrwt beam="1">  1        2 0.56577564E+00 0.68498735E+03</pdfrwt>
<pdfrwt beam="2">  1       -2 0.28170960E+00 0.68498735E+03</pdfrwt>
<totfact> 0.28686233E-02</totfact>
</mgrwt>
</event>
<event>
 4    1  0.1701380E-008  0.2652599E+03  0.7818608E-02  0.1104024E+00
         -2   -1    0    0    0  501 -0.00000000000E+00  0.00000000000E+00  0.94062100893E+03  0.94062100893E+03  0.25500000000E-02 0.  1.
          2   -1    0    0  501    0  0.00000000000E+00 -0.00000000000E+00 -0.31473156839E+03  0.31473156840E+03  0.25500000000E-02 0. -1.
    8880022    1    1    2    0    0 -0.18185187496E+03  0.11790276875E+03  0.86097564103E+03  0.90091169088E+03  0.15294330000E+03 0.  1.
    8880022    1    1    2    0    0  0.18185187496E+03 -0.11790276875E+03 -0.23508620050E+03  0.35444088645E+03  0.15294330000E+03 0.  0.
<mgrwt>
<rscale>  0 0.26525991E+03</rscale>
<asrwt>0</asrwt>
<pdfrwt beam="1">  1        2 0.48420241E-01 0.26525991E+03</pdfrwt>
<pdfrwt beam="2">  1       -2 0.14471093E+00 0.26525991E+03</pdfrwt>
<totfact> 0.36492012E+01</totfact>
</mgrwt>
</event>
<event>
 4    1  0.1701380E-008  0.9778773E+03  0.7818608E-02  0.9333147E-01
          2   -1    0    0  501    0  0.00000000000E+00  0.00000000000E+00  0.17324113599E+04  0.17324113599E+04  0.25500000000E-02 0. -1.
         -2   -1    0    0    0  501 -0.00000000000E+00 -0.00000000000E+00 -0.87851723824E+03  0.87851723824E+03  0.25500000000E-02 0.  1.
    8880022    1    1    2    0    0 -0.30344354357E+03 -0.91693749283E+03 -0.36895747669E+03  0.10451667917E+04  0.15294330000E+03 0.  0.
    8880022    1    1    2    0    0  0.30344354357E+03  0.91693749283E+03  0.12228515984E+04  0.15657618065E+04  0.15294330000E+03 0. -1.
<mgrwt>
<rscale>  0 0.97787729E+03</rscale>
<asrwt>0</asrwt>
<pdfrwt beam="1">  1        2 0.26652482E+00 0.97787729E+03</pdfrwt>
<pdfrwt beam="2">  1       -2 0.13515650E+00 0.97787729E+03</pdfrwt>
<totfact> 0.36926005E+00</totfact>
</mgrwt>
</event>
<event>
 4    1  0.1701380E-008  0.4142368E+03  0.7818608E-02  0.1038959E+00
         -2   -1    0    0    0  501 -0.00000000000E+00  0.00000000000E+00  0.88593523742E+03  0.88593523742E+03  0.25500000000E-02 0.  1.
          2   -1    0    0  501    0  0.00000000000E+00 -0.00000000000E+00 -0.26515488200E+03  0.26515488201E+03  0.25500000000E-02 0. -1.
    8880022    1    1    2    0    0 -0.19726667110E+03  0.33058479940E+03  0.11582360078E+02  0.41439866458E+03  0.15294330000E+03 0.  0.
    8880022    1    1    2    0    0  0.19726667110E+03 -0.33058479940E+03  0.60919799534E+03  0.73669145486E+03  0.15294330000E+03 0.  1.
<mgrwt>
<rscale>  0 0.41423677E+03</rscale>
<asrwt>0</asrwt>
<pdfrwt beam="1">  1        2 0.40793058E-01 0.41423677E+03</pdfrwt>
<pdfrwt beam="2">  1       -2 0.13629773E+00 0.41423677E+03</pdfrwt>
<totfact> 0.50261104E+01</totfact>
</mgrwt>
</event>
<event>
 4    1  0.1701380E-008  0.1146838E+04  0.7818608E-02  0.9160706E-01
         -2   -1    0    0    0  501 -0.00000000000E+00  0.00000000000E+00  0.72859593772E+03  0.72859593773E+03  0.25500000000E-02 0.  1.
          2   -1    0    0  501    0  0.00000000000E+00 -0.00000000000E+00 -0.40057294524E+04  0.40057294524E+04  0.25500000000E-02 0. -1.
    8880022    1    1    2    0    0  0.27617982801E+03  0.11025290284E+04  0.11593645853E+03  0.11526831618E+04  0.15294330000E+03 0.  0.
    8880022    1    1    2    0    0 -0.27617982801E+03 -0.11025290284E+04 -0.33930699732E+04  0.35816422284E+04  0.15294330000E+03 0.  0.
<mgrwt>
<rscale>  0 0.11468379E+04</rscale>
<asrwt>0</asrwt>
<pdfrwt beam="1">  1        2 0.61626605E+00 0.11468379E+04</pdfrwt>
<pdfrwt beam="2">  1       -2 0.11209169E+00 0.11468379E+04</pdfrwt>
<totfact> 0.21700795E-01</totfact>
</mgrwt>
</event>
<event>
 4    1  0.1701380E-008  0.2445408E+03  0.7818608E-02  0.1116804E+00
          2   -1    0    0  501    0  0.00000000000E+00  0.00000000000E+00  0.43833972507E+03  0.43833972508E+03  0.25500000000E-02 0. -1.
         -2   -1    0    0    0  501 -0.00000000000E+00 -0.00000000000E+00 -0.94588550833E+03  0.94588550834E+03  0.25500000000E-02 0.  1.
    8880022    1    1    2    0    0  0.18046271072E+03 -0.61981956733E+02  0.38648581224E+03  0.45735269650E+03  0.15294330000E+03 0.  0.
    8880022    1    1    2    0    0 -0.18046271072E+03  0.61981956733E+02 -0.89403159550E+03  0.92687253691E+03  0.15294330000E+03 0.  1.
<mgrwt>
<rscale>  0 0.24454081E+03</rscale>
<asrwt>0</asrwt>
<pdfrwt beam="1">  1        2 0.67436881E-01 0.24454081E+03</pdfrwt>
<pdfrwt beam="2">  1       -2 0.14552085E+00 0.24454081E+03</pdfrwt>
<totfact> 0.25191461E+01</totfact>
</mgrwt>
</event>
<event>
 4    1  0.1701380E-008  0.7101435E+03  0.7818608E-02  0.9700041E-01
          2   -1    0    0  501    0  0.00000000000E+00  0.00000000000E+00  0.30194559686E+04  0.30194559686E+04  0.25500000000E-02 0. -1.
         -2   -1    0    0    0  501 -0.00000000000E+00 -0.00000000000E+00 -0.45695688971E+03  0.45695688972E+03  0.25500000000E-02 0.  1.
    8880022    1    1    2    0    0  0.19483621907E+03  0.66554567053E+03  0.26658258173E+04  0.27587916074E+04  0.15294330000E+03 0.  0.
    8880022    1    1    2    0    0 -0.19483621907E+03 -0.66554567053E+03 -0.10332673845E+03  0.71762125088E+03  0.15294330000E+03 0.  0.
<mgrwt>
<rscale>  0 0.71014354E+03</rscale>
<asrwt>0</asrwt>
<pdfrwt beam="1">  1        2 0.46453170E+00 0.71014354E+03</pdfrwt>
<pdfrwt beam="2">  1       -2 0.70301059E-01 0.71014354E+03</pdfrwt>
<totfact> 0.33556594E+00</totfact>
</mgrwt>
</event>
<event>
 4    1  0.1701380E-008  0.5372588E+03  0.7818608E-02  0.1004487E+00
          2   -1    0    0  501    0  0.00000000000E+00  0.00000000000E+00  0.67566623888E+03  0.67566623888E+03  0.25500000000E-02 0. -1.
         -2   -1    0    0    0  501 -0.00000000000E+00 -0.00000000000E+00 -0.89168914502E+03  0.89168914502E+03  0.25500000000E-02 0.  1.
    8880022    1    1    2    0    0  0.49871843868E+03 -0.12858949398E+03 -0.67362120133E+03  0.86163363150E+03  0.15294330000E+03 0.  0.
    8880022    1    1    2    0    0 -0.49871843868E+03  0.12858949398E+03  0.45759829519E+03  0.70572175240E+03  0.15294330000E+03 0.  0.
<mgrwt>
<rscale>  0 0.53725878E+03</rscale>
<asrwt>0</asrwt>
<pdfrwt beam="1">  1        2 0.10394865E+00 0.53725878E+03</pdfrwt>
<pdfrwt beam="2">  1       -2 0.13718295E+00 0.53725878E+03</pdfrwt>
<totfact> 0.16857006E+01</totfact>
</mgrwt>
</event>
<event>
 4    1  0.1701380E-008  0.1848008E+04  0.7818608E-02  0.8681178E-01
          2   -1    0    0  501    0  0.00000000000E+00  0.00000000000E+00  0.34735833762E+04  0.34735833762E+04  0.25500000000E-02 0. -1.
         -2   -1    0    0    0  501 -0.00000000000E+00 -0.00000000000E+00 -0.13069410712E+04  0.13069410712E+04  0.25500000000E-02 0.  1.
    8880022    1    1    2    0    0  0.15796421484E+04  0.94682317968E+03 -0.10636997502E+03  0.18510671720E+04  0.15294330000E+03 0.  0.
    8880022    1    1    2    0    0 -0.15796421484E+04 -0.94682317968E+03  0.22730122800E+04  0.29294572754E+04  0.15294330000E+03 0.  0.
<mgrwt>
<rscale>  0 0.18480084E+04</rscale>
<asrwt>0</asrwt>
<pdfrwt beam="1">  1        2 0.53439744E+00 0.18480084E+04</pdfrwt>
<pdfrwt beam="2">  1       -2 0.20106786E+00 0.18480084E+04</pdfrwt>
<totfact> 0.10080601E-01</totfact>
</mgrwt>
</event>
<event>
 4    1  0.1701380E-008  0.4783195E+03  0.7818608E-02  0.1019598E+00
          2   -1    0    0  501    0  0.00000000000E+00  0.00000000000E+00  0.20580216665E+04  0.20580216666E+04  0.25500000000E-02 0. -1.
         -2   -1    0    0    0  501 -0.00000000000E+00 -0.00000000000E+00 -0.10568659668E+04  0.10568659669E+04  0.25500000000E-02 0.  1.
    8880022    1    1    2    0    0 -0.28749693047E+03 -0.35034756388E+03 -0.97267836082E+03  0.10839246963E+04  0.15294330000E+03 0.  0.
    8880022    1    1    2    0    0  0.28749693047E+03  0.35034756388E+03  0.19738340605E+04  0.20309629371E+04  0.15294330000E+03 0.  0.
<mgrwt>
<rscale>  0 0.47831951E+03</rscale>
<asrwt>0</asrwt>
<pdfrwt beam="1">  1        2 0.31661871E+00 0.47831951E+03</pdfrwt>
<pdfrwt beam="2">  1       -2 0.16259477E+00 0.47831951E+03</pdfrwt>
<totfact> 0.16619839E+00</totfact>
</mgrwt>
</event>
<event>
 4    1  0.1701380E-008  0.4911410E+03  0.7818608E-02  0.1016117E+00
          2   -1    0    0  501    0  0.00000000000E+00  0.00000000000E+00  0.77889285929E+03  0.77889285930E+03  0.25500000000E-02 0. -1.
         -2   -1    0    0    0  501 -0.00000000000E+00 -0.00000000000E+00 -0.63501331232E+03  0.63501331232E+03  0.25500000000E-02 0.  1.
    8880022    1    1    2    0    0 -0.17054418171E+02  0.46640858876E+03  0.57794291989E+03  0.75844412880E+03  0.15294330000E+03 0.  0.
    8880022    1    1    2    0    0  0.17054418171E+02 -0.46640858876E+03 -0.43406337291E+03  0.65546204281E+03  0.15294330000E+03 0.  0.
<mgrwt>
<rscale>  0 0.49114100E+03</rscale>
<asrwt>0</asrwt>
<pdfrwt beam="1">  1        2 0.11982967E+00 0.49114100E+03</pdfrwt>
<pdfrwt beam="2">  1       -2 0.97694357E-01 0.49114100E+03</pdfrwt>
<totfact> 0.32469591E+01</totfact>
</mgrwt>
</event>
<event>
 4    1  0.1701380E-008  0.1353841E+04  0.7818608E-02  0.8987926E-01
          2   -1    0    0  501    0  0.00000000000E+00  0.00000000000E+00  0.32454106407E+04  0.32454106407E+04  0.25500000000E-02 0. -1.
         -2   -1    0    0    0  501 -0.00000000000E+00 -0.00000000000E+00 -0.10422910514E+04  0.10422910514E+04  0.25500000000E-02 0.  1.
    8880022    1    1    2    0    0  0.23012579922E+03 -0.13253435901E+04  0.25526682820E+04  0.28894637092E+04  0.15294330000E+03 0.  0.
    8880022    1    1    2    0    0 -0.23012579922E+03  0.13253435901E+04 -0.34954869274E+03  0.13982379830E+04  0.15294330000E+03 0.  0.
<mgrwt>
<rscale>  0 0.13538409E+04</rscale>
<asrwt>0</asrwt>
<pdfrwt beam="1">  1        2 0.49929395E+00 0.13538409E+04</pdfrwt>
<pdfrwt beam="2">  1       -2 0.16035247E+00 0.13538409E+04</pdfrwt>
<totfact> 0.29309846E-01</totfact>
</mgrwt>
</event>
<event>
 4    1  0.1701380E-008  0.3833996E+03  0.7818608E-02  0.1049684E+00
         -2   -1    0    0    0  501 -0.00000000000E+00  0.00000000000E+00  0.61728055047E+03  0.61728055048E+03  0.25500000000E-02 0.  1.
          2   -1    0    0  501    0  0.00000000000E+00 -0.00000000000E+00 -0.19294484623E+04  0.19294484623E+04  0.25500000000E-02 0. -1.
    8880022    1    1    2    0    0 -0.63314517340E+02 -0.34582495223E+03 -0.18482819133E+04  0.18876284883E+04  0.15294330000E+03 0.  0.
    8880022    1    1    2    0    0  0.63314517340E+02  0.34582495223E+03  0.53611400152E+03  0.65910052445E+03  0.15294330000E+03 0.  0.
<mgrwt>
<rscale>  0 0.38339963E+03</rscale>
<asrwt>0</asrwt>
<pdfrwt beam="1">  1        2 0.29683822E+00 0.38339963E+03</pdfrwt>
<pdfrwt beam="2">  1       -2 0.94966239E-01 0.38339963E+03</pdfrwt>
<totfact> 0.76407589E+00</totfact>
</mgrwt>
</event>
<event>
 4    1  0.1701380E-008  0.1355445E+04  0.7818608E-02  0.8986717E-01
          2   -1    0    0  501    0  0.00000000000E+00  0.00000000000E+00  0.24727770060E+04  0.24727770060E+04  0.25500000000E-02 0. -1.
         -2   -1    0    0    0  501 -0.00000000000E+00 -0.00000000000E+00 -0.12156041764E+04  0.12156041764E+04  0.25500000000E-02 0.  1.
    8880022    1    1    2    0    0  0.22313967605E+03 -0.13281743455E+04  0.17785034956E+04  0.22361361193E+04  0.15294330000E+03 0.  0.
    8880022    1    1    2    0    0 -0.22313967605E+03  0.13281743455E+04 -0.52133066602E+03  0.14522450632E+04  0.15294330000E+03 0.  0.
<mgrwt>
<rscale>  0 0.13554446E+04</rscale>
<asrwt>0</asrwt>
<pdfrwt beam="1">  1        2 0.38042723E+00 0.13554446E+04</pdfrwt>
<pdfrwt beam="2">  1       -2 0.18701603E+00 0.13554446E+04</pdfrwt>
<totfact> 0.56045978E-01</totfact>
</mgrwt>
</event>
<event>
 4    1  0.1701380E-008  0.2608068E+03  0.7818608E-02  0.1106659E+00
         -2   -1    0    0    0  501 -0.00000000000E+00  0.00000000000E+00  0.55116136754E+03  0.55116136755E+03  0.25500000000E-02 0.  1.
          2   -1    0    0  501    0  0.00000000000E+00 -0.00000000000E+00 -0.11789876904E+04  0.11789876904E+04  0.25500000000E-02 0. -1.
    8880022    1    1    2    0    0 -0.10735235654E+03 -0.18194509837E+03  0.50463356778E+03  0.56804510210E+03  0.15294330000E+03 0.  0.
    8880022    1    1    2    0    0  0.10735235654E+03  0.18194509837E+03 -0.11324598906E+04  0.11621039558E+04  0.15294330000E+03 0.  0.
<mgrwt>
<rscale>  0 0.26080683E+03</rscale>
<asrwt>0</asrwt>
<pdfrwt beam="1">  1        2 0.18138272E+00 0.26080683E+03</pdfrwt>
<pdfrwt beam="2">  1       -2 0.84794057E-01 0.26080683E+03</pdfrwt>
<totfact> 0.26223087E+01</totfact>
</mgrwt>
</event>
<event>
 4    1  0.1701380E-008  0.6665638E+03  0.7818608E-02  0.9776185E-01
         -2   -1    0    0    0  501 -0.00000000000E+00  0.00000000000E+00  0.59882928139E+03  0.59882928140E+03  0.25500000000E-02 0.  1.
          2   -1    0    0  501    0  0.00000000000E+00 -0.00000000000E+00 -0.14418854927E+04  0.14418854927E+04  0.25500000000E-02 0. -1.
    8880022    1    1    2    0    0 -0.12554279343E+03 -0.63651761462E+03  0.28937900901E+03  0.72666879015E+03  0.15294330000E+03 0.  0.
    8880022    1    1    2    0    0  0.12554279343E+03  0.63651761462E+03 -0.11324352203E+04  0.13140459840E+04  0.15294330000E+03 0.  0.
<mgrwt>
<rscale>  0 0.66656382E+03</rscale>
<asrwt>0</asrwt>
<pdfrwt beam="1">  1        2 0.22182854E+00 0.66656382E+03</pdfrwt>
<pdfrwt beam="2">  1       -2 0.92127582E-01 0.66656382E+03</pdfrwt>
<totfact> 0.14189469E+01</totfact>
</mgrwt>
</event>
<event>
 4    1  0.1701380E-008  0.5972651E+03  0.7818608E-02  0.9911096E-01
          2   -1    0    0  501    0  0.00000000000E+00  0.00000000000E+00  0.22089461769E+04  0.22089461769E+04  0.25500000000E-02 0. -1.
         -2   -1    0    0    0  501 -0.00000000000E+00 -0.00000000000E+00 -0.25290105348E+03  0.25290105349E+03  0.25500000000E-02 0.  1.
    8880022    1    1    2    0    0 -0.16836292497E+03  0.55225706613E+03  0.23798792315E+03  0.64293378055E+03  0.15294330000E+03 0.  0.
    8880022    1    1    2    0    0  0.16836292497E+03 -0.55225706613E+03  0.17180572003E+04  0.18189134498E+04  0.15294330000E+03 0.  0.
<mgrwt>
<rscale>  0 0.59726510E+03</rscale>
<asrwt>0</asrwt>
<pdfrwt beam="1">  1        2 0.33983787E+00 0.59726510E+03</pdfrwt>
<pdfrwt beam="2">  1       -2 0.38907855E-01 0.59726510E+03</pdfrwt>
<totfact> 0.33794247E+01</totfact>
</mgrwt>
</event>
<event>
 4    1  0.1701380E-008  0.9160846E+03  0.7818608E-02  0.9405695E-01
         -2   -1    0    0    0  501 -0.00000000000E+00  0.00000000000E+00  0.29147682324E+03  0.29147682325E+03  0.25500000000E-02 0.  1.
          2   -1    0    0  501    0  0.00000000000E+00 -0.00000000000E+00 -0.35146835942E+04  0.35146835942E+04  0.25500000000E-02 0. -1.
    8880022    1    1    2    0    0  0.24313355832E+03 -0.86988818349E+03 -0.80236450261E+03  0.12177848033E+04  0.15294330000E+03 0.  0.
    8880022    1    1    2    0    0 -0.24313355832E+03  0.86988818349E+03 -0.24208422684E+04  0.25883756142E+04  0.15294330000E+03 0.  0.
<mgrwt>
<rscale>  0 0.91608462E+03</rscale>
<asrwt>0</asrwt>
<pdfrwt beam="1">  1        2 0.54072052E+00 0.91608462E+03</pdfrwt>
<pdfrwt beam="2">  1       -2 0.44842591E-01 0.91608462E+03</pdfrwt>
<totfact> 0.39385365E+00</totfact>
</mgrwt>
</event>
<event>
 4    1  0.1701380E-008  0.9305590E+03  0.7818608E-02  0.9388167E-01
          2   -1    0    0  501    0  0.00000000000E+00  0.00000000000E+00  0.14315874260E+04  0.14315874260E+04  0.25500000000E-02 0. -1.
         -2   -1    0    0    0  501 -0.00000000000E+00 -0.00000000000E+00 -0.86639666758E+03  0.86639666758E+03  0.25500000000E-02 0.  1.
    8880022    1    1    2    0    0  0.85920958259E+03  0.32296631348E+03  0.91385427643E+03  0.13042506040E+04  0.15294330000E+03 0.  0.
    8880022    1    1    2    0    0 -0.85920958259E+03 -0.32296631348E+03 -0.34866351803E+03  0.99373348956E+03  0.15294330000E+03 0.  0.
<mgrwt>
<rscale>  0 0.93055897E+03</rscale>
<asrwt>0</asrwt>
<pdfrwt beam="1">  1        2 0.22024422E+00 0.93055897E+03</pdfrwt>
<pdfrwt beam="2">  1       -2 0.13329180E+00 0.93055897E+03</pdfrwt>
<totfact> 0.56608250E+00</totfact>
</mgrwt>
</event>
<event>
 4    1  0.1701380E-008  0.1483482E+04  0.7818608E-02  0.8895512E-01
          2   -1    0    0  501    0  0.00000000000E+00  0.00000000000E+00  0.22964109941E+04  0.22964109941E+04  0.25500000000E-02 0. -1.
         -2   -1    0    0    0  501 -0.00000000000E+00 -0.00000000000E+00 -0.11798999277E+04  0.11798999277E+04  0.25500000000E-02 0.  1.
    8880022    1    1    2    0    0  0.14748789986E+04  0.45393975591E+02 -0.19496318768E+03  0.14962389419E+04  0.15294330000E+03 0.  0.
    8880022    1    1    2    0    0 -0.14748789986E+04 -0.45393975591E+02  0.13114742540E+04  0.19800719799E+04  0.15294330000E+03 0.  0.
<mgrwt>
<rscale>  0 0.14834825E+04</rscale>
<asrwt>0</asrwt>
<pdfrwt beam="1">  1        2 0.35329399E+00 0.14834825E+04</pdfrwt>
<pdfrwt beam="2">  1       -2 0.18152307E+00 0.14834825E+04</pdfrwt>
<totfact> 0.75970322E-01</totfact>
</mgrwt>
</event>
<event>
 4    1  0.1701380E-008  0.7729353E+03  0.7818608E-02  0.9600040E-01
         -2   -1    0    0    0  501 -0.00000000000E+00  0.00000000000E+00  0.17333889155E+04  0.17333889155E+04  0.25500000000E-02 0.  1.
          2   -1    0    0  501    0  0.00000000000E+00 -0.00000000000E+00 -0.19931523152E+04  0.19931523152E+04  0.25500000000E-02 0. -1.
    8880022    1    1    2    0    0  0.59502763582E+02  0.75531230683E+03  0.15646481498E+04  0.17451512099E+04  0.15294330000E+03 0.  0.
    8880022    1    1    2    0    0 -0.59502763582E+02 -0.75531230683E+03 -0.18244115495E+04  0.19813900208E+04  0.15294330000E+03 0.  0.
<mgrwt>
<rscale>  0 0.77293526E+03</rscale>
<asrwt>0</asrwt>
<pdfrwt beam="1">  1        2 0.30663882E+00 0.77293526E+03</pdfrwt>
<pdfrwt beam="2">  1       -2 0.26667522E+00 0.77293526E+03</pdfrwt>
<totfact> 0.36014962E-01</totfact>
</mgrwt>
</event>
<event>
 4    1  0.1701380E-008  0.3687390E+03  0.7818608E-02  0.1055176E+00
         -2   -1    0    0    0  501 -0.00000000000E+00  0.00000000000E+00  0.15293073152E+03  0.15293073154E+03  0.25500000000E-02 0.  1.
          2   -1    0    0  501    0  0.00000000000E+00 -0.00000000000E+00 -0.24327140562E+04  0.24327140562E+04  0.25500000000E-02 0. -1.
    8880022    1    1    2    0    0  0.36385916231E+02  0.33354583767E+03 -0.11006338741E+03  0.38481471254E+03  0.15294330000E+03 0.  0.
    8880022    1    1    2    0    0 -0.36385916231E+02 -0.33354583767E+03 -0.21697199373E+04  0.22008300752E+04  0.15294330000E+03 0.  0.
<mgrwt>
<rscale>  0 0.36873895E+03</rscale>
<asrwt>0</asrwt>
<pdfrwt beam="1">  1        2 0.37426367E+00 0.36873895E+03</pdfrwt>
<pdfrwt beam="2">  1       -2 0.23527807E-01 0.36873895E+03</pdfrwt>
<totfact> 0.67642495E+01</totfact>
</mgrwt>
</event>
<event>
 4    1  0.1701380E-008  0.1356600E+04  0.7818608E-02  0.8985847E-01
          2   -1    0    0  501    0  0.00000000000E+00  0.00000000000E+00  0.24169276042E+04  0.24169276042E+04  0.25500000000E-02 0. -1.
         -2   -1    0    0    0  501 -0.00000000000E+00 -0.00000000000E+00 -0.96680773684E+03  0.96680773684E+03  0.25500000000E-02 0.  1.
    8880022    1    1    2    0    0 -0.11820227798E+04  0.64791449211E+03 -0.54689119357E+02  0.13577015850E+04  0.15294330000E+03 0.  0.
    8880022    1    1    2    0    0  0.11820227798E+04 -0.64791449211E+03  0.15048089867E+04  0.20260337561E+04  0.15294330000E+03 0.  0.
<mgrwt>
<rscale>  0 0.13565997E+04</rscale>
<asrwt>0</asrwt>
<pdfrwt beam="1">  1        2 0.37183501E+00 0.13565997E+04</pdfrwt>
<pdfrwt beam="2">  1       -2 0.14873965E+00 0.13565997E+04</pdfrwt>
<totfact> 0.11424291E+00</totfact>
</mgrwt>
</event>
<event>
 4    1  0.1701380E-008  0.1311288E+04  0.7818608E-02  0.9020661E-01
          2   -1    0    0  501    0  0.00000000000E+00  0.00000000000E+00  0.31548912166E+04  0.31548912166E+04  0.25500000000E-02 0. -1.
         -2   -1    0    0    0  501 -0.00000000000E+00 -0.00000000000E+00 -0.86285573517E+03  0.86285573517E+03  0.25500000000E-02 0.  1.
    8880022    1    1    2    0    0 -0.13004872511E+04  0.69407143287E+02  0.23652471785E+04  0.27044168152E+04  0.15294330000E+03 0.  0.
    8880022    1    1    2    0    0  0.13004872511E+04 -0.69407143287E+02 -0.73211697106E+02  0.13133301365E+04  0.15294330000E+03 0.  0.
<mgrwt>
<rscale>  0 0.13112880E+04</rscale>
<asrwt>0</asrwt>
<pdfrwt beam="1">  1        2 0.48536788E+00 0.13112880E+04</pdfrwt>
<pdfrwt beam="2">  1       -2 0.13274704E+00 0.13112880E+04</pdfrwt>
<totfact> 0.55656251E-01</totfact>
</mgrwt>
</event>
<event>
 4    1  0.1701380E-008  0.9458107E+03  0.7818608E-02  0.9370061E-01
          2   -1    0    0  501    0  0.00000000000E+00  0.00000000000E+00  0.10100053622E+04  0.10100053623E+04  0.25500000000E-02 0. -1.
         -2   -1    0    0    0  501 -0.00000000000E+00 -0.00000000000E+00 -0.11184429281E+04  0.11184429281E+04  0.25500000000E-02 0.  1.
    8880022    1    1    2    0    0 -0.80767193091E+03 -0.46779518049E+03  0.43125744330E+03  0.10394906995E+04  0.15294330000E+03 0.  0.
    8880022    1    1    2    0    0  0.80767193091E+03  0.46779518049E+03 -0.53969500920E+03  0.10889575909E+04  0.15294330000E+03 0.  0.
<mgrwt>
<rscale>  0 0.94581073E+03</rscale>
<asrwt>0</asrwt>
<pdfrwt beam="1">  1        2 0.15538544E+00 0.94581073E+03</pdfrwt>
<pdfrwt beam="2">  1       -2 0.17206814E+00 0.94581073E+03</pdfrwt>
<totfact> 0.50975395E+00</totfact>
</mgrwt>
</event>
<event>
 4    1  0.1701380E-008  0.9803754E+03  0.7818608E-02  0.9330335E-01
         -2   -1    0    0    0  501 -0.00000000000E+00  0.00000000000E+00  0.82853549764E+03  0.82853549764E+03  0.25500000000E-02 0.  1.
          2   -1    0    0  501    0  0.00000000000E+00 -0.00000000000E+00 -0.29069489493E+04  0.29069489493E+04  0.25500000000E-02 0. -1.
    8880022    1    1    2    0    0  0.59414892652E+03  0.76467721256E+03 -0.24870886328E+04  0.26733398038E+04  0.15294330000E+03 0.  0.
    8880022    1    1    2    0    0 -0.59414892652E+03 -0.76467721256E+03  0.40867518111E+03  0.10621446431E+04  0.15294330000E+03 0.  0.
<mgrwt>
<rscale>  0 0.98037536E+03</rscale>
<asrwt>0</asrwt>
<pdfrwt beam="1">  1        2 0.44722291E+00 0.98037536E+03</pdfrwt>
<pdfrwt beam="2">  1       -2 0.12746700E+00 0.98037536E+03</pdfrwt>
<totfact> 0.92504618E-01</totfact>
</mgrwt>
</event>
<event>
 4    1  0.1701380E-008  0.2587344E+03  0.7818608E-02  0.1107906E+00
          2   -1    0    0  501    0  0.00000000000E+00  0.00000000000E+00  0.13971644045E+04  0.13971644045E+04  0.25500000000E-02 0. -1.
         -2   -1    0    0    0  501 -0.00000000000E+00 -0.00000000000E+00 -0.55190315709E+02  0.55190315768E+02  0.25500000000E-02 0.  1.
    8880022    1    1    2    0    0 -0.29430543490E+02 -0.20660518470E+03  0.93466377026E+03  0.96981435115E+03  0.15294330000E+03 0.  0.
    8880022    1    1    2    0    0  0.29430543490E+02  0.20660518470E+03  0.40731031849E+03  0.48254036908E+03  0.15294330000E+03 0.  1.
<mgrwt>
<rscale>  0 0.25873444E+03</rscale>
<asrwt>0</asrwt>
<pdfrwt beam="1">  1        2 0.21494836E+00 0.25873444E+03</pdfrwt>
<pdfrwt beam="2">  1       -2 0.84908181E-02 0.25873444E+03</pdfrwt>
<totfact> 0.13372442E+03</totfact>
</mgrwt>
</event>
<event>
 4    1  0.1701380E-008  0.6132438E+03  0.7818608E-02  0.9878304E-01
         -2   -1    0    0    0  501 -0.00000000000E+00  0.00000000000E+00  0.70492569636E+03  0.70492569636E+03  0.25500000000E-02 0.  1.
          2   -1    0    0  501    0  0.00000000000E+00 -0.00000000000E+00 -0.14514905321E+04  0.14514905321E+04  0.25500000000E-02 0. -1.
    8880022    1    1    2    0    0  0.50571436672E+03  0.31133459996E+03  0.48418560433E+03  0.78134730197E+03  0.15294330000E+03 0.  0.
    8880022    1    1    2    0    0 -0.50571436672E+03 -0.31133459996E+03 -0.12307504401E+04  0.13750689265E+04  0.15294330000E+03 0.  0.
<mgrwt>
<rscale>  0 0.61324376E+03</rscale>
<asrwt>0</asrwt>
<pdfrwt beam="1">  1        2 0.22330624E+00 0.61324376E+03</pdfrwt>
<pdfrwt beam="2">  1       -2 0.10845011E+00 0.61324376E+03</pdfrwt>
<totfact> 0.96106758E+00</totfact>
</mgrwt>
</event>
<event>
 4    1  0.1701380E-008  0.8193919E+03  0.7818608E-02  0.9532365E-01
         -2   -1    0    0    0  501 -0.00000000000E+00  0.00000000000E+00  0.58624714741E+03  0.58624714742E+03  0.25500000000E-02 0.  1.
          2   -1    0    0  501    0  0.00000000000E+00 -0.00000000000E+00 -0.16352999891E+04  0.16352999891E+04  0.25500000000E-02 0. -1.
    8880022    1    1    2    0    0 -0.33584347500E+03  0.73158771003E+03  0.83530656567E+02  0.82363853769E+03  0.15294330000E+03 0.  0.
    8880022    1    1    2    0    0  0.33584347500E+03 -0.73158771003E+03 -0.11325834983E+04  0.13979085989E+04  0.15294330000E+03 0.  0.
<mgrwt>
<rscale>  0 0.81939189E+03</rscale>
<asrwt>0</asrwt>
<pdfrwt beam="1">  1        2 0.25158461E+00 0.81939189E+03</pdfrwt>
<pdfrwt beam="2">  1       -2 0.90191870E-01 0.81939189E+03</pdfrwt>
<totfact> 0.11406466E+01</totfact>
</mgrwt>
</event>
<event>
 4    1  0.1701380E-008  0.4982455E+03  0.7818608E-02  0.1014238E+00
          2   -1    0    0  501    0  0.00000000000E+00  0.00000000000E+00  0.83925269644E+03  0.83925269644E+03  0.25500000000E-02 0. -1.
         -2   -1    0    0    0  501 -0.00000000000E+00 -0.00000000000E+00 -0.14183295524E+04  0.14183295524E+04  0.25500000000E-02 0.  1.
    8880022    1    1    2    0    0  0.44521667705E+03  0.16321459149E+03  0.71467137205E+03  0.87120819294E+03  0.15294330000E+03 0.  0.
    8880022    1    1    2    0    0 -0.44521667705E+03 -0.16321459149E+03 -0.12937482280E+04  0.13863740559E+04  0.15294330000E+03 0.  1.
<mgrwt>
<rscale>  0 0.49824547E+03</rscale>
<asrwt>0</asrwt>
<pdfrwt beam="1">  1        2 0.12911580E+00 0.49824547E+03</pdfrwt>
<pdfrwt beam="2">  1       -2 0.21820455E+00 0.49824547E+03</pdfrwt>
<totfact> 0.35145377E+00</totfact>
</mgrwt>
</event>
<event>
 4    1  0.1701380E-008  0.1291770E+04  0.7818608E-02  0.9036117E-01
         -2   -1    0    0    0  501 -0.00000000000E+00  0.00000000000E+00  0.52969275122E+03  0.52969275123E+03  0.25500000000E-02 0.  1.
          2   -1    0    0  501    0  0.00000000000E+00 -0.00000000000E+00 -0.36907794996E+04  0.36907794996E+04  0.25500000000E-02 0. -1.
    8880022    1    1    2    0    0  0.11707599156E+04 -0.52402159514E+03 -0.23881099014E+04  0.27150944673E+04  0.15294330000E+03 0.  0.
    8880022    1    1    2    0    0 -0.11707599156E+04  0.52402159514E+03 -0.77297684694E+03  0.15053777835E+04  0.15294330000E+03 0.  0.
<mgrwt>
<rscale>  0 0.12917697E+04</rscale>
<asrwt>0</asrwt>
<pdfrwt beam="1">  1        2 0.56781222E+00 0.12917697E+04</pdfrwt>
<pdfrwt beam="2">  1       -2 0.81491195E-01 0.12917697E+04</pdfrwt>
<totfact> 0.78195954E-01</totfact>
</mgrwt>
</event>
<event>
 4    1  0.1701380E-008  0.6152422E+03  0.7818608E-02  0.9874278E-01
          2   -1    0    0  501    0  0.00000000000E+00  0.00000000000E+00  0.11338875058E+04  0.11338875058E+04  0.25500000000E-02 0. -1.
         -2   -1    0    0    0  501 -0.00000000000E+00 -0.00000000000E+00 -0.56241936912E+03  0.56241936913E+03  0.25500000000E-02 0.  1.
    8880022    1    1    2    0    0 -0.34212680818E+03 -0.48793495674E+03 -0.25498862989E+03  0.66598958646E+03  0.15294330000E+03 0.  0.
    8880022    1    1    2    0    0  0.34212680818E+03  0.48793495674E+03  0.82645676654E+03  0.10303172884E+04  0.15294330000E+03 0.  0.
<mgrwt>
<rscale>  0 0.61524217E+03</rscale>
<asrwt>0</asrwt>
<pdfrwt beam="1">  1        2 0.17444423E+00 0.61524217E+03</pdfrwt>
<pdfrwt beam="2">  1       -2 0.86526058E-01 0.61524217E+03</pdfrwt>
<totfact> 0.24844700E+01</totfact>
</mgrwt>
</event>
<event>
 4    1  0.1701380E-008  0.6456002E+03  0.7818608E-02  0.9815070E-01
         -2   -1    0    0    0  501 -0.00000000000E+00  0.00000000000E+00  0.62609807667E+03  0.62609807668E+03  0.25500000000E-02 0.  1.
          2   -1    0    0  501    0  0.00000000000E+00 -0.00000000000E+00 -0.10088082116E+04  0.10088082116E+04  0.25500000000E-02 0. -1.
    8880022    1    1    2    0    0 -0.62718340026E+03 -0.69917886897E+01  0.28536999952E+03  0.70585805394E+03  0.15294330000E+03 0.  0.
    8880022    1    1    2    0    0  0.62718340026E+03  0.69917886897E+01 -0.66808013445E+03  0.92904823434E+03  0.15294330000E+03 0.  0.
<mgrwt>
<rscale>  0 0.64560015E+03</rscale>
<asrwt>0</asrwt>
<pdfrwt beam="1">  1        2 0.15520126E+00 0.64560015E+03</pdfrwt>
<pdfrwt beam="2">  1       -2 0.96322781E-01 0.64560015E+03</pdfrwt>
<totfact> 0.23067705E+01</totfact>
</mgrwt>
</event>
<event>
 4    1  0.1701380E-008  0.1823567E+04  0.7818608E-02  0.8693866E-01
         -2   -1    0    0    0  501 -0.00000000000E+00  0.00000000000E+00  0.16398533554E+04  0.16398533554E+04  0.25500000000E-02 0.  1.
          2   -1    0    0  501    0  0.00000000000E+00 -0.00000000000E+00 -0.26400078899E+04  0.26400078899E+04  0.25500000000E-02 0. -1.
    8880022    1    1    2    0    0  0.12254119217E+04 -0.13417791748E+04 -0.15305210814E+04  0.23807335352E+04  0.15294330000E+03 0.  0.
    8880022    1    1    2    0    0 -0.12254119217E+04  0.13417791748E+04  0.53036654694E+03  0.18991277100E+04  0.15294330000E+03 0.  0.
<mgrwt>
<rscale>  0 0.18235672E+04</rscale>
<asrwt>0</asrwt>
<pdfrwt beam="1">  1        2 0.40615506E+00 0.18235672E+04</pdfrwt>
<pdfrwt beam="2">  1       -2 0.25228513E+00 0.18235672E+04</pdfrwt>
<totfact> 0.16219881E-01</totfact>
</mgrwt>
</event>
<event>
 4    1  0.1701380E-008  0.3746903E+03  0.7818608E-02  0.1052914E+00
          2   -1    0    0  501    0  0.00000000000E+00  0.00000000000E+00  0.75986601071E+03  0.75986601072E+03  0.25500000000E-02 0. -1.
         -2   -1    0    0    0  501 -0.00000000000E+00 -0.00000000000E+00 -0.17522583851E+04  0.17522583851E+04  0.25500000000E-02 0.  1.
    8880022    1    1    2    0    0 -0.26868117165E+03  0.21168756061E+03  0.69180157406E+03  0.78675426037E+03  0.15294330000E+03 0. -1.
    8880022    1    1    2    0    0  0.26868117165E+03 -0.21168756061E+03 -0.16841939484E+04  0.17253701354E+04  0.15294330000E+03 0.  0.
<mgrwt>
<rscale>  0 0.37469034E+03</rscale>
<asrwt>0</asrwt>
<pdfrwt beam="1">  1        2 0.11690246E+00 0.37469034E+03</pdfrwt>
<pdfrwt beam="2">  1       -2 0.26957821E+00 0.37469034E+03</pdfrwt>
<totfact> 0.20305704E+00</totfact>
</mgrwt>
</event>
<event>
 4    1  0.1701380E-008  0.7886568E+03  0.7818608E-02  0.9576583E-01
          2   -1    0    0  501    0  0.00000000000E+00  0.00000000000E+00  0.27314661477E+04  0.27314661477E+04  0.25500000000E-02 0. -1.
         -2   -1    0    0    0  501 -0.00000000000E+00 -0.00000000000E+00 -0.41483744160E+03  0.41483744160E+03  0.25500000000E-02 0.  1.
    8880022    1    1    2    0    0  0.33633688491E+02  0.77295322646E+03  0.10173651751E+03  0.79519172991E+03  0.15294330000E+03 0.  0.
    8880022    1    1    2    0    0 -0.33633688491E+02 -0.77295322646E+03  0.22148921886E+04  0.23511118594E+04  0.15294330000E+03 0.  0.
<mgrwt>
<rscale>  0 0.78865681E+03</rscale>
<asrwt>0</asrwt>
<pdfrwt beam="1">  1        2 0.42022556E+00 0.78865681E+03</pdfrwt>
<pdfrwt beam="2">  1       -2 0.63821146E-01 0.78865681E+03</pdfrwt>
<totfact> 0.60601580E+00</totfact>
</mgrwt>
</event>
<event>
 4    1  0.1701380E-008  0.1908274E+04  0.7818608E-02  0.8650749E-01
         -2   -1    0    0    0  501 -0.00000000000E+00  0.00000000000E+00  0.14211119675E+04  0.14211119675E+04  0.25500000000E-02 0.  1.
          2   -1    0    0  501    0  0.00000000000E+00 -0.00000000000E+00 -0.32070136497E+04  0.32070136497E+04  0.25500000000E-02 0. -1.
    8880022    1    1    2    0    0 -0.18980402969E+04  0.12474719229E+03  0.14448651286E+03  0.19137363549E+04  0.15294330000E+03 0.  0.
    8880022    1    1    2    0    0  0.18980402969E+04 -0.12474719229E+03 -0.19303881951E+04  0.27143892623E+04  0.15294330000E+03 0.  0.
<mgrwt>
<rscale>  0 0.19082742E+04</rscale>
<asrwt>0</asrwt>
<pdfrwt beam="1">  1        2 0.49338671E+00 0.19082742E+04</pdfrwt>
<pdfrwt beam="2">  1       -2 0.21863261E+00 0.19082742E+04</pdfrwt>
<totfact> 0.11637239E-01</totfact>
</mgrwt>
</event>
<event>
 4    1  0.1701380E-008  0.1298507E+04  0.7818608E-02  0.9030750E-01
          2   -1    0    0  501    0  0.00000000000E+00  0.00000000000E+00  0.35785844304E+04  0.35785844304E+04  0.25500000000E-02 0. -1.
         -2   -1    0    0    0  501 -0.00000000000E+00 -0.00000000000E+00 -0.53600496738E+03  0.53600496738E+03  0.25500000000E-02 0.  1.
    8880022    1    1    2    0    0 -0.44519682218E+03  0.12101770156E+04  0.80577593084E+03  0.15281999619E+04  0.15294330000E+03 0.  0.
    8880022    1    1    2    0    0  0.44519682218E+03 -0.12101770156E+04  0.22368035322E+04  0.25863894359E+04  0.15294330000E+03 0.  0.
<mgrwt>
<rscale>  0 0.12985069E+04</rscale>
<asrwt>0</asrwt>
<pdfrwt beam="1">  1        2 0.55055144E+00 0.12985069E+04</pdfrwt>
<pdfrwt beam="2">  1       -2 0.82462305E-01 0.12985069E+04</pdfrwt>
<totfact> 0.91514948E-01</totfact>
</mgrwt>
</event>
<event>
 4    1  0.1701380E-008  0.6663546E+03  0.7818608E-02  0.9776566E-01
         -2   -1    0    0    0  501 -0.00000000000E+00  0.00000000000E+00  0.49375381152E+03  0.49375381153E+03  0.25500000000E-02 0.  1.
          2   -1    0    0  501    0  0.00000000000E+00 -0.00000000000E+00 -0.16765161746E+04  0.16765161746E+04  0.25500000000E-02 0. -1.
    8880022    1    1    2    0    0  0.48551567752E+03  0.43001311455E+03  0.14746374997E+03  0.68247634565E+03  0.15294330000E+03 0.  0.
    8880022    1    1    2    0    0 -0.48551567752E+03 -0.43001311455E+03 -0.13302261130E+04  0.14877936404E+04  0.15294330000E+03 0.  0.
<mgrwt>
<rscale>  0 0.66635456E+03</rscale>
<asrwt>0</asrwt>
<pdfrwt beam="1">  1        2 0.25792556E+00 0.66635456E+03</pdfrwt>
<pdfrwt beam="2">  1       -2 0.75962126E-01 0.66635456E+03</pdfrwt>
<totfact> 0.16311861E+01</totfact>
</mgrwt>
</event>
<event>
 4    1  0.1701380E-008  0.1346758E+04  0.7818608E-02  0.8993286E-01
          2   -1    0    0  501    0  0.00000000000E+00  0.00000000000E+00  0.25557203450E+04  0.25557203450E+04  0.25500000000E-02 0. -1.
         -2   -1    0    0    0  501 -0.00000000000E+00 -0.00000000000E+00 -0.10452453655E+04  0.10452453655E+04  0.25500000000E-02 0.  1.
    8880022    1    1    2    0    0  0.12113938939E+04 -0.56823404415E+03 -0.26491502480E+03  0.13725657429E+04  0.15294330000E+03 0.  0.
    8880022    1    1    2    0    0 -0.12113938939E+04  0.56823404415E+03  0.17753900044E+04  0.22283999676E+04  0.15294330000E+03 0.  0.
<mgrwt>
<rscale>  0 0.13467579E+04</rscale>
<asrwt>0</asrwt>
<pdfrwt beam="1">  1        2 0.39318774E+00 0.13467579E+04</pdfrwt>
<pdfrwt beam="2">  1       -2 0.16080698E+00 0.13467579E+04</pdfrwt>
<totfact> 0.77047625E-01</totfact>
</mgrwt>
</event>
<event>
 4    1  0.1701380E-008  0.7158109E+03  0.7818608E-02  0.9690569E-01
         -2   -1    0    0    0  501 -0.00000000000E+00  0.00000000000E+00  0.53468880694E+03  0.53468880695E+03  0.25500000000E-02 0.  1.
          2   -1    0    0  501    0  0.00000000000E+00 -0.00000000000E+00 -0.14657144803E+04  0.14657144803E+04  0.25500000000E-02 0. -1.
    8880022    1    1    2    0    0 -0.44359366374E+03 -0.54057214502E+03 -0.10540175482E+04  0.12741029108E+04  0.15294330000E+03 0.  0.
    8880022    1    1    2    0    0  0.44359366374E+03  0.54057214502E+03  0.12299187483E+03  0.72630037641E+03  0.15294330000E+03 0.  0.
<mgrwt>
<rscale>  0 0.71581089E+03</rscale>
<asrwt>0</asrwt>
<pdfrwt beam="1">  1        2 0.22549453E+00 0.71581089E+03</pdfrwt>
<pdfrwt beam="2">  1       -2 0.82259817E-01 0.71581089E+03</pdfrwt>
<totfact> 0.17711510E+01</totfact>
</mgrwt>
</event>
<event>
 4    1  0.1701380E-008  0.9000807E+03  0.7818608E-02  0.9425481E-01
          2   -1    0    0  501    0  0.00000000000E+00  0.00000000000E+00  0.20876819733E+04  0.20876819733E+04  0.25500000000E-02 0. -1.
         -2   -1    0    0    0  501 -0.00000000000E+00 -0.00000000000E+00 -0.89741561737E+03  0.89741561737E+03  0.25500000000E-02 0.  1.
    8880022    1    1    2    0    0  0.86956508332E+03 -0.17495750038E+03 -0.52932267662E+03  0.10441875838E+04  0.15294330000E+03 0.  0.
    8880022    1    1    2    0    0 -0.86956508332E+03  0.17495750038E+03  0.17195890326E+04  0.19409100069E+04  0.15294330000E+03 0.  0.
<mgrwt>
<rscale>  0 0.90008067E+03</rscale>
<asrwt>0</asrwt>
<pdfrwt beam="1">  1        2 0.32118184E+00 0.90008067E+03</pdfrwt>
<pdfrwt beam="2">  1       -2 0.13806394E+00 0.90008067E+03</pdfrwt>
<totfact> 0.22535771E+00</totfact>
</mgrwt>
</event>
<event>
 4    1  0.1701380E-008  0.7532151E+03  0.7818608E-02  0.9630320E-01
          2   -1    0    0  501    0  0.00000000000E+00  0.00000000000E+00  0.43663524695E+04  0.43663524695E+04  0.25500000000E-02 0. -1.
         -2   -1    0    0    0  501 -0.00000000000E+00 -0.00000000000E+00 -0.33522746998E+03  0.33522746999E+03  0.25500000000E-02 0.  1.
    8880022    1    1    2    0    0  0.16507033776E+03  0.71881366136E+03  0.38552020329E+04  0.39280931333E+04  0.15294330000E+03 0.  0.
    8880022    1    1    2    0    0 -0.16507033776E+03 -0.71881366136E+03  0.17592296659E+03  0.77348680619E+03  0.15294330000E+03 0.  0.
<mgrwt>
<rscale>  0 0.75321507E+03</rscale>
<asrwt>0</asrwt>
<pdfrwt beam="1">  1        2 0.67174647E+00 0.75321507E+03</pdfrwt>
<pdfrwt beam="2">  1       -2 0.51573461E-01 0.75321507E+03</pdfrwt>
<totfact> 0.66346800E-01</totfact>
</mgrwt>
</event>
<event>
 4    1  0.1701380E-008  0.6022552E+03  0.7818608E-02  0.9900738E-01
          2   -1    0    0  501    0  0.00000000000E+00  0.00000000000E+00  0.29955645980E+03  0.29955645981E+03  0.25500000000E-02 0. -1.
         -2   -1    0    0    0  501 -0.00000000000E+00 -0.00000000000E+00 -0.21343582781E+04  0.21343582781E+04  0.25500000000E-02 0.  1.
    8880022    1    1    2    0    0 -0.34702281666E+03  0.46786193713E+03 -0.11688986786E+03  0.61349370145E+03  0.15294330000E+03 0.  0.
    8880022    1    1    2    0    0  0.34702281666E+03 -0.46786193713E+03 -0.17179119504E+04  0.18204210364E+04  0.15294330000E+03 0.  0.
<mgrwt>
<rscale>  0 0.60225516E+03</rscale>
<asrwt>0</asrwt>
<pdfrwt beam="1">  1        2 0.46085611E-01 0.60225516E+03</pdfrwt>
<pdfrwt beam="2">  1       -2 0.32836280E+00 0.60225516E+03</pdfrwt>
<totfact> 0.25072862E+00</totfact>
</mgrwt>
</event>
<event>
 4    1  0.1701380E-008  0.6197666E+03  0.7818608E-02  0.9865225E-01
          2   -1    0    0  501    0  0.00000000000E+00  0.00000000000E+00  0.12814631749E+04  0.12814631749E+04  0.25500000000E-02 0. -1.
         -2   -1    0    0    0  501 -0.00000000000E+00 -0.00000000000E+00 -0.81354514208E+03  0.81354514208E+03  0.25500000000E-02 0.  1.
    8880022    1    1    2    0    0  0.46331256692E+03  0.38217855335E+03 -0.59849939759E+03  0.86157539614E+03  0.15294330000E+03 0.  0.
    8880022    1    1    2    0    0 -0.46331256692E+03 -0.38217855335E+03  0.10664174304E+04  0.12334329208E+04  0.15294330000E+03 0.  0.
<mgrwt>
<rscale>  0 0.61976660E+03</rscale>
<asrwt>0</asrwt>
<pdfrwt beam="1">  1        2 0.19714818E+00 0.61976660E+03</pdfrwt>
<pdfrwt beam="2">  1       -2 0.12516079E+00 0.61976660E+03</pdfrwt>
<totfact> 0.84324248E+00</totfact>
</mgrwt>
</event>
<event>
 4    1  0.1701380E-008  0.3902733E+03  0.7818608E-02  0.1047201E+00
         -2   -1    0    0    0  501 -0.00000000000E+00  0.00000000000E+00  0.22982967923E+03  0.22982967924E+03  0.25500000000E-02 0.  1.
          2   -1    0    0  501    0  0.00000000000E+00 -0.00000000000E+00 -0.23269688085E+04  0.23269688085E+04  0.25500000000E-02 0. -1.
    8880022    1    1    2    0    0 -0.33421054447E+03  0.13124361336E+03  0.32565782164E+02  0.39162961745E+03  0.15294330000E+03 0.  0.
    8880022    1    1    2    0    0  0.33421054447E+03 -0.13124361336E+03 -0.21297049115E+04  0.21651688703E+04  0.15294330000E+03 0. -1.
<mgrwt>
<rscale>  0 0.39027327E+03</rscale>
<asrwt>0</asrwt>
<pdfrwt beam="1">  1        2 0.35799518E+00 0.39027327E+03</pdfrwt>
<pdfrwt beam="2">  1       -2 0.35358414E-01 0.39027327E+03</pdfrwt>
<totfact> 0.36548836E+01</totfact>
</mgrwt>
</event>
<event>
 4    1  0.1701380E-008  0.1423307E+04  0.7818608E-02  0.8937119E-01
          2   -1    0    0  501    0  0.00000000000E+00  0.00000000000E+00  0.38914109969E+04  0.38914109969E+04  0.25500000000E-02 0. -1.
         -2   -1    0    0    0  501 -0.00000000000E+00 -0.00000000000E+00 -0.55517932431E+03  0.55517932432E+03  0.25500000000E-02 0.  1.
    8880022    1    1    2    0    0 -0.25570075104E+03  0.13917713603E+04  0.11131119191E+04  0.18068813439E+04  0.15294330000E+03 0.  0.
    8880022    1    1    2    0    0  0.25570075104E+03 -0.13917713603E+04  0.22231197535E+04  0.26397089773E+04  0.15294330000E+03 0.  0.
<mgrwt>
<rscale>  0 0.14233067E+04</rscale>
<asrwt>0</asrwt>
<pdfrwt beam="1">  1        2 0.59867862E+00 0.14233067E+04</pdfrwt>
<pdfrwt beam="2">  1       -2 0.85412203E-01 0.14233067E+04</pdfrwt>
<totfact> 0.48798396E-01</totfact>
</mgrwt>
</event>
<event>
 4    1  0.1701380E-008  0.1788222E+03  0.7818608E-02  0.1168948E+00
         -2   -1    0    0    0  501 -0.00000000000E+00  0.00000000000E+00  0.13804407529E+03  0.13804407531E+03  0.25500000000E-02 0.  1.
          2   -1    0    0  501    0  0.00000000000E+00 -0.00000000000E+00 -0.12166763595E+04  0.12166763595E+04  0.25500000000E-02 0. -1.
    8880022    1    1    2    0    0  0.33243063794E+02 -0.86490653863E+02 -0.11487925679E+04  0.11626270905E+04  0.15294330000E+03 0.  0.
    8880022    1    1    2    0    0 -0.33243063794E+02  0.86490653863E+02  0.70160283713E+02  0.19209334429E+03  0.15294330000E+03 0.  1.
<mgrwt>
<rscale>  0 0.17882222E+03</rscale>
<asrwt>0</asrwt>
<pdfrwt beam="1">  1        2 0.18718097E+00 0.17882222E+03</pdfrwt>
<pdfrwt beam="2">  1       -2 0.21237551E-01 0.17882222E+03</pdfrwt>
<totfact> 0.37804117E+02</totfact>
</mgrwt>
</event>
<event>
 4    1  0.1701380E-008  0.8146526E+03  0.7818608E-02  0.9539047E-01
         -2   -1    0    0    0  501 -0.00000000000E+00  0.00000000000E+00  0.25960579461E+03  0.25960579462E+03  0.25500000000E-02 0.  1.
          2   -1    0    0  501    0  0.00000000000E+00 -0.00000000000E+00 -0.32722448196E+04  0.32722448196E+04  0.25500000000E-02 0. -1.
    8880022    1    1    2    0    0  0.20201970365E+03 -0.77424490578E+03 -0.23322736208E+04  0.24704572512E+04  0.15294330000E+03 0.  0.
    8880022    1    1    2    0    0 -0.20201970365E+03  0.77424490578E+03 -0.68036540418E+03  0.10613933630E+04  0.15294330000E+03 0.  0.
<mgrwt>
<rscale>  0 0.81465256E+03</rscale>
<asrwt>0</asrwt>
<pdfrwt beam="1">  1        2 0.50342225E+00 0.81465256E+03</pdfrwt>
<pdfrwt beam="2">  1       -2 0.39939355E-01 0.81465256E+03</pdfrwt>
<totfact> 0.73142369E+00</totfact>
</mgrwt>
</event>
<event>
 4    1  0.1701380E-008  0.1142964E+04  0.7818608E-02  0.9164299E-01
          2   -1    0    0  501    0  0.00000000000E+00  0.00000000000E+00  0.25595113135E+04  0.25595113135E+04  0.25500000000E-02 0. -1.
         -2   -1    0    0    0  501 -0.00000000000E+00 -0.00000000000E+00 -0.52059749220E+03  0.52059749220E+03  0.25500000000E-02 0.  1.
    8880022    1    1    2    0    0 -0.10322046108E+04  0.46640078649E+03  0.80388664378E+03  0.13973551593E+04  0.15294330000E+03 0.  1.
    8880022    1    1    2    0    0  0.10322046108E+04 -0.46640078649E+03  0.12350271775E+04  0.16827536463E+04  0.15294330000E+03 0.  0.
<mgrwt>
<rscale>  0 0.11429644E+04</rscale>
<asrwt>0</asrwt>
<pdfrwt beam="1">  1        2 0.39377096E+00 0.11429644E+04</pdfrwt>
<pdfrwt beam="2">  1       -2 0.80091924E-01 0.11429644E+04</pdfrwt>
<totfact> 0.44024493E+00</totfact>
</mgrwt>
</event>
<event>
 4    1  0.1701380E-008  0.4059476E+03  0.7818608E-02  0.1041739E+00
         -2   -1    0    0    0  501 -0.00000000000E+00  0.00000000000E+00  0.25658893597E+03  0.25658893598E+03  0.25500000000E-02 0.  1.
          2   -1    0    0  501    0  0.00000000000E+00 -0.00000000000E+00 -0.20396938431E+04  0.20396938431E+04  0.25500000000E-02 0. -1.
    8880022    1    1    2    0    0 -0.14067591546E+03 -0.34872926986E+03 -0.18418957856E+04  0.18861000915E+04  0.15294330000E+03 0.  0.
    8880022    1    1    2    0    0  0.14067591546E+03  0.34872926986E+03  0.58790878477E+02  0.41018268765E+03  0.15294330000E+03 0.  0.
<mgrwt>
<rscale>  0 0.40594762E+03</rscale>
<asrwt>0</asrwt>
<pdfrwt beam="1">  1        2 0.31379904E+00 0.40594762E+03</pdfrwt>
<pdfrwt beam="2">  1       -2 0.39475222E-01 0.40594762E+03</pdfrwt>
<totfact> 0.42160004E+01</totfact>
</mgrwt>
</event>
<event>
 4    1  0.1701380E-008  0.4068511E+03  0.7818608E-02  0.1041433E+00
          2   -1    0    0  501    0  0.00000000000E+00  0.00000000000E+00  0.11459944652E+04  0.11459944652E+04  0.25500000000E-02 0. -1.
         -2   -1    0    0    0  501 -0.00000000000E+00 -0.00000000000E+00 -0.27237834096E+03  0.27237834097E+03  0.25500000000E-02 0.  1.
    8880022    1    1    2    0    0  0.15375747791E+03 -0.34423076018E+03 -0.49234043898E+02  0.40981925572E+03  0.15294330000E+03 0.  0.
    8880022    1    1    2    0    0 -0.15375747791E+03  0.34423076018E+03  0.92285016810E+03  0.10085535504E+04  0.15294330000E+03 0.  0.
<mgrwt>
<rscale>  0 0.40685112E+03</rscale>
<asrwt>0</asrwt>
<pdfrwt beam="1">  1        2 0.17630684E+00 0.40685112E+03</pdfrwt>
<pdfrwt beam="2">  1       -2 0.41904360E-01 0.40685112E+03</pdfrwt>
<totfact> 0.11569235E+02</totfact>
</mgrwt>
</event>
<event>
 4    1  0.1701380E-008  0.3073465E+03  0.7818608E-02  0.1081625E+00
          2   -1    0    0  501    0  0.00000000000E+00  0.00000000000E+00  0.93235051223E+03  0.93235051224E+03  0.25500000000E-02 0. -1.
         -2   -1    0    0    0  501 -0.00000000000E+00 -0.00000000000E+00 -0.24485245413E+03  0.24485245414E+03  0.25500000000E-02 0.  1.
    8880022    1    1    2    0    0 -0.22167609089E+03 -0.14808763717E+03  0.79441051620E+03  0.85179220401E+03  0.15294330000E+03 0.  0.
    8880022    1    1    2    0    0  0.22167609089E+03  0.14808763717E+03 -0.10691245810E+03  0.32541076237E+03  0.15294330000E+03 0.  0.
<mgrwt>
<rscale>  0 0.30734653E+03</rscale>
<asrwt>0</asrwt>
<pdfrwt beam="1">  1        2 0.14343854E+00 0.30734653E+03</pdfrwt>
<pdfrwt beam="2">  1       -2 0.37669609E-01 0.30734653E+03</pdfrwt>
<totfact> 0.19450420E+02</totfact>
</mgrwt>
</event>
<event>
 4    1  0.1701380E-008  0.1025512E+04  0.7818608E-02  0.9280998E-01
          2   -1    0    0  501    0  0.00000000000E+00  0.00000000000E+00  0.13814823148E+04  0.13814823148E+04  0.25500000000E-02 0. -1.
         -2   -1    0    0    0  501 -0.00000000000E+00 -0.00000000000E+00 -0.20191864153E+04  0.20191864153E+04  0.25500000000E-02 0.  1.
    8880022    1    1    2    0    0 -0.81686857943E+03 -0.60084035372E+03  0.10232105202E+04  0.14486665691E+04  0.15294330000E+03 0.  0.
    8880022    1    1    2    0    0  0.81686857943E+03  0.60084035372E+03 -0.16609146206E+04  0.19520021610E+04  0.15294330000E+03 0.  0.
<mgrwt>
<rscale>  0 0.10255121E+04</rscale>
<asrwt>0</asrwt>
<pdfrwt beam="1">  1        2 0.21253574E+00 0.10255121E+04</pdfrwt>
<pdfrwt beam="2">  1       -2 0.31064407E+00 0.10255121E+04</pdfrwt>
<totfact> 0.40633639E-01</totfact>
</mgrwt>
</event>
<event>
 4    1  0.1701380E-008  0.1356077E+04  0.7818608E-02  0.8986241E-01
         -2   -1    0    0    0  501 -0.00000000000E+00  0.00000000000E+00  0.28189837139E+04  0.28189837139E+04  0.25500000000E-02 0.  1.
          2   -1    0    0  501    0  0.00000000000E+00 -0.00000000000E+00 -0.11620991190E+04  0.11620991190E+04  0.25500000000E-02 0. -1.
    8880022    1    1    2    0    0  0.97816252085E+03 -0.92668816890E+03  0.21467925899E+04  0.25392248732E+04  0.15294330000E+03 0.  0.
    8880022    1    1    2    0    0 -0.97816252085E+03  0.92668816890E+03 -0.48990799499E+03  0.14418579598E+04  0.15294330000E+03 0.  0.
<mgrwt>
<rscale>  0 0.13560769E+04</rscale>
<asrwt>0</asrwt>
<pdfrwt beam="1">  1        2 0.17878448E+00 0.13560769E+04</pdfrwt>
<pdfrwt beam="2">  1       -2 0.43368980E+00 0.13560769E+04</pdfrwt>
<totfact> 0.85584615E-02</totfact>
</mgrwt>
</event>
<event>
 4    1  0.1701380E-008  0.7047347E+03  0.7818608E-02  0.9709169E-01
          2   -1    0    0  501    0  0.00000000000E+00  0.00000000000E+00  0.19632671355E+04  0.19632671355E+04  0.25500000000E-02 0. -1.
         -2   -1    0    0    0  501 -0.00000000000E+00 -0.00000000000E+00 -0.50088098801E+03  0.50088098802E+03  0.25500000000E-02 0.  1.
    8880022    1    1    2    0    0 -0.63347881138E+03 -0.26826084065E+03  0.15979872397E+04  0.17464862308E+04  0.15294330000E+03 0.  0.
    8880022    1    1    2    0    0  0.63347881138E+03  0.26826084065E+03 -0.13560109219E+03  0.71766189276E+03  0.15294330000E+03 0.  0.
<mgrwt>
<rscale>  0 0.70473466E+03</rscale>
<asrwt>0</asrwt>
<pdfrwt beam="1">  1        2 0.30204110E+00 0.70473466E+03</pdfrwt>
<pdfrwt beam="2">  1       -2 0.77058612E-01 0.70473466E+03</pdfrwt>
<totfact> 0.10966631E+01</totfact>
</mgrwt>
</event>
<event>
 4    1  0.1701380E-008  0.1373575E+04  0.7818608E-02  0.8973171E-01
          2   -1    0    0  501    0  0.00000000000E+00  0.00000000000E+00  0.31239112313E+04  0.31239112313E+04  0.25500000000E-02 0. -1.
         -2   -1    0    0    0  501 -0.00000000000E+00 -0.00000000000E+00 -0.10074162763E+04  0.10074162763E+04  0.25500000000E-02 0.  1.
    8880022    1    1    2    0    0  0.11960766235E+04 -0.65781321521E+03  0.23654859122E+04  0.27353670264E+04  0.15294330000E+03 0.  0.
    8880022    1    1    2    0    0 -0.11960766235E+04  0.65781321521E+03 -0.24899095721E+03  0.13959604812E+04  0.15294330000E+03 0.  0.
<mgrwt>
<rscale>  0 0.13735753E+04</rscale>
<asrwt>0</asrwt>
<pdfrwt beam="1">  1        2 0.48060172E+00 0.13735753E+04</pdfrwt>
<pdfrwt beam="2">  1       -2 0.15498712E+00 0.13735753E+04</pdfrwt>
<totfact> 0.38419194E-01</totfact>
</mgrwt>
</event>
<event>
 4    1  0.1701380E-008  0.7263845E+03  0.7818608E-02  0.9673146E-01
          2   -1    0    0  501    0  0.00000000000E+00  0.00000000000E+00  0.25979792468E+04  0.25979792468E+04  0.25500000000E-02 0. -1.
         -2   -1    0    0    0  501 -0.00000000000E+00 -0.00000000000E+00 -0.23251582874E+03  0.23251582875E+03  0.25500000000E-02 0.  1.
    8880022    1    1    2    0    0  0.65543511602E+03 -0.27321705151E+03  0.67930085472E+03  0.99452704980E+03  0.15294330000E+03 0.  0.
    8880022    1    1    2    0    0 -0.65543511602E+03  0.27321705151E+03  0.16861625633E+04  0.18359680257E+04  0.15294330000E+03 0.  0.
<mgrwt>
<rscale>  0 0.72638447E+03</rscale>
<asrwt>0</asrwt>
<pdfrwt beam="1">  1        2 0.39968910E+00 0.72638447E+03</pdfrwt>
<pdfrwt beam="2">  1       -2 0.35771667E-01 0.72638447E+03</pdfrwt>
<totfact> 0.23563504E+01</totfact>
</mgrwt>
</event>
<event>
 4    1  0.1701380E-008  0.1101899E+04  0.7818608E-02  0.9203343E-01
         -2   -1    0    0    0  501 -0.00000000000E+00  0.00000000000E+00  0.15298622493E+04  0.15298622493E+04  0.25500000000E-02 0.  1.
          2   -1    0    0  501    0  0.00000000000E+00 -0.00000000000E+00 -0.10165496704E+04  0.10165496704E+04  0.25500000000E-02 0. -1.
    8880022    1    1    2    0    0 -0.92333774505E+03 -0.58158098313E+03  0.85284749468E+03  0.13933877901E+04  0.15294330000E+03 0.  0.
    8880022    1    1    2    0    0  0.92333774505E+03  0.58158098313E+03 -0.33953491574E+03  0.11530241296E+04  0.15294330000E+03 0.  0.
<mgrwt>
<rscale>  0 0.11018987E+04</rscale>
<asrwt>0</asrwt>
<pdfrwt beam="1">  1        2 0.15639226E+00 0.11018987E+04</pdfrwt>
<pdfrwt beam="2">  1       -2 0.23536342E+00 0.11018987E+04</pdfrwt>
<totfact> 0.19133697E+00</totfact>
</mgrwt>
</event>
<event>
 4    1  0.1701380E-008  0.1248100E+04  0.7818608E-02  0.9071766E-01
          2   -1    0    0  501    0  0.00000000000E+00  0.00000000000E+00  0.12136316271E+04  0.12136316271E+04  0.25500000000E-02 0. -1.
         -2   -1    0    0    0  501 -0.00000000000E+00 -0.00000000000E+00 -0.14412902059E+04  0.14412902059E+04  0.25500000000E-02 0.  1.
    8880022    1    1    2    0    0 -0.11074755771E+04 -0.55485008306E+03 -0.55298878618E+03  0.13651186832E+04  0.15294330000E+03 0.  0.
    8880022    1    1    2    0    0  0.11074755771E+04  0.55485008306E+03  0.32533020731E+03  0.12898031498E+04  0.15294330000E+03 0.  0.
<mgrwt>
<rscale>  0 0.12480995E+04</rscale>
<asrwt>0</asrwt>
<pdfrwt beam="1">  1        2 0.18671256E+00 0.12480995E+04</pdfrwt>
<pdfrwt beam="2">  1       -2 0.22173695E+00 0.12480995E+04</pdfrwt>
<totfact> 0.17312989E+00</totfact>
</mgrwt>
</event>
<event>
 4    1  0.1701380E-008  0.1045666E+04  0.7818608E-02  0.9259830E-01
         -2   -1    0    0    0  501 -0.00000000000E+00  0.00000000000E+00  0.80899450113E+03  0.80899450114E+03  0.25500000000E-02 0.  1.
          2   -1    0    0  501    0  0.00000000000E+00 -0.00000000000E+00 -0.14682491657E+04  0.14682491657E+04  0.25500000000E-02 0. -1.
    8880022    1    1    2    0    0 -0.63673737073E+03  0.81522429304E+03 -0.86555218296E+01  0.10457015341E+04  0.15294330000E+03 0.  0.
    8880022    1    1    2    0    0  0.63673737073E+03 -0.81522429304E+03 -0.65059914272E+03  0.12315421328E+04  0.15294330000E+03 0.  0.
<mgrwt>
<rscale>  0 0.10456657E+04</rscale>
<asrwt>0</asrwt>
<pdfrwt beam="1">  1        2 0.22588449E+00 0.10456657E+04</pdfrwt>
<pdfrwt beam="2">  1       -2 0.12446069E+00 0.10456657E+04</pdfrwt>
<totfact> 0.63412410E+00</totfact>
</mgrwt>
</event>
<event>
 4    1  0.2327632E-008  0.9848148E+03  0.7818608E-02  0.9325358E-01
          2   -1    0    0  501    0  0.00000000000E+00  0.00000000000E+00  0.16789035363E+04  0.16789035363E+04  0.25500000000E-02 0. -1.
         -2   -1    0    0    0  501 -0.00000000000E+00 -0.00000000000E+00 -0.18521072578E+04  0.18521072578E+04  0.25500000000E-02 0.  1.
    8880022    1    1    2    0    0 -0.36773049276E+03  0.90069018216E+03  0.13779150941E+04  0.16936676708E+04  0.15294330000E+03 0.  0.
    8880022    1    1    2    0    0  0.36773049276E+03 -0.90069018216E+03 -0.15511188157E+04  0.18373431233E+04  0.15294330000E+03 0.  0.
<mgrwt>
<rscale>  0 0.98481479E+03</rscale>
<asrwt>0</asrwt>
<pdfrwt beam="1">  1        2 0.25829285E+00 0.98481479E+03</pdfrwt>
<pdfrwt beam="2">  1       -2 0.28493958E+00 0.98481479E+03</pdfrwt>
<totfact> 0.39867171E-01</totfact>
</mgrwt>
</event>
<event>
 4    1  0.1701380E-008  0.5777563E+03  0.7818608E-02  0.9952661E-01
          2   -1    0    0  501    0  0.00000000000E+00  0.00000000000E+00  0.83114666775E+03  0.83114666775E+03  0.25500000000E-02 0. -1.
         -2   -1    0    0    0  501 -0.00000000000E+00 -0.00000000000E+00 -0.50009472352E+03  0.50009472353E+03  0.25500000000E-02 0.  1.
    8880022    1    1    2    0    0  0.29250484122E+03  0.47418515898E+03 -0.12984686823E+03  0.59216763618E+03  0.15294330000E+03 0.  0.
    8880022    1    1    2    0    0 -0.29250484122E+03 -0.47418515898E+03  0.46089881245E+03  0.73907375510E+03  0.15294330000E+03 0.  0.
<mgrwt>
<rscale>  0 0.57775626E+03</rscale>
<asrwt>0</asrwt>
<pdfrwt beam="1">  1        2 0.12786872E+00 0.57775626E+03</pdfrwt>
<pdfrwt beam="2">  1       -2 0.76937651E-01 0.57775626E+03</pdfrwt>
<totfact> 0.50846654E+01</totfact>
</mgrwt>
</event>
<event>
 4    1  0.1701380E-008  0.3647588E+03  0.7818608E-02  0.1056715E+00
          2   -1    0    0  501    0  0.00000000000E+00  0.00000000000E+00  0.61282657200E+03  0.61282657201E+03  0.25500000000E-02 0. -1.
         -2   -1    0    0    0  501 -0.00000000000E+00 -0.00000000000E+00 -0.55920196019E+03  0.55920196019E+03  0.25500000000E-02 0.  1.
    8880022    1    1    2    0    0 -0.27699779144E+03  0.18146510729E+03 -0.43153755665E+03  0.56504307574E+03  0.15294330000E+03 0.  0.
    8880022    1    1    2    0    0  0.27699779144E+03 -0.18146510729E+03  0.48516216847E+03  0.60698545646E+03  0.15294330000E+03 0.  0.
<mgrwt>
<rscale>  0 0.36475884E+03</rscale>
<asrwt>0</asrwt>
<pdfrwt beam="1">  1        2 0.94281011E-01 0.36475884E+03</pdfrwt>
<pdfrwt beam="2">  1       -2 0.86031071E-01 0.36475884E+03</pdfrwt>
<totfact> 0.59496066E+01</totfact>
</mgrwt>
</event>
<event>
 4    1  0.1701380E-008  0.4567376E+03  0.7818608E-02  0.1025732E+00
          2   -1    0    0  501    0  0.00000000000E+00  0.00000000000E+00  0.23194274676E+04  0.23194274676E+04  0.25500000000E-02 0. -1.
         -2   -1    0    0    0  501 -0.00000000000E+00 -0.00000000000E+00 -0.28104149435E+03  0.28104149436E+03  0.25500000000E-02 0.  1.
    8880022    1    1    2    0    0  0.49904278581E+02  0.42746600263E+03  0.20913749909E+04  0.21406677991E+04  0.15294330000E+03 0.  0.
    8880022    1    1    2    0    0 -0.49904278581E+02 -0.42746600263E+03 -0.52989017609E+02  0.45980116293E+03  0.15294330000E+03 0.  0.
<mgrwt>
<rscale>  0 0.45673764E+03</rscale>
<asrwt>0</asrwt>
<pdfrwt beam="1">  1        2 0.35683500E+00 0.45673764E+03</pdfrwt>
<pdfrwt beam="2">  1       -2 0.43237152E-01 0.45673764E+03</pdfrwt>
<totfact> 0.24631245E+01</totfact>
</mgrwt>
</event>
<event>
 4    1  0.1701380E-008  0.1842448E+03  0.7818608E-02  0.1163757E+00
          2   -1    0    0  501    0  0.00000000000E+00  0.00000000000E+00  0.19638984696E+03  0.19638984698E+03  0.25500000000E-02 0. -1.
         -2   -1    0    0    0  501 -0.00000000000E+00 -0.00000000000E+00 -0.53308550857E+03  0.53308550857E+03  0.25500000000E-02 0.  1.
    8880022    1    1    2    0    0  0.15448947700E+02  0.10156690199E+03  0.13148205356E+03  0.22634860059E+03  0.15294330000E+03 0.  0.
    8880022    1    1    2    0    0 -0.15448947700E+02 -0.10156690199E+03 -0.46817771517E+03  0.50312675496E+03  0.15294330000E+03 0.  1.
<mgrwt>
<rscale>  0 0.18424483E+03</rscale>
<asrwt>0</asrwt>
<pdfrwt beam="1">  1        2 0.30213823E-01 0.18424483E+03</pdfrwt>
<pdfrwt beam="2">  1       -2 0.82013155E-01 0.18424483E+03</pdfrwt>
<totfact> 0.23637461E+02</totfact>
</mgrwt>
</event>
<event>
 4    1  0.1701380E-008  0.1754885E+03  0.7818608E-02  0.1172242E+00
          2   -1    0    0  501    0  0.00000000000E+00  0.00000000000E+00  0.72458216917E+03  0.72458216917E+03  0.25500000000E-02 0. -1.
         -2   -1    0    0    0  501 -0.00000000000E+00 -0.00000000000E+00 -0.47509308005E+02  0.47509308073E+02  0.25500000000E-02 0.  1.
    8880022    1    1    2    0    0 -0.84373310076E+02 -0.16902689540E+02  0.46386511650E+03  0.49595065852E+03  0.15294330000E+03 0.  0.
    8880022    1    1    2    0    0  0.84373310076E+02  0.16902689540E+02  0.21320774466E+03  0.27614081873E+03  0.15294330000E+03 0.  1.
<mgrwt>
<rscale>  0 0.17548849E+03</rscale>
<asrwt>0</asrwt>
<pdfrwt beam="1">  1        2 0.11147418E+00 0.17548849E+03</pdfrwt>
<pdfrwt beam="2">  1       -2 0.73091241E-02 0.17548849E+03</pdfrwt>
<totfact> 0.43019191E+03</totfact>
</mgrwt>
</event>
<event>
 4    1  0.1701380E-008  0.5330797E+03  0.7818608E-02  0.1005488E+00
          2   -1    0    0  501    0  0.00000000000E+00  0.00000000000E+00  0.40053913731E+04  0.40053913731E+04  0.25500000000E-02 0. -1.
         -2   -1    0    0    0  501 -0.00000000000E+00 -0.00000000000E+00 -0.15110268336E+03  0.15110268338E+03  0.25500000000E-02 0.  1.
    8880022    1    1    2    0    0  0.32918445609E+03 -0.39040987086E+03  0.34407959437E+04  0.34818458686E+04  0.15294330000E+03 0.  0.
    8880022    1    1    2    0    0 -0.32918445609E+03  0.39040987086E+03  0.41349274604E+03  0.67464818790E+03  0.15294330000E+03 0.  1.
<mgrwt>
<rscale>  0 0.53307966E+03</rscale>
<asrwt>0</asrwt>
<pdfrwt beam="1">  1        2 0.61621409E+00 0.53307966E+03</pdfrwt>
<pdfrwt beam="2">  1       -2 0.23246566E-01 0.53307966E+03</pdfrwt>
<totfact> 0.64561660E+00</totfact>
</mgrwt>
</event>
<event>
 4    1  0.1701380E-008  0.5626236E+03  0.7818608E-02  0.9986136E-01
          2   -1    0    0  501    0  0.00000000000E+00  0.00000000000E+00  0.18354075438E+04  0.18354075438E+04  0.25500000000E-02 0. -1.
         -2   -1    0    0    0  501 -0.00000000000E+00 -0.00000000000E+00 -0.31091235997E+03  0.31091235998E+03  0.25500000000E-02 0.  1.
    8880022    1    1    2    0    0 -0.51010209501E+03 -0.18152005714E+03  0.46126787332E+02  0.56451130370E+03  0.15294330000E+03 0.  1.
    8880022    1    1    2    0    0  0.51010209501E+03  0.18152005714E+03  0.14783683965E+04  0.15818086000E+04  0.15294330000E+03 0.  0.
<mgrwt>
<rscale>  0 0.56262361E+03</rscale>
<asrwt>0</asrwt>
<pdfrwt beam="1">  1        2 0.28237039E+00 0.56262361E+03</pdfrwt>
<pdfrwt beam="2">  1       -2 0.47832672E-01 0.56262361E+03</pdfrwt>
<totfact> 0.36075176E+01</totfact>
</mgrwt>
</event>
<event>
 4    1  0.1701380E-008  0.1327073E+04  0.7818608E-02  0.9008367E-01
         -2   -1    0    0    0  501 -0.00000000000E+00  0.00000000000E+00  0.91099156442E+03  0.91099156443E+03  0.25500000000E-02 0.  1.
          2   -1    0    0  501    0  0.00000000000E+00 -0.00000000000E+00 -0.26437506985E+04  0.26437506985E+04  0.25500000000E-02 0. -1.
    8880022    1    1    2    0    0  0.84028746055E+03  0.10157011775E+04 -0.17878198599E+04  0.22265272069E+04  0.15294330000E+03 0.  0.
    8880022    1    1    2    0    0 -0.84028746055E+03 -0.10157011775E+04  0.55060725901E+02  0.13282150560E+04  0.15294330000E+03 0.  0.
<mgrwt>
<rscale>  0 0.13270733E+04</rscale>
<asrwt>0</asrwt>
<pdfrwt beam="1">  1        2 0.40673087E+00 0.13270733E+04</pdfrwt>
<pdfrwt beam="2">  1       -2 0.14015255E+00 0.13270733E+04</pdfrwt>
<totfact> 0.99122940E-01</totfact>
</mgrwt>
</event>
<event>
 4    1  0.1701380E-008  0.1047462E+04  0.7818608E-02  0.9257968E-01
          2   -1    0    0  501    0  0.00000000000E+00  0.00000000000E+00  0.11323367170E+04  0.11323367170E+04  0.25500000000E-02 0. -1.
         -2   -1    0    0    0  501 -0.00000000000E+00 -0.00000000000E+00 -0.15816268343E+04  0.15816268343E+04  0.25500000000E-02 0.  1.
    8880022    1    1    2    0    0 -0.26441704172E+03  0.10019329449E+04  0.61992899645E+03  0.12171645787E+04  0.15294330000E+03 0.  0.
    8880022    1    1    2    0    0  0.26441704172E+03 -0.10019329449E+04 -0.10692191138E+04  0.14967989726E+04  0.15294330000E+03 0.  0.
<mgrwt>
<rscale>  0 0.10474625E+04</rscale>
<asrwt>0</asrwt>
<pdfrwt beam="1">  1        2 0.17420565E+00 0.10474625E+04</pdfrwt>
<pdfrwt beam="2">  1       -2 0.24332721E+00 0.10474625E+04</pdfrwt>
<totfact> 0.14555378E+00</totfact>
</mgrwt>
</event>
<event>
 4    1  0.1701380E-008  0.2379295E+03  0.7818608E-02  0.1121180E+00
         -2   -1    0    0    0  501 -0.00000000000E+00  0.00000000000E+00  0.53237883076E+03  0.53237883077E+03  0.25500000000E-02 0.  1.
          2   -1    0    0  501    0  0.00000000000E+00 -0.00000000000E+00 -0.95245288513E+03  0.95245288513E+03  0.25500000000E-02 0. -1.
    8880022    1    1    2    0    0 -0.17414269870E+03 -0.53787738099E+02 -0.90978387461E+03  0.94038138636E+03  0.15294330000E+03 0. -1.
    8880022    1    1    2    0    0  0.17414269870E+03  0.53787738099E+02  0.48970982025E+03  0.54445032955E+03  0.15294330000E+03 0.  0.
<mgrwt>
<rscale>  0 0.23792951E+03</rscale>
<asrwt>0</asrwt>
<pdfrwt beam="1">  1        2 0.14653121E+00 0.23792951E+03</pdfrwt>
<pdfrwt beam="2">  1       -2 0.81904436E-01 0.23792951E+03</pdfrwt>
<totfact> 0.38942937E+01</totfact>
</mgrwt>
</event>
<event>
 4    1  0.1701380E-008  0.1754577E+03  0.7818608E-02  0.1172273E+00
         -2   -1    0    0    0  501 -0.00000000000E+00  0.00000000000E+00  0.27121033049E+02  0.27121033169E+02  0.25500000000E-02 0.  1.
          2   -1    0    0  501    0  0.00000000000E+00 -0.00000000000E+00 -0.35312009159E+04  0.35312009159E+04  0.25500000000E-02 0. -1.
    8880022    1    1    2    0    0 -0.78202885892E+02 -0.35749880655E+02 -0.28647342523E+03  0.33593514509E+03  0.15294330000E+03 0.  0.
    8880022    1    1    2    0    0  0.78202885892E+02  0.35749880655E+02 -0.32176064576E+04  0.32223868039E+04  0.15294330000E+03 0.  0.
<mgrwt>
<rscale>  0 0.17545768E+03</rscale>
<asrwt>0</asrwt>
<pdfrwt beam="1">  1        2 0.54326132E+00 0.17545768E+03</pdfrwt>
<pdfrwt beam="2">  1       -2 0.41724694E-02 0.17545768E+03</pdfrwt>
<totfact> 0.25914561E+02</totfact>
</mgrwt>
</event>
<event>
 4    1  0.1701380E-008  0.3930142E+03  0.7818608E-02  0.1046226E+00
          2   -1    0    0  501    0  0.00000000000E+00  0.00000000000E+00  0.53150845895E+03  0.53150845895E+03  0.25500000000E-02 0. -1.
         -2   -1    0    0    0  501 -0.00000000000E+00 -0.00000000000E+00 -0.69863593600E+03  0.69863593600E+03  0.25500000000E-02 0.  1.
    8880022    1    1    2    0    0  0.35728821171E+03  0.58426292345E+02 -0.55361589043E+03  0.67893350559E+03  0.15294330000E+03 0.  0.
    8880022    1    1    2    0    0 -0.35728821171E+03 -0.58426292345E+02  0.38648841338E+03  0.55121088937E+03  0.15294330000E+03 0.  0.
<mgrwt>
<rscale>  0 0.39301419E+03</rscale>
<asrwt>0</asrwt>
<pdfrwt beam="1">  1        2 0.81770532E-01 0.39301419E+03</pdfrwt>
<pdfrwt beam="2">  1       -2 0.10748245E+00 0.39301419E+03</pdfrwt>
<totfact> 0.41739375E+01</totfact>
</mgrwt>
</event>
<event>
 4    1  0.1701380E-008  0.2055948E+03  0.7818608E-02  0.1145103E+00
         -2   -1    0    0    0  501 -0.00000000000E+00  0.00000000000E+00  0.27398130961E+03  0.27398130962E+03  0.25500000000E-02 0.  1.
          2   -1    0    0  501    0  0.00000000000E+00 -0.00000000000E+00 -0.85152259145E+03  0.85152259145E+03  0.25500000000E-02 0. -1.
    8880022    1    1    2    0    0  0.11198438149E+03 -0.79605695271E+02 -0.79799781962E+03  0.82405688005E+03  0.15294330000E+03 0.  0.
    8880022    1    1    2    0    0 -0.11198438149E+03  0.79605695271E+02  0.22045653779E+03  0.30144702103E+03  0.15294330000E+03 0.  1.
<mgrwt>
<rscale>  0 0.20559480E+03</rscale>
<asrwt>0</asrwt>
<pdfrwt beam="1">  1        2 0.13100347E+00 0.20559480E+03</pdfrwt>
<pdfrwt beam="2">  1       -2 0.42150971E-01 0.20559480E+03</pdfrwt>
<totfact> 0.17984463E+02</totfact>
</mgrwt>
</event>
<event>
 4    1  0.1701380E-008  0.7963322E+03  0.7818608E-02  0.9565341E-01
         -2   -1    0    0    0  501 -0.00000000000E+00  0.00000000000E+00  0.25004434889E+03  0.25004434890E+03  0.25500000000E-02 0.  1.
          2   -1    0    0  501    0  0.00000000000E+00 -0.00000000000E+00 -0.32473878315E+04  0.32473878315E+04  0.25500000000E-02 0. -1.
    8880022    1    1    2    0    0 -0.35138059349E+00  0.78150696415E+03 -0.68027133886E+03  0.10473366250E+04  0.15294330000E+03 0.  0.
    8880022    1    1    2    0    0  0.35138059349E+00 -0.78150696415E+03 -0.23170721438E+04  0.24500955555E+04  0.15294330000E+03 0.  0.
<mgrwt>
<rscale>  0 0.79633216E+03</rscale>
<asrwt>0</asrwt>
<pdfrwt beam="1">  1        2 0.49959810E+00 0.79633216E+03</pdfrwt>
<pdfrwt beam="2">  1       -2 0.38468364E-01 0.79633216E+03</pdfrwt>
<totfact> 0.81911436E+00</totfact>
</mgrwt>
</event>
<event>
 4    1  0.1701380E-008  0.1283670E+04  0.7818608E-02  0.9042616E-01
          2   -1    0    0  501    0  0.00000000000E+00  0.00000000000E+00  0.98325269429E+03  0.98325269429E+03  0.25500000000E-02 0. -1.
         -2   -1    0    0    0  501 -0.00000000000E+00 -0.00000000000E+00 -0.21888275401E+04  0.21888275401E+04  0.25500000000E-02 0.  1.
    8880022    1    1    2    0    0 -0.60535363495E+03  0.11215904885E+04 -0.13705844609E+04  0.18778476149E+04  0.15294330000E+03 0.  0.
    8880022    1    1    2    0    0  0.60535363495E+03 -0.11215904885E+04  0.16500961505E+03  0.12942326195E+04  0.15294330000E+03 0.  0.
<mgrwt>
<rscale>  0 0.12836705E+04</rscale>
<asrwt>0</asrwt>
<pdfrwt beam="1">  1        2 0.15126965E+00 0.12836705E+04</pdfrwt>
<pdfrwt beam="2">  1       -2 0.33674270E+00 0.12836705E+04</pdfrwt>
<totfact> 0.47288207E-01</totfact>
</mgrwt>
</event>
<event>
 4    1  0.1701380E-008  0.9794479E+03  0.7818608E-02  0.9331378E-01
         -2   -1    0    0    0  501 -0.00000000000E+00  0.00000000000E+00  0.81095921929E+03  0.81095921929E+03  0.25500000000E-02 0.  1.
          2   -1    0    0  501    0  0.00000000000E+00 -0.00000000000E+00 -0.13879530372E+04  0.13879530372E+04  0.25500000000E-02 0. -1.
    8880022    1    1    2    0    0  0.96569360683E+03 -0.57986140373E+02  0.13405350359E+03  0.98857904569E+03  0.15294330000E+03 0.  0.
    8880022    1    1    2    0    0 -0.96569360683E+03  0.57986140373E+02 -0.71104732150E+03  0.12103332108E+04  0.15294330000E+03 0.  0.
<mgrwt>
<rscale>  0 0.97944790E+03</rscale>
<asrwt>0</asrwt>
<pdfrwt beam="1">  1        2 0.21353124E+00 0.97944790E+03</pdfrwt>
<pdfrwt beam="2">  1       -2 0.12476296E+00 0.97944790E+03</pdfrwt>
<totfact> 0.70494914E+00</totfact>
</mgrwt>
</event>
<event>
 4    1  0.1701380E-008  0.8958476E+03  0.7818608E-02  0.9430787E-01
          2   -1    0    0  501    0  0.00000000000E+00  0.00000000000E+00  0.16239412863E+04  0.16239412863E+04  0.25500000000E-02 0. -1.
         -2   -1    0    0    0  501 -0.00000000000E+00 -0.00000000000E+00 -0.89725728159E+03  0.89725728159E+03  0.25500000000E-02 0.  1.
    8880022    1    1    2    0    0  0.75898230621E+03 -0.45066292271E+03 -0.48155720991E+03  0.10170743387E+04  0.15294330000E+03 0.  0.
    8880022    1    1    2    0    0 -0.75898230621E+03  0.45066292271E+03  0.12082412146E+04  0.15041242292E+04  0.15294330000E+03 0. -1.
<mgrwt>
<rscale>  0 0.89584757E+03</rscale>
<asrwt>0</asrwt>
<pdfrwt beam="1">  1        2 0.24983712E+00 0.89584757E+03</pdfrwt>
<pdfrwt beam="2">  1       -2 0.13803958E+00 0.89584757E+03</pdfrwt>
<totfact> 0.40564421E+00</totfact>
</mgrwt>
</event>
<event>
 4    1  0.1701380E-008  0.6295047E+03  0.7818608E-02  0.9846016E-01
         -2   -1    0    0    0  501 -0.00000000000E+00  0.00000000000E+00  0.74110632599E+03  0.74110632600E+03  0.25500000000E-02 0.  1.
          2   -1    0    0  501    0  0.00000000000E+00 -0.00000000000E+00 -0.78209593110E+03  0.78209593111E+03  0.25500000000E-02 0. -1.
    8880022    1    1    2    0    0  0.17598795886E+01 -0.61064017792E+03 -0.44883220236E+03  0.77312775333E+03  0.15294330000E+03 0.  0.
    8880022    1    1    2    0    0 -0.17598795886E+01  0.61064017792E+03  0.40784259725E+03  0.75007450378E+03  0.15294330000E+03 0.  0.
<mgrwt>
<rscale>  0 0.62950471E+03</rscale>
<asrwt>0</asrwt>
<pdfrwt beam="1">  1        2 0.12032245E+00 0.62950471E+03</pdfrwt>
<pdfrwt beam="2">  1       -2 0.11401636E+00 0.62950471E+03</pdfrwt>
<totfact> 0.21953345E+01</totfact>
</mgrwt>
</event>
<event>
 4    1  0.1701380E-008  0.1232198E+04  0.7818608E-02  0.9085131E-01
         -2   -1    0    0    0  501 -0.00000000000E+00  0.00000000000E+00  0.85817585329E+03  0.85817585329E+03  0.25500000000E-02 0.  1.
          2   -1    0    0  501    0  0.00000000000E+00 -0.00000000000E+00 -0.22518995220E+04  0.22518995220E+04  0.25500000000E-02 0. -1.
    8880022    1    1    2    0    0 -0.60484173230E+03  0.10625846922E+04  0.23069143853E+02  0.12324137242E+04  0.15294330000E+03 0.  0.
    8880022    1    1    2    0    0  0.60484173230E+03 -0.10625846922E+04 -0.14167928126E+04  0.18776616511E+04  0.15294330000E+03 0.  0.
<mgrwt>
<rscale>  0 0.12321978E+04</rscale>
<asrwt>0</asrwt>
<pdfrwt beam="1">  1        2 0.34644608E+00 0.12321978E+04</pdfrwt>
<pdfrwt beam="2">  1       -2 0.13202706E+00 0.12321978E+04</pdfrwt>
<totfact> 0.19617195E+00</totfact>
</mgrwt>
</event>
<event>
 4    1  0.1701380E-008  0.1650561E+04  0.7818608E-02  0.8790074E-01
          2   -1    0    0  501    0  0.00000000000E+00  0.00000000000E+00  0.16977704789E+04  0.16977704789E+04  0.25500000000E-02 0. -1.
         -2   -1    0    0    0  501 -0.00000000000E+00 -0.00000000000E+00 -0.17723123260E+04  0.17723123260E+04  0.25500000000E-02 0.  1.
    8880022    1    1    2    0    0  0.26765225590E+03 -0.16215188855E+04  0.49635635074E+03  0.17235784015E+04  0.15294330000E+03 0.  0.
    8880022    1    1    2    0    0 -0.26765225590E+03  0.16215188855E+04 -0.57089819780E+03  0.17465044035E+04  0.15294330000E+03 0.  0.
<mgrwt>
<rscale>  0 0.16505614E+04</rscale>
<asrwt>0</asrwt>
<pdfrwt beam="1">  1        2 0.26119546E+00 0.16505614E+04</pdfrwt>
<pdfrwt beam="2">  1       -2 0.27266344E+00 0.16505614E+04</pdfrwt>
<totfact> 0.42457430E-01</totfact>
</mgrwt>
</event>
<event>
 4    1  0.1701380E-008  0.2085118E+03  0.7818608E-02  0.1142750E+00
          2   -1    0    0  501    0  0.00000000000E+00  0.00000000000E+00  0.19328652300E+04  0.19328652300E+04  0.25500000000E-02 0. -1.
         -2   -1    0    0    0  501 -0.00000000000E+00 -0.00000000000E+00 -0.12153277410E+03  0.12153277412E+03  0.25500000000E-02 0.  1.
    8880022    1    1    2    0    0 -0.11178290269E+03 -0.87121216325E+02  0.18329470936E+04  0.18447688811E+04  0.15294330000E+03 0.  0.
    8880022    1    1    2    0    0  0.11178290269E+03  0.87121216325E+02 -0.21614637660E+02  0.20962912308E+03  0.15294330000E+03 0.  1.
<mgrwt>
<rscale>  0 0.20851181E+03</rscale>
<asrwt>0</asrwt>
<pdfrwt beam="1">  1        2 0.29736387E+00 0.20851181E+03</pdfrwt>
<pdfrwt beam="2">  1       -2 0.18697351E-01 0.20851181E+03</pdfrwt>
<totfact> 0.19473779E+02</totfact>
</mgrwt>
</event>
<event>
 4    1  0.1701380E-008  0.1316061E+04  0.7818608E-02  0.9016925E-01
         -2   -1    0    0    0  501 -0.00000000000E+00  0.00000000000E+00  0.90063065195E+03  0.90063065195E+03  0.25500000000E-02 0.  1.
          2   -1    0    0  501    0  0.00000000000E+00 -0.00000000000E+00 -0.30375361253E+04  0.30375361253E+04  0.25500000000E-02 0. -1.
    8880022    1    1    2    0    0 -0.46192745226E+03  0.12228032543E+04  0.12423849811E+03  0.13219121103E+04  0.15294330000E+03 0.  0.
    8880022    1    1    2    0    0  0.46192745226E+03 -0.12228032543E+04 -0.22611439714E+04  0.26162546670E+04  0.15294330000E+03 0.  0.
<mgrwt>
<rscale>  0 0.13160609E+04</rscale>
<asrwt>0</asrwt>
<pdfrwt beam="1">  1        2 0.46731324E+00 0.13160609E+04</pdfrwt>
<pdfrwt beam="2">  1       -2 0.13855856E+00 0.13160609E+04</pdfrwt>
<totfact> 0.59078926E-01</totfact>
</mgrwt>
</event>
<event>
 4    1  0.1701380E-008  0.3166178E+03  0.7818608E-02  0.1077217E+00
          2   -1    0    0  501    0  0.00000000000E+00  0.00000000000E+00  0.11381653859E+04  0.11381653859E+04  0.25500000000E-02 0. -1.
         -2   -1    0    0    0  501 -0.00000000000E+00 -0.00000000000E+00 -0.63827465541E+03  0.63827465542E+03  0.25500000000E-02 0.  1.
    8880022    1    1    2    0    0 -0.25745312959E+03 -0.10282536977E+03 -0.57471649058E+03  0.65615994099E+03  0.15294330000E+03 0.  0.
    8880022    1    1    2    0    0  0.25745312959E+03  0.10282536977E+03  0.10746072210E+04  0.11202801003E+04  0.15294330000E+03 0.  0.
<mgrwt>
<rscale>  0 0.31661779E+03</rscale>
<asrwt>0</asrwt>
<pdfrwt beam="1">  1        2 0.17510237E+00 0.31661779E+03</pdfrwt>
<pdfrwt beam="2">  1       -2 0.98196102E-01 0.31661779E+03</pdfrwt>
<totfact> 0.19495059E+01</totfact>
</mgrwt>
</event>
<event>
 4    1  0.1701380E-008  0.9032806E+03  0.7818608E-02  0.9421490E-01
          2   -1    0    0  501    0  0.00000000000E+00  0.00000000000E+00  0.14502773099E+04  0.14502773099E+04  0.25500000000E-02 0. -1.
         -2   -1    0    0    0  501 -0.00000000000E+00 -0.00000000000E+00 -0.87573666819E+03  0.87573666820E+03  0.25500000000E-02 0.  1.
    8880022    1    1    2    0    0 -0.88876839129E+03  0.51136027671E+02 -0.40818207039E+03  0.99122570704E+03  0.15294330000E+03 0.  0.
    8880022    1    1    2    0    0  0.88876839129E+03 -0.51136027671E+02  0.98272271209E+03  0.13347882711E+04  0.15294330000E+03 0.  0.
<mgrwt>
<rscale>  0 0.90328058E+03</rscale>
<asrwt>0</asrwt>
<pdfrwt beam="1">  1        2 0.22311958E+00 0.90328058E+03</pdfrwt>
<pdfrwt beam="2">  1       -2 0.13472872E+00 0.90328058E+03</pdfrwt>
<totfact> 0.53927454E+00</totfact>
</mgrwt>
</event>
<event>
 4    1  0.1701380E-008  0.1203188E+04  0.7818608E-02  0.9110071E-01
         -2   -1    0    0    0  501 -0.00000000000E+00  0.00000000000E+00  0.14750388866E+04  0.14750388866E+04  0.25500000000E-02 0.  1.
          2   -1    0    0  501    0  0.00000000000E+00 -0.00000000000E+00 -0.16567815197E+04  0.16567815197E+04  0.25500000000E-02 0. -1.
    8880022    1    1    2    0    0  0.65884582239E+03  0.99508343636E+03 -0.10906326081E+04  0.16239273389E+04  0.15294330000E+03 0.  0.
    8880022    1    1    2    0    0 -0.65884582239E+03 -0.99508343636E+03  0.90888997508E+03  0.15078930674E+04  0.15294330000E+03 0.  0.
<mgrwt>
<rscale>  0 0.12031876E+04</rscale>
<asrwt>0</asrwt>
<pdfrwt beam="1">  1        2 0.25488946E+00 0.12031876E+04</pdfrwt>
<pdfrwt beam="2">  1       -2 0.22692906E+00 0.12031876E+04</pdfrwt>
<totfact> 0.89887818E-01</totfact>
</mgrwt>
</event>
<event>
 4    1  0.1701380E-008  0.4448596E+03  0.7818608E-02  0.1029266E+00
          2   -1    0    0  501    0  0.00000000000E+00  0.00000000000E+00  0.16248389600E+04  0.16248389600E+04  0.25500000000E-02 0. -1.
         -2   -1    0    0    0  501 -0.00000000000E+00 -0.00000000000E+00 -0.11197020773E+04  0.11197020773E+04  0.25500000000E-02 0.  1.
    8880022    1    1    2    0    0  0.63360810050E+02  0.41290896998E+03  0.15480557639E+04  0.16107068979E+04  0.15294330000E+03 0. -1.
    8880022    1    1    2    0    0 -0.63360810050E+02 -0.41290896998E+03 -0.10429188813E+04  0.11338341394E+04  0.15294330000E+03 0.  0.
<mgrwt>
<rscale>  0 0.44485960E+03</rscale>
<asrwt>0</asrwt>
<pdfrwt beam="1">  1        2 0.24997522E+00 0.44485960E+03</pdfrwt>
<pdfrwt beam="2">  1       -2 0.17226186E+00 0.44485960E+03</pdfrwt>
<totfact> 0.24510202E+00</totfact>
</mgrwt>
</event>
<event>
 4    1  0.1701380E-008  0.5471277E+03  0.7818608E-02  0.1002161E+00
         -2   -1    0    0    0  501 -0.00000000000E+00  0.00000000000E+00  0.47645085203E+03  0.47645085204E+03  0.25500000000E-02 0.  1.
          2   -1    0    0  501    0  0.00000000000E+00 -0.00000000000E+00 -0.11312585224E+04  0.11312585224E+04  0.25500000000E-02 0. -1.
    8880022    1    1    2    0    0  0.77984119691E+02  0.51949549227E+03  0.20859954693E+03  0.58554462974E+03  0.15294330000E+03 0.  0.
    8880022    1    1    2    0    0 -0.77984119691E+02 -0.51949549227E+03 -0.86340721729E+03  0.10221647447E+04  0.15294330000E+03 0.  0.
<mgrwt>
<rscale>  0 0.54712772E+03</rscale>
<asrwt>0</asrwt>
<pdfrwt beam="1">  1        2 0.17403977E+00 0.54712772E+03</pdfrwt>
<pdfrwt beam="2">  1       -2 0.73300132E-01 0.54712772E+03</pdfrwt>
<totfact> 0.36468835E+01</totfact>
</mgrwt>
</event>
<event>
 4    1  0.1701380E-008  0.8494571E+03  0.7818608E-02  0.9491066E-01
         -2   -1    0    0    0  501 -0.00000000000E+00  0.00000000000E+00  0.12727338117E+04  0.12727338117E+04  0.25500000000E-02 0.  1.
          2   -1    0    0  501    0  0.00000000000E+00 -0.00000000000E+00 -0.99884264338E+03  0.99884264339E+03  0.25500000000E-02 0. -1.
    8880022    1    1    2    0    0 -0.81267666895E+03 -0.19427395184E+03 -0.60990951629E+03  0.10457375425E+04  0.15294330000E+03 0.  0.
    8880022    1    1    2    0    0  0.81267666895E+03  0.19427395184E+03  0.88380068461E+03  0.12258389126E+04  0.15294330000E+03 0.  0.
<mgrwt>
<rscale>  0 0.84945711E+03</rscale>
<asrwt>0</asrwt>
<pdfrwt beam="1">  1        2 0.15366810E+00 0.84945711E+03</pdfrwt>
<pdfrwt beam="2">  1       -2 0.19580520E+00 0.84945711E+03</pdfrwt>
<totfact> 0.36114991E+00</totfact>
</mgrwt>
</event>
<event>
 4    1  0.1701380E-008  0.6786872E+03  0.7818608E-02  0.9754390E-01
         -2   -1    0    0    0  501 -0.00000000000E+00  0.00000000000E+00  0.91415087224E+03  0.91415087224E+03  0.25500000000E-02 0.  1.
          2   -1    0    0  501    0  0.00000000000E+00 -0.00000000000E+00 -0.54886548988E+03  0.54886548988E+03  0.25500000000E-02 0. -1.
    8880022    1    1    2    0    0 -0.66088668801E+03  0.21295355617E+02 -0.26794611747E+02  0.67921595299E+03  0.15294330000E+03 0.  0.
    8880022    1    1    2    0    0  0.66088668801E+03 -0.21295355617E+02  0.39207999411E+03  0.78380040913E+03  0.15294330000E+03 0.  0.
<mgrwt>
<rscale>  0 0.67868723E+03</rscale>
<asrwt>0</asrwt>
<pdfrwt beam="1">  1        2 0.84440844E-01 0.67868723E+03</pdfrwt>
<pdfrwt beam="2">  1       -2 0.14063860E+00 0.67868723E+03</pdfrwt>
<totfact> 0.19982628E+01</totfact>
</mgrwt>
</event>
<event>
 4    1  0.1701380E-008  0.1097276E+04  0.7818608E-02  0.9207850E-01
          2   -1    0    0  501    0  0.00000000000E+00  0.00000000000E+00  0.21052683202E+04  0.21052683202E+04  0.25500000000E-02 0. -1.
         -2   -1    0    0    0  501 -0.00000000000E+00 -0.00000000000E+00 -0.11334931439E+04  0.11334931439E+04  0.25500000000E-02 0.  1.
    8880022    1    1    2    0    0 -0.88986414970E+03 -0.62351080946E+03 -0.65396344375E+03  0.12773737798E+04  0.15294330000E+03 0.  0.
    8880022    1    1    2    0    0  0.88986414970E+03  0.62351080946E+03  0.16257386200E+04  0.19613876843E+04  0.15294330000E+03 0.  0.
<mgrwt>
<rscale>  0 0.10972764E+04</rscale>
<asrwt>0</asrwt>
<pdfrwt beam="1">  1        2 0.32388743E+00 0.10972764E+04</pdfrwt>
<pdfrwt beam="2">  1       -2 0.17438356E+00 0.10972764E+04</pdfrwt>
<totfact> 0.11413655E+00</totfact>
</mgrwt>
</event>
<event>
 4    1  0.1701380E-008  0.6205619E+03  0.7818608E-02  0.9863642E-01
         -2   -1    0    0    0  501 -0.00000000000E+00  0.00000000000E+00  0.40826631631E+03  0.40826631632E+03  0.25500000000E-02 0.  1.
          2   -1    0    0  501    0  0.00000000000E+00 -0.00000000000E+00 -0.24524078305E+04  0.24524078305E+04  0.25500000000E-02 0. -1.
    8880022    1    1    2    0    0 -0.39792027348E+03  0.45095994568E+03 -0.21441135641E+04  0.22321111186E+04  0.15294330000E+03 0.  0.
    8880022    1    1    2    0    0  0.39792027348E+03 -0.45095994568E+03  0.99972049993E+02  0.62856302822E+03  0.15294330000E+03 0.  0.
<mgrwt>
<rscale>  0 0.62056190E+03</rscale>
<asrwt>0</asrwt>
<pdfrwt beam="1">  1        2 0.37729350E+00 0.62056190E+03</pdfrwt>
<pdfrwt beam="2">  1       -2 0.62810204E-01 0.62056190E+03</pdfrwt>
<totfact> 0.93482321E+00</totfact>
</mgrwt>
</event>
<event>
 4    1  0.1701380E-008  0.7055332E+03  0.7818608E-02  0.9707816E-01
          2   -1    0    0  501    0  0.00000000000E+00  0.00000000000E+00  0.13231516404E+04  0.13231516404E+04  0.25500000000E-02 0. -1.
         -2   -1    0    0    0  501 -0.00000000000E+00 -0.00000000000E+00 -0.92760919215E+03  0.92760919216E+03  0.25500000000E-02 0.  1.
    8880022    1    1    2    0    0 -0.90134177633E+02  0.68283324272E+03  0.10654353187E+04  0.12778612908E+04  0.15294330000E+03 0.  0.
    8880022    1    1    2    0    0  0.90134177633E+02 -0.68283324272E+03 -0.66989287045E+03  0.97289954170E+03  0.15294330000E+03 0.  0.
<mgrwt>
<rscale>  0 0.70553317E+03</rscale>
<asrwt>0</asrwt>
<pdfrwt beam="1">  1        2 0.20356179E+00 0.70553317E+03</pdfrwt>
<pdfrwt beam="2">  1       -2 0.14270911E+00 0.70553317E+03</pdfrwt>
<totfact> 0.56371199E+00</totfact>
</mgrwt>
</event>
<event>
 4    1  0.1701380E-008  0.7101185E+03  0.7818608E-02  0.9700083E-01
          2   -1    0    0  501    0  0.00000000000E+00  0.00000000000E+00  0.11248254629E+04  0.11248254629E+04  0.25500000000E-02 0. -1.
         -2   -1    0    0    0  501 -0.00000000000E+00 -0.00000000000E+00 -0.20619086633E+04  0.20619086633E+04  0.25500000000E-02 0.  1.
    8880022    1    1    2    0    0  0.69015725611E+03 -0.67524350178E+02 -0.18780872923E+04  0.20078546030E+04  0.15294330000E+03 0.  0.
    8880022    1    1    2    0    0 -0.69015725611E+03  0.67524350178E+02  0.94100409204E+03  0.11788795232E+04  0.15294330000E+03 0.  0.
<mgrwt>
<rscale>  0 0.71011846E+03</rscale>
<asrwt>0</asrwt>
<pdfrwt beam="1">  1        2 0.17305007E+00 0.71011846E+03</pdfrwt>
<pdfrwt beam="2">  1       -2 0.31721672E+00 0.71011846E+03</pdfrwt>
<totfact> 0.55627871E-01</totfact>
</mgrwt>
</event>
<event>
 4    1  0.1701380E-008  0.1036502E+04  0.7818608E-02  0.9269392E-01
         -2   -1    0    0    0  501 -0.00000000000E+00  0.00000000000E+00  0.13454827207E+04  0.13454827208E+04  0.25500000000E-02 0.  1.
          2   -1    0    0  501    0  0.00000000000E+00 -0.00000000000E+00 -0.13746209372E+04  0.13746209372E+04  0.25500000000E-02 0. -1.
    8880022    1    1    2    0    0 -0.87980089769E+03 -0.52620888087E+03  0.86593110393E+03  0.13506197598E+04  0.15294330000E+03 0.  0.
    8880022    1    1    2    0    0  0.87980089769E+03  0.52620888087E+03 -0.89506932035E+03  0.13694838981E+04  0.15294330000E+03 0.  0.
<mgrwt>
<rscale>  0 0.10365023E+04</rscale>
<asrwt>0</asrwt>
<pdfrwt beam="1">  1        2 0.21148014E+00 0.10365023E+04</pdfrwt>
<pdfrwt beam="2">  1       -2 0.20699734E+00 0.10365023E+04</pdfrwt>
<totfact> 0.17715420E+00</totfact>
</mgrwt>
</event>
<event>
 4    1  0.1701380E-008  0.1221663E+04  0.7818608E-02  0.9094103E-01
         -2   -1    0    0    0  501 -0.00000000000E+00  0.00000000000E+00  0.44282894968E+03  0.44282894969E+03  0.25500000000E-02 0.  1.
          2   -1    0    0  501    0  0.00000000000E+00 -0.00000000000E+00 -0.36155571864E+04  0.36155571864E+04  0.25500000000E-02 0. -1.
    8880022    1    1    2    0    0 -0.12116983344E+04  0.29266039321E+02 -0.21148792460E+04  0.24423708222E+04  0.15294330000E+03 0.  0.
    8880022    1    1    2    0    0  0.12116983344E+04 -0.29266039321E+02 -0.10578489907E+04  0.16160153139E+04  0.15294330000E+03 0.  0.
<mgrwt>
<rscale>  0 0.12216632E+04</rscale>
<asrwt>0</asrwt>
<pdfrwt beam="1">  1        2 0.55623955E+00 0.12216632E+04</pdfrwt>
<pdfrwt beam="2">  1       -2 0.68127533E-01 0.12216632E+04</pdfrwt>
<totfact> 0.13334396E+00</totfact>
</mgrwt>
</event>
<event>
 4    1  0.1701380E-008  0.9618390E+03  0.7818608E-02  0.9351419E-01
          2   -1    0    0  501    0  0.00000000000E+00  0.00000000000E+00  0.31767275347E+04  0.31767275347E+04  0.25500000000E-02 0. -1.
         -2   -1    0    0    0  501 -0.00000000000E+00 -0.00000000000E+00 -0.50135833023E+03  0.50135833024E+03  0.25500000000E-02 0.  1.
    8880022    1    1    2    0    0  0.93864754583E+03  0.14381723178E+03  0.25282901265E+04  0.27050665848E+04  0.15294330000E+03 0.  0.
    8880022    1    1    2    0    0 -0.93864754583E+03 -0.14381723178E+03  0.14707907804E+03  0.97301928021E+03  0.15294330000E+03 0.  0.
<mgrwt>
<rscale>  0 0.96183900E+03</rscale>
<asrwt>0</asrwt>
<pdfrwt beam="1">  1        2 0.48872730E+00 0.96183900E+03</pdfrwt>
<pdfrwt beam="2">  1       -2 0.77132053E-01 0.96183900E+03</pdfrwt>
<totfact> 0.20798167E+00</totfact>
</mgrwt>
</event>
<event>
 4    1  0.1701380E-008  0.1442422E+04  0.7818608E-02  0.8923671E-01
          2   -1    0    0  501    0  0.00000000000E+00  0.00000000000E+00  0.11117922783E+04  0.11117922783E+04  0.25500000000E-02 0. -1.
         -2   -1    0    0    0  501 -0.00000000000E+00 -0.00000000000E+00 -0.22789839110E+04  0.22789839110E+04  0.25500000000E-02 0.  1.
    8880022    1    1    2    0    0  0.97102917758E+03 -0.10556003647E+04 -0.13005968354E+04  0.19421981297E+04  0.15294330000E+03 0.  0.
    8880022    1    1    2    0    0 -0.97102917758E+03  0.10556003647E+04  0.13340520270E+03  0.14485780596E+04  0.15294330000E+03 0.  0.
<mgrwt>
<rscale>  0 0.14424221E+04</rscale>
<asrwt>0</asrwt>
<pdfrwt beam="1">  1        2 0.17104497E+00 0.14424221E+04</pdfrwt>
<pdfrwt beam="2">  1       -2 0.35061291E+00 0.14424221E+04</pdfrwt>
<totfact> 0.31492342E-01</totfact>
</mgrwt>
</event>
<event>
 4    1  0.1701380E-008  0.1068642E+04  0.7818608E-02  0.9236307E-01
          2   -1    0    0  501    0  0.00000000000E+00  0.00000000000E+00  0.35413723333E+04  0.35413723333E+04  0.25500000000E-02 0. -1.
         -2   -1    0    0    0  501 -0.00000000000E+00 -0.00000000000E+00 -0.12817584374E+04  0.12817584374E+04  0.25500000000E-02 0.  1.
    8880022    1    1    2    0    0  0.10333162565E+04  0.22552345924E+03  0.32160744936E+04  0.33889718379E+04  0.15294330000E+03 0.  0.
    8880022    1    1    2    0    0 -0.10333162565E+04 -0.22552345924E+03 -0.95646059773E+03  0.14341589328E+04  0.15294330000E+03 0.  0.
<mgrwt>
<rscale>  0 0.10686416E+04</rscale>
<asrwt>0</asrwt>
<pdfrwt beam="1">  1        2 0.54482651E+00 0.10686416E+04</pdfrwt>
<pdfrwt beam="2">  1       -2 0.19719361E+00 0.10686416E+04</pdfrwt>
<totfact> 0.10743139E-01</totfact>
</mgrwt>
</event>
<event>
 4    1  0.1701380E-008  0.7371407E+03  0.7818608E-02  0.9655743E-01
         -2   -1    0    0    0  501 -0.00000000000E+00  0.00000000000E+00  0.72889299682E+03  0.72889299682E+03  0.25500000000E-02 0.  1.
          2   -1    0    0  501    0  0.00000000000E+00 -0.00000000000E+00 -0.30163433604E+04  0.30163433604E+04  0.25500000000E-02 0. -1.
    8880022    1    1    2    0    0 -0.84970922081E+02 -0.71607593372E+03 -0.27685411449E+04  0.28649950305E+04  0.15294330000E+03 0.  0.
    8880022    1    1    2    0    0  0.84970922081E+02  0.71607593372E+03  0.48109078133E+03  0.88024132676E+03  0.15294330000E+03 0.  0.
<mgrwt>
<rscale>  0 0.73714073E+03</rscale>
<asrwt>0</asrwt>
<pdfrwt beam="1">  1        2 0.46405282E+00 0.73714073E+03</pdfrwt>
<pdfrwt beam="2">  1       -2 0.11213739E+00 0.73714073E+03</pdfrwt>
<totfact> 0.11427740E+00</totfact>
</mgrwt>
</event>
<event>
 4    1  0.1701380E-008  0.7390813E+03  0.7818608E-02  0.9652638E-01
         -2   -1    0    0    0  501 -0.00000000000E+00  0.00000000000E+00  0.52798449973E+03  0.52798449974E+03  0.25500000000E-02 0.  1.
          2   -1    0    0  501    0  0.00000000000E+00 -0.00000000000E+00 -0.18490358238E+04  0.18490358238E+04  0.25500000000E-02 0. -1.
    8880022    1    1    2    0    0  0.60592950871E+03  0.39458696754E+03 -0.14493214117E+04  0.16268907928E+04  0.15294330000E+03 0.  0.
    8880022    1    1    2    0    0 -0.60592950871E+03 -0.39458696754E+03  0.12827008759E+03  0.75012953072E+03  0.15294330000E+03 0.  0.
<mgrwt>
<rscale>  0 0.73908125E+03</rscale>
<asrwt>0</asrwt>
<pdfrwt beam="1">  1        2 0.28446705E+00 0.73908125E+03</pdfrwt>
<pdfrwt beam="2">  1       -2 0.81228385E-01 0.73908125E+03</pdfrwt>
<totfact> 0.11185763E+01</totfact>
</mgrwt>
</event>
<event>
 4    1  0.1701380E-008  0.1000227E+04  0.7818608E-02  0.9308295E-01
          2   -1    0    0  501    0  0.00000000000E+00  0.00000000000E+00  0.28275830058E+04  0.28275830059E+04  0.25500000000E-02 0. -1.
         -2   -1    0    0    0  501 -0.00000000000E+00 -0.00000000000E+00 -0.53148029178E+03  0.53148029179E+03  0.25500000000E-02 0.  1.
    8880022    1    1    2    0    0 -0.98457240313E+03 -0.87638850566E+02  0.21190977064E+04  0.23432947163E+04  0.15294330000E+03 0.  0.
    8880022    1    1    2    0    0  0.98457240313E+03  0.87638850566E+02  0.17700500770E+03  0.10157685814E+04  0.15294330000E+03 0.  0.
<mgrwt>
<rscale>  0 0.10002275E+04</rscale>
<asrwt>0</asrwt>
<pdfrwt beam="1">  1        2 0.43501277E+00 0.10002275E+04</pdfrwt>
<pdfrwt beam="2">  1       -2 0.81766198E-01 0.10002275E+04</pdfrwt>
<totfact> 0.29773010E+00</totfact>
</mgrwt>
</event>
<event>
 4    1  0.1701380E-008  0.6651359E+03  0.7818608E-02  0.9778785E-01
         -2   -1    0    0    0  501 -0.00000000000E+00  0.00000000000E+00  0.79396962807E+03  0.79396962808E+03  0.25500000000E-02 0.  1.
          2   -1    0    0  501    0  0.00000000000E+00 -0.00000000000E+00 -0.34655210821E+04  0.34655210821E+04  0.25500000000E-02 0. -1.
    8880022    1    1    2    0    0  0.59360337636E+03 -0.25816502533E+03  0.61525462486E+03  0.90605963113E+03  0.15294330000E+03 0.  0.
    8880022    1    1    2    0    0 -0.59360337636E+03  0.25816502533E+03 -0.32868060789E+04  0.33534310791E+04  0.15294330000E+03 0.  0.
<mgrwt>
<rscale>  0 0.66513593E+03</rscale>
<asrwt>0</asrwt>
<pdfrwt beam="1">  1        2 0.53315708E+00 0.66513593E+03</pdfrwt>
<pdfrwt beam="2">  1       -2 0.12214918E+00 0.66513593E+03</pdfrwt>
<totfact> 0.48581706E-01</totfact>
</mgrwt>
</event>
<event>
 4    1  0.1701380E-008  0.1649375E+04  0.7818608E-02  0.8790776E-01
          2   -1    0    0  501    0  0.00000000000E+00  0.00000000000E+00  0.35665301793E+04  0.35665301793E+04  0.25500000000E-02 0. -1.
         -2   -1    0    0    0  501 -0.00000000000E+00 -0.00000000000E+00 -0.87078401179E+03  0.87078401180E+03  0.25500000000E-02 0.  1.
    8880022    1    1    2    0    0 -0.76193180241E+03  0.14548221721E+04  0.21292789581E+04  0.26933748640E+04  0.15294330000E+03 0.  0.
    8880022    1    1    2    0    0  0.76193180241E+03 -0.14548221721E+04  0.56646720940E+03  0.17439393270E+04  0.15294330000E+03 0.  0.
<mgrwt>
<rscale>  0 0.16493754E+04</rscale>
<asrwt>0</asrwt>
<pdfrwt beam="1">  1        2 0.54869694E+00 0.16493754E+04</pdfrwt>
<pdfrwt beam="2">  1       -2 0.13396677E+00 0.16493754E+04</pdfrwt>
<totfact> 0.27583899E-01</totfact>
</mgrwt>
</event>
<event>
 4    1  0.1701380E-008  0.5588369E+03  0.7818608E-02  0.9994690E-01
         -2   -1    0    0    0  501 -0.00000000000E+00  0.00000000000E+00  0.50809614484E+03  0.50809614484E+03  0.25500000000E-02 0.  1.
          2   -1    0    0  501    0  0.00000000000E+00 -0.00000000000E+00 -0.87340646701E+03  0.87340646701E+03  0.25500000000E-02 0. -1.
    8880022    1    1    2    0    0  0.20800056273E+03 -0.49562366420E+03  0.19332367588E+03  0.59133133460E+03  0.15294330000E+03 0.  0.
    8880022    1    1    2    0    0 -0.20800056273E+03  0.49562366420E+03 -0.55863399805E+03  0.79017127726E+03  0.15294330000E+03 0.  0.
<mgrwt>
<rscale>  0 0.55883692E+03</rscale>
<asrwt>0</asrwt>
<pdfrwt beam="1">  1        2 0.13437023E+00 0.55883692E+03</pdfrwt>
<pdfrwt beam="2">  1       -2 0.78168638E-01 0.55883692E+03</pdfrwt>
<totfact> 0.46002871E+01</totfact>
</mgrwt>
</event>
<event>
 4    1  0.1701380E-008  0.1070166E+04  0.7818608E-02  0.9234768E-01
          2   -1    0    0  501    0  0.00000000000E+00  0.00000000000E+00  0.11888047332E+04  0.11888047332E+04  0.25500000000E-02 0. -1.
         -2   -1    0    0    0  501 -0.00000000000E+00 -0.00000000000E+00 -0.11603474666E+04  0.11603474666E+04  0.25500000000E-02 0.  1.
    8880022    1    1    2    0    0 -0.48183227031E+03  0.94323965342E+03  0.49817686975E+03  0.11804385740E+04  0.15294330000E+03 0.  0.
    8880022    1    1    2    0    0  0.48183227031E+03 -0.94323965342E+03 -0.46971960321E+03  0.11687136258E+04  0.15294330000E+03 0.  0.
<mgrwt>
<rscale>  0 0.10701659E+04</rscale>
<asrwt>0</asrwt>
<pdfrwt beam="1">  1        2 0.18289303E+00 0.10701659E+04</pdfrwt>
<pdfrwt beam="2">  1       -2 0.17851500E+00 0.10701659E+04</pdfrwt>
<totfact> 0.35141760E+00</totfact>
</mgrwt>
</event>
<event>
 4    1  0.1701380E-008  0.3545952E+03  0.7818608E-02  0.1060745E+00
         -2   -1    0    0    0  501 -0.00000000000E+00  0.00000000000E+00  0.32877373352E+03  0.32877373353E+03  0.25500000000E-02 0.  1.
          2   -1    0    0  501    0  0.00000000000E+00 -0.00000000000E+00 -0.30946865356E+04  0.30946865356E+04  0.25500000000E-02 0. -1.
    8880022    1    1    2    0    0  0.25305652829E+03 -0.19572552771E+03  0.21951827954E+03  0.41704438226E+03  0.15294330000E+03 0.  1.
    8880022    1    1    2    0    0 -0.25305652829E+03  0.19572552771E+03 -0.29854310816E+04  0.30064158868E+04  0.15294330000E+03 0.  0.
<mgrwt>
<rscale>  0 0.35459518E+03</rscale>
<asrwt>0</asrwt>
<pdfrwt beam="1">  1        2 0.47610560E+00 0.35459518E+03</pdfrwt>
<pdfrwt beam="2">  1       -2 0.50580576E-01 0.35459518E+03</pdfrwt>
<totfact> 0.66912006E+00</totfact>
</mgrwt>
</event>
<event>
 4    1  0.1701380E-008  0.8757650E+03  0.7818608E-02  0.9456394E-01
          2   -1    0    0  501    0  0.00000000000E+00  0.00000000000E+00  0.86136290977E+03  0.86136290977E+03  0.25500000000E-02 0. -1.
         -2   -1    0    0    0  501 -0.00000000000E+00 -0.00000000000E+00 -0.12700176987E+04  0.12700176987E+04  0.25500000000E-02 0.  1.
    8880022    1    1    2    0    0 -0.18215584754E+03 -0.84284754470E+03  0.37830523360E+03  0.95398073313E+03  0.15294330000E+03 0.  0.
    8880022    1    1    2    0    0  0.18215584754E+03  0.84284754470E+03 -0.78696002255E+03  0.11773998754E+04  0.15294330000E+03 0.  0.
<mgrwt>
<rscale>  0 0.87576503E+03</rscale>
<asrwt>0</asrwt>
<pdfrwt beam="1">  1        2 0.13251737E+00 0.87576503E+03</pdfrwt>
<pdfrwt beam="2">  1       -2 0.19538734E+00 0.87576503E+03</pdfrwt>
<totfact> 0.44720178E+00</totfact>
</mgrwt>
</event>
<event>
 4    1  0.1701380E-008  0.7411619E+03  0.7818608E-02  0.9649319E-01
          2   -1    0    0  501    0  0.00000000000E+00  0.00000000000E+00  0.22182044849E+04  0.22182044849E+04  0.25500000000E-02 0. -1.
         -2   -1    0    0    0  501 -0.00000000000E+00 -0.00000000000E+00 -0.63379238950E+03  0.63379238951E+03  0.25500000000E-02 0.  1.
    8880022    1    1    2    0    0 -0.10985257705E+03 -0.71684147321E+03 -0.32086706197E+03  0.80763643483E+03  0.15294330000E+03 0.  1.
    8880022    1    1    2    0    0  0.10985257705E+03  0.71684147321E+03  0.19052791574E+04  0.20443604396E+04  0.15294330000E+03 0.  0.
<mgrwt>
<rscale>  0 0.74116188E+03</rscale>
<asrwt>0</asrwt>
<pdfrwt beam="1">  1        2 0.34126223E+00 0.74116188E+03</pdfrwt>
<pdfrwt beam="2">  1       -2 0.97506520E-01 0.74116188E+03</pdfrwt>
<totfact> 0.46136648E+00</totfact>
</mgrwt>
</event>
<event>
 4    1  0.1701380E-008  0.4485387E+03  0.7818608E-02  0.1028159E+00
         -2   -1    0    0    0  501 -0.00000000000E+00  0.00000000000E+00  0.38561108491E+03  0.38561108492E+03  0.25500000000E-02 0.  1.
          2   -1    0    0  501    0  0.00000000000E+00 -0.00000000000E+00 -0.14334515127E+04  0.14334515127E+04  0.25500000000E-02 0. -1.
    8880022    1    1    2    0    0 -0.37631672085E+03  0.19021314378E+03 -0.12492841368E+04  0.13273649920E+04  0.15294330000E+03 0.  0.
    8880022    1    1    2    0    0  0.37631672085E+03 -0.19021314378E+03  0.20144370902E+03  0.49169760563E+03  0.15294330000E+03 0.  0.
<mgrwt>
<rscale>  0 0.44853870E+03</rscale>
<asrwt>0</asrwt>
<pdfrwt beam="1">  1        2 0.22053100E+00 0.44853870E+03</pdfrwt>
<pdfrwt beam="2">  1       -2 0.59324783E-01 0.44853870E+03</pdfrwt>
<totfact> 0.39131418E+01</totfact>
</mgrwt>
</event>
<event>
 4    1  0.1701380E-008  0.4344934E+03  0.7818608E-02  0.1032450E+00
         -2   -1    0    0    0  501 -0.00000000000E+00  0.00000000000E+00  0.76819687272E+03  0.76819687273E+03  0.25500000000E-02 0.  1.
          2   -1    0    0  501    0  0.00000000000E+00 -0.00000000000E+00 -0.17139462326E+04  0.17139462326E+04  0.25500000000E-02 0. -1.
    8880022    1    1    2    0    0  0.24291952772E+03  0.32616400717E+03 -0.16215313853E+04  0.16787342085E+04  0.15294330000E+03 0.  0.
    8880022    1    1    2    0    0 -0.24291952772E+03 -0.32616400717E+03  0.67578202541E+03  0.80340889676E+03  0.15294330000E+03 0.  0.
<mgrwt>
<rscale>  0 0.43449339E+03</rscale>
<asrwt>0</asrwt>
<pdfrwt beam="1">  1        2 0.26368404E+00 0.43449339E+03</pdfrwt>
<pdfrwt beam="2">  1       -2 0.11818413E+00 0.43449339E+03</pdfrwt>
<totfact> 0.58322192E+00</totfact>
</mgrwt>
</event>
<event>
 4    1  0.1701380E-008  0.2775449E+03  0.7818608E-02  0.1097037E+00
         -2   -1    0    0    0  501 -0.00000000000E+00  0.00000000000E+00  0.13491116104E+03  0.13491116106E+03  0.25500000000E-02 0.  1.
          2   -1    0    0  501    0  0.00000000000E+00 -0.00000000000E+00 -0.19533183745E+04  0.19533183745E+04  0.25500000000E-02 0. -1.
    8880022    1    1    2    0    0  0.22309338010E+03 -0.62200166721E+02 -0.17875571836E+04  0.18089753604E+04  0.15294330000E+03 0.  0.
    8880022    1    1    2    0    0 -0.22309338010E+03  0.62200166721E+02 -0.30850029890E+02  0.27925417516E+03  0.15294330000E+03 0.  1.
<mgrwt>
<rscale>  0 0.27754490E+03</rscale>
<asrwt>0</asrwt>
<pdfrwt beam="1">  1        2 0.30051050E+00 0.27754490E+03</pdfrwt>
<pdfrwt beam="2">  1       -2 0.20755565E-01 0.27754490E+03</pdfrwt>
<totfact> 0.15584054E+02</totfact>
</mgrwt>
</event>
<event>
 4    1  0.1701380E-008  0.1249264E+04  0.7818608E-02  0.9070796E-01
         -2   -1    0    0    0  501 -0.00000000000E+00  0.00000000000E+00  0.16865032100E+04  0.16865032100E+04  0.25500000000E-02 0.  1.
          2   -1    0    0  501    0  0.00000000000E+00 -0.00000000000E+00 -0.22011922910E+04  0.22011922910E+04  0.25500000000E-02 0. -1.
    8880022    1    1    2    0    0 -0.13706926326E+03 -0.12322668339E+04 -0.17372233674E+04  0.21397677945E+04  0.15294330000E+03 0.  0.
    8880022    1    1    2    0    0  0.13706926326E+03  0.12322668339E+04  0.12225342864E+04  0.17479277066E+04  0.15294330000E+03 0.  0.
<mgrwt>
<rscale>  0 0.12492643E+04</rscale>
<asrwt>0</asrwt>
<pdfrwt beam="1">  1        2 0.33864497E+00 0.12492643E+04</pdfrwt>
<pdfrwt beam="2">  1       -2 0.25946203E+00 0.12492643E+04</pdfrwt>
<totfact> 0.28057628E-01</totfact>
</mgrwt>
</event>
<event>
 4    1  0.1701380E-008  0.1455140E+04  0.7818608E-02  0.8914845E-01
         -2   -1    0    0    0  501 -0.00000000000E+00  0.00000000000E+00  0.18651140039E+04  0.18651140039E+04  0.25500000000E-02 0.  1.
          2   -1    0    0  501    0  0.00000000000E+00 -0.00000000000E+00 -0.28518173904E+04  0.28518173904E+04  0.25500000000E-02 0. -1.
    8880022    1    1    2    0    0  0.55897297033E+03  0.13347619781E+04  0.13364118857E+04  0.19757096702E+04  0.15294330000E+03 0.  0.
    8880022    1    1    2    0    0 -0.55897297033E+03 -0.13347619781E+04 -0.23231152723E+04  0.27412217241E+04  0.15294330000E+03 0.  0.
<mgrwt>
<rscale>  0 0.14551398E+04</rscale>
<asrwt>0</asrwt>
<pdfrwt beam="1">  1        2 0.43874114E+00 0.14551398E+04</pdfrwt>
<pdfrwt beam="2">  1       -2 0.28694062E+00 0.14551398E+04</pdfrwt>
<totfact> 0.77696569E-02</totfact>
</mgrwt>
</event>
<event>
 4    1  0.1701380E-008  0.7885149E+03  0.7818608E-02  0.9576792E-01
          2   -1    0    0  501    0  0.00000000000E+00  0.00000000000E+00  0.25168744213E+04  0.25168744213E+04  0.25500000000E-02 0. -1.
         -2   -1    0    0    0  501 -0.00000000000E+00 -0.00000000000E+00 -0.14601593606E+04  0.14601593606E+04  0.25500000000E-02 0.  1.
    8880022    1    1    2    0    0 -0.35673325233E+02 -0.77271691653E+03 -0.12841584583E+04  0.15069235609E+04  0.15294330000E+03 0.  0.
    8880022    1    1    2    0    0  0.35673325233E+02  0.77271691653E+03  0.23408735189E+04  0.24701102210E+04  0.15294330000E+03 0.  0.
<mgrwt>
<rscale>  0 0.78851485E+03</rscale>
<asrwt>0</asrwt>
<pdfrwt beam="1">  1        2 0.38721145E+00 0.78851485E+03</pdfrwt>
<pdfrwt beam="2">  1       -2 0.22463990E+00 0.78851485E+03</pdfrwt>
<totfact> 0.33131033E-01</totfact>
</mgrwt>
</event>
<event>
 4    1  0.1701380E-008  0.9031504E+03  0.7818608E-02  0.9421652E-01
         -2   -1    0    0    0  501 -0.00000000000E+00  0.00000000000E+00  0.12889079203E+04  0.12889079203E+04  0.25500000000E-02 0.  1.
          2   -1    0    0  501    0  0.00000000000E+00 -0.00000000000E+00 -0.16243150634E+04  0.16243150634E+04  0.25500000000E-02 0. -1.
    8880022    1    1    2    0    0  0.33081675553E+03  0.82634690046E+03 -0.13057189193E+04  0.15876342384E+04  0.15294330000E+03 0.  0.
    8880022    1    1    2    0    0 -0.33081675553E+03 -0.82634690046E+03  0.97031177622E+03  0.13255887453E+04  0.15294330000E+03 0.  0.
<mgrwt>
<rscale>  0 0.90315036E+03</rscale>
<asrwt>0</asrwt>
<pdfrwt beam="1">  1        2 0.24989463E+00 0.90315036E+03</pdfrwt>
<pdfrwt beam="2">  1       -2 0.19829353E+00 0.90315036E+03</pdfrwt>
<totfact> 0.14875854E+00</totfact>
</mgrwt>
</event>
<event>
 4    1  0.1701380E-008  0.5941946E+03  0.7818608E-02  0.9917524E-01
          2   -1    0    0  501    0  0.00000000000E+00  0.00000000000E+00  0.27374210239E+04  0.27374210239E+04  0.25500000000E-02 0. -1.
         -2   -1    0    0    0  501 -0.00000000000E+00 -0.00000000000E+00 -0.43240965708E+03  0.43240965708E+03  0.25500000000E-02 0.  1.
    8880022    1    1    2    0    0  0.44102764902E+03  0.36765495140E+03  0.24801715535E+04  0.25503564728E+04  0.15294330000E+03 0.  0.
    8880022    1    1    2    0    0 -0.44102764902E+03 -0.36765495140E+03 -0.17516018676E+03  0.61947420812E+03  0.15294330000E+03 0.  0.
<mgrwt>
<rscale>  0 0.59419458E+03</rscale>
<asrwt>0</asrwt>
<pdfrwt beam="1">  1        2 0.42114169E+00 0.59419458E+03</pdfrwt>
<pdfrwt beam="2">  1       -2 0.66524563E-01 0.59419458E+03</pdfrwt>
<totfact> 0.57187587E+00</totfact>
</mgrwt>
</event>
<event>
 4    1  0.1701380E-008  0.1062632E+04  0.7818608E-02  0.9242399E-01
         -2   -1    0    0    0  501 -0.00000000000E+00  0.00000000000E+00  0.70444878157E+03  0.70444878158E+03  0.25500000000E-02 0.  1.
          2   -1    0    0  501    0  0.00000000000E+00 -0.00000000000E+00 -0.17899270540E+04  0.17899270540E+04  0.25500000000E-02 0. -1.
    8880022    1    1    2    0    0 -0.14644772119E+03  0.10413199486E+04 -0.94585087872E+03  0.14226101744E+04  0.15294330000E+03 0.  0.
    8880022    1    1    2    0    0  0.14644772119E+03 -0.10413199486E+04 -0.13962739370E+03  0.10717656612E+04  0.15294330000E+03 0.  0.
<mgrwt>
<rscale>  0 0.10626316E+04</rscale>
<asrwt>0</asrwt>
<pdfrwt beam="1">  1        2 0.27537339E+00 0.10626316E+04</pdfrwt>
<pdfrwt beam="2">  1       -2 0.10837674E+00 0.10626316E+04</pdfrwt>
<totfact> 0.58962267E+00</totfact>
</mgrwt>
</event>
<event>
 4    1  0.1701380E-008  0.1643010E+04  0.7818608E-02  0.8794552E-01
         -2   -1    0    0    0  501 -0.00000000000E+00  0.00000000000E+00  0.11941612755E+04  0.11941612755E+04  0.25500000000E-02 0.  1.
          2   -1    0    0  501    0  0.00000000000E+00 -0.00000000000E+00 -0.26789552743E+04  0.26789552743E+04  0.25500000000E-02 0. -1.
    8880022    1    1    2    0    0 -0.38261344335E+03  0.15905025960E+04  0.22912105553E+02  0.16431701593E+04  0.15294330000E+03 0.  0.
    8880022    1    1    2    0    0  0.38261344335E+03 -0.15905025960E+04 -0.15077061043E+04  0.22299463906E+04  0.15294330000E+03 0.  0.
<mgrwt>
<rscale>  0 0.16430104E+04</rscale>
<asrwt>0</asrwt>
<pdfrwt beam="1">  1        2 0.41214697E+00 0.16430104E+04</pdfrwt>
<pdfrwt beam="2">  1       -2 0.18371712E+00 0.16430104E+04</pdfrwt>
<totfact> 0.43337148E-01</totfact>
</mgrwt>
</event>
<event>
 4    1  0.1701380E-008  0.1106546E+04  0.7818608E-02  0.9198835E-01
         -2   -1    0    0    0  501 -0.00000000000E+00  0.00000000000E+00  0.66549385992E+03  0.66549385993E+03  0.25500000000E-02 0.  1.
          2   -1    0    0  501    0  0.00000000000E+00 -0.00000000000E+00 -0.19923421290E+04  0.19923421290E+04  0.25500000000E-02 0. -1.
    8880022    1    1    2    0    0 -0.99370718944E+03  0.46216790517E+03 -0.10310135954E+04  0.15124264735E+04  0.15294330000E+03 0.  0.
    8880022    1    1    2    0    0  0.99370718944E+03 -0.46216790517E+03 -0.29583467374E+03  0.11454095155E+04  0.15294330000E+03 0.  0.
<mgrwt>
<rscale>  0 0.11065463E+04</rscale>
<asrwt>0</asrwt>
<pdfrwt beam="1">  1        2 0.30651417E+00 0.11065463E+04</pdfrwt>
<pdfrwt beam="2">  1       -2 0.10238367E+00 0.11065463E+04</pdfrwt>
<totfact> 0.52062172E+00</totfact>
</mgrwt>
</event>
<event>
 4    1  0.1701380E-008  0.8024619E+03  0.7818608E-02  0.9556460E-01
         -2   -1    0    0    0  501 -0.00000000000E+00  0.00000000000E+00  0.80095291199E+03  0.80095291200E+03  0.25500000000E-02 0.  1.
          2   -1    0    0  501    0  0.00000000000E+00 -0.00000000000E+00 -0.25892040347E+04  0.25892040347E+04  0.25500000000E-02 0. -1.
    8880022    1    1    2    0    0  0.36733765551E+03  0.69686186466E+03 -0.23016430563E+04  0.24375204252E+04  0.15294330000E+03 0.  0.
    8880022    1    1    2    0    0 -0.36733765551E+03 -0.69686186466E+03  0.51339193361E+03  0.95263652149E+03  0.15294330000E+03 0.  0.
<mgrwt>
<rscale>  0 0.80246188E+03</rscale>
<asrwt>0</asrwt>
<pdfrwt beam="1">  1        2 0.39833908E+00 0.80246188E+03</pdfrwt>
<pdfrwt beam="2">  1       -2 0.12322353E+00 0.80246188E+03</pdfrwt>
<totfact> 0.16007509E+00</totfact>
</mgrwt>
</event>
<event>
 4    1  0.1701380E-008  0.1029590E+04  0.7818608E-02  0.9276674E-01
         -2   -1    0    0    0  501 -0.00000000000E+00  0.00000000000E+00  0.95423828089E+03  0.95423828089E+03  0.25500000000E-02 0.  1.
          2   -1    0    0  501    0  0.00000000000E+00 -0.00000000000E+00 -0.17636805710E+04  0.17636805710E+04  0.25500000000E-02 0. -1.
    8880022    1    1    2    0    0  0.22151964808E+03 -0.99377679419E+03 -0.12314879989E+04  0.16051846048E+04  0.15294330000E+03 0.  0.
    8880022    1    1    2    0    0 -0.22151964808E+03  0.99377679419E+03  0.42204570881E+03  0.11127342470E+04  0.15294330000E+03 0.  0.
<mgrwt>
<rscale>  0 0.10295897E+04</rscale>
<asrwt>0</asrwt>
<pdfrwt beam="1">  1        2 0.27133547E+00 0.10295897E+04</pdfrwt>
<pdfrwt beam="2">  1       -2 0.14680589E+00 0.10295897E+04</pdfrwt>
<totfact> 0.28421742E+00</totfact>
</mgrwt>
</event>
<event>
 4    1  0.1701380E-008  0.1143597E+04  0.7818608E-02  0.9163711E-01
         -2   -1    0    0    0  501 -0.00000000000E+00  0.00000000000E+00  0.11431657500E+04  0.11431657500E+04  0.25500000000E-02 0.  1.
          2   -1    0    0  501    0  0.00000000000E+00 -0.00000000000E+00 -0.13990791987E+04  0.13990791987E+04  0.25500000000E-02 0. -1.
    8880022    1    1    2    0    0  0.86881085675E+02 -0.11299885998E+04  0.41476786210E+03  0.12164894538E+04  0.15294330000E+03 0.  0.
    8880022    1    1    2    0    0 -0.86881085675E+02  0.11299885998E+04 -0.67068131078E+03  0.13257554949E+04  0.15294330000E+03 0.  0.
<mgrwt>
<rscale>  0 0.11435970E+04</rscale>
<asrwt>0</asrwt>
<pdfrwt beam="1">  1        2 0.21524295E+00 0.11435970E+04</pdfrwt>
<pdfrwt beam="2">  1       -2 0.17587165E+00 0.11435970E+04</pdfrwt>
<totfact> 0.27403262E+00</totfact>
</mgrwt>
</event>
<event>
 4    1  0.1701380E-008  0.7969195E+03  0.7818608E-02  0.9564487E-01
         -2   -1    0    0    0  501 -0.00000000000E+00  0.00000000000E+00  0.79682028465E+03  0.79682028465E+03  0.25500000000E-02 0.  1.
          2   -1    0    0  501    0  0.00000000000E+00 -0.00000000000E+00 -0.13068030361E+04  0.13068030361E+04  0.25500000000E-02 0. -1.
    8880022    1    1    2    0    0 -0.32134918198E+03 -0.71303835686E+03  0.40194932211E+03  0.89254910546E+03  0.15294330000E+03 0.  0.
    8880022    1    1    2    0    0  0.32134918198E+03  0.71303835686E+03 -0.91193207353E+03  0.12110742153E+04  0.15294330000E+03 0.  0.
<mgrwt>
<rscale>  0 0.79691947E+03</rscale>
<asrwt>0</asrwt>
<pdfrwt beam="1">  1        2 0.20104662E+00 0.79691947E+03</pdfrwt>
<pdfrwt beam="2">  1       -2 0.12258774E+00 0.79691947E+03</pdfrwt>
<totfact> 0.83751777E+00</totfact>
</mgrwt>
</event>
<event>
 4    1  0.1701380E-008  0.8234100E+03  0.7818608E-02  0.9526737E-01
         -2   -1    0    0    0  501 -0.00000000000E+00  0.00000000000E+00  0.96449973669E+03  0.96449973669E+03  0.25500000000E-02 0.  1.
          2   -1    0    0  501    0  0.00000000000E+00 -0.00000000000E+00 -0.17327411780E+04  0.17327411780E+04  0.25500000000E-02 0. -1.
    8880022    1    1    2    0    0 -0.32481491352E+03 -0.74101796703E+03 -0.14237907595E+04  0.16447443982E+04  0.15294330000E+03 0.  0.
    8880022    1    1    2    0    0  0.32481491352E+03  0.74101796703E+03  0.65554931824E+03  0.10524965165E+04  0.15294330000E+03 0.  0.
<mgrwt>
<rscale>  0 0.82340999E+03</rscale>
<asrwt>0</asrwt>
<pdfrwt beam="1">  1        2 0.26657557E+00 0.82340999E+03</pdfrwt>
<pdfrwt beam="2">  1       -2 0.14838458E+00 0.82340999E+03</pdfrwt>
<totfact> 0.29555599E+00</totfact>
</mgrwt>
</event>
<event>
 4    1  0.1701380E-008  0.9325686E+03  0.7818608E-02  0.9385761E-01
         -2   -1    0    0    0  501 -0.00000000000E+00  0.00000000000E+00  0.17722258688E+04  0.17722258688E+04  0.25500000000E-02 0.  1.
          2   -1    0    0  501    0  0.00000000000E+00 -0.00000000000E+00 -0.13199932777E+04  0.13199932777E+04  0.25500000000E-02 0. -1.
    8880022    1    1    2    0    0 -0.55677927933E+03  0.73231779893E+03  0.14515805827E+04  0.17253319581E+04  0.15294330000E+03 0.  0.
    8880022    1    1    2    0    0  0.55677927933E+03 -0.73231779893E+03 -0.99934799156E+03  0.13668871884E+04  0.15294330000E+03 0. -1.
<mgrwt>
<rscale>  0 0.93256859E+03</rscale>
<asrwt>0</asrwt>
<pdfrwt beam="1">  1        2 0.20307589E+00 0.93256859E+03</pdfrwt>
<pdfrwt beam="2">  1       -2 0.27265013E+00 0.93256859E+03</pdfrwt>
<totfact> 0.75957793E-01</totfact>
</mgrwt>
</event>
<event>
 4    1  0.1701380E-008  0.8714760E+03  0.7818608E-02  0.9461957E-01
          2   -1    0    0  501    0  0.00000000000E+00  0.00000000000E+00  0.24326875879E+04  0.24326875879E+04  0.25500000000E-02 0. -1.
         -2   -1    0    0    0  501 -0.00000000000E+00 -0.00000000000E+00 -0.43578322793E+03  0.43578322793E+03  0.25500000000E-02 0.  1.
    8880022    1    1    2    0    0 -0.81217984097E+03  0.27648273361E+03  0.23465947140E+03  0.90251621403E+03  0.15294330000E+03 0.  0.
    8880022    1    1    2    0    0  0.81217984097E+03 -0.27648273361E+03  0.17622448886E+04  0.19659546019E+04  0.15294330000E+03 0.  0.
<mgrwt>
<rscale>  0 0.87147602E+03</rscale>
<asrwt>0</asrwt>
<pdfrwt beam="1">  1        2 0.37425963E+00 0.87147602E+03</pdfrwt>
<pdfrwt beam="2">  1       -2 0.67043573E-01 0.87147602E+03</pdfrwt>
<totfact> 0.79879793E+00</totfact>
</mgrwt>
</event>
<event>
 4    1  0.1701380E-008  0.9923974E+03  0.7818608E-02  0.9316923E-01
          2   -1    0    0  501    0  0.00000000000E+00  0.00000000000E+00  0.47236424180E+03  0.47236424181E+03  0.25500000000E-02 0. -1.
         -2   -1    0    0    0  501 -0.00000000000E+00 -0.00000000000E+00 -0.32089145042E+04  0.32089145042E+04  0.25500000000E-02 0.  1.
    8880022    1    1    2    0    0  0.98003603286E+03 -0.31468290491E+02 -0.27892552719E+03  0.10308501257E+04  0.15294330000E+03 0.  0.
    8880022    1    1    2    0    0 -0.98003603286E+03  0.31468290491E+02 -0.24576247352E+04  0.26504286202E+04  0.15294330000E+03 0.  0.
<mgrwt>
<rscale>  0 0.99239737E+03</rscale>
<asrwt>0</asrwt>
<pdfrwt beam="1">  1        2 0.72671424E-01 0.99239737E+03</pdfrwt>
<pdfrwt beam="2">  1       -2 0.49367914E+00 0.99239737E+03</pdfrwt>
<totfact> 0.12071433E-01</totfact>
</mgrwt>
</event>
<event>
 4    1  0.1701380E-008  0.6025545E+03  0.7818608E-02  0.9900120E-01
         -2   -1    0    0    0  501 -0.00000000000E+00  0.00000000000E+00  0.59878478658E+03  0.59878478659E+03  0.25500000000E-02 0.  1.
          2   -1    0    0  501    0  0.00000000000E+00 -0.00000000000E+00 -0.22616495295E+04  0.22616495295E+04  0.25500000000E-02 0. -1.
    8880022    1    1    2    0    0 -0.20984579448E+03 -0.54373251762E+03 -0.20549997451E+04  0.21415171990E+04  0.15294330000E+03 0.  0.
    8880022    1    1    2    0    0  0.20984579448E+03  0.54373251762E+03  0.39213500224E+03  0.71891711704E+03  0.15294330000E+03 0.  0.
<mgrwt>
<rscale>  0 0.60255453E+03</rscale>
<asrwt>0</asrwt>
<pdfrwt beam="1">  1        2 0.34794608E+00 0.60255453E+03</pdfrwt>
<pdfrwt beam="2">  1       -2 0.92120738E-01 0.60255453E+03</pdfrwt>
<totfact> 0.51215051E+00</totfact>
</mgrwt>
</event>
<event>
 4    1  0.1701380E-008  0.7915538E+03  0.7818608E-02  0.9572324E-01
          2   -1    0    0  501    0  0.00000000000E+00  0.00000000000E+00  0.35288692690E+03  0.35288692691E+03  0.25500000000E-02 0. -1.
         -2   -1    0    0    0  501 -0.00000000000E+00 -0.00000000000E+00 -0.21866670500E+04  0.21866670500E+04  0.25500000000E-02 0.  1.
    8880022    1    1    2    0    0  0.40739047849E+03 -0.66121005220E+03 -0.36629118320E+03  0.87219643372E+03  0.15294330000E+03 0.  0.
    8880022    1    1    2    0    0 -0.40739047849E+03  0.66121005220E+03 -0.14674889399E+04  0.16673575432E+04  0.15294330000E+03 0.  0.
<mgrwt>
<rscale>  0 0.79155378E+03</rscale>
<asrwt>0</asrwt>
<pdfrwt beam="1">  1        2 0.54290298E-01 0.79155378E+03</pdfrwt>
<pdfrwt beam="2">  1       -2 0.33641031E+00 0.79155378E+03</pdfrwt>
<totfact> 0.18079107E+00</totfact>
</mgrwt>
</event>
<event>
 4    1  0.1701380E-008  0.8013821E+03  0.7818608E-02  0.9558019E-01
         -2   -1    0    0    0  501 -0.00000000000E+00  0.00000000000E+00  0.29452299683E+03  0.29452299684E+03  0.25500000000E-02 0.  1.
          2   -1    0    0  501    0  0.00000000000E+00 -0.00000000000E+00 -0.27192745055E+04  0.27192745055E+04  0.25500000000E-02 0. -1.
    8880022    1    1    2    0    0  0.31170284580E+03  0.72226238148E+03 -0.18831139416E+04  0.20465413218E+04  0.15294330000E+03 0.  0.
    8880022    1    1    2    0    0 -0.31170284580E+03 -0.72226238148E+03 -0.54163756715E+03  0.96725618062E+03  0.15294330000E+03 0.  0.
<mgrwt>
<rscale>  0 0.80138210E+03</rscale>
<asrwt>0</asrwt>
<pdfrwt beam="1">  1        2 0.41834991E+00 0.80138210E+03</pdfrwt>
<pdfrwt beam="2">  1       -2 0.45311232E-01 0.80138210E+03</pdfrwt>
<totfact> 0.12483978E+01</totfact>
</mgrwt>
</event>
<event>
 4    1  0.1701380E-008  0.5698725E+03  0.7818608E-02  0.9969961E-01
          2   -1    0    0  501    0  0.00000000000E+00  0.00000000000E+00  0.11413771530E+04  0.11413771530E+04  0.25500000000E-02 0. -1.
         -2   -1    0    0    0  501 -0.00000000000E+00 -0.00000000000E+00 -0.10800562052E+04  0.10800562052E+04  0.25500000000E-02 0.  1.
    8880022    1    1    2    0    0 -0.39936185202E+02  0.54751086787E+03  0.98391237619E+03  0.11370304597E+04  0.15294330000E+03 0.  0.
    8880022    1    1    2    0    0  0.39936185202E+02 -0.54751086787E+03 -0.92259142843E+03  0.10844028984E+04  0.15294330000E+03 0.  0.
<mgrwt>
<rscale>  0 0.56987253E+03</rscale>
<asrwt>0</asrwt>
<pdfrwt beam="1">  1        2 0.17559648E+00 0.56987253E+03</pdfrwt>
<pdfrwt beam="2">  1       -2 0.16616249E+00 0.56987253E+03</pdfrwt>
<totfact> 0.49102047E+00</totfact>
</mgrwt>
</event>
<event>
 4    1  0.1701380E-008  0.8129129E+03  0.7818608E-02  0.9541512E-01
          2   -1    0    0  501    0  0.00000000000E+00  0.00000000000E+00  0.20817129086E+04  0.20817129086E+04  0.25500000000E-02 0. -1.
         -2   -1    0    0    0  501 -0.00000000000E+00 -0.00000000000E+00 -0.62453482108E+03  0.62453482108E+03  0.25500000000E-02 0.  1.
    8880022    1    1    2    0    0  0.76897806527E+03 -0.21472876402E+03  0.16774282314E+04  0.18640259739E+04  0.15294330000E+03 0.  0.
    8880022    1    1    2    0    0 -0.76897806527E+03  0.21472876402E+03 -0.22025014388E+03  0.84222175576E+03  0.15294330000E+03 0.  0.
<mgrwt>
<rscale>  0 0.81291289E+03</rscale>
<asrwt>0</asrwt>
<pdfrwt beam="1">  1        2 0.32026352E+00 0.81291289E+03</pdfrwt>
<pdfrwt beam="2">  1       -2 0.96082283E-01 0.81291289E+03</pdfrwt>
<totfact> 0.56114483E+00</totfact>
</mgrwt>
</event>
<event>
 4    1  0.1701380E-008  0.1217045E+04  0.7818608E-02  0.9098067E-01
          2   -1    0    0  501    0  0.00000000000E+00  0.00000000000E+00  0.20013630468E+04  0.20013630468E+04  0.25500000000E-02 0. -1.
         -2   -1    0    0    0  501 -0.00000000000E+00 -0.00000000000E+00 -0.24822342973E+04  0.24822342973E+04  0.25500000000E-02 0.  1.
    8880022    1    1    2    0    0 -0.11763070720E+04 -0.27222742817E+03  0.16376557762E+04  0.20403710924E+04  0.15294330000E+03 0.  0.
    8880022    1    1    2    0    0  0.11763070720E+04  0.27222742817E+03 -0.21185270267E+04  0.24432262516E+04  0.15294330000E+03 0.  0.
<mgrwt>
<rscale>  0 0.12170447E+04</rscale>
<asrwt>0</asrwt>
<pdfrwt beam="1">  1        2 0.30790201E+00 0.12170447E+04</pdfrwt>
<pdfrwt beam="2">  1       -2 0.38188220E+00 0.12170447E+04</pdfrwt>
<totfact> 0.63697805E-02</totfact>
</mgrwt>
</event>
<event>
 4    1  0.1701380E-008  0.5796342E+03  0.7818608E-02  0.9948583E-01
          2   -1    0    0  501    0  0.00000000000E+00  0.00000000000E+00  0.83250064865E+03  0.83250064865E+03  0.25500000000E-02 0. -1.
         -2   -1    0    0    0  501 -0.00000000000E+00 -0.00000000000E+00 -0.95863258492E+03  0.95863258492E+03  0.25500000000E-02 0.  1.
    8880022    1    1    2    0    0 -0.21663257956E+03  0.51541681535E+03 -0.74452714504E+03  0.94355523993E+03  0.15294330000E+03 0.  0.
    8880022    1    1    2    0    0  0.21663257956E+03 -0.51541681535E+03  0.61839520877E+03  0.84757799365E+03  0.15294330000E+03 0.  0.
<mgrwt>
<rscale>  0 0.57963421E+03</rscale>
<asrwt>0</asrwt>
<pdfrwt beam="1">  1        2 0.12807702E+00 0.57963421E+03</pdfrwt>
<pdfrwt beam="2">  1       -2 0.14748194E+00 0.57963421E+03</pdfrwt>
<totfact> 0.10628962E+01</totfact>
</mgrwt>
</event>
<event>
 4    1  0.1701380E-008  0.7945813E+03  0.7818608E-02  0.9567894E-01
         -2   -1    0    0    0  501 -0.00000000000E+00  0.00000000000E+00  0.42178143486E+03  0.42178143487E+03  0.25500000000E-02 0.  1.
          2   -1    0    0  501    0  0.00000000000E+00 -0.00000000000E+00 -0.45546257384E+04  0.45546257384E+04  0.25500000000E-02 0. -1.
    8880022    1    1    2    0    0 -0.72360176290E+03 -0.29046224448E+03 -0.27692237616E+02  0.79506373316E+03  0.15294330000E+03 0.  0.
    8880022    1    1    2    0    0  0.72360176290E+03  0.29046224448E+03 -0.41051520659E+04  0.41813434401E+04  0.15294330000E+03 0.  0.
<mgrwt>
<rscale>  0 0.79458132E+03</rscale>
<asrwt>0</asrwt>
<pdfrwt beam="1">  1        2 0.70071162E+00 0.79458132E+03</pdfrwt>
<pdfrwt beam="2">  1       -2 0.64889455E-01 0.79458132E+03</pdfrwt>
<totfact> 0.26982696E-01</totfact>
</mgrwt>
</event>
<event>
 4    1  0.1701380E-008  0.1134173E+04  0.7818608E-02  0.9172510E-01
          2   -1    0    0  501    0  0.00000000000E+00  0.00000000000E+00  0.22119771694E+04  0.22119771694E+04  0.25500000000E-02 0. -1.
         -2   -1    0    0    0  501 -0.00000000000E+00 -0.00000000000E+00 -0.93647585498E+03  0.93647585498E+03  0.25500000000E-02 0.  1.
    8880022    1    1    2    0    0  0.20178417242E+03  0.11055498238E+04  0.16069096987E+04  0.19668522309E+04  0.15294330000E+03 0.  0.
    8880022    1    1    2    0    0 -0.20178417242E+03 -0.11055498238E+04 -0.33140838427E+03  0.11816007936E+04  0.15294330000E+03 0.  0.
<mgrwt>
<rscale>  0 0.11341732E+04</rscale>
<asrwt>0</asrwt>
<pdfrwt beam="1">  1        2 0.34030418E+00 0.11341732E+04</pdfrwt>
<pdfrwt beam="2">  1       -2 0.14407321E+00 0.11341732E+04</pdfrwt>
<totfact> 0.16657775E+00</totfact>
</mgrwt>
</event>
<event>
 4    1  0.1701380E-008  0.1005021E+04  0.7818608E-02  0.9303055E-01
         -2   -1    0    0    0  501 -0.00000000000E+00  0.00000000000E+00  0.10301226512E+04  0.10301226512E+04  0.25500000000E-02 0.  1.
          2   -1    0    0  501    0  0.00000000000E+00 -0.00000000000E+00 -0.34029314171E+04  0.34029314171E+04  0.25500000000E-02 0. -1.
    8880022    1    1    2    0    0 -0.45132758998E+03 -0.88486130156E+03 -0.30565238479E+04  0.32175154704E+04  0.15294330000E+03 0.  0.
    8880022    1    1    2    0    0  0.45132758998E+03  0.88486130156E+03  0.68371508206E+03  0.12155385979E+04  0.15294330000E+03 0.  0.
<mgrwt>
<rscale>  0 0.10050213E+04</rscale>
<asrwt>0</asrwt>
<pdfrwt beam="1">  1        2 0.52352790E+00 0.10050213E+04</pdfrwt>
<pdfrwt beam="2">  1       -2 0.15848041E+00 0.10050213E+04</pdfrwt>
<totfact> 0.25184744E-01</totfact>
</mgrwt>
</event>
<event>
 4    1  0.1701380E-008  0.3709724E+03  0.7818608E-02  0.1054322E+00
         -2   -1    0    0    0  501 -0.00000000000E+00  0.00000000000E+00  0.11388745217E+04  0.11388745217E+04  0.25500000000E-02 0.  1.
          2   -1    0    0  501    0  0.00000000000E+00 -0.00000000000E+00 -0.21270030038E+04  0.21270030038E+04  0.25500000000E-02 0. -1.
    8880022    1    1    2    0    0 -0.32319423270E+03  0.98865179028E+02  0.10918111531E+04  0.11531140805E+04  0.15294330000E+03 0.  0.
    8880022    1    1    2    0    0  0.32319423270E+03 -0.98865179028E+02 -0.20799396352E+04  0.21127634450E+04  0.15294330000E+03 0.  0.
<mgrwt>
<rscale>  0 0.37097236E+03</rscale>
<asrwt>0</asrwt>
<pdfrwt beam="1">  1        2 0.32723123E+00 0.37097236E+03</pdfrwt>
<pdfrwt beam="2">  1       -2 0.17521146E+00 0.37097236E+03</pdfrwt>
<totfact> 0.12939340E+00</totfact>
</mgrwt>
</event>
<event>
 4    1  0.1701380E-008  0.4017477E+03  0.7818608E-02  0.1043176E+00
         -2   -1    0    0    0  501 -0.00000000000E+00  0.00000000000E+00  0.58605467104E+03  0.58605467105E+03  0.25500000000E-02 0.  1.
          2   -1    0    0  501    0  0.00000000000E+00 -0.00000000000E+00 -0.49040052451E+04  0.49040052451E+04  0.25500000000E-02 0. -1.
    8880022    1    1    2    0    0 -0.18669154222E+03 -0.32117885570E+03  0.50786221759E+03  0.64755329846E+03  0.15294330000E+03 0.  1.
    8880022    1    1    2    0    0  0.18669154222E+03  0.32117885570E+03 -0.48258127916E+04  0.48425066176E+04  0.15294330000E+03 0.  0.
<mgrwt>
<rscale>  0 0.40174773E+03</rscale>
<asrwt>0</asrwt>
<pdfrwt beam="1">  1        2 0.75446232E+00 0.40174773E+03</pdfrwt>
<pdfrwt beam="2">  1       -2 0.90162260E-01 0.40174773E+03</pdfrwt>
<totfact> 0.65479610E-02</totfact>
</mgrwt>
</event>
<event>
 4    1  0.1701380E-008  0.5296337E+03  0.7818608E-02  0.1006321E+00
         -2   -1    0    0    0  501 -0.00000000000E+00  0.00000000000E+00  0.45684745203E+03  0.45684745204E+03  0.25500000000E-02 0.  1.
          2   -1    0    0  501    0  0.00000000000E+00 -0.00000000000E+00 -0.11309782383E+04  0.11309782383E+04  0.25500000000E-02 0. -1.
    8880022    1    1    2    0    0  0.36658800097E+03  0.35033327550E+03  0.19968819302E+03  0.56602755571E+03  0.15294330000E+03 0.  0.
    8880022    1    1    2    0    0 -0.36658800097E+03 -0.35033327550E+03 -0.87381897929E+03  0.10217981346E+04  0.15294330000E+03 0.  0.
<mgrwt>
<rscale>  0 0.52963367E+03</rscale>
<asrwt>0</asrwt>
<pdfrwt beam="1">  1        2 0.17399665E+00 0.52963367E+03</pdfrwt>
<pdfrwt beam="2">  1       -2 0.70284223E-01 0.52963367E+03</pdfrwt>
<totfact> 0.40085077E+01</totfact>
</mgrwt>
</event>
<event>
 4    1  0.1701380E-008  0.7029340E+03  0.7818608E-02  0.9712228E-01
         -2   -1    0    0    0  501 -0.00000000000E+00  0.00000000000E+00  0.40475404651E+03  0.40475404652E+03  0.25500000000E-02 0.  1.
          2   -1    0    0  501    0  0.00000000000E+00 -0.00000000000E+00 -0.19349800804E+04  0.19349800804E+04  0.25500000000E-02 0. -1.
    8880022    1    1    2    0    0  0.67117359826E+03 -0.14230457003E+03 -0.54377918178E+02  0.70503418403E+03  0.15294330000E+03 0.  0.
    8880022    1    1    2    0    0 -0.67117359826E+03  0.14230457003E+03 -0.14758481157E+04  0.16346999429E+04  0.15294330000E+03 0.  0.
<mgrwt>
<rscale>  0 0.70293402E+03</rscale>
<asrwt>0</asrwt>
<pdfrwt beam="1">  1        2 0.29768924E+00 0.70293402E+03</pdfrwt>
<pdfrwt beam="2">  1       -2 0.62269855E-01 0.70293402E+03</pdfrwt>
<totfact> 0.18071726E+01</totfact>
</mgrwt>
</event>
<event>
 4    1  0.1701380E-008  0.1722056E+04  0.7818608E-02  0.8748884E-01
         -2   -1    0    0    0  501 -0.00000000000E+00  0.00000000000E+00  0.10321721012E+04  0.10321721012E+04  0.25500000000E-02 0.  1.
          2   -1    0    0  501    0  0.00000000000E+00 -0.00000000000E+00 -0.41475538982E+04  0.41475538982E+04  0.25500000000E-02 0. -1.
    8880022    1    1    2    0    0 -0.14402849425E+04 -0.93148576541E+03 -0.12202954821E+03  0.17263746148E+04  0.15294330000E+03 0.  0.
    8880022    1    1    2    0    0  0.14402849425E+04  0.93148576541E+03 -0.29933522488E+04  0.34533513846E+04  0.15294330000E+03 0.  0.
<mgrwt>
<rscale>  0 0.17220564E+04</rscale>
<asrwt>0</asrwt>
<pdfrwt beam="1">  1        2 0.63808521E+00 0.17220564E+04</pdfrwt>
<pdfrwt beam="2">  1       -2 0.15879571E+00 0.17220564E+04</pdfrwt>
<totfact> 0.61967331E-02</totfact>
</mgrwt>
</event>
<event>
 4    1  0.1701380E-008  0.2154255E+03  0.7818608E-02  0.1137340E+00
         -2   -1    0    0    0  501 -0.00000000000E+00  0.00000000000E+00  0.17243107136E+03  0.17243107137E+03  0.25500000000E-02 0.  1.
          2   -1    0    0  501    0  0.00000000000E+00 -0.00000000000E+00 -0.56823959847E+03  0.56823959848E+03  0.25500000000E-02 0. -1.
    8880022    1    1    2    0    0 -0.15087488518E+03  0.15914153230E+02 -0.46658536911E+03  0.51391638516E+03  0.15294330000E+03 0.  0.
    8880022    1    1    2    0    0  0.15087488518E+03 -0.15914153230E+02  0.70776841990E+02  0.22675428470E+03  0.15294330000E+03 0.  1.
<mgrwt>
<rscale>  0 0.21542550E+03</rscale>
<asrwt>0</asrwt>
<pdfrwt beam="1">  1        2 0.87421476E-01 0.21542550E+03</pdfrwt>
<pdfrwt beam="2">  1       -2 0.26527857E-01 0.21542550E+03</pdfrwt>
<totfact> 0.69051159E+02</totfact>
</mgrwt>
</event>
<event>
 4    1  0.1701380E-008  0.5772861E+03  0.7818608E-02  0.9953684E-01
         -2   -1    0    0    0  501 -0.00000000000E+00  0.00000000000E+00  0.50675652695E+03  0.50675652695E+03  0.25500000000E-02 0.  1.
          2   -1    0    0  501    0  0.00000000000E+00 -0.00000000000E+00 -0.68175155818E+03  0.68175155819E+03  0.25500000000E-02 0. -1.
    8880022    1    1    2    0    0 -0.52527661690E+03  0.18426083729E+03 -0.19927261895E+03  0.61071172422E+03  0.15294330000E+03 0.  0.
    8880022    1    1    2    0    0  0.52527661690E+03 -0.18426083729E+03  0.24277587715E+02  0.57779636093E+03  0.15294330000E+03 0.  0.
<mgrwt>
<rscale>  0 0.57728609E+03</rscale>
<asrwt>0</asrwt>
<pdfrwt beam="1">  1        2 0.10488486E+00 0.57728609E+03</pdfrwt>
<pdfrwt beam="2">  1       -2 0.77962542E-01 0.57728609E+03</pdfrwt>
<totfact> 0.63693826E+01</totfact>
</mgrwt>
</event>
<event>
 4    1  0.1701380E-008  0.6767775E+03  0.7818608E-02  0.9757791E-01
         -2   -1    0    0    0  501 -0.00000000000E+00  0.00000000000E+00  0.87732136765E+03  0.87732136765E+03  0.25500000000E-02 0.  1.
          2   -1    0    0  501    0  0.00000000000E+00 -0.00000000000E+00 -0.99292885436E+03  0.99292885436E+03  0.25500000000E-02 0. -1.
    8880022    1    1    2    0    0 -0.65442664543E+03 -0.79761127992E+02  0.58614845215E+03  0.89531990526E+03  0.15294330000E+03 0.  0.
    8880022    1    1    2    0    0  0.65442664543E+03  0.79761127992E+02 -0.70175593886E+03  0.97493031675E+03  0.15294330000E+03 0.  0.
<mgrwt>
<rscale>  0 0.67677746E+03</rscale>
<asrwt>0</asrwt>
<pdfrwt beam="1">  1        2 0.15275829E+00 0.67677746E+03</pdfrwt>
<pdfrwt beam="2">  1       -2 0.13497252E+00 0.67677746E+03</pdfrwt>
<totfact> 0.10316681E+01</totfact>
</mgrwt>
</event>
<event>
 4    1  0.1701380E-008  0.8653559E+03  0.7818608E-02  0.9469956E-01
         -2   -1    0    0    0  501 -0.00000000000E+00  0.00000000000E+00  0.62715499713E+03  0.62715499714E+03  0.25500000000E-02 0.  1.
          2   -1    0    0  501    0  0.00000000000E+00 -0.00000000000E+00 -0.16221968698E+04  0.16221968698E+04  0.25500000000E-02 0. -1.
    8880022    1    1    2    0    0 -0.85063835251E+03  0.43168150008E+02 -0.10753282943E+04  0.13802795694E+04  0.15294330000E+03 0.  0.
    8880022    1    1    2    0    0  0.85063835251E+03 -0.43168150008E+02  0.80286421666E+02  0.86907229760E+03  0.15294330000E+03 0.  0.
<mgrwt>
<rscale>  0 0.86535585E+03</rscale>
<asrwt>0</asrwt>
<pdfrwt beam="1">  1        2 0.24956875E+00 0.86535585E+03</pdfrwt>
<pdfrwt beam="2">  1       -2 0.96485385E-01 0.86535585E+03</pdfrwt>
<totfact> 0.98543700E+00</totfact>
</mgrwt>
</event>
<event>
 4    1  0.1701380E-008  0.4989221E+03  0.7818608E-02  0.1014061E+00
          2   -1    0    0  501    0  0.00000000000E+00  0.00000000000E+00  0.11118088502E+04  0.11118088502E+04  0.25500000000E-02 0. -1.
         -2   -1    0    0    0  501 -0.00000000000E+00 -0.00000000000E+00 -0.34895602827E+03  0.34895602828E+03  0.25500000000E-02 0.  1.
    8880022    1    1    2    0    0 -0.42776654615E+03 -0.20627026585E+03  0.81868063013E+03  0.95872898556E+03  0.15294330000E+03 0.  0.
    8880022    1    1    2    0    0  0.42776654615E+03  0.20627026585E+03 -0.55827808224E+02  0.50203589290E+03  0.15294330000E+03 0.  0.
<mgrwt>
<rscale>  0 0.49892213E+03</rscale>
<asrwt>0</asrwt>
<pdfrwt beam="1">  1        2 0.17104752E+00 0.49892213E+03</pdfrwt>
<pdfrwt beam="2">  1       -2 0.53685543E-01 0.49892213E+03</pdfrwt>
<totfact> 0.72989265E+01</totfact>
</mgrwt>
</event>
<event>
 4    1  0.1701380E-008  0.7395182E+03  0.7818608E-02  0.9651940E-01
          2   -1    0    0  501    0  0.00000000000E+00  0.00000000000E+00  0.24387160743E+04  0.24387160743E+04  0.25500000000E-02 0. -1.
         -2   -1    0    0    0  501 -0.00000000000E+00 -0.00000000000E+00 -0.44144177893E+03  0.44144177894E+03  0.25500000000E-02 0.  1.
    8880022    1    1    2    0    0 -0.24855781611E+03 -0.67949575877E+03  0.20087483801E+04  0.21405506725E+04  0.15294330000E+03 0.  0.
    8880022    1    1    2    0    0  0.24855781611E+03  0.67949575877E+03 -0.11474084704E+02  0.73960718072E+03  0.15294330000E+03 0.  0.
<mgrwt>
<rscale>  0 0.73951817E+03</rscale>
<asrwt>0</asrwt>
<pdfrwt beam="1">  1        2 0.37518709E+00 0.73951817E+03</pdfrwt>
<pdfrwt beam="2">  1       -2 0.67914120E-01 0.73951817E+03</pdfrwt>
<totfact> 0.78687316E+00</totfact>
</mgrwt>
</event>
<event>
 4    1  0.1701380E-008  0.2185503E+04  0.7818608E-02  0.8524486E-01
          2   -1    0    0  501    0  0.00000000000E+00  0.00000000000E+00  0.29094198837E+04  0.29094198837E+04  0.25500000000E-02 0. -1.
         -2   -1    0    0    0  501 -0.00000000000E+00 -0.00000000000E+00 -0.17338540544E+04  0.17338540544E+04  0.25500000000E-02 0.  1.
    8880022    1    1    2    0    0 -0.10242253256E+04 -0.19245762179E+04  0.11229907368E+04  0.24571387800E+04  0.15294330000E+03 0.  0.
    8880022    1    1    2    0    0  0.10242253256E+04  0.19245762179E+04  0.52575092458E+02  0.21861351581E+04  0.15294330000E+03 0.  0.
<mgrwt>
<rscale>  0 0.21855029E+04</rscale>
<asrwt>0</asrwt>
<pdfrwt beam="1">  1        2 0.44760305E+00 0.21855029E+04</pdfrwt>
<pdfrwt beam="2">  1       -2 0.26674678E+00 0.21855029E+04</pdfrwt>
<totfact> 0.87639190E-02</totfact>
</mgrwt>
</event>
<event>
 4    1  0.1701380E-008  0.9341118E+03  0.7818608E-02  0.9383917E-01
          2   -1    0    0  501    0  0.00000000000E+00  0.00000000000E+00  0.29046643432E+04  0.29046643432E+04  0.25500000000E-02 0. -1.
         -2   -1    0    0    0  501 -0.00000000000E+00 -0.00000000000E+00 -0.38542729282E+03  0.38542729283E+03  0.25500000000E-02 0.  1.
    8880022    1    1    2    0    0  0.71010295535E+03 -0.58730493552E+03  0.48696886194E+03  0.10534247102E+04  0.15294330000E+03 0.  0.
    8880022    1    1    2    0    0 -0.71010295535E+03  0.58730493552E+03  0.20322681884E+04  0.22366669259E+04  0.15294330000E+03 0.  0.
<mgrwt>
<rscale>  0 0.93411185E+03</rscale>
<asrwt>0</asrwt>
<pdfrwt beam="1">  1        2 0.44687145E+00 0.93411185E+03</pdfrwt>
<pdfrwt beam="2">  1       -2 0.59296505E-01 0.93411185E+03</pdfrwt>
<totfact> 0.54597542E+00</totfact>
</mgrwt>
</event>
<event>
 4    1  0.1701380E-008  0.1387137E+04  0.7818608E-02  0.8963182E-01
         -2   -1    0    0    0  501 -0.00000000000E+00  0.00000000000E+00  0.11298550328E+04  0.11298550328E+04  0.25500000000E-02 0.  1.
          2   -1    0    0  501    0  0.00000000000E+00 -0.00000000000E+00 -0.18332078726E+04  0.18332078726E+04  0.25500000000E-02 0. -1.
    8880022    1    1    2    0    0 -0.16888240878E+03 -0.13682971437E+04 -0.74650946651E+03  0.15752543852E+04  0.15294330000E+03 0.  0.
    8880022    1    1    2    0    0  0.16888240878E+03  0.13682971437E+04  0.43156626737E+02  0.13878085202E+04  0.15294330000E+03 0.  0.
<mgrwt>
<rscale>  0 0.13871373E+04</rscale>
<asrwt>0</asrwt>
<pdfrwt beam="1">  1        2 0.28203198E+00 0.13871373E+04</pdfrwt>
<pdfrwt beam="2">  1       -2 0.17382385E+00 0.13871373E+04</pdfrwt>
<totfact> 0.15771458E+00</totfact>
</mgrwt>
</event>
<event>
 4    1  0.1701380E-008  0.3272711E+03  0.7818608E-02  0.1072351E+00
         -2   -1    0    0    0  501 -0.00000000000E+00  0.00000000000E+00  0.24532437868E+04  0.24532437868E+04  0.25500000000E-02 0.  1.
          2   -1    0    0  501    0  0.00000000000E+00 -0.00000000000E+00 -0.10700020731E+03  0.10700020734E+03  0.25500000000E-02 0. -1.
    8880022    1    1    2    0    0  0.63741108347E+01  0.28926469932E+03  0.18819949006E+03  0.37752535893E+03  0.15294330000E+03 0.  0.
    8880022    1    1    2    0    0 -0.63741108347E+01 -0.28926469932E+03  0.21580440895E+04  0.21827186353E+04  0.15294330000E+03 0.  0.
<mgrwt>
<rscale>  0 0.32727106E+03</rscale>
<asrwt>0</asrwt>
<pdfrwt beam="1">  1        2 0.16461570E-01 0.32727106E+03</pdfrwt>
<pdfrwt beam="2">  1       -2 0.37742212E+00 0.32727106E+03</pdfrwt>
<totfact> 0.42888902E+00</totfact>
</mgrwt>
</event>
<event>
 4    1  0.1701380E-008  0.1037680E+04  0.7818608E-02  0.9268156E-01
         -2   -1    0    0    0  501 -0.00000000000E+00  0.00000000000E+00  0.30256075433E+04  0.30256075433E+04  0.25500000000E-02 0.  1.
          2   -1    0    0  501    0  0.00000000000E+00 -0.00000000000E+00 -0.51686259258E+03  0.51686259258E+03  0.25500000000E-02 0. -1.
    8880022    1    1    2    0    0  0.94205500526E+03  0.40733459679E+03  0.26589716015E+03  0.10712058903E+04  0.15294330000E+03 0.  0.
    8880022    1    1    2    0    0 -0.94205500526E+03 -0.40733459679E+03  0.22428477906E+04  0.24712642455E+04  0.15294330000E+03 0.  0.
<mgrwt>
<rscale>  0 0.10376805E+04</rscale>
<asrwt>0</asrwt>
<pdfrwt beam="1">  1        2 0.79517323E-01 0.10376805E+04</pdfrwt>
<pdfrwt beam="2">  1       -2 0.46547808E+00 0.10376805E+04</pdfrwt>
<totfact> 0.16476842E-01</totfact>
</mgrwt>
</event>
<event>
 4    1  0.1701380E-008  0.5314824E+03  0.7818608E-02  0.1005873E+00
         -2   -1    0    0    0  501 -0.00000000000E+00  0.00000000000E+00  0.52525327052E+03  0.52525327053E+03  0.25500000000E-02 0.  1.
          2   -1    0    0  501    0  0.00000000000E+00 -0.00000000000E+00 -0.16286616991E+04  0.16286616991E+04  0.25500000000E-02 0. -1.
    8880022    1    1    2    0    0  0.48717422112E+03 -0.14745554928E+03 -0.14330998189E+04  0.15284791803E+04  0.15294330000E+03 0.  0.
    8880022    1    1    2    0    0 -0.48717422112E+03  0.14745554928E+03  0.32969139029E+03  0.62543578934E+03  0.15294330000E+03 0.  0.
<mgrwt>
<rscale>  0 0.53148237E+03</rscale>
<asrwt>0</asrwt>
<pdfrwt beam="1">  1        2 0.25056334E+00 0.53148237E+03</pdfrwt>
<pdfrwt beam="2">  1       -2 0.80808196E-01 0.53148237E+03</pdfrwt>
<totfact> 0.15433915E+01</totfact>
</mgrwt>
</event>
<event>
 4    1  0.1701380E-008  0.3693891E+03  0.7818608E-02  0.1054927E+00
          2   -1    0    0  501    0  0.00000000000E+00  0.00000000000E+00  0.55083880493E+03  0.55083880493E+03  0.25500000000E-02 0. -1.
         -2   -1    0    0    0  501 -0.00000000000E+00 -0.00000000000E+00 -0.79983780862E+03  0.79983780863E+03  0.25500000000E-02 0.  1.
    8880022    1    1    2    0    0  0.30760094025E+03 -0.13578780313E+03 -0.68559941704E+03  0.77877781144E+03  0.15294330000E+03 0.  0.
    8880022    1    1    2    0    0 -0.30760094025E+03  0.13578780313E+03  0.43660041335E+03  0.57189880213E+03  0.15294330000E+03 0.  0.
<mgrwt>
<rscale>  0 0.36938912E+03</rscale>
<asrwt>0</asrwt>
<pdfrwt beam="1">  1        2 0.84744431E-01 0.36938912E+03</pdfrwt>
<pdfrwt beam="2">  1       -2 0.12305197E+00 0.36938912E+03</pdfrwt>
<totfact> 0.28965336E+01</totfact>
</mgrwt>
</event>
<event>
 4    1  0.1701380E-008  0.8042605E+03  0.7818608E-02  0.9553871E-01
         -2   -1    0    0    0  501 -0.00000000000E+00  0.00000000000E+00  0.96317911208E+03  0.96317911209E+03  0.25500000000E-02 0.  1.
          2   -1    0    0  501    0  0.00000000000E+00 -0.00000000000E+00 -0.31800706121E+04  0.31800706121E+04  0.25500000000E-02 0. -1.
    8880022    1    1    2    0    0 -0.77390399371E+02 -0.78578240720E+03 -0.29483723264E+04  0.30560978868E+04  0.15294330000E+03 0.  0.
    8880022    1    1    2    0    0  0.77390399371E+02  0.78578240720E+03  0.73148082634E+03  0.10871518375E+04  0.15294330000E+03 0.  0.
<mgrwt>
<rscale>  0 0.80426048E+03</rscale>
<asrwt>0</asrwt>
<pdfrwt beam="1">  1        2 0.48924163E+00 0.80426048E+03</pdfrwt>
<pdfrwt beam="2">  1       -2 0.14818140E+00 0.80426048E+03</pdfrwt>
<totfact> 0.43955599E-01</totfact>
</mgrwt>
</event>
<event>
 4    1  0.1701380E-008  0.2823336E+04  0.7818608E-02  0.8296060E-01
          2   -1    0    0  501    0  0.00000000000E+00  0.00000000000E+00  0.39342158482E+04  0.39342158482E+04  0.25500000000E-02 0. -1.
         -2   -1    0    0    0  501 -0.00000000000E+00 -0.00000000000E+00 -0.25467223135E+04  0.25467223135E+04  0.25500000000E-02 0.  1.
    8880022    1    1    2    0    0 -0.71743672987E+03 -0.27263744767E+04  0.21588451664E+04  0.35541296198E+04  0.15294330000E+03 0.  0.
    8880022    1    1    2    0    0  0.71743672987E+03  0.27263744767E+04 -0.77135163162E+03  0.29268085420E+04  0.15294330000E+03 0.  0.
<mgrwt>
<rscale>  0 0.28233358E+04</rscale>
<asrwt>0</asrwt>
<pdfrwt beam="1">  1        2 0.60526397E+00 0.28233358E+04</pdfrwt>
<pdfrwt beam="2">  1       -2 0.39180344E+00 0.28233358E+04</pdfrwt>
<totfact> 0.26076961E-03</totfact>
</mgrwt>
</event>
<event>
 4    1  0.1701380E-008  0.6940776E+03  0.7818608E-02  0.9727414E-01
         -2   -1    0    0    0  501 -0.00000000000E+00  0.00000000000E+00  0.45923890535E+03  0.45923890535E+03  0.25500000000E-02 0.  1.
          2   -1    0    0  501    0  0.00000000000E+00 -0.00000000000E+00 -0.14123826075E+04  0.14123826075E+04  0.25500000000E-02 0. -1.
    8880022    1    1    2    0    0  0.34330973884E+03  0.58351565848E+03 -0.95124114003E+03  0.11775412774E+04  0.15294330000E+03 0.  0.
    8880022    1    1    2    0    0 -0.34330973884E+03 -0.58351565848E+03 -0.19025621063E+01  0.69408023544E+03  0.15294330000E+03 0.  0.
<mgrwt>
<rscale>  0 0.69407763E+03</rscale>
<asrwt>0</asrwt>
<pdfrwt beam="1">  1        2 0.21728963E+00 0.69407763E+03</pdfrwt>
<pdfrwt beam="2">  1       -2 0.70652140E-01 0.69407763E+03</pdfrwt>
<totfact> 0.26680695E+01</totfact>
</mgrwt>
</event>
<event>
 4    1  0.1701380E-008  0.6559199E+03  0.7818608E-02  0.9795734E-01
          2   -1    0    0  501    0  0.00000000000E+00  0.00000000000E+00  0.84896352117E+03  0.84896352118E+03  0.25500000000E-02 0. -1.
         -2   -1    0    0    0  501 -0.00000000000E+00 -0.00000000000E+00 -0.72875945966E+03  0.72875945966E+03  0.25500000000E-02 0.  1.
    8880022    1    1    2    0    0  0.60839167264E+03 -0.19156947909E+03  0.49548643584E+03  0.82203269629E+03  0.15294330000E+03 0.  0.
    8880022    1    1    2    0    0 -0.60839167264E+03  0.19156947909E+03 -0.37528237433E+03  0.75569028454E+03  0.15294330000E+03 0. -1.
<mgrwt>
<rscale>  0 0.65591992E+03</rscale>
<asrwt>0</asrwt>
<pdfrwt beam="1">  1        2 0.13060977E+00 0.65591992E+03</pdfrwt>
<pdfrwt beam="2">  1       -2 0.11211684E+00 0.65591992E+03</pdfrwt>
<totfact> 0.20444470E+01</totfact>
</mgrwt>
</event>
<event>
 4    1  0.1701380E-008  0.9066017E+03  0.7818608E-02  0.9417366E-01
          2   -1    0    0  501    0  0.00000000000E+00  0.00000000000E+00  0.26676544539E+04  0.26676544539E+04  0.25500000000E-02 0. -1.
         -2   -1    0    0    0  501 -0.00000000000E+00 -0.00000000000E+00 -0.32189221212E+03  0.32189221213E+03  0.25500000000E-02 0.  1.
    8880022    1    1    2    0    0 -0.15743868179E+03 -0.87962950804E+03  0.86356306855E+03  0.12520654281E+04  0.15294330000E+03 0.  0.
    8880022    1    1    2    0    0  0.15743868179E+03  0.87962950804E+03  0.14821991733E+04  0.17374812379E+04  0.15294330000E+03 0.  0.
<mgrwt>
<rscale>  0 0.90660171E+03</rscale>
<asrwt>0</asrwt>
<pdfrwt beam="1">  1        2 0.41040838E+00 0.90660171E+03</pdfrwt>
<pdfrwt beam="2">  1       -2 0.49521879E-01 0.90660171E+03</pdfrwt>
<totfact> 0.11012701E+01</totfact>
</mgrwt>
</event>
<event>
 4    1  0.1701380E-008  0.2084301E+03  0.7818608E-02  0.1142815E+00
          2   -1    0    0  501    0  0.00000000000E+00  0.00000000000E+00  0.12341012636E+04  0.12341012636E+04  0.25500000000E-02 0. -1.
         -2   -1    0    0    0  501 -0.00000000000E+00 -0.00000000000E+00 -0.44605574365E+03  0.44605574366E+03  0.25500000000E-02 0.  1.
    8880022    1    1    2    0    0 -0.11884179291E+03  0.76994069574E+02 -0.41222553422E+03  0.46192315656E+03  0.15294330000E+03 0.  0.
    8880022    1    1    2    0    0  0.11884179291E+03 -0.76994069574E+02  0.12002710542E+04  0.12182338507E+04  0.15294330000E+03 0.  0.
<mgrwt>
<rscale>  0 0.20843011E+03</rscale>
<asrwt>0</asrwt>
<pdfrwt beam="1">  1        2 0.18986173E+00 0.20843011E+03</pdfrwt>
<pdfrwt beam="2">  1       -2 0.68623962E-01 0.20843011E+03</pdfrwt>
<totfact> 0.39449483E+01</totfact>
</mgrwt>
</event>
<event>
 4    1  0.1701380E-008  0.6397937E+03  0.7818608E-02  0.9826121E-01
          2   -1    0    0  501    0  0.00000000000E+00  0.00000000000E+00  0.37123015647E+04  0.37123015647E+04  0.25500000000E-02 0. -1.
         -2   -1    0    0    0  501 -0.00000000000E+00 -0.00000000000E+00 -0.18506781992E+03  0.18506781994E+03  0.25500000000E-02 0.  1.
    8880022    1    1    2    0    0 -0.57207636950E+03  0.24222508181E+03  0.30025156392E+04  0.30699244583E+04  0.15294330000E+03 0.  0.
    8880022    1    1    2    0    0  0.57207636950E+03 -0.24222508181E+03  0.52471810549E+03  0.82744492629E+03  0.15294330000E+03 0.  0.
<mgrwt>
<rscale>  0 0.63979373E+03</rscale>
<asrwt>0</asrwt>
<pdfrwt beam="1">  1        2 0.57112333E+00 0.63979373E+03</pdfrwt>
<pdfrwt beam="2">  1       -2 0.28471972E-01 0.63979373E+03</pdfrwt>
<totfact> 0.72128596E+00</totfact>
</mgrwt>
</event>
<event>
 4    1  0.1701380E-008  0.9684668E+03  0.7818608E-02  0.9343822E-01
         -2   -1    0    0    0  501 -0.00000000000E+00  0.00000000000E+00  0.97184148856E+03  0.97184148856E+03  0.25500000000E-02 0.  1.
          2   -1    0    0  501    0  0.00000000000E+00 -0.00000000000E+00 -0.16801273605E+04  0.16801273605E+04  0.25500000000E-02 0. -1.
    8880022    1    1    2    0    0  0.31054557188E+03  0.90448755603E+03  0.51087972972E+03  0.10949548130E+04  0.15294330000E+03 0.  0.
    8880022    1    1    2    0    0 -0.31054557188E+03 -0.90448755603E+03 -0.12191656016E+04  0.15570140361E+04  0.15294330000E+03 0.  0.
<mgrwt>
<rscale>  0 0.96846680E+03</rscale>
<asrwt>0</asrwt>
<pdfrwt beam="1">  1        2 0.25848113E+00 0.96846680E+03</pdfrwt>
<pdfrwt beam="2">  1       -2 0.14951407E+00 0.96846680E+03</pdfrwt>
<totfact> 0.30344752E+00</totfact>
</mgrwt>
</event>
<event>
 4    1  0.1701380E-008  0.1796814E+04  0.7818608E-02  0.8707996E-01
         -2   -1    0    0    0  501 -0.00000000000E+00  0.00000000000E+00  0.18996875866E+04  0.18996875866E+04  0.25500000000E-02 0.  1.
          2   -1    0    0  501    0  0.00000000000E+00 -0.00000000000E+00 -0.23877429953E+04  0.23877429953E+04  0.25500000000E-02 0. -1.
    8880022    1    1    2    0    0 -0.11925003433E+04  0.13353248092E+04  0.90688016504E+03  0.20127028349E+04  0.15294330000E+03 0.  0.
    8880022    1    1    2    0    0  0.11925003433E+04 -0.13353248092E+04 -0.13949355737E+04  0.22747277469E+04  0.15294330000E+03 0.  0.
<mgrwt>
<rscale>  0 0.17968141E+04</rscale>
<asrwt>0</asrwt>
<pdfrwt beam="1">  1        2 0.36734507E+00 0.17968141E+04</pdfrwt>
<pdfrwt beam="2">  1       -2 0.29225963E+00 0.17968141E+04</pdfrwt>
<totfact> 0.12973676E-01</totfact>
</mgrwt>
</event>
<event>
 4    1  0.1701380E-008  0.6421499E+03  0.7818608E-02  0.9821622E-01
          2   -1    0    0  501    0  0.00000000000E+00  0.00000000000E+00  0.13349592437E+04  0.13349592437E+04  0.25500000000E-02 0. -1.
         -2   -1    0    0    0  501 -0.00000000000E+00 -0.00000000000E+00 -0.13704793606E+04  0.13704793606E+04  0.25500000000E-02 0.  1.
    8880022    1    1    2    0    0 -0.40071632513E+03  0.47790301394E+03  0.11727952328E+04  0.13370883198E+04  0.15294330000E+03 0.  0.
    8880022    1    1    2    0    0  0.40071632513E+03 -0.47790301394E+03 -0.12083153496E+04  0.13683502845E+04  0.15294330000E+03 0.  0.
<mgrwt>
<rscale>  0 0.64214992E+03</rscale>
<asrwt>0</asrwt>
<pdfrwt beam="1">  1        2 0.20537835E+00 0.64214992E+03</pdfrwt>
<pdfrwt beam="2">  1       -2 0.21084298E+00 0.64214992E+03</pdfrwt>
<totfact> 0.18773125E+00</totfact>
</mgrwt>
</event>
<event>
 4    1  0.1701380E-008  0.6126550E+03  0.7818608E-02  0.9879493E-01
          2   -1    0    0  501    0  0.00000000000E+00  0.00000000000E+00  0.16942904124E+04  0.16942904124E+04  0.25500000000E-02 0. -1.
         -2   -1    0    0    0  501 -0.00000000000E+00 -0.00000000000E+00 -0.23837276474E+03  0.23837276475E+03  0.25500000000E-02 0.  1.
    8880022    1    1    2    0    0  0.55254566489E+03 -0.21598094804E+03  0.47113896792E+03  0.77286354670E+03  0.15294330000E+03 0.  1.
    8880022    1    1    2    0    0 -0.55254566489E+03  0.21598094804E+03  0.98477867977E+03  0.11597996305E+04  0.15294330000E+03 0.  0.
<mgrwt>
<rscale>  0 0.61265499E+03</rscale>
<asrwt>0</asrwt>
<pdfrwt beam="1">  1        2 0.26066007E+00 0.61265499E+03</pdfrwt>
<pdfrwt beam="2">  1       -2 0.36672733E-01 0.61265499E+03</pdfrwt>
<totfact> 0.71882207E+01</totfact>
</mgrwt>
</event>
<event>
 4    1  0.1701380E-008  0.8340927E+03  0.7818608E-02  0.9511939E-01
          2   -1    0    0  501    0  0.00000000000E+00  0.00000000000E+00  0.70107912066E+03  0.70107912066E+03  0.25500000000E-02 0. -1.
         -2   -1    0    0    0  501 -0.00000000000E+00 -0.00000000000E+00 -0.13191581729E+04  0.13191581729E+04  0.25500000000E-02 0.  1.
    8880022    1    1    2    0    0  0.69654061648E+03  0.43260852041E+03  0.19373745058E+03  0.85629715351E+03  0.15294330000E+03 0.  0.
    8880022    1    1    2    0    0 -0.69654061648E+03 -0.43260852041E+03 -0.81181650278E+03  0.11639401400E+04  0.15294330000E+03 0.  0.
<mgrwt>
<rscale>  0 0.83409269E+03</rscale>
<asrwt>0</asrwt>
<pdfrwt beam="1">  1        2 0.10785833E+00 0.83409269E+03</pdfrwt>
<pdfrwt beam="2">  1       -2 0.20294741E+00 0.83409269E+03</pdfrwt>
<totfact> 0.52598984E+00</totfact>
</mgrwt>
</event>
<event>
 4    1  0.1701380E-008  0.1105542E+04  0.7818608E-02  0.9199807E-01
          2   -1    0    0  501    0  0.00000000000E+00  0.00000000000E+00  0.33214015302E+04  0.33214015302E+04  0.25500000000E-02 0. -1.
         -2   -1    0    0    0  501 -0.00000000000E+00 -0.00000000000E+00 -0.44631797523E+03  0.44631797524E+03  0.25500000000E-02 0.  1.
    8880022    1    1    2    0    0 -0.88514700633E+03  0.64447445145E+03  0.64831802284E+03  0.12816163440E+04  0.15294330000E+03 0.  0.
    8880022    1    1    2    0    0  0.88514700633E+03 -0.64447445145E+03  0.22267655321E+04  0.24861031615E+04  0.15294330000E+03 0.  0.
<mgrwt>
<rscale>  0 0.11055425E+04</rscale>
<asrwt>0</asrwt>
<pdfrwt beam="1">  1        2 0.51098486E+00 0.11055425E+04</pdfrwt>
<pdfrwt beam="2">  1       -2 0.68664302E-01 0.11055425E+04</pdfrwt>
<totfact> 0.21195386E+00</totfact>
</mgrwt>
</event>
<event>
 4    1  0.1701380E-008  0.6159068E+03  0.7818608E-02  0.9872943E-01
          2   -1    0    0  501    0  0.00000000000E+00  0.00000000000E+00  0.26104292730E+04  0.26104292730E+04  0.25500000000E-02 0. -1.
         -2   -1    0    0    0  501 -0.00000000000E+00 -0.00000000000E+00 -0.62645095242E+03  0.62645095243E+03  0.25500000000E-02 0.  1.
    8880022    1    1    2    0    0 -0.50105229531E+03  0.32387671450E+03 -0.42636880502E+03  0.74908713762E+03  0.15294330000E+03 0.  0.
    8880022    1    1    2    0    0  0.50105229531E+03 -0.32387671450E+03  0.24103471256E+04  0.24877930878E+04  0.15294330000E+03 0.  0.
<mgrwt>
<rscale>  0 0.61590680E+03</rscale>
<asrwt>0</asrwt>
<pdfrwt beam="1">  1        2 0.40160450E+00 0.61590680E+03</pdfrwt>
<pdfrwt beam="2">  1       -2 0.96377069E-01 0.61590680E+03</pdfrwt>
<totfact> 0.29326109E+00</totfact>
</mgrwt>
</event>
<event>
 4    1  0.1701380E-008  0.1591478E+04  0.7818608E-02  0.8825801E-01
         -2   -1    0    0    0  501 -0.00000000000E+00  0.00000000000E+00  0.25505858556E+04  0.25505858556E+04  0.25500000000E-02 0.  1.
          2   -1    0    0  501    0  0.00000000000E+00 -0.00000000000E+00 -0.21479984491E+04  0.21479984491E+04  0.25500000000E-02 0. -1.
    8880022    1    1    2    0    0  0.64797810924E+03  0.14455219346E+04 -0.15213904015E+04  0.22016879208E+04  0.15294330000E+03 0.  0.
    8880022    1    1    2    0    0 -0.64797810924E+03 -0.14455219346E+04  0.19239778081E+04  0.24968963840E+04  0.15294330000E+03 0.  0.
<mgrwt>
<rscale>  0 0.15914776E+04</rscale>
<asrwt>0</asrwt>
<pdfrwt beam="1">  1        2 0.33046130E+00 0.15914776E+04</pdfrwt>
<pdfrwt beam="2">  1       -2 0.39239782E+00 0.15914776E+04</pdfrwt>
<totfact> 0.42649918E-02</totfact>
</mgrwt>
</event>
<event>
 4    1  0.1701380E-008  0.1101882E+04  0.7818608E-02  0.9203359E-01
         -2   -1    0    0    0  501 -0.00000000000E+00  0.00000000000E+00  0.11680029770E+04  0.11680029770E+04  0.25500000000E-02 0.  1.
          2   -1    0    0  501    0  0.00000000000E+00 -0.00000000000E+00 -0.12812998114E+04  0.12812998114E+04  0.25500000000E-02 0. -1.
    8880022    1    1    2    0    0  0.37682719079E+02  0.10905654690E+04 -0.58864737633E+03  0.12492599474E+04  0.15294330000E+03 0.  0.
    8880022    1    1    2    0    0 -0.37682719079E+02 -0.10905654690E+04  0.47535054186E+03  0.12000428410E+04  0.15294330000E+03 0.  0.
<mgrwt>
<rscale>  0 0.11018823E+04</rscale>
<asrwt>0</asrwt>
<pdfrwt beam="1">  1        2 0.19712305E+00 0.11018823E+04</pdfrwt>
<pdfrwt beam="2">  1       -2 0.17969277E+00 0.11018823E+04</pdfrwt>
<totfact> 0.30292017E+00</totfact>
</mgrwt>
</event>
<event>
 4    1  0.1701380E-008  0.1377725E+04  0.7818608E-02  0.8970102E-01
         -2   -1    0    0    0  501 -0.00000000000E+00  0.00000000000E+00  0.18543751036E+04  0.18543751036E+04  0.25500000000E-02 0.  1.
          2   -1    0    0  501    0  0.00000000000E+00 -0.00000000000E+00 -0.14632740303E+04  0.14632740303E+04  0.25500000000E-02 0. -1.
    8880022    1    1    2    0    0 -0.52302652384E+03 -0.12653766266E+04 -0.71374742236E+03  0.15516319756E+04  0.15294330000E+03 0.  0.
    8880022    1    1    2    0    0  0.52302652384E+03  0.12653766266E+04  0.11048484957E+04  0.17660171583E+04  0.15294330000E+03 0.  0.
<mgrwt>
<rscale>  0 0.13777251E+04</rscale>
<asrwt>0</asrwt>
<pdfrwt beam="1">  1        2 0.22511908E+00 0.13777251E+04</pdfrwt>
<pdfrwt beam="2">  1       -2 0.28528848E+00 0.13777251E+04</pdfrwt>
<totfact> 0.49645821E-01</totfact>
</mgrwt>
</event>
<event>
 4    1  0.1701380E-008  0.1019283E+04  0.7818608E-02  0.9287645E-01
          2   -1    0    0  501    0  0.00000000000E+00  0.00000000000E+00  0.20634002134E+04  0.20634002134E+04  0.25500000000E-02 0. -1.
         -2   -1    0    0    0  501 -0.00000000000E+00 -0.00000000000E+00 -0.82894355905E+03  0.82894355905E+03  0.25500000000E-02 0.  1.
    8880022    1    1    2    0    0 -0.39809785358E+02 -0.10069566248E+04  0.15233574006E+04  0.18329091320E+04  0.15294330000E+03 0.  0.
    8880022    1    1    2    0    0  0.39809785358E+02  0.10069566248E+04 -0.28890074623E+03  0.10594346405E+04  0.15294330000E+03 0.  0.
<mgrwt>
<rscale>  0 0.10192831E+04</rscale>
<asrwt>0</asrwt>
<pdfrwt beam="1">  1        2 0.31744618E+00 0.10192831E+04</pdfrwt>
<pdfrwt beam="2">  1       -2 0.12752978E+00 0.10192831E+04</pdfrwt>
<totfact> 0.27992945E+00</totfact>
</mgrwt>
</event>
<event>
 4    1  0.1701380E-008  0.7224083E+03  0.7818608E-02  0.9679660E-01
         -2   -1    0    0    0  501 -0.00000000000E+00  0.00000000000E+00  0.13227772664E+04  0.13227772664E+04  0.25500000000E-02 0.  1.
          2   -1    0    0  501    0  0.00000000000E+00 -0.00000000000E+00 -0.56297204005E+03  0.56297204006E+03  0.25500000000E-02 0. -1.
    8880022    1    1    2    0    0  0.57759769903E+03  0.40603329354E+03  0.89565028953E+03  0.11506794652E+04  0.15294330000E+03 0.  0.
    8880022    1    1    2    0    0 -0.57759769903E+03 -0.40603329354E+03 -0.13584506318E+03  0.73506984130E+03  0.15294330000E+03 0.  0.
<mgrwt>
<rscale>  0 0.72240833E+03</rscale>
<asrwt>0</asrwt>
<pdfrwt beam="1">  1        2 0.86611084E-01 0.72240833E+03</pdfrwt>
<pdfrwt beam="2">  1       -2 0.20350419E+00 0.72240833E+03</pdfrwt>
<totfact> 0.69157408E+00</totfact>
</mgrwt>
</event>
<event>
 4    1  0.1701380E-008  0.2737081E+03  0.7818608E-02  0.1099176E+00
          2   -1    0    0  501    0  0.00000000000E+00  0.00000000000E+00  0.99552906215E+03  0.99552906215E+03  0.25500000000E-02 0. -1.
         -2   -1    0    0    0  501 -0.00000000000E+00 -0.00000000000E+00 -0.13486305636E+03  0.13486305639E+03  0.25500000000E-02 0.  1.
    8880022    1    1    2    0    0  0.15352831108E+03 -0.16719311887E+03  0.54570094900E+02  0.27909501890E+03  0.15294330000E+03 0.  0.
    8880022    1    1    2    0    0 -0.15352831108E+03  0.16719311887E+03  0.80609591089E+03  0.85129709965E+03  0.15294330000E+03 0.  0.
<mgrwt>
<rscale>  0 0.27370812E+03</rscale>
<asrwt>0</asrwt>
<pdfrwt beam="1">  1        2 0.15315832E+00 0.27370812E+03</pdfrwt>
<pdfrwt beam="2">  1       -2 0.20748162E-01 0.27370812E+03</pdfrwt>
<totfact> 0.52369492E+02</totfact>
</mgrwt>
</event>
<event>
 4    1  0.1701380E-008  0.6932220E+03  0.7818608E-02  0.9728894E-01
         -2   -1    0    0    0  501 -0.00000000000E+00  0.00000000000E+00  0.41644066754E+03  0.41644066755E+03  0.25500000000E-02 0.  1.
          2   -1    0    0  501    0  0.00000000000E+00 -0.00000000000E+00 -0.14760276547E+04  0.14760276547E+04  0.25500000000E-02 0. -1.
    8880022    1    1    2    0    0  0.66037562639E+03 -0.14515203973E+03 -0.97179478083E+03  0.11937092743E+04  0.15294330000E+03 0.  0.
    8880022    1    1    2    0    0 -0.66037562639E+03  0.14515203973E+03 -0.87792206351E+02  0.69875904794E+03  0.15294330000E+03 0.  0.
<mgrwt>
<rscale>  0 0.69322200E+03</rscale>
<asrwt>0</asrwt>
<pdfrwt beam="1">  1        2 0.22708117E+00 0.69322200E+03</pdfrwt>
<pdfrwt beam="2">  1       -2 0.64067796E-01 0.69322200E+03</pdfrwt>
<totfact> 0.30371055E+01</totfact>
</mgrwt>
</event>
<event>
 4    1  0.1701380E-008  0.3077788E+03  0.7818608E-02  0.1081415E+00
         -2   -1    0    0    0  501 -0.00000000000E+00  0.00000000000E+00  0.12947772508E+04  0.12947772508E+04  0.25500000000E-02 0.  1.
          2   -1    0    0  501    0  0.00000000000E+00 -0.00000000000E+00 -0.14025431232E+04  0.14025431232E+04  0.25500000000E-02 0. -1.
    8880022    1    1    2    0    0  0.20890037122E+03  0.16642356039E+03  0.12591307845E+04  0.12962014318E+04  0.15294330000E+03 0.  0.
    8880022    1    1    2    0    0 -0.20890037122E+03 -0.16642356039E+03 -0.13668966568E+04  0.14011189421E+04  0.15294330000E+03 0.  0.
<mgrwt>
<rscale>  0 0.30777885E+03</rscale>
<asrwt>0</asrwt>
<pdfrwt beam="1">  1        2 0.21577586E+00 0.30777885E+03</pdfrwt>
<pdfrwt beam="2">  1       -2 0.19919650E+00 0.30777885E+03</pdfrwt>
<totfact> 0.22512144E+00</totfact>
</mgrwt>
</event>
<event>
 4    1  0.4513388E-008  0.1123882E+04  0.7818608E-02  0.9182223E-01
          2   -1    0    0  501    0  0.00000000000E+00  0.00000000000E+00  0.28722764992E+04  0.28722764992E+04  0.25500000000E-02 0. -1.
         -2   -1    0    0    0  501 -0.00000000000E+00 -0.00000000000E+00 -0.21412151155E+04  0.21412151155E+04  0.25500000000E-02 0.  1.
    8880022    1    1    2    0    0 -0.10039405886E+04 -0.48147904824E+03 -0.18690213774E+04  0.21809060827E+04  0.15294330000E+03 0.  0.
    8880022    1    1    2    0    0  0.10039405886E+04  0.48147904824E+03  0.26000827610E+04  0.28325855321E+04  0.15294330000E+03 0. -1.
<mgrwt>
<rscale>  0 0.11238819E+04</rscale>
<asrwt>0</asrwt>
<pdfrwt beam="1">  1        2 0.44188869E+00 0.11238819E+04</pdfrwt>
<pdfrwt beam="2">  1       -2 0.32941771E+00 0.11238819E+04</pdfrwt>
<totfact> 0.43913941E-02</totfact>
</mgrwt>
</event>
<event>
 4    1  0.1701380E-008  0.4241377E+03  0.7818608E-02  0.1035728E+00
         -2   -1    0    0    0  501 -0.00000000000E+00  0.00000000000E+00  0.21338553799E+03  0.21338553801E+03  0.25500000000E-02 0.  1.
          2   -1    0    0  501    0  0.00000000000E+00 -0.00000000000E+00 -0.23362325847E+04  0.23362325847E+04  0.25500000000E-02 0. -1.
    8880022    1    1    2    0    0  0.38592178152E+03 -0.86980006872E+02 -0.42257718523E+02  0.42623762251E+03  0.15294330000E+03 0.  0.
    8880022    1    1    2    0    0 -0.38592178152E+03  0.86980006872E+02 -0.20805893281E+04  0.21233805002E+04  0.15294330000E+03 0.  0.
<mgrwt>
<rscale>  0 0.42413771E+03</rscale>
<asrwt>0</asrwt>
<pdfrwt beam="1">  1        2 0.35942038E+00 0.42413771E+03</pdfrwt>
<pdfrwt beam="2">  1       -2 0.32828546E-01 0.42413771E+03</pdfrwt>
<totfact> 0.41167214E+01</totfact>
</mgrwt>
</event>
<event>
 4    1  0.1701380E-008  0.2767486E+03  0.7818608E-02  0.1097478E+00
          2   -1    0    0  501    0  0.00000000000E+00  0.00000000000E+00  0.46424857715E+03  0.46424857715E+03  0.25500000000E-02 0. -1.
         -2   -1    0    0    0  501 -0.00000000000E+00 -0.00000000000E+00 -0.70867630433E+03  0.70867630433E+03  0.25500000000E-02 0.  1.
    8880022    1    1    2    0    0 -0.18625210722E+03  0.13604512021E+03 -0.63589795979E+03  0.69350990653E+03  0.15294330000E+03 0.  1.
    8880022    1    1    2    0    0  0.18625210722E+03 -0.13604512021E+03  0.39147023261E+03  0.47941497495E+03  0.15294330000E+03 0.  0.
<mgrwt>
<rscale>  0 0.27674858E+03</rscale>
<asrwt>0</asrwt>
<pdfrwt beam="1">  1        2 0.71422858E-01 0.27674858E+03</pdfrwt>
<pdfrwt beam="2">  1       -2 0.10902712E+00 0.27674858E+03</pdfrwt>
<totfact> 0.47856331E+01</totfact>
</mgrwt>
</event>
<event>
 4    1  0.1701380E-008  0.4873890E+03  0.7818608E-02  0.1017124E+00
          2   -1    0    0  501    0  0.00000000000E+00  0.00000000000E+00  0.27721898553E+04  0.27721898553E+04  0.25500000000E-02 0. -1.
         -2   -1    0    0    0  501 -0.00000000000E+00 -0.00000000000E+00 -0.10484575309E+04  0.10484575309E+04  0.25500000000E-02 0.  1.
    8880022    1    1    2    0    0 -0.39674460549E+03  0.23822290124E+03  0.26924614002E+04  0.27362193766E+04  0.15294330000E+03 0.  0.
    8880022    1    1    2    0    0  0.39674460549E+03 -0.23822290124E+03 -0.96872907577E+03  0.10844280096E+04  0.15294330000E+03 0.  0.
<mgrwt>
<rscale>  0 0.48738905E+03</rscale>
<asrwt>0</asrwt>
<pdfrwt beam="1">  1        2 0.42649074E+00 0.48738905E+03</pdfrwt>
<pdfrwt beam="2">  1       -2 0.16130116E+00 0.48738905E+03</pdfrwt>
<totfact> 0.67877809E-01</totfact>
</mgrwt>
</event>
<event>
 4    1  0.1701380E-008  0.1171540E+04  0.7818608E-02  0.9138139E-01
         -2   -1    0    0    0  501 -0.00000000000E+00  0.00000000000E+00  0.58503238385E+03  0.58503238385E+03  0.25500000000E-02 0.  1.
          2   -1    0    0  501    0  0.00000000000E+00 -0.00000000000E+00 -0.41776229700E+04  0.41776229700E+04  0.25500000000E-02 0. -1.
    8880022    1    1    2    0    0 -0.92338770446E+03  0.70460603620E+03 -0.33730657915E+04  0.35707252773E+04  0.15294330000E+03 0.  0.
    8880022    1    1    2    0    0  0.92338770446E+03 -0.70460603620E+03 -0.21952479468E+03  0.11919300766E+04  0.15294330000E+03 0.  0.
<mgrwt>
<rscale>  0 0.11715401E+04</rscale>
<asrwt>0</asrwt>
<pdfrwt beam="1">  1        2 0.64271121E+00 0.11715401E+04</pdfrwt>
<pdfrwt beam="2">  1       -2 0.90004985E-01 0.11715401E+04</pdfrwt>
<totfact> 0.26345203E-01</totfact>
</mgrwt>
</event>
<event>
 4    1  0.1701380E-008  0.1240199E+04  0.7818608E-02  0.9078381E-01
          2   -1    0    0  501    0  0.00000000000E+00  0.00000000000E+00  0.13106755892E+04  0.13106755892E+04  0.25500000000E-02 0. -1.
         -2   -1    0    0    0  501 -0.00000000000E+00 -0.00000000000E+00 -0.15632454799E+04  0.15632454799E+04  0.25500000000E-02 0.  1.
    8880022    1    1    2    0    0  0.72655153866E+03 -0.99339010339E+03  0.59120441600E+03  0.13739051461E+04  0.15294330000E+03 0.  0.
    8880022    1    1    2    0    0 -0.72655153866E+03  0.99339010339E+03 -0.84377430668E+03  0.15000159231E+04  0.15294330000E+03 0.  0.
<mgrwt>
<rscale>  0 0.12401986E+04</rscale>
<asrwt>0</asrwt>
<pdfrwt beam="1">  1        2 0.20164240E+00 0.12401986E+04</pdfrwt>
<pdfrwt beam="2">  1       -2 0.24049930E+00 0.12401986E+04</pdfrwt>
<totfact> 0.11593072E+00</totfact>
</mgrwt>
</event>
<event>
 4    1  0.1701380E-008  0.6496150E+03  0.7818608E-02  0.9807502E-01
          2   -1    0    0  501    0  0.00000000000E+00  0.00000000000E+00  0.17042874089E+04  0.17042874089E+04  0.25500000000E-02 0. -1.
         -2   -1    0    0    0  501 -0.00000000000E+00 -0.00000000000E+00 -0.41163575850E+03  0.41163575851E+03  0.25500000000E-02 0.  1.
    8880022    1    1    2    0    0  0.19651357632E+03  0.59999201142E+03 -0.21508234999E+02  0.64997096599E+03  0.15294330000E+03 0.  0.
    8880022    1    1    2    0    0 -0.19651357632E+03 -0.59999201142E+03  0.13141598854E+04  0.14659522014E+04  0.15294330000E+03 0.  0.
<mgrwt>
<rscale>  0 0.64961500E+03</rscale>
<asrwt>0</asrwt>
<pdfrwt beam="1">  1        2 0.26219806E+00 0.64961500E+03</pdfrwt>
<pdfrwt beam="2">  1       -2 0.63328578E-01 0.64961500E+03</pdfrwt>
<totfact> 0.23455290E+01</totfact>
</mgrwt>
</event>
<event>
 4    1  0.1701380E-008  0.1384150E+04  0.7818608E-02  0.8965372E-01
         -2   -1    0    0    0  501 -0.00000000000E+00  0.00000000000E+00  0.11858147590E+04  0.11858147590E+04  0.25500000000E-02 0.  1.
          2   -1    0    0  501    0  0.00000000000E+00 -0.00000000000E+00 -0.24629307273E+04  0.24629307273E+04  0.25500000000E-02 0. -1.
    8880022    1    1    2    0    0 -0.13735658700E+04 -0.76129713370E+02 -0.17085959863E+04  0.21989021874E+04  0.15294330000E+03 0.  0.
    8880022    1    1    2    0    0  0.13735658700E+04  0.76129713370E+02  0.43148001801E+03  0.14498432989E+04  0.15294330000E+03 0.  0.
<mgrwt>
<rscale>  0 0.13841498E+04</rscale>
<asrwt>0</asrwt>
<pdfrwt beam="1">  1        2 0.37891242E+00 0.13841498E+04</pdfrwt>
<pdfrwt beam="2">  1       -2 0.18243304E+00 0.13841498E+04</pdfrwt>
<totfact> 0.60828542E-01</totfact>
</mgrwt>
</event>
<event>
 4    1  0.1701380E-008  0.1213537E+04  0.7818608E-02  0.9101090E-01
         -2   -1    0    0    0  501 -0.00000000000E+00  0.00000000000E+00  0.11363405634E+04  0.11363405634E+04  0.25500000000E-02 0.  1.
          2   -1    0    0  501    0  0.00000000000E+00 -0.00000000000E+00 -0.18496421399E+04  0.18496421399E+04  0.25500000000E-02 0. -1.
    8880022    1    1    2    0    0  0.35180685876E+03  0.11513086680E+04  0.46018918100E+03  0.12978618764E+04  0.15294330000E+03 0.  0.
    8880022    1    1    2    0    0 -0.35180685876E+03 -0.11513086680E+04 -0.11734907575E+04  0.16881208268E+04  0.15294330000E+03 0.  0.
<mgrwt>
<rscale>  0 0.12135367E+04</rscale>
<asrwt>0</asrwt>
<pdfrwt beam="1">  1        2 0.28456033E+00 0.12135367E+04</pdfrwt>
<pdfrwt beam="2">  1       -2 0.17482163E+00 0.12135367E+04</pdfrwt>
<totfact> 0.15473170E+00</totfact>
</mgrwt>
</event>
<event>
 4    1  0.1701380E-008  0.3071175E+03  0.7818608E-02  0.1081736E+00
         -2   -1    0    0    0  501 -0.00000000000E+00  0.00000000000E+00  0.10330507962E+03  0.10330507965E+03  0.25500000000E-02 0.  1.
          2   -1    0    0  501    0  0.00000000000E+00 -0.00000000000E+00 -0.11175101497E+04  0.11175101497E+04  0.25500000000E-02 0. -1.
    8880022    1    1    2    0    0  0.20995245011E+03 -0.16385809435E+03 -0.24599800296E+03  0.39349228311E+03  0.15294330000E+03 0.  0.
    8880022    1    1    2    0    0 -0.20995245011E+03  0.16385809435E+03 -0.76820706709E+03  0.82732294621E+03  0.15294330000E+03 0.  0.
<mgrwt>
<rscale>  0 0.30711750E+03</rscale>
<asrwt>0</asrwt>
<pdfrwt beam="1">  1        2 0.17192463E+00 0.30711750E+03</pdfrwt>
<pdfrwt beam="2">  1       -2 0.15893090E-01 0.30711750E+03</pdfrwt>
<totfact> 0.69387730E+02</totfact>
</mgrwt>
</event>
<event>
 4    1  0.1701380E-008  0.7823751E+03  0.7818608E-02  0.9585885E-01
         -2   -1    0    0    0  501 -0.00000000000E+00  0.00000000000E+00  0.57191673584E+03  0.57191673584E+03  0.25500000000E-02 0.  1.
          2   -1    0    0  501    0  0.00000000000E+00 -0.00000000000E+00 -0.16159583979E+04  0.16159583979E+04  0.25500000000E-02 0. -1.
    8880022    1    1    2    0    0  0.68520506881E+03 -0.34527249872E+03 -0.11577118015E+04  0.13972857091E+04  0.15294330000E+03 0.  0.
    8880022    1    1    2    0    0 -0.68520506881E+03  0.34527249872E+03  0.11367013939E+03  0.79058942461E+03  0.15294330000E+03 0.  1.
<mgrwt>
<rscale>  0 0.78237506E+03</rscale>
<asrwt>0</asrwt>
<pdfrwt beam="1">  1        2 0.24860898E+00 0.78237506E+03</pdfrwt>
<pdfrwt beam="2">  1       -2 0.87987191E-01 0.78237506E+03</pdfrwt>
<totfact> 0.12434456E+01</totfact>
</mgrwt>
</event>
<event>
 4    1  0.1701380E-008  0.1303506E+04  0.7818608E-02  0.9026789E-01
         -2   -1    0    0    0  501 -0.00000000000E+00  0.00000000000E+00  0.15566300056E+04  0.15566300056E+04  0.25500000000E-02 0.  1.
          2   -1    0    0  501    0  0.00000000000E+00 -0.00000000000E+00 -0.17810351432E+04  0.17810351432E+04  0.25500000000E-02 0. -1.
    8880022    1    1    2    0    0 -0.35493921761E+03 -0.12448914633E+04  0.92614141594E+03  0.15990203810E+04  0.15294330000E+03 0.  0.
    8880022    1    1    2    0    0  0.35493921761E+03  0.12448914633E+04 -0.11505465535E+04  0.17386447678E+04  0.15294330000E+03 0.  0.
<mgrwt>
<rscale>  0 0.13035061E+04</rscale>
<asrwt>0</asrwt>
<pdfrwt beam="1">  1        2 0.27400541E+00 0.13035061E+04</pdfrwt>
<pdfrwt beam="2">  1       -2 0.23948154E+00 0.13035061E+04</pdfrwt>
<totfact> 0.63271126E-01</totfact>
</mgrwt>
</event>
<event>
 4    1  0.1701380E-008  0.1447634E+04  0.7818608E-02  0.8920043E-01
          2   -1    0    0  501    0  0.00000000000E+00  0.00000000000E+00  0.47362410778E+04  0.47362410778E+04  0.25500000000E-02 0. -1.
         -2   -1    0    0    0  501 -0.00000000000E+00 -0.00000000000E+00 -0.71093216714E+03  0.71093216715E+03  0.25500000000E-02 0.  1.
    8880022    1    1    2    0    0  0.14142762779E+04 -0.26846644150E+03  0.33898812060E+03  0.14867939398E+04  0.15294330000E+03 0.  0.
    8880022    1    1    2    0    0 -0.14142762779E+04  0.26846644150E+03  0.36863207901E+04  0.39603793052E+04  0.15294330000E+03 0.  0.
<mgrwt>
<rscale>  0 0.14476337E+04</rscale>
<asrwt>0</asrwt>
<pdfrwt beam="1">  1        2 0.72865246E+00 0.14476337E+04</pdfrwt>
<pdfrwt beam="2">  1       -2 0.10937418E+00 0.14476337E+04</pdfrwt>
<totfact> 0.46370094E-02</totfact>
</mgrwt>
</event>
<event>
 4    1  0.1701380E-008  0.1811261E+04  0.7818608E-02  0.8700334E-01
          2   -1    0    0  501    0  0.00000000000E+00  0.00000000000E+00  0.31039279837E+04  0.31039279837E+04  0.25500000000E-02 0. -1.
         -2   -1    0    0    0  501 -0.00000000000E+00 -0.00000000000E+00 -0.11402305322E+04  0.11402305322E+04  0.25500000000E-02 0.  1.
    8880022    1    1    2    0    0  0.75560383995E+03 -0.16390053855E+04  0.15553858727E+04  0.23874448020E+04  0.15294330000E+03 0.  0.
    8880022    1    1    2    0    0 -0.75560383995E+03  0.16390053855E+04  0.40831157885E+03  0.18567137138E+04  0.15294330000E+03 0.  0.
<mgrwt>
<rscale>  0 0.18112613E+04</rscale>
<asrwt>0</asrwt>
<pdfrwt beam="1">  1        2 0.47752737E+00 0.18112613E+04</pdfrwt>
<pdfrwt beam="2">  1       -2 0.17542009E+00 0.18112613E+04</pdfrwt>
<totfact> 0.26680080E-01</totfact>
</mgrwt>
</event>
<event>
 4    1  0.1701380E-008  0.9195031E+03  0.7818608E-02  0.9401525E-01
          2   -1    0    0  501    0  0.00000000000E+00  0.00000000000E+00  0.20350583067E+04  0.20350583067E+04  0.25500000000E-02 0. -1.
         -2   -1    0    0    0  501 -0.00000000000E+00 -0.00000000000E+00 -0.85557574099E+03  0.85557574100E+03  0.25500000000E-02 0.  1.
    8880022    1    1    2    0    0 -0.47489828162E+03  0.77237674840E+03  0.16263556052E+04  0.18682929179E+04  0.15294330000E+03 0.  0.
    8880022    1    1    2    0    0  0.47489828162E+03 -0.77237674840E+03 -0.44687303948E+03  0.10223411299E+04  0.15294330000E+03 0.  0.
<mgrwt>
<rscale>  0 0.91950306E+03</rscale>
<asrwt>0</asrwt>
<pdfrwt beam="1">  1        2 0.31308589E+00 0.91950306E+03</pdfrwt>
<pdfrwt beam="2">  1       -2 0.13162704E+00 0.91950306E+03</pdfrwt>
<totfact> 0.27147840E+00</totfact>
</mgrwt>
</event>
<event>
 4    1  0.1701380E-008  0.7473716E+03  0.7818608E-02  0.9639483E-01
          2   -1    0    0  501    0  0.00000000000E+00  0.00000000000E+00  0.12949348082E+04  0.12949348082E+04  0.25500000000E-02 0. -1.
         -2   -1    0    0    0  501 -0.00000000000E+00 -0.00000000000E+00 -0.71219828263E+03  0.71219828264E+03  0.25500000000E-02 0.  1.
    8880022    1    1    2    0    0  0.35696879191E+03  0.63854981530E+03 -0.33884148780E+03  0.82059599797E+03  0.15294330000E+03 0.  0.
    8880022    1    1    2    0    0 -0.35696879191E+03 -0.63854981530E+03  0.92157801338E+03  0.11865370929E+04  0.15294330000E+03 0.  0.
<mgrwt>
<rscale>  0 0.74737155E+03</rscale>
<asrwt>0</asrwt>
<pdfrwt beam="1">  1        2 0.19922074E+00 0.74737155E+03</pdfrwt>
<pdfrwt beam="2">  1       -2 0.10956897E+00 0.74737155E+03</pdfrwt>
<totfact> 0.11276861E+01</totfact>
</mgrwt>
</event>
<event>
 4    1  0.1701380E-008  0.4072047E+03  0.7818608E-02  0.1041313E+00
          2   -1    0    0  501    0  0.00000000000E+00  0.00000000000E+00  0.18801557006E+04  0.18801557006E+04  0.25500000000E-02 0. -1.
         -2   -1    0    0    0  501 -0.00000000000E+00 -0.00000000000E+00 -0.22595476626E+03  0.22595476627E+03  0.25500000000E-02 0.  1.
    8880022    1    1    2    0    0  0.16544671815E+03  0.33919224575E+03  0.48473623558E+01  0.40723352767E+03  0.15294330000E+03 0.  0.
    8880022    1    1    2    0    0 -0.16544671815E+03 -0.33919224575E+03  0.16493535720E+04  0.16988769392E+04  0.15294330000E+03 0.  0.
<mgrwt>
<rscale>  0 0.40720468E+03</rscale>
<asrwt>0</asrwt>
<pdfrwt beam="1">  1        2 0.28925472E+00 0.40720468E+03</pdfrwt>
<pdfrwt beam="2">  1       -2 0.34762272E-01 0.40720468E+03</pdfrwt>
<totfact> 0.65333421E+01</totfact>
</mgrwt>
</event>
<event>
 4    1  0.1701380E-008  0.1360285E+04  0.7818608E-02  0.8983079E-01
         -2   -1    0    0    0  501 -0.00000000000E+00  0.00000000000E+00  0.10023465779E+04  0.10023465779E+04  0.25500000000E-02 0.  1.
          2   -1    0    0  501    0  0.00000000000E+00 -0.00000000000E+00 -0.28066375993E+04  0.28066375994E+04  0.25500000000E-02 0. -1.
    8880022    1    1    2    0    0  0.51609360263E+03  0.12492521880E+04 -0.20163271114E+04  0.24322726634E+04  0.15294330000E+03 0.  0.
    8880022    1    1    2    0    0 -0.51609360263E+03 -0.12492521880E+04  0.21203609001E+03  0.13767115138E+04  0.15294330000E+03 0.  0.
<mgrwt>
<rscale>  0 0.13602850E+04</rscale>
<asrwt>0</asrwt>
<pdfrwt beam="1">  1        2 0.43179040E+00 0.13602850E+04</pdfrwt>
<pdfrwt beam="2">  1       -2 0.15420717E+00 0.13602850E+04</pdfrwt>
<totfact> 0.61295521E-01</totfact>
</mgrwt>
</event>
<event>
 4    1  0.1701380E-008  0.1230619E+04  0.7818608E-02  0.9086470E-01
          2   -1    0    0  501    0  0.00000000000E+00  0.00000000000E+00  0.42687233669E+04  0.42687233669E+04  0.25500000000E-02 0. -1.
         -2   -1    0    0    0  501 -0.00000000000E+00 -0.00000000000E+00 -0.46296678182E+03  0.46296678183E+03  0.25500000000E-02 0.  1.
    8880022    1    1    2    0    0 -0.36373926792E+03 -0.11656433806E+04  0.30465860690E+04  0.32857433062E+04  0.15294330000E+03 0.  0.
    8880022    1    1    2    0    0  0.36373926792E+03  0.11656433806E+04  0.75917051610E+03  0.14459468425E+04  0.15294330000E+03 0.  0.
<mgrwt>
<rscale>  0 0.12306187E+04</rscale>
<asrwt>0</asrwt>
<pdfrwt beam="1">  1        2 0.65672670E+00 0.12306187E+04</pdfrwt>
<pdfrwt beam="2">  1       -2 0.71225656E-01 0.12306187E+04</pdfrwt>
<totfact> 0.36970655E-01</totfact>
</mgrwt>
</event>
<event>
 4    1  0.1701380E-008  0.6562909E+03  0.7818608E-02  0.9795046E-01
          2   -1    0    0  501    0  0.00000000000E+00  0.00000000000E+00  0.31585731627E+04  0.31585731627E+04  0.25500000000E-02 0. -1.
         -2   -1    0    0    0  501 -0.00000000000E+00 -0.00000000000E+00 -0.26194599119E+03  0.26194599120E+03  0.25500000000E-02 0.  1.
    8880022    1    1    2    0    0  0.56659879055E+03 -0.29375490574E+03  0.26324961892E+04  0.27130709488E+04  0.15294330000E+03 0.  0.
    8880022    1    1    2    0    0 -0.56659879055E+03  0.29375490574E+03  0.26413098236E+03  0.70744820514E+03  0.15294330000E+03 0.  0.
<mgrwt>
<rscale>  0 0.65629093E+03</rscale>
<asrwt>0</asrwt>
<pdfrwt beam="1">  1        2 0.48593435E+00 0.65629093E+03</pdfrwt>
<pdfrwt beam="2">  1       -2 0.40299382E-01 0.65629093E+03</pdfrwt>
<totfact> 0.87598187E+00</totfact>
</mgrwt>
</event>
<event>
 4    1  0.1701380E-008  0.6800295E+03  0.7818608E-02  0.9752007E-01
         -2   -1    0    0    0  501 -0.00000000000E+00  0.00000000000E+00  0.53118723341E+03  0.53118723342E+03  0.25500000000E-02 0.  1.
          2   -1    0    0  501    0  0.00000000000E+00 -0.00000000000E+00 -0.12718752427E+04  0.12718752427E+04  0.25500000000E-02 0. -1.
    8880022    1    1    2    0    0 -0.60095014481E+03 -0.27911892737E+03  0.13605334176E+03  0.69350603240E+03  0.15294330000E+03 0.  0.
    8880022    1    1    2    0    0  0.60095014481E+03  0.27911892737E+03 -0.87674135107E+03  0.11095564437E+04  0.15294330000E+03 0.  0.
<mgrwt>
<rscale>  0 0.68002949E+03</rscale>
<asrwt>0</asrwt>
<pdfrwt beam="1">  1        2 0.19567311E+00 0.68002949E+03</pdfrwt>
<pdfrwt beam="2">  1       -2 0.81721113E-01 0.68002949E+03</pdfrwt>
<totfact> 0.23265038E+01</totfact>
</mgrwt>
</event>
<event>
 4    1  0.1701380E-008  0.3627677E+03  0.7818608E-02  0.1057493E+00
          2   -1    0    0  501    0  0.00000000000E+00  0.00000000000E+00  0.17052076482E+04  0.17052076482E+04  0.25500000000E-02 0. -1.
         -2   -1    0    0    0  501 -0.00000000000E+00 -0.00000000000E+00 -0.15762286900E+03  0.15762286902E+03  0.25500000000E-02 0.  1.
    8880022    1    1    2    0    0 -0.48661888924E+01 -0.32891500653E+03  0.10838227009E+03  0.37861211127E+03  0.15294330000E+03 0.  0.
    8880022    1    1    2    0    0  0.48661888924E+01  0.32891500653E+03  0.14392025091E+04  0.14842184059E+04  0.15294330000E+03 0.  0.
<mgrwt>
<rscale>  0 0.36276771E+03</rscale>
<asrwt>0</asrwt>
<pdfrwt beam="1">  1        2 0.26233964E+00 0.36276771E+03</pdfrwt>
<pdfrwt beam="2">  1       -2 0.24249672E-01 0.36276771E+03</pdfrwt>
<totfact> 0.15768769E+02</totfact>
</mgrwt>
</event>
<event>
 4    1  0.1701380E-008  0.9435250E+03  0.7818608E-02  0.9372751E-01
         -2   -1    0    0    0  501 -0.00000000000E+00  0.00000000000E+00  0.13644068997E+04  0.13644068997E+04  0.25500000000E-02 0.  1.
          2   -1    0    0  501    0  0.00000000000E+00 -0.00000000000E+00 -0.16715778278E+04  0.16715778278E+04  0.25500000000E-02 0. -1.
    8880022    1    1    2    0    0 -0.77690540324E+03  0.51309422568E+03 -0.13388508707E+04  0.16379136110E+04  0.15294330000E+03 0.  0.
    8880022    1    1    2    0    0  0.77690540324E+03 -0.51309422568E+03  0.10316799426E+04  0.13980711166E+04  0.15294330000E+03 0.  0.
<mgrwt>
<rscale>  0 0.94352496E+03</rscale>
<asrwt>0</asrwt>
<pdfrwt beam="1">  1        2 0.25716582E+00 0.94352496E+03</pdfrwt>
<pdfrwt beam="2">  1       -2 0.20990875E+00 0.94352496E+03</pdfrwt>
<totfact> 0.11708333E+00</totfact>
</mgrwt>
</event>
<event>
 4    1  0.1701380E-008  0.1249129E+04  0.7818608E-02  0.9070908E-01
          2   -1    0    0  501    0  0.00000000000E+00  0.00000000000E+00  0.18358824319E+04  0.18358824319E+04  0.25500000000E-02 0. -1.
         -2   -1    0    0    0  501 -0.00000000000E+00 -0.00000000000E+00 -0.14887865412E+04  0.14887865412E+04  0.25500000000E-02 0.  1.
    8880022    1    1    2    0    0 -0.11094436519E+04 -0.55323370296E+03  0.12625096342E+04  0.17760222342E+04  0.15294330000E+03 0.  0.
    8880022    1    1    2    0    0  0.11094436519E+04  0.55323370296E+03 -0.91541374353E+03  0.15486467389E+04  0.15294330000E+03 0.  0.
<mgrwt>
<rscale>  0 0.12491295E+04</rscale>
<asrwt>0</asrwt>
<pdfrwt beam="1">  1        2 0.28244345E+00 0.12491295E+04</pdfrwt>
<pdfrwt beam="2">  1       -2 0.22904408E+00 0.12491295E+04</pdfrwt>
<totfact> 0.68955011E-01</totfact>
</mgrwt>
</event>
<event>
 4    1  0.1701380E-008  0.5451350E+03  0.7818608E-02  0.1002626E+00
         -2   -1    0    0    0  501 -0.00000000000E+00  0.00000000000E+00  0.59337905184E+03  0.59337905184E+03  0.25500000000E-02 0.  1.
          2   -1    0    0  501    0  0.00000000000E+00 -0.00000000000E+00 -0.60873834735E+03  0.60873834736E+03  0.25500000000E-02 0. -1.
    8880022    1    1    2    0    0 -0.51096274481E+03  0.11268375423E+03  0.24540300969E+03  0.59782509585E+03  0.15294330000E+03 0.  0.
    8880022    1    1    2    0    0  0.51096274481E+03 -0.11268375423E+03 -0.26076230520E+03  0.60429230335E+03  0.15294330000E+03 0.  0.
<mgrwt>
<rscale>  0 0.54513504E+03</rscale>
<asrwt>0</asrwt>
<pdfrwt beam="1">  1        2 0.93652053E-01 0.54513504E+03</pdfrwt>
<pdfrwt beam="2">  1       -2 0.91289085E-01 0.54513504E+03</pdfrwt>
<totfact> 0.51311188E+01</totfact>
</mgrwt>
</event>
<event>
 4    1  0.1701380E-008  0.8570920E+03  0.7818608E-02  0.9480867E-01
         -2   -1    0    0    0  501 -0.00000000000E+00  0.00000000000E+00  0.47958213720E+03  0.47958213721E+03  0.25500000000E-02 0.  1.
          2   -1    0    0  501    0  0.00000000000E+00 -0.00000000000E+00 -0.18155581460E+04  0.18155581460E+04  0.25500000000E-02 0. -1.
    8880022    1    1    2    0    0 -0.82327860082E+03 -0.18283181436E+03 -0.11216952055E+04  0.14116681316E+04  0.15294330000E+03 0.  0.
    8880022    1    1    2    0    0  0.82327860082E+03  0.18283181436E+03 -0.21428080332E+03  0.88347215157E+03  0.15294330000E+03 0.  0.
<mgrwt>
<rscale>  0 0.85709205E+03</rscale>
<asrwt>0</asrwt>
<pdfrwt beam="1">  1        2 0.27931663E+00 0.85709205E+03</pdfrwt>
<pdfrwt beam="2">  1       -2 0.73781868E-01 0.85709205E+03</pdfrwt>
<totfact> 0.14236819E+01</totfact>
</mgrwt>
</event>
<event>
 4    1  0.1701380E-008  0.6692893E+03  0.7818608E-02  0.9771243E-01
         -2   -1    0    0    0  501 -0.00000000000E+00  0.00000000000E+00  0.85432649465E+03  0.85432649466E+03  0.25500000000E-02 0.  1.
          2   -1    0    0  501    0  0.00000000000E+00 -0.00000000000E+00 -0.18804437312E+04  0.18804437312E+04  0.25500000000E-02 0. -1.
    8880022    1    1    2    0    0  0.65144308866E+03  0.13354810772E+02 -0.16742636343E+04  0.18030825880E+04  0.15294330000E+03 0.  0.
    8880022    1    1    2    0    0 -0.65144308866E+03 -0.13354810772E+02  0.64814639776E+03  0.93168763793E+03  0.15294330000E+03 0.  0.
<mgrwt>
<rscale>  0 0.66928925E+03</rscale>
<asrwt>0</asrwt>
<pdfrwt beam="1">  1        2 0.28929903E+00 0.66928925E+03</pdfrwt>
<pdfrwt beam="2">  1       -2 0.13143485E+00 0.66928925E+03</pdfrwt>
<totfact> 0.34498783E+00</totfact>
</mgrwt>
</event>
<event>
 4    1  0.1701380E-008  0.7393229E+03  0.7818608E-02  0.9652252E-01
          2   -1    0    0  501    0  0.00000000000E+00  0.00000000000E+00  0.50856318927E+03  0.50856318928E+03  0.25500000000E-02 0. -1.
         -2   -1    0    0    0  501 -0.00000000000E+00 -0.00000000000E+00 -0.28440720254E+04  0.28440720254E+04  0.25500000000E-02 0.  1.
    8880022    1    1    2    0    0 -0.65152493348E+03 -0.31420051959E+03  0.15440739514E+03  0.75527478585E+03  0.15294330000E+03 0.  0.
    8880022    1    1    2    0    0  0.65152493348E+03  0.31420051959E+03 -0.24899162313E+04  0.25973604288E+04  0.15294330000E+03 0.  0.
<mgrwt>
<rscale>  0 0.73932291E+03</rscale>
<asrwt>0</asrwt>
<pdfrwt beam="1">  1        2 0.78240493E-01 0.73932291E+03</pdfrwt>
<pdfrwt beam="2">  1       -2 0.43754953E+00 0.73932291E+03</pdfrwt>
<totfact> 0.27089283E-01</totfact>
</mgrwt>
</event>
<event>
 4    1  0.1701380E-008  0.8615536E+03  0.7818608E-02  0.9474960E-01
          2   -1    0    0  501    0  0.00000000000E+00  0.00000000000E+00  0.10808772579E+04  0.10808772579E+04  0.25500000000E-02 0. -1.
         -2   -1    0    0    0  501 -0.00000000000E+00 -0.00000000000E+00 -0.17271491624E+04  0.17271491624E+04  0.25500000000E-02 0.  1.
    8880022    1    1    2    0    0  0.66392532765E+03 -0.52733863712E+03 -0.14128429230E+04  0.16548110639E+04  0.15294330000E+03 0.  0.
    8880022    1    1    2    0    0 -0.66392532765E+03  0.52733863712E+03  0.76657101847E+03  0.11532153564E+04  0.15294330000E+03 0.  0.
<mgrwt>
<rscale>  0 0.86155356E+03</rscale>
<asrwt>0</asrwt>
<pdfrwt beam="1">  1        2 0.16628881E+00 0.86155356E+03</pdfrwt>
<pdfrwt beam="2">  1       -2 0.26571525E+00 0.86155356E+03</pdfrwt>
<totfact> 0.11747560E+00</totfact>
</mgrwt>
</event>
<event>
 4    1  0.1701380E-008  0.1092901E+04  0.7818608E-02  0.9212139E-01
         -2   -1    0    0    0  501 -0.00000000000E+00  0.00000000000E+00  0.10822943840E+04  0.10822943840E+04  0.25500000000E-02 0.  1.
          2   -1    0    0  501    0  0.00000000000E+00 -0.00000000000E+00 -0.23530315709E+04  0.23530315709E+04  0.25500000000E-02 0. -1.
    8880022    1    1    2    0    0  0.76835378072E+03  0.76201890543E+03 -0.18870056202E+04  0.21806471994E+04  0.15294330000E+03 0.  0.
    8880022    1    1    2    0    0 -0.76835378072E+03 -0.76201890543E+03  0.61626843330E+03  0.12546787555E+04  0.15294330000E+03 0.  0.
<mgrwt>
<rscale>  0 0.10929007E+04</rscale>
<asrwt>0</asrwt>
<pdfrwt beam="1">  1        2 0.36200486E+00 0.10929007E+04</pdfrwt>
<pdfrwt beam="2">  1       -2 0.16650683E+00 0.10929007E+04</pdfrwt>
<totfact> 0.94460290E-01</totfact>
</mgrwt>
</event>
<event>
 4    1  0.1701380E-008  0.1848831E+04  0.7818608E-02  0.8680754E-01
          2   -1    0    0  501    0  0.00000000000E+00  0.00000000000E+00  0.30332947239E+04  0.30332947239E+04  0.25500000000E-02 0. -1.
         -2   -1    0    0    0  501 -0.00000000000E+00 -0.00000000000E+00 -0.14122368935E+04  0.14122368935E+04  0.25500000000E-02 0.  1.
    8880022    1    1    2    0    0  0.12806308006E+03  0.18380379329E+04 -0.18861967286E+03  0.18584274614E+04  0.15294330000E+03 0.  0.
    8880022    1    1    2    0    0 -0.12806308006E+03 -0.18380379329E+04  0.18096775033E+04  0.25871041560E+04  0.15294330000E+03 0.  0.
<mgrwt>
<rscale>  0 0.18488308E+04</rscale>
<asrwt>0</asrwt>
<pdfrwt beam="1">  1        2 0.46666072E+00 0.18488308E+04</pdfrwt>
<pdfrwt beam="2">  1       -2 0.21726722E+00 0.18488308E+04</pdfrwt>
<totfact> 0.15442716E-01</totfact>
</mgrwt>
</event>
<event>
 4    1  0.1701380E-008  0.9936767E+03  0.7818608E-02  0.9315507E-01
         -2   -1    0    0    0  501 -0.00000000000E+00  0.00000000000E+00  0.67282489201E+03  0.67282489202E+03  0.25500000000E-02 0.  1.
          2   -1    0    0  501    0  0.00000000000E+00 -0.00000000000E+00 -0.29633133922E+04  0.29633133922E+04  0.25500000000E-02 0. -1.
    8880022    1    1    2    0    0  0.97349878002E+03  0.12767878704E+03  0.14643706572E+03  0.10044088881E+04  0.15294330000E+03 0.  0.
    8880022    1    1    2    0    0 -0.97349878002E+03 -0.12767878704E+03 -0.24369255659E+04  0.26317293960E+04  0.15294330000E+03 0.  0.
<mgrwt>
<rscale>  0 0.99367671E+03</rscale>
<asrwt>0</asrwt>
<pdfrwt beam="1">  1        2 0.45589436E+00 0.99367671E+03</pdfrwt>
<pdfrwt beam="2">  1       -2 0.10351152E+00 0.99367671E+03</pdfrwt>
<totfact> 0.14234319E+00</totfact>
</mgrwt>
</event>
<event>
 4    1  0.1701380E-008  0.7131413E+03  0.7818608E-02  0.9695019E-01
          2   -1    0    0  501    0  0.00000000000E+00  0.00000000000E+00  0.79288462114E+03  0.79288462114E+03  0.25500000000E-02 0. -1.
         -2   -1    0    0    0  501 -0.00000000000E+00 -0.00000000000E+00 -0.11133604152E+04  0.11133604152E+04  0.25500000000E-02 0.  1.
    8880022    1    1    2    0    0 -0.54316355552E+03  0.43606452514E+03 -0.78078576454E+03  0.10574483350E+04  0.15294330000E+03 0.  0.
    8880022    1    1    2    0    0  0.54316355552E+03 -0.43606452514E+03  0.46030997052E+03  0.84879670128E+03  0.15294330000E+03 0.  0.
<mgrwt>
<rscale>  0 0.71314134E+03</rscale>
<asrwt>0</asrwt>
<pdfrwt beam="1">  1        2 0.12198225E+00 0.71314134E+03</pdfrwt>
<pdfrwt beam="2">  1       -2 0.17128622E+00 0.71314134E+03</pdfrwt>
<totfact> 0.74396330E+00</totfact>
</mgrwt>
</event>
<event>
 4    1  0.1701380E-008  0.9234117E+03  0.7818608E-02  0.9396780E-01
          2   -1    0    0  501    0  0.00000000000E+00  0.00000000000E+00  0.17249339678E+04  0.17249339678E+04  0.25500000000E-02 0. -1.
         -2   -1    0    0    0  501 -0.00000000000E+00 -0.00000000000E+00 -0.58348920922E+03  0.58348920922E+03  0.25500000000E-02 0.  1.
    8880022    1    1    2    0    0  0.78516994160E+03  0.46130864506E+03  0.10219010106E+04  0.13773056421E+04  0.15294330000E+03 0.  0.
    8880022    1    1    2    0    0 -0.78516994160E+03 -0.46130864506E+03  0.11954374797E+03  0.93111753495E+03  0.15294330000E+03 0.  0.
<mgrwt>
<rscale>  0 0.92341169E+03</rscale>
<asrwt>0</asrwt>
<pdfrwt beam="1">  1        2 0.26537445E+00 0.92341169E+03</pdfrwt>
<pdfrwt beam="2">  1       -2 0.89767572E-01 0.92341169E+03</pdfrwt>
<totfact> 0.10165048E+01</totfact>
</mgrwt>
</event>
<event>
 4    1  0.1701380E-008  0.3248926E+03  0.7818608E-02  0.1073419E+00
          2   -1    0    0  501    0  0.00000000000E+00  0.00000000000E+00  0.64199261751E+03  0.64199261751E+03  0.25500000000E-02 0. -1.
         -2   -1    0    0    0  501 -0.00000000000E+00 -0.00000000000E+00 -0.21312947540E+03  0.21312947541E+03  0.25500000000E-02 0.  1.
    8880022    1    1    2    0    0  0.15935747865E+03 -0.23826192369E+03  0.10026535268E+02  0.32504728073E+03  0.15294330000E+03 0.  0.
    8880022    1    1    2    0    0 -0.15935747865E+03  0.23826192369E+03  0.41883660684E+03  0.53007481220E+03  0.15294330000E+03 0.  0.
<mgrwt>
<rscale>  0 0.32489260E+03</rscale>
<asrwt>0</asrwt>
<pdfrwt beam="1">  1        2 0.98768094E-01 0.32489260E+03</pdfrwt>
<pdfrwt beam="2">  1       -2 0.32789150E-01 0.32489260E+03</pdfrwt>
<totfact> 0.40552240E+02</totfact>
</mgrwt>
</event>
<event>
 4    1  0.1868807E-008  0.9843583E+03  0.7818608E-02  0.9325869E-01
         -2   -1    0    0    0  501 -0.00000000000E+00  0.00000000000E+00  0.11767030254E+04  0.11767030254E+04  0.25500000000E-02 0.  1.
          2   -1    0    0  501    0  0.00000000000E+00 -0.00000000000E+00 -0.27140143130E+04  0.27140143130E+04  0.25500000000E-02 0. -1.
    8880022    1    1    2    0    0  0.41106346619E+02  0.97153481446E+03  0.85498098624E+03  0.13038227515E+04  0.15294330000E+03 0.  0.
    8880022    1    1    2    0    0 -0.41106346619E+02 -0.97153481446E+03 -0.23922922738E+04  0.25868945869E+04  0.15294330000E+03 0.  0.
<mgrwt>
<rscale>  0 0.98435831E+03</rscale>
<asrwt>0</asrwt>
<pdfrwt beam="1">  1        2 0.41754066E+00 0.98435831E+03</pdfrwt>
<pdfrwt beam="2">  1       -2 0.18103123E+00 0.98435831E+03</pdfrwt>
<totfact> 0.47070233E-01</totfact>
</mgrwt>
</event>
<event>
 4    1  0.1701380E-008  0.1193509E+04  0.7818608E-02  0.9118557E-01
          2   -1    0    0  501    0  0.00000000000E+00  0.00000000000E+00  0.15177161248E+04  0.15177161248E+04  0.25500000000E-02 0. -1.
         -2   -1    0    0    0  501 -0.00000000000E+00 -0.00000000000E+00 -0.19928473747E+04  0.19928473747E+04  0.25500000000E-02 0.  1.
    8880022    1    1    2    0    0  0.11767717992E+04 -0.12759127297E+03 -0.15142688167E+04  0.19280749732E+04  0.15294330000E+03 0.  0.
    8880022    1    1    2    0    0 -0.11767717992E+04  0.12759127297E+03  0.10391375668E+04  0.15824885263E+04  0.15294330000E+03 0.  0.
<mgrwt>
<rscale>  0 0.11935087E+04</rscale>
<asrwt>0</asrwt>
<pdfrwt beam="1">  1        2 0.23349479E+00 0.11935087E+04</pdfrwt>
<pdfrwt beam="2">  1       -2 0.30659191E+00 0.11935087E+04</pdfrwt>
<totfact> 0.35100081E-01</totfact>
</mgrwt>
</event>
<event>
 4    1  0.1701380E-008  0.9329637E+03  0.7818608E-02  0.9385288E-01
         -2   -1    0    0    0  501 -0.00000000000E+00  0.00000000000E+00  0.96962852820E+03  0.96962852820E+03  0.25500000000E-02 0.  1.
          2   -1    0    0  501    0  0.00000000000E+00 -0.00000000000E+00 -0.13235499735E+04  0.13235499735E+04  0.25500000000E-02 0. -1.
    8880022    1    1    2    0    0 -0.36073153147E+02  0.91963487880E+03 -0.82735022569E+03  0.12469681759E+04  0.15294330000E+03 0.  0.
    8880022    1    1    2    0    0  0.36073153147E+02 -0.91963487880E+03  0.47342878042E+03  0.10462103258E+04  0.15294330000E+03 0.  1.
<mgrwt>
<rscale>  0 0.93296368E+03</rscale>
<asrwt>0</asrwt>
<pdfrwt beam="1">  1        2 0.20362307E+00 0.93296368E+03</pdfrwt>
<pdfrwt beam="2">  1       -2 0.14917362E+00 0.93296368E+03</pdfrwt>
<totfact> 0.48663668E+00</totfact>
</mgrwt>
</event>
<event>
 4    1  0.1701380E-008  0.1172182E+04  0.7818608E-02  0.9137560E-01
         -2   -1    0    0    0  501 -0.00000000000E+00  0.00000000000E+00  0.91358566914E+03  0.91358566914E+03  0.25500000000E-02 0.  1.
          2   -1    0    0  501    0  0.00000000000E+00 -0.00000000000E+00 -0.22812902170E+04  0.22812902170E+04  0.25500000000E-02 0. -1.
    8880022    1    1    2    0    0 -0.10443042160E+04  0.50994963023E+03 -0.16163157556E+04  0.19966191915E+04  0.15294330000E+03 0.  0.
    8880022    1    1    2    0    0  0.10443042160E+04 -0.50994963023E+03  0.24861120771E+03  0.11982566947E+04  0.15294330000E+03 0.  0.
<mgrwt>
<rscale>  0 0.11721824E+04</rscale>
<asrwt>0</asrwt>
<pdfrwt beam="1">  1        2 0.35096772E+00 0.11721824E+04</pdfrwt>
<pdfrwt beam="2">  1       -2 0.14055164E+00 0.11721824E+04</pdfrwt>
<totfact> 0.16178361E+00</totfact>
</mgrwt>
</event>
<event>
 4    1  0.1701380E-008  0.9708482E+03  0.7818608E-02  0.9341109E-01
          2   -1    0    0  501    0  0.00000000000E+00  0.00000000000E+00  0.30373654085E+04  0.30373654085E+04  0.25500000000E-02 0. -1.
         -2   -1    0    0    0  501 -0.00000000000E+00 -0.00000000000E+00 -0.13955196294E+04  0.13955196294E+04  0.25500000000E-02 0.  1.
    8880022    1    1    2    0    0 -0.92365405924E+02  0.95426578534E+03  0.27754599555E+04  0.29403612320E+04  0.15294330000E+03 0.  0.
    8880022    1    1    2    0    0  0.92365405924E+02 -0.95426578534E+03 -0.11336141763E+04  0.14925238059E+04  0.15294330000E+03 0.  0.
<mgrwt>
<rscale>  0 0.97084819E+03</rscale>
<asrwt>0</asrwt>
<pdfrwt beam="1">  1        2 0.46728698E+00 0.97084819E+03</pdfrwt>
<pdfrwt beam="2">  1       -2 0.21469533E+00 0.97084819E+03</pdfrwt>
<totfact> 0.18071573E-01</totfact>
</mgrwt>
</event>
<event>
 4    1  0.1701380E-008  0.8628453E+03  0.7818608E-02  0.9473257E-01
          2   -1    0    0  501    0  0.00000000000E+00  0.00000000000E+00  0.52185576322E+04  0.52185576322E+04  0.25500000000E-02 0. -1.
         -2   -1    0    0    0  501 -0.00000000000E+00 -0.00000000000E+00 -0.25965948047E+03  0.25965948048E+03  0.25500000000E-02 0.  1.
    8880022    1    1    2    0    0 -0.69636498036E+03 -0.48598987899E+03  0.43180653181E+04  0.44034293560E+04  0.15294330000E+03 0.  0.
    8880022    1    1    2    0    0  0.69636498036E+03  0.48598987899E+03  0.64083283360E+03  0.10747877567E+04  0.15294330000E+03 0.  0.
<mgrwt>
<rscale>  0 0.86284529E+03</rscale>
<asrwt>0</asrwt>
<pdfrwt beam="1">  1        2 0.80285503E+00 0.86284529E+03</pdfrwt>
<pdfrwt beam="2">  1       -2 0.39947612E-01 0.86284529E+03</pdfrwt>
<totfact> 0.11934844E-01</totfact>
</mgrwt>
</event>
<event>
 4    1  0.1701380E-008  0.8864999E+03  0.7818608E-02  0.9442616E-01
         -2   -1    0    0    0  501 -0.00000000000E+00  0.00000000000E+00  0.12975699072E+04  0.12975699072E+04  0.25500000000E-02 0.  1.
          2   -1    0    0  501    0  0.00000000000E+00 -0.00000000000E+00 -0.13768909625E+04  0.13768909625E+04  0.25500000000E-02 0. -1.
    8880022    1    1    2    0    0 -0.75584886440E+03 -0.43724464349E+03 -0.10404658523E+04  0.13669130283E+04  0.15294330000E+03 0.  0.
    8880022    1    1    2    0    0  0.75584886440E+03  0.43724464349E+03  0.96114479698E+03  0.13075478415E+04  0.15294330000E+03 0.  0.
<mgrwt>
<rscale>  0 0.88649988E+03</rscale>
<asrwt>0</asrwt>
<pdfrwt beam="1">  1        2 0.21182938E+00 0.88649988E+03</pdfrwt>
<pdfrwt beam="2">  1       -2 0.19962614E+00 0.88649988E+03</pdfrwt>
<totfact> 0.20118625E+00</totfact>
</mgrwt>
</event>
<event>
 4    1  0.1701380E-008  0.1229072E+04  0.7818608E-02  0.9087784E-01
          2   -1    0    0  501    0  0.00000000000E+00  0.00000000000E+00  0.16198942874E+04  0.16198942874E+04  0.25500000000E-02 0. -1.
         -2   -1    0    0    0  501 -0.00000000000E+00 -0.00000000000E+00 -0.11057867839E+04  0.11057867839E+04  0.25500000000E-02 0.  1.
    8880022    1    1    2    0    0 -0.30066137974E+03  0.11818753389E+04 -0.28238280640E+03  0.12610940823E+04  0.15294330000E+03 0.  0.
    8880022    1    1    2    0    0  0.30066137974E+03 -0.11818753389E+04  0.79649030990E+03  0.14645869891E+04  0.15294330000E+03 0.  0.
<mgrwt>
<rscale>  0 0.12290721E+04</rscale>
<asrwt>0</asrwt>
<pdfrwt beam="1">  1        2 0.24921451E+00 0.12290721E+04</pdfrwt>
<pdfrwt beam="2">  1       -2 0.17012104E+00 0.12290721E+04</pdfrwt>
<totfact> 0.22377671E+00</totfact>
</mgrwt>
</event>
<event>
 4    1  0.1701380E-008  0.1513496E+04  0.7818608E-02  0.8875527E-01
          2   -1    0    0  501    0  0.00000000000E+00  0.00000000000E+00  0.19412044767E+04  0.19412044768E+04  0.25500000000E-02 0. -1.
         -2   -1    0    0    0  501 -0.00000000000E+00 -0.00000000000E+00 -0.16549429381E+04  0.16549429381E+04  0.25500000000E-02 0.  1.
    8880022    1    1    2    0    0 -0.13575051254E+03  0.14996170282E+04  0.11063496024E+04  0.18747481241E+04  0.15294330000E+03 0.  0.
    8880022    1    1    2    0    0  0.13575051254E+03 -0.14996170282E+04 -0.82008806373E+03  0.17213992908E+04  0.15294330000E+03 0.  0.
<mgrwt>
<rscale>  0 0.15134963E+04</rscale>
<asrwt>0</asrwt>
<pdfrwt beam="1">  1        2 0.29864684E+00 0.15134963E+04</pdfrwt>
<pdfrwt beam="2">  1       -2 0.25460661E+00 0.15134963E+04</pdfrwt>
<totfact> 0.40606962E-01</totfact>
</mgrwt>
</event>
<event>
 4    1  0.1701380E-008  0.5097891E+03  0.7818608E-02  0.1011255E+00
         -2   -1    0    0    0  501 -0.00000000000E+00  0.00000000000E+00  0.51072548235E+03  0.51072548236E+03  0.25500000000E-02 0.  1.
          2   -1    0    0  501    0  0.00000000000E+00 -0.00000000000E+00 -0.15334006078E+04  0.15334006078E+04  0.25500000000E-02 0. -1.
    8880022    1    1    2    0    0 -0.41090314953E+03  0.26009966033E+03  0.32410318818E+03  0.60409251046E+03  0.15294330000E+03 0.  0.
    8880022    1    1    2    0    0  0.41090314953E+03 -0.26009966033E+03 -0.13467783136E+04  0.14400335797E+04  0.15294330000E+03 0. -1.
<mgrwt>
<rscale>  0 0.50978906E+03</rscale>
<asrwt>0</asrwt>
<pdfrwt beam="1">  1        2 0.23590778E+00 0.50978906E+03</pdfrwt>
<pdfrwt beam="2">  1       -2 0.78573152E-01 0.50978906E+03</pdfrwt>
<totfact> 0.18594837E+01</totfact>
</mgrwt>
</event>
<event>
 4    1  0.1701380E-008  0.9713663E+03  0.7818608E-02  0.9340519E-01
          2   -1    0    0  501    0  0.00000000000E+00  0.00000000000E+00  0.27371458982E+04  0.27371458982E+04  0.25500000000E-02 0. -1.
         -2   -1    0    0    0  501 -0.00000000000E+00 -0.00000000000E+00 -0.87660693466E+03  0.87660693467E+03  0.25500000000E-02 0.  1.
    8880022    1    1    2    0    0  0.52237052374E+02 -0.95782679237E+03 -0.47718748078E+03  0.10822478545E+04  0.15294330000E+03 0.  0.
    8880022    1    1    2    0    0 -0.52237052374E+02  0.95782679237E+03  0.23377264443E+04  0.25315049783E+04  0.15294330000E+03 0.  0.
<mgrwt>
<rscale>  0 0.97136632E+03</rscale>
<asrwt>0</asrwt>
<pdfrwt beam="1">  1        2 0.42109937E+00 0.97136632E+03</pdfrwt>
<pdfrwt beam="2">  1       -2 0.13486261E+00 0.97136632E+03</pdfrwt>
<totfact> 0.10138658E+00</totfact>
</mgrwt>
</event>
<event>
 4    1  0.1701380E-008  0.4115497E+03  0.7818608E-02  0.1039852E+00
         -2   -1    0    0    0  501 -0.00000000000E+00  0.00000000000E+00  0.59179820553E+03  0.59179820553E+03  0.25500000000E-02 0.  1.
          2   -1    0    0  501    0  0.00000000000E+00 -0.00000000000E+00 -0.63740235799E+03  0.63740235800E+03  0.25500000000E-02 0. -1.
    8880022    1    1    2    0    0 -0.37173358699E+03  0.88292945261E+02  0.43340718814E+03  0.59767461685E+03  0.15294330000E+03 0.  0.
    8880022    1    1    2    0    0  0.37173358699E+03 -0.88292945261E+02 -0.47901134061E+03  0.63152594668E+03  0.15294330000E+03 0.  0.
<mgrwt>
<rscale>  0 0.41154970E+03</rscale>
<asrwt>0</asrwt>
<pdfrwt beam="1">  1        2 0.98061901E-01 0.41154970E+03</pdfrwt>
<pdfrwt beam="2">  1       -2 0.91045878E-01 0.41154970E+03</pdfrwt>
<totfact> 0.49587468E+01</totfact>
</mgrwt>
</event>
<event>
 4    1  0.1701380E-008  0.9061534E+03  0.7818608E-02  0.9417922E-01
          2   -1    0    0  501    0  0.00000000000E+00  0.00000000000E+00  0.38459718550E+04  0.38459718550E+04  0.25500000000E-02 0. -1.
         -2   -1    0    0    0  501 -0.00000000000E+00 -0.00000000000E+00 -0.28503310081E+03  0.28503310082E+03  0.25500000000E-02 0.  1.
    8880022    1    1    2    0    0 -0.12010094702E+03  0.88504129889E+03  0.74572664088E+03  0.11735511127E+04  0.15294330000E+03 0.  0.
    8880022    1    1    2    0    0  0.12010094702E+03 -0.88504129889E+03  0.28152121133E+04  0.29574538431E+04  0.15294330000E+03 0.  0.
<mgrwt>
<rscale>  0 0.90615340E+03</rscale>
<asrwt>0</asrwt>
<pdfrwt beam="1">  1        2 0.59168799E+00 0.90615340E+03</pdfrwt>
<pdfrwt beam="2">  1       -2 0.43851245E-01 0.90615340E+03</pdfrwt>
<totfact> 0.23819655E+00</totfact>
</mgrwt>
</event>
<event>
 4    1  0.1701380E-008  0.7538833E+03  0.7818608E-02  0.9629278E-01
          2   -1    0    0  501    0  0.00000000000E+00  0.00000000000E+00  0.19646858954E+04  0.19646858954E+04  0.25500000000E-02 0. -1.
         -2   -1    0    0    0  501 -0.00000000000E+00 -0.00000000000E+00 -0.51047959954E+03  0.51047959955E+03  0.25500000000E-02 0.  1.
    8880022    1    1    2    0    0 -0.73475139615E+03 -0.71335891371E+02  0.15417686900E+04  0.17162140805E+04  0.15294330000E+03 0.  0.
    8880022    1    1    2    0    0  0.73475139615E+03  0.71335891371E+02 -0.87562394209E+02  0.75895141441E+03  0.15294330000E+03 0.  0.
<mgrwt>
<rscale>  0 0.75388333E+03</rscale>
<asrwt>0</asrwt>
<pdfrwt beam="1">  1        2 0.30225937E+00 0.75388333E+03</pdfrwt>
<pdfrwt beam="2">  1       -2 0.78535323E-01 0.75388333E+03</pdfrwt>
<totfact> 0.10413823E+01</totfact>
</mgrwt>
</event>
<event>
 4    1  0.1701380E-008  0.1032536E+04  0.7818608E-02  0.9273563E-01
         -2   -1    0    0    0  501 -0.00000000000E+00  0.00000000000E+00  0.17116125302E+04  0.17116125302E+04  0.25500000000E-02 0.  1.
          2   -1    0    0  501    0  0.00000000000E+00 -0.00000000000E+00 -0.22579698569E+04  0.22579698569E+04  0.25500000000E-02 0. -1.
    8880022    1    1    2    0    0 -0.17859862775E+03  0.10054061173E+04  0.14158089330E+04  0.17523257455E+04  0.15294330000E+03 0.  0.
    8880022    1    1    2    0    0  0.17859862775E+03 -0.10054061173E+04 -0.19621662597E+04  0.22172566415E+04  0.15294330000E+03 0.  0.
<mgrwt>
<rscale>  0 0.10325360E+04</rscale>
<asrwt>0</asrwt>
<pdfrwt beam="1">  1        2 0.34737998E+00 0.10325360E+04</pdfrwt>
<pdfrwt beam="2">  1       -2 0.26332501E+00 0.10325360E+04</pdfrwt>
<totfact> 0.25571032E-01</totfact>
</mgrwt>
</event>
<event>
 4    1  0.1701380E-008  0.2404967E+04  0.7818608E-02  0.8437646E-01
         -2   -1    0    0    0  501 -0.00000000000E+00  0.00000000000E+00  0.22043824873E+04  0.22043824873E+04  0.25500000000E-02 0.  1.
          2   -1    0    0  501    0  0.00000000000E+00 -0.00000000000E+00 -0.39750844750E+04  0.39750844750E+04  0.25500000000E-02 0. -1.
    8880022    1    1    2    0    0  0.21498836128E+04 -0.10669928115E+04 -0.26867950821E+04  0.36059302094E+04  0.15294330000E+03 0.  0.
    8880022    1    1    2    0    0 -0.21498836128E+04  0.10669928115E+04  0.91609309441E+03  0.25735367530E+04  0.15294330000E+03 0.  0.
<mgrwt>
<rscale>  0 0.24049667E+04</rscale>
<asrwt>0</asrwt>
<pdfrwt beam="1">  1        2 0.61155146E+00 0.24049667E+04</pdfrwt>
<pdfrwt beam="2">  1       -2 0.33913577E+00 0.24049667E+04</pdfrwt>
<totfact> 0.55029875E-03</totfact>
</mgrwt>
</event>
<event>
 4    1  0.1701380E-008  0.8348300E+03  0.7818608E-02  0.9510927E-01
          2   -1    0    0  501    0  0.00000000000E+00  0.00000000000E+00  0.27177992828E+04  0.27177992828E+04  0.25500000000E-02 0. -1.
         -2   -1    0    0    0  501 -0.00000000000E+00 -0.00000000000E+00 -0.15978030327E+04  0.15978030327E+04  0.25500000000E-02 0.  1.
    8880022    1    1    2    0    0 -0.50233575294E+03 -0.64900553540E+03 -0.14170791622E+04  0.16447049579E+04  0.15294330000E+03 0.  0.
    8880022    1    1    2    0    0  0.50233575294E+03  0.64900553540E+03  0.25370754123E+04  0.26708973576E+04  0.15294330000E+03 0.  0.
<mgrwt>
<rscale>  0 0.83482995E+03</rscale>
<asrwt>0</asrwt>
<pdfrwt beam="1">  1        2 0.41812297E+00 0.83482995E+03</pdfrwt>
<pdfrwt beam="2">  1       -2 0.24581585E+00 0.83482995E+03</pdfrwt>
<totfact> 0.18592071E-01</totfact>
</mgrwt>
</event>
<event>
 4    1  0.1701380E-008  0.5849038E+03  0.7818608E-02  0.9937231E-01
          2   -1    0    0  501    0  0.00000000000E+00  0.00000000000E+00  0.38133683246E+04  0.38133683246E+04  0.25500000000E-02 0. -1.
         -2   -1    0    0    0  501 -0.00000000000E+00 -0.00000000000E+00 -0.49443865105E+03  0.49443865105E+03  0.25500000000E-02 0.  1.
    8880022    1    1    2    0    0 -0.52744488318E+03 -0.20130239487E+03  0.36081867901E+04  0.36552871740E+04  0.15294330000E+03 0.  0.
    8880022    1    1    2    0    0  0.52744488318E+03  0.20130239487E+03 -0.28925711661E+03  0.65251980162E+03  0.15294330000E+03 0.  0.
<mgrwt>
<rscale>  0 0.58490376E+03</rscale>
<asrwt>0</asrwt>
<pdfrwt beam="1">  1        2 0.58667206E+00 0.58490376E+03</pdfrwt>
<pdfrwt beam="2">  1       -2 0.76067483E-01 0.58490376E+03</pdfrwt>
<totfact> 0.85855723E-01</totfact>
</mgrwt>
</event>
<event>
 4    1  0.1701380E-008  0.1285316E+04  0.7818608E-02  0.9041291E-01
         -2   -1    0    0    0  501 -0.00000000000E+00  0.00000000000E+00  0.11888414286E+04  0.11888414286E+04  0.25500000000E-02 0.  1.
          2   -1    0    0  501    0  0.00000000000E+00 -0.00000000000E+00 -0.16523284637E+04  0.16523284637E+04  0.25500000000E-02 0. -1.
    8880022    1    1    2    0    0 -0.96045618618E+03  0.84033932663E+03  0.33469917873E+03  0.13281797554E+04  0.15294330000E+03 0.  0.
    8880022    1    1    2    0    0  0.96045618618E+03 -0.84033932663E+03 -0.79818621386E+03  0.15129901369E+04  0.15294330000E+03 0.  0.
<mgrwt>
<rscale>  0 0.12853163E+04</rscale>
<asrwt>0</asrwt>
<pdfrwt beam="1">  1        2 0.25420438E+00 0.12853163E+04</pdfrwt>
<pdfrwt beam="2">  1       -2 0.18289868E+00 0.12853163E+04</pdfrwt>
<totfact> 0.17362398E+00</totfact>
</mgrwt>
</event>
<event>
 4    1  0.1701380E-008  0.3862368E+03  0.7818608E-02  0.1048652E+00
         -2   -1    0    0    0  501 -0.00000000000E+00  0.00000000000E+00  0.56039736760E+03  0.56039736760E+03  0.25500000000E-02 0.  1.
          2   -1    0    0  501    0  0.00000000000E+00 -0.00000000000E+00 -0.50182851283E+03  0.50182851284E+03  0.25500000000E-02 0. -1.
    8880022    1    1    2    0    0 -0.35426054870E+03 -0.16931022776E+02  0.39321737774E+03  0.55117942185E+03  0.15294330000E+03 0.  0.
    8880022    1    1    2    0    0  0.35426054870E+03  0.16931022776E+02 -0.33464852297E+03  0.51104645859E+03  0.15294330000E+03 0.  0.
<mgrwt>
<rscale>  0 0.38623678E+03</rscale>
<asrwt>0</asrwt>
<pdfrwt beam="1">  1        2 0.77204387E-01 0.38623678E+03</pdfrwt>
<pdfrwt beam="2">  1       -2 0.86214979E-01 0.38623678E+03</pdfrwt>
<totfact> 0.74471624E+01</totfact>
</mgrwt>
</event>
<event>
 4    1  0.1701380E-008  0.1688723E+04  0.7818608E-02  0.8767822E-01
         -2   -1    0    0    0  501 -0.00000000000E+00  0.00000000000E+00  0.16554071484E+04  0.16554071484E+04  0.25500000000E-02 0.  1.
          2   -1    0    0  501    0  0.00000000000E+00 -0.00000000000E+00 -0.33880603840E+04  0.33880603840E+04  0.25500000000E-02 0. -1.
    8880022    1    1    2    0    0 -0.36291010882E+01 -0.16817787463E+04  0.90165042369E+03  0.19143557823E+04  0.15294330000E+03 0.  0.
    8880022    1    1    2    0    0  0.36291010882E+01  0.16817787463E+04 -0.26343036593E+04  0.31291117501E+04  0.15294330000E+03 0.  0.
<mgrwt>
<rscale>  0 0.16887228E+04</rscale>
<asrwt>0</asrwt>
<pdfrwt beam="1">  1        2 0.52124006E+00 0.16887228E+04</pdfrwt>
<pdfrwt beam="2">  1       -2 0.25467802E+00 0.16887228E+04</pdfrwt>
<totfact> 0.53790587E-02</totfact>
</mgrwt>
</event>
<event>
 4    1  0.1701380E-008  0.1197966E+04  0.7818608E-02  0.9114639E-01
          2   -1    0    0  501    0  0.00000000000E+00  0.00000000000E+00  0.38583520467E+04  0.38583520467E+04  0.25500000000E-02 0. -1.
         -2   -1    0    0    0  501 -0.00000000000E+00 -0.00000000000E+00 -0.72176317773E+03  0.72176317773E+03  0.25500000000E-02 0.  1.
    8880022    1    1    2    0    0  0.11702332659E+04  0.20563177105E+03 -0.25990176882E+02  0.11982476640E+04  0.15294330000E+03 0.  0.
    8880022    1    1    2    0    0 -0.11702332659E+04 -0.20563177105E+03  0.31625790459E+04  0.33818675604E+04  0.15294330000E+03 0.  0.
<mgrwt>
<rscale>  0 0.11979658E+04</rscale>
<asrwt>0</asrwt>
<pdfrwt beam="1">  1        2 0.59359262E+00 0.11979658E+04</pdfrwt>
<pdfrwt beam="2">  1       -2 0.11104049E+00 0.11979658E+04</pdfrwt>
<totfact> 0.28685172E-01</totfact>
</mgrwt>
</event>
<event>
 4    1  0.1701380E-008  0.1086684E+04  0.7818608E-02  0.9218269E-01
          2   -1    0    0  501    0  0.00000000000E+00  0.00000000000E+00  0.41525973025E+04  0.41525973025E+04  0.25500000000E-02 0. -1.
         -2   -1    0    0    0  501 -0.00000000000E+00 -0.00000000000E+00 -0.10077693503E+04  0.10077693503E+04  0.25500000000E-02 0.  1.
    8880022    1    1    2    0    0 -0.10430227094E+04 -0.26380623581E+03  0.37584559420E+04  0.39123998803E+04  0.15294330000E+03 0.  0.
    8880022    1    1    2    0    0  0.10430227094E+04  0.26380623581E+03 -0.61362798979E+03  0.12479667725E+04  0.15294330000E+03 0.  0.
<mgrwt>
<rscale>  0 0.10866838E+04</rscale>
<asrwt>0</asrwt>
<pdfrwt beam="1">  1        2 0.63886111E+00 0.10866838E+04</pdfrwt>
<pdfrwt beam="2">  1       -2 0.15504144E+00 0.10866838E+04</pdfrwt>
<totfact> 0.72501985E-02</totfact>
</mgrwt>
</event>
<event>
 4    1  0.1701380E-008  0.1082933E+04  0.7818608E-02  0.9221988E-01
          2   -1    0    0  501    0  0.00000000000E+00  0.00000000000E+00  0.20324886008E+04  0.20324886008E+04  0.25500000000E-02 0. -1.
         -2   -1    0    0    0  501 -0.00000000000E+00 -0.00000000000E+00 -0.90509102737E+03  0.90509102737E+03  0.25500000000E-02 0.  1.
    8880022    1    1    2    0    0  0.91695966095E+03 -0.55546085712E+03 -0.32062541067E+03  0.11293998807E+04  0.15294330000E+03 0.  0.
    8880022    1    1    2    0    0 -0.91695966095E+03  0.55546085712E+03  0.14480229841E+04  0.18081797475E+04  0.15294330000E+03 0.  0.
<mgrwt>
<rscale>  0 0.10829328E+04</rscale>
<asrwt>0</asrwt>
<pdfrwt beam="1">  1        2 0.31269055E+00 0.10829328E+04</pdfrwt>
<pdfrwt beam="2">  1       -2 0.13924477E+00 0.10829328E+04</pdfrwt>
<totfact> 0.23059645E+00</totfact>
</mgrwt>
</event>
<event>
 4    1  0.1701380E-008  0.1145984E+04  0.7818608E-02  0.9161496E-01
          2   -1    0    0  501    0  0.00000000000E+00  0.00000000000E+00  0.13077747148E+04  0.13077747148E+04  0.25500000000E-02 0. -1.
         -2   -1    0    0    0  501 -0.00000000000E+00 -0.00000000000E+00 -0.11153420911E+04  0.11153420911E+04  0.25500000000E-02 0.  1.
    8880022    1    1    2    0    0 -0.58471388312E+03 -0.97365197856E+03  0.47865382790E+03  0.12419298050E+04  0.15294330000E+03 0.  0.
    8880022    1    1    2    0    0  0.58471388312E+03  0.97365197856E+03 -0.28622120413E+03  0.11811870009E+04  0.15294330000E+03 0.  0.
<mgrwt>
<rscale>  0 0.11459844E+04</rscale>
<asrwt>0</asrwt>
<pdfrwt beam="1">  1        2 0.20119611E+00 0.11459844E+04</pdfrwt>
<pdfrwt beam="2">  1       -2 0.17159109E+00 0.11459844E+04</pdfrwt>
<totfact> 0.33167421E+00</totfact>
</mgrwt>
</event>
<event>
 4    1  0.1701380E-008  0.7271132E+03  0.7818608E-02  0.9671956E-01
         -2   -1    0    0    0  501 -0.00000000000E+00  0.00000000000E+00  0.25361634693E+03  0.25361634694E+03  0.25500000000E-02 0.  1.
          2   -1    0    0  501    0  0.00000000000E+00 -0.00000000000E+00 -0.24758249031E+04  0.24758249031E+04  0.25500000000E-02 0. -1.
    8880022    1    1    2    0    0 -0.24220412520E+03 -0.66831061624E+03 -0.56862114645E+03  0.92305123328E+03  0.15294330000E+03 0.  0.
    8880022    1    1    2    0    0  0.24220412520E+03  0.66831061624E+03 -0.16535874097E+04  0.18063900167E+04  0.15294330000E+03 0.  0.
<mgrwt>
<rscale>  0 0.72711318E+03</rscale>
<asrwt>0</asrwt>
<pdfrwt beam="1">  1        2 0.38089612E+00 0.72711318E+03</pdfrwt>
<pdfrwt beam="2">  1       -2 0.39017901E-01 0.72711318E+03</pdfrwt>
<totfact> 0.23391893E+01</totfact>
</mgrwt>
</event>
<event>
 4    1  0.1701380E-008  0.1178092E+04  0.7818608E-02  0.9132252E-01
          2   -1    0    0  501    0  0.00000000000E+00  0.00000000000E+00  0.28012045703E+04  0.28012045703E+04  0.25500000000E-02 0. -1.
         -2   -1    0    0    0  501 -0.00000000000E+00 -0.00000000000E+00 -0.49912371164E+03  0.49912371165E+03  0.25500000000E-02 0.  1.
    8880022    1    1    2    0    0  0.22323206793E+03 -0.11465933789E+04  0.12923103739E+04  0.17487042883E+04  0.15294330000E+03 0.  0.
    8880022    1    1    2    0    0 -0.22323206793E+03  0.11465933789E+04  0.10097704848E+04  0.15516239936E+04  0.15294330000E+03 0.  0.
<mgrwt>
<rscale>  0 0.11780919E+04</rscale>
<asrwt>0</asrwt>
<pdfrwt beam="1">  1        2 0.43095455E+00 0.11780919E+04</pdfrwt>
<pdfrwt beam="2">  1       -2 0.76788263E-01 0.11780919E+04</pdfrwt>
<totfact> 0.34749310E+00</totfact>
</mgrwt>
</event>
<event>
 4    1  0.1701380E-008  0.6262550E+03  0.7818608E-02  0.9852384E-01
         -2   -1    0    0    0  501 -0.00000000000E+00  0.00000000000E+00  0.64789312996E+03  0.64789312996E+03  0.25500000000E-02 0.  1.
          2   -1    0    0  501    0  0.00000000000E+00 -0.00000000000E+00 -0.25673093497E+04  0.25673093497E+04  0.25500000000E-02 0. -1.
    8880022    1    1    2    0    0  0.46994556583E+03  0.38464903057E+03  0.44564476153E+03  0.76863165304E+03  0.15294330000E+03 0.  0.
    8880022    1    1    2    0    0 -0.46994556583E+03 -0.38464903057E+03 -0.23650609813E+04  0.24465708267E+04  0.15294330000E+03 0.  0.
<mgrwt>
<rscale>  0 0.62625503E+03</rscale>
<asrwt>0</asrwt>
<pdfrwt beam="1">  1        2 0.39497066E+00 0.62625503E+03</pdfrwt>
<pdfrwt beam="2">  1       -2 0.99675867E-01 0.62625503E+03</pdfrwt>
<totfact> 0.28606024E+00</totfact>
</mgrwt>
</event>
<event>
 4    1  0.1701380E-008  0.8119048E+03  0.7818608E-02  0.9542944E-01
         -2   -1    0    0    0  501 -0.00000000000E+00  0.00000000000E+00  0.13798119727E+04  0.13798119727E+04  0.25500000000E-02 0.  1.
          2   -1    0    0  501    0  0.00000000000E+00 -0.00000000000E+00 -0.25572690996E+04  0.25572690996E+04  0.25500000000E-02 0. -1.
    8880022    1    1    2    0    0 -0.52721010164E+02  0.79562441794E+03  0.11864367329E+04  0.14376444253E+04  0.15294330000E+03 0.  0.
    8880022    1    1    2    0    0  0.52721010164E+02 -0.79562441794E+03 -0.23638938598E+04  0.24994366471E+04  0.15294330000E+03 0.  0.
<mgrwt>
<rscale>  0 0.81190478E+03</rscale>
<asrwt>0</asrwt>
<pdfrwt beam="1">  1        2 0.39342602E+00 0.81190478E+03</pdfrwt>
<pdfrwt beam="2">  1       -2 0.21227876E+00 0.81190478E+03</pdfrwt>
<totfact> 0.37374192E-01</totfact>
</mgrwt>
</event>
<event>
 4    1  0.1701380E-008  0.5972283E+03  0.7818608E-02  0.9911173E-01
          2   -1    0    0  501    0  0.00000000000E+00  0.00000000000E+00  0.15171513067E+04  0.15171513067E+04  0.25500000000E-02 0. -1.
         -2   -1    0    0    0  501 -0.00000000000E+00 -0.00000000000E+00 -0.81125650238E+03  0.81125650239E+03  0.25500000000E-02 0.  1.
    8880022    1    1    2    0    0  0.42846524857E+03  0.38692053961E+03  0.13340633845E+04  0.14616452169E+04  0.15294330000E+03 0.  0.
    8880022    1    1    2    0    0 -0.42846524857E+03 -0.38692053961E+03 -0.62816858014E+03  0.86676259223E+03  0.15294330000E+03 0.  0.
<mgrwt>
<rscale>  0 0.59722829E+03</rscale>
<asrwt>0</asrwt>
<pdfrwt beam="1">  1        2 0.23340789E+00 0.59722829E+03</pdfrwt>
<pdfrwt beam="2">  1       -2 0.12480869E+00 0.59722829E+03</pdfrwt>
<totfact> 0.62840902E+00</totfact>
</mgrwt>
</event>
<event>
 4    1  0.1701380E-008  0.5095135E+03  0.7818608E-02  0.1011325E+00
         -2   -1    0    0    0  501 -0.00000000000E+00  0.00000000000E+00  0.43257644647E+03  0.43257644648E+03  0.25500000000E-02 0.  1.
          2   -1    0    0  501    0  0.00000000000E+00 -0.00000000000E+00 -0.26147139837E+04  0.26147139837E+04  0.25500000000E-02 0. -1.
    8880022    1    1    2    0    0  0.41369880641E+03  0.25507972890E+03  0.24633938697E+03  0.56593914612E+03  0.15294330000E+03 0.  0.
    8880022    1    1    2    0    0 -0.41369880641E+03 -0.25507972890E+03 -0.24284769242E+04  0.24813512841E+04  0.15294330000E+03 0.  0.
<mgrwt>
<rscale>  0 0.50951352E+03</rscale>
<asrwt>0</asrwt>
<pdfrwt beam="1">  1        2 0.40226368E+00 0.50951352E+03</pdfrwt>
<pdfrwt beam="2">  1       -2 0.66550225E-01 0.50951352E+03</pdfrwt>
<totfact> 0.68662588E+00</totfact>
</mgrwt>
</event>
<event>
 4    1  0.1701380E-008  0.8297961E+03  0.7818608E-02  0.9517862E-01
         -2   -1    0    0    0  501 -0.00000000000E+00  0.00000000000E+00  0.27936276982E+03  0.27936276983E+03  0.25500000000E-02 0.  1.
          2   -1    0    0  501    0  0.00000000000E+00 -0.00000000000E+00 -0.26822022795E+04  0.26822022795E+04  0.25500000000E-02 0. -1.
    8880022    1    1    2    0    0  0.81406050697E+03 -0.49753083531E+02 -0.77980108503E+03  0.11387059601E+04  0.15294330000E+03 0.  0.
    8880022    1    1    2    0    0 -0.81406050697E+03  0.49753083531E+02 -0.16230384247E+04  0.18228590893E+04  0.15294330000E+03 0.  0.
<mgrwt>
<rscale>  0 0.82979608E+03</rscale>
<asrwt>0</asrwt>
<pdfrwt beam="1">  1        2 0.41264649E+00 0.82979608E+03</pdfrwt>
<pdfrwt beam="2">  1       -2 0.42978889E-01 0.82979608E+03</pdfrwt>
<totfact> 0.14513011E+01</totfact>
</mgrwt>
</event>
<event>
 4    1  0.1701380E-008  0.3852885E+03  0.7818608E-02  0.1048996E+00
          2   -1    0    0  501    0  0.00000000000E+00  0.00000000000E+00  0.54203794239E+03  0.54203794239E+03  0.25500000000E-02 0. -1.
         -2   -1    0    0    0  501 -0.00000000000E+00 -0.00000000000E+00 -0.32832454809E+03  0.32832454810E+03  0.25500000000E-02 0.  1.
    8880022    1    1    2    0    0  0.16897129418E+03 -0.31065133437E+03  0.28408820453E+03  0.47869960390E+03  0.15294330000E+03 0.  0.
    8880022    1    1    2    0    0 -0.16897129418E+03  0.31065133437E+03 -0.70374810228E+02  0.39166288659E+03  0.15294330000E+03 0.  0.
<mgrwt>
<rscale>  0 0.38528847E+03</rscale>
<asrwt>0</asrwt>
<pdfrwt beam="1">  1        2 0.83390452E-01 0.38528847E+03</pdfrwt>
<pdfrwt beam="2">  1       -2 0.50511470E-01 0.38528847E+03</pdfrwt>
<totfact> 0.21362088E+02</totfact>
</mgrwt>
</event>
<event>
 4    1  0.1701380E-008  0.5739766E+03  0.7818608E-02  0.9960917E-01
         -2   -1    0    0    0  501 -0.00000000000E+00  0.00000000000E+00  0.41575822877E+03  0.41575822877E+03  0.25500000000E-02 0.  1.
          2   -1    0    0  501    0  0.00000000000E+00 -0.00000000000E+00 -0.13662347618E+04  0.13662347618E+04  0.25500000000E-02 0. -1.
    8880022    1    1    2    0    0 -0.53224762181E+03 -0.15089712734E+03 -0.10526753319E+04  0.11989889413E+04  0.15294330000E+03 0.  0.
    8880022    1    1    2    0    0  0.53224762181E+03  0.15089712734E+03  0.10219879886E+03  0.58300404927E+03  0.15294330000E+03 0.  1.
<mgrwt>
<rscale>  0 0.57397659E+03</rscale>
<asrwt>0</asrwt>
<pdfrwt beam="1">  1        2 0.21018996E+00 0.57397659E+03</pdfrwt>
<pdfrwt beam="2">  1       -2 0.63962805E-01 0.57397659E+03</pdfrwt>
<totfact> 0.35668367E+01</totfact>
</mgrwt>
</event>
<event>
 4    1  0.1701380E-008  0.5284426E+03  0.7818608E-02  0.1006611E+00
          2   -1    0    0  501    0  0.00000000000E+00  0.00000000000E+00  0.41015719580E+03  0.41015719581E+03  0.25500000000E-02 0. -1.
         -2   -1    0    0    0  501 -0.00000000000E+00 -0.00000000000E+00 -0.90135414108E+03  0.90135414108E+03  0.25500000000E-02 0.  1.
    8880022    1    1    2    0    0  0.32673127593E+03 -0.38614326133E+03 -0.56994715049E+03  0.77723313897E+03  0.15294330000E+03 0. -1.
    8880022    1    1    2    0    0 -0.32673127593E+03  0.38614326133E+03  0.78750205207E+02  0.53427819792E+03  0.15294330000E+03 0.  1.
<mgrwt>
<rscale>  0 0.52844262E+03</rscale>
<asrwt>0</asrwt>
<pdfrwt beam="1">  1        2 0.63101107E-01 0.52844262E+03</pdfrwt>
<pdfrwt beam="2">  1       -2 0.13866987E+00 0.52844262E+03</pdfrwt>
<totfact> 0.29377073E+01</totfact>
</mgrwt>
</event>
<event>
 4    1  0.1701380E-008  0.4046659E+03  0.7818608E-02  0.1042176E+00
         -2   -1    0    0    0  501 -0.00000000000E+00  0.00000000000E+00  0.14456661682E+03  0.14456661685E+03  0.25500000000E-02 0.  1.
          2   -1    0    0  501    0  0.00000000000E+00 -0.00000000000E+00 -0.20478041992E+04  0.20478041992E+04  0.25500000000E-02 0. -1.
    8880022    1    1    2    0    0  0.87543416214E+01 -0.37454800512E+03 -0.21884709435E+03  0.46005276910E+03  0.15294330000E+03 0.  0.
    8880022    1    1    2    0    0 -0.87543416214E+01  0.37454800512E+03 -0.16843904880E+04  0.17323180470E+04  0.15294330000E+03 0.  0.
<mgrwt>
<rscale>  0 0.40466591E+03</rscale>
<asrwt>0</asrwt>
<pdfrwt beam="1">  1        2 0.31504678E+00 0.40466591E+03</pdfrwt>
<pdfrwt beam="2">  1       -2 0.22241019E-01 0.40466591E+03</pdfrwt>
<totfact> 0.11969183E+02</totfact>
</mgrwt>
</event>
<event>
 4    1  0.1701380E-008  0.7553932E+03  0.7818608E-02  0.9626927E-01
         -2   -1    0    0    0  501 -0.00000000000E+00  0.00000000000E+00  0.11080349790E+04  0.11080349790E+04  0.25500000000E-02 0.  1.
          2   -1    0    0  501    0  0.00000000000E+00 -0.00000000000E+00 -0.13797832053E+04  0.13797832053E+04  0.25500000000E-02 0. -1.
    8880022    1    1    2    0    0 -0.60907880767E+03  0.41982170693E+03  0.84891030224E+03  0.11363395680E+04  0.15294330000E+03 0.  0.
    8880022    1    1    2    0    0  0.60907880767E+03 -0.41982170693E+03 -0.11206585285E+04  0.13514786162E+04  0.15294330000E+03 0.  0.
<mgrwt>
<rscale>  0 0.75539322E+03</rscale>
<asrwt>0</asrwt>
<pdfrwt beam="1">  1        2 0.21227434E+00 0.75539322E+03</pdfrwt>
<pdfrwt beam="2">  1       -2 0.17046692E+00 0.75539322E+03</pdfrwt>
<totfact> 0.32231057E+00</totfact>
</mgrwt>
</event>
<event>
 4    1  0.1701380E-008  0.9030612E+03  0.7818608E-02  0.9421763E-01
          2   -1    0    0  501    0  0.00000000000E+00  0.00000000000E+00  0.34698558811E+04  0.34698558811E+04  0.25500000000E-02 0. -1.
         -2   -1    0    0    0  501 -0.00000000000E+00 -0.00000000000E+00 -0.54940957083E+03  0.54940957084E+03  0.25500000000E-02 0.  1.
    8880022    1    1    2    0    0  0.19722924419E+03 -0.86788740068E+03  0.29804061629E+04  0.31142158666E+04  0.15294330000E+03 0.  0.
    8880022    1    1    2    0    0 -0.19722924419E+03  0.86788740068E+03 -0.59959852594E+02  0.90504958536E+03  0.15294330000E+03 0.  0.
<mgrwt>
<rscale>  0 0.90306122E+03</rscale>
<asrwt>0</asrwt>
<pdfrwt beam="1">  1        2 0.53382399E+00 0.90306122E+03</pdfrwt>
<pdfrwt beam="2">  1       -2 0.84524548E-01 0.90306122E+03</pdfrwt>
<totfact> 0.10958551E+00</totfact>
</mgrwt>
</event>
<event>
 4    1  0.1701380E-008  0.1736355E+04  0.7818608E-02  0.8740897E-01
          2   -1    0    0  501    0  0.00000000000E+00  0.00000000000E+00  0.26352307000E+04  0.26352307000E+04  0.25500000000E-02 0. -1.
         -2   -1    0    0    0  501 -0.00000000000E+00 -0.00000000000E+00 -0.18761680964E+04  0.18761680964E+04  0.25500000000E-02 0.  1.
    8880022    1    1    2    0    0  0.11174208659E+04  0.13201917402E+04 -0.10295161277E+04  0.20186209978E+04  0.15294330000E+03 0.  0.
    8880022    1    1    2    0    0 -0.11174208659E+04 -0.13201917402E+04  0.17885787313E+04  0.24927777987E+04  0.15294330000E+03 0.  0.
<mgrwt>
<rscale>  0 0.17363546E+04</rscale>
<asrwt>0</asrwt>
<pdfrwt beam="1">  1        2 0.40542011E+00 0.17363546E+04</pdfrwt>
<pdfrwt beam="2">  1       -2 0.28864125E+00 0.17363546E+04</pdfrwt>
<totfact> 0.98638267E-02</totfact>
</mgrwt>
</event>
<event>
 4    1  0.1701380E-008  0.5564512E+03  0.7818608E-02  0.1000012E+00
         -2   -1    0    0    0  501 -0.00000000000E+00  0.00000000000E+00  0.17262345060E+03  0.17262345062E+03  0.25500000000E-02 0.  1.
          2   -1    0    0  501    0  0.00000000000E+00 -0.00000000000E+00 -0.27530709051E+04  0.27530709051E+04  0.25500000000E-02 0. -1.
    8880022    1    1    2    0    0  0.12865195660E+03 -0.51932161577E+03 -0.42669003254E+03  0.70121487679E+03  0.15294330000E+03 0.  0.
    8880022    1    1    2    0    0 -0.12865195660E+03  0.51932161577E+03 -0.21537574219E+04  0.22244794789E+04  0.15294330000E+03 0.  0.
<mgrwt>
<rscale>  0 0.55645118E+03</rscale>
<asrwt>0</asrwt>
<pdfrwt beam="1">  1        2 0.42354934E+00 0.55645118E+03</pdfrwt>
<pdfrwt beam="2">  1       -2 0.26557456E-01 0.55645118E+03</pdfrwt>
<totfact> 0.34390773E+01</totfact>
</mgrwt>
</event>
<event>
 4    1  0.1701380E-008  0.7032539E+03  0.7818608E-02  0.9711684E-01
          2   -1    0    0  501    0  0.00000000000E+00  0.00000000000E+00  0.14012398011E+04  0.14012398012E+04  0.25500000000E-02 0. -1.
         -2   -1    0    0    0  501 -0.00000000000E+00 -0.00000000000E+00 -0.60271741454E+03  0.60271741455E+03  0.25500000000E-02 0.  1.
    8880022    1    1    2    0    0  0.56466005988E+03  0.39029906294E+03 -0.24575476123E+03  0.74495731250E+03  0.15294330000E+03 0.  0.
    8880022    1    1    2    0    0 -0.56466005988E+03 -0.39029906294E+03  0.10442771478E+04  0.12589999032E+04  0.15294330000E+03 0.  0.
<mgrwt>
<rscale>  0 0.70325386E+03</rscale>
<asrwt>0</asrwt>
<pdfrwt beam="1">  1        2 0.21557535E+00 0.70325386E+03</pdfrwt>
<pdfrwt beam="2">  1       -2 0.92725757E-01 0.70325386E+03</pdfrwt>
<totfact> 0.14657365E+01</totfact>
</mgrwt>
</event>
<event>
 4    1  0.1701380E-008  0.1173699E+04  0.7818608E-02  0.9136194E-01
          2   -1    0    0  501    0  0.00000000000E+00  0.00000000000E+00  0.18559396137E+04  0.18559396137E+04  0.25500000000E-02 0. -1.
         -2   -1    0    0    0  501 -0.00000000000E+00 -0.00000000000E+00 -0.78277463327E+03  0.78277463328E+03  0.25500000000E-02 0.  1.
    8880022    1    1    2    0    0 -0.59876758021E+03 -0.99782510225E+03  0.83678149251E+03  0.14414480459E+04  0.15294330000E+03 0.  0.
    8880022    1    1    2    0    0  0.59876758021E+03  0.99782510225E+03  0.23638348787E+03  0.11972662010E+04  0.15294330000E+03 0.  0.
<mgrwt>
<rscale>  0 0.11736989E+04</rscale>
<asrwt>0</asrwt>
<pdfrwt beam="1">  1        2 0.28552917E+00 0.11736989E+04</pdfrwt>
<pdfrwt beam="2">  1       -2 0.12042687E+00 0.11736989E+04</pdfrwt>
<totfact> 0.41358451E+00</totfact>
</mgrwt>
</event>
<event>
 4    1  0.1701380E-008  0.1283564E+04  0.7818608E-02  0.9042701E-01
         -2   -1    0    0    0  501 -0.00000000000E+00  0.00000000000E+00  0.83305256895E+03  0.83305256895E+03  0.25500000000E-02 0.  1.
          2   -1    0    0  501    0  0.00000000000E+00 -0.00000000000E+00 -0.31706340011E+04  0.31706340011E+04  0.25500000000E-02 0. -1.
    8880022    1    1    2    0    0 -0.36637492553E+03 -0.12206206876E+04 -0.23966914341E+04  0.27187620220E+04  0.15294330000E+03 0.  0.
    8880022    1    1    2    0    0  0.36637492553E+03  0.12206206876E+04  0.59110001905E+02  0.12849245481E+04  0.15294330000E+03 0.  0.
<mgrwt>
<rscale>  0 0.12835642E+04</rscale>
<asrwt>0</asrwt>
<pdfrwt beam="1">  1        2 0.48778984E+00 0.12835642E+04</pdfrwt>
<pdfrwt beam="2">  1       -2 0.12816193E+00 0.12835642E+04</pdfrwt>
<totfact> 0.59702632E-01</totfact>
</mgrwt>
</event>
<event>
 4    1  0.1701380E-008  0.1331575E+04  0.7818608E-02  0.9004894E-01
         -2   -1    0    0    0  501 -0.00000000000E+00  0.00000000000E+00  0.16801416169E+04  0.16801416169E+04  0.25500000000E-02 0.  1.
          2   -1    0    0  501    0  0.00000000000E+00 -0.00000000000E+00 -0.19935335129E+04  0.19935335129E+04  0.25500000000E-02 0. -1.
    8880022    1    1    2    0    0 -0.72966108753E+03 -0.11033105137E+04  0.11034164186E+04  0.17293405790E+04  0.15294330000E+03 0.  0.
    8880022    1    1    2    0    0  0.72966108753E+03  0.11033105137E+04 -0.14168083146E+04  0.19443345509E+04  0.15294330000E+03 0.  0.
<mgrwt>
<rscale>  0 0.13315746E+04</rscale>
<asrwt>0</asrwt>
<pdfrwt beam="1">  1        2 0.30669746E+00 0.13315746E+04</pdfrwt>
<pdfrwt beam="2">  1       -2 0.25848333E+00 0.13315746E+04</pdfrwt>
<totfact> 0.36729144E-01</totfact>
</mgrwt>
</event>
<event>
 4    1  0.1701380E-008  0.4909471E+03  0.7818608E-02  0.1016169E+00
          2   -1    0    0  501    0  0.00000000000E+00  0.00000000000E+00  0.76669027977E+03  0.76669027977E+03  0.25500000000E-02 0. -1.
         -2   -1    0    0    0  501 -0.00000000000E+00 -0.00000000000E+00 -0.64573550742E+03  0.64573550742E+03  0.25500000000E-02 0.  1.
    8880022    1    1    2    0    0 -0.25156810566E+03  0.39287512401E+03 -0.44541485953E+03  0.66289020580E+03  0.15294330000E+03 0.  0.
    8880022    1    1    2    0    0  0.25156810566E+03 -0.39287512401E+03  0.56636963188E+03  0.74953558139E+03  0.15294330000E+03 0.  0.
<mgrwt>
<rscale>  0 0.49094707E+03</rscale>
<asrwt>0</asrwt>
<pdfrwt beam="1">  1        2 0.11795235E+00 0.49094707E+03</pdfrwt>
<pdfrwt beam="2">  1       -2 0.99343924E-01 0.49094707E+03</pdfrwt>
<totfact> 0.31863701E+01</totfact>
</mgrwt>
</event>
<event>
 4    1  0.1701380E-008  0.9188715E+03  0.7818608E-02  0.9402294E-01
         -2   -1    0    0    0  501 -0.00000000000E+00  0.00000000000E+00  0.95623852128E+03  0.95623852128E+03  0.25500000000E-02 0.  1.
          2   -1    0    0  501    0  0.00000000000E+00 -0.00000000000E+00 -0.13640442004E+04  0.13640442004E+04  0.25500000000E-02 0. -1.
    8880022    1    1    2    0    0 -0.10338935850E+03  0.90013549694E+03 -0.89288040880E+03  0.12812339169E+04  0.15294330000E+03 0.  0.
    8880022    1    1    2    0    0  0.10338935850E+03 -0.90013549694E+03  0.48507472971E+03  0.10390488048E+04  0.15294330000E+03 0.  0.
<mgrwt>
<rscale>  0 0.91887155E+03</rscale>
<asrwt>0</asrwt>
<pdfrwt beam="1">  1        2 0.20985295E+00 0.91887155E+03</pdfrwt>
<pdfrwt beam="2">  1       -2 0.14711362E+00 0.91887155E+03</pdfrwt>
<totfact> 0.47928064E+00</totfact>
</mgrwt>
</event>
<event>
 4    1  0.1701380E-008  0.1079589E+04  0.7818608E-02  0.9225318E-01
         -2   -1    0    0    0  501 -0.00000000000E+00  0.00000000000E+00  0.18976675421E+04  0.18976675421E+04  0.25500000000E-02 0.  1.
          2   -1    0    0  501    0  0.00000000000E+00 -0.00000000000E+00 -0.73210145447E+03  0.73210145448E+03  0.25500000000E-02 0. -1.
    8880022    1    1    2    0    0  0.18071887401E+03  0.10533093018E+04  0.55071682254E+02  0.10809922941E+04  0.15294330000E+03 0.  0.
    8880022    1    1    2    0    0 -0.18071887401E+03 -0.10533093018E+04  0.11104944054E+04  0.15487767025E+04  0.15294330000E+03 0.  0.
<mgrwt>
<rscale>  0 0.10795886E+04</rscale>
<asrwt>0</asrwt>
<pdfrwt beam="1">  1        2 0.11263099E+00 0.10795886E+04</pdfrwt>
<pdfrwt beam="2">  1       -2 0.29194885E+00 0.10795886E+04</pdfrwt>
<totfact> 0.13691955E+00</totfact>
</mgrwt>
</event>
<event>
 4    1  0.1701380E-008  0.9064265E+03  0.7818608E-02  0.9417583E-01
          2   -1    0    0  501    0  0.00000000000E+00  0.00000000000E+00  0.10330069027E+04  0.10330069027E+04  0.25500000000E-02 0. -1.
         -2   -1    0    0    0  501 -0.00000000000E+00 -0.00000000000E+00 -0.11565329946E+04  0.11565329946E+04  0.25500000000E-02 0.  1.
    8880022    1    1    2    0    0  0.15233833025E+03 -0.88034675591E+03  0.55002844539E+03  0.10602548379E+04  0.15294330000E+03 0.  0.
    8880022    1    1    2    0    0 -0.15233833025E+03  0.88034675591E+03 -0.67355453731E+03  0.11292850593E+04  0.15294330000E+03 0.  0.
<mgrwt>
<rscale>  0 0.90642652E+03</rscale>
<asrwt>0</asrwt>
<pdfrwt beam="1">  1        2 0.15892414E+00 0.90642652E+03</pdfrwt>
<pdfrwt beam="2">  1       -2 0.17792815E+00 0.90642652E+03</pdfrwt>
<totfact> 0.45039054E+00</totfact>
</mgrwt>
</event>
<event>
 4    1  0.1701380E-008  0.1169402E+04  0.7818608E-02  0.9140069E-01
          2   -1    0    0  501    0  0.00000000000E+00  0.00000000000E+00  0.22103205550E+04  0.22103205550E+04  0.25500000000E-02 0. -1.
         -2   -1    0    0    0  501 -0.00000000000E+00 -0.00000000000E+00 -0.11724061263E+04  0.11724061263E+04  0.25500000000E-02 0.  1.
    8880022    1    1    2    0    0 -0.38594308073E+03 -0.10932324759E+04  0.16813204394E+04  0.20480086379E+04  0.15294330000E+03 0.  0.
    8880022    1    1    2    0    0  0.38594308073E+03  0.10932324759E+04 -0.64340601071E+03  0.13347180434E+04  0.15294330000E+03 0.  0.
<mgrwt>
<rscale>  0 0.11694020E+04</rscale>
<asrwt>0</asrwt>
<pdfrwt beam="1">  1        2 0.34004932E+00 0.11694020E+04</pdfrwt>
<pdfrwt beam="2">  1       -2 0.18037017E+00 0.11694020E+04</pdfrwt>
<totfact> 0.89740301E-01</totfact>
</mgrwt>
</event>
<event>
 4    1  0.1701380E-008  0.5501833E+03  0.7818608E-02  0.1001452E+00
         -2   -1    0    0    0  501 -0.00000000000E+00  0.00000000000E+00  0.34198699046E+03  0.34198699047E+03  0.25500000000E-02 0.  1.
          2   -1    0    0  501    0  0.00000000000E+00 -0.00000000000E+00 -0.30448124163E+04  0.30448124163E+04  0.25500000000E-02 0. -1.
    8880022    1    1    2    0    0  0.46371052044E+03 -0.25354001789E+03 -0.27775933574E+04  0.28315590228E+04  0.15294330000E+03 0.  0.
    8880022    1    1    2    0    0 -0.46371052044E+03  0.25354001789E+03  0.74767931532E+02  0.55524038402E+03  0.15294330000E+03 0.  0.
<mgrwt>
<rscale>  0 0.55018328E+03</rscale>
<asrwt>0</asrwt>
<pdfrwt beam="1">  1        2 0.46843266E+00 0.55018328E+03</pdfrwt>
<pdfrwt beam="2">  1       -2 0.52613385E-01 0.55018328E+03</pdfrwt>
<totfact> 0.62060650E+00</totfact>
</mgrwt>
</event>
<event>
 4    1  0.1701380E-008  0.9921044E+03  0.7818608E-02  0.9317247E-01
         -2   -1    0    0    0  501 -0.00000000000E+00  0.00000000000E+00  0.15761602361E+04  0.15761602361E+04  0.25500000000E-02 0.  1.
          2   -1    0    0  501    0  0.00000000000E+00 -0.00000000000E+00 -0.19939468532E+04  0.19939468532E+04  0.25500000000E-02 0. -1.
    8880022    1    1    2    0    0 -0.67046392610E+03 -0.71509266388E+03 -0.16882441275E+04  0.19581724340E+04  0.15294330000E+03 0.  0.
    8880022    1    1    2    0    0  0.67046392610E+03  0.71509266388E+03  0.12704575104E+04  0.16119346553E+04  0.15294330000E+03 0.  0.
<mgrwt>
<rscale>  0 0.99210435E+03</rscale>
<asrwt>0</asrwt>
<pdfrwt beam="1">  1        2 0.30676106E+00 0.99210435E+03</pdfrwt>
<pdfrwt beam="2">  1       -2 0.24248619E+00 0.99210435E+03</pdfrwt>
<totfact> 0.48316707E-01</totfact>
</mgrwt>
</event>
<event>
 4    1  0.1701380E-008  0.6076328E+03  0.7818608E-02  0.9889696E-01
         -2   -1    0    0    0  501 -0.00000000000E+00  0.00000000000E+00  0.48245448810E+03  0.48245448811E+03  0.25500000000E-02 0.  1.
          2   -1    0    0  501    0  0.00000000000E+00 -0.00000000000E+00 -0.12070165722E+04  0.12070165722E+04  0.25500000000E-02 0. -1.
    8880022    1    1    2    0    0  0.17116733108E+02  0.58782049685E+03 -0.87330461131E+03  0.10638977941E+04  0.15294330000E+03 0.  0.
    8880022    1    1    2    0    0 -0.17116733108E+02 -0.58782049685E+03  0.14874252718E+03  0.62557326628E+03  0.15294330000E+03 0.  0.
<mgrwt>
<rscale>  0 0.60763276E+03</rscale>
<asrwt>0</asrwt>
<pdfrwt beam="1">  1        2 0.18569486E+00 0.60763276E+03</pdfrwt>
<pdfrwt beam="2">  1       -2 0.74223768E-01 0.60763276E+03</pdfrwt>
<totfact> 0.31741944E+01</totfact>
</mgrwt>
</event>
<event>
 4    1  0.1701380E-008  0.4197883E+03  0.7818608E-02  0.1037135E+00
          2   -1    0    0  501    0  0.00000000000E+00  0.00000000000E+00  0.74880550181E+03  0.74880550181E+03  0.25500000000E-02 0. -1.
         -2   -1    0    0    0  501 -0.00000000000E+00 -0.00000000000E+00 -0.50581466550E+03  0.50581466551E+03  0.25500000000E-02 0.  1.
    8880022    1    1    2    0    0  0.38363116854E+03 -0.75217704756E+02  0.58021959821E+03  0.71615432118E+03  0.15294330000E+03 0.  0.
    8880022    1    1    2    0    0 -0.38363116854E+03  0.75217704756E+02 -0.33722876190E+03  0.53846584614E+03  0.15294330000E+03 0.  0.
<mgrwt>
<rscale>  0 0.41978832E+03</rscale>
<asrwt>0</asrwt>
<pdfrwt beam="1">  1        2 0.11520085E+00 0.41978832E+03</pdfrwt>
<pdfrwt beam="2">  1       -2 0.77817641E-01 0.41978832E+03</pdfrwt>
<totfact> 0.57837885E+01</totfact>
</mgrwt>
</event>
<event>
 4    1  0.1701380E-008  0.4586730E+03  0.7818608E-02  0.1025167E+00
         -2   -1    0    0    0  501 -0.00000000000E+00  0.00000000000E+00  0.20590767294E+03  0.20590767296E+03  0.25500000000E-02 0.  1.
          2   -1    0    0  501    0  0.00000000000E+00 -0.00000000000E+00 -0.28236849019E+04  0.28236849019E+04  0.25500000000E-02 0. -1.
    8880022    1    1    2    0    0 -0.10838152363E+03 -0.41862004403E+03 -0.98795701588E+02  0.46919243344E+03  0.15294330000E+03 0.  0.
    8880022    1    1    2    0    0  0.10838152363E+03  0.41862004403E+03 -0.25189815274E+04  0.25604001414E+04  0.15294330000E+03 0. -1.
<mgrwt>
<rscale>  0 0.45867303E+03</rscale>
<asrwt>0</asrwt>
<pdfrwt beam="1">  1        2 0.43441303E+00 0.45867303E+03</pdfrwt>
<pdfrwt beam="2">  1       -2 0.31678106E-01 0.45867303E+03</pdfrwt>
<totfact> 0.23156550E+01</totfact>
</mgrwt>
</event>
<event>
 4    1  0.1701380E-008  0.3523063E+03  0.7818608E-02  0.1061672E+00
          2   -1    0    0  501    0  0.00000000000E+00  0.00000000000E+00  0.34039811767E+04  0.34039811767E+04  0.25500000000E-02 0. -1.
         -2   -1    0    0    0  501 -0.00000000000E+00 -0.00000000000E+00 -0.14307367086E+03  0.14307367088E+03  0.25500000000E-02 0.  1.
    8880022    1    1    2    0    0  0.31307490410E+03  0.52078789487E+02  0.99513799763E+02  0.36609117068E+03  0.15294330000E+03 0.  1.
    8880022    1    1    2    0    0 -0.31307490410E+03 -0.52078789487E+02  0.31613937061E+04  0.31809636769E+04  0.15294330000E+03 0.  0.
<mgrwt>
<rscale>  0 0.35230633E+03</rscale>
<asrwt>0</asrwt>
<pdfrwt beam="1">  1        2 0.52368938E+00 0.35230633E+03</pdfrwt>
<pdfrwt beam="2">  1       -2 0.22011335E-01 0.35230633E+03</pdfrwt>
<totfact> 0.20284591E+01</totfact>
</mgrwt>
</event>
<event>
 4    1  0.1701380E-008  0.6753706E+03  0.7818608E-02  0.9760304E-01
          2   -1    0    0  501    0  0.00000000000E+00  0.00000000000E+00  0.45875811586E+03  0.45875811587E+03  0.25500000000E-02 0. -1.
         -2   -1    0    0    0  501 -0.00000000000E+00 -0.00000000000E+00 -0.10416950566E+04  0.10416950566E+04  0.25500000000E-02 0.  1.
    8880022    1    1    2    0    0  0.34077220806E+03  0.56267944131E+03 -0.45155886402E+03  0.81242286535E+03  0.15294330000E+03 0.  0.
    8880022    1    1    2    0    0 -0.34077220806E+03 -0.56267944131E+03 -0.13137807671E+03  0.68803030711E+03  0.15294330000E+03 0.  0.
<mgrwt>
<rscale>  0 0.67537064E+03</rscale>
<asrwt>0</asrwt>
<pdfrwt beam="1">  1        2 0.70578172E-01 0.67537064E+03</pdfrwt>
<pdfrwt beam="2">  1       -2 0.16026078E+00 0.67537064E+03</pdfrwt>
<totfact> 0.17423175E+01</totfact>
</mgrwt>
</event>
<event>
 4    1  0.1701380E-008  0.1616479E+04  0.7818608E-02  0.8810488E-01
          2   -1    0    0  501    0  0.00000000000E+00  0.00000000000E+00  0.24874231578E+04  0.24874231578E+04  0.25500000000E-02 0. -1.
         -2   -1    0    0    0  501 -0.00000000000E+00 -0.00000000000E+00 -0.15067558885E+04  0.15067558885E+04  0.25500000000E-02 0.  1.
    8880022    1    1    2    0    0  0.13140572666E+04  0.92890675929E+03 -0.60863796459E+03  0.17272654956E+04  0.15294330000E+03 0.  0.
    8880022    1    1    2    0    0 -0.13140572666E+04 -0.92890675929E+03  0.15893052338E+04  0.22669135507E+04  0.15294330000E+03 0.  0.
<mgrwt>
<rscale>  0 0.16164795E+04</rscale>
<asrwt>0</asrwt>
<pdfrwt beam="1">  1        2 0.38268048E+00 0.16164795E+04</pdfrwt>
<pdfrwt beam="2">  1       -2 0.23180860E+00 0.16164795E+04</pdfrwt>
<totfact> 0.27301909E-01</totfact>
</mgrwt>
</event>
<event>
 4    1  0.1701380E-008  0.1173788E+04  0.7818608E-02  0.9136115E-01
         -2   -1    0    0    0  501 -0.00000000000E+00  0.00000000000E+00  0.73128393518E+03  0.73128393519E+03  0.25500000000E-02 0.  1.
          2   -1    0    0  501    0  0.00000000000E+00 -0.00000000000E+00 -0.24328291227E+04  0.24328291227E+04  0.25500000000E-02 0. -1.
    8880022    1    1    2    0    0  0.31862765594E+03  0.11193133580E+04 -0.16021598614E+04  0.19861253362E+04  0.15294330000E+03 0.  0.
    8880022    1    1    2    0    0 -0.31862765594E+03 -0.11193133580E+04 -0.99385326120E+02  0.11779877217E+04  0.15294330000E+03 0.  0.
<mgrwt>
<rscale>  0 0.11737877E+04</rscale>
<asrwt>0</asrwt>
<pdfrwt beam="1">  1        2 0.37428140E+00 0.11737877E+04</pdfrwt>
<pdfrwt beam="2">  1       -2 0.11250522E+00 0.11737877E+04</pdfrwt>
<totfact> 0.23299249E+00</totfact>
</mgrwt>
</event>
<event>
 4    1  0.1701380E-008  0.3160611E+03  0.7818608E-02  0.1077476E+00
         -2   -1    0    0    0  501 -0.00000000000E+00  0.00000000000E+00  0.30272780961E+03  0.30272780962E+03  0.25500000000E-02 0.  1.
          2   -1    0    0  501    0  0.00000000000E+00 -0.00000000000E+00 -0.11697502179E+04  0.11697502179E+04  0.25500000000E-02 0. -1.
    8880022    1    1    2    0    0  0.44354948595E+02 -0.27301215088E+03  0.19029838225E+03  0.36892834440E+03  0.15294330000E+03 0.  0.
    8880022    1    1    2    0    0 -0.44354948595E+02  0.27301215088E+03 -0.10573207906E+04  0.11035496832E+04  0.15294330000E+03 0. -1.
<mgrwt>
<rscale>  0 0.31606115E+03</rscale>
<asrwt>0</asrwt>
<pdfrwt beam="1">  1        2 0.17996157E+00 0.31606115E+03</pdfrwt>
<pdfrwt beam="2">  1       -2 0.46573510E-01 0.31606115E+03</pdfrwt>
<totfact> 0.92417410E+01</totfact>
</mgrwt>
</event>
<event>
 4    1  0.1701380E-008  0.4405431E+03  0.7818608E-02  0.1030580E+00
          2   -1    0    0  501    0  0.00000000000E+00  0.00000000000E+00  0.18459952799E+04  0.18459952799E+04  0.25500000000E-02 0. -1.
         -2   -1    0    0    0  501 -0.00000000000E+00 -0.00000000000E+00 -0.23030587422E+03  0.23030587424E+03  0.25500000000E-02 0.  1.
    8880022    1    1    2    0    0  0.36357542611E+03 -0.19621293809E+03  0.42495012729E+02  0.44258794230E+03  0.15294330000E+03 0.  0.
    8880022    1    1    2    0    0 -0.36357542611E+03  0.19621293809E+03  0.15731943930E+04  0.16337132119E+04  0.15294330000E+03 0.  0.
<mgrwt>
<rscale>  0 0.44054314E+03</rscale>
<asrwt>0</asrwt>
<pdfrwt beam="1">  1        2 0.28399928E+00 0.44054314E+03</pdfrwt>
<pdfrwt beam="2">  1       -2 0.35431672E-01 0.44054314E+03</pdfrwt>
<totfact> 0.65295098E+01</totfact>
</mgrwt>
</event>
<event>
 4    1  0.1701380E-008  0.2185730E+04  0.7818608E-02  0.8524391E-01
          2   -1    0    0  501    0  0.00000000000E+00  0.00000000000E+00  0.39297875939E+04  0.39297875939E+04  0.25500000000E-02 0. -1.
         -2   -1    0    0    0  501 -0.00000000000E+00 -0.00000000000E+00 -0.15462142106E+04  0.15462142106E+04  0.25500000000E-02 0.  1.
    8880022    1    1    2    0    0  0.94376764411E+03 -0.19655350429E+04  0.24576829925E+04  0.32890154630E+04  0.15294330000E+03 0.  0.
    8880022    1    1    2    0    0 -0.94376764411E+03  0.19655350429E+04 -0.74109609277E+02  0.21869863416E+04  0.15294330000E+03 0.  0.
<mgrwt>
<rscale>  0 0.21857303E+04</rscale>
<asrwt>0</asrwt>
<pdfrwt beam="1">  1        2 0.60458269E+00 0.21857303E+04</pdfrwt>
<pdfrwt beam="2">  1       -2 0.23787912E+00 0.21857303E+04</pdfrwt>
<totfact> 0.25964030E-02</totfact>
</mgrwt>
</event>
<event>
 4    1  0.1902283E-008  0.1024699E+04  0.7818608E-02  0.9281862E-01
         -2   -1    0    0    0  501 -0.00000000000E+00  0.00000000000E+00  0.16208262882E+04  0.16208262882E+04  0.25500000000E-02 0.  1.
          2   -1    0    0  501    0  0.00000000000E+00 -0.00000000000E+00 -0.22816759240E+04  0.22816759240E+04  0.25500000000E-02 0. -1.
    8880022    1    1    2    0    0  0.91401272881E+03 -0.43726209943E+03  0.13207483396E+04  0.16716414812E+04  0.15294330000E+03 0.  0.
    8880022    1    1    2    0    0 -0.91401272881E+03  0.43726209943E+03 -0.19815979754E+04  0.22308607310E+04  0.15294330000E+03 0.  0.
<mgrwt>
<rscale>  0 0.10246995E+04</rscale>
<asrwt>0</asrwt>
<pdfrwt beam="1">  1        2 0.35102706E+00 0.10246995E+04</pdfrwt>
<pdfrwt beam="2">  1       -2 0.24935789E+00 0.10246995E+04</pdfrwt>
<totfact> 0.30201931E-01</totfact>
</mgrwt>
</event>
<event>
 4    1  0.1701380E-008  0.1590862E+04  0.7818608E-02  0.8826182E-01
          2   -1    0    0  501    0  0.00000000000E+00  0.00000000000E+00  0.16998726078E+04  0.16998726078E+04  0.25500000000E-02 0. -1.
         -2   -1    0    0    0  501 -0.00000000000E+00 -0.00000000000E+00 -0.19601630193E+04  0.19601630193E+04  0.25500000000E-02 0.  1.
    8880022    1    1    2    0    0 -0.12116760518E+03 -0.15788502464E+04 -0.10275073231E+04  0.18938354314E+04  0.15294330000E+03 0.  0.
    8880022    1    1    2    0    0  0.12116760518E+03  0.15788502464E+04  0.76721691160E+03  0.17662001958E+04  0.15294330000E+03 0.  0.
<mgrwt>
<rscale>  0 0.15908618E+04</rscale>
<asrwt>0</asrwt>
<pdfrwt beam="1">  1        2 0.26151886E+00 0.15908618E+04</pdfrwt>
<pdfrwt beam="2">  1       -2 0.30156354E+00 0.15908618E+04</pdfrwt>
<totfact> 0.28363272E-01</totfact>
</mgrwt>
</event>
<event>
 4    1  0.1701380E-008  0.3136257E+03  0.7818608E-02  0.1078621E+00
          2   -1    0    0  501    0  0.00000000000E+00  0.00000000000E+00  0.65409426215E+03  0.65409426216E+03  0.25500000000E-02 0. -1.
         -2   -1    0    0    0  501 -0.00000000000E+00 -0.00000000000E+00 -0.20549212781E+03  0.20549212783E+03  0.25500000000E-02 0.  1.
    8880022    1    1    2    0    0  0.14853605871E+03 -0.23001403604E+03  0.44688577093E+03  0.54595600811E+03  0.15294330000E+03 0.  0.
    8880022    1    1    2    0    0 -0.14853605871E+03  0.23001403604E+03  0.17163634038E+01  0.31363038187E+03  0.15294330000E+03 0.  0.
<mgrwt>
<rscale>  0 0.31362569E+03</rscale>
<asrwt>0</asrwt>
<pdfrwt beam="1">  1        2 0.10062989E+00 0.31362569E+03</pdfrwt>
<pdfrwt beam="2">  1       -2 0.31614174E-01 0.31362569E+03</pdfrwt>
<totfact> 0.42451711E+02</totfact>
</mgrwt>
</event>
<event>
 4    1  0.1701380E-008  0.6058785E+03  0.7818608E-02  0.9893284E-01
         -2   -1    0    0    0  501 -0.00000000000E+00  0.00000000000E+00  0.18361416324E+03  0.18361416326E+03  0.25500000000E-02 0.  1.
          2   -1    0    0  501    0  0.00000000000E+00 -0.00000000000E+00 -0.40593467194E+04  0.40593467194E+04  0.25500000000E-02 0. -1.
    8880022    1    1    2    0    0 -0.51986661668E+03  0.27099046579E+03 -0.42654841647E+03  0.74096716276E+03  0.15294330000E+03 0.  0.
    8880022    1    1    2    0    0  0.51986661668E+03 -0.27099046579E+03 -0.34491841397E+04  0.35019937199E+04  0.15294330000E+03 0.  0.
<mgrwt>
<rscale>  0 0.60587852E+03</rscale>
<asrwt>0</asrwt>
<pdfrwt beam="1">  1        2 0.62451481E+00 0.60587852E+03</pdfrwt>
<pdfrwt beam="2">  1       -2 0.28248336E-01 0.60587852E+03</pdfrwt>
<totfact> 0.40303378E+00</totfact>
</mgrwt>
</event>
<event>
 4    1  0.1701380E-008  0.3063817E+03  0.7818608E-02  0.1082093E+00
         -2   -1    0    0    0  501 -0.00000000000E+00  0.00000000000E+00  0.12114804057E+03  0.12114804060E+03  0.25500000000E-02 0.  1.
          2   -1    0    0  501    0  0.00000000000E+00 -0.00000000000E+00 -0.94942259004E+03  0.94942259005E+03  0.25500000000E-02 0. -1.
    8880022    1    1    2    0    0 -0.38649086415E+02 -0.26264870652E+03 -0.64367928112E+03  0.71287640225E+03  0.15294330000E+03 0. -1.
    8880022    1    1    2    0    0  0.38649086415E+02  0.26264870652E+03 -0.18459526835E+03  0.35769422840E+03  0.15294330000E+03 0.  0.
<mgrwt>
<rscale>  0 0.30638170E+03</rscale>
<asrwt>0</asrwt>
<pdfrwt beam="1">  1        2 0.14606501E+00 0.30638170E+03</pdfrwt>
<pdfrwt beam="2">  1       -2 0.18638161E-01 0.30638170E+03</pdfrwt>
<totfact> 0.67117475E+02</totfact>
</mgrwt>
</event>
<event>
 4    1  0.1701380E-008  0.3709807E+03  0.7818608E-02  0.1054319E+00
          2   -1    0    0  501    0  0.00000000000E+00  0.00000000000E+00  0.39897678929E+04  0.39897678929E+04  0.25500000000E-02 0. -1.
         -2   -1    0    0    0  501 -0.00000000000E+00 -0.00000000000E+00 -0.28583452304E+03  0.28583452305E+03  0.25500000000E-02 0.  1.
    8880022    1    1    2    0    0 -0.58316879332E+02  0.33291769933E+03 -0.15269201773E+03  0.40117522136E+03  0.15294330000E+03 0.  0.
    8880022    1    1    2    0    0  0.58316879332E+02 -0.33291769933E+03  0.38566253876E+04  0.38744271946E+04  0.15294330000E+03 0.  0.
<mgrwt>
<rscale>  0 0.37098074E+03</rscale>
<asrwt>0</asrwt>
<pdfrwt beam="1">  1        2 0.61381047E+00 0.37098074E+03</pdfrwt>
<pdfrwt beam="2">  1       -2 0.43974540E-01 0.37098074E+03</pdfrwt>
<totfact> 0.21586089E+00</totfact>
</mgrwt>
</event>
<event>
 4    1  0.1701380E-008  0.9837447E+03  0.7818608E-02  0.9326555E-01
         -2   -1    0    0    0  501 -0.00000000000E+00  0.00000000000E+00  0.59508176529E+03  0.59508176530E+03  0.25500000000E-02 0.  1.
          2   -1    0    0  501    0  0.00000000000E+00 -0.00000000000E+00 -0.22195704596E+04  0.22195704596E+04  0.25500000000E-02 0. -1.
    8880022    1    1    2    0    0  0.95298558031E+03  0.19021167957E+03 -0.15398628798E+04  0.18272742928E+04  0.15294330000E+03 0. -1.
    8880022    1    1    2    0    0 -0.95298558031E+03 -0.19021167957E+03 -0.84625814466E+02  0.98737793211E+03  0.15294330000E+03 0.  0.
<mgrwt>
<rscale>  0 0.98374471E+03</rscale>
<asrwt>0</asrwt>
<pdfrwt beam="1">  1        2 0.34147237E+00 0.98374471E+03</pdfrwt>
<pdfrwt beam="2">  1       -2 0.91551042E-01 0.98374471E+03</pdfrwt>
<totfact> 0.51472021E+00</totfact>
</mgrwt>
</event>
<event>
 4    1  0.1701380E-008  0.1003588E+04  0.7818608E-02  0.9304618E-01
         -2   -1    0    0    0  501 -0.00000000000E+00  0.00000000000E+00  0.74278355590E+03  0.74278355590E+03  0.25500000000E-02 0.  1.
          2   -1    0    0  501    0  0.00000000000E+00 -0.00000000000E+00 -0.24211857349E+04  0.24211857349E+04  0.25500000000E-02 0. -1.
    8880022    1    1    2    0    0  0.96625003561E+03  0.22395943892E+03  0.21011899666E+03  0.10253480421E+04  0.15294330000E+03 0.  0.
    8880022    1    1    2    0    0 -0.96625003561E+03 -0.22395943892E+03 -0.18885211756E+04  0.21386212487E+04  0.15294330000E+03 0.  0.
<mgrwt>
<rscale>  0 0.10035879E+04</rscale>
<asrwt>0</asrwt>
<pdfrwt beam="1">  1        2 0.37249011E+00 0.10035879E+04</pdfrwt>
<pdfrwt beam="2">  1       -2 0.11427439E+00 0.10035879E+04</pdfrwt>
<totfact> 0.23277544E+00</totfact>
</mgrwt>
</event>
<event>
 4    1  0.1701380E-008  0.5212225E+03  0.7818608E-02  0.1008383E+00
          2   -1    0    0  501    0  0.00000000000E+00  0.00000000000E+00  0.40230293760E+04  0.40230293760E+04  0.25500000000E-02 0. -1.
         -2   -1    0    0    0  501 -0.00000000000E+00 -0.00000000000E+00 -0.22765936118E+03  0.22765936119E+03  0.25500000000E-02 0.  1.
    8880022    1    1    2    0    0 -0.23365522703E+03  0.44009829673E+03  0.36801573274E+04  0.37168845668E+04  0.15294330000E+03 0.  0.
    8880022    1    1    2    0    0  0.23365522703E+03 -0.44009829673E+03  0.11521268742E+03  0.53380417033E+03  0.15294330000E+03 0.  0.
<mgrwt>
<rscale>  0 0.52122253E+03</rscale>
<asrwt>0</asrwt>
<pdfrwt beam="1">  1        2 0.61892753E+00 0.52122253E+03</pdfrwt>
<pdfrwt beam="2">  1       -2 0.35024521E-01 0.52122253E+03</pdfrwt>
<totfact> 0.29629090E+00</totfact>
</mgrwt>
</event>
<event>
 4    1  0.1701380E-008  0.7815070E+03  0.7818608E-02  0.9587178E-01
          2   -1    0    0  501    0  0.00000000000E+00  0.00000000000E+00  0.27668786114E+04  0.27668786114E+04  0.25500000000E-02 0. -1.
         -2   -1    0    0    0  501 -0.00000000000E+00 -0.00000000000E+00 -0.46179569063E+03  0.46179569063E+03  0.25500000000E-02 0.  1.
    8880022    1    1    2    0    0 -0.71908885379E+03  0.26508996936E+03  0.23188957516E+04  0.24470452859E+04  0.15294330000E+03 0.  0.
    8880022    1    1    2    0    0  0.71908885379E+03 -0.26508996936E+03 -0.13812830855E+02  0.78162901610E+03  0.15294330000E+03 0.  0.
<mgrwt>
<rscale>  0 0.78150696E+03</rscale>
<asrwt>0</asrwt>
<pdfrwt beam="1">  1        2 0.42567364E+00 0.78150696E+03</pdfrwt>
<pdfrwt beam="2">  1       -2 0.71045490E-01 0.78150696E+03</pdfrwt>
<totfact> 0.45851878E+00</totfact>
</mgrwt>
</event>
<event>
 4    1  0.1701380E-008  0.1202083E+04  0.7818608E-02  0.9111036E-01
         -2   -1    0    0    0  501 -0.00000000000E+00  0.00000000000E+00  0.76178999264E+03  0.76178999265E+03  0.25500000000E-02 0.  1.
          2   -1    0    0  501    0  0.00000000000E+00 -0.00000000000E+00 -0.27362448677E+04  0.27362448677E+04  0.25500000000E-02 0. -1.
    8880022    1    1    2    0    0 -0.11064117968E+04 -0.44436907510E+03 -0.19559499435E+04  0.22958098295E+04  0.15294330000E+03 0.  0.
    8880022    1    1    2    0    0  0.11064117968E+04  0.44436907510E+03 -0.18504931551E+02  0.12022250308E+04  0.15294330000E+03 0.  0.
<mgrwt>
<rscale>  0 0.12020826E+04</rscale>
<asrwt>0</asrwt>
<pdfrwt beam="1">  1        2 0.42096074E+00 0.12020826E+04</pdfrwt>
<pdfrwt beam="2">  1       -2 0.11719846E+00 0.12020826E+04</pdfrwt>
<totfact> 0.13992082E+00</totfact>
</mgrwt>
</event>
<event>
 4    1  0.1701380E-008  0.1188987E+04  0.7818608E-02  0.9122551E-01
          2   -1    0    0  501    0  0.00000000000E+00  0.00000000000E+00  0.84645856794E+03  0.84645856795E+03  0.25500000000E-02 0. -1.
         -2   -1    0    0    0  501 -0.00000000000E+00 -0.00000000000E+00 -0.22006538250E+04  0.22006538250E+04  0.25500000000E-02 0.  1.
    8880022    1    1    2    0    0  0.93779732993E+03  0.71472728002E+03 -0.14251596572E+04  0.18560093260E+04  0.15294330000E+03 0.  0.
    8880022    1    1    2    0    0 -0.93779732993E+03 -0.71472728002E+03  0.70964400172E+02  0.11911030669E+04  0.15294330000E+03 0.  0.
<mgrwt>
<rscale>  0 0.11889872E+04</rscale>
<asrwt>0</asrwt>
<pdfrwt beam="1">  1        2 0.13022440E+00 0.11889872E+04</pdfrwt>
<pdfrwt beam="2">  1       -2 0.33856212E+00 0.11889872E+04</pdfrwt>
<totfact> 0.57711422E-01</totfact>
</mgrwt>
</event>
<event>
 4    1  0.1701380E-008  0.5125099E+03  0.7818608E-02  0.1010564E+00
          2   -1    0    0  501    0  0.00000000000E+00  0.00000000000E+00  0.16244575977E+04  0.16244575977E+04  0.25500000000E-02 0. -1.
         -2   -1    0    0    0  501 -0.00000000000E+00 -0.00000000000E+00 -0.15104561220E+04  0.15104561220E+04  0.25500000000E-02 0.  1.
    8880022    1    1    2    0    0 -0.31059502884E+03  0.37789616814E+03  0.15381849779E+04  0.16213202846E+04  0.15294330000E+03 0. -1.
    8880022    1    1    2    0    0  0.31059502884E+03 -0.37789616814E+03 -0.14241835022E+04  0.15135934351E+04  0.15294330000E+03 0.  0.
<mgrwt>
<rscale>  0 0.51250994E+03</rscale>
<asrwt>0</asrwt>
<pdfrwt beam="1">  1        2 0.24991655E+00 0.51250994E+03</pdfrwt>
<pdfrwt beam="2">  1       -2 0.23237786E+00 0.51250994E+03</pdfrwt>
<totfact> 0.98491492E-01</totfact>
</mgrwt>
</event>
<event>
 4    1  0.1701380E-008  0.1661579E+04  0.7818608E-02  0.8783586E-01
         -2   -1    0    0    0  501 -0.00000000000E+00  0.00000000000E+00  0.11862969665E+04  0.11862969665E+04  0.25500000000E-02 0.  1.
          2   -1    0    0  501    0  0.00000000000E+00 -0.00000000000E+00 -0.28984319378E+04  0.28984319378E+04  0.25500000000E-02 0. -1.
    8880022    1    1    2    0    0  0.15001154130E+04 -0.69792940241E+03  0.50558388450E+02  0.16623475891E+04  0.15294330000E+03 0.  0.
    8880022    1    1    2    0    0 -0.15001154130E+04  0.69792940241E+03 -0.17626933598E+04  0.24223813153E+04  0.15294330000E+03 0.  0.
<mgrwt>
<rscale>  0 0.16615786E+04</rscale>
<asrwt>0</asrwt>
<pdfrwt beam="1">  1        2 0.44591260E+00 0.16615786E+04</pdfrwt>
<pdfrwt beam="2">  1       -2 0.18250723E+00 0.16615786E+04</pdfrwt>
<totfact> 0.32504704E-01</totfact>
</mgrwt>
</event>
<event>
 4    1  0.1701380E-008  0.8371134E+03  0.7818608E-02  0.9507798E-01
         -2   -1    0    0    0  501 -0.00000000000E+00  0.00000000000E+00  0.64627101579E+03  0.64627101580E+03  0.25500000000E-02 0.  1.
          2   -1    0    0  501    0  0.00000000000E+00 -0.00000000000E+00 -0.12777622016E+04  0.12777622016E+04  0.25500000000E-02 0. -1.
    8880022    1    1    2    0    0  0.72022786422E+03  0.39829523574E+03 -0.69006556690E+03  0.10848729930E+04  0.15294330000E+03 0.  0.
    8880022    1    1    2    0    0 -0.72022786422E+03 -0.39829523574E+03  0.58574381044E+02  0.83916022448E+03  0.15294330000E+03 0.  0.
<mgrwt>
<rscale>  0 0.83711345E+03</rscale>
<asrwt>0</asrwt>
<pdfrwt beam="1">  1        2 0.19657880E+00 0.83711345E+03</pdfrwt>
<pdfrwt beam="2">  1       -2 0.99426310E-01 0.83711345E+03</pdfrwt>
<totfact> 0.14412766E+01</totfact>
</mgrwt>
</event>
<event>
 4    1  0.1701380E-008  0.8600224E+03  0.7818608E-02  0.9476983E-01
          2   -1    0    0  501    0  0.00000000000E+00  0.00000000000E+00  0.61261558498E+03  0.61261558498E+03  0.25500000000E-02 0. -1.
         -2   -1    0    0    0  501 -0.00000000000E+00 -0.00000000000E+00 -0.12623973690E+04  0.12623973690E+04  0.25500000000E-02 0.  1.
    8880022    1    1    2    0    0 -0.74298035533E+02 -0.84304608752E+03 -0.12911329316E+03  0.86966016308E+03  0.15294330000E+03 0.  0.
    8880022    1    1    2    0    0  0.74298035533E+02  0.84304608752E+03 -0.52066849085E+03  0.10053527909E+04  0.15294330000E+03 0.  0.
<mgrwt>
<rscale>  0 0.86002242E+03</rscale>
<asrwt>0</asrwt>
<pdfrwt beam="1">  1        2 0.94248552E-01 0.86002242E+03</pdfrwt>
<pdfrwt beam="2">  1       -2 0.19421498E+00 0.86002242E+03</pdfrwt>
<totfact> 0.70743610E+00</totfact>
</mgrwt>
</event>
<event>
 4    1  0.1701380E-008  0.3692023E+03  0.7818608E-02  0.1054998E+00
         -2   -1    0    0    0  501 -0.00000000000E+00  0.00000000000E+00  0.10194354614E+04  0.10194354614E+04  0.25500000000E-02 0.  1.
          2   -1    0    0  501    0  0.00000000000E+00 -0.00000000000E+00 -0.11515122267E+04  0.11515122267E+04  0.25500000000E-02 0. -1.
    8880022    1    1    2    0    0  0.33393752047E+03  0.37475361403E+02  0.95446969830E+03  0.10233878680E+04  0.15294330000E+03 0.  0.
    8880022    1    1    2    0    0 -0.33393752047E+03 -0.37475361403E+02 -0.10865464636E+04  0.11475598202E+04  0.15294330000E+03 0. -1.
<mgrwt>
<rscale>  0 0.36920228E+03</rscale>
<asrwt>0</asrwt>
<pdfrwt beam="1">  1        2 0.17715573E+00 0.36920228E+03</pdfrwt>
<pdfrwt beam="2">  1       -2 0.15683623E+00 0.36920228E+03</pdfrwt>
<totfact> 0.59271508E+00</totfact>
</mgrwt>
</event>
<event>
 4    1  0.1701380E-008  0.6626545E+03  0.7818608E-02  0.9783319E-01
          2   -1    0    0  501    0  0.00000000000E+00  0.00000000000E+00  0.63504487096E+03  0.63504487096E+03  0.25500000000E-02 0. -1.
         -2   -1    0    0    0  501 -0.00000000000E+00 -0.00000000000E+00 -0.13520352806E+04  0.13520352806E+04  0.25500000000E-02 0.  1.
    8880022    1    1    2    0    0 -0.17263733577E+03  0.62122115979E+03 -0.10529612754E+04  0.12441215694E+04  0.15294330000E+03 0.  0.
    8880022    1    1    2    0    0  0.17263733577E+03 -0.62122115979E+03  0.33597086575E+03  0.74295858211E+03  0.15294330000E+03 0.  0.
<mgrwt>
<rscale>  0 0.66265453E+03</rscale>
<asrwt>0</asrwt>
<pdfrwt beam="1">  1        2 0.97699211E-01 0.66265453E+03</pdfrwt>
<pdfrwt beam="2">  1       -2 0.20800543E+00 0.66265453E+03</pdfrwt>
<totfact> 0.56422885E+00</totfact>
</mgrwt>
</event>
<event>
 4    1  0.1701380E-008  0.3914043E+03  0.7818608E-02  0.1046797E+00
          2   -1    0    0  501    0  0.00000000000E+00  0.00000000000E+00  0.11702975507E+04  0.11702975507E+04  0.25500000000E-02 0. -1.
         -2   -1    0    0    0  501 -0.00000000000E+00 -0.00000000000E+00 -0.17770776138E+03  0.17770776140E+03  0.25500000000E-02 0.  1.
    8880022    1    1    2    0    0 -0.21119720581E+03 -0.29189278955E+03  0.84219132605E+03  0.92869992087E+03  0.15294330000E+03 0.  0.
    8880022    1    1    2    0    0  0.21119720581E+03  0.29189278955E+03  0.15039846323E+03  0.41930539120E+03  0.15294330000E+03 0.  0.
<mgrwt>
<rscale>  0 0.39140428E+03</rscale>
<asrwt>0</asrwt>
<pdfrwt beam="1">  1        2 0.18004577E+00 0.39140428E+03</pdfrwt>
<pdfrwt beam="2">  1       -2 0.27339656E-01 0.39140428E+03</pdfrwt>
<totfact> 0.24986418E+02</totfact>
</mgrwt>
</event>
<event>
 4    1  0.1701380E-008  0.1062326E+04  0.7818608E-02  0.9242710E-01
          2   -1    0    0  501    0  0.00000000000E+00  0.00000000000E+00  0.16680129543E+04  0.16680129543E+04  0.25500000000E-02 0. -1.
         -2   -1    0    0    0  501 -0.00000000000E+00 -0.00000000000E+00 -0.73239920773E+03  0.73239920774E+03  0.25500000000E-02 0.  1.
    8880022    1    1    2    0    0  0.92328512997E+03  0.50268300225E+03  0.13645467090E+03  0.10710542294E+04  0.15294330000E+03 0. -1.
    8880022    1    1    2    0    0 -0.92328512997E+03 -0.50268300225E+03  0.79915907568E+03  0.13293579327E+04  0.15294330000E+03 0.  0.
<mgrwt>
<rscale>  0 0.10623264E+04</rscale>
<asrwt>0</asrwt>
<pdfrwt beam="1">  1        2 0.25661737E+00 0.10623264E+04</pdfrwt>
<pdfrwt beam="2">  1       -2 0.11267680E+00 0.10623264E+04</pdfrwt>
<totfact> 0.62638038E+00</totfact>
</mgrwt>
</event>
<event>
 4    1  0.1701380E-008  0.2610493E+03  0.7818608E-02  0.1106514E+00
         -2   -1    0    0    0  501 -0.00000000000E+00  0.00000000000E+00  0.14493447055E+03  0.14493447057E+03  0.25500000000E-02 0.  1.
          2   -1    0    0  501    0  0.00000000000E+00 -0.00000000000E+00 -0.14538629000E+04  0.14538629000E+04  0.25500000000E-02 0. -1.
    8880022    1    1    2    0    0 -0.21150683103E+03 -0.44654258766E+01 -0.13120116153E+04  0.13377298723E+04  0.15294330000E+03 0.  0.
    8880022    1    1    2    0    0  0.21150683103E+03  0.44654258766E+01  0.30831858342E+01  0.26106749826E+03  0.15294330000E+03 0.  0.
<mgrwt>
<rscale>  0 0.26104929E+03</rscale>
<asrwt>0</asrwt>
<pdfrwt beam="1">  1        2 0.22367121E+00 0.26104929E+03</pdfrwt>
<pdfrwt beam="2">  1       -2 0.22297612E-01 0.26104929E+03</pdfrwt>
<totfact> 0.25381634E+02</totfact>
</mgrwt>
</event>
<event>
 4    1  0.1701380E-008  0.9476107E+03  0.7818608E-02  0.9367948E-01
          2   -1    0    0  501    0  0.00000000000E+00  0.00000000000E+00  0.24346918397E+04  0.24346918397E+04  0.25500000000E-02 0. -1.
         -2   -1    0    0    0  501 -0.00000000000E+00 -0.00000000000E+00 -0.40415823974E+03  0.40415823975E+03  0.25500000000E-02 0.  1.
    8880022    1    1    2    0    0  0.22857772133E+03  0.90682226571E+03  0.14349790216E+04  0.17196310191E+04  0.15294330000E+03 0.  0.
    8880022    1    1    2    0    0 -0.22857772133E+03 -0.90682226571E+03  0.59555457831E+03  0.11192190603E+04  0.15294330000E+03 0.  0.
<mgrwt>
<rscale>  0 0.94761071E+03</rscale>
<asrwt>0</asrwt>
<pdfrwt beam="1">  1        2 0.37456797E+00 0.94761071E+03</pdfrwt>
<pdfrwt beam="2">  1       -2 0.62178191E-01 0.94761071E+03</pdfrwt>
<totfact> 0.92726489E+00</totfact>
</mgrwt>
</event>
<event>
 4    1  0.1701380E-008  0.2051268E+03  0.7818608E-02  0.1145484E+00
         -2   -1    0    0    0  501 -0.00000000000E+00  0.00000000000E+00  0.11430449825E+03  0.11430449828E+03  0.25500000000E-02 0.  1.
          2   -1    0    0  501    0  0.00000000000E+00 -0.00000000000E+00 -0.13922079062E+04  0.13922079062E+04  0.25500000000E-02 0. -1.
    8880022    1    1    2    0    0  0.12636074955E+03 -0.52137256671E+02  0.70902854190E+01  0.20524925754E+03  0.15294330000E+03 0.  0.
    8880022    1    1    2    0    0 -0.12636074955E+03  0.52137256671E+02 -0.12849936934E+04  0.13012631470E+04  0.15294330000E+03 0. -1.
<mgrwt>
<rscale>  0 0.20512675E+03</rscale>
<asrwt>0</asrwt>
<pdfrwt beam="1">  1        2 0.21418582E+00 0.20512675E+03</pdfrwt>
<pdfrwt beam="2">  1       -2 0.17585308E-01 0.20512675E+03</pdfrwt>
<totfact> 0.41546887E+02</totfact>
</mgrwt>
</event>
<event>
 4    1  0.1701380E-008  0.1950760E+04  0.7818608E-02  0.8629994E-01
         -2   -1    0    0    0  501 -0.00000000000E+00  0.00000000000E+00  0.24549398860E+04  0.24549398860E+04  0.25500000000E-02 0.  1.
          2   -1    0    0  501    0  0.00000000000E+00 -0.00000000000E+00 -0.17994334856E+04  0.17994334856E+04  0.25500000000E-02 0. -1.
    8880022    1    1    2    0    0  0.11152148995E+04 -0.15932257562E+04 -0.46402956498E+03  0.20051901836E+04  0.15294330000E+03 0.  0.
    8880022    1    1    2    0    0 -0.11152148995E+04  0.15932257562E+04  0.11195359654E+04  0.22491831880E+04  0.15294330000E+03 0.  0.
<mgrwt>
<rscale>  0 0.19507599E+04</rscale>
<asrwt>0</asrwt>
<pdfrwt beam="1">  1        2 0.27683592E+00 0.19507599E+04</pdfrwt>
<pdfrwt beam="2">  1       -2 0.37768306E+00 0.19507599E+04</pdfrwt>
<totfact> 0.80017931E-02</totfact>
</mgrwt>
</event>
<event>
 4    1  0.1701380E-008  0.6722245E+03  0.7818608E-02  0.9765948E-01
          2   -1    0    0  501    0  0.00000000000E+00  0.00000000000E+00  0.12620365549E+04  0.12620365549E+04  0.25500000000E-02 0. -1.
         -2   -1    0    0    0  501 -0.00000000000E+00 -0.00000000000E+00 -0.28648871619E+04  0.28648871620E+04  0.25500000000E-02 0.  1.
    8880022    1    1    2    0    0  0.22952550845E+03  0.61303519788E+03 -0.27316364321E+04  0.28131340820E+04  0.15294330000E+03 0.  0.
    8880022    1    1    2    0    0 -0.22952550845E+03 -0.61303519788E+03  0.11287858250E+04  0.13137896349E+04  0.15294330000E+03 0.  0.
<mgrwt>
<rscale>  0 0.67222449E+03</rscale>
<asrwt>0</asrwt>
<pdfrwt beam="1">  1        2 0.19415947E+00 0.67222449E+03</pdfrwt>
<pdfrwt beam="2">  1       -2 0.44075187E+00 0.67222449E+03</pdfrwt>
<totfact> 0.76443382E-02</totfact>
</mgrwt>
</event>
<event>
 4    1  0.1701380E-008  0.7187233E+03  0.7818608E-02  0.9685738E-01
         -2   -1    0    0    0  501 -0.00000000000E+00  0.00000000000E+00  0.34160124152E+03  0.34160124152E+03  0.25500000000E-02 0.  1.
          2   -1    0    0  501    0  0.00000000000E+00 -0.00000000000E+00 -0.32758986672E+04  0.32758986672E+04  0.25500000000E-02 0. -1.
    8880022    1    1    2    0    0 -0.61584237484E+03  0.33750507217E+03 -0.13997507701E+03  0.73222686347E+03  0.15294330000E+03 0.  0.
    8880022    1    1    2    0    0  0.61584237484E+03 -0.33750507217E+03 -0.27943223487E+04  0.28852730453E+04  0.15294330000E+03 0.  0.
<mgrwt>
<rscale>  0 0.71872328E+03</rscale>
<asrwt>0</asrwt>
<pdfrwt beam="1">  1        2 0.50398439E+00 0.71872328E+03</pdfrwt>
<pdfrwt beam="2">  1       -2 0.52554039E-01 0.71872328E+03</pdfrwt>
<totfact> 0.42772931E+00</totfact>
</mgrwt>
</event>
<event>
 4    1  0.1701380E-008  0.2122212E+03  0.7818608E-02  0.1139819E+00
         -2   -1    0    0    0  501 -0.00000000000E+00  0.00000000000E+00  0.15236209380E+04  0.15236209380E+04  0.25500000000E-02 0.  1.
          2   -1    0    0  501    0  0.00000000000E+00 -0.00000000000E+00 -0.14724988464E+03  0.14724988467E+03  0.25500000000E-02 0. -1.
    8880022    1    1    2    0    0  0.13958990770E+03  0.46484743568E+02 -0.58702437350E+02  0.22019037872E+03  0.15294330000E+03 0.  0.
    8880022    1    1    2    0    0 -0.13958990770E+03 -0.46484743568E+02  0.14350734907E+04  0.14506804440E+04  0.15294330000E+03 0.  1.
<mgrwt>
<rscale>  0 0.21222117E+03</rscale>
<asrwt>0</asrwt>
<pdfrwt beam="1">  1        2 0.22653828E-01 0.21222117E+03</pdfrwt>
<pdfrwt beam="2">  1       -2 0.23440323E+00 0.21222117E+03</pdfrwt>
<totfact> 0.21737423E+01</totfact>
</mgrwt>
</event>
<event>
 4    1  0.1701380E-008  0.2024622E+03  0.7818608E-02  0.1147678E+00
          2   -1    0    0  501    0  0.00000000000E+00  0.00000000000E+00  0.14027496065E+04  0.14027496065E+04  0.25500000000E-02 0. -1.
         -2   -1    0    0    0  501 -0.00000000000E+00 -0.00000000000E+00 -0.81177154493E+03  0.81177154493E+03  0.25500000000E-02 0.  1.
    8880022    1    1    2    0    0 -0.12850729466E+03 -0.32941918746E+02  0.13826375697E+04  0.13973824089E+04  0.15294330000E+03 0.  0.
    8880022    1    1    2    0    0  0.12850729466E+03  0.32941918746E+02 -0.79165950806E+03  0.81713874251E+03  0.15294330000E+03 0.  1.
<mgrwt>
<rscale>  0 0.20246221E+03</rscale>
<asrwt>0</asrwt>
<pdfrwt beam="1">  1        2 0.21580763E+00 0.20246221E+03</pdfrwt>
<pdfrwt beam="2">  1       -2 0.12488793E+00 0.20246221E+03</pdfrwt>
<totfact> 0.81626325E+00</totfact>
</mgrwt>
</event>
<event>
 4    1  0.1701380E-008  0.1032678E+04  0.7818608E-02  0.9273413E-01
          2   -1    0    0  501    0  0.00000000000E+00  0.00000000000E+00  0.16636693213E+04  0.16636693213E+04  0.25500000000E-02 0. -1.
         -2   -1    0    0    0  501 -0.00000000000E+00 -0.00000000000E+00 -0.10314703315E+04  0.10314703315E+04  0.25500000000E-02 0.  1.
    8880022    1    1    2    0    0 -0.22014240508E+03 -0.99728082012E+03  0.11452113801E+04  0.15420546264E+04  0.15294330000E+03 0.  0.
    8880022    1    1    2    0    0  0.22014240508E+03  0.99728082012E+03 -0.51301239023E+03  0.11530850265E+04  0.15294330000E+03 0.  0.
<mgrwt>
<rscale>  0 0.10326778E+04</rscale>
<asrwt>0</asrwt>
<pdfrwt beam="1">  1        2 0.25594912E+00 0.10326778E+04</pdfrwt>
<pdfrwt beam="2">  1       -2 0.15868774E+00 0.10326778E+04</pdfrwt>
<totfact> 0.26198977E+00</totfact>
</mgrwt>
</event>
<event>
 4    1  0.1701380E-008  0.8863243E+03  0.7818608E-02  0.9442840E-01
         -2   -1    0    0    0  501 -0.00000000000E+00  0.00000000000E+00  0.42804919356E+03  0.42804919357E+03  0.25500000000E-02 0.  1.
          2   -1    0    0  501    0  0.00000000000E+00 -0.00000000000E+00 -0.38602347094E+04  0.38602347094E+04  0.25500000000E-02 0. -1.
    8880022    1    1    2    0    0 -0.82862705949E+03 -0.27487493403E+03 -0.32690489512E+04  0.33870712617E+04  0.15294330000E+03 0.  0.
    8880022    1    1    2    0    0  0.82862705949E+03  0.27487493403E+03 -0.16313656459E+03  0.90121264128E+03  0.15294330000E+03 0.  0.
<mgrwt>
<rscale>  0 0.88632426E+03</rscale>
<asrwt>0</asrwt>
<pdfrwt beam="1">  1        2 0.59388224E+00 0.88632426E+03</pdfrwt>
<pdfrwt beam="2">  1       -2 0.65853724E-01 0.88632426E+03</pdfrwt>
<totfact> 0.10044996E+00</totfact>
</mgrwt>
</event>
<event>
 4    1  0.1701380E-008  0.1493762E+04  0.7818608E-02  0.8888612E-01
          2   -1    0    0  501    0  0.00000000000E+00  0.00000000000E+00  0.23426728841E+04  0.23426728841E+04  0.25500000000E-02 0. -1.
         -2   -1    0    0    0  501 -0.00000000000E+00 -0.00000000000E+00 -0.12553170686E+04  0.12553170686E+04  0.25500000000E-02 0.  1.
    8880022    1    1    2    0    0  0.94426565167E+03  0.11472996350E+04 -0.33994078550E+03  0.15319547852E+04  0.15294330000E+03 0.  0.
    8880022    1    1    2    0    0 -0.94426565167E+03 -0.11472996350E+04  0.14272966010E+04  0.20660351675E+04  0.15294330000E+03 0.  0.
<mgrwt>
<rscale>  0 0.14937623E+04</rscale>
<asrwt>0</asrwt>
<pdfrwt beam="1">  1        2 0.36041121E+00 0.14937623E+04</pdfrwt>
<pdfrwt beam="2">  1       -2 0.19312570E+00 0.14937623E+04</pdfrwt>
<totfact> 0.59550384E-01</totfact>
</mgrwt>
</event>
<event>
 4    1  0.1701380E-008  0.1398037E+04  0.7818608E-02  0.8955240E-01
          2   -1    0    0  501    0  0.00000000000E+00  0.00000000000E+00  0.18112481712E+04  0.18112481712E+04  0.25500000000E-02 0. -1.
         -2   -1    0    0    0  501 -0.00000000000E+00 -0.00000000000E+00 -0.14827705979E+04  0.14827705979E+04  0.25500000000E-02 0.  1.
    8880022    1    1    2    0    0 -0.13263698232E+04 -0.41456005095E+03 -0.69512176401E+03  0.15613144666E+04  0.15294330000E+03 0.  0.
    8880022    1    1    2    0    0  0.13263698232E+04  0.41456005095E+03  0.10235993374E+04  0.17327043026E+04  0.15294330000E+03 0.  0.
<mgrwt>
<rscale>  0 0.13980374E+04</rscale>
<asrwt>0</asrwt>
<pdfrwt beam="1">  1        2 0.27865357E+00 0.13980374E+04</pdfrwt>
<pdfrwt beam="2">  1       -2 0.22811855E+00 0.13980374E+04</pdfrwt>
<totfact> 0.70895497E-01</totfact>
</mgrwt>
</event>
<event>
 4    1  0.1701380E-008  0.1285575E+04  0.7818608E-02  0.9041083E-01
          2   -1    0    0  501    0  0.00000000000E+00  0.00000000000E+00  0.19624069614E+04  0.19624069614E+04  0.25500000000E-02 0. -1.
         -2   -1    0    0    0  501 -0.00000000000E+00 -0.00000000000E+00 -0.11800509119E+04  0.11800509119E+04  0.25500000000E-02 0.  1.
    8880022    1    1    2    0    0  0.11120837831E+04 -0.62656328306E+03  0.12319211099E+04  0.17805429403E+04  0.15294330000E+03 0.  0.
    8880022    1    1    2    0    0 -0.11120837831E+04  0.62656328306E+03 -0.44956506033E+03  0.13619149330E+04  0.15294330000E+03 0.  0.
<mgrwt>
<rscale>  0 0.12855752E+04</rscale>
<asrwt>0</asrwt>
<pdfrwt beam="1">  1        2 0.30190876E+00 0.12855752E+04</pdfrwt>
<pdfrwt beam="2">  1       -2 0.18154630E+00 0.12855752E+04</pdfrwt>
<totfact> 0.11931218E+00</totfact>
</mgrwt>
</event>
<event>
 4    1  0.1701380E-008  0.4313203E+03  0.7818608E-02  0.1033444E+00
          2   -1    0    0  501    0  0.00000000000E+00  0.00000000000E+00  0.15065759223E+04  0.15065759223E+04  0.25500000000E-02 0. -1.
         -2   -1    0    0    0  501 -0.00000000000E+00 -0.00000000000E+00 -0.17224119260E+03  0.17224119262E+03  0.25500000000E-02 0.  1.
    8880022    1    1    2    0    0 -0.20135085922E+03  0.34943294299E+03  0.11137755150E+04  0.11943756114E+04  0.15294330000E+03 0. -1.
    8880022    1    1    2    0    0  0.20135085922E+03 -0.34943294299E+03  0.22055921464E+03  0.48444150352E+03  0.15294330000E+03 0.  0.
<mgrwt>
<rscale>  0 0.43132030E+03</rscale>
<asrwt>0</asrwt>
<pdfrwt beam="1">  1        2 0.23178091E+00 0.43132030E+03</pdfrwt>
<pdfrwt beam="2">  1       -2 0.26498645E-01 0.43132030E+03</pdfrwt>
<totfact> 0.17032509E+02</totfact>
</mgrwt>
</event>
<event>
 4    1  0.1701380E-008  0.7657395E+03  0.7818608E-02  0.9610976E-01
          2   -1    0    0  501    0  0.00000000000E+00  0.00000000000E+00  0.15888726667E+04  0.15888726667E+04  0.25500000000E-02 0. -1.
         -2   -1    0    0    0  501 -0.00000000000E+00 -0.00000000000E+00 -0.11748985824E+04  0.11748985824E+04  0.25500000000E-02 0.  1.
    8880022    1    1    2    0    0 -0.58128808707E+03 -0.47441486286E+03 -0.93747509937E+03  0.12104612828E+04  0.15294330000E+03 0.  0.
    8880022    1    1    2    0    0  0.58128808707E+03  0.47441486286E+03  0.13514491836E+04  0.15533099662E+04  0.15294330000E+03 0.  0.
<mgrwt>
<rscale>  0 0.76573948E+03</rscale>
<asrwt>0</asrwt>
<pdfrwt beam="1">  1        2 0.24444195E+00 0.76573948E+03</pdfrwt>
<pdfrwt beam="2">  1       -2 0.18075363E+00 0.76573948E+03</pdfrwt>
<totfact> 0.20850098E+00</totfact>
</mgrwt>
</event>
<event>
 4    1  0.1701380E-008  0.8736831E+03  0.7818608E-02  0.9459090E-01
         -2   -1    0    0    0  501 -0.00000000000E+00  0.00000000000E+00  0.76973993846E+03  0.76973993847E+03  0.25500000000E-02 0.  1.
          2   -1    0    0  501    0  0.00000000000E+00 -0.00000000000E+00 -0.12698169670E+04  0.12698169670E+04  0.25500000000E-02 0. -1.
    8880022    1    1    2    0    0  0.38536550295E+03 -0.76904088339E+03 -0.72732420832E+03  0.11368036806E+04  0.15294330000E+03 0.  0.
    8880022    1    1    2    0    0 -0.38536550295E+03  0.76904088339E+03  0.22724717983E+03  0.90275322483E+03  0.15294330000E+03 0.  0.
<mgrwt>
<rscale>  0 0.87368307E+03</rscale>
<asrwt>0</asrwt>
<pdfrwt beam="1">  1        2 0.19535646E+00 0.87368307E+03</pdfrwt>
<pdfrwt beam="2">  1       -2 0.11842153E+00 0.87368307E+03</pdfrwt>
<totfact> 0.95045569E+00</totfact>
</mgrwt>
</event>
<event>
 4    1  0.1701380E-008  0.1833719E+04  0.7818608E-02  0.8688571E-01
         -2   -1    0    0    0  501 -0.00000000000E+00  0.00000000000E+00  0.19653360706E+04  0.19653360706E+04  0.25500000000E-02 0.  1.
          2   -1    0    0  501    0  0.00000000000E+00 -0.00000000000E+00 -0.25788118564E+04  0.25788118564E+04  0.25500000000E-02 0. -1.
    8880022    1    1    2    0    0  0.40448292986E+03 -0.17820009261E+04 -0.16248318957E+04  0.24500212414E+04  0.15294330000E+03 0.  0.
    8880022    1    1    2    0    0 -0.40448292986E+03  0.17820009261E+04  0.10113561099E+04  0.20941266856E+04  0.15294330000E+03 0.  0.
<mgrwt>
<rscale>  0 0.18337190E+04</rscale>
<asrwt>0</asrwt>
<pdfrwt beam="1">  1        2 0.39674028E+00 0.18337190E+04</pdfrwt>
<pdfrwt beam="2">  1       -2 0.30235940E+00 0.18337190E+04</pdfrwt>
<totfact> 0.86777741E-02</totfact>
</mgrwt>
</event>
<event>
 4    1  0.1701380E-008  0.7874259E+03  0.7818608E-02  0.9578398E-01
         -2   -1    0    0    0  501 -0.00000000000E+00  0.00000000000E+00  0.79625460736E+03  0.79625460737E+03  0.25500000000E-02 0.  1.
          2   -1    0    0  501    0  0.00000000000E+00 -0.00000000000E+00 -0.14985321004E+04  0.14985321004E+04  0.25500000000E-02 0. -1.
    8880022    1    1    2    0    0 -0.46799180348E+03 -0.61451739819E+03 -0.11463753611E+04  0.13907609724E+04  0.15294330000E+03 0.  0.
    8880022    1    1    2    0    0  0.46799180348E+03  0.61451739819E+03  0.44409786806E+03  0.90402573538E+03  0.15294330000E+03 0.  0.
<mgrwt>
<rscale>  0 0.78742594E+03</rscale>
<asrwt>0</asrwt>
<pdfrwt beam="1">  1        2 0.23054340E+00 0.78742594E+03</pdfrwt>
<pdfrwt beam="2">  1       -2 0.12250071E+00 0.78742594E+03</pdfrwt>
<totfact> 0.65414949E+00</totfact>
</mgrwt>
</event>
<event>
 4    1  0.1701380E-008  0.5189357E+03  0.7818608E-02  0.1008951E+00
          2   -1    0    0  501    0  0.00000000000E+00  0.00000000000E+00  0.85613692043E+03  0.85613692044E+03  0.25500000000E-02 0. -1.
         -2   -1    0    0    0  501 -0.00000000000E+00 -0.00000000000E+00 -0.70214336803E+03  0.70214336804E+03  0.25500000000E-02 0.  1.
    8880022    1    1    2    0    0 -0.14542267822E+03  0.47408315913E+03 -0.50188945329E+03  0.72193301175E+03  0.15294330000E+03 0.  1.
    8880022    1    1    2    0    0  0.14542267822E+03 -0.47408315913E+03  0.65588300569E+03  0.83634727672E+03  0.15294330000E+03 0.  0.
<mgrwt>
<rscale>  0 0.51893569E+03</rscale>
<asrwt>0</asrwt>
<pdfrwt beam="1">  1        2 0.13171337E+00 0.51893569E+03</pdfrwt>
<pdfrwt beam="2">  1       -2 0.10802206E+00 0.51893569E+03</pdfrwt>
<totfact> 0.22497245E+01</totfact>
</mgrwt>
</event>
<event>
 4    1  0.1701380E-008  0.9900239E+03  0.7818608E-02  0.9319555E-01
          2   -1    0    0  501    0  0.00000000000E+00  0.00000000000E+00  0.13598297687E+04  0.13598297687E+04  0.25500000000E-02 0. -1.
         -2   -1    0    0    0  501 -0.00000000000E+00 -0.00000000000E+00 -0.89533592736E+03  0.89533592736E+03  0.25500000000E-02 0.  1.
    8880022    1    1    2    0    0 -0.94129382397E+03  0.26593519276E+03  0.73011512538E+03  0.12301281800E+04  0.15294330000E+03 0.  0.
    8880022    1    1    2    0    0  0.94129382397E+03 -0.26593519276E+03 -0.26562128408E+03  0.10250375161E+04  0.15294330000E+03 0.  0.
<mgrwt>
<rscale>  0 0.99002386E+03</rscale>
<asrwt>0</asrwt>
<pdfrwt beam="1">  1        2 0.20920458E+00 0.99002386E+03</pdfrwt>
<pdfrwt beam="2">  1       -2 0.13774399E+00 0.99002386E+03</pdfrwt>
<totfact> 0.56791896E+00</totfact>
</mgrwt>
</event>
<event>
 4    1  0.1701380E-008  0.3551497E+03  0.7818608E-02  0.1060521E+00
          2   -1    0    0  501    0  0.00000000000E+00  0.00000000000E+00  0.11723224862E+04  0.11723224862E+04  0.25500000000E-02 0. -1.
         -2   -1    0    0    0  501 -0.00000000000E+00 -0.00000000000E+00 -0.43846573136E+03  0.43846573137E+03  0.25500000000E-02 0.  1.
    8880022    1    1    2    0    0  0.15799290816E+03  0.27888688950E+03  0.10665648529E+04  0.11241405137E+04  0.15294330000E+03 0.  0.
    8880022    1    1    2    0    0 -0.15799290816E+03 -0.27888688950E+03 -0.33270809803E+03  0.48664770386E+03  0.15294330000E+03 0.  1.
<mgrwt>
<rscale>  0 0.35514970E+03</rscale>
<asrwt>0</asrwt>
<pdfrwt beam="1">  1        2 0.18035730E+00 0.35514970E+03</pdfrwt>
<pdfrwt beam="2">  1       -2 0.67456267E-01 0.35514970E+03</pdfrwt>
<totfact> 0.42634280E+01</totfact>
</mgrwt>
</event>
<event>
 4    1  0.1701380E-008  0.8795049E+03  0.7818608E-02  0.9451570E-01
         -2   -1    0    0    0  501 -0.00000000000E+00  0.00000000000E+00  0.11640555629E+04  0.11640555629E+04  0.25500000000E-02 0.  1.
          2   -1    0    0  501    0  0.00000000000E+00 -0.00000000000E+00 -0.19001802807E+04  0.19001802807E+04  0.25500000000E-02 0. -1.
    8880022    1    1    2    0    0 -0.86416712704E+03  0.57899406581E+02 -0.16035708929E+04  0.18289254841E+04  0.15294330000E+03 0.  0.
    8880022    1    1    2    0    0  0.86416712704E+03 -0.57899406581E+02  0.86744617505E+03  0.12353103595E+04  0.15294330000E+03 0.  0.
<mgrwt>
<rscale>  0 0.87950487E+03</rscale>
<asrwt>0</asrwt>
<pdfrwt beam="1">  1        2 0.29233543E+00 0.87950487E+03</pdfrwt>
<pdfrwt beam="2">  1       -2 0.17908547E+00 0.87950487E+03</pdfrwt>
<totfact> 0.14175265E+00</totfact>
</mgrwt>
</event>
<event>
 4    1  0.1701380E-008  0.1778448E+04  0.7818608E-02  0.8717845E-01
         -2   -1    0    0    0  501 -0.00000000000E+00  0.00000000000E+00  0.28270754890E+04  0.28270754890E+04  0.25500000000E-02 0.  1.
          2   -1    0    0  501    0  0.00000000000E+00 -0.00000000000E+00 -0.17410641731E+04  0.17410641731E+04  0.25500000000E-02 0. -1.
    8880022    1    1    2    0    0 -0.24412666674E+03  0.17549609906E+04 -0.82250820435E+03  0.19594380080E+04  0.15294330000E+03 0.  0.
    8880022    1    1    2    0    0  0.24412666674E+03 -0.17549609906E+04  0.19085195203E+04  0.26087016541E+04  0.15294330000E+03 0.  0.
<mgrwt>
<rscale>  0 0.17784481E+04</rscale>
<asrwt>0</asrwt>
<pdfrwt beam="1">  1        2 0.26785603E+00 0.17784481E+04</pdfrwt>
<pdfrwt beam="2">  1       -2 0.43493469E+00 0.17784481E+04</pdfrwt>
<totfact> 0.36906025E-02</totfact>
</mgrwt>
</event>
<event>
 4    1  0.1701380E-008  0.1051955E+04  0.7818608E-02  0.9253328E-01
          2   -1    0    0  501    0  0.00000000000E+00  0.00000000000E+00  0.17842522659E+04  0.17842522659E+04  0.25500000000E-02 0. -1.
         -2   -1    0    0    0  501 -0.00000000000E+00 -0.00000000000E+00 -0.87908542558E+03  0.87908542558E+03  0.25500000000E-02 0.  1.
    8880022    1    1    2    0    0  0.37465000913E+03  0.97100744141E+03 -0.27006449472E+03  0.10860683979E+04  0.15294330000E+03 0.  0.
    8880022    1    1    2    0    0 -0.37465000913E+03 -0.97100744141E+03  0.11752313351E+04  0.15772692936E+04  0.15294330000E+03 0.  0.
<mgrwt>
<rscale>  0 0.10519552E+04</rscale>
<asrwt>0</asrwt>
<pdfrwt beam="1">  1        2 0.27450034E+00 0.10519552E+04</pdfrwt>
<pdfrwt beam="2">  1       -2 0.13524391E+00 0.10519552E+04</pdfrwt>
<totfact> 0.34208691E+00</totfact>
</mgrwt>
</event>
<event>
 4    1  0.1701380E-008  0.3421080E+03  0.7818608E-02  0.1065902E+00
         -2   -1    0    0    0  501 -0.00000000000E+00  0.00000000000E+00  0.53979067935E+03  0.53979067935E+03  0.25500000000E-02 0.  1.
          2   -1    0    0  501    0  0.00000000000E+00 -0.00000000000E+00 -0.16116001801E+04  0.16116001801E+04  0.25500000000E-02 0. -1.
    8880022    1    1    2    0    0  0.30555793530E+03  0.16750130480E+02 -0.15366266913E+04  0.15742488559E+04  0.15294330000E+03 0. -1.
    8880022    1    1    2    0    0 -0.30555793530E+03 -0.16750130480E+02  0.46481719054E+03  0.57714200361E+03  0.15294330000E+03 0.  0.
<mgrwt>
<rscale>  0 0.34210798E+03</rscale>
<asrwt>0</asrwt>
<pdfrwt beam="1">  1        2 0.24793849E+00 0.34210798E+03</pdfrwt>
<pdfrwt beam="2">  1       -2 0.83044720E-01 0.34210798E+03</pdfrwt>
<totfact> 0.15504584E+01</totfact>
</mgrwt>
</event>
<event>
 4    1  0.1701380E-008  0.1115682E+04  0.7818608E-02  0.9190040E-01
          2   -1    0    0  501    0  0.00000000000E+00  0.00000000000E+00  0.86831059285E+03  0.86831059286E+03  0.25500000000E-02 0. -1.
         -2   -1    0    0    0  501 -0.00000000000E+00 -0.00000000000E+00 -0.25347740498E+04  0.25347740498E+04  0.25500000000E-02 0.  1.
    8880022    1    1    2    0    0  0.41703920547E+03 -0.10234419539E+04  0.28831012289E+03  0.11523322055E+04  0.15294330000E+03 0.  0.
    8880022    1    1    2    0    0 -0.41703920547E+03  0.10234419539E+04 -0.19547735798E+04  0.22507524371E+04  0.15294330000E+03 0.  0.
<mgrwt>
<rscale>  0 0.11156822E+04</rscale>
<asrwt>0</asrwt>
<pdfrwt beam="1">  1        2 0.13358625E+00 0.11156822E+04</pdfrwt>
<pdfrwt beam="2">  1       -2 0.38996524E+00 0.11156822E+04</pdfrwt>
<totfact> 0.26562496E-01</totfact>
</mgrwt>
</event>
<event>
 4    1  0.1701380E-008  0.1650464E+04  0.7818608E-02  0.8790132E-01
         -2   -1    0    0    0  501 -0.00000000000E+00  0.00000000000E+00  0.17055649523E+04  0.17055649523E+04  0.25500000000E-02 0.  1.
          2   -1    0    0  501    0  0.00000000000E+00 -0.00000000000E+00 -0.17331620442E+04  0.17331620442E+04  0.25500000000E-02 0. -1.
    8880022    1    1    2    0    0  0.16377889784E+04 -0.13523187149E+03 -0.49546578771E+03  0.17232290610E+04  0.15294330000E+03 0.  0.
    8880022    1    1    2    0    0 -0.16377889784E+04  0.13523187149E+03  0.46786869585E+03  0.17154979354E+04  0.15294330000E+03 0.  0.
<mgrwt>
<rscale>  0 0.16504642E+04</rscale>
<asrwt>0</asrwt>
<pdfrwt beam="1">  1        2 0.26664031E+00 0.16504642E+04</pdfrwt>
<pdfrwt beam="2">  1       -2 0.26239461E+00 0.16504642E+04</pdfrwt>
<totfact> 0.46877744E-01</totfact>
</mgrwt>
</event>
<event>
 4    1  0.1701380E-008  0.9732890E+03  0.7818608E-02  0.9338336E-01
          2   -1    0    0  501    0  0.00000000000E+00  0.00000000000E+00  0.18143588253E+04  0.18143588253E+04  0.25500000000E-02 0. -1.
         -2   -1    0    0    0  501 -0.00000000000E+00 -0.00000000000E+00 -0.98548316542E+03  0.98548316542E+03  0.25500000000E-02 0.  1.
    8880022    1    1    2    0    0 -0.95954686738E+03  0.56298646666E+02  0.13743804344E+04  0.16841059824E+04  0.15294330000E+03 0.  0.
    8880022    1    1    2    0    0  0.95954686738E+03 -0.56298646666E+02 -0.54550477453E+03  0.11157360084E+04  0.15294330000E+03 0.  0.
<mgrwt>
<rscale>  0 0.97328895E+03</rscale>
<asrwt>0</asrwt>
<pdfrwt beam="1">  1        2 0.27913212E+00 0.97328895E+03</pdfrwt>
<pdfrwt beam="2">  1       -2 0.15161280E+00 0.97328895E+03</pdfrwt>
<totfact> 0.24646288E+00</totfact>
</mgrwt>
</event>
<event>
 4    1  0.1701380E-008  0.6003588E+03  0.7818608E-02  0.9904662E-01
          2   -1    0    0  501    0  0.00000000000E+00  0.00000000000E+00  0.39331666251E+04  0.39331666251E+04  0.25500000000E-02 0. -1.
         -2   -1    0    0    0  501 -0.00000000000E+00 -0.00000000000E+00 -0.12699526797E+03  0.12699526799E+03  0.25500000000E-02 0.  1.
    8880022    1    1    2    0    0  0.54695842934E+03 -0.19461631023E+03  0.29742448218E+04  0.30342318542E+04  0.15294330000E+03 0.  0.
    8880022    1    1    2    0    0 -0.54695842934E+03  0.19461631023E+03  0.83192653533E+03  0.10259300390E+04  0.15294330000E+03 0.  0.
<mgrwt>
<rscale>  0 0.60035880E+03</rscale>
<asrwt>0</asrwt>
<pdfrwt beam="1">  1        2 0.60510258E+00 0.60035880E+03</pdfrwt>
<pdfrwt beam="2">  1       -2 0.19537733E-01 0.60035880E+03</pdfrwt>
<totfact> 0.97782538E+00</totfact>
</mgrwt>
</event>
<event>
 4    1  0.1701380E-008  0.8120561E+03  0.7818608E-02  0.9542729E-01
         -2   -1    0    0    0  501 -0.00000000000E+00  0.00000000000E+00  0.30049651599E+03  0.30049651600E+03  0.25500000000E-02 0.  1.
          2   -1    0    0  501    0  0.00000000000E+00 -0.00000000000E+00 -0.25363487456E+04  0.25363487456E+04  0.25500000000E-02 0. -1.
    8880022    1    1    2    0    0  0.79641064205E+03  0.42112804779E+02 -0.59717790508E+03  0.10079962810E+04  0.15294330000E+03 0.  0.
    8880022    1    1    2    0    0 -0.79641064205E+03 -0.42112804779E+02 -0.16386743246E+04  0.18288489807E+04  0.15294330000E+03 0.  0.
<mgrwt>
<rscale>  0 0.81205606E+03</rscale>
<asrwt>0</asrwt>
<pdfrwt beam="1">  1        2 0.39020749E+00 0.81205606E+03</pdfrwt>
<pdfrwt beam="2">  1       -2 0.46230235E-01 0.81205606E+03</pdfrwt>
<totfact> 0.15270307E+01</totfact>
</mgrwt>
</event>
<event>
 4    1  0.1701380E-008  0.3373269E+03  0.7818608E-02  0.1067940E+00
         -2   -1    0    0    0  501 -0.00000000000E+00  0.00000000000E+00  0.28657468320E+03  0.28657468321E+03  0.25500000000E-02 0.  1.
          2   -1    0    0  501    0  0.00000000000E+00 -0.00000000000E+00 -0.21609836066E+04  0.21609836066E+04  0.25500000000E-02 0. -1.
    8880022    1    1    2    0    0 -0.21031213435E+02  0.29992577498E+03  0.16844204826E+03  0.37704397499E+03  0.15294330000E+03 0.  0.
    8880022    1    1    2    0    0  0.21031213435E+02 -0.29992577498E+03 -0.20428509716E+04  0.20705143148E+04  0.15294330000E+03 0.  0.
<mgrwt>
<rscale>  0 0.33732690E+03</rscale>
<asrwt>0</asrwt>
<pdfrwt beam="1">  1        2 0.33245901E+00 0.33732690E+03</pdfrwt>
<pdfrwt beam="2">  1       -2 0.44088414E-01 0.33732690E+03</pdfrwt>
<totfact> 0.29842932E+01</totfact>
</mgrwt>
</event>
<event>
 4    1  0.1701380E-008  0.5295090E+03  0.7818608E-02  0.1006351E+00
         -2   -1    0    0    0  501 -0.00000000000E+00  0.00000000000E+00  0.10663089096E+04  0.10663089096E+04  0.25500000000E-02 0.  1.
          2   -1    0    0  501    0  0.00000000000E+00 -0.00000000000E+00 -0.23095679337E+04  0.23095679337E+04  0.25500000000E-02 0. -1.
    8880022    1    1    2    0    0  0.20623657683E+02 -0.50652022892E+03 -0.22105795169E+04  0.22731127405E+04  0.15294330000E+03 0.  0.
    8880022    1    1    2    0    0 -0.20623657683E+02  0.50652022892E+03  0.96732049280E+03  0.11027641028E+04  0.15294330000E+03 0.  0.
<mgrwt>
<rscale>  0 0.52950895E+03</rscale>
<asrwt>0</asrwt>
<pdfrwt beam="1">  1        2 0.35531814E+00 0.52950895E+03</pdfrwt>
<pdfrwt beam="2">  1       -2 0.16404753E+00 0.52950895E+03</pdfrwt>
<totfact> 0.11657465E+00</totfact>
</mgrwt>
</event>
<event>
 4    1  0.1701380E-008  0.8050322E+03  0.7818608E-02  0.9552762E-01
          2   -1    0    0  501    0  0.00000000000E+00  0.00000000000E+00  0.20455902510E+04  0.20455902510E+04  0.25500000000E-02 0. -1.
         -2   -1    0    0    0  501 -0.00000000000E+00 -0.00000000000E+00 -0.38401451242E+03  0.38401451242E+03  0.25500000000E-02 0.  1.
    8880022    1    1    2    0    0 -0.76186652054E+03 -0.21034402237E+03  0.13389588405E+04  0.15623340336E+04  0.15294330000E+03 0. -1.
    8880022    1    1    2    0    0  0.76186652054E+03  0.21034402237E+03  0.32261689801E+03  0.86727072980E+03  0.15294330000E+03 0.  0.
<mgrwt>
<rscale>  0 0.80503221E+03</rscale>
<asrwt>0</asrwt>
<pdfrwt beam="1">  1        2 0.31470619E+00 0.80503221E+03</pdfrwt>
<pdfrwt beam="2">  1       -2 0.59079156E-01 0.80503221E+03</pdfrwt>
<totfact> 0.17329783E+01</totfact>
</mgrwt>
</event>
<event>
 4    1  0.1701380E-008  0.1128433E+04  0.7818608E-02  0.9177914E-01
         -2   -1    0    0    0  501 -0.00000000000E+00  0.00000000000E+00  0.40388948038E+03  0.40388948039E+03  0.25500000000E-02 0.  1.
          2   -1    0    0  501    0  0.00000000000E+00 -0.00000000000E+00 -0.33061027932E+04  0.33061027932E+04  0.25500000000E-02 0. -1.
    8880022    1    1    2    0    0 -0.10774690023E+04 -0.29837891235E+03 -0.18506242113E+04  0.21675264821E+04  0.15294330000E+03 0.  0.
    8880022    1    1    2    0    0  0.10774690023E+04  0.29837891235E+03 -0.10515891016E+04  0.15424657915E+04  0.15294330000E+03 0.  0.
<mgrwt>
<rscale>  0 0.11284330E+04</rscale>
<asrwt>0</asrwt>
<pdfrwt beam="1">  1        2 0.50863118E+00 0.11284330E+04</pdfrwt>
<pdfrwt beam="2">  1       -2 0.62136845E-01 0.11284330E+04</pdfrwt>
<totfact> 0.26838589E+00</totfact>
</mgrwt>
</event>
<event>
 4    1  0.1701380E-008  0.4574864E+03  0.7818608E-02  0.1025513E+00
          2   -1    0    0  501    0  0.00000000000E+00  0.00000000000E+00  0.69967683542E+03  0.69967683542E+03  0.25500000000E-02 0. -1.
         -2   -1    0    0    0  501 -0.00000000000E+00 -0.00000000000E+00 -0.54717605638E+03  0.54717605639E+03  0.25500000000E-02 0.  1.
    8880022    1    1    2    0    0  0.42170285114E+03  0.89826869814E+02  0.49599824851E+03  0.67476520120E+03  0.15294330000E+03 0.  0.
    8880022    1    1    2    0    0 -0.42170285114E+03 -0.89826869814E+02 -0.34349746948E+03  0.57208769062E+03  0.15294330000E+03 0.  0.
<mgrwt>
<rscale>  0 0.45748641E+03</rscale>
<asrwt>0</asrwt>
<pdfrwt beam="1">  1        2 0.10764259E+00 0.45748641E+03</pdfrwt>
<pdfrwt beam="2">  1       -2 0.84180932E-01 0.45748641E+03</pdfrwt>
<totfact> 0.52576171E+01</totfact>
</mgrwt>
</event>
<event>
 4    1  0.1701380E-008  0.9333047E+03  0.7818608E-02  0.9384881E-01
         -2   -1    0    0    0  501 -0.00000000000E+00  0.00000000000E+00  0.10118059842E+04  0.10118059842E+04  0.25500000000E-02 0.  1.
          2   -1    0    0  501    0  0.00000000000E+00 -0.00000000000E+00 -0.39585725975E+04  0.39585725975E+04  0.25500000000E-02 0. -1.
    8880022    1    1    2    0    0 -0.61142996894E+03  0.68834534740E+03 -0.36717915944E+04  0.37885499983E+04  0.15294330000E+03 0.  0.
    8880022    1    1    2    0    0  0.61142996894E+03 -0.68834534740E+03  0.72502498107E+03  0.11818285833E+04  0.15294330000E+03 0.  0.
<mgrwt>
<rscale>  0 0.93330465E+03</rscale>
<asrwt>0</asrwt>
<pdfrwt beam="1">  1        2 0.60901116E+00 0.93330465E+03</pdfrwt>
<pdfrwt beam="2">  1       -2 0.15566246E+00 0.93330465E+03</pdfrwt>
<totfact> 0.10650900E-01</totfact>
</mgrwt>
</event>
<event>
 4    1  0.1701380E-008  0.5171629E+03  0.7818608E-02  0.1009394E+00
          2   -1    0    0  501    0  0.00000000000E+00  0.00000000000E+00  0.61556247428E+03  0.61556247428E+03  0.25500000000E-02 0. -1.
         -2   -1    0    0    0  501 -0.00000000000E+00 -0.00000000000E+00 -0.53660637391E+03  0.53660637392E+03  0.25500000000E-02 0.  1.
    8880022    1    1    2    0    0 -0.26970832535E+03  0.41391216468E+03 -0.21182617029E+03  0.55886298882E+03  0.15294330000E+03 0.  0.
    8880022    1    1    2    0    0  0.26970832535E+03 -0.41391216468E+03  0.29078227066E+03  0.59330585938E+03  0.15294330000E+03 0.  0.
<mgrwt>
<rscale>  0 0.51716295E+03</rscale>
<asrwt>0</asrwt>
<pdfrwt beam="1">  1        2 0.94701920E-01 0.51716295E+03</pdfrwt>
<pdfrwt beam="2">  1       -2 0.82554826E-01 0.51716295E+03</pdfrwt>
<totfact> 0.63828097E+01</totfact>
</mgrwt>
</event>
<event>
 4    1  0.1701380E-008  0.8985754E+03  0.7818608E-02  0.9427364E-01
          2   -1    0    0  501    0  0.00000000000E+00  0.00000000000E+00  0.50245931763E+03  0.50245931764E+03  0.25500000000E-02 0. -1.
         -2   -1    0    0    0  501 -0.00000000000E+00 -0.00000000000E+00 -0.17159441500E+04  0.17159441500E+04  0.25500000000E-02 0.  1.
    8880022    1    1    2    0    0 -0.37136447541E+03 -0.80382488140E+03 -0.32721895576E+03  0.95630011586E+03  0.15294330000E+03 0.  0.
    8880022    1    1    2    0    0  0.37136447541E+03  0.80382488140E+03 -0.88626587662E+03  0.12621033518E+04  0.15294330000E+03 0.  0.
<mgrwt>
<rscale>  0 0.89857535E+03</rscale>
<asrwt>0</asrwt>
<pdfrwt beam="1">  1        2 0.77301434E-01 0.89857535E+03</pdfrwt>
<pdfrwt beam="2">  1       -2 0.26399140E+00 0.89857535E+03</pdfrwt>
<totfact> 0.32716012E+00</totfact>
</mgrwt>
</event>
<event>
 4    1  0.1701380E-008  0.8852573E+03  0.7818608E-02  0.9444200E-01
         -2   -1    0    0    0  501 -0.00000000000E+00  0.00000000000E+00  0.57859302149E+03  0.57859302149E+03  0.25500000000E-02 0.  1.
          2   -1    0    0  501    0  0.00000000000E+00 -0.00000000000E+00 -0.29847529248E+04  0.29847529248E+04  0.25500000000E-02 0. -1.
    8880022    1    1    2    0    0 -0.74858925090E+03  0.44710514664E+03  0.11368043406E+03  0.89252662302E+03  0.15294330000E+03 0.  0.
    8880022    1    1    2    0    0  0.74858925090E+03 -0.44710514664E+03 -0.25198403374E+04  0.26708193233E+04  0.15294330000E+03 0.  0.
<mgrwt>
<rscale>  0 0.88525733E+03</rscale>
<asrwt>0</asrwt>
<pdfrwt beam="1">  1        2 0.45919275E+00 0.88525733E+03</pdfrwt>
<pdfrwt beam="2">  1       -2 0.89014313E-01 0.88525733E+03</pdfrwt>
<totfact> 0.20056601E+00</totfact>
</mgrwt>
</event>
<event>
 4    1  0.1701380E-008  0.9893399E+03  0.7818608E-02  0.9320314E-01
         -2   -1    0    0    0  501 -0.00000000000E+00  0.00000000000E+00  0.26405655036E+04  0.26405655036E+04  0.25500000000E-02 0.  1.
          2   -1    0    0  501    0  0.00000000000E+00 -0.00000000000E+00 -0.12986440005E+04  0.12986440005E+04  0.25500000000E-02 0. -1.
    8880022    1    1    2    0    0 -0.88739242548E+03  0.40980062056E+03  0.23359084388E+04  0.25367817709E+04  0.15294330000E+03 0.  0.
    8880022    1    1    2    0    0  0.88739242548E+03 -0.40980062056E+03 -0.99398693576E+03  0.14024277332E+04  0.15294330000E+03 0.  0.
<mgrwt>
<rscale>  0 0.98933994E+03</rscale>
<asrwt>0</asrwt>
<pdfrwt beam="1">  1        2 0.19979139E+00 0.98933994E+03</pdfrwt>
<pdfrwt beam="2">  1       -2 0.40624084E+00 0.98933994E+03</pdfrwt>
<totfact> 0.11409187E-01</totfact>
</mgrwt>
</event>
<event>
 4    1  0.1701380E-008  0.3495365E+03  0.7818608E-02  0.1062805E+00
          2   -1    0    0  501    0  0.00000000000E+00  0.00000000000E+00  0.15653836325E+04  0.15653836325E+04  0.25500000000E-02 0. -1.
         -2   -1    0    0    0  501 -0.00000000000E+00 -0.00000000000E+00 -0.62719604541E+03  0.62719604541E+03  0.25500000000E-02 0.  1.
    8880022    1    1    2    0    0 -0.31028918501E+03  0.50047183645E+02  0.14949069857E+04  0.15352272300E+04  0.15294330000E+03 0.  0.
    8880022    1    1    2    0    0  0.31028918501E+03 -0.50047183645E+02 -0.55671939861E+03  0.65735244788E+03  0.15294330000E+03 0.  0.
<mgrwt>
<rscale>  0 0.34953648E+03</rscale>
<asrwt>0</asrwt>
<pdfrwt beam="1">  1        2 0.24082825E+00 0.34953648E+03</pdfrwt>
<pdfrwt beam="2">  1       -2 0.96491700E-01 0.34953648E+03</pdfrwt>
<totfact> 0.11636959E+01</totfact>
</mgrwt>
</event>
<event>
 4    1  0.1701380E-008  0.7476682E+03  0.7818608E-02  0.9639016E-01
         -2   -1    0    0    0  501 -0.00000000000E+00  0.00000000000E+00  0.28403916410E+04  0.28403916410E+04  0.25500000000E-02 0.  1.
          2   -1    0    0  501    0  0.00000000000E+00 -0.00000000000E+00 -0.88598840840E+03  0.88598840840E+03  0.25500000000E-02 0. -1.
    8880022    1    1    2    0    0  0.15310799691E+03 -0.71566329466E+03 -0.66607263635E+03  0.10013293264E+04  0.15294330000E+03 0.  0.
    8880022    1    1    2    0    0 -0.15310799691E+03  0.71566329466E+03  0.26204758689E+04  0.27250507230E+04  0.15294330000E+03 0.  0.
<mgrwt>
<rscale>  0 0.74766815E+03</rscale>
<asrwt>0</asrwt>
<pdfrwt beam="1">  1        2 0.13630591E+00 0.74766815E+03</pdfrwt>
<pdfrwt beam="2">  1       -2 0.43698332E+00 0.74766815E+03</pdfrwt>
<totfact> 0.13587998E-01</totfact>
</mgrwt>
</event>
<event>
 4    1  0.1701380E-008  0.7704012E+03  0.7818608E-02  0.9603877E-01
          2   -1    0    0  501    0  0.00000000000E+00  0.00000000000E+00  0.25077634904E+04  0.25077634904E+04  0.25500000000E-02 0. -1.
         -2   -1    0    0    0  501 -0.00000000000E+00 -0.00000000000E+00 -0.33364058381E+03  0.33364058382E+03  0.25500000000E-02 0.  1.
    8880022    1    1    2    0    0 -0.70739494705E+03 -0.26404309473E+03  0.18529728652E+04  0.20067452403E+04  0.15294330000E+03 0.  0.
    8880022    1    1    2    0    0  0.70739494705E+03  0.26404309473E+03  0.32115004130E+03  0.83465883391E+03  0.15294330000E+03 0.  0.
<mgrwt>
<rscale>  0 0.77040121E+03</rscale>
<asrwt>0</asrwt>
<pdfrwt beam="1">  1        2 0.38580975E+00 0.77040121E+03</pdfrwt>
<pdfrwt beam="2">  1       -2 0.51329323E-01 0.77040121E+03</pdfrwt>
<totfact> 0.12905397E+01</totfact>
</mgrwt>
</event>
<event>
 4    1  0.1701380E-008  0.5496846E+03  0.7818608E-02  0.1001567E+00
          2   -1    0    0  501    0  0.00000000000E+00  0.00000000000E+00  0.66881931762E+03  0.66881931762E+03  0.25500000000E-02 0. -1.
         -2   -1    0    0    0  501 -0.00000000000E+00 -0.00000000000E+00 -0.62893089130E+03  0.62893089131E+03  0.25500000000E-02 0.  1.
    8880022    1    1    2    0    0 -0.46522700280E+03 -0.24965048286E+03  0.36432771275E+03  0.65946028161E+03  0.15294330000E+03 0.  0.
    8880022    1    1    2    0    0  0.46522700280E+03  0.24965048286E+03 -0.32443928643E+03  0.63828992732E+03  0.15294330000E+03 0.  0.
<mgrwt>
<rscale>  0 0.54968462E+03</rscale>
<asrwt>0</asrwt>
<pdfrwt beam="1">  1        2 0.10289528E+00 0.54968462E+03</pdfrwt>
<pdfrwt beam="2">  1       -2 0.96758599E-01 0.54968462E+03</pdfrwt>
<totfact> 0.39964830E+01</totfact>
</mgrwt>
</event>
<event>
 4    1  0.1701380E-008  0.7819910E+03  0.7818608E-02  0.9586456E-01
          2   -1    0    0  501    0  0.00000000000E+00  0.00000000000E+00  0.15577052442E+04  0.15577052442E+04  0.25500000000E-02 0. -1.
         -2   -1    0    0    0  501 -0.00000000000E+00 -0.00000000000E+00 -0.12064368391E+04  0.12064368391E+04  0.25500000000E-02 0.  1.
    8880022    1    1    2    0    0  0.75214759529E+03 -0.14964055662E+03  0.13107873925E+04  0.15263268138E+04  0.15294330000E+03 0.  0.
    8880022    1    1    2    0    0 -0.75214759529E+03  0.14964055662E+03 -0.95951898742E+03  0.12378152695E+04  0.15294330000E+03 0.  0.
<mgrwt>
<rscale>  0 0.78199102E+03</rscale>
<asrwt>0</asrwt>
<pdfrwt beam="1">  1        2 0.23964696E+00 0.78199102E+03</pdfrwt>
<pdfrwt beam="2">  1       -2 0.18560567E+00 0.78199102E+03</pdfrwt>
<totfact> 0.20052264E+00</totfact>
</mgrwt>
</event>
<event>
 4    1  0.1701380E-008  0.2965574E+03  0.7818608E-02  0.1086974E+00
         -2   -1    0    0    0  501 -0.00000000000E+00  0.00000000000E+00  0.69803156499E+02  0.69803156546E+02  0.25500000000E-02 0.  1.
          2   -1    0    0  501    0  0.00000000000E+00 -0.00000000000E+00 -0.15691178157E+04  0.15691178157E+04  0.25500000000E-02 0. -1.
    8880022    1    1    2    0    0  0.12421099920E+03 -0.22164450204E+03 -0.11134209616E+04  0.11522380606E+04  0.15294330000E+03 0. -1.
    8880022    1    1    2    0    0 -0.12421099920E+03  0.22164450204E+03 -0.38589369762E+03  0.48668291164E+03  0.15294330000E+03 0.  0.
<mgrwt>
<rscale>  0 0.29655743E+03</rscale>
<asrwt>0</asrwt>
<pdfrwt beam="1">  1        2 0.24140272E+00 0.29655743E+03</pdfrwt>
<pdfrwt beam="2">  1       -2 0.10738948E-01 0.29655743E+03</pdfrwt>
<totfact> 0.74134786E+02</totfact>
</mgrwt>
</event>
<event>
 4    1  0.1701380E-008  0.7911955E+03  0.7818608E-02  0.9572849E-01
          2   -1    0    0  501    0  0.00000000000E+00  0.00000000000E+00  0.23507126697E+04  0.23507126697E+04  0.25500000000E-02 0. -1.
         -2   -1    0    0    0  501 -0.00000000000E+00 -0.00000000000E+00 -0.10046712485E+04  0.10046712485E+04  0.25500000000E-02 0.  1.
    8880022    1    1    2    0    0 -0.74092699488E+02 -0.77272824232E+03  0.21112832978E+04  0.22546634962E+04  0.15294330000E+03 0.  0.
    8880022    1    1    2    0    0  0.74092699488E+02  0.77272824232E+03 -0.76524187663E+03  0.11007204220E+04  0.15294330000E+03 0.  0.
<mgrwt>
<rscale>  0 0.79119550E+03</rscale>
<asrwt>0</asrwt>
<pdfrwt beam="1">  1        2 0.36164810E+00 0.79119550E+03</pdfrwt>
<pdfrwt beam="2">  1       -2 0.15456481E+00 0.79119550E+03</pdfrwt>
<totfact> 0.12197849E+00</totfact>
</mgrwt>
</event>
<event>
 4    1  0.1701380E-008  0.1172301E+04  0.7818608E-02  0.9137453E-01
          2   -1    0    0  501    0  0.00000000000E+00  0.00000000000E+00  0.12620352338E+04  0.12620352338E+04  0.25500000000E-02 0. -1.
         -2   -1    0    0    0  501 -0.00000000000E+00 -0.00000000000E+00 -0.11348787392E+04  0.11348787392E+04  0.25500000000E-02 0.  1.
    8880022    1    1    2    0    0  0.96933655353E+03 -0.64131544762E+03 -0.17752347523E+03  0.11856665191E+04  0.15294330000E+03 0.  0.
    8880022    1    1    2    0    0 -0.96933655353E+03  0.64131544762E+03  0.30467996991E+03  0.12112474538E+04  0.15294330000E+03 0.  0.
<mgrwt>
<rscale>  0 0.11723014E+04</rscale>
<asrwt>0</asrwt>
<pdfrwt beam="1">  1        2 0.19415926E+00 0.11723014E+04</pdfrwt>
<pdfrwt beam="2">  1       -2 0.17459673E+00 0.11723014E+04</pdfrwt>
<totfact> 0.33512513E+00</totfact>
</mgrwt>
</event>
<event>
 4    1  0.1701380E-008  0.5730222E+03  0.7818608E-02  0.9963013E-01
         -2   -1    0    0    0  501 -0.00000000000E+00  0.00000000000E+00  0.56712849377E+03  0.56712849377E+03  0.25500000000E-02 0.  1.
          2   -1    0    0  501    0  0.00000000000E+00 -0.00000000000E+00 -0.92089632419E+03  0.92089632419E+03  0.25500000000E-02 0. -1.
    8880022    1    1    2    0    0  0.49737063254E+03  0.23996933182E+03  0.27646908278E+03  0.63623080173E+03  0.15294330000E+03 0.  0.
    8880022    1    1    2    0    0 -0.49737063254E+03 -0.23996933182E+03 -0.63023691320E+03  0.85179401624E+03  0.15294330000E+03 0. -1.
<mgrwt>
<rscale>  0 0.57302223E+03</rscale>
<asrwt>0</asrwt>
<pdfrwt beam="1">  1        2 0.14167636E+00 0.57302223E+03</pdfrwt>
<pdfrwt beam="2">  1       -2 0.87250537E-01 0.57302223E+03</pdfrwt>
<totfact> 0.33322564E+01</totfact>
</mgrwt>
</event>
<event>
 4    1  0.1701380E-008  0.3805620E+03  0.7818608E-02  0.1050726E+00
          2   -1    0    0  501    0  0.00000000000E+00  0.00000000000E+00  0.10351801378E+04  0.10351801378E+04  0.25500000000E-02 0. -1.
         -2   -1    0    0    0  501 -0.00000000000E+00 -0.00000000000E+00 -0.13155683322E+04  0.13155683322E+04  0.25500000000E-02 0.  1.
    8880022    1    1    2    0    0 -0.26497425396E+03  0.22632815768E+03 -0.12513137946E+04  0.13079042992E+04  0.15294330000E+03 0.  0.
    8880022    1    1    2    0    0  0.26497425396E+03 -0.22632815768E+03  0.97092560022E+03  0.10428441707E+04  0.15294330000E+03 0.  0.
<mgrwt>
<rscale>  0 0.38056201E+03</rscale>
<asrwt>0</asrwt>
<pdfrwt beam="1">  1        2 0.15925848E+00 0.38056201E+03</pdfrwt>
<pdfrwt beam="2">  1       -2 0.20239513E+00 0.38056201E+03</pdfrwt>
<totfact> 0.34005489E+00</totfact>
</mgrwt>
</event>
<event>
 4    1  0.1701380E-008  0.2219131E+03  0.7818608E-02  0.1132465E+00
         -2   -1    0    0    0  501 -0.00000000000E+00  0.00000000000E+00  0.64057543145E+02  0.64057543196E+02  0.25500000000E-02 0.  1.
          2   -1    0    0  501    0  0.00000000000E+00 -0.00000000000E+00 -0.24718044815E+04  0.24718044815E+04  0.25500000000E-02 0. -1.
    8880022    1    1    2    0    0  0.14292822178E+03  0.73656506230E+02 -0.22563211132E+04  0.22672076165E+04  0.15294330000E+03 0.  0.
    8880022    1    1    2    0    0 -0.14292822178E+03 -0.73656506230E+02 -0.15142582512E+03  0.26865440815E+03  0.15294330000E+03 0.  0.
<mgrwt>
<rscale>  0 0.22191307E+03</rscale>
<asrwt>0</asrwt>
<pdfrwt beam="1">  1        2 0.38027754E+00 0.22191307E+03</pdfrwt>
<pdfrwt beam="2">  1       -2 0.98550085E-02 0.22191307E+03</pdfrwt>
<totfact> 0.28679209E+02</totfact>
</mgrwt>
</event>
<event>
 4    1  0.1701380E-008  0.5313123E+03  0.7818608E-02  0.1005914E+00
          2   -1    0    0  501    0  0.00000000000E+00  0.00000000000E+00  0.14857116681E+04  0.14857116681E+04  0.25500000000E-02 0. -1.
         -2   -1    0    0    0  501 -0.00000000000E+00 -0.00000000000E+00 -0.86228239348E+03  0.86228239348E+03  0.25500000000E-02 0.  1.
    8880022    1    1    2    0    0 -0.35842585782E+03 -0.36115366241E+03  0.13483272235E+04  0.14492339418E+04  0.15294330000E+03 0.  0.
    8880022    1    1    2    0    0  0.35842585782E+03  0.36115366241E+03 -0.72489794894E+03  0.89876011973E+03  0.15294330000E+03 0.  1.
<mgrwt>
<rscale>  0 0.53131226E+03</rscale>
<asrwt>0</asrwt>
<pdfrwt beam="1">  1        2 0.22857103E+00 0.53131226E+03</pdfrwt>
<pdfrwt beam="2">  1       -2 0.13265883E+00 0.53131226E+03</pdfrwt>
<totfact> 0.56852642E+00</totfact>
</mgrwt>
</event>
<event>
 4    1  0.1701380E-008  0.1493046E+04  0.7818608E-02  0.8889090E-01
          2   -1    0    0  501    0  0.00000000000E+00  0.00000000000E+00  0.28224480170E+04  0.28224480170E+04  0.25500000000E-02 0. -1.
         -2   -1    0    0    0  501 -0.00000000000E+00 -0.00000000000E+00 -0.90543637372E+03  0.90543637372E+03  0.25500000000E-02 0.  1.
    8880022    1    1    2    0    0 -0.11611608257E+04  0.92601320803E+03  0.16246056219E+04  0.22064745646E+04  0.15294330000E+03 0.  0.
    8880022    1    1    2    0    0  0.11611608257E+04 -0.92601320803E+03  0.29240602135E+03  0.15214098261E+04  0.15294330000E+03 0.  0.
<mgrwt>
<rscale>  0 0.14930461E+04</rscale>
<asrwt>0</asrwt>
<pdfrwt beam="1">  1        2 0.43422278E+00 0.14930461E+04</pdfrwt>
<pdfrwt beam="2">  1       -2 0.13929790E+00 0.14930461E+04</pdfrwt>
<totfact> 0.77368910E-01</totfact>
</mgrwt>
</event>
<event>
 4    1  0.1701380E-008  0.8415188E+03  0.7818608E-02  0.9501791E-01
          2   -1    0    0  501    0  0.00000000000E+00  0.00000000000E+00  0.44139223971E+03  0.44139223972E+03  0.25500000000E-02 0. -1.
         -2   -1    0    0    0  501 -0.00000000000E+00 -0.00000000000E+00 -0.26743059086E+04  0.26743059086E+04  0.25500000000E-02 0.  1.
    8880022    1    1    2    0    0  0.72492654775E+03 -0.39905354479E+03 -0.13108553611E+03  0.85166736584E+03  0.15294330000E+03 0.  0.
    8880022    1    1    2    0    0 -0.72492654775E+03  0.39905354479E+03 -0.21018281328E+04  0.22640307825E+04  0.15294330000E+03 0.  1.
<mgrwt>
<rscale>  0 0.84151880E+03</rscale>
<asrwt>0</asrwt>
<pdfrwt beam="1">  1        2 0.67906500E-01 0.84151880E+03</pdfrwt>
<pdfrwt beam="2">  1       -2 0.41143167E+00 0.84151880E+03</pdfrwt>
<totfact> 0.46496433E-01</totfact>
</mgrwt>
</event>
<event>
 4    1  0.1701380E-008  0.7149647E+03  0.7818608E-02  0.9691977E-01
         -2   -1    0    0    0  501 -0.00000000000E+00  0.00000000000E+00  0.58068570752E+03  0.58068570752E+03  0.25500000000E-02 0.  1.
          2   -1    0    0  501    0  0.00000000000E+00 -0.00000000000E+00 -0.12724929570E+04  0.12724929570E+04  0.25500000000E-02 0. -1.
    8880022    1    1    2    0    0  0.86267184935E+01  0.69836122357E+03 -0.86031730197E+03  0.11186243033E+04  0.15294330000E+03 0.  0.
    8880022    1    1    2    0    0 -0.86267184935E+01 -0.69836122357E+03  0.16851005245E+03  0.73455436126E+03  0.15294330000E+03 0.  0.
<mgrwt>
<rscale>  0 0.71496466E+03</rscale>
<asrwt>0</asrwt>
<pdfrwt beam="1">  1        2 0.19576815E+00 0.71496466E+03</pdfrwt>
<pdfrwt beam="2">  1       -2 0.89336263E-01 0.71496466E+03</pdfrwt>
<totfact> 0.18894542E+01</totfact>
</mgrwt>
</event>
<event>
 4    1  0.1701380E-008  0.7992132E+03  0.7818608E-02  0.9561157E-01
          2   -1    0    0  501    0  0.00000000000E+00  0.00000000000E+00  0.25487499299E+04  0.25487499299E+04  0.25500000000E-02 0. -1.
         -2   -1    0    0    0  501 -0.00000000000E+00 -0.00000000000E+00 -0.61074549493E+03  0.61074549493E+03  0.25500000000E-02 0.  1.
    8880022    1    1    2    0    0  0.23524617884E+03 -0.74833773552E+03 -0.24408119959E+03  0.83565388534E+03  0.15294330000E+03 0.  0.
    8880022    1    1    2    0    0 -0.23524617884E+03  0.74833773552E+03  0.21820856345E+04  0.23238415395E+04  0.15294330000E+03 0.  0.
<mgrwt>
<rscale>  0 0.79921323E+03</rscale>
<asrwt>0</asrwt>
<pdfrwt beam="1">  1        2 0.39211537E+00 0.79921323E+03</pdfrwt>
<pdfrwt beam="2">  1       -2 0.93960846E-01 0.79921323E+03</pdfrwt>
<totfact> 0.32505316E+00</totfact>
</mgrwt>
</event>
<event>
 4    1  0.1701380E-008  0.7517324E+03  0.7818608E-02  0.9632636E-01
         -2   -1    0    0    0  501 -0.00000000000E+00  0.00000000000E+00  0.53798075372E+03  0.53798075373E+03  0.25500000000E-02 0.  1.
          2   -1    0    0  501    0  0.00000000000E+00 -0.00000000000E+00 -0.19212748079E+04  0.19212748079E+04  0.25500000000E-02 0. -1.
    8880022    1    1    2    0    0  0.47197567459E+03 -0.56475567361E+03 -0.15195009123E+04  0.16952830690E+04  0.15294330000E+03 0.  0.
    8880022    1    1    2    0    0 -0.47197567459E+03  0.56475567361E+03  0.13620685819E+03  0.76397249264E+03  0.15294330000E+03 0.  0.
<mgrwt>
<rscale>  0 0.75173244E+03</rscale>
<asrwt>0</asrwt>
<pdfrwt beam="1">  1        2 0.29558074E+00 0.75173244E+03</pdfrwt>
<pdfrwt beam="2">  1       -2 0.82766271E-01 0.75173244E+03</pdfrwt>
<totfact> 0.97742565E+00</totfact>
</mgrwt>
</event>
<event>
 4    1  0.1701380E-008  0.1288275E+04  0.7818608E-02  0.9038915E-01
         -2   -1    0    0    0  501 -0.00000000000E+00  0.00000000000E+00  0.92315458625E+03  0.92315458625E+03  0.25500000000E-02 0.  1.
          2   -1    0    0  501    0  0.00000000000E+00 -0.00000000000E+00 -0.20777582961E+04  0.20777582961E+04  0.25500000000E-02 0. -1.
    8880022    1    1    2    0    0  0.93905968652E+03  0.86857817102E+03 -0.11280689081E+04  0.17123645198E+04  0.15294330000E+03 0.  0.
    8880022    1    1    2    0    0 -0.93905968652E+03 -0.86857817102E+03 -0.26534801720E+02  0.12885483626E+04  0.15294330000E+03 0.  0.
<mgrwt>
<rscale>  0 0.12882751E+04</rscale>
<asrwt>0</asrwt>
<pdfrwt beam="1">  1        2 0.31965512E+00 0.12882751E+04</pdfrwt>
<pdfrwt beam="2">  1       -2 0.14202378E+00 0.12882751E+04</pdfrwt>
<totfact> 0.20190294E+00</totfact>
</mgrwt>
</event>
<event>
 4    1  0.1701380E-008  0.4067677E+03  0.7818608E-02  0.1041461E+00
         -2   -1    0    0    0  501 -0.00000000000E+00  0.00000000000E+00  0.19096105616E+03  0.19096105618E+03  0.25500000000E-02 0.  1.
          2   -1    0    0  501    0  0.00000000000E+00 -0.00000000000E+00 -0.36929968994E+04  0.36929968994E+04  0.25500000000E-02 0. -1.
    8880022    1    1    2    0    0 -0.36027213815E+03  0.11078057035E+03 -0.34499750850E+04  0.34738722038E+04  0.15294330000E+03 0.  0.
    8880022    1    1    2    0    0  0.36027213815E+03 -0.11078057035E+03 -0.52060758316E+02  0.41008575184E+03  0.15294330000E+03 0.  0.
<mgrwt>
<rscale>  0 0.40676775E+03</rscale>
<asrwt>0</asrwt>
<pdfrwt beam="1">  1        2 0.56815332E+00 0.40676775E+03</pdfrwt>
<pdfrwt beam="2">  1       -2 0.29378627E-01 0.40676775E+03</pdfrwt>
<totfact> 0.75456047E+00</totfact>
</mgrwt>
</event>
<event>
 4    1  0.1701380E-008  0.9077254E+03  0.7818608E-02  0.9415976E-01
          2   -1    0    0  501    0  0.00000000000E+00  0.00000000000E+00  0.28254828129E+04  0.28254828129E+04  0.25500000000E-02 0. -1.
         -2   -1    0    0    0  501 -0.00000000000E+00 -0.00000000000E+00 -0.63706718418E+03  0.63706718419E+03  0.25500000000E-02 0.  1.
    8880022    1    1    2    0    0  0.68284708484E+03 -0.57818122896E+03  0.23690743072E+04  0.25370215610E+04  0.15294330000E+03 0.  0.
    8880022    1    1    2    0    0 -0.68284708484E+03  0.57818122896E+03 -0.18065867855E+03  0.92552843605E+03  0.15294330000E+03 0.  0.
<mgrwt>
<rscale>  0 0.90772536E+03</rscale>
<asrwt>0</asrwt>
<pdfrwt beam="1">  1        2 0.43468967E+00 0.90772536E+03</pdfrwt>
<pdfrwt beam="2">  1       -2 0.98010335E-01 0.90772536E+03</pdfrwt>
<totfact> 0.19921267E+00</totfact>
</mgrwt>
</event>
<event>
 4    1  0.1701380E-008  0.8269194E+03  0.7818608E-02  0.9521850E-01
          2   -1    0    0  501    0  0.00000000000E+00  0.00000000000E+00  0.96054051336E+03  0.96054051336E+03  0.25500000000E-02 0. -1.
         -2   -1    0    0    0  501 -0.00000000000E+00 -0.00000000000E+00 -0.83428169065E+03  0.83428169065E+03  0.25500000000E-02 0.  1.
    8880022    1    1    2    0    0  0.23886212570E+03 -0.77675535247E+03 -0.28060070723E+03  0.87323101330E+03  0.15294330000E+03 0.  0.
    8880022    1    1    2    0    0 -0.23886212570E+03  0.77675535247E+03  0.40685952994E+03  0.92159119071E+03  0.15294330000E+03 0.  0.
<mgrwt>
<rscale>  0 0.82691937E+03</rscale>
<asrwt>0</asrwt>
<pdfrwt beam="1">  1        2 0.14777546E+00 0.82691937E+03</pdfrwt>
<pdfrwt beam="2">  1       -2 0.12835103E+00 0.82691937E+03</pdfrwt>
<totfact> 0.12085502E+01</totfact>
</mgrwt>
</event>
<event>
 4    1  0.1701380E-008  0.6770840E+03  0.7818608E-02  0.9757245E-01
         -2   -1    0    0    0  501 -0.00000000000E+00  0.00000000000E+00  0.31592282297E+03  0.31592282298E+03  0.25500000000E-02 0.  1.
          2   -1    0    0  501    0  0.00000000000E+00 -0.00000000000E+00 -0.23782760919E+04  0.23782760919E+04  0.25500000000E-02 0. -1.
    8880022    1    1    2    0    0  0.39005782123E+03 -0.53188906124E+03 -0.19008297591E+03  0.70325974441E+03  0.15294330000E+03 0.  0.
    8880022    1    1    2    0    0 -0.39005782123E+03  0.53188906124E+03 -0.18722702930E+04  0.19909391705E+04  0.15294330000E+03 0.  0.
<mgrwt>
<rscale>  0 0.67708399E+03</rscale>
<asrwt>0</asrwt>
<pdfrwt beam="1">  1        2 0.36588862E+00 0.67708399E+03</pdfrwt>
<pdfrwt beam="2">  1       -2 0.48603513E-01 0.67708399E+03</pdfrwt>
<totfact> 0.17316155E+01</totfact>
</mgrwt>
</event>
<event>
 4    1  0.1701380E-008  0.1489671E+04  0.7818608E-02  0.8891351E-01
          2   -1    0    0  501    0  0.00000000000E+00  0.00000000000E+00  0.29755655461E+04  0.29755655461E+04  0.25500000000E-02 0. -1.
         -2   -1    0    0    0  501 -0.00000000000E+00 -0.00000000000E+00 -0.88397609192E+03  0.88397609192E+03  0.25500000000E-02 0.  1.
    8880022    1    1    2    0    0 -0.18785599093E+03 -0.14698427618E+04  0.28278108787E+03  0.15162731991E+04  0.15294330000E+03 0.  0.
    8880022    1    1    2    0    0  0.18785599093E+03  0.14698427618E+04  0.18088083663E+04  0.23432684389E+04  0.15294330000E+03 0.  0.
<mgrwt>
<rscale>  0 0.14896709E+04</rscale>
<asrwt>0</asrwt>
<pdfrwt beam="1">  1        2 0.45777931E+00 0.14896709E+04</pdfrwt>
<pdfrwt beam="2">  1       -2 0.13599632E+00 0.14896709E+04</pdfrwt>
<totfact> 0.66389061E-01</totfact>
</mgrwt>
</event>
<event>
 4    1  0.1701380E-008  0.1805729E+03  0.7818608E-02  0.1167250E+00
         -2   -1    0    0    0  501 -0.00000000000E+00  0.00000000000E+00  0.90473323012E+02  0.90473323048E+02  0.25500000000E-02 0.  1.
          2   -1    0    0  501    0  0.00000000000E+00 -0.00000000000E+00 -0.15239492369E+04  0.15239492369E+04  0.25500000000E-02 0. -1.
    8880022    1    1    2    0    0 -0.94853807493E+02 -0.14754285270E+02 -0.11404715238E+02  0.18093273411E+03  0.15294330000E+03 0.  0.
    8880022    1    1    2    0    0  0.94853807493E+02  0.14754285270E+02 -0.14220711986E+04  0.14334898258E+04  0.15294330000E+03 0. -1.
<mgrwt>
<rscale>  0 0.18057294E+03</rscale>
<asrwt>0</asrwt>
<pdfrwt beam="1">  1        2 0.23445371E+00 0.18057294E+03</pdfrwt>
<pdfrwt beam="2">  1       -2 0.13918974E-01 0.18057294E+03</pdfrwt>
<totfact> 0.52292943E+02</totfact>
</mgrwt>
</event>
<event>
 4    1  0.1701380E-008  0.5803459E+03  0.7818608E-02  0.9947042E-01
         -2   -1    0    0    0  501 -0.00000000000E+00  0.00000000000E+00  0.71383915106E+03  0.71383915106E+03  0.25500000000E-02 0.  1.
          2   -1    0    0  501    0  0.00000000000E+00 -0.00000000000E+00 -0.99653064379E+03  0.99653064380E+03  0.25500000000E-02 0. -1.
    8880022    1    1    2    0    0  0.55420876618E+03  0.79135326824E+02  0.47920298735E+03  0.75262003199E+03  0.15294330000E+03 0.  0.
    8880022    1    1    2    0    0 -0.55420876618E+03 -0.79135326824E+02 -0.76189448009E+03  0.95774976286E+03  0.15294330000E+03 0.  0.
<mgrwt>
<rscale>  0 0.58034594E+03</rscale>
<asrwt>0</asrwt>
<pdfrwt beam="1">  1        2 0.15331241E+00 0.58034594E+03</pdfrwt>
<pdfrwt beam="2">  1       -2 0.10982141E+00 0.58034594E+03</pdfrwt>
<totfact> 0.17335290E+01</totfact>
</mgrwt>
</event>
<event>
 4    1  0.1701380E-008  0.8330857E+03  0.7818608E-02  0.9513324E-01
         -2   -1    0    0    0  501 -0.00000000000E+00  0.00000000000E+00  0.66154297449E+03  0.66154297449E+03  0.25500000000E-02 0.  1.
          2   -1    0    0  501    0  0.00000000000E+00 -0.00000000000E+00 -0.17716278040E+04  0.17716278040E+04  0.25500000000E-02 0. -1.
    8880022    1    1    2    0    0  0.14145751327E+03  0.80661637554E+03 -0.13319697437E+04  0.15710427291E+04  0.15294330000E+03 0.  0.
    8880022    1    1    2    0    0 -0.14145751327E+03 -0.80661637554E+03  0.22188491425E+03  0.86212804939E+03  0.15294330000E+03 0.  0.
<mgrwt>
<rscale>  0 0.83308574E+03</rscale>
<asrwt>0</asrwt>
<pdfrwt beam="1">  1        2 0.27255812E+00 0.83308574E+03</pdfrwt>
<pdfrwt beam="2">  1       -2 0.10177584E+00 0.83308574E+03</pdfrwt>
<totfact> 0.72169901E+00</totfact>
</mgrwt>
</event>
<event>
 4    1  0.1701380E-008  0.4760451E+03  0.7818608E-02  0.1020228E+00
         -2   -1    0    0    0  501 -0.00000000000E+00  0.00000000000E+00  0.87319271366E+03  0.87319271366E+03  0.25500000000E-02 0.  1.
          2   -1    0    0  501    0  0.00000000000E+00 -0.00000000000E+00 -0.69454044988E+03  0.69454044989E+03  0.25500000000E-02 0. -1.
    8880022    1    1    2    0    0 -0.54290171224E+02 -0.44752639812E+03  0.70968593958E+03  0.85456017082E+03  0.15294330000E+03 0.  0.
    8880022    1    1    2    0    0  0.54290171224E+02  0.44752639812E+03 -0.53103367580E+03  0.71317299273E+03  0.15294330000E+03 0.  0.
<mgrwt>
<rscale>  0 0.47604512E+03</rscale>
<asrwt>0</asrwt>
<pdfrwt beam="1">  1        2 0.10685238E+00 0.47604512E+03</pdfrwt>
<pdfrwt beam="2">  1       -2 0.13433734E+00 0.47604512E+03</pdfrwt>
<totfact> 0.17335155E+01</totfact>
</mgrwt>
</event>
<event>
 4    1  0.1701380E-008  0.9705802E+03  0.7818608E-02  0.9341414E-01
         -2   -1    0    0    0  501 -0.00000000000E+00  0.00000000000E+00  0.61170871489E+03  0.61170871489E+03  0.25500000000E-02 0.  1.
          2   -1    0    0  501    0  0.00000000000E+00 -0.00000000000E+00 -0.44173130918E+04  0.44173130918E+04  0.25500000000E-02 0. -1.
    8880022    1    1    2    0    0  0.41086775032E+03 -0.86592263677E+03  0.12660252534E+03  0.97880241804E+03  0.15294330000E+03 0.  0.
    8880022    1    1    2    0    0 -0.41086775032E+03  0.86592263677E+03 -0.39322069023E+04  0.40502193887E+04  0.15294330000E+03 0.  0.
<mgrwt>
<rscale>  0 0.97058023E+03</rscale>
<asrwt>0</asrwt>
<pdfrwt beam="1">  1        2 0.67958661E+00 0.97058023E+03</pdfrwt>
<pdfrwt beam="2">  1       -2 0.94109036E-01 0.97058023E+03</pdfrwt>
<totfact> 0.15158392E-01</totfact>
</mgrwt>
</event>
<event>
 4    1  0.1701380E-008  0.8485438E+03  0.7818608E-02  0.9492293E-01
          2   -1    0    0  501    0  0.00000000000E+00  0.00000000000E+00  0.14905330959E+04  0.14905330959E+04  0.25500000000E-02 0. -1.
         -2   -1    0    0    0  501 -0.00000000000E+00 -0.00000000000E+00 -0.11117069376E+04  0.11117069376E+04  0.25500000000E-02 0.  1.
    8880022    1    1    2    0    0  0.83317411913E+03  0.49556263917E+02  0.11678286622E+04  0.14435547698E+04  0.15294330000E+03 0.  0.
    8880022    1    1    2    0    0 -0.83317411913E+03 -0.49556263917E+02 -0.78900250388E+03  0.11586852637E+04  0.15294330000E+03 0.  0.
<mgrwt>
<rscale>  0 0.84854381E+03</rscale>
<asrwt>0</asrwt>
<pdfrwt beam="1">  1        2 0.22931278E+00 0.84854381E+03</pdfrwt>
<pdfrwt beam="2">  1       -2 0.17103184E+00 0.84854381E+03</pdfrwt>
<totfact> 0.27274547E+00</totfact>
</mgrwt>
</event>
<event>
 4    1  0.1701380E-008  0.2570830E+03  0.7818608E-02  0.1108909E+00
         -2   -1    0    0    0  501 -0.00000000000E+00  0.00000000000E+00  0.20699548031E+03  0.20699548032E+03  0.25500000000E-02 0.  1.
          2   -1    0    0  501    0  0.00000000000E+00 -0.00000000000E+00 -0.18055869491E+04  0.18055869491E+04  0.25500000000E-02 0. -1.
    8880022    1    1    2    0    0 -0.69806079230E+02  0.19449192550E+03 -0.17122882676E+04  0.17314799341E+04  0.15294330000E+03 0.  0.
    8880022    1    1    2    0    0  0.69806079230E+02 -0.19449192550E+03  0.11369679885E+03  0.28110249530E+03  0.15294330000E+03 0.  0.
<mgrwt>
<rscale>  0 0.25708296E+03</rscale>
<asrwt>0</asrwt>
<pdfrwt beam="1">  1        2 0.27778260E+00 0.25708296E+03</pdfrwt>
<pdfrwt beam="2">  1       -2 0.31845460E-01 0.25708296E+03</pdfrwt>
<totfact> 0.87459378E+01</totfact>
</mgrwt>
</event>
<event>
 4    1  0.1701380E-008  0.5515552E+03  0.7818608E-02  0.1001135E+00
         -2   -1    0    0    0  501 -0.00000000000E+00  0.00000000000E+00  0.11958645397E+04  0.11958645397E+04  0.25500000000E-02 0.  1.
          2   -1    0    0  501    0  0.00000000000E+00 -0.00000000000E+00 -0.82100342899E+03  0.82100342899E+03  0.25500000000E-02 0. -1.
    8880022    1    1    2    0    0  0.41388956838E+03  0.33093338458E+03 -0.65032888742E+03  0.85272550957E+03  0.15294330000E+03 0.  0.
    8880022    1    1    2    0    0 -0.41388956838E+03 -0.33093338458E+03  0.10251899981E+04  0.11641424591E+04  0.15294330000E+03 0.  0.
<mgrwt>
<rscale>  0 0.55155519E+03</rscale>
<asrwt>0</asrwt>
<pdfrwt beam="1">  1        2 0.12630822E+00 0.55155519E+03</pdfrwt>
<pdfrwt beam="2">  1       -2 0.18397916E+00 0.55155519E+03</pdfrwt>
<totfact> 0.59514005E+00</totfact>
</mgrwt>
</event>
<event>
 4    1  0.1701380E-008  0.1549667E+04  0.7818608E-02  0.8852081E-01
         -2   -1    0    0    0  501 -0.00000000000E+00  0.00000000000E+00  0.11713325709E+04  0.11713325709E+04  0.25500000000E-02 0.  1.
          2   -1    0    0  501    0  0.00000000000E+00 -0.00000000000E+00 -0.34253477385E+04  0.34253477385E+04  0.25500000000E-02 0. -1.
    8880022    1    1    2    0    0 -0.14681739163E+04  0.47174188879E+03  0.32924449957E+03  0.15842564981E+04  0.15294330000E+03 0.  0.
    8880022    1    1    2    0    0  0.14681739163E+04 -0.47174188879E+03 -0.25832596671E+04  0.30124238113E+04  0.15294330000E+03 0.  0.
<mgrwt>
<rscale>  0 0.15496666E+04</rscale>
<asrwt>0</asrwt>
<pdfrwt beam="1">  1        2 0.52697657E+00 0.15496666E+04</pdfrwt>
<pdfrwt beam="2">  1       -2 0.18020501E+00 0.15496666E+04</pdfrwt>
<totfact> 0.15603661E-01</totfact>
</mgrwt>
</event>
<event>
 4    1  0.1701380E-008  0.6312113E+03  0.7818608E-02  0.9842688E-01
         -2   -1    0    0    0  501 -0.00000000000E+00  0.00000000000E+00  0.17092155305E+03  0.17092155307E+03  0.25500000000E-02 0.  1.
          2   -1    0    0  501    0  0.00000000000E+00 -0.00000000000E+00 -0.27927736917E+04  0.27927736917E+04  0.25500000000E-02 0. -1.
    8880022    1    1    2    0    0  0.57634064840E+03 -0.20704479936E+03 -0.19134493636E+04  0.20148737459E+04  0.15294330000E+03 0.  0.
    8880022    1    1    2    0    0 -0.57634064840E+03  0.20704479936E+03 -0.70840277500E+03  0.94882149880E+03  0.15294330000E+03 0.  0.
<mgrwt>
<rscale>  0 0.63121133E+03</rscale>
<asrwt>0</asrwt>
<pdfrwt beam="1">  1        2 0.42965746E+00 0.63121133E+03</pdfrwt>
<pdfrwt beam="2">  1       -2 0.26295625E-01 0.63121133E+03</pdfrwt>
<totfact> 0.32722727E+01</totfact>
</mgrwt>
</event>
<event>
 4    1  0.1701380E-008  0.7319631E+03  0.7818608E-02  0.9664080E-01
          2   -1    0    0  501    0  0.00000000000E+00  0.00000000000E+00  0.39671870479E+04  0.39671870479E+04  0.25500000000E-02 0. -1.
         -2   -1    0    0    0  501 -0.00000000000E+00 -0.00000000000E+00 -0.17756663378E+03  0.17756663379E+03  0.25500000000E-02 0.  1.
    8880022    1    1    2    0    0  0.56664064646E+03  0.43737482569E+03  0.29088749421E+04  0.29995538738E+04  0.15294330000E+03 0.  0.
    8880022    1    1    2    0    0 -0.56664064646E+03 -0.43737482569E+03  0.88074547200E+03  0.11451998078E+04  0.15294330000E+03 0.  0.
<mgrwt>
<rscale>  0 0.73196312E+03</rscale>
<asrwt>0</asrwt>
<pdfrwt beam="1">  1        2 0.61033643E+00 0.73196312E+03</pdfrwt>
<pdfrwt beam="2">  1       -2 0.27317945E-01 0.73196312E+03</pdfrwt>
<totfact> 0.49090494E+00</totfact>
</mgrwt>
</event>
<event>
 4    1  0.1701380E-008  0.7633331E+03  0.7818608E-02  0.9614662E-01
          2   -1    0    0  501    0  0.00000000000E+00  0.00000000000E+00  0.12004603525E+04  0.12004603525E+04  0.25500000000E-02 0. -1.
         -2   -1    0    0    0  501 -0.00000000000E+00 -0.00000000000E+00 -0.23722706975E+04  0.23722706975E+04  0.25500000000E-02 0.  1.
    8880022    1    1    2    0    0  0.36514486831E+03 -0.65265228247E+03 -0.21790738944E+04  0.23089046033E+04  0.15294330000E+03 0.  0.
    8880022    1    1    2    0    0 -0.36514486831E+03  0.65265228247E+03  0.10072635494E+04  0.12638264468E+04  0.15294330000E+03 0.  0.
<mgrwt>
<rscale>  0 0.76333311E+03</rscale>
<asrwt>0</asrwt>
<pdfrwt beam="1">  1        2 0.18468621E+00 0.76333311E+03</pdfrwt>
<pdfrwt beam="2">  1       -2 0.36496472E+00 0.76333311E+03</pdfrwt>
<totfact> 0.25137610E-01</totfact>
</mgrwt>
</event>
<event>
 4    1  0.2620497E-008  0.9663315E+03  0.7818608E-02  0.9346263E-01
          2   -1    0    0  501    0  0.00000000000E+00  0.00000000000E+00  0.16830306252E+04  0.16830306252E+04  0.25500000000E-02 0. -1.
         -2   -1    0    0    0  501 -0.00000000000E+00 -0.00000000000E+00 -0.19221308073E+04  0.19221308073E+04  0.25500000000E-02 0.  1.
    8880022    1    1    2    0    0 -0.94052283560E+03 -0.16069109440E+03  0.14007706806E+04  0.17017505648E+04  0.15294330000E+03 0.  0.
    8880022    1    1    2    0    0  0.94052283560E+03  0.16069109440E+03 -0.16398708627E+04  0.19034108677E+04  0.15294330000E+03 0.  0.
<mgrwt>
<rscale>  0 0.96633146E+03</rscale>
<asrwt>0</asrwt>
<pdfrwt beam="1">  1        2 0.25892779E+00 0.96633146E+03</pdfrwt>
<pdfrwt beam="2">  1       -2 0.29571243E+00 0.96633146E+03</pdfrwt>
<totfact> 0.34248905E-01</totfact>
</mgrwt>
</event>
<event>
 4    1  0.1701380E-008  0.8909018E+03  0.7818608E-02  0.9437027E-01
          2   -1    0    0  501    0  0.00000000000E+00  0.00000000000E+00  0.28575322220E+04  0.28575322220E+04  0.25500000000E-02 0. -1.
         -2   -1    0    0    0  501 -0.00000000000E+00 -0.00000000000E+00 -0.84569469193E+03  0.84569469193E+03  0.25500000000E-02 0.  1.
    8880022    1    1    2    0    0 -0.86631868764E+03  0.14073481838E+03 -0.51145653877E+03  0.10272749397E+04  0.15294330000E+03 0.  0.
    8880022    1    1    2    0    0  0.86631868764E+03 -0.14073481838E+03  0.25232940689E+04  0.26759519743E+04  0.15294330000E+03 0.  0.
<mgrwt>
<rscale>  0 0.89090180E+03</rscale>
<asrwt>0</asrwt>
<pdfrwt beam="1">  1        2 0.43962035E+00 0.89090180E+03</pdfrwt>
<pdfrwt beam="2">  1       -2 0.13010687E+00 0.89090180E+03</pdfrwt>
<totfact> 0.95550755E-01</totfact>
</mgrwt>
</event>
<event>
 4    1  0.1701380E-008  0.1245206E+04  0.7818608E-02  0.9074182E-01
         -2   -1    0    0    0  501 -0.00000000000E+00  0.00000000000E+00  0.13919645020E+04  0.13919645020E+04  0.25500000000E-02 0.  1.
          2   -1    0    0  501    0  0.00000000000E+00 -0.00000000000E+00 -0.13578823438E+04  0.13578823438E+04  0.25500000000E-02 0. -1.
    8880022    1    1    2    0    0 -0.15592364936E+03  0.12259017391E+04  0.59982515832E+03  0.13821465667E+04  0.15294330000E+03 0.  0.
    8880022    1    1    2    0    0  0.15592364936E+03 -0.12259017391E+04 -0.56574300010E+03  0.13677002791E+04  0.15294330000E+03 0.  0.
<mgrwt>
<rscale>  0 0.12452064E+04</rscale>
<asrwt>0</asrwt>
<pdfrwt beam="1">  1        2 0.20890498E+00 0.12452064E+04</pdfrwt>
<pdfrwt beam="2">  1       -2 0.21414839E+00 0.12452064E+04</pdfrwt>
<totfact> 0.15914847E+00</totfact>
</mgrwt>
</event>
<event>
 4    1  0.1701380E-008  0.3973465E+03  0.7818608E-02  0.1044702E+00
          2   -1    0    0  501    0  0.00000000000E+00  0.00000000000E+00  0.76479099808E+03  0.76479099808E+03  0.25500000000E-02 0. -1.
         -2   -1    0    0    0  501 -0.00000000000E+00 -0.00000000000E+00 -0.38318182647E+03  0.38318182648E+03  0.25500000000E-02 0.  1.
    8880022    1    1    2    0    0 -0.10802279345E+03 -0.35046206614E+03 -0.19901851476E+03  0.44440140182E+03  0.15294330000E+03 0.  0.
    8880022    1    1    2    0    0  0.10802279345E+03  0.35046206614E+03  0.58062768637E+03  0.70357142274E+03  0.15294330000E+03 0.  0.
<mgrwt>
<rscale>  0 0.39734649E+03</rscale>
<asrwt>0</asrwt>
<pdfrwt beam="1">  1        2 0.11766015E+00 0.39734649E+03</pdfrwt>
<pdfrwt beam="2">  1       -2 0.58951051E-01 0.39734649E+03</pdfrwt>
<totfact> 0.10252755E+02</totfact>
</mgrwt>
</event>
<event>
 4    1  0.1701380E-008  0.8688975E+03  0.7818608E-02  0.9465319E-01
         -2   -1    0    0    0  501 -0.00000000000E+00  0.00000000000E+00  0.10176774373E+04  0.10176774373E+04  0.25500000000E-02 0.  1.
          2   -1    0    0  501    0  0.00000000000E+00 -0.00000000000E+00 -0.19826673390E+04  0.19826673390E+04  0.25500000000E-02 0. -1.
    8880022    1    1    2    0    0 -0.70727276087E+03 -0.48099518543E+03  0.70427608924E+03  0.11184755650E+04  0.15294330000E+03 0.  0.
    8880022    1    1    2    0    0  0.70727276087E+03  0.48099518543E+03 -0.16692659910E+04  0.18818692113E+04  0.15294330000E+03 0.  0.
<mgrwt>
<rscale>  0 0.86889745E+03</rscale>
<asrwt>0</asrwt>
<pdfrwt beam="1">  1        2 0.30502574E+00 0.86889745E+03</pdfrwt>
<pdfrwt beam="2">  1       -2 0.15656576E+00 0.86889745E+03</pdfrwt>
<totfact> 0.18560135E+00</totfact>
</mgrwt>
</event>
<event>
 4    1  0.1701380E-008  0.4877118E+03  0.7818608E-02  0.1017037E+00
          2   -1    0    0  501    0  0.00000000000E+00  0.00000000000E+00  0.66656487970E+03  0.66656487971E+03  0.25500000000E-02 0. -1.
         -2   -1    0    0    0  501 -0.00000000000E+00 -0.00000000000E+00 -0.76508313726E+03  0.76508313726E+03  0.25500000000E-02 0.  1.
    8880022    1    1    2    0    0  0.45115981801E+03  0.10452730019E+03  0.47362658952E+03  0.67984184719E+03  0.15294330000E+03 0. -1.
    8880022    1    1    2    0    0 -0.45115981801E+03 -0.10452730019E+03 -0.57214484708E+03  0.75180616978E+03  0.15294330000E+03 0.  0.
<mgrwt>
<rscale>  0 0.48771179E+03</rscale>
<asrwt>0</asrwt>
<pdfrwt beam="1">  1        2 0.10254844E+00 0.48771179E+03</pdfrwt>
<pdfrwt beam="2">  1       -2 0.11770510E+00 0.48771179E+03</pdfrwt>
<totfact> 0.25305103E+01</totfact>
</mgrwt>
</event>
<event>
 4    1  0.1701380E-008  0.6271121E+03  0.7818608E-02  0.9850701E-01
         -2   -1    0    0    0  501 -0.00000000000E+00  0.00000000000E+00  0.20909341564E+04  0.20909341564E+04  0.25500000000E-02 0.  1.
          2   -1    0    0  501    0  0.00000000000E+00 -0.00000000000E+00 -0.30012996106E+03  0.30012996107E+03  0.25500000000E-02 0. -1.
    8880022    1    1    2    0    0 -0.31514242734E+03  0.52015690159E+03  0.16492570088E+03  0.64843665196E+03  0.15294330000E+03 0.  0.
    8880022    1    1    2    0    0  0.31514242734E+03 -0.52015690159E+03  0.16258784944E+04  0.17426274655E+04  0.15294330000E+03 0.  1.
<mgrwt>
<rscale>  0 0.62711212E+03</rscale>
<asrwt>0</asrwt>
<pdfrwt beam="1">  1        2 0.46173838E-01 0.62711212E+03</pdfrwt>
<pdfrwt beam="2">  1       -2 0.32168219E+00 0.62711212E+03</pdfrwt>
<totfact> 0.27344702E+00</totfact>
</mgrwt>
</event>
<event>
 4    1  0.1701380E-008  0.1765691E+04  0.7818608E-02  0.8724760E-01
         -2   -1    0    0    0  501 -0.00000000000E+00  0.00000000000E+00  0.22589357721E+04  0.22589357721E+04  0.25500000000E-02 0.  1.
          2   -1    0    0  501    0  0.00000000000E+00 -0.00000000000E+00 -0.22380560055E+04  0.22380560055E+04  0.25500000000E-02 0. -1.
    8880022    1    1    2    0    0  0.15870836987E+04  0.75857613119E+03  0.14025614597E+04  0.22549595817E+04  0.15294330000E+03 0.  0.
    8880022    1    1    2    0    0 -0.15870836987E+04 -0.75857613119E+03 -0.13816816931E+04  0.22420321959E+04  0.15294330000E+03 0.  0.
<mgrwt>
<rscale>  0 0.17656908E+04</rscale>
<asrwt>0</asrwt>
<pdfrwt beam="1">  1        2 0.34431631E+00 0.17656908E+04</pdfrwt>
<pdfrwt beam="2">  1       -2 0.34752858E+00 0.17656908E+04</pdfrwt>
<totfact> 0.72013712E-02</totfact>
</mgrwt>
</event>
<event>
 4    1  0.1701380E-008  0.2078517E+04  0.7818608E-02  0.8570766E-01
          2   -1    0    0  501    0  0.00000000000E+00  0.00000000000E+00  0.28918191093E+04  0.28918191093E+04  0.25500000000E-02 0. -1.
         -2   -1    0    0    0  501 -0.00000000000E+00 -0.00000000000E+00 -0.16446322398E+04  0.16446322398E+04  0.25500000000E-02 0.  1.
    8880022    1    1    2    0    0  0.92704617515E+03  0.18540299569E+04 -0.62973371824E+02  0.20794708439E+04  0.15294330000E+03 0.  0.
    8880022    1    1    2    0    0 -0.92704617515E+03 -0.18540299569E+04  0.13101602413E+04  0.24569805052E+04  0.15294330000E+03 0.  0.
<mgrwt>
<rscale>  0 0.20785171E+04</rscale>
<asrwt>0</asrwt>
<pdfrwt beam="1">  1        2 0.44489524E+00 0.20785171E+04</pdfrwt>
<pdfrwt beam="2">  1       -2 0.25302035E+00 0.20785171E+04</pdfrwt>
<totfact> 0.11031085E-01</totfact>
</mgrwt>
</event>
<event>
 4    1  0.1701380E-008  0.4622069E+03  0.7818608E-02  0.1024143E+00
          2   -1    0    0  501    0  0.00000000000E+00  0.00000000000E+00  0.27824110473E+04  0.27824110473E+04  0.25500000000E-02 0. -1.
         -2   -1    0    0    0  501 -0.00000000000E+00 -0.00000000000E+00 -0.10085940653E+03  0.10085940656E+03  0.25500000000E-02 0.  1.
    8880022    1    1    2    0    0 -0.33003337617E+03  0.28516937061E+03  0.20451678892E+04  0.20967467533E+04  0.15294330000E+03 0.  0.
    8880022    1    1    2    0    0  0.33003337617E+03 -0.28516937061E+03  0.63638375155E+03  0.78652370058E+03  0.15294330000E+03 0.  0.
<mgrwt>
<rscale>  0 0.46220694E+03</rscale>
<asrwt>0</asrwt>
<pdfrwt beam="1">  1        2 0.42806318E+00 0.46220694E+03</pdfrwt>
<pdfrwt beam="2">  1       -2 0.15516834E-01 0.46220694E+03</pdfrwt>
<totfact> 0.86042949E+01</totfact>
</mgrwt>
</event>
<event>
 4    1  0.1837912E-008  0.9758493E+03  0.7818608E-02  0.9335437E-01
         -2   -1    0    0    0  501 -0.00000000000E+00  0.00000000000E+00  0.15321787349E+04  0.15321787349E+04  0.25500000000E-02 0.  1.
          2   -1    0    0  501    0  0.00000000000E+00 -0.00000000000E+00 -0.23819376047E+04  0.23819376047E+04  0.25500000000E-02 0. -1.
    8880022    1    1    2    0    0  0.11634700185E+03 -0.95674111073E+03  0.12575862923E+04  0.15917930498E+04  0.15294330000E+03 0.  0.
    8880022    1    1    2    0    0 -0.11634700185E+03  0.95674111073E+03 -0.21073451620E+04  0.23223232899E+04  0.15294330000E+03 0.  0.
<mgrwt>
<rscale>  0 0.97584929E+03</rscale>
<asrwt>0</asrwt>
<pdfrwt beam="1">  1        2 0.36645194E+00 0.97584929E+03</pdfrwt>
<pdfrwt beam="2">  1       -2 0.23571981E+00 0.97584929E+03</pdfrwt>
<totfact> 0.32447874E-01</totfact>
</mgrwt>
</event>
<event>
 4    1  0.1701380E-008  0.4288112E+03  0.7818608E-02  0.1034236E+00
         -2   -1    0    0    0  501 -0.00000000000E+00  0.00000000000E+00  0.69178847236E+03  0.69178847236E+03  0.25500000000E-02 0.  1.
          2   -1    0    0  501    0  0.00000000000E+00 -0.00000000000E+00 -0.22196366395E+04  0.22196366395E+04  0.25500000000E-02 0. -1.
    8880022    1    1    2    0    0  0.40037358781E+03 -0.13723902468E+02  0.60184899503E+03  0.73898661771E+03  0.15294330000E+03 0.  0.
    8880022    1    1    2    0    0 -0.40037358781E+03  0.13723902468E+02 -0.21296971622E+04  0.21724384942E+04  0.15294330000E+03 0.  0.
<mgrwt>
<rscale>  0 0.42881116E+03</rscale>
<asrwt>0</asrwt>
<pdfrwt beam="1">  1        2 0.34148256E+00 0.42881116E+03</pdfrwt>
<pdfrwt beam="2">  1       -2 0.10642900E+00 0.42881116E+03</pdfrwt>
<totfact> 0.40258739E+00</totfact>
</mgrwt>
</event>
<event>
 4    1  0.1701380E-008  0.1620934E+04  0.7818608E-02  0.8807790E-01
          2   -1    0    0  501    0  0.00000000000E+00  0.00000000000E+00  0.82794135101E+03  0.82794135101E+03  0.25500000000E-02 0. -1.
         -2   -1    0    0    0  501 -0.00000000000E+00 -0.00000000000E+00 -0.35273491503E+04  0.35273491503E+04  0.25500000000E-02 0.  1.
    8880022    1    1    2    0    0 -0.16097670624E+04  0.11263158347E+03 -0.65993301318E+03  0.17501254537E+04  0.15294330000E+03 0.  0.
    8880022    1    1    2    0    0  0.16097670624E+04 -0.11263158347E+03 -0.20394747861E+04  0.26051650476E+04  0.15294330000E+03 0.  0.
<mgrwt>
<rscale>  0 0.16209342E+04</rscale>
<asrwt>0</asrwt>
<pdfrwt beam="1">  1        2 0.12737559E+00 0.16209342E+04</pdfrwt>
<pdfrwt beam="2">  1       -2 0.54266909E+00 0.16209342E+04</pdfrwt>
<totfact> 0.28294381E-02</totfact>
</mgrwt>
</event>
<event>
 4    1  0.1701380E-008  0.8369478E+03  0.7818608E-02  0.9508025E-01
         -2   -1    0    0    0  501 -0.00000000000E+00  0.00000000000E+00  0.71324307117E+03  0.71324307117E+03  0.25500000000E-02 0.  1.
          2   -1    0    0  501    0  0.00000000000E+00 -0.00000000000E+00 -0.11887712662E+04  0.11887712662E+04  0.25500000000E-02 0. -1.
    8880022    1    1    2    0    0  0.81451383868E+03  0.11686359475E+03  0.15875722919E+03  0.85187170631E+03  0.15294330000E+03 0.  0.
    8880022    1    1    2    0    0 -0.81451383868E+03 -0.11686359475E+03 -0.63428542422E+03  0.10501426311E+04  0.15294330000E+03 0.  0.
<mgrwt>
<rscale>  0 0.83694776E+03</rscale>
<asrwt>0</asrwt>
<pdfrwt beam="1">  1        2 0.18288789E+00 0.83694776E+03</pdfrwt>
<pdfrwt beam="2">  1       -2 0.10972970E+00 0.83694776E+03</pdfrwt>
<totfact> 0.12833492E+01</totfact>
</mgrwt>
</event>
<event>
 4    1  0.1701380E-008  0.6923786E+03  0.7818608E-02  0.9730355E-01
         -2   -1    0    0    0  501 -0.00000000000E+00  0.00000000000E+00  0.51991953083E+03  0.51991953084E+03  0.25500000000E-02 0.  1.
          2   -1    0    0  501    0  0.00000000000E+00 -0.00000000000E+00 -0.11479439617E+04  0.11479439617E+04  0.25500000000E-02 0. -1.
    8880022    1    1    2    0    0  0.66631823874E+03 -0.10961994904E+03  0.55925977179E+02  0.69463364189E+03  0.15294330000E+03 0.  0.
    8880022    1    1    2    0    0 -0.66631823874E+03  0.10961994904E+03 -0.68395040804E+03  0.97322985064E+03  0.15294330000E+03 0.  0.
<mgrwt>
<rscale>  0 0.69237864E+03</rscale>
<asrwt>0</asrwt>
<pdfrwt beam="1">  1        2 0.17660676E+00 0.69237864E+03</pdfrwt>
<pdfrwt beam="2">  1       -2 0.79987620E-01 0.69237864E+03</pdfrwt>
<totfact> 0.28839593E+01</totfact>
</mgrwt>
</event>
<event>
 4    1  0.1701380E-008  0.1288170E+04  0.7818608E-02  0.9039000E-01
         -2   -1    0    0    0  501 -0.00000000000E+00  0.00000000000E+00  0.13314123726E+04  0.13314123726E+04  0.25500000000E-02 0.  1.
          2   -1    0    0  501    0  0.00000000000E+00 -0.00000000000E+00 -0.16327185219E+04  0.16327185219E+04  0.25500000000E-02 0. -1.
    8880022    1    1    2    0    0  0.12243394908E+04 -0.37011077023E+03  0.57032679322E+03  0.14087772979E+04  0.15294330000E+03 0.  0.
    8880022    1    1    2    0    0 -0.12243394908E+04  0.37011077023E+03 -0.87163294247E+03  0.15553535966E+04  0.15294330000E+03 0.  0.
<mgrwt>
<rscale>  0 0.12881696E+04</rscale>
<asrwt>0</asrwt>
<pdfrwt beam="1">  1        2 0.25118747E+00 0.12881696E+04</pdfrwt>
<pdfrwt beam="2">  1       -2 0.20483267E+00 0.12881696E+04</pdfrwt>
<totfact> 0.12702259E+00</totfact>
</mgrwt>
</event>
<event>
 4    1  0.1701380E-008  0.9314882E+03  0.7818608E-02  0.9387054E-01
         -2   -1    0    0    0  501 -0.00000000000E+00  0.00000000000E+00  0.48149998981E+03  0.48149998982E+03  0.25500000000E-02 0.  1.
          2   -1    0    0  501    0  0.00000000000E+00 -0.00000000000E+00 -0.27580869697E+04  0.27580869697E+04  0.25500000000E-02 0. -1.
    8880022    1    1    2    0    0 -0.65943148285E+03 -0.63986612423E+03 -0.18461723953E+03  0.94960713754E+03  0.15294330000E+03 0.  0.
    8880022    1    1    2    0    0  0.65943148285E+03  0.63986612423E+03 -0.20919697404E+04  0.22899798220E+04  0.15294330000E+03 0.  0.
<mgrwt>
<rscale>  0 0.93148816E+03</rscale>
<asrwt>0</asrwt>
<pdfrwt beam="1">  1        2 0.42432106E+00 0.93148816E+03</pdfrwt>
<pdfrwt beam="2">  1       -2 0.74076923E-01 0.93148816E+03</pdfrwt>
<totfact> 0.41285233E+00</totfact>
</mgrwt>
</event>
<event>
 4    1  0.1701380E-008  0.5746512E+03  0.7818608E-02  0.9959439E-01
          2   -1    0    0  501    0  0.00000000000E+00  0.00000000000E+00  0.76906945236E+03  0.76906945237E+03  0.25500000000E-02 0. -1.
         -2   -1    0    0    0  501 -0.00000000000E+00 -0.00000000000E+00 -0.10419689122E+04  0.10419689122E+04  0.25500000000E-02 0.  1.
    8880022    1    1    2    0    0  0.54462155187E+03 -0.10109267039E+03  0.55786182142E+03  0.80089564088E+03  0.15294330000E+03 0.  0.
    8880022    1    1    2    0    0 -0.54462155187E+03  0.10109267039E+03 -0.83076128123E+03  0.10101427237E+04  0.15294330000E+03 0.  0.
<mgrwt>
<rscale>  0 0.57465121E+03</rscale>
<asrwt>0</asrwt>
<pdfrwt beam="1">  1        2 0.11831838E+00 0.57465121E+03</pdfrwt>
<pdfrwt beam="2">  1       -2 0.16030291E+00 0.57465121E+03</pdfrwt>
<totfact> 0.94603267E+00</totfact>
</mgrwt>
</event>
<event>
 4    1  0.1701380E-008  0.4937351E+03  0.7818608E-02  0.1015427E+00
          2   -1    0    0  501    0  0.00000000000E+00  0.00000000000E+00  0.23665997844E+04  0.23665997844E+04  0.25500000000E-02 0. -1.
         -2   -1    0    0    0  501 -0.00000000000E+00 -0.00000000000E+00 -0.25310118343E+03  0.25310118344E+03  0.25500000000E-02 0.  1.
    8880022    1    1    2    0    0 -0.38060560772E+03  0.27481280797E+03  0.48059149350E+02  0.49606858690E+03  0.15294330000E+03 0.  0.
    8880022    1    1    2    0    0  0.38060560772E+03 -0.27481280797E+03  0.20654394516E+04  0.21236323809E+04  0.15294330000E+03 0.  0.
<mgrwt>
<rscale>  0 0.49373511E+03</rscale>
<asrwt>0</asrwt>
<pdfrwt beam="1">  1        2 0.36409229E+00 0.49373511E+03</pdfrwt>
<pdfrwt beam="2">  1       -2 0.38938642E-01 0.49373511E+03</pdfrwt>
<totfact> 0.28202599E+01</totfact>
</mgrwt>
</event>
<event>
 4    1  0.1701380E-008  0.3995982E+03  0.7818608E-02  0.1043919E+00
          2   -1    0    0  501    0  0.00000000000E+00  0.00000000000E+00  0.29695018003E+04  0.29695018003E+04  0.25500000000E-02 0. -1.
         -2   -1    0    0    0  501 -0.00000000000E+00 -0.00000000000E+00 -0.87132287307E+02  0.87132287344E+02  0.25500000000E-02 0.  1.
    8880022    1    1    2    0    0 -0.21648115727E+03  0.29903671176E+03  0.23868403250E+04  0.24200589738E+04  0.15294330000E+03 0.  0.
    8880022    1    1    2    0    0  0.21648115727E+03 -0.29903671176E+03  0.49552918793E+03  0.63657511382E+03  0.15294330000E+03 0.  0.
<mgrwt>
<rscale>  0 0.39959817E+03</rscale>
<asrwt>0</asrwt>
<pdfrwt beam="1">  1        2 0.45684644E+00 0.39959817E+03</pdfrwt>
<pdfrwt beam="2">  1       -2 0.13404967E-01 0.39959817E+03</pdfrwt>
<totfact> 0.86461613E+01</totfact>
</mgrwt>
</event>
<event>
 4    1  0.1701380E-008  0.3110508E+03  0.7818608E-02  0.1079843E+00
          2   -1    0    0  501    0  0.00000000000E+00  0.00000000000E+00  0.43937951398E+04  0.43937951398E+04  0.25500000000E-02 0. -1.
         -2   -1    0    0    0  501 -0.00000000000E+00 -0.00000000000E+00 -0.10093042858E+03  0.10093042861E+03  0.25500000000E-02 0.  1.
    8880022    1    1    2    0    0  0.26947572698E+03 -0.27272667485E+02  0.15929199493E+03  0.34946610491E+03  0.15294330000E+03 0.  0.
    8880022    1    1    2    0    0 -0.26947572698E+03  0.27272667485E+02  0.41335727163E+04  0.41452594635E+04  0.15294330000E+03 0. -1.
<mgrwt>
<rscale>  0 0.31105083E+03</rscale>
<asrwt>0</asrwt>
<pdfrwt beam="1">  1        2 0.67596835E+00 0.31105083E+03</pdfrwt>
<pdfrwt beam="2">  1       -2 0.15527761E-01 0.31105083E+03</pdfrwt>
<totfact> 0.67253227E+00</totfact>
</mgrwt>
</event>
<event>
 4    1  0.1701380E-008  0.5448516E+03  0.7818608E-02  0.1002693E+00
         -2   -1    0    0    0  501 -0.00000000000E+00  0.00000000000E+00  0.14172437541E+03  0.14172437543E+03  0.25500000000E-02 0.  1.
          2   -1    0    0  501    0  0.00000000000E+00 -0.00000000000E+00 -0.33925123434E+04  0.33925123434E+04  0.25500000000E-02 0. -1.
    8880022    1    1    2    0    0 -0.50508690862E+03 -0.13549492420E+03 -0.53239735186E+03  0.76178097444E+03  0.15294330000E+03 0.  0.
    8880022    1    1    2    0    0  0.50508690862E+03  0.13549492420E+03 -0.27183906161E+04  0.27724557444E+04  0.15294330000E+03 0.  0.
<mgrwt>
<rscale>  0 0.54485164E+03</rscale>
<asrwt>0</asrwt>
<pdfrwt beam="1">  1        2 0.52192491E+00 0.54485164E+03</pdfrwt>
<pdfrwt beam="2">  1       -2 0.21803753E-01 0.54485164E+03</pdfrwt>
<totfact> 0.19781645E+01</totfact>
</mgrwt>
</event>
<event>
 4    1  0.1701380E-008  0.5635699E+03  0.7818608E-02  0.9984009E-01
          2   -1    0    0  501    0  0.00000000000E+00  0.00000000000E+00  0.48971691264E+03  0.48971691264E+03  0.25500000000E-02 0. -1.
         -2   -1    0    0    0  501 -0.00000000000E+00 -0.00000000000E+00 -0.92300226273E+03  0.92300226273E+03  0.25500000000E-02 0.  1.
    8880022    1    1    2    0    0 -0.51024095484E+03 -0.18404756908E+03  0.16852483609E+03  0.58822751812E+03  0.15294330000E+03 0.  0.
    8880022    1    1    2    0    0  0.51024095484E+03  0.18404756908E+03 -0.60181018618E+03  0.82449165726E+03  0.15294330000E+03 0.  0.
<mgrwt>
<rscale>  0 0.56356986E+03</rscale>
<asrwt>0</asrwt>
<pdfrwt beam="1">  1        2 0.75341064E-01 0.56356986E+03</pdfrwt>
<pdfrwt beam="2">  1       -2 0.14200035E+00 0.56356986E+03</pdfrwt>
<totfact> 0.22522068E+01</totfact>
</mgrwt>
</event>
<event>
 4    1  0.1701380E-008  0.1017806E+04  0.7818608E-02  0.9289228E-01
         -2   -1    0    0    0  501 -0.00000000000E+00  0.00000000000E+00  0.65845388037E+03  0.65845388037E+03  0.25500000000E-02 0.  1.
          2   -1    0    0  501    0  0.00000000000E+00 -0.00000000000E+00 -0.17728584241E+04  0.17728584241E+04  0.25500000000E-02 0. -1.
    8880022    1    1    2    0    0 -0.90649966931E+03 -0.43680191371E+03 -0.96508531494E+03  0.14026114503E+04  0.15294330000E+03 0. -1.
    8880022    1    1    2    0    0  0.90649966931E+03  0.43680191371E+03 -0.14931922875E+03  0.10287008542E+04  0.15294330000E+03 0.  0.
<mgrwt>
<rscale>  0 0.10178061E+04</rscale>
<asrwt>0</asrwt>
<pdfrwt beam="1">  1        2 0.27274745E+00 0.10178061E+04</pdfrwt>
<pdfrwt beam="2">  1       -2 0.10130060E+00 0.10178061E+04</pdfrwt>
<totfact> 0.71252121E+00</totfact>
</mgrwt>
</event>
<event>
 4    1  0.1701380E-008  0.1411382E+04  0.7818608E-02  0.8945621E-01
         -2   -1    0    0    0  501 -0.00000000000E+00  0.00000000000E+00  0.75803137122E+03  0.75803137122E+03  0.25500000000E-02 0.  1.
          2   -1    0    0  501    0  0.00000000000E+00 -0.00000000000E+00 -0.29244779583E+04  0.29244779583E+04  0.25500000000E-02 0. -1.
    8880022    1    1    2    0    0 -0.13393811845E+04 -0.41793047781E+03 -0.16696168651E+04  0.21862341986E+04  0.15294330000E+03 0.  0.
    8880022    1    1    2    0    0  0.13393811845E+04  0.41793047781E+03 -0.49682972197E+03  0.14962751309E+04  0.15294330000E+03 0.  0.
<mgrwt>
<rscale>  0 0.14113821E+04</rscale>
<asrwt>0</asrwt>
<pdfrwt beam="1">  1        2 0.44991968E+00 0.14113821E+04</pdfrwt>
<pdfrwt beam="2">  1       -2 0.11662021E+00 0.14113821E+04</pdfrwt>
<totfact> 0.10635538E+00</totfact>
</mgrwt>
</event>
<event>
 4    1  0.1701380E-008  0.6734958E+03  0.7818608E-02  0.9763663E-01
          2   -1    0    0  501    0  0.00000000000E+00  0.00000000000E+00  0.10878716417E+04  0.10878716417E+04  0.25500000000E-02 0. -1.
         -2   -1    0    0    0  501 -0.00000000000E+00 -0.00000000000E+00 -0.62254096501E+03  0.62254096502E+03  0.25500000000E-02 0.  1.
    8880022    1    1    2    0    0  0.65131408917E+03  0.77427035586E+02  0.72411679527E+03  0.98890938654E+03  0.15294330000E+03 0.  0.
    8880022    1    1    2    0    0 -0.65131408917E+03 -0.77427035586E+02 -0.25878611856E+03  0.72150322020E+03  0.15294330000E+03 0.  0.
<mgrwt>
<rscale>  0 0.67349584E+03</rscale>
<asrwt>0</asrwt>
<pdfrwt beam="1">  1        2 0.16736487E+00 0.67349584E+03</pdfrwt>
<pdfrwt beam="2">  1       -2 0.95775533E-01 0.67349584E+03</pdfrwt>
<totfact> 0.20804964E+01</totfact>
</mgrwt>
</event>
<event>
 4    1  0.1701380E-008  0.7012010E+03  0.7818608E-02  0.9715181E-01
         -2   -1    0    0    0  501 -0.00000000000E+00  0.00000000000E+00  0.15888233221E+04  0.15888233221E+04  0.25500000000E-02 0.  1.
          2   -1    0    0  501    0  0.00000000000E+00 -0.00000000000E+00 -0.16497617621E+04  0.16497617621E+04  0.25500000000E-02 0. -1.
    8880022    1    1    2    0    0 -0.41378943726E+03  0.54504081878E+03 -0.14900072792E+04  0.16467557614E+04  0.15294330000E+03 0. -1.
    8880022    1    1    2    0    0  0.41378943726E+03 -0.54504081878E+03  0.14290688393E+04  0.15918293228E+04  0.15294330000E+03 0.  0.
<mgrwt>
<rscale>  0 0.70120100E+03</rscale>
<asrwt>0</asrwt>
<pdfrwt beam="1">  1        2 0.25380950E+00 0.70120100E+03</pdfrwt>
<pdfrwt beam="2">  1       -2 0.24443436E+00 0.70120100E+03</pdfrwt>
<totfact> 0.76757036E-01</totfact>
</mgrwt>
</event>
<event>
 4    1  0.1701380E-008  0.8977025E+03  0.7818608E-02  0.9428458E-01
         -2   -1    0    0    0  501 -0.00000000000E+00  0.00000000000E+00  0.76245756660E+03  0.76245756660E+03  0.25500000000E-02 0.  1.
          2   -1    0    0  501    0  0.00000000000E+00 -0.00000000000E+00 -0.27770062514E+04  0.27770062514E+04  0.25500000000E-02 0. -1.
    8880022    1    1    2    0    0 -0.83769134591E+03 -0.28416781707E+03 -0.24000847048E+04  0.25624746599E+04  0.15294330000E+03 0.  0.
    8880022    1    1    2    0    0  0.83769134591E+03  0.28416781707E+03  0.38553602004E+03  0.97698915809E+03  0.15294330000E+03 0.  0.
<mgrwt>
<rscale>  0 0.89770251E+03</rscale>
<asrwt>0</asrwt>
<pdfrwt beam="1">  1        2 0.42723173E+00 0.89770251E+03</pdfrwt>
<pdfrwt beam="2">  1       -2 0.11730117E+00 0.89770251E+03</pdfrwt>
<totfact> 0.13817993E+00</totfact>
</mgrwt>
</event>
<event>
 4    1  0.1701380E-008  0.8122768E+03  0.7818608E-02  0.9542415E-01
          2   -1    0    0  501    0  0.00000000000E+00  0.00000000000E+00  0.25140919170E+04  0.25140919170E+04  0.25500000000E-02 0. -1.
         -2   -1    0    0    0  501 -0.00000000000E+00 -0.00000000000E+00 -0.43783827536E+03  0.43783827536E+03  0.25500000000E-02 0.  1.
    8880022    1    1    2    0    0 -0.66686590789E+03  0.43782615036E+03  0.19723146930E+04  0.21330304213E+04  0.15294330000E+03 0.  0.
    8880022    1    1    2    0    0  0.66686590789E+03 -0.43782615036E+03  0.10393894871E+03  0.81889977111E+03  0.15294330000E+03 0.  0.
<mgrwt>
<rscale>  0 0.81227676E+03</rscale>
<asrwt>0</asrwt>
<pdfrwt beam="1">  1        2 0.38678336E+00 0.81227676E+03</pdfrwt>
<pdfrwt beam="2">  1       -2 0.67359736E-01 0.81227676E+03</pdfrwt>
<totfact> 0.71738281E+00</totfact>
</mgrwt>
</event>
<event>
 4    1  0.1701380E-008  0.9541364E+03  0.7818608E-02  0.9360329E-01
          2   -1    0    0  501    0  0.00000000000E+00  0.00000000000E+00  0.18913285686E+04  0.18913285686E+04  0.25500000000E-02 0. -1.
         -2   -1    0    0    0  501 -0.00000000000E+00 -0.00000000000E+00 -0.73254441710E+03  0.73254441711E+03  0.25500000000E-02 0.  1.
    8880022    1    1    2    0    0 -0.54415912614E+03  0.76868429515E+03  0.13476508340E+04  0.16512235232E+04  0.15294330000E+03 0.  0.
    8880022    1    1    2    0    0  0.54415912614E+03 -0.76868429515E+03 -0.18886668249E+03  0.97264946252E+03  0.15294330000E+03 0.  0.
<mgrwt>
<rscale>  0 0.95413644E+03</rscale>
<asrwt>0</asrwt>
<pdfrwt beam="1">  1        2 0.29097362E+00 0.95413644E+03</pdfrwt>
<pdfrwt beam="2">  1       -2 0.11269914E+00 0.95413644E+03</pdfrwt>
<totfact> 0.47744987E+00</totfact>
</mgrwt>
</event>
<event>
 4    1  0.1701380E-008  0.1489210E+04  0.7818608E-02  0.8891660E-01
          2   -1    0    0  501    0  0.00000000000E+00  0.00000000000E+00  0.30185966610E+04  0.30185966610E+04  0.25500000000E-02 0. -1.
         -2   -1    0    0    0  501 -0.00000000000E+00 -0.00000000000E+00 -0.18996705540E+04  0.18996705540E+04  0.25500000000E-02 0.  1.
    8880022    1    1    2    0    0  0.10470748027E+04  0.10478501289E+04  0.24852198002E+04  0.28972512220E+04  0.15294330000E+03 0.  0.
    8880022    1    1    2    0    0 -0.10470748027E+04 -0.10478501289E+04 -0.13662936932E+04  0.20210159930E+04  0.15294330000E+03 0.  0.
<mgrwt>
<rscale>  0 0.14892103E+04</rscale>
<asrwt>0</asrwt>
<pdfrwt beam="1">  1        2 0.46439948E+00 0.14892103E+04</pdfrwt>
<pdfrwt beam="2">  1       -2 0.29225701E+00 0.14892103E+04</pdfrwt>
<totfact> 0.56630568E-02</totfact>
</mgrwt>
</event>
<event>
 4    1  0.1701380E-008  0.1379745E+04  0.7818608E-02  0.8968612E-01
         -2   -1    0    0    0  501 -0.00000000000E+00  0.00000000000E+00  0.13748285027E+04  0.13748285027E+04  0.25500000000E-02 0.  1.
          2   -1    0    0  501    0  0.00000000000E+00 -0.00000000000E+00 -0.20978155249E+04  0.20978155249E+04  0.25500000000E-02 0. -1.
    8880022    1    1    2    0    0 -0.10459886689E+04 -0.88668572217E+03 -0.13738491479E+04  0.19470893661E+04  0.15294330000E+03 0.  0.
    8880022    1    1    2    0    0  0.10459886689E+04  0.88668572217E+03  0.65086212576E+03  0.15255546615E+04  0.15294330000E+03 0.  0.
<mgrwt>
<rscale>  0 0.13797447E+04</rscale>
<asrwt>0</asrwt>
<pdfrwt beam="1">  1        2 0.32274085E+00 0.13797447E+04</pdfrwt>
<pdfrwt beam="2">  1       -2 0.21151208E+00 0.13797447E+04</pdfrwt>
<totfact> 0.62741704E-01</totfact>
</mgrwt>
</event>
<event>
 4    1  0.1701380E-008  0.9584363E+03  0.7818608E-02  0.9355344E-01
         -2   -1    0    0    0  501 -0.00000000000E+00  0.00000000000E+00  0.11016722175E+04  0.11016722175E+04  0.25500000000E-02 0.  1.
          2   -1    0    0  501    0  0.00000000000E+00 -0.00000000000E+00 -0.99610875971E+03  0.99610875972E+03  0.25500000000E-02 0. -1.
    8880022    1    1    2    0    0 -0.89574397731E+02 -0.94190497588E+03 -0.37058456075E+03  0.10275860674E+04  0.15294330000E+03 0.  0.
    8880022    1    1    2    0    0  0.89574397731E+02  0.94190497588E+03  0.47614801853E+03  0.10701949098E+04  0.15294330000E+03 0.  0.
<mgrwt>
<rscale>  0 0.95843634E+03</rscale>
<asrwt>0</asrwt>
<pdfrwt beam="1">  1        2 0.15324750E+00 0.95843634E+03</pdfrwt>
<pdfrwt beam="2">  1       -2 0.16948803E+00 0.95843634E+03</pdfrwt>
<totfact> 0.54200177E+00</totfact>
</mgrwt>
</event>
<event>
 4    1  0.1701380E-008  0.2273716E+03  0.7818608E-02  0.1128504E+00
          2   -1    0    0  501    0  0.00000000000E+00  0.00000000000E+00  0.23649429521E+04  0.23649429521E+04  0.25500000000E-02 0. -1.
         -2   -1    0    0    0  501 -0.00000000000E+00 -0.00000000000E+00 -0.23008339793E+02  0.23008339934E+02  0.25500000000E-02 0.  1.
    8880022    1    1    2    0    0  0.67965544313E+02 -0.15390545420E+03  0.90423739210E+03  0.93238571328E+03  0.15294330000E+03 0.  0.
    8880022    1    1    2    0    0 -0.67965544313E+02  0.15390545420E+03  0.14376972202E+04  0.14555655788E+04  0.15294330000E+03 0.  0.
<mgrwt>
<rscale>  0 0.22737163E+03</rscale>
<asrwt>0</asrwt>
<pdfrwt beam="1">  1        2 0.36383705E+00 0.22737163E+03</pdfrwt>
<pdfrwt beam="2">  1       -2 0.35397478E-02 0.22737163E+03</pdfrwt>
<totfact> 0.15769897E+03</totfact>
</mgrwt>
</event>
<event>
 4    1  0.1701380E-008  0.8626328E+03  0.7818608E-02  0.9473537E-01
          2   -1    0    0  501    0  0.00000000000E+00  0.00000000000E+00  0.25126969339E+04  0.25126969339E+04  0.25500000000E-02 0. -1.
         -2   -1    0    0    0  501 -0.00000000000E+00 -0.00000000000E+00 -0.34471544623E+03  0.34471544623E+03  0.25500000000E-02 0.  1.
    8880022    1    1    2    0    0  0.53569990374E+03  0.65861162967E+03  0.54772997106E+03  0.10218333718E+04  0.15294330000E+03 0.  0.
    8880022    1    1    2    0    0 -0.53569990374E+03 -0.65861162967E+03  0.16202515167E+04  0.18355790083E+04  0.15294330000E+03 0.  0.
<mgrwt>
<rscale>  0 0.86263278E+03</rscale>
<asrwt>0</asrwt>
<pdfrwt beam="1">  1        2 0.38656876E+00 0.86263278E+03</pdfrwt>
<pdfrwt beam="2">  1       -2 0.53033146E-01 0.86263278E+03</pdfrwt>
<totfact> 0.11825818E+01</totfact>
</mgrwt>
</event>
<event>
 4    1  0.1701380E-008  0.2835995E+03  0.7818608E-02  0.1093739E+00
          2   -1    0    0  501    0  0.00000000000E+00  0.00000000000E+00  0.29402208804E+04  0.29402208804E+04  0.25500000000E-02 0. -1.
         -2   -1    0    0    0  501 -0.00000000000E+00 -0.00000000000E+00 -0.16806969281E+03  0.16806969283E+03  0.25500000000E-02 0.  1.
    8880022    1    1    2    0    0 -0.23870852571E+03  0.74321833867E+01  0.28081332631E+04  0.28224175938E+04  0.15294330000E+03 0. -1.
    8880022    1    1    2    0    0  0.23870852571E+03 -0.74321833867E+01 -0.35982075485E+02  0.28587297943E+03  0.15294330000E+03 0.  0.
<mgrwt>
<rscale>  0 0.28359945E+03</rscale>
<asrwt>0</asrwt>
<pdfrwt beam="1">  1        2 0.45234164E+00 0.28359945E+03</pdfrwt>
<pdfrwt beam="2">  1       -2 0.25856878E-01 0.28359945E+03</pdfrwt>
<totfact> 0.30369613E+01</totfact>
</mgrwt>
</event>
<event>
 4    1  0.1701380E-008  0.7787220E+03  0.7818608E-02  0.9591337E-01
          2   -1    0    0  501    0  0.00000000000E+00  0.00000000000E+00  0.63663707384E+03  0.63663707385E+03  0.25500000000E-02 0. -1.
         -2   -1    0    0    0  501 -0.00000000000E+00 -0.00000000000E+00 -0.13804389376E+04  0.13804389376E+04  0.25500000000E-02 0.  1.
    8880022    1    1    2    0    0 -0.73579837244E+03 -0.20400277509E+03 -0.93342144934E+03  0.12156001120E+04  0.15294330000E+03 0.  0.
    8880022    1    1    2    0    0  0.73579837244E+03  0.20400277509E+03  0.18961958561E+03  0.80147589944E+03  0.15294330000E+03 0.  0.
<mgrwt>
<rscale>  0 0.77872205E+03</rscale>
<asrwt>0</asrwt>
<pdfrwt beam="1">  1        2 0.97944166E-01 0.77872205E+03</pdfrwt>
<pdfrwt beam="2">  1       -2 0.21237522E+00 0.77872205E+03</pdfrwt>
<totfact> 0.51959982E+00</totfact>
</mgrwt>
</event>
<event>
 4    1  0.1701380E-008  0.8589018E+03  0.7818608E-02  0.9478467E-01
          2   -1    0    0  501    0  0.00000000000E+00  0.00000000000E+00  0.24642252664E+04  0.24642252664E+04  0.25500000000E-02 0. -1.
         -2   -1    0    0    0  501 -0.00000000000E+00 -0.00000000000E+00 -0.49873760518E+03  0.49873760519E+03  0.25500000000E-02 0.  1.
    8880022    1    1    2    0    0 -0.84496236892E+03 -0.18952213092E+02  0.19194183846E+04  0.21028264740E+04  0.15294330000E+03 0.  0.
    8880022    1    1    2    0    0  0.84496236892E+03  0.18952213092E+02  0.46069276579E+02  0.86013639763E+03  0.15294330000E+03 0.  0.
<mgrwt>
<rscale>  0 0.85890177E+03</rscale>
<asrwt>0</asrwt>
<pdfrwt beam="1">  1        2 0.37911158E+00 0.85890177E+03</pdfrwt>
<pdfrwt beam="2">  1       -2 0.76728863E-01 0.85890177E+03</pdfrwt>
<totfact> 0.57083440E+00</totfact>
</mgrwt>
</event>
<event>
 4    1  0.1701380E-008  0.2759544E+03  0.7818608E-02  0.1097919E+00
         -2   -1    0    0    0  501 -0.00000000000E+00  0.00000000000E+00  0.41570892120E+03  0.41570892120E+03  0.25500000000E-02 0.  1.
          2   -1    0    0  501    0  0.00000000000E+00 -0.00000000000E+00 -0.21556093266E+04  0.21556093266E+04  0.25500000000E-02 0. -1.
    8880022    1    1    2    0    0  0.22278059159E+03 -0.55928153335E+02 -0.20997692231E+04  0.21178247315E+04  0.15294330000E+03 0.  0.
    8880022    1    1    2    0    0 -0.22278059159E+03  0.55928153335E+02  0.35986881769E+03  0.45349351625E+03  0.15294330000E+03 0.  1.
<mgrwt>
<rscale>  0 0.27595435E+03</rscale>
<asrwt>0</asrwt>
<pdfrwt beam="1">  1        2 0.33163220E+00 0.27595435E+03</pdfrwt>
<pdfrwt beam="2">  1       -2 0.63955220E-01 0.27595435E+03</pdfrwt>
<totfact> 0.14427987E+01</totfact>
</mgrwt>
</event>
<event>
 4    1  0.1701380E-008  0.9362752E+03  0.7818608E-02  0.9381338E-01
         -2   -1    0    0    0  501 -0.00000000000E+00  0.00000000000E+00  0.65635715808E+03  0.65635715809E+03  0.25500000000E-02 0.  1.
          2   -1    0    0  501    0  0.00000000000E+00 -0.00000000000E+00 -0.16891686921E+04  0.16891686921E+04  0.25500000000E-02 0. -1.
    8880022    1    1    2    0    0 -0.16894709676E+03 -0.90811698101E+03 -0.10529787037E+04  0.14090334901E+04  0.15294330000E+03 0.  0.
    8880022    1    1    2    0    0  0.16894709676E+03  0.90811698101E+03  0.20167169738E+02  0.93649236006E+03  0.15294330000E+03 0.  0.
<mgrwt>
<rscale>  0 0.93627519E+03</rscale>
<asrwt>0</asrwt>
<pdfrwt beam="1">  1        2 0.25987210E+00 0.93627519E+03</pdfrwt>
<pdfrwt beam="2">  1       -2 0.10097803E+00 0.93627519E+03</pdfrwt>
<totfact> 0.80583689E+00</totfact>
</mgrwt>
</event>
<event>
 4    1  0.1701380E-008  0.1485753E+04  0.7818608E-02  0.8893983E-01
         -2   -1    0    0    0  501 -0.00000000000E+00  0.00000000000E+00  0.27817989152E+04  0.27817989152E+04  0.25500000000E-02 0.  1.
          2   -1    0    0  501    0  0.00000000000E+00 -0.00000000000E+00 -0.12435907201E+04  0.12435907201E+04  0.25500000000E-02 0. -1.
    8880022    1    1    2    0    0 -0.14763313811E+04  0.67203867624E+02  0.19799002275E+04  0.24753721479E+04  0.15294330000E+03 0.  0.
    8880022    1    1    2    0    0  0.14763313811E+04 -0.67203867624E+02 -0.44169203247E+03  0.15500174874E+04  0.15294330000E+03 0.  0.
<mgrwt>
<rscale>  0 0.14857531E+04</rscale>
<asrwt>0</asrwt>
<pdfrwt beam="1">  1        2 0.19132165E+00 0.14857531E+04</pdfrwt>
<pdfrwt beam="2">  1       -2 0.42796905E+00 0.14857531E+04</pdfrwt>
<totfact> 0.82032633E-02</totfact>
</mgrwt>
</event>
<event>
 4    1  0.1701380E-008  0.9501543E+03  0.7818608E-02  0.9364970E-01
          2   -1    0    0  501    0  0.00000000000E+00  0.00000000000E+00  0.11244446609E+04  0.11244446609E+04  0.25500000000E-02 0. -1.
         -2   -1    0    0    0  501 -0.00000000000E+00 -0.00000000000E+00 -0.90650244083E+03  0.90650244084E+03  0.25500000000E-02 0.  1.
    8880022    1    1    2    0    0 -0.66145916037E+03 -0.66473552625E+03 -0.23435970140E+03  0.97863050400E+03  0.15294330000E+03 0.  0.
    8880022    1    1    2    0    0  0.66145916037E+03  0.66473552625E+03  0.45230192148E+03  0.10523165977E+04  0.15294330000E+03 0.  0.
<mgrwt>
<rscale>  0 0.95015430E+03</rscale>
<asrwt>0</asrwt>
<pdfrwt beam="1">  1        2 0.17299149E+00 0.95015430E+03</pdfrwt>
<pdfrwt beam="2">  1       -2 0.13946191E+00 0.95015430E+03</pdfrwt>
<totfact> 0.76074591E+00</totfact>
</mgrwt>
</event>
<event>
 4    1  0.1701380E-008  0.7524035E+03  0.7818608E-02  0.9631587E-01
          2   -1    0    0  501    0  0.00000000000E+00  0.00000000000E+00  0.80173309256E+03  0.80173309257E+03  0.25500000000E-02 0. -1.
         -2   -1    0    0    0  501 -0.00000000000E+00 -0.00000000000E+00 -0.13296738411E+04  0.13296738411E+04  0.25500000000E-02 0.  1.
    8880022    1    1    2    0    0 -0.18190612045E+02  0.73647031135E+03  0.46583082827E+03  0.88493470463E+03  0.15294330000E+03 0.  0.
    8880022    1    1    2    0    0  0.18190612045E+02 -0.73647031135E+03 -0.99377157677E+03  0.12464722290E+04  0.15294330000E+03 0.  0.
<mgrwt>
<rscale>  0 0.75240353E+03</rscale>
<asrwt>0</asrwt>
<pdfrwt beam="1">  1        2 0.12334355E+00 0.75240353E+03</pdfrwt>
<pdfrwt beam="2">  1       -2 0.20456521E+00 0.75240353E+03</pdfrwt>
<totfact> 0.43599192E+00</totfact>
</mgrwt>
</event>
<event>
 4    1  0.1701380E-008  0.1334263E+04  0.7818608E-02  0.9002827E-01
          2   -1    0    0  501    0  0.00000000000E+00  0.00000000000E+00  0.27255758709E+04  0.27255758709E+04  0.25500000000E-02 0. -1.
         -2   -1    0    0    0  501 -0.00000000000E+00 -0.00000000000E+00 -0.70800374485E+03  0.70800374485E+03  0.25500000000E-02 0.  1.
    8880022    1    1    2    0    0 -0.77839986805E+03 -0.10728274761E+04  0.53099906100E+03  0.14360420620E+04  0.15294330000E+03 0.  0.
    8880022    1    1    2    0    0  0.77839986805E+03  0.10728274761E+04  0.14865730650E+04  0.19975375538E+04  0.15294330000E+03 0.  0.
<mgrwt>
<rscale>  0 0.13342626E+04</rscale>
<asrwt>0</asrwt>
<pdfrwt beam="1">  1        2 0.41931936E+00 0.13342626E+04</pdfrwt>
<pdfrwt beam="2">  1       -2 0.10892365E+00 0.13342626E+04</pdfrwt>
<totfact> 0.16725591E+00</totfact>
</mgrwt>
</event>
<event>
 4    1  0.2021451E-008  0.9091659E+03  0.7818608E-02  0.9414196E-01
         -2   -1    0    0    0  501 -0.00000000000E+00  0.00000000000E+00  0.17076745598E+04  0.17076745598E+04  0.25500000000E-02 0.  1.
          2   -1    0    0  501    0  0.00000000000E+00 -0.00000000000E+00 -0.14950178877E+04  0.14950178877E+04  0.25500000000E-02 0. -1.
    8880022    1    1    2    0    0 -0.86709350075E+03 -0.22658313839E+03 -0.12105112827E+04  0.15139089392E+04  0.15294330000E+03 0.  0.
    8880022    1    1    2    0    0  0.86709350075E+03  0.22658313839E+03  0.14231679548E+04  0.16887835084E+04  0.15294330000E+03 0.  0.
<mgrwt>
<rscale>  0 0.90916594E+03</rscale>
<asrwt>0</asrwt>
<pdfrwt beam="1">  1        2 0.23000275E+00 0.90916594E+03</pdfrwt>
<pdfrwt beam="2">  1       -2 0.26271916E+00 0.90916594E+03</pdfrwt>
<totfact> 0.69603973E-01</totfact>
</mgrwt>
</event>
<event>
 4    1  0.1701380E-008  0.6541995E+03  0.7818608E-02  0.9798931E-01
          2   -1    0    0  501    0  0.00000000000E+00  0.00000000000E+00  0.11026232974E+04  0.11026232974E+04  0.25500000000E-02 0. -1.
         -2   -1    0    0    0  501 -0.00000000000E+00 -0.00000000000E+00 -0.54572744106E+03  0.54572744106E+03  0.25500000000E-02 0.  1.
    8880022    1    1    2    0    0 -0.63083092098E+03  0.81472180792E+02 -0.16443253383E+03  0.67454805486E+03  0.15294330000E+03 0.  0.
    8880022    1    1    2    0    0  0.63083092098E+03 -0.81472180792E+02  0.72132839016E+03  0.97380268360E+03  0.15294330000E+03 0.  0.
<mgrwt>
<rscale>  0 0.65419953E+03</rscale>
<asrwt>0</asrwt>
<pdfrwt beam="1">  1        2 0.16963435E+00 0.65419953E+03</pdfrwt>
<pdfrwt beam="2">  1       -2 0.83958069E-01 0.65419953E+03</pdfrwt>
<totfact> 0.27656016E+01</totfact>
</mgrwt>
</event>
<event>
 4    1  0.1701380E-008  0.5812338E+03  0.7818608E-02  0.9945123E-01
          2   -1    0    0  501    0  0.00000000000E+00  0.00000000000E+00  0.15941028357E+04  0.15941028357E+04  0.25500000000E-02 0. -1.
         -2   -1    0    0    0  501 -0.00000000000E+00 -0.00000000000E+00 -0.89282676582E+03  0.89282676583E+03  0.25500000000E-02 0.  1.
    8880022    1    1    2    0    0  0.10101446352E+03  0.55157696173E+03 -0.73526645846E+03  0.93725636007E+03  0.15294330000E+03 0.  0.
    8880022    1    1    2    0    0 -0.10101446352E+03 -0.55157696173E+03  0.14365425283E+04  0.15496732414E+04  0.15294330000E+03 0.  0.
<mgrwt>
<rscale>  0 0.58123379E+03</rscale>
<asrwt>0</asrwt>
<pdfrwt beam="1">  1        2 0.24524659E+00 0.58123379E+03</pdfrwt>
<pdfrwt beam="2">  1       -2 0.13735796E+00 0.58123379E+03</pdfrwt>
<totfact> 0.44909660E+00</totfact>
</mgrwt>
</event>
<event>
 4    1  0.1701380E-008  0.1115309E+04  0.7818608E-02  0.9190398E-01
          2   -1    0    0  501    0  0.00000000000E+00  0.00000000000E+00  0.25368302105E+04  0.25368302105E+04  0.25500000000E-02 0. -1.
         -2   -1    0    0    0  501 -0.00000000000E+00 -0.00000000000E+00 -0.18440860251E+04  0.18440860251E+04  0.25500000000E-02 0.  1.
    8880022    1    1    2    0    0 -0.90043085593E+02  0.11010968371E+04  0.22231491635E+04  0.24872285497E+04  0.15294330000E+03 0.  0.
    8880022    1    1    2    0    0  0.90043085593E+02 -0.11010968371E+04 -0.15304049781E+04  0.18936876859E+04  0.15294330000E+03 0.  0.
<mgrwt>
<rscale>  0 0.11153088E+04</rscale>
<asrwt>0</asrwt>
<pdfrwt beam="1">  1        2 0.39028157E+00 0.11153088E+04</pdfrwt>
<pdfrwt beam="2">  1       -2 0.28370554E+00 0.11153088E+04</pdfrwt>
<totfact> 0.13177677E-01</totfact>
</mgrwt>
</event>
<event>
 4    1  0.1701380E-008  0.7242580E+03  0.7818608E-02  0.9676624E-01
          2   -1    0    0  501    0  0.00000000000E+00  0.00000000000E+00  0.20643121976E+04  0.20643121976E+04  0.25500000000E-02 0. -1.
         -2   -1    0    0    0  501 -0.00000000000E+00 -0.00000000000E+00 -0.33245256186E+03  0.33245256187E+03  0.25500000000E-02 0.  1.
    8880022    1    1    2    0    0 -0.64558317894E+02 -0.70497532753E+03  0.28416621028E+03  0.77801033214E+03  0.15294330000E+03 0.  0.
    8880022    1    1    2    0    0  0.64558317894E+02  0.70497532753E+03  0.14476934254E+04  0.16187544273E+04  0.15294330000E+03 0.  0.
<mgrwt>
<rscale>  0 0.72425799E+03</rscale>
<asrwt>0</asrwt>
<pdfrwt beam="1">  1        2 0.31758650E+00 0.72425799E+03</pdfrwt>
<pdfrwt beam="2">  1       -2 0.51146547E-01 0.72425799E+03</pdfrwt>
<totfact> 0.23083619E+01</totfact>
</mgrwt>
</event>
<event>
 4    1  0.1701380E-008  0.7897159E+03  0.7818608E-02  0.9575023E-01
          2   -1    0    0  501    0  0.00000000000E+00  0.00000000000E+00  0.24048011192E+04  0.24048011192E+04  0.25500000000E-02 0. -1.
         -2   -1    0    0    0  501 -0.00000000000E+00 -0.00000000000E+00 -0.28269193521E+03  0.28269193522E+03  0.25500000000E-02 0.  1.
    8880022    1    1    2    0    0  0.77303742470E+03 -0.51698347644E+02  0.14472973270E+04  0.16487330848E+04  0.15294330000E+03 0.  0.
    8880022    1    1    2    0    0 -0.77303742470E+03  0.51698347644E+02  0.67481185697E+03  0.10387599696E+04  0.15294330000E+03 0.  0.
<mgrwt>
<rscale>  0 0.78971592E+03</rscale>
<asrwt>0</asrwt>
<pdfrwt beam="1">  1        2 0.36996941E+00 0.78971592E+03</pdfrwt>
<pdfrwt beam="2">  1       -2 0.43491066E-01 0.78971592E+03</pdfrwt>
<totfact> 0.20542069E+01</totfact>
</mgrwt>
</event>
<event>
 4    1  0.1701380E-008  0.1046669E+04  0.7818608E-02  0.9258790E-01
          2   -1    0    0  501    0  0.00000000000E+00  0.00000000000E+00  0.20260261040E+04  0.20260261040E+04  0.25500000000E-02 0. -1.
         -2   -1    0    0    0  501 -0.00000000000E+00 -0.00000000000E+00 -0.69046912331E+03  0.69046912332E+03  0.25500000000E-02 0.  1.
    8880022    1    1    2    0    0  0.23609105974E+03 -0.10081589836E+04  0.13003174602E+04  0.16692335592E+04  0.15294330000E+03 0.  0.
    8880022    1    1    2    0    0 -0.23609105974E+03  0.10081589836E+04  0.35239520508E+02  0.10472616682E+04  0.15294330000E+03 0.  1.
<mgrwt>
<rscale>  0 0.10466686E+04</rscale>
<asrwt>0</asrwt>
<pdfrwt beam="1">  1        2 0.31169632E+00 0.10466686E+04</pdfrwt>
<pdfrwt beam="2">  1       -2 0.10622602E+00 0.10466686E+04</pdfrwt>
<totfact> 0.45948896E+00</totfact>
</mgrwt>
</event>
<event>
 4    1  0.1701380E-008  0.1126911E+04  0.7818608E-02  0.9179352E-01
          2   -1    0    0  501    0  0.00000000000E+00  0.00000000000E+00  0.26835053168E+04  0.26835053168E+04  0.25500000000E-02 0. -1.
         -2   -1    0    0    0  501 -0.00000000000E+00 -0.00000000000E+00 -0.67480313550E+03  0.67480313550E+03  0.25500000000E-02 0.  1.
    8880022    1    1    2    0    0  0.10530426188E+04  0.37099725639E+03  0.19220763491E+04  0.22280724552E+04  0.15294330000E+03 0.  0.
    8880022    1    1    2    0    0 -0.10530426188E+04 -0.37099725639E+03  0.86625832207E+02  0.11302359970E+04  0.15294330000E+03 0.  0.
<mgrwt>
<rscale>  0 0.11269114E+04</rscale>
<asrwt>0</asrwt>
<pdfrwt beam="1">  1        2 0.41284698E+00 0.11269114E+04</pdfrwt>
<pdfrwt beam="2">  1       -2 0.10381587E+00 0.11269114E+04</pdfrwt>
<totfact> 0.20401205E+00</totfact>
</mgrwt>
</event>
<event>
 4    1  0.1701380E-008  0.4688280E+03  0.7818608E-02  0.1022252E+00
          2   -1    0    0  501    0  0.00000000000E+00  0.00000000000E+00  0.23712304700E+04  0.23712304700E+04  0.25500000000E-02 0. -1.
         -2   -1    0    0    0  501 -0.00000000000E+00 -0.00000000000E+00 -0.80384218122E+03  0.80384218122E+03  0.25500000000E-02 0.  1.
    8880022    1    1    2    0    0  0.44181987582E+03  0.34687924479E+02  0.22768949491E+04  0.23246613338E+04  0.15294330000E+03 0.  0.
    8880022    1    1    2    0    0 -0.44181987582E+03 -0.34687924479E+02 -0.70950666029E+03  0.85041131741E+03  0.15294330000E+03 0.  1.
<mgrwt>
<rscale>  0 0.46882802E+03</rscale>
<asrwt>0</asrwt>
<pdfrwt beam="1">  1        2 0.36480468E+00 0.46882802E+03</pdfrwt>
<pdfrwt beam="2">  1       -2 0.12366803E+00 0.46882802E+03</pdfrwt>
<totfact> 0.22817616E+00</totfact>
</mgrwt>
</event>
<event>
 4    1  0.1701380E-008  0.1005534E+04  0.7818608E-02  0.9302496E-01
          2   -1    0    0  501    0  0.00000000000E+00  0.00000000000E+00  0.26858858128E+04  0.26858858128E+04  0.25500000000E-02 0. -1.
         -2   -1    0    0    0  501 -0.00000000000E+00 -0.00000000000E+00 -0.77798617003E+03  0.77798617004E+03  0.25500000000E-02 0.  1.
    8880022    1    1    2    0    0  0.23576522796E+03  0.96546431214E+03 -0.29030386445E+03  0.10466014368E+04  0.15294330000E+03 0.  0.
    8880022    1    1    2    0    0 -0.23576522796E+03 -0.96546431214E+03  0.21982035072E+04  0.24172705460E+04  0.15294330000E+03 0.  0.
<mgrwt>
<rscale>  0 0.10055338E+04</rscale>
<asrwt>0</asrwt>
<pdfrwt beam="1">  1        2 0.41321320E+00 0.10055338E+04</pdfrwt>
<pdfrwt beam="2">  1       -2 0.11969018E+00 0.10055338E+04</pdfrwt>
<totfact> 0.14614083E+00</totfact>
</mgrwt>
</event>
<event>
 4    1  0.1701380E-008  0.5616063E+03  0.7818608E-02  0.9988427E-01
         -2   -1    0    0    0  501 -0.00000000000E+00  0.00000000000E+00  0.35061414396E+03  0.35061414397E+03  0.25500000000E-02 0.  1.
          2   -1    0    0  501    0  0.00000000000E+00 -0.00000000000E+00 -0.14365929734E+04  0.14365929734E+04  0.25500000000E-02 0. -1.
    8880022    1    1    2    0    0  0.19489576479E+03  0.50400950250E+03  0.33655392151E+01  0.56161634379E+03  0.15294330000E+03 0.  0.
    8880022    1    1    2    0    0 -0.19489576479E+03 -0.50400950250E+03 -0.10893443686E+04  0.12255907736E+04  0.15294330000E+03 0.  0.
<mgrwt>
<rscale>  0 0.56160626E+03</rscale>
<asrwt>0</asrwt>
<pdfrwt beam="1">  1        2 0.22101430E+00 0.56160626E+03</pdfrwt>
<pdfrwt beam="2">  1       -2 0.53940639E-01 0.56160626E+03</pdfrwt>
<totfact> 0.46630554E+01</totfact>
</mgrwt>
</event>
<event>
 4    1  0.1701380E-008  0.5137293E+03  0.7818608E-02  0.1010256E+00
         -2   -1    0    0    0  501 -0.00000000000E+00  0.00000000000E+00  0.46731372787E+03  0.46731372787E+03  0.25500000000E-02 0.  1.
          2   -1    0    0  501    0  0.00000000000E+00 -0.00000000000E+00 -0.25845273099E+04  0.25845273099E+04  0.25500000000E-02 0. -1.
    8880022    1    1    2    0    0 -0.12233661808E+03 -0.47493141161E+03 -0.24075465680E+04  0.24617469862E+04  0.15294330000E+03 0.  0.
    8880022    1    1    2    0    0  0.12233661808E+03  0.47493141161E+03  0.29033298603E+03  0.59009405153E+03  0.15294330000E+03 0.  1.
<mgrwt>
<rscale>  0 0.51372925E+03</rscale>
<asrwt>0</asrwt>
<pdfrwt beam="1">  1        2 0.39761958E+00 0.51372925E+03</pdfrwt>
<pdfrwt beam="2">  1       -2 0.71894421E-01 0.51372925E+03</pdfrwt>
<totfact> 0.60356794E+00</totfact>
</mgrwt>
</event>
<event>
 4    1  0.2208085E-008  0.9135633E+03  0.7818608E-02  0.9408784E-01
         -2   -1    0    0    0  501 -0.00000000000E+00  0.00000000000E+00  0.98068632674E+03  0.98068632674E+03  0.25500000000E-02 0.  1.
          2   -1    0    0  501    0  0.00000000000E+00 -0.00000000000E+00 -0.27466358974E+04  0.27466358974E+04  0.25500000000E-02 0. -1.
    8880022    1    1    2    0    0 -0.25710711149E+03  0.86319299094E+03 -0.24312205898E+04  0.25971968381E+04  0.15294330000E+03 0.  0.
    8880022    1    1    2    0    0  0.25710711149E+03 -0.86319299094E+03  0.66527101912E+03  0.11301253861E+04  0.15294330000E+03 0.  0.
<mgrwt>
<rscale>  0 0.91356328E+03</rscale>
<asrwt>0</asrwt>
<pdfrwt beam="1">  1        2 0.42255937E+00 0.91356328E+03</pdfrwt>
<pdfrwt beam="2">  1       -2 0.15087482E+00 0.91356328E+03</pdfrwt>
<totfact> 0.75389577E-01</totfact>
</mgrwt>
</event>
<event>
 4    1  0.1701380E-008  0.6510597E+03  0.7818608E-02  0.9804793E-01
          2   -1    0    0  501    0  0.00000000000E+00  0.00000000000E+00  0.49777298651E+03  0.49777298651E+03  0.25500000000E-02 0. -1.
         -2   -1    0    0    0  501 -0.00000000000E+00 -0.00000000000E+00 -0.19573417459E+04  0.19573417459E+04  0.25500000000E-02 0.  1.
    8880022    1    1    2    0    0 -0.62569269573E+03 -0.94846056677E+02 -0.16524515417E+04  0.17760841406E+04  0.15294330000E+03 0.  0.
    8880022    1    1    2    0    0  0.62569269573E+03  0.94846056677E+02  0.19288278224E+03  0.67903059184E+03  0.15294330000E+03 0.  0.
<mgrwt>
<rscale>  0 0.65105973E+03</rscale>
<asrwt>0</asrwt>
<pdfrwt beam="1">  1        2 0.76580460E-01 0.65105973E+03</pdfrwt>
<pdfrwt beam="2">  1       -2 0.30112950E+00 0.65105973E+03</pdfrwt>
<totfact> 0.20513138E+00</totfact>
</mgrwt>
</event>
<event>
 4    1  0.1701380E-008  0.5016440E+03  0.7818608E-02  0.1013351E+00
          2   -1    0    0  501    0  0.00000000000E+00  0.00000000000E+00  0.98907020691E+03  0.98907020692E+03  0.25500000000E-02 0. -1.
         -2   -1    0    0    0  501 -0.00000000000E+00 -0.00000000000E+00 -0.40498253551E+03  0.40498253552E+03  0.25500000000E-02 0.  1.
    8880022    1    1    2    0    0  0.32425162540E+03  0.35087885829E+03  0.71703371132E+03  0.87509090154E+03  0.15294330000E+03 0.  0.
    8880022    1    1    2    0    0 -0.32425162540E+03 -0.35087885829E+03 -0.13294603992E+03  0.51896184090E+03  0.15294330000E+03 0.  0.
<mgrwt>
<rscale>  0 0.50164404E+03</rscale>
<asrwt>0</asrwt>
<pdfrwt beam="1">  1        2 0.15216465E+00 0.50164404E+03</pdfrwt>
<pdfrwt beam="2">  1       -2 0.62305006E-01 0.50164404E+03</pdfrwt>
<totfact> 0.63670701E+01</totfact>
</mgrwt>
</event>
<event>
 4    1  0.1701380E-008  0.9685307E+03  0.7818608E-02  0.9343749E-01
          2   -1    0    0  501    0  0.00000000000E+00  0.00000000000E+00  0.13269168289E+04  0.13269168289E+04  0.25500000000E-02 0. -1.
         -2   -1    0    0    0  501 -0.00000000000E+00 -0.00000000000E+00 -0.17799093027E+04  0.17799093027E+04  0.25500000000E-02 0.  1.
    8880022    1    1    2    0    0 -0.74854084545E+03  0.59527028245E+03  0.97959867789E+03  0.13775577408E+04  0.15294330000E+03 0.  0.
    8880022    1    1    2    0    0  0.74854084545E+03 -0.59527028245E+03 -0.14325911517E+04  0.17292683908E+04  0.15294330000E+03 0.  0.
<mgrwt>
<rscale>  0 0.96853072E+03</rscale>
<asrwt>0</asrwt>
<pdfrwt beam="1">  1        2 0.20414105E+00 0.96853072E+03</pdfrwt>
<pdfrwt beam="2">  1       -2 0.27383220E+00 0.96853072E+03</pdfrwt>
<totfact> 0.73617110E-01</totfact>
</mgrwt>
</event>
<event>
 4    1  0.1701380E-008  0.1224863E+04  0.7818608E-02  0.9091368E-01
          2   -1    0    0  501    0  0.00000000000E+00  0.00000000000E+00  0.33970374271E+04  0.33970374271E+04  0.25500000000E-02 0. -1.
         -2   -1    0    0    0  501 -0.00000000000E+00 -0.00000000000E+00 -0.11372602159E+04  0.11372602159E+04  0.25500000000E-02 0.  1.
    8880022    1    1    2    0    0  0.10742008398E+04  0.56832266537E+03 -0.64321522806E+03  0.13834795188E+04  0.15294330000E+03 0.  0.
    8880022    1    1    2    0    0 -0.10742008398E+04 -0.56832266537E+03  0.29029924393E+04  0.31508181242E+04  0.15294330000E+03 0.  0.
<mgrwt>
<rscale>  0 0.12248632E+04</rscale>
<asrwt>0</asrwt>
<pdfrwt beam="1">  1        2 0.52262114E+00 0.12248632E+04</pdfrwt>
<pdfrwt beam="2">  1       -2 0.17496311E+00 0.12248632E+04</pdfrwt>
<totfact> 0.18586341E-01</totfact>
</mgrwt>
</event>
<event>
 4    1  0.1701380E-008  0.8098105E+03  0.7818608E-02  0.9545924E-01
         -2   -1    0    0    0  501 -0.00000000000E+00  0.00000000000E+00  0.51311084640E+03  0.51311084640E+03  0.25500000000E-02 0.  1.
          2   -1    0    0  501    0  0.00000000000E+00 -0.00000000000E+00 -0.19997931400E+04  0.19997931400E+04  0.25500000000E-02 0. -1.
    8880022    1    1    2    0    0 -0.15401084027E+03  0.78018075644E+03 -0.14981514884E+04  0.17030122979E+04  0.15294330000E+03 0.  1.
    8880022    1    1    2    0    0  0.15401084027E+03 -0.78018075644E+03  0.11469194806E+02  0.80989168849E+03  0.15294330000E+03 0.  0.
<mgrwt>
<rscale>  0 0.80981047E+03</rscale>
<asrwt>0</asrwt>
<pdfrwt beam="1">  1        2 0.30766048E+00 0.80981047E+03</pdfrwt>
<pdfrwt beam="2">  1       -2 0.78940131E-01 0.80981047E+03</pdfrwt>
<totfact> 0.97705773E+00</totfact>
</mgrwt>
</event>
<event>
 4    1  0.1701380E-008  0.2573435E+03  0.7818608E-02  0.1108750E+00
          2   -1    0    0  501    0  0.00000000000E+00  0.00000000000E+00  0.10736059940E+04  0.10736059940E+04  0.25500000000E-02 0. -1.
         -2   -1    0    0    0  501 -0.00000000000E+00 -0.00000000000E+00 -0.44118452733E+03  0.44118452733E+03  0.25500000000E-02 0.  1.
    8880022    1    1    2    0    0 -0.20562411370E+03 -0.23510799017E+02 -0.38624329265E+03  0.46412236311E+03  0.15294330000E+03 0.  0.
    8880022    1    1    2    0    0  0.20562411370E+03  0.23510799017E+02  0.10186647593E+04  0.10506681582E+04  0.15294330000E+03 0.  0.
<mgrwt>
<rscale>  0 0.25734352E+03</rscale>
<asrwt>0</asrwt>
<pdfrwt beam="1">  1        2 0.16517015E+00 0.25734352E+03</pdfrwt>
<pdfrwt beam="2">  1       -2 0.67874544E-01 0.25734352E+03</pdfrwt>
<totfact> 0.49190770E+01</totfact>
</mgrwt>
</event>
<event>
 4    1  0.1701380E-008  0.5038124E+03  0.7818608E-02  0.1012789E+00
          2   -1    0    0  501    0  0.00000000000E+00  0.00000000000E+00  0.15413078749E+04  0.15413078749E+04  0.25500000000E-02 0. -1.
         -2   -1    0    0    0  501 -0.00000000000E+00 -0.00000000000E+00 -0.30636383356E+03  0.30636383357E+03  0.25500000000E-02 0.  1.
    8880022    1    1    2    0    0  0.32368767002E+03 -0.35448781228E+03 -0.10777044397E+02  0.50392768775E+03  0.15294330000E+03 0.  0.
    8880022    1    1    2    0    0 -0.32368767002E+03  0.35448781228E+03  0.12457210857E+04  0.13437440207E+04  0.15294330000E+03 0. -1.
<mgrwt>
<rscale>  0 0.50381244E+03</rscale>
<asrwt>0</asrwt>
<pdfrwt beam="1">  1        2 0.23712429E+00 0.50381244E+03</pdfrwt>
<pdfrwt beam="2">  1       -2 0.47132897E-01 0.50381244E+03</pdfrwt>
<totfact> 0.54139900E+01</totfact>
</mgrwt>
</event>
<event>
 4    1  0.1701380E-008  0.5686485E+03  0.7818608E-02  0.9972674E-01
          2   -1    0    0  501    0  0.00000000000E+00  0.00000000000E+00  0.98932029346E+03  0.98932029346E+03  0.25500000000E-02 0. -1.
         -2   -1    0    0    0  501 -0.00000000000E+00 -0.00000000000E+00 -0.37939588623E+03  0.37939588624E+03  0.25500000000E-02 0.  1.
    8880022    1    1    2    0    0 -0.24069362407E+03 -0.49197153496E+03  0.50279622074E+02  0.57086697688E+03  0.15294330000E+03 0.  0.
    8880022    1    1    2    0    0  0.24069362407E+03  0.49197153496E+03  0.55964478515E+03  0.79784920282E+03  0.15294330000E+03 0.  0.
<mgrwt>
<rscale>  0 0.56864845E+03</rscale>
<asrwt>0</asrwt>
<pdfrwt beam="1">  1        2 0.15220312E+00 0.56864845E+03</pdfrwt>
<pdfrwt beam="2">  1       -2 0.58368598E-01 0.56864845E+03</pdfrwt>
<totfact> 0.72462049E+01</totfact>
</mgrwt>
</event>
<event>
 4    1  0.1701380E-008  0.1474793E+04  0.7818608E-02  0.8901391E-01
         -2   -1    0    0    0  501 -0.00000000000E+00  0.00000000000E+00  0.14183912509E+04  0.14183912509E+04  0.25500000000E-02 0.  1.
          2   -1    0    0  501    0  0.00000000000E+00 -0.00000000000E+00 -0.16097388724E+04  0.16097388724E+04  0.25500000000E-02 0. -1.
    8880022    1    1    2    0    0 -0.32182879493E+03  0.14311001932E+04 -0.42531030995E+03  0.15348948006E+04  0.15294330000E+03 0.  0.
    8880022    1    1    2    0    0  0.32182879493E+03 -0.14311001932E+04  0.23396268847E+03  0.14932353227E+04  0.15294330000E+03 0.  0.
<mgrwt>
<rscale>  0 0.14747926E+04</rscale>
<asrwt>0</asrwt>
<pdfrwt beam="1">  1        2 0.24765213E+00 0.14747926E+04</pdfrwt>
<pdfrwt beam="2">  1       -2 0.21821404E+00 0.14747926E+04</pdfrwt>
<totfact> 0.10531010E+00</totfact>
</mgrwt>
</event>
<event>
 4    1  0.1701380E-008  0.7267727E+03  0.7818608E-02  0.9672512E-01
         -2   -1    0    0    0  501 -0.00000000000E+00  0.00000000000E+00  0.28206766981E+04  0.28206766981E+04  0.25500000000E-02 0.  1.
          2   -1    0    0  501    0  0.00000000000E+00 -0.00000000000E+00 -0.63209727591E+03  0.63209727592E+03  0.25500000000E-02 0. -1.
    8880022    1    1    2    0    0 -0.51914641422E+03  0.48507109298E+03  0.25425512781E+04  0.26443837883E+04  0.15294330000E+03 0.  0.
    8880022    1    1    2    0    0  0.51914641422E+03 -0.48507109298E+03 -0.35397185594E+03  0.80839018577E+03  0.15294330000E+03 0.  0.
<mgrwt>
<rscale>  0 0.72677274E+03</rscale>
<asrwt>0</asrwt>
<pdfrwt beam="1">  1        2 0.97245737E-01 0.72677274E+03</pdfrwt>
<pdfrwt beam="2">  1       -2 0.43395025E+00 0.72677274E+03</pdfrwt>
<totfact> 0.22143309E-01</totfact>
</mgrwt>
</event>
<event>
 4    1  0.1701380E-008  0.1142929E+04  0.7818608E-02  0.9164331E-01
          2   -1    0    0  501    0  0.00000000000E+00  0.00000000000E+00  0.21377578345E+04  0.21377578345E+04  0.25500000000E-02 0. -1.
         -2   -1    0    0    0  501 -0.00000000000E+00 -0.00000000000E+00 -0.10372257025E+04  0.10372257025E+04  0.25500000000E-02 0.  1.
    8880022    1    1    2    0    0  0.48804408643E+03  0.10221099843E+04 -0.46730949606E+03  0.12347735292E+04  0.15294330000E+03 0.  0.
    8880022    1    1    2    0    0 -0.48804408643E+03 -0.10221099843E+04  0.15678416281E+04  0.19402100078E+04  0.15294330000E+03 0.  0.
<mgrwt>
<rscale>  0 0.11429294E+04</rscale>
<asrwt>0</asrwt>
<pdfrwt beam="1">  1        2 0.32888582E+00 0.11429294E+04</pdfrwt>
<pdfrwt beam="2">  1       -2 0.15957319E+00 0.11429294E+04</pdfrwt>
<totfact> 0.13922983E+00</totfact>
</mgrwt>
</event>
<event>
 4    1  0.1701380E-008  0.1114879E+04  0.7818608E-02  0.9190810E-01
         -2   -1    0    0    0  501 -0.00000000000E+00  0.00000000000E+00  0.21211666100E+04  0.21211666100E+04  0.25500000000E-02 0.  1.
          2   -1    0    0  501    0  0.00000000000E+00 -0.00000000000E+00 -0.10886884105E+04  0.10886884105E+04  0.25500000000E-02 0. -1.
    8880022    1    1    2    0    0  0.53949776912E+03 -0.96358999555E+03 -0.57435445320E+03  0.12541284676E+04  0.15294330000E+03 0.  0.
    8880022    1    1    2    0    0 -0.53949776912E+03  0.96358999555E+03  0.16068326527E+04  0.19557265528E+04  0.15294330000E+03 0.  0.
<mgrwt>
<rscale>  0 0.11148790E+04</rscale>
<asrwt>0</asrwt>
<pdfrwt beam="1">  1        2 0.16749053E+00 0.11148790E+04</pdfrwt>
<pdfrwt beam="2">  1       -2 0.32633332E+00 0.11148790E+04</pdfrwt>
<totfact> 0.48000609E-01</totfact>
</mgrwt>
</event>
<event>
 4    1  0.1701380E-008  0.9477375E+03  0.7818608E-02  0.9367799E-01
         -2   -1    0    0    0  501 -0.00000000000E+00  0.00000000000E+00  0.24875426946E+04  0.24875426946E+04  0.25500000000E-02 0.  1.
          2   -1    0    0  501    0  0.00000000000E+00 -0.00000000000E+00 -0.37411888728E+03  0.37411888729E+03  0.25500000000E-02 0. -1.
    8880022    1    1    2    0    0 -0.88277371679E+03  0.30907156761E+03  0.13238121125E+04  0.16280923903E+04  0.15294330000E+03 0.  0.
    8880022    1    1    2    0    0  0.88277371679E+03 -0.30907156761E+03  0.78961169478E+03  0.12335691916E+04  0.15294330000E+03 0.  0.
<mgrwt>
<rscale>  0 0.94773748E+03</rscale>
<asrwt>0</asrwt>
<pdfrwt beam="1">  1        2 0.57556749E-01 0.94773748E+03</pdfrwt>
<pdfrwt beam="2">  1       -2 0.38269890E+00 0.94773748E+03</pdfrwt>
<totfact> 0.84738091E-01</totfact>
</mgrwt>
</event>
<event>
 4    1  0.1701380E-008  0.5680136E+03  0.7818608E-02  0.9974084E-01
         -2   -1    0    0    0  501 -0.00000000000E+00  0.00000000000E+00  0.15029567047E+03  0.15029567050E+03  0.25500000000E-02 0.  1.
          2   -1    0    0  501    0  0.00000000000E+00 -0.00000000000E+00 -0.26696320356E+04  0.26696320356E+04  0.25500000000E-02 0. -1.
    8880022    1    1    2    0    0 -0.24021971040E+03  0.49146948411E+03 -0.18836985559E+04  0.19674754548E+04  0.15294330000E+03 0.  0.
    8880022    1    1    2    0    0  0.24021971040E+03 -0.49146948411E+03 -0.63563780927E+03  0.85245225125E+03  0.15294330000E+03 0.  0.
<mgrwt>
<rscale>  0 0.56801357E+03</rscale>
<asrwt>0</asrwt>
<pdfrwt beam="1">  1        2 0.41071259E+00 0.56801357E+03</pdfrwt>
<pdfrwt beam="2">  1       -2 0.23122413E-01 0.56801357E+03</pdfrwt>
<totfact> 0.49155116E+01</totfact>
</mgrwt>
</event>
<event>
 4    1  0.1701380E-008  0.2007853E+03  0.7818608E-02  0.1149078E+00
         -2   -1    0    0    0  501 -0.00000000000E+00  0.00000000000E+00  0.12754310493E+04  0.12754310493E+04  0.25500000000E-02 0.  1.
          2   -1    0    0  501    0  0.00000000000E+00 -0.00000000000E+00 -0.56011502627E+03  0.56011502628E+03  0.25500000000E-02 0. -1.
    8880022    1    1    2    0    0  0.50655532122E+02  0.11982107798E+03 -0.53384286639E+03  0.57035334019E+03  0.15294330000E+03 0.  0.
    8880022    1    1    2    0    0 -0.50655532122E+02 -0.11982107798E+03  0.12491588894E+04  0.12651927354E+04  0.15294330000E+03 0.  1.
<mgrwt>
<rscale>  0 0.20078528E+03</rscale>
<asrwt>0</asrwt>
<pdfrwt beam="1">  1        2 0.86171542E-01 0.20078528E+03</pdfrwt>
<pdfrwt beam="2">  1       -2 0.19622016E+00 0.20078528E+03</pdfrwt>
<totfact> 0.86648121E+00</totfact>
</mgrwt>
</event>
<event>
 4    1  0.1701380E-008  0.5650702E+03  0.7818608E-02  0.9980647E-01
          2   -1    0    0  501    0  0.00000000000E+00  0.00000000000E+00  0.11934953799E+04  0.11934953799E+04  0.25500000000E-02 0. -1.
         -2   -1    0    0    0  501 -0.00000000000E+00 -0.00000000000E+00 -0.63432317974E+03  0.63432317975E+03  0.25500000000E-02 0.  1.
    8880022    1    1    2    0    0 -0.34823321977E+03  0.41790698622E+03  0.97453716753E+03  0.11265109713E+04  0.15294330000E+03 0.  0.
    8880022    1    1    2    0    0  0.34823321977E+03 -0.41790698622E+03 -0.41536496733E+03  0.70130758842E+03  0.15294330000E+03 0.  0.
<mgrwt>
<rscale>  0 0.56507015E+03</rscale>
<asrwt>0</asrwt>
<pdfrwt beam="1">  1        2 0.18361467E+00 0.56507015E+03</pdfrwt>
<pdfrwt beam="2">  1       -2 0.97588182E-01 0.56507015E+03</pdfrwt>
<totfact> 0.17465775E+01</totfact>
</mgrwt>
</event>
<event>
 4    1  0.1701380E-008  0.4222480E+03  0.7818608E-02  0.1036337E+00
         -2   -1    0    0    0  501 -0.00000000000E+00  0.00000000000E+00  0.71434753576E+03  0.71434753576E+03  0.25500000000E-02 0.  1.
          2   -1    0    0  501    0  0.00000000000E+00 -0.00000000000E+00 -0.94602693072E+03  0.94602693072E+03  0.25500000000E-02 0. -1.
    8880022    1    1    2    0    0  0.24188788659E+03 -0.31047051510E+03 -0.82814386322E+03  0.92957818479E+03  0.15294330000E+03 0.  0.
    8880022    1    1    2    0    0 -0.24188788659E+03  0.31047051510E+03  0.59646446826E+03  0.73079628170E+03  0.15294330000E+03 0.  0.
<mgrwt>
<rscale>  0 0.42224796E+03</rscale>
<asrwt>0</asrwt>
<pdfrwt beam="1">  1        2 0.14554260E+00 0.42224796E+03</pdfrwt>
<pdfrwt beam="2">  1       -2 0.10989962E+00 0.42224796E+03</pdfrwt>
<totfact> 0.19119568E+01</totfact>
</mgrwt>
</event>
<event>
 4    1  0.1701380E-008  0.1829350E+04  0.7818608E-02  0.8690845E-01
          2   -1    0    0  501    0  0.00000000000E+00  0.00000000000E+00  0.39103328506E+04  0.39103328506E+04  0.25500000000E-02 0. -1.
         -2   -1    0    0    0  501 -0.00000000000E+00 -0.00000000000E+00 -0.86966630785E+03  0.86966630786E+03  0.25500000000E-02 0.  1.
    8880022    1    1    2    0    0  0.51018177340E+03 -0.17500984730E+04  0.12187092790E+04  0.21981296747E+04  0.15294330000E+03 0. -1.
    8880022    1    1    2    0    0 -0.51018177340E+03  0.17500984730E+04  0.18219572637E+04  0.25818694837E+04  0.15294330000E+03 0.  0.
<mgrwt>
<rscale>  0 0.18293501E+04</rscale>
<asrwt>0</asrwt>
<pdfrwt beam="1">  1        2 0.60158966E+00 0.18293501E+04</pdfrwt>
<pdfrwt beam="2">  1       -2 0.13379482E+00 0.18293501E+04</pdfrwt>
<totfact> 0.15055025E-01</totfact>
</mgrwt>
</event>
<event>
 4    1  0.1701380E-008  0.4731337E+03  0.7818608E-02  0.1021039E+00
         -2   -1    0    0    0  501 -0.00000000000E+00  0.00000000000E+00  0.46441942175E+03  0.46441942175E+03  0.25500000000E-02 0.  1.
          2   -1    0    0  501    0  0.00000000000E+00 -0.00000000000E+00 -0.98105299002E+03  0.98105299003E+03  0.25500000000E-02 0. -1.
    8880022    1    1    2    0    0 -0.43584344693E+03 -0.10249075572E+03  0.25715143057E+03  0.53850011745E+03  0.15294330000E+03 0.  1.
    8880022    1    1    2    0    0  0.43584344693E+03  0.10249075572E+03 -0.77378499884E+03  0.90697229433E+03  0.15294330000E+03 0.  0.
<mgrwt>
<rscale>  0 0.47313372E+03</rscale>
<asrwt>0</asrwt>
<pdfrwt beam="1">  1        2 0.15093123E+00 0.47313372E+03</pdfrwt>
<pdfrwt beam="2">  1       -2 0.71449142E-01 0.47313372E+03</pdfrwt>
<totfact> 0.48189794E+01</totfact>
</mgrwt>
</event>
<event>
 4    1  0.1701380E-008  0.3742728E+03  0.7818608E-02  0.1053071E+00
          2   -1    0    0  501    0  0.00000000000E+00  0.00000000000E+00  0.28215244030E+04  0.28215244030E+04  0.25500000000E-02 0. -1.
         -2   -1    0    0    0  501 -0.00000000000E+00 -0.00000000000E+00 -0.12626625267E+03  0.12626625270E+03  0.25500000000E-02 0.  1.
    8880022    1    1    2    0    0 -0.40998327973E+02  0.33912775617E+03  0.24957616096E+04  0.25236691865E+04  0.15294330000E+03 0.  0.
    8880022    1    1    2    0    0  0.40998327973E+02 -0.33912775617E+03  0.19949654081E+03  0.42412146928E+03  0.15294330000E+03 0.  0.
<mgrwt>
<rscale>  0 0.37427283E+03</rscale>
<asrwt>0</asrwt>
<pdfrwt beam="1">  1        2 0.43408064E+00 0.37427283E+03</pdfrwt>
<pdfrwt beam="2">  1       -2 0.19425579E-01 0.37427283E+03</pdfrwt>
<totfact> 0.56932479E+01</totfact>
</mgrwt>
</event>
<event>
 4    1  0.1701380E-008  0.1020369E+04  0.7818608E-02  0.9286482E-01
          2   -1    0    0  501    0  0.00000000000E+00  0.00000000000E+00  0.16802690340E+04  0.16802690340E+04  0.25500000000E-02 0. -1.
         -2   -1    0    0    0  501 -0.00000000000E+00 -0.00000000000E+00 -0.72447631499E+03  0.72447631500E+03  0.25500000000E-02 0.  1.
    8880022    1    1    2    0    0  0.12848424823E+03 -0.10006262821E+04  0.93529417264E+03  0.13841705101E+04  0.15294330000E+03 0.  0.
    8880022    1    1    2    0    0 -0.12848424823E+03  0.10006262821E+04  0.20498546382E+02  0.10205748390E+04  0.15294330000E+03 0.  0.
<mgrwt>
<rscale>  0 0.10203690E+04</rscale>
<asrwt>0</asrwt>
<pdfrwt beam="1">  1        2 0.25850293E+00 0.10203690E+04</pdfrwt>
<pdfrwt beam="2">  1       -2 0.11145789E+00 0.10203690E+04</pdfrwt>
<totfact> 0.63610164E+00</totfact>
</mgrwt>
</event>
<event>
 4    1  0.1701380E-008  0.8137768E+03  0.7818608E-02  0.9540287E-01
         -2   -1    0    0    0  501 -0.00000000000E+00  0.00000000000E+00  0.36425312665E+03  0.36425312666E+03  0.25500000000E-02 0.  1.
          2   -1    0    0  501    0  0.00000000000E+00 -0.00000000000E+00 -0.30927845547E+04  0.30927845547E+04  0.25500000000E-02 0. -1.
    8880022    1    1    2    0    0 -0.79097010939E+03 -0.11492336978E+03 -0.24739720446E+04  0.26043752466E+04  0.15294330000E+03 0.  0.
    8880022    1    1    2    0    0  0.79097010939E+03  0.11492336978E+03 -0.25455938347E+03  0.85266243473E+03  0.15294330000E+03 0.  0.
<mgrwt>
<rscale>  0 0.81377684E+03</rscale>
<asrwt>0</asrwt>
<pdfrwt beam="1">  1        2 0.47581299E+00 0.81377684E+03</pdfrwt>
<pdfrwt beam="2">  1       -2 0.56038945E-01 0.81377684E+03</pdfrwt>
<totfact> 0.48047726E+00</totfact>
</mgrwt>
</event>
<event>
 4    1  0.1701380E-008  0.4178289E+03  0.7818608E-02  0.1037775E+00
         -2   -1    0    0    0  501 -0.00000000000E+00  0.00000000000E+00  0.90520395515E+03  0.90520395515E+03  0.25500000000E-02 0.  1.
          2   -1    0    0  501    0  0.00000000000E+00 -0.00000000000E+00 -0.21948373870E+04  0.21948373870E+04  0.25500000000E-02 0. -1.
    8880022    1    1    2    0    0  0.37256383830E+03  0.11129012920E+03  0.83553700866E+03  0.93418576971E+03  0.15294330000E+03 0.  1.
    8880022    1    1    2    0    0 -0.37256383830E+03 -0.11129012920E+03 -0.21251704405E+04  0.21658555725E+04  0.15294330000E+03 0.  0.
<mgrwt>
<rscale>  0 0.41782886E+03</rscale>
<asrwt>0</asrwt>
<pdfrwt beam="1">  1        2 0.33766729E+00 0.41782886E+03</pdfrwt>
<pdfrwt beam="2">  1       -2 0.13926215E+00 0.41782886E+03</pdfrwt>
<totfact> 0.21486968E+00</totfact>
</mgrwt>
</event>
<event>
 4    1  0.1701380E-008  0.1885861E+04  0.7818608E-02  0.8661926E-01
         -2   -1    0    0    0  501 -0.00000000000E+00  0.00000000000E+00  0.12020925649E+04  0.12020925649E+04  0.25500000000E-02 0.  1.
          2   -1    0    0  501    0  0.00000000000E+00 -0.00000000000E+00 -0.36931127069E+04  0.36931127069E+04  0.25500000000E-02 0. -1.
    8880022    1    1    2    0    0  0.58275399864E+03 -0.17870309063E+04 -0.23370850345E+04  0.30030717265E+04  0.15294330000E+03 0.  0.
    8880022    1    1    2    0    0 -0.58275399864E+03  0.17870309063E+04 -0.15393510756E+03  0.18921335453E+04  0.15294330000E+03 0.  0.
<mgrwt>
<rscale>  0 0.18858614E+04</rscale>
<asrwt>0</asrwt>
<pdfrwt beam="1">  1        2 0.56817118E+00 0.18858614E+04</pdfrwt>
<pdfrwt beam="2">  1       -2 0.18493732E+00 0.18858614E+04</pdfrwt>
<totfact> 0.89918769E-02</totfact>
</mgrwt>
</event>
<event>
 4    1  0.1701380E-008  0.6739436E+03  0.7818608E-02  0.9762860E-01
          2   -1    0    0  501    0  0.00000000000E+00  0.00000000000E+00  0.28364133017E+04  0.28364133017E+04  0.25500000000E-02 0. -1.
         -2   -1    0    0    0  501 -0.00000000000E+00 -0.00000000000E+00 -0.10504115863E+04  0.10504115863E+04  0.25500000000E-02 0.  1.
    8880022    1    1    2    0    0  0.47256721060E+03  0.45550917566E+03  0.26821579672E+04  0.27655327501E+04  0.15294330000E+03 0.  0.
    8880022    1    1    2    0    0 -0.47256721060E+03 -0.45550917566E+03 -0.89615625184E+03  0.11212921378E+04  0.15294330000E+03 0.  0.
<mgrwt>
<rscale>  0 0.67394364E+03</rscale>
<asrwt>0</asrwt>
<pdfrwt beam="1">  1        2 0.43637127E+00 0.67394364E+03</pdfrwt>
<pdfrwt beam="2">  1       -2 0.16160179E+00 0.67394364E+03</pdfrwt>
<totfact> 0.58457332E-01</totfact>
</mgrwt>
</event>
<event>
 4    1  0.1701380E-008  0.5156744E+03  0.7818608E-02  0.1009767E+00
          2   -1    0    0  501    0  0.00000000000E+00  0.00000000000E+00  0.47146224447E+03  0.47146224448E+03  0.25500000000E-02 0. -1.
         -2   -1    0    0    0  501 -0.00000000000E+00 -0.00000000000E+00 -0.75264065810E+03  0.75264065810E+03  0.25500000000E-02 0.  1.
    8880022    1    1    2    0    0 -0.33914286429E+03 -0.35708622669E+03  0.16580047472E+03  0.54167324663E+03  0.15294330000E+03 0. -1.
    8880022    1    1    2    0    0  0.33914286429E+03  0.35708622669E+03 -0.44697888834E+03  0.68242965595E+03  0.15294330000E+03 0.  0.
<mgrwt>
<rscale>  0 0.51567442E+03</rscale>
<asrwt>0</asrwt>
<pdfrwt beam="1">  1        2 0.72532653E-01 0.51567442E+03</pdfrwt>
<pdfrwt beam="2">  1       -2 0.11579087E+00 0.51567442E+03</pdfrwt>
<totfact> 0.39449640E+01</totfact>
</mgrwt>
</event>
<event>
 4    1  0.1701380E-008  0.1871699E+03  0.7818608E-02  0.1161039E+00
         -2   -1    0    0    0  501 -0.00000000000E+00  0.00000000000E+00  0.74318514038E+02  0.74318514082E+02  0.25500000000E-02 0.  1.
          2   -1    0    0  501    0  0.00000000000E+00 -0.00000000000E+00 -0.10874977328E+04  0.10874977328E+04  0.25500000000E-02 0. -1.
    8880022    1    1    2    0    0 -0.93187909434E+02 -0.54377624651E+02 -0.94383342990E+03  0.96221313073E+03  0.15294330000E+03 0.  0.
    8880022    1    1    2    0    0  0.93187909434E+02  0.54377624651E+02 -0.69345788840E+02  0.19960311614E+03  0.15294330000E+03 0.  1.
<mgrwt>
<rscale>  0 0.18716988E+03</rscale>
<asrwt>0</asrwt>
<pdfrwt beam="1">  1        2 0.16730733E+00 0.18716988E+03</pdfrwt>
<pdfrwt beam="2">  1       -2 0.11433618E-01 0.18716988E+03</pdfrwt>
<totfact> 0.12464145E+03</totfact>
</mgrwt>
</event>
<event>
 4    1  0.1701380E-008  0.1005173E+04  0.7818608E-02  0.9302889E-01
          2   -1    0    0  501    0  0.00000000000E+00  0.00000000000E+00  0.80771951878E+03  0.80771951878E+03  0.25500000000E-02 0. -1.
         -2   -1    0    0    0  501 -0.00000000000E+00 -0.00000000000E+00 -0.25654540567E+04  0.25654540567E+04  0.25500000000E-02 0.  1.
    8880022    1    1    2    0    0  0.90649034702E+03 -0.40651728840E+03 -0.20861709977E+04  0.23157033791E+04  0.15294330000E+03 0.  0.
    8880022    1    1    2    0    0 -0.90649034702E+03  0.40651728840E+03  0.32843645986E+03  0.10574701964E+04  0.15294330000E+03 0.  0.
<mgrwt>
<rscale>  0 0.10051730E+04</rscale>
<asrwt>0</asrwt>
<pdfrwt beam="1">  1        2 0.12426454E+00 0.10051730E+04</pdfrwt>
<pdfrwt beam="2">  1       -2 0.39468523E+00 0.10051730E+04</pdfrwt>
<totfact> 0.27788364E-01</totfact>
</mgrwt>
</event>
<event>
 4    1  0.1701380E-008  0.9789366E+03  0.7818608E-02  0.9331953E-01
          2   -1    0    0  501    0  0.00000000000E+00  0.00000000000E+00  0.11177451983E+04  0.11177451983E+04  0.25500000000E-02 0. -1.
         -2   -1    0    0    0  501 -0.00000000000E+00 -0.00000000000E+00 -0.13825009313E+04  0.13825009313E+04  0.25500000000E-02 0.  1.
    8880022    1    1    2    0    0  0.90135386181E+03  0.34998051883E+03 -0.90284741637E+03  0.13317095246E+04  0.15294330000E+03 0.  0.
    8880022    1    1    2    0    0 -0.90135386181E+03 -0.34998051883E+03  0.63809168334E+03  0.11685366050E+04  0.15294330000E+03 0. -1.
<mgrwt>
<rscale>  0 0.97893657E+03</rscale>
<asrwt>0</asrwt>
<pdfrwt beam="1">  1        2 0.17196080E+00 0.97893657E+03</pdfrwt>
<pdfrwt beam="2">  1       -2 0.21269245E+00 0.97893657E+03</pdfrwt>
<totfact> 0.23272020E+00</totfact>
</mgrwt>
</event>
<event>
 4    1  0.1701380E-008  0.8950099E+03  0.7818608E-02  0.9431841E-01
         -2   -1    0    0    0  501 -0.00000000000E+00  0.00000000000E+00  0.11729783237E+04  0.11729783237E+04  0.25500000000E-02 0.  1.
          2   -1    0    0  501    0  0.00000000000E+00 -0.00000000000E+00 -0.92421721921E+03  0.92421721921E+03  0.25500000000E-02 0. -1.
    8880022    1    1    2    0    0 -0.67030583680E+03 -0.57301064381E+03 -0.41142089811E+03  0.98504310626E+03  0.15294330000E+03 0.  0.
    8880022    1    1    2    0    0  0.67030583680E+03  0.57301064381E+03  0.66018200260E+03  0.11121524367E+04  0.15294330000E+03 0.  0.
<mgrwt>
<rscale>  0 0.89500992E+03</rscale>
<asrwt>0</asrwt>
<pdfrwt beam="1">  1        2 0.14218727E+00 0.89500992E+03</pdfrwt>
<pdfrwt beam="2">  1       -2 0.18045820E+00 0.89500992E+03</pdfrwt>
<totfact> 0.50967550E+00</totfact>
</mgrwt>
</event>
<event>
 4    1  0.1701380E-008  0.1128094E+04  0.7818608E-02  0.9178234E-01
          2   -1    0    0  501    0  0.00000000000E+00  0.00000000000E+00  0.24679777641E+04  0.24679777641E+04  0.25500000000E-02 0. -1.
         -2   -1    0    0    0  501 -0.00000000000E+00 -0.00000000000E+00 -0.58325365898E+03  0.58325365899E+03  0.25500000000E-02 0.  1.
    8880022    1    1    2    0    0  0.10483850723E+04 -0.38741912155E+03  0.14617868273E+04  0.18464607272E+04  0.15294330000E+03 0.  0.
    8880022    1    1    2    0    0 -0.10483850723E+04  0.38741912155E+03  0.42293727776E+03  0.12047706958E+04  0.15294330000E+03 0.  0.
<mgrwt>
<rscale>  0 0.11280942E+04</rscale>
<asrwt>0</asrwt>
<pdfrwt beam="1">  1        2 0.37968889E+00 0.11280942E+04</pdfrwt>
<pdfrwt beam="2">  1       -2 0.89731331E-01 0.11280942E+04</pdfrwt>
<totfact> 0.38375349E+00</totfact>
</mgrwt>
</event>
<event>
 4    1  0.1701380E-008  0.2063160E+03  0.7818608E-02  0.1144517E+00
         -2   -1    0    0    0  501 -0.00000000000E+00  0.00000000000E+00  0.14364545670E+03  0.14364545672E+03  0.25500000000E-02 0.  1.
          2   -1    0    0  501    0  0.00000000000E+00 -0.00000000000E+00 -0.11346415693E+04  0.11346415693E+04  0.25500000000E-02 0. -1.
    8880022    1    1    2    0    0  0.13121927863E+03  0.44228221625E+02  0.53880972751E+02  0.21323566051E+03  0.15294330000E+03 0.  1.
    8880022    1    1    2    0    0 -0.13121927863E+03 -0.44228221625E+02 -0.10448770853E+04  0.10650513655E+04  0.15294330000E+03 0.  0.
<mgrwt>
<rscale>  0 0.20631599E+03</rscale>
<asrwt>0</asrwt>
<pdfrwt beam="1">  1        2 0.17456024E+00 0.20631599E+03</pdfrwt>
<pdfrwt beam="2">  1       -2 0.22099302E-01 0.20631599E+03</pdfrwt>
<totfact> 0.39105815E+02</totfact>
</mgrwt>
</event>
<event>
 4    1  0.1701380E-008  0.5019634E+03  0.7818608E-02  0.1013268E+00
          2   -1    0    0  501    0  0.00000000000E+00  0.00000000000E+00  0.70255819825E+03  0.70255819825E+03  0.25500000000E-02 0. -1.
         -2   -1    0    0    0  501 -0.00000000000E+00 -0.00000000000E+00 -0.11773217764E+04  0.11773217764E+04  0.25500000000E-02 0.  1.
    8880022    1    1    2    0    0 -0.41441286419E+03  0.23840631613E+03  0.54642573684E+03  0.74198944229E+03  0.15294330000E+03 0. -1.
    8880022    1    1    2    0    0  0.41441286419E+03 -0.23840631613E+03 -0.10211893150E+04  0.11378905323E+04  0.15294330000E+03 0.  0.
<mgrwt>
<rscale>  0 0.50196339E+03</rscale>
<asrwt>0</asrwt>
<pdfrwt beam="1">  1        2 0.10808588E+00 0.50196339E+03</pdfrwt>
<pdfrwt beam="2">  1       -2 0.18112643E+00 0.50196339E+03</pdfrwt>
<totfact> 0.76672975E+00</totfact>
</mgrwt>
</event>
<event>
 4    1  0.1701380E-008  0.7548506E+03  0.7818608E-02  0.9627771E-01
          2   -1    0    0  501    0  0.00000000000E+00  0.00000000000E+00  0.21348339099E+04  0.21348339099E+04  0.25500000000E-02 0. -1.
         -2   -1    0    0    0  501 -0.00000000000E+00 -0.00000000000E+00 -0.40838091567E+03  0.40838091568E+03  0.25500000000E-02 0.  1.
    8880022    1    1    2    0    0  0.72943661632E+03 -0.11970798440E+03  0.16116724552E+04  0.17796874823E+04  0.15294330000E+03 0.  0.
    8880022    1    1    2    0    0 -0.72943661632E+03  0.11970798440E+03  0.11478053899E+03  0.76352734326E+03  0.15294330000E+03 0.  0.
<mgrwt>
<rscale>  0 0.75485060E+03</rscale>
<asrwt>0</asrwt>
<pdfrwt beam="1">  1        2 0.32843599E+00 0.75485060E+03</pdfrwt>
<pdfrwt beam="2">  1       -2 0.62827833E-01 0.75485060E+03</pdfrwt>
<totfact> 0.13685544E+01</totfact>
</mgrwt>
</event>
<event>
 4    1  0.1701380E-008  0.6357337E+03  0.7818608E-02  0.9833923E-01
          2   -1    0    0  501    0  0.00000000000E+00  0.00000000000E+00  0.24074108146E+04  0.24074108146E+04  0.25500000000E-02 0. -1.
         -2   -1    0    0    0  501 -0.00000000000E+00 -0.00000000000E+00 -0.32135026983E+03  0.32135026984E+03  0.25500000000E-02 0.  1.
    8880022    1    1    2    0    0 -0.11178301361E+03  0.60685277427E+03  0.19859127657E+04  0.20851874971E+04  0.15294330000E+03 0.  0.
    8880022    1    1    2    0    0  0.11178301361E+03 -0.60685277427E+03  0.10014777909E+03  0.64357358744E+03  0.15294330000E+03 0.  0.
<mgrwt>
<rscale>  0 0.63573374E+03</rscale>
<asrwt>0</asrwt>
<pdfrwt beam="1">  1        2 0.37037089E+00 0.63573374E+03</pdfrwt>
<pdfrwt beam="2">  1       -2 0.49438504E-01 0.63573374E+03</pdfrwt>
<totfact> 0.16232949E+01</totfact>
</mgrwt>
</event>
<event>
 4    1  0.1701380E-008  0.7673051E+03  0.7818608E-02  0.9608586E-01
          2   -1    0    0  501    0  0.00000000000E+00  0.00000000000E+00  0.44055135788E+04  0.44055135788E+04  0.25500000000E-02 0. -1.
         -2   -1    0    0    0  501 -0.00000000000E+00 -0.00000000000E+00 -0.38002578335E+03  0.38002578336E+03  0.25500000000E-02 0.  1.
    8880022    1    1    2    0    0  0.18684720053E+03  0.72832245825E+03  0.86100545148E+02  0.77212073954E+03  0.15294330000E+03 0.  0.
    8880022    1    1    2    0    0 -0.18684720053E+03 -0.72832245825E+03  0.39393872503E+04  0.40134186226E+04  0.15294330000E+03 0.  0.
<mgrwt>
<rscale>  0 0.76730511E+03</rscale>
<asrwt>0</asrwt>
<pdfrwt beam="1">  1        2 0.67777131E+00 0.76730511E+03</pdfrwt>
<pdfrwt beam="2">  1       -2 0.58465506E-01 0.76730511E+03</pdfrwt>
<totfact> 0.46944216E-01</totfact>
</mgrwt>
</event>
<event>
 4    1  0.1701380E-008  0.1980278E+03  0.7818608E-02  0.1151414E+00
         -2   -1    0    0    0  501 -0.00000000000E+00  0.00000000000E+00  0.17936382690E+04  0.17936382690E+04  0.25500000000E-02 0.  1.
          2   -1    0    0  501    0  0.00000000000E+00 -0.00000000000E+00 -0.99025947065E+03  0.99025947065E+03  0.25500000000E-02 0. -1.
    8880022    1    1    2    0    0 -0.38265677825E+02  0.11982948617E+03 -0.97480766978E+03  0.99471856017E+03  0.15294330000E+03 0.  0.
    8880022    1    1    2    0    0  0.38265677825E+02 -0.11982948617E+03  0.17781864681E+04  0.17891791795E+04  0.15294330000E+03 0.  1.
<mgrwt>
<rscale>  0 0.19802783E+03</rscale>
<asrwt>0</asrwt>
<pdfrwt beam="1">  1        2 0.15234761E+00 0.19802783E+03</pdfrwt>
<pdfrwt beam="2">  1       -2 0.27594435E+00 0.19802783E+03</pdfrwt>
<totfact> 0.14316158E+00</totfact>
</mgrwt>
</event>
<event>
 4    1  0.1701380E-008  0.1948862E+03  0.7818608E-02  0.1154127E+00
         -2   -1    0    0    0  501 -0.00000000000E+00  0.00000000000E+00  0.89079418643E+02  0.89079418679E+02  0.25500000000E-02 0.  1.
          2   -1    0    0  501    0  0.00000000000E+00 -0.00000000000E+00 -0.25114951375E+04  0.25114951375E+04  0.25500000000E-02 0. -1.
    8880022    1    1    2    0    0  0.63349461528E+02 -0.10283879219E+03 -0.26423260361E+02  0.19666929897E+03  0.15294330000E+03 0.  1.
    8880022    1    1    2    0    0 -0.63349461528E+02  0.10283879219E+03 -0.23959924585E+04  0.24039052572E+04  0.15294330000E+03 0.  0.
<mgrwt>
<rscale>  0 0.19488618E+03</rscale>
<asrwt>0</asrwt>
<pdfrwt beam="1">  1        2 0.38638381E+00 0.19488618E+03</pdfrwt>
<pdfrwt beam="2">  1       -2 0.13704528E-01 0.19488618E+03</pdfrwt>
<totfact> 0.16215332E+02</totfact>
</mgrwt>
</event>
<event>
 4    1  0.1701380E-008  0.8064262E+03  0.7818608E-02  0.9550762E-01
          2   -1    0    0  501    0  0.00000000000E+00  0.00000000000E+00  0.87348478410E+03  0.87348478411E+03  0.25500000000E-02 0. -1.
         -2   -1    0    0    0  501 -0.00000000000E+00 -0.00000000000E+00 -0.13788593192E+04  0.13788593192E+04  0.25500000000E-02 0.  1.
    8880022    1    1    2    0    0  0.26887276864E+03 -0.74474084735E+03  0.51116091322E+03  0.95478197912E+03  0.15294330000E+03 0.  0.
    8880022    1    1    2    0    0 -0.26887276864E+03  0.74474084735E+03 -0.10165354483E+04  0.12975621242E+04  0.15294330000E+03 0.  0.
<mgrwt>
<rscale>  0 0.80642616E+03</rscale>
<asrwt>0</asrwt>
<pdfrwt beam="1">  1        2 0.13438227E+00 0.80642616E+03</pdfrwt>
<pdfrwt beam="2">  1       -2 0.21213220E+00 0.80642616E+03</pdfrwt>
<totfact> 0.34483033E+00</totfact>
</mgrwt>
</event>
<event>
 4    1  0.1701380E-008  0.8255909E+03  0.7818608E-02  0.9523697E-01
          2   -1    0    0  501    0  0.00000000000E+00  0.00000000000E+00  0.10249593081E+04  0.10249593081E+04  0.25500000000E-02 0. -1.
         -2   -1    0    0    0  501 -0.00000000000E+00 -0.00000000000E+00 -0.10580785892E+04  0.10580785892E+04  0.25500000000E-02 0.  1.
    8880022    1    1    2    0    0 -0.33352533893E+03 -0.73957390521E+03 -0.65137379139E+03  0.10516121824E+04  0.15294330000E+03 0.  0.
    8880022    1    1    2    0    0  0.33352533893E+03  0.73957390521E+03  0.61825451024E+03  0.10314257149E+04  0.15294330000E+03 0.  0.
<mgrwt>
<rscale>  0 0.82559092E+03</rscale>
<asrwt>0</asrwt>
<pdfrwt beam="1">  1        2 0.15768605E+00 0.82559092E+03</pdfrwt>
<pdfrwt beam="2">  1       -2 0.16278132E+00 0.82559092E+03</pdfrwt>
<totfact> 0.58932311E+00</totfact>
</mgrwt>
</event>
<event>
 4    1  0.1701380E-008  0.3047600E+03  0.7818608E-02  0.1082885E+00
         -2   -1    0    0    0  501 -0.00000000000E+00  0.00000000000E+00  0.67109786153E+02  0.67109786201E+02  0.25500000000E-02 0.  1.
          2   -1    0    0  501    0  0.00000000000E+00 -0.00000000000E+00 -0.29361283928E+04  0.29361283928E+04  0.25500000000E-02 0. -1.
    8880022    1    1    2    0    0  0.20939798767E+03 -0.16012331691E+03 -0.34272012518E+03  0.45862373584E+03  0.15294330000E+03 0.  0.
    8880022    1    1    2    0    0 -0.20939798767E+03  0.16012331691E+03 -0.25262984815E+04  0.25446144432E+04  0.15294330000E+03 0.  0.
<mgrwt>
<rscale>  0 0.30475998E+03</rscale>
<asrwt>0</asrwt>
<pdfrwt beam="1">  1        2 0.45171196E+00 0.30475998E+03</pdfrwt>
<pdfrwt beam="2">  1       -2 0.10324585E-01 0.30475998E+03</pdfrwt>
<totfact> 0.14208665E+02</totfact>
</mgrwt>
</event>
<event>
 4    1  0.1701380E-008  0.1287142E+04  0.7818608E-02  0.9039824E-01
          2   -1    0    0  501    0  0.00000000000E+00  0.00000000000E+00  0.24185168294E+04  0.24185168294E+04  0.25500000000E-02 0. -1.
         -2   -1    0    0    0  501 -0.00000000000E+00 -0.00000000000E+00 -0.10591260616E+04  0.10591260616E+04  0.25500000000E-02 0.  1.
    8880022    1    1    2    0    0 -0.12669642667E+04 -0.16776446022E+03 -0.35372709455E+03  0.13348624939E+04  0.15294330000E+03 0.  0.
    8880022    1    1    2    0    0  0.12669642667E+04  0.16776446022E+03  0.17131178623E+04  0.21427803971E+04  0.15294330000E+03 0.  0.
<mgrwt>
<rscale>  0 0.12871422E+04</rscale>
<asrwt>0</asrwt>
<pdfrwt beam="1">  1        2 0.37207951E+00 0.12871422E+04</pdfrwt>
<pdfrwt beam="2">  1       -2 0.16294247E+00 0.12871422E+04</pdfrwt>
<totfact> 0.89750236E-01</totfact>
</mgrwt>
</event>
<event>
 4    1  0.1701380E-008  0.3875852E+03  0.7818608E-02  0.1048165E+00
          2   -1    0    0  501    0  0.00000000000E+00  0.00000000000E+00  0.20816878812E+04  0.20816878812E+04  0.25500000000E-02 0. -1.
         -2   -1    0    0    0  501 -0.00000000000E+00 -0.00000000000E+00 -0.15234417574E+03  0.15234417577E+03  0.25500000000E-02 0.  1.
    8880022    1    1    2    0    0 -0.34381544282E+03  0.92852622738E+02  0.17750370174E+04  0.18168595803E+04  0.15294330000E+03 0.  0.
    8880022    1    1    2    0    0  0.34381544282E+03 -0.92852622738E+02  0.15430668797E+03  0.41717247661E+03  0.15294330000E+03 0.  0.
<mgrwt>
<rscale>  0 0.38758524E+03</rscale>
<asrwt>0</asrwt>
<pdfrwt beam="1">  1        2 0.32025963E+00 0.38758524E+03</pdfrwt>
<pdfrwt beam="2">  1       -2 0.23437569E-01 0.38758524E+03</pdfrwt>
<totfact> 0.10503611E+02</totfact>
</mgrwt>
</event>
<event>
 4    1  0.1701380E-008  0.5157905E+03  0.7818608E-02  0.1009738E+00
         -2   -1    0    0    0  501 -0.00000000000E+00  0.00000000000E+00  0.26698522187E+03  0.26698522188E+03  0.25500000000E-02 0.  1.
          2   -1    0    0  501    0  0.00000000000E+00 -0.00000000000E+00 -0.15118289145E+04  0.15118289146E+04  0.25500000000E-02 0. -1.
    8880022    1    1    2    0    0  0.32455678916E+03  0.37055511332E+03 -0.10313330303E+03  0.52600031616E+03  0.15294330000E+03 0.  0.
    8880022    1    1    2    0    0 -0.32455678916E+03 -0.37055511332E+03 -0.11417103897E+04  0.12528138203E+04  0.15294330000E+03 0.  0.
<mgrwt>
<rscale>  0 0.51579051E+03</rscale>
<asrwt>0</asrwt>
<pdfrwt beam="1">  1        2 0.23258906E+00 0.51579051E+03</pdfrwt>
<pdfrwt beam="2">  1       -2 0.41074650E-01 0.51579051E+03</pdfrwt>
<totfact> 0.73588936E+01</totfact>
</mgrwt>
</event>
<event>
 4    1  0.1701380E-008  0.4914206E+03  0.7818608E-02  0.1016043E+00
          2   -1    0    0  501    0  0.00000000000E+00  0.00000000000E+00  0.54755354213E+03  0.54755354214E+03  0.25500000000E-02 0. -1.
         -2   -1    0    0    0  501 -0.00000000000E+00 -0.00000000000E+00 -0.23014740899E+04  0.23014740899E+04  0.25500000000E-02 0.  1.
    8880022    1    1    2    0    0 -0.12230887492E+03 -0.45071399161E+03 -0.21577283940E+04  0.22129812558E+04  0.15294330000E+03 0.  0.
    8880022    1    1    2    0    0  0.12230887492E+03  0.45071399161E+03  0.40380784621E+03  0.63604637629E+03  0.15294330000E+03 0.  0.
<mgrwt>
<rscale>  0 0.49142061E+03</rscale>
<asrwt>0</asrwt>
<pdfrwt beam="1">  1        2 0.84239008E-01 0.49142061E+03</pdfrwt>
<pdfrwt beam="2">  1       -2 0.35407293E+00 0.49142061E+03</pdfrwt>
<totfact> 0.90854367E-01</totfact>
</mgrwt>
</event>
<event>
 4    1  0.1701380E-008  0.4008867E+03  0.7818608E-02  0.1043473E+00
         -2   -1    0    0    0  501 -0.00000000000E+00  0.00000000000E+00  0.36614851493E+03  0.36614851494E+03  0.25500000000E-02 0.  1.
          2   -1    0    0  501    0  0.00000000000E+00 -0.00000000000E+00 -0.74253766757E+03  0.74253766758E+03  0.25500000000E-02 0. -1.
    8880022    1    1    2    0    0  0.32825052943E+03 -0.17195960992E+03  0.16627780108E+03  0.43400285444E+03  0.15294330000E+03 0.  0.
    8880022    1    1    2    0    0 -0.32825052943E+03  0.17195960992E+03 -0.54266695372E+03  0.67468332808E+03  0.15294330000E+03 0.  0.
<mgrwt>
<rscale>  0 0.40088673E+03</rscale>
<asrwt>0</asrwt>
<pdfrwt beam="1">  1        2 0.11423656E+00 0.40088673E+03</pdfrwt>
<pdfrwt beam="2">  1       -2 0.56330541E-01 0.40088673E+03</pdfrwt>
<totfact> 0.11692179E+02</totfact>
</mgrwt>
</event>
<event>
 4    1  0.1701380E-008  0.2951204E+03  0.7818608E-02  0.1087706E+00
          2   -1    0    0  501    0  0.00000000000E+00  0.00000000000E+00  0.13468391358E+04  0.13468391358E+04  0.25500000000E-02 0. -1.
         -2   -1    0    0    0  501 -0.00000000000E+00 -0.00000000000E+00 -0.64599319047E+03  0.64599319048E+03  0.25500000000E-02 0.  1.
    8880022    1    1    2    0    0 -0.11028758975E+03 -0.22702656322E+03 -0.59480536491E+03  0.66399509637E+03  0.15294330000E+03 0.  0.
    8880022    1    1    2    0    0  0.11028758975E+03  0.22702656322E+03  0.12956513102E+04  0.13288372299E+04  0.15294330000E+03 0.  0.
<mgrwt>
<rscale>  0 0.29512043E+03</rscale>
<asrwt>0</asrwt>
<pdfrwt beam="1">  1        2 0.20720602E+00 0.29512043E+03</pdfrwt>
<pdfrwt beam="2">  1       -2 0.99383568E-01 0.29512043E+03</pdfrwt>
<totfact> 0.14530681E+01</totfact>
</mgrwt>
</event>
<event>
 4    1  0.1701380E-008  0.7527115E+03  0.7818608E-02  0.9631106E-01
          2   -1    0    0  501    0  0.00000000000E+00  0.00000000000E+00  0.19412625461E+04  0.19412625461E+04  0.25500000000E-02 0. -1.
         -2   -1    0    0    0  501 -0.00000000000E+00 -0.00000000000E+00 -0.10177071140E+04  0.10177071140E+04  0.25500000000E-02 0.  1.
    8880022    1    1    2    0    0 -0.67299082531E+03 -0.30044339170E+03 -0.78768140235E+03  0.10895028808E+04  0.15294330000E+03 0.  0.
    8880022    1    1    2    0    0  0.67299082531E+03  0.30044339170E+03  0.17112368344E+04  0.18694667793E+04  0.15294330000E+03 0.  0.
<mgrwt>
<rscale>  0 0.75271146E+03</rscale>
<asrwt>0</asrwt>
<pdfrwt beam="1">  1        2 0.29865578E+00 0.75271146E+03</pdfrwt>
<pdfrwt beam="2">  1       -2 0.15657033E+00 0.75271146E+03</pdfrwt>
<totfact> 0.19945689E+00</totfact>
</mgrwt>
</event>
<event>
 4    1  0.1701380E-008  0.5704518E+03  0.7818608E-02  0.9968679E-01
          2   -1    0    0  501    0  0.00000000000E+00  0.00000000000E+00  0.33994553218E+04  0.33994553218E+04  0.25500000000E-02 0. -1.
         -2   -1    0    0    0  501 -0.00000000000E+00 -0.00000000000E+00 -0.65101758128E+03  0.65101758129E+03  0.25500000000E-02 0.  1.
    8880022    1    1    2    0    0 -0.24417030785E+03 -0.49234584221E+03  0.32446427612E+04  0.32944076658E+04  0.15294330000E+03 0.  0.
    8880022    1    1    2    0    0  0.24417030785E+03  0.49234584221E+03 -0.49620502065E+03  0.75606523733E+03  0.15294330000E+03 0.  1.
<mgrwt>
<rscale>  0 0.57045177E+03</rscale>
<asrwt>0</asrwt>
<pdfrwt beam="1">  1        2 0.52299311E+00 0.57045177E+03</pdfrwt>
<pdfrwt beam="2">  1       -2 0.10015655E+00 0.57045177E+03</pdfrwt>
<totfact> 0.89454048E-01</totfact>
</mgrwt>
</event>
<event>
 4    1  0.1701380E-008  0.1019510E+04  0.7818608E-02  0.9287402E-01
         -2   -1    0    0    0  501 -0.00000000000E+00  0.00000000000E+00  0.98520942465E+03  0.98520942465E+03  0.25500000000E-02 0.  1.
          2   -1    0    0  501    0  0.00000000000E+00 -0.00000000000E+00 -0.20168291929E+04  0.20168291929E+04  0.25500000000E-02 0. -1.
    8880022    1    1    2    0    0  0.69282879396E+03  0.73211806462E+03 -0.15523824473E+04  0.18572268342E+04  0.15294330000E+03 0.  0.
    8880022    1    1    2    0    0 -0.69282879396E+03 -0.73211806462E+03  0.52076267902E+03  0.11448117833E+04  0.15294330000E+03 0.  0.
<mgrwt>
<rscale>  0 0.10195098E+04</rscale>
<asrwt>0</asrwt>
<pdfrwt beam="1">  1        2 0.31028141E+00 0.10195098E+04</pdfrwt>
<pdfrwt beam="2">  1       -2 0.15157068E+00 0.10195098E+04</pdfrwt>
<totfact> 0.18965329E+00</totfact>
</mgrwt>
</event>
<event>
 4    1  0.1701380E-008  0.7309510E+03  0.7818608E-02  0.9665718E-01
         -2   -1    0    0    0  501 -0.00000000000E+00  0.00000000000E+00  0.87582449672E+03  0.87582449673E+03  0.25500000000E-02 0.  1.
          2   -1    0    0  501    0  0.00000000000E+00 -0.00000000000E+00 -0.15018914384E+04  0.15018914384E+04  0.25500000000E-02 0. -1.
    8880022    1    1    2    0    0  0.48532693461E+03  0.52474322557E+03  0.60309542486E+03  0.94763570571E+03  0.15294330000E+03 0.  0.
    8880022    1    1    2    0    0 -0.48532693461E+03 -0.52474322557E+03 -0.12291623665E+04  0.14300802294E+04  0.15294330000E+03 0.  0.
<mgrwt>
<rscale>  0 0.73095098E+03</rscale>
<asrwt>0</asrwt>
<pdfrwt beam="1">  1        2 0.23106022E+00 0.73095098E+03</pdfrwt>
<pdfrwt beam="2">  1       -2 0.13474223E+00 0.73095098E+03</pdfrwt>
<totfact> 0.51639425E+00</totfact>
</mgrwt>
</event>
<event>
 4    1  0.1701380E-008  0.1344980E+04  0.7818608E-02  0.8994637E-01
         -2   -1    0    0    0  501 -0.00000000000E+00  0.00000000000E+00  0.78430815624E+03  0.78430815624E+03  0.25500000000E-02 0.  1.
          2   -1    0    0  501    0  0.00000000000E+00 -0.00000000000E+00 -0.38910634577E+04  0.38910634577E+04  0.25500000000E-02 0. -1.
    8880022    1    1    2    0    0 -0.12133102447E+04 -0.55987418044E+03 -0.61570145644E+02  0.13463890165E+04  0.15294330000E+03 0.  0.
    8880022    1    1    2    0    0  0.12133102447E+04  0.55987418044E+03 -0.30451851558E+04  0.33289825975E+04  0.15294330000E+03 0.  0.
<mgrwt>
<rscale>  0 0.13449805E+04</rscale>
<asrwt>0</asrwt>
<pdfrwt beam="1">  1        2 0.59862514E+00 0.13449805E+04</pdfrwt>
<pdfrwt beam="2">  1       -2 0.12066280E+00 0.13449805E+04</pdfrwt>
<totfact> 0.21553310E-01</totfact>
</mgrwt>
</event>
<event>
 4    1  0.1701380E-008  0.4928752E+03  0.7818608E-02  0.1015655E+00
         -2   -1    0    0    0  501 -0.00000000000E+00  0.00000000000E+00  0.15361275433E+03  0.15361275435E+03  0.25500000000E-02 0.  1.
          2   -1    0    0  501    0  0.00000000000E+00 -0.00000000000E+00 -0.25415088122E+04  0.25415088122E+04  0.25500000000E-02 0. -1.
    8880022    1    1    2    0    0  0.44586214694E+03 -0.14401839138E+03 -0.20221927323E+04  0.20813912296E+04  0.15294330000E+03 0.  0.
    8880022    1    1    2    0    0 -0.44586214694E+03  0.14401839138E+03 -0.36570332558E+03  0.61373033695E+03  0.15294330000E+03 0.  0.
<mgrwt>
<rscale>  0 0.49287524E+03</rscale>
<asrwt>0</asrwt>
<pdfrwt beam="1">  1        2 0.39100132E+00 0.49287524E+03</pdfrwt>
<pdfrwt beam="2">  1       -2 0.23632733E-01 0.49287524E+03</pdfrwt>
<totfact> 0.56735130E+01</totfact>
</mgrwt>
</event>
<event>
 4    1  0.2009427E-008  0.1121858E+04  0.7818608E-02  0.9184146E-01
          2   -1    0    0  501    0  0.00000000000E+00  0.00000000000E+00  0.24538666460E+04  0.24538666460E+04  0.25500000000E-02 0. -1.
         -2   -1    0    0    0  501 -0.00000000000E+00 -0.00000000000E+00 -0.13042324300E+04  0.13042324300E+04  0.25500000000E-02 0.  1.
    8880022    1    1    2    0    0  0.31923785959E+03  0.10645471519E+04  0.20384858479E+04  0.23267981551E+04  0.15294330000E+03 0. -1.
    8880022    1    1    2    0    0 -0.31923785959E+03 -0.10645471519E+04 -0.88885163191E+03  0.14313009209E+04  0.15294330000E+03 0.  0.
<mgrwt>
<rscale>  0 0.11218579E+04</rscale>
<asrwt>0</asrwt>
<pdfrwt beam="1">  1        2 0.37751794E+00 0.11218579E+04</pdfrwt>
<pdfrwt beam="2">  1       -2 0.20065114E+00 0.11218579E+04</pdfrwt>
<totfact> 0.48089822E-01</totfact>
</mgrwt>
</event>
<event>
 4    1  0.1701380E-008  0.1299365E+04  0.7818608E-02  0.9030069E-01
          2   -1    0    0  501    0  0.00000000000E+00  0.00000000000E+00  0.31197506011E+04  0.31197506011E+04  0.25500000000E-02 0. -1.
         -2   -1    0    0    0  501 -0.00000000000E+00 -0.00000000000E+00 -0.89855330751E+03  0.89855330751E+03  0.25500000000E-02 0.  1.
    8880022    1    1    2    0    0  0.10896861060E+04 -0.69104493533E+03 -0.15647293326E+03  0.13087529729E+04  0.15294330000E+03 0.  0.
    8880022    1    1    2    0    0 -0.10896861060E+04  0.69104493533E+03  0.23776702269E+04  0.27095509357E+04  0.15294330000E+03 0.  0.
<mgrwt>
<rscale>  0 0.12993654E+04</rscale>
<asrwt>0</asrwt>
<pdfrwt beam="1">  1        2 0.47996164E+00 0.12993654E+04</pdfrwt>
<pdfrwt beam="2">  1       -2 0.13823897E+00 0.12993654E+04</pdfrwt>
<totfact> 0.52862444E-01</totfact>
</mgrwt>
</event>
<event>
 4    1  0.1701380E-008  0.1346974E+04  0.7818608E-02  0.8993122E-01
         -2   -1    0    0    0  501 -0.00000000000E+00  0.00000000000E+00  0.10382562373E+04  0.10382562373E+04  0.25500000000E-02 0.  1.
          2   -1    0    0  501    0  0.00000000000E+00 -0.00000000000E+00 -0.22150407999E+04  0.22150407999E+04  0.25500000000E-02 0. -1.
    8880022    1    1    2    0    0 -0.61056680587E+02 -0.13368695068E+04 -0.13357327257E+04  0.18969769540E+04  0.15294330000E+03 0.  0.
    8880022    1    1    2    0    0  0.61056680587E+02  0.13368695068E+04  0.15894816315E+03  0.13563200832E+04  0.15294330000E+03 0.  0.
<mgrwt>
<rscale>  0 0.13469743E+04</rscale>
<asrwt>0</asrwt>
<pdfrwt beam="1">  1        2 0.34077551E+00 0.13469743E+04</pdfrwt>
<pdfrwt beam="2">  1       -2 0.15973173E+00 0.13469743E+04</pdfrwt>
<totfact> 0.12275275E+00</totfact>
</mgrwt>
</event>
<event>
 4    1  0.1701380E-008  0.8704216E+03  0.7818608E-02  0.9463330E-01
         -2   -1    0    0    0  501 -0.00000000000E+00  0.00000000000E+00  0.69726259034E+03  0.69726259035E+03  0.25500000000E-02 0.  1.
          2   -1    0    0  501    0  0.00000000000E+00 -0.00000000000E+00 -0.18946774849E+04  0.18946774849E+04  0.25500000000E-02 0. -1.
    8880022    1    1    2    0    0 -0.84460318271E+03 -0.14452558772E+03 -0.14450736729E+04  0.16869711779E+04  0.15294330000E+03 0.  0.
    8880022    1    1    2    0    0  0.84460318271E+03  0.14452558772E+03  0.24765877836E+03  0.90496889740E+03  0.15294330000E+03 0.  0.
<mgrwt>
<rscale>  0 0.87042164E+03</rscale>
<asrwt>0</asrwt>
<pdfrwt beam="1">  1        2 0.29148884E+00 0.87042164E+03</pdfrwt>
<pdfrwt beam="2">  1       -2 0.10727117E+00 0.87042164E+03</pdfrwt>
<totfact> 0.54188154E+00</totfact>
</mgrwt>
</event>
<event>
 4    1  0.1701380E-008  0.1317171E+04  0.7818608E-02  0.9016058E-01
         -2   -1    0    0    0  501 -0.00000000000E+00  0.00000000000E+00  0.14995917199E+04  0.14995917199E+04  0.25500000000E-02 0.  1.
          2   -1    0    0  501    0  0.00000000000E+00 -0.00000000000E+00 -0.19052679955E+04  0.19052679955E+04  0.25500000000E-02 0. -1.
    8880022    1    1    2    0    0 -0.77033244363E+03 -0.10574195414E+04  0.86409392894E+03  0.15753089002E+04  0.15294330000E+03 0.  1.
    8880022    1    1    2    0    0  0.77033244363E+03  0.10574195414E+04 -0.12697702045E+04  0.18295508152E+04  0.15294330000E+03 0.  0.
<mgrwt>
<rscale>  0 0.13171711E+04</rscale>
<asrwt>0</asrwt>
<pdfrwt beam="1">  1        2 0.29311815E+00 0.13171711E+04</pdfrwt>
<pdfrwt beam="2">  1       -2 0.23070642E+00 0.13171711E+04</pdfrwt>
<totfact> 0.61115439E-01</totfact>
</mgrwt>
</event>
<event>
 4    1  0.1701380E-008  0.1246592E+04  0.7818608E-02  0.9073025E-01
         -2   -1    0    0    0  501 -0.00000000000E+00  0.00000000000E+00  0.14194161497E+04  0.14194161497E+04  0.25500000000E-02 0.  1.
          2   -1    0    0  501    0  0.00000000000E+00 -0.00000000000E+00 -0.29936946413E+04  0.29936946413E+04  0.25500000000E-02 0. -1.
    8880022    1    1    2    0    0 -0.57314634336E+03 -0.10964045974E+04  0.97021915220E+03  0.15796571237E+04  0.15294330000E+03 0.  0.
    8880022    1    1    2    0    0  0.57314634336E+03  0.10964045974E+04 -0.25444976439E+04  0.28334536673E+04  0.15294330000E+03 0.  0.
<mgrwt>
<rscale>  0 0.12465919E+04</rscale>
<asrwt>0</asrwt>
<pdfrwt beam="1">  1        2 0.46056840E+00 0.12465919E+04</pdfrwt>
<pdfrwt beam="2">  1       -2 0.21837172E+00 0.12465919E+04</pdfrwt>
<totfact> 0.17352294E-01</totfact>
</mgrwt>
</event>
<event>
 4    1  0.1701380E-008  0.2841264E+03  0.7818608E-02  0.1093456E+00
         -2   -1    0    0    0  501 -0.00000000000E+00  0.00000000000E+00  0.12539339587E+04  0.12539339587E+04  0.25500000000E-02 0.  1.
          2   -1    0    0  501    0  0.00000000000E+00 -0.00000000000E+00 -0.51310326098E+03  0.51310326098E+03  0.25500000000E-02 0. -1.
    8880022    1    1    2    0    0 -0.20013149379E+03 -0.13146684221E+03  0.11966488250E+04  0.12299171552E+04  0.15294330000E+03 0.  0.
    8880022    1    1    2    0    0  0.20013149379E+03  0.13146684221E+03 -0.45581812730E+03  0.53712006441E+03  0.15294330000E+03 0.  0.
<mgrwt>
<rscale>  0 0.28412638E+03</rscale>
<asrwt>0</asrwt>
<pdfrwt beam="1">  1        2 0.78938964E-01 0.28412638E+03</pdfrwt>
<pdfrwt beam="2">  1       -2 0.19291292E+00 0.28412638E+03</pdfrwt>
<totfact> 0.97614052E+00</totfact>
</mgrwt>
</event>
<event>
 4    1  0.1701380E-008  0.6210755E+03  0.7818608E-02  0.9862621E-01
         -2   -1    0    0    0  501 -0.00000000000E+00  0.00000000000E+00  0.33513831081E+03  0.33513831082E+03  0.25500000000E-02 0.  1.
          2   -1    0    0  501    0  0.00000000000E+00 -0.00000000000E+00 -0.39517796427E+04  0.39517796427E+04  0.25500000000E-02 0. -1.
    8880022    1    1    2    0    0  0.57660022704E+03  0.17284472457E+03 -0.36128355413E+04  0.36658307956E+04  0.15294330000E+03 0. -1.
    8880022    1    1    2    0    0 -0.57660022704E+03 -0.17284472457E+03 -0.38057905672E+01  0.62108715788E+03  0.15294330000E+03 0.  0.
<mgrwt>
<rscale>  0 0.62107550E+03</rscale>
<asrwt>0</asrwt>
<pdfrwt beam="1">  1        2 0.60796606E+00 0.62107550E+03</pdfrwt>
<pdfrwt beam="2">  1       -2 0.51559743E-01 0.62107550E+03</pdfrwt>
<totfact> 0.15255925E+00</totfact>
</mgrwt>
</event>
<event>
 4    1  0.1701380E-008  0.9537837E+03  0.7818608E-02  0.9360739E-01
         -2   -1    0    0    0  501 -0.00000000000E+00  0.00000000000E+00  0.83324805679E+03  0.83324805680E+03  0.25500000000E-02 0.  1.
          2   -1    0    0  501    0  0.00000000000E+00 -0.00000000000E+00 -0.15927294062E+04  0.15927294063E+04  0.25500000000E-02 0. -1.
    8880022    1    1    2    0    0 -0.86579011235E+03 -0.36975564006E+03 -0.10600292645E+04  0.14259612360E+04  0.15294330000E+03 0.  0.
    8880022    1    1    2    0    0  0.86579011235E+03  0.36975564006E+03  0.30054791508E+03  0.10000162270E+04  0.15294330000E+03 0.  0.
<mgrwt>
<rscale>  0 0.95378373E+03</rscale>
<asrwt>0</asrwt>
<pdfrwt beam="1">  1        2 0.24503529E+00 0.95378373E+03</pdfrwt>
<pdfrwt beam="2">  1       -2 0.12819201E+00 0.95378373E+03</pdfrwt>
<totfact> 0.50631331E+00</totfact>
</mgrwt>
</event>
<event>
 4    1  0.1701380E-008  0.6852505E+03  0.7818608E-02  0.9742794E-01
          2   -1    0    0  501    0  0.00000000000E+00  0.00000000000E+00  0.30612722397E+04  0.30612722397E+04  0.25500000000E-02 0. -1.
         -2   -1    0    0    0  501 -0.00000000000E+00 -0.00000000000E+00 -0.23931395812E+03  0.23931395813E+03  0.25500000000E-02 0.  1.
    8880022    1    1    2    0    0  0.64161596029E+03  0.18575678987E+03  0.42212000721E+03  0.80483139786E+03  0.15294330000E+03 0.  0.
    8880022    1    1    2    0    0 -0.64161596029E+03 -0.18575678987E+03  0.23998382744E+04  0.24957548000E+04  0.15294330000E+03 0.  0.
<mgrwt>
<rscale>  0 0.68525052E+03</rscale>
<asrwt>0</asrwt>
<pdfrwt beam="1">  1        2 0.47096491E+00 0.68525052E+03</pdfrwt>
<pdfrwt beam="2">  1       -2 0.36817536E-01 0.68525052E+03</pdfrwt>
<totfact> 0.11923215E+01</totfact>
</mgrwt>
</event>
<event>
 4    1  0.1701380E-008  0.3200608E+03  0.7818608E-02  0.1075621E+00
         -2   -1    0    0    0  501 -0.00000000000E+00  0.00000000000E+00  0.27692586817E+03  0.27692586818E+03  0.25500000000E-02 0.  1.
          2   -1    0    0  501    0  0.00000000000E+00 -0.00000000000E+00 -0.23207882183E+04  0.23207882183E+04  0.25500000000E-02 0. -1.
    8880022    1    1    2    0    0 -0.22047446844E+03  0.17446572113E+03 -0.22127841939E+04  0.22358114457E+04  0.15294330000E+03 0. -1.
    8880022    1    1    2    0    0  0.22047446844E+03 -0.17446572113E+03  0.16892184374E+03  0.36190264077E+03  0.15294330000E+03 0.  0.
<mgrwt>
<rscale>  0 0.32006083E+03</rscale>
<asrwt>0</asrwt>
<pdfrwt beam="1">  1        2 0.35704433E+00 0.32006083E+03</pdfrwt>
<pdfrwt beam="2">  1       -2 0.42603981E-01 0.32006083E+03</pdfrwt>
<totfact> 0.26331010E+01</totfact>
</mgrwt>
</event>
<event>
 4    1  0.1701380E-008  0.1518325E+04  0.7818608E-02  0.8872357E-01
          2   -1    0    0  501    0  0.00000000000E+00  0.00000000000E+00  0.36984560975E+04  0.36984560975E+04  0.25500000000E-02 0. -1.
         -2   -1    0    0    0  501 -0.00000000000E+00 -0.00000000000E+00 -0.72962915085E+03  0.72962915085E+03  0.25500000000E-02 0.  1.
    8880022    1    1    2    0    0  0.14957083618E+04  0.21160614089E+03  0.63927986719E+03  0.16474195167E+04  0.15294330000E+03 0.  0.
    8880022    1    1    2    0    0 -0.14957083618E+04 -0.21160614089E+03  0.23295470795E+04  0.27806657316E+04  0.15294330000E+03 0.  0.
<mgrwt>
<rscale>  0 0.15183255E+04</rscale>
<asrwt>0</asrwt>
<pdfrwt beam="1">  1        2 0.56899325E+00 0.15183255E+04</pdfrwt>
<pdfrwt beam="2">  1       -2 0.11225064E+00 0.15183255E+04</pdfrwt>
<totfact> 0.35146647E-01</totfact>
</mgrwt>
</event>
<event>
 4    1  0.1701380E-008  0.8869251E+03  0.7818608E-02  0.9442075E-01
         -2   -1    0    0    0  501 -0.00000000000E+00  0.00000000000E+00  0.51610181300E+03  0.51610181301E+03  0.25500000000E-02 0.  1.
          2   -1    0    0  501    0  0.00000000000E+00 -0.00000000000E+00 -0.21349611720E+04  0.21349611720E+04  0.25500000000E-02 0. -1.
    8880022    1    1    2    0    0 -0.30012956230E+03 -0.82046742728E+03 -0.10044798038E+03  0.89259509475E+03  0.15294330000E+03 0.  0.
    8880022    1    1    2    0    0  0.30012956230E+03  0.82046742728E+03 -0.15184113787E+04  0.17584678903E+04  0.15294330000E+03 0.  0.
<mgrwt>
<rscale>  0 0.88692514E+03</rscale>
<asrwt>0</asrwt>
<pdfrwt beam="1">  1        2 0.32845556E+00 0.88692514E+03</pdfrwt>
<pdfrwt beam="2">  1       -2 0.79400280E-01 0.88692514E+03</pdfrwt>
<totfact> 0.80423857E+00</totfact>
</mgrwt>
</event>
<event>
 4    1  0.1701380E-008  0.2020377E+03  0.7818608E-02  0.1148031E+00
          2   -1    0    0  501    0  0.00000000000E+00  0.00000000000E+00  0.23298255441E+03  0.23298255442E+03  0.25500000000E-02 0. -1.
         -2   -1    0    0    0  501 -0.00000000000E+00 -0.00000000000E+00 -0.21236910150E+03  0.21236910152E+03  0.25500000000E-02 0.  1.
    8880022    1    1    2    0    0  0.37174341751E+02 -0.12667144576E+03  0.10346061338E+03  0.22698752915E+03  0.15294330000E+03 0.  0.
    8880022    1    1    2    0    0 -0.37174341751E+02  0.12667144576E+03 -0.82847160474E+02  0.21836412679E+03  0.15294330000E+03 0.  1.
<mgrwt>
<rscale>  0 0.20203772E+03</rscale>
<asrwt>0</asrwt>
<pdfrwt beam="1">  1        2 0.35843470E-01 0.20203772E+03</pdfrwt>
<pdfrwt beam="2">  1       -2 0.32672170E-01 0.20203772E+03</pdfrwt>
<totfact> 0.12511266E+03</totfact>
</mgrwt>
</event>
<event>
 4    1  0.1701380E-008  0.1158393E+04  0.7818608E-02  0.9150075E-01
          2   -1    0    0  501    0  0.00000000000E+00  0.00000000000E+00  0.12976144248E+04  0.12976144248E+04  0.25500000000E-02 0. -1.
         -2   -1    0    0    0  501 -0.00000000000E+00 -0.00000000000E+00 -0.17337129463E+04  0.17337129463E+04  0.25500000000E-02 0.  1.
    8880022    1    1    2    0    0  0.11431494237E+04  0.10813434437E+03 -0.11808584918E+04  0.16541771586E+04  0.15294330000E+03 0.  0.
    8880022    1    1    2    0    0 -0.11431494237E+04 -0.10813434437E+03  0.74475997033E+03  0.13771502125E+04  0.15294330000E+03 0.  0.
<mgrwt>
<rscale>  0 0.11583934E+04</rscale>
<asrwt>0</asrwt>
<pdfrwt beam="1">  1        2 0.19963299E+00 0.11583934E+04</pdfrwt>
<pdfrwt beam="2">  1       -2 0.26672507E+00 0.11583934E+04</pdfrwt>
<totfact> 0.82345552E-01</totfact>
</mgrwt>
</event>
<event>
 4    1  0.1701380E-008  0.6929257E+03  0.7818608E-02  0.9729407E-01
          2   -1    0    0  501    0  0.00000000000E+00  0.00000000000E+00  0.46749335011E+03  0.46749335012E+03  0.25500000000E-02 0. -1.
         -2   -1    0    0    0  501 -0.00000000000E+00 -0.00000000000E+00 -0.15362354371E+04  0.15362354371E+04  0.25500000000E-02 0.  1.
    8880022    1    1    2    0    0  0.24393914473E+03  0.63027614745E+03  0.42410974488E+02  0.69422235066E+03  0.15294330000E+03 0.  0.
    8880022    1    1    2    0    0 -0.24393914473E+03 -0.63027614745E+03 -0.11111530615E+04  0.13095064366E+04  0.15294330000E+03 0.  0.
<mgrwt>
<rscale>  0 0.69292567E+03</rscale>
<asrwt>0</asrwt>
<pdfrwt beam="1">  1        2 0.71922054E-01 0.69292567E+03</pdfrwt>
<pdfrwt beam="2">  1       -2 0.23634391E+00 0.69292567E+03</pdfrwt>
<totfact> 0.53696910E+00</totfact>
</mgrwt>
</event>
<event>
 4    1  0.1701380E-008  0.5023015E+03  0.7818608E-02  0.1013180E+00
         -2   -1    0    0    0  501 -0.00000000000E+00  0.00000000000E+00  0.19325191249E+03  0.19325191251E+03  0.25500000000E-02 0.  1.
          2   -1    0    0  501    0  0.00000000000E+00 -0.00000000000E+00 -0.50803725304E+04  0.50803725304E+04  0.25500000000E-02 0. -1.
    8880022    1    1    2    0    0  0.45500017056E+03 -0.14795278260E+03 -0.47164463874E+04  0.47431185268E+04  0.15294330000E+03 0.  0.
    8880022    1    1    2    0    0 -0.45500017056E+03  0.14795278260E+03 -0.17067423057E+03  0.53050591617E+03  0.15294330000E+03 0.  0.
<mgrwt>
<rscale>  0 0.50230154E+03</rscale>
<asrwt>0</asrwt>
<pdfrwt beam="1">  1        2 0.78159567E+00 0.50230154E+03</pdfrwt>
<pdfrwt beam="2">  1       -2 0.29731067E-01 0.50230154E+03</pdfrwt>
<totfact> 0.36571143E-01</totfact>
</mgrwt>
</event>
<event>
 4    1  0.1701380E-008  0.5710570E+03  0.7818608E-02  0.9967342E-01
         -2   -1    0    0    0  501 -0.00000000000E+00  0.00000000000E+00  0.18926300253E+03  0.18926300255E+03  0.25500000000E-02 0.  1.
          2   -1    0    0  501    0  0.00000000000E+00 -0.00000000000E+00 -0.27486487539E+04  0.27486487539E+04  0.25500000000E-02 0. -1.
    8880022    1    1    2    0    0 -0.49155003506E+03  0.24716997137E+03 -0.21770014588E+04  0.22506535576E+04  0.15294330000E+03 0. -1.
    8880022    1    1    2    0    0  0.49155003506E+03 -0.24716997137E+03 -0.38238429266E+03  0.68725819893E+03  0.15294330000E+03 0.  0.
<mgrwt>
<rscale>  0 0.57105699E+03</rscale>
<asrwt>0</asrwt>
<pdfrwt beam="1">  1        2 0.42286901E+00 0.57105699E+03</pdfrwt>
<pdfrwt beam="2">  1       -2 0.29117387E-01 0.57105699E+03</pdfrwt>
<totfact> 0.29159181E+01</totfact>
</mgrwt>
</event>
<event>
 4    1  0.1701380E-008  0.6638661E+03  0.7818608E-02  0.9781103E-01
          2   -1    0    0  501    0  0.00000000000E+00  0.00000000000E+00  0.42849098056E+04  0.42849098056E+04  0.25500000000E-02 0. -1.
         -2   -1    0    0    0  501 -0.00000000000E+00 -0.00000000000E+00 -0.20361207208E+03  0.20361207210E+03  0.25500000000E-02 0.  1.
    8880022    1    1    2    0    0  0.46594737887E+03  0.44745897714E+03  0.46190200145E+03  0.80874693696E+03  0.15294330000E+03 0.  0.
    8880022    1    1    2    0    0 -0.46594737887E+03 -0.44745897714E+03  0.36193957321E+04  0.36797749407E+04  0.15294330000E+03 0.  0.
<mgrwt>
<rscale>  0 0.66386606E+03</rscale>
<asrwt>0</asrwt>
<pdfrwt beam="1">  1        2 0.65921687E+00 0.66386606E+03</pdfrwt>
<pdfrwt beam="2">  1       -2 0.31324935E-01 0.66386606E+03</pdfrwt>
<totfact> 0.21247306E+00</totfact>
</mgrwt>
</event>
<event>
 4    1  0.1701380E-008  0.3385381E+03  0.7818608E-02  0.1067420E+00
          2   -1    0    0  501    0  0.00000000000E+00  0.00000000000E+00  0.59306245491E+03  0.59306245491E+03  0.25500000000E-02 0. -1.
         -2   -1    0    0    0  501 -0.00000000000E+00 -0.00000000000E+00 -0.26947415496E+03  0.26947415497E+03  0.25500000000E-02 0.  1.
    8880022    1    1    2    0    0  0.28969416461E+03  0.85403175509E+02  0.39116663516E+03  0.51731943794E+03  0.15294330000E+03 0.  0.
    8880022    1    1    2    0    0 -0.28969416461E+03 -0.85403175509E+02 -0.67578335208E+02  0.34521717194E+03  0.15294330000E+03 0.  0.
<mgrwt>
<rscale>  0 0.33853813E+03</rscale>
<asrwt>0</asrwt>
<pdfrwt beam="1">  1        2 0.91240377E-01 0.33853813E+03</pdfrwt>
<pdfrwt beam="2">  1       -2 0.41457563E-01 0.33853813E+03</pdfrwt>
<totfact> 0.28526644E+02</totfact>
</mgrwt>
</event>
<event>
 4    1  0.1701380E-008  0.4834708E+03  0.7818608E-02  0.1018186E+00
         -2   -1    0    0    0  501 -0.00000000000E+00  0.00000000000E+00  0.48036392859E+03  0.48036392860E+03  0.25500000000E-02 0.  1.
          2   -1    0    0  501    0  0.00000000000E+00 -0.00000000000E+00 -0.11217449082E+04  0.11217449082E+04  0.25500000000E-02 0. -1.
    8880022    1    1    2    0    0 -0.24322097903E+03  0.38883916005E+03 -0.92346122419E+03  0.10423649182E+04  0.15294330000E+03 0.  0.
    8880022    1    1    2    0    0  0.24322097903E+03 -0.38883916005E+03  0.28208024460E+03  0.55974391862E+03  0.15294330000E+03 0.  1.
<mgrwt>
<rscale>  0 0.48347077E+03</rscale>
<asrwt>0</asrwt>
<pdfrwt beam="1">  1        2 0.17257614E+00 0.48347077E+03</pdfrwt>
<pdfrwt beam="2">  1       -2 0.73902143E-01 0.48347077E+03</pdfrwt>
<totfact> 0.36624955E+01</totfact>
</mgrwt>
</event>
<event>
 4    1  0.1701380E-008  0.8673947E+03  0.7818608E-02  0.9467283E-01
         -2   -1    0    0    0  501 -0.00000000000E+00  0.00000000000E+00  0.45455788632E+03  0.45455788633E+03  0.25500000000E-02 0.  1.
          2   -1    0    0  501    0  0.00000000000E+00 -0.00000000000E+00 -0.30829071834E+04  0.30829071834E+04  0.25500000000E-02 0. -1.
    8880022    1    1    2    0    0 -0.19707330077E+03 -0.83074904362E+03 -0.11051114468E+03  0.87440621307E+03  0.15294330000E+03 0.  0.
    8880022    1    1    2    0    0  0.19707330077E+03  0.83074904362E+03 -0.25178381524E+04  0.26630588567E+04  0.15294330000E+03 0.  0.
<mgrwt>
<rscale>  0 0.86739467E+03</rscale>
<asrwt>0</asrwt>
<pdfrwt beam="1">  1        2 0.47429340E+00 0.86739467E+03</pdfrwt>
<pdfrwt beam="2">  1       -2 0.69931984E-01 0.86739467E+03</pdfrwt>
<totfact> 0.30081150E+00</totfact>
</mgrwt>
</event>
<event>
 4    1  0.1701380E-008  0.1219631E+04  0.7818608E-02  0.9095845E-01
         -2   -1    0    0    0  501 -0.00000000000E+00  0.00000000000E+00  0.48270231622E+03  0.48270231623E+03  0.25500000000E-02 0.  1.
          2   -1    0    0  501    0  0.00000000000E+00 -0.00000000000E+00 -0.37818412937E+04  0.37818412937E+04  0.25500000000E-02 0. -1.
    8880022    1    1    2    0    0 -0.12086071823E+04  0.58116036416E+02 -0.25670810970E+04  0.28420777270E+04  0.15294330000E+03 0.  0.
    8880022    1    1    2    0    0  0.12086071823E+04 -0.58116036416E+02 -0.73205788054E+03  0.14224658830E+04  0.15294330000E+03 0.  0.
<mgrwt>
<rscale>  0 0.12196313E+04</rscale>
<asrwt>0</asrwt>
<pdfrwt beam="1">  1        2 0.58182172E+00 0.12196313E+04</pdfrwt>
<pdfrwt beam="2">  1       -2 0.74261897E-01 0.12196313E+04</pdfrwt>
<totfact> 0.83440247E-01</totfact>
</mgrwt>
</event>
<event>
 4    1  0.1701380E-008  0.1427947E+04  0.7818608E-02  0.8933834E-01
         -2   -1    0    0    0  501 -0.00000000000E+00  0.00000000000E+00  0.81371036087E+03  0.81371036087E+03  0.25500000000E-02 0.  1.
          2   -1    0    0  501    0  0.00000000000E+00 -0.00000000000E+00 -0.36111423273E+04  0.36111423273E+04  0.25500000000E-02 0. -1.
    8880022    1    1    2    0    0 -0.29712213451E+03  0.13882937608E+04 -0.17470335405E+03  0.14385944682E+04  0.15294330000E+03 0.  0.
    8880022    1    1    2    0    0  0.29712213451E+03 -0.13882937608E+04 -0.26227286124E+04  0.29862582200E+04  0.15294330000E+03 0.  0.
<mgrwt>
<rscale>  0 0.14279471E+04</rscale>
<asrwt>0</asrwt>
<pdfrwt beam="1">  1        2 0.55556035E+00 0.14279471E+04</pdfrwt>
<pdfrwt beam="2">  1       -2 0.12518621E+00 0.14279471E+04</pdfrwt>
<totfact> 0.31326220E-01</totfact>
</mgrwt>
</event>
<event>
 4    1  0.1701380E-008  0.9779514E+03  0.7818608E-02  0.9333063E-01
          2   -1    0    0  501    0  0.00000000000E+00  0.00000000000E+00  0.25014685424E+04  0.25014685424E+04  0.25500000000E-02 0. -1.
         -2   -1    0    0    0  501 -0.00000000000E+00 -0.00000000000E+00 -0.42671759527E+03  0.42671759528E+03  0.25500000000E-02 0.  1.
    8880022    1    1    2    0    0 -0.66652164562E+03 -0.69910389578E+03  0.56517737060E+03  0.11295195768E+04  0.15294330000E+03 0.  0.
    8880022    1    1    2    0    0  0.66652164562E+03  0.69910389578E+03  0.15095735765E+04  0.17986665609E+04  0.15294330000E+03 0.  0.
<mgrwt>
<rscale>  0 0.97795144E+03</rscale>
<asrwt>0</asrwt>
<pdfrwt beam="1">  1        2 0.38484130E+00 0.97795144E+03</pdfrwt>
<pdfrwt beam="2">  1       -2 0.65648863E-01 0.97795144E+03</pdfrwt>
<totfact> 0.75304866E+00</totfact>
</mgrwt>
</event>
<event>
 4    1  0.1701380E-008  0.2255678E+04  0.7818608E-02  0.8495605E-01
         -2   -1    0    0    0  501 -0.00000000000E+00  0.00000000000E+00  0.17075835451E+04  0.17075835451E+04  0.25500000000E-02 0.  1.
          2   -1    0    0  501    0  0.00000000000E+00 -0.00000000000E+00 -0.45056935060E+04  0.45056935060E+04  0.25500000000E-02 0. -1.
    8880022    1    1    2    0    0  0.21798267401E+04 -0.55950459483E+03 -0.32070060074E+04  0.39208378177E+04  0.15294330000E+03 0.  0.
    8880022    1    1    2    0    0 -0.21798267401E+04  0.55950459483E+03  0.40889604650E+03  0.22924392333E+04  0.15294330000E+03 0.  0.
<mgrwt>
<rscale>  0 0.22556777E+04</rscale>
<asrwt>0</asrwt>
<pdfrwt beam="1">  1        2 0.69318361E+00 0.22556777E+04</pdfrwt>
<pdfrwt beam="2">  1       -2 0.26270516E+00 0.22556777E+04</pdfrwt>
<totfact> 0.56465581E-03</totfact>
</mgrwt>
</event>
<event>
 4    1  0.1701380E-008  0.3790483E+03  0.7818608E-02  0.1051286E+00
         -2   -1    0    0    0  501 -0.00000000000E+00  0.00000000000E+00  0.79152864778E+03  0.79152864779E+03  0.25500000000E-02 0.  1.
          2   -1    0    0  501    0  0.00000000000E+00 -0.00000000000E+00 -0.19654002289E+03  0.19654002291E+03  0.25500000000E-02 0. -1.
    8880022    1    1    2    0    0  0.30066085194E+03  0.17288435513E+03  0.16091675828E+03  0.41179097155E+03  0.15294330000E+03 0.  0.
    8880022    1    1    2    0    0 -0.30066085194E+03 -0.17288435513E+03  0.43407186661E+03  0.57627769915E+03  0.15294330000E+03 0.  0.
<mgrwt>
<rscale>  0 0.37904828E+03</rscale>
<asrwt>0</asrwt>
<pdfrwt beam="1">  1        2 0.30236927E-01 0.37904828E+03</pdfrwt>
<pdfrwt beam="2">  1       -2 0.12177364E+00 0.37904828E+03</pdfrwt>
<totfact> 0.92966598E+01</totfact>
</mgrwt>
</event>
<event>
 4    1  0.1701380E-008  0.9673780E+03  0.7818608E-02  0.9345066E-01
          2   -1    0    0  501    0  0.00000000000E+00  0.00000000000E+00  0.24890736550E+04  0.24890736550E+04  0.25500000000E-02 0. -1.
         -2   -1    0    0    0  501 -0.00000000000E+00 -0.00000000000E+00 -0.59823600020E+03  0.59823600021E+03  0.25500000000E-02 0.  1.
    8880022    1    1    2    0    0 -0.77494542852E+03  0.55846947048E+03  0.18863312131E+04  0.21199211460E+04  0.15294330000E+03 0.  0.
    8880022    1    1    2    0    0  0.77494542852E+03 -0.55846947048E+03  0.45064416296E+01  0.96738850917E+03  0.15294330000E+03 0.  0.
<mgrwt>
<rscale>  0 0.96737801E+03</rscale>
<asrwt>0</asrwt>
<pdfrwt beam="1">  1        2 0.38293440E+00 0.96737801E+03</pdfrwt>
<pdfrwt beam="2">  1       -2 0.92036309E-01 0.96737801E+03</pdfrwt>
<totfact> 0.35928724E+00</totfact>
</mgrwt>
</event>
<event>
 4    1  0.1701380E-008  0.1264358E+04  0.7818608E-02  0.9058317E-01
          2   -1    0    0  501    0  0.00000000000E+00  0.00000000000E+00  0.21657314568E+04  0.21657314568E+04  0.25500000000E-02 0. -1.
         -2   -1    0    0    0  501 -0.00000000000E+00 -0.00000000000E+00 -0.19027327502E+04  0.19027327502E+04  0.25500000000E-02 0.  1.
    8880022    1    1    2    0    0 -0.61689095203E+03  0.10930022431E+04 -0.14599754561E+04  0.19313540161E+04  0.15294330000E+03 0.  0.
    8880022    1    1    2    0    0  0.61689095203E+03 -0.10930022431E+04  0.17229741626E+04  0.21371101909E+04  0.15294330000E+03 0.  0.
<mgrwt>
<rscale>  0 0.12643575E+04</rscale>
<asrwt>0</asrwt>
<pdfrwt beam="1">  1        2 0.33318945E+00 0.12643575E+04</pdfrwt>
<pdfrwt beam="2">  1       -2 0.29272812E+00 0.12643575E+04</pdfrwt>
<totfact> 0.18395546E-01</totfact>
</mgrwt>
</event>
<event>
 4    1  0.1959323E-008  0.1743176E+04  0.7818608E-02  0.8737116E-01
          2   -1    0    0  501    0  0.00000000000E+00  0.00000000000E+00  0.22218843222E+04  0.22218843222E+04  0.25500000000E-02 0. -1.
         -2   -1    0    0    0  501 -0.00000000000E+00 -0.00000000000E+00 -0.28062160451E+04  0.28062160451E+04  0.25500000000E-02 0.  1.
    8880022    1    1    2    0    0  0.15830006271E+04 -0.71370802756E+03  0.15078858099E+04  0.23048603868E+04  0.15294330000E+03 0.  0.
    8880022    1    1    2    0    0 -0.15830006271E+04  0.71370802756E+03 -0.20922175328E+04  0.27232399805E+04  0.15294330000E+03 0.  0.
<mgrwt>
<rscale>  0 0.17431758E+04</rscale>
<asrwt>0</asrwt>
<pdfrwt beam="1">  1        2 0.34182836E+00 0.17431758E+04</pdfrwt>
<pdfrwt beam="2">  1       -2 0.43172554E+00 0.17431758E+04</pdfrwt>
<totfact> 0.20910968E-02</totfact>
</mgrwt>
</event>
<event>
 4    1  0.1701380E-008  0.1663604E+04  0.7818608E-02  0.8782399E-01
          2   -1    0    0  501    0  0.00000000000E+00  0.00000000000E+00  0.13863915897E+04  0.13863915897E+04  0.25500000000E-02 0. -1.
         -2   -1    0    0    0  501 -0.00000000000E+00 -0.00000000000E+00 -0.24490640660E+04  0.24490640660E+04  0.25500000000E-02 0.  1.
    8880022    1    1    2    0    0 -0.32088468430E+03  0.16251828687E+04  0.29327453311E+03  0.16892566241E+04  0.15294330000E+03 0.  0.
    8880022    1    1    2    0    0  0.32088468430E+03 -0.16251828687E+04 -0.13559470094E+04  0.21461990315E+04  0.15294330000E+03 0.  0.
<mgrwt>
<rscale>  0 0.16636039E+04</rscale>
<asrwt>0</asrwt>
<pdfrwt beam="1">  1        2 0.21329101E+00 0.16636039E+04</pdfrwt>
<pdfrwt beam="2">  1       -2 0.37677909E+00 0.16636039E+04</pdfrwt>
<totfact> 0.14341372E-01</totfact>
</mgrwt>
</event>
<event>
 4    1  0.1701380E-008  0.5541817E+03  0.7818608E-02  0.1000531E+00
         -2   -1    0    0    0  501 -0.00000000000E+00  0.00000000000E+00  0.19300217274E+03  0.19300217276E+03  0.25500000000E-02 0.  1.
          2   -1    0    0  501    0  0.00000000000E+00 -0.00000000000E+00 -0.29297485619E+04  0.29297485619E+04  0.25500000000E-02 0. -1.
    8880022    1    1    2    0    0  0.10268216425E+03  0.52266822594E+03 -0.31301745062E+03  0.63647252782E+03  0.15294330000E+03 0.  0.
    8880022    1    1    2    0    0 -0.10268216425E+03 -0.52266822594E+03 -0.24237289385E+04  0.24862782068E+04  0.15294330000E+03 0.  0.
<mgrwt>
<rscale>  0 0.55418170E+03</rscale>
<asrwt>0</asrwt>
<pdfrwt beam="1">  1        2 0.45073051E+00 0.55418170E+03</pdfrwt>
<pdfrwt beam="2">  1       -2 0.29692644E-01 0.55418170E+03</pdfrwt>
<totfact> 0.22073416E+01</totfact>
</mgrwt>
</event>
<event>
 4    1  0.1701380E-008  0.5336306E+03  0.7818608E-02  0.1005355E+00
         -2   -1    0    0    0  501 -0.00000000000E+00  0.00000000000E+00  0.87003292267E+03  0.87003292267E+03  0.25500000000E-02 0.  1.
          2   -1    0    0  501    0  0.00000000000E+00 -0.00000000000E+00 -0.71368924221E+03  0.71368924221E+03  0.25500000000E-02 0. -1.
    8880022    1    1    2    0    0 -0.18120953006E+03  0.47805131889E+03 -0.50447721148E+03  0.73434247269E+03  0.15294330000E+03 0. -1.
    8880022    1    1    2    0    0  0.18120953006E+03 -0.47805131889E+03  0.66082089194E+03  0.84937969220E+03  0.15294330000E+03 0.  0.
<mgrwt>
<rscale>  0 0.53363059E+03</rscale>
<asrwt>0</asrwt>
<pdfrwt beam="1">  1        2 0.10979835E+00 0.53363059E+03</pdfrwt>
<pdfrwt beam="2">  1       -2 0.13385122E+00 0.53363059E+03</pdfrwt>
<totfact> 0.16769040E+01</totfact>
</mgrwt>
</event>
<event>
 4    1  0.1701380E-008  0.8843687E+03  0.7818608E-02  0.9445335E-01
         -2   -1    0    0    0  501 -0.00000000000E+00  0.00000000000E+00  0.15615801799E+04  0.15615801799E+04  0.25500000000E-02 0.  1.
          2   -1    0    0  501    0  0.00000000000E+00 -0.00000000000E+00 -0.27214553978E+04  0.27214553978E+04  0.25500000000E-02 0. -1.
    8880022    1    1    2    0    0 -0.27316672009E+03 -0.82710114241E+03  0.13545117341E+04  0.16176557259E+04  0.15294330000E+03 0.  0.
    8880022    1    1    2    0    0  0.27316672009E+03  0.82710114241E+03 -0.25143869520E+04  0.26653798518E+04  0.15294330000E+03 0.  0.
<mgrwt>
<rscale>  0 0.88436871E+03</rscale>
<asrwt>0</asrwt>
<pdfrwt beam="1">  1        2 0.41868545E+00 0.88436871E+03</pdfrwt>
<pdfrwt beam="2">  1       -2 0.24024310E+00 0.88436871E+03</pdfrwt>
<totfact> 0.19781274E-01</totfact>
</mgrwt>
</event>
<event>
 4    1  0.1701380E-008  0.1642604E+04  0.7818608E-02  0.8794794E-01
         -2   -1    0    0    0  501 -0.00000000000E+00  0.00000000000E+00  0.17968133995E+04  0.17968133995E+04  0.25500000000E-02 0.  1.
          2   -1    0    0  501    0  0.00000000000E+00 -0.00000000000E+00 -0.30639025300E+04  0.30639025300E+04  0.25500000000E-02 0. -1.
    8880022    1    1    2    0    0  0.15452725387E+04 -0.53562168168E+03 -0.23689906579E+04  0.28827532317E+04  0.15294330000E+03 0.  0.
    8880022    1    1    2    0    0 -0.15452725387E+04  0.53562168168E+03  0.11019015274E+04  0.19779626978E+04  0.15294330000E+03 0.  0.
<mgrwt>
<rscale>  0 0.16426045E+04</rscale>
<asrwt>0</asrwt>
<pdfrwt beam="1">  1        2 0.47136962E+00 0.16426045E+04</pdfrwt>
<pdfrwt beam="2">  1       -2 0.27643283E+00 0.16426045E+04</pdfrwt>
<totfact> 0.64872338E-02</totfact>
</mgrwt>
</event>
<event>
 4    1  0.1701380E-008  0.1657917E+04  0.7818608E-02  0.8785736E-01
         -2   -1    0    0    0  501 -0.00000000000E+00  0.00000000000E+00  0.17570913236E+04  0.17570913236E+04  0.25500000000E-02 0.  1.
          2   -1    0    0  501    0  0.00000000000E+00 -0.00000000000E+00 -0.25678691850E+04  0.25678691850E+04  0.25500000000E-02 0. -1.
    8880022    1    1    2    0    0  0.18373631561E+03 -0.16405909616E+04 -0.17572453416E+04  0.24159057474E+04  0.15294330000E+03 0.  0.
    8880022    1    1    2    0    0 -0.18373631561E+03  0.16405909616E+04  0.94646748025E+03  0.19090547611E+04  0.15294330000E+03 0.  0.
<mgrwt>
<rscale>  0 0.16579172E+04</rscale>
<asrwt>0</asrwt>
<pdfrwt beam="1">  1        2 0.39505680E+00 0.16579172E+04</pdfrwt>
<pdfrwt beam="2">  1       -2 0.27032174E+00 0.16579172E+04</pdfrwt>
<totfact> 0.14111661E-01</totfact>
</mgrwt>
</event>
<event>
 4    1  0.1701380E-008  0.7221690E+03  0.7818608E-02  0.9680054E-01
          2   -1    0    0  501    0  0.00000000000E+00  0.00000000000E+00  0.38793891252E+04  0.38793891252E+04  0.25500000000E-02 0. -1.
         -2   -1    0    0    0  501 -0.00000000000E+00 -0.00000000000E+00 -0.61647927943E+03  0.61647927944E+03  0.25500000000E-02 0.  1.
    8880022    1    1    2    0    0  0.69476662595E+03 -0.12424089701E+03 -0.35632150568E+03  0.80529071363E+03  0.15294330000E+03 0.  0.
    8880022    1    1    2    0    0 -0.69476662595E+03  0.12424089701E+03  0.36192313514E+04  0.36905776910E+04  0.15294330000E+03 0.  0.
<mgrwt>
<rscale>  0 0.72216904E+03</rscale>
<asrwt>0</asrwt>
<pdfrwt beam="1">  1        2 0.59682909E+00 0.72216904E+03</pdfrwt>
<pdfrwt beam="2">  1       -2 0.94842967E-01 0.72216904E+03</pdfrwt>
<totfact> 0.44535034E-01</totfact>
</mgrwt>
</event>
<event>
 4    1  0.1701380E-008  0.1074814E+04  0.7818608E-02  0.9230094E-01
         -2   -1    0    0    0  501 -0.00000000000E+00  0.00000000000E+00  0.22638392882E+04  0.22638392882E+04  0.25500000000E-02 0.  1.
          2   -1    0    0  501    0  0.00000000000E+00 -0.00000000000E+00 -0.10397532516E+04  0.10397532516E+04  0.25500000000E-02 0. -1.
    8880022    1    1    2    0    0  0.64201003792E+03 -0.84832550258E+03 -0.56666818101E+03  0.12150463067E+04  0.15294330000E+03 0.  0.
    8880022    1    1    2    0    0 -0.64201003792E+03  0.84832550258E+03  0.17907542175E+04  0.20885462331E+04  0.15294330000E+03 0.  0.
<mgrwt>
<rscale>  0 0.10748138E+04</rscale>
<asrwt>0</asrwt>
<pdfrwt beam="1">  1        2 0.15996204E+00 0.10748138E+04</pdfrwt>
<pdfrwt beam="2">  1       -2 0.34828297E+00 0.10748138E+04</pdfrwt>
<totfact> 0.37879719E-01</totfact>
</mgrwt>
</event>
<event>
 4    1  0.1701380E-008  0.5295396E+03  0.7818608E-02  0.1006344E+00
         -2   -1    0    0    0  501 -0.00000000000E+00  0.00000000000E+00  0.98740292788E+03  0.98740292788E+03  0.25500000000E-02 0.  1.
          2   -1    0    0  501    0  0.00000000000E+00 -0.00000000000E+00 -0.14565114461E+04  0.14565114461E+04  0.25500000000E-02 0. -1.
    8880022    1    1    2    0    0  0.23825493947E+03 -0.44749873258E+03 -0.13309302246E+04  0.14324061741E+04  0.15294330000E+03 0.  0.
    8880022    1    1    2    0    0 -0.23825493947E+03  0.44749873258E+03  0.86182170637E+03  0.10115081999E+04  0.15294330000E+03 0.  0.
<mgrwt>
<rscale>  0 0.52953960E+03</rscale>
<asrwt>0</asrwt>
<pdfrwt beam="1">  1        2 0.22407868E+00 0.52953960E+03</pdfrwt>
<pdfrwt beam="2">  1       -2 0.15190814E+00 0.52953960E+03</pdfrwt>
<totfact> 0.41593172E+00</totfact>
</mgrwt>
</event>
<event>
 4    1  0.1701380E-008  0.1928568E+04  0.7818608E-02  0.8640765E-01
         -2   -1    0    0    0  501 -0.00000000000E+00  0.00000000000E+00  0.99066789263E+03  0.99066789264E+03  0.25500000000E-02 0.  1.
          2   -1    0    0  501    0  0.00000000000E+00 -0.00000000000E+00 -0.40658634401E+04  0.40658634401E+04  0.25500000000E-02 0. -1.
    8880022    1    1    2    0    0  0.17925246943E+04 -0.69486597464E+03 -0.22373457864E+04  0.29538265561E+04  0.15294330000E+03 0.  0.
    8880022    1    1    2    0    0 -0.17925246943E+04  0.69486597464E+03 -0.83784976103E+03  0.21027047766E+04  0.15294330000E+03 0.  0.
<mgrwt>
<rscale>  0 0.19285682E+04</rscale>
<asrwt>0</asrwt>
<pdfrwt beam="1">  1        2 0.62551744E+00 0.19285682E+04</pdfrwt>
<pdfrwt beam="2">  1       -2 0.15241045E+00 0.19285682E+04</pdfrwt>
<totfact> 0.79141260E-02</totfact>
</mgrwt>
</event>
<event>
 4    1  0.1701380E-008  0.2693935E+03  0.7818608E-02  0.1101627E+00
          2   -1    0    0  501    0  0.00000000000E+00  0.00000000000E+00  0.17299638732E+04  0.17299638732E+04  0.25500000000E-02 0. -1.
         -2   -1    0    0    0  501 -0.00000000000E+00 -0.00000000000E+00 -0.14133724954E+03  0.14133724956E+03  0.25500000000E-02 0.  1.
    8880022    1    1    2    0    0 -0.81011677442E+02 -0.20644199501E+03  0.15789156851E+04  0.16017326815E+04  0.15294330000E+03 0.  0.
    8880022    1    1    2    0    0  0.81011677442E+02  0.20644199501E+03  0.97109385218E+01  0.26956844127E+03  0.15294330000E+03 0.  0.
<mgrwt>
<rscale>  0 0.26939347E+03</rscale>
<asrwt>0</asrwt>
<pdfrwt beam="1">  1        2 0.26614828E+00 0.26939347E+03</pdfrwt>
<pdfrwt beam="2">  1       -2 0.21744193E-01 0.26939347E+03</pdfrwt>
<totfact> 0.18880334E+02</totfact>
</mgrwt>
</event>
<event>
 4    1  0.1701380E-008  0.1338029E+04  0.7818608E-02  0.8999940E-01
          2   -1    0    0  501    0  0.00000000000E+00  0.00000000000E+00  0.19164770227E+04  0.19164770227E+04  0.25500000000E-02 0. -1.
         -2   -1    0    0    0  501 -0.00000000000E+00 -0.00000000000E+00 -0.16325992363E+04  0.16325992363E+04  0.25500000000E-02 0.  1.
    8880022    1    1    2    0    0  0.78419903707E+03 -0.10732947411E+04  0.13026008930E+04  0.18673752892E+04  0.15294330000E+03 0.  0.
    8880022    1    1    2    0    0 -0.78419903707E+03  0.10732947411E+04 -0.10187231066E+04  0.16817009699E+04  0.15294330000E+03 0.  0.
<mgrwt>
<rscale>  0 0.13380289E+04</rscale>
<asrwt>0</asrwt>
<pdfrwt beam="1">  1        2 0.29484262E+00 0.13380289E+04</pdfrwt>
<pdfrwt beam="2">  1       -2 0.25116911E+00 0.13380289E+04</pdfrwt>
<totfact> 0.44899932E-01</totfact>
</mgrwt>
</event>
<event>
 4    1  0.1701380E-008  0.1070764E+04  0.7818608E-02  0.9234165E-01
          2   -1    0    0  501    0  0.00000000000E+00  0.00000000000E+00  0.24852462452E+04  0.24852462452E+04  0.25500000000E-02 0. -1.
         -2   -1    0    0    0  501 -0.00000000000E+00 -0.00000000000E+00 -0.66778572005E+03  0.66778572006E+03  0.25500000000E-02 0.  1.
    8880022    1    1    2    0    0  0.83043074524E+03 -0.65842966541E+03  0.17852984794E+04  0.20817846096E+04  0.15294330000E+03 0.  0.
    8880022    1    1    2    0    0 -0.83043074524E+03  0.65842966541E+03  0.32162045728E+02  0.10712473557E+04  0.15294330000E+03 0.  0.
<mgrwt>
<rscale>  0 0.10707644E+04</rscale>
<asrwt>0</asrwt>
<pdfrwt beam="1">  1        2 0.38234557E+00 0.10707644E+04</pdfrwt>
<pdfrwt beam="2">  1       -2 0.10273627E+00 0.10707644E+04</pdfrwt>
<totfact> 0.27456378E+00</totfact>
</mgrwt>
</event>
<event>
 4    1  0.1701380E-008  0.7468010E+03  0.7818608E-02  0.9640383E-01
         -2   -1    0    0    0  501 -0.00000000000E+00  0.00000000000E+00  0.55123511296E+03  0.55123511297E+03  0.25500000000E-02 0.  1.
          2   -1    0    0  501    0  0.00000000000E+00 -0.00000000000E+00 -0.19564397620E+04  0.19564397620E+04  0.25500000000E-02 0. -1.
    8880022    1    1    2    0    0 -0.51200209650E+02  0.72917663895E+03  0.16866771595E+03  0.76561118310E+03  0.15294330000E+03 0.  0.
    8880022    1    1    2    0    0  0.51200209650E+02 -0.72917663895E+03 -0.15738723650E+04  0.17420636919E+04  0.15294330000E+03 0.  0.
<mgrwt>
<rscale>  0 0.74680097E+03</rscale>
<asrwt>0</asrwt>
<pdfrwt beam="1">  1        2 0.30099073E+00 0.74680097E+03</pdfrwt>
<pdfrwt beam="2">  1       -2 0.84805403E-01 0.74680097E+03</pdfrwt>
<totfact> 0.88560969E+00</totfact>
</mgrwt>
</event>
<event>
 4    1  0.1701380E-008  0.2663745E+04  0.7818608E-02  0.8346865E-01
         -2   -1    0    0    0  501 -0.00000000000E+00  0.00000000000E+00  0.20785147412E+04  0.20785147412E+04  0.25500000000E-02 0.  1.
          2   -1    0    0  501    0  0.00000000000E+00 -0.00000000000E+00 -0.38041117906E+04  0.38041117906E+04  0.25500000000E-02 0. -1.
    8880022    1    1    2    0    0 -0.12346944505E+04 -0.23553509198E+04  0.79406771607E+02  0.26649287852E+04  0.15294330000E+03 0.  0.
    8880022    1    1    2    0    0  0.12346944505E+04  0.23553509198E+04 -0.18050038210E+04  0.32176977466E+04  0.15294330000E+03 0.  0.
<mgrwt>
<rscale>  0 0.26637455E+04</rscale>
<asrwt>0</asrwt>
<pdfrwt beam="1">  1        2 0.58524797E+00 0.26637455E+04</pdfrwt>
<pdfrwt beam="2">  1       -2 0.31977150E+00 0.26637455E+04</pdfrwt>
<totfact> 0.96550927E-03</totfact>
</mgrwt>
</event>
<event>
 4    1  0.1760627E-008  0.7211260E+03  0.7818608E-02  0.9681771E-01
          2   -1    0    0  501    0  0.00000000000E+00  0.00000000000E+00  0.23905281456E+04  0.23905281456E+04  0.25500000000E-02 0. -1.
         -2   -1    0    0    0  501 -0.00000000000E+00 -0.00000000000E+00 -0.13141917692E+04  0.13141917692E+04  0.25500000000E-02 0.  1.
    8880022    1    1    2    0    0 -0.26632885565E+03 -0.65245693290E+03 -0.11539529047E+04  0.13607461438E+04  0.15294330000E+03 0.  1.
    8880022    1    1    2    0    0  0.26632885565E+03  0.65245693290E+03  0.22302892811E+04  0.23439737710E+04  0.15294330000E+03 0.  0.
<mgrwt>
<rscale>  0 0.72112604E+03</rscale>
<asrwt>0</asrwt>
<pdfrwt beam="1">  1        2 0.36777356E+00 0.72112604E+03</pdfrwt>
<pdfrwt beam="2">  1       -2 0.20218335E+00 0.72112604E+03</pdfrwt>
<totfact> 0.55031922E-01</totfact>
</mgrwt>
</event>
<event>
 4    1  0.1701380E-008  0.2127718E+03  0.7818608E-02  0.1139390E+00
          2   -1    0    0  501    0  0.00000000000E+00  0.00000000000E+00  0.11940791369E+04  0.11940791369E+04  0.25500000000E-02 0. -1.
         -2   -1    0    0    0  501 -0.00000000000E+00 -0.00000000000E+00 -0.11776076692E+03  0.11776076694E+03  0.25500000000E-02 0.  1.
    8880022    1    1    2    0    0  0.82010292973E+02 -0.12310354921E+03 -0.19484493010E+01  0.21278068862E+03  0.15294330000E+03 0.  0.
    8880022    1    1    2    0    0 -0.82010292973E+02  0.12310354921E+03  0.10782668192E+04  0.10990592152E+04  0.15294330000E+03 0. -1.
<mgrwt>
<rscale>  0 0.21277177E+03</rscale>
<asrwt>0</asrwt>
<pdfrwt beam="1">  1        2 0.18370448E+00 0.21277177E+03</pdfrwt>
<pdfrwt beam="2">  1       -2 0.18117041E-01 0.21277177E+03</pdfrwt>
<totfact> 0.50746130E+02</totfact>
</mgrwt>
</event>
<event>
 4    1  0.1701380E-008  0.1037623E+04  0.7818608E-02  0.9268217E-01
          2   -1    0    0  501    0  0.00000000000E+00  0.00000000000E+00  0.13603978867E+04  0.13603978867E+04  0.25500000000E-02 0. -1.
         -2   -1    0    0    0  501 -0.00000000000E+00 -0.00000000000E+00 -0.11132849568E+04  0.11132849568E+04  0.25500000000E-02 0.  1.
    8880022    1    1    2    0    0 -0.88712555521E+03  0.51602123790E+03 -0.54147186637E+03  0.11704072384E+04  0.15294330000E+03 0.  0.
    8880022    1    1    2    0    0  0.88712555521E+03 -0.51602123790E+03  0.78858479629E+03  0.13032756050E+04  0.15294330000E+03 0.  0.
<mgrwt>
<rscale>  0 0.10376229E+04</rscale>
<asrwt>0</asrwt>
<pdfrwt beam="1">  1        2 0.20929198E+00 0.10376229E+04</pdfrwt>
<pdfrwt beam="2">  1       -2 0.17127461E+00 0.10376229E+04</pdfrwt>
<totfact> 0.31434067E+00</totfact>
</mgrwt>
</event>
<event>
 4    1  0.1701380E-008  0.8030756E+03  0.7818608E-02  0.9555576E-01
          2   -1    0    0  501    0  0.00000000000E+00  0.00000000000E+00  0.26925900909E+04  0.26925900909E+04  0.25500000000E-02 0. -1.
         -2   -1    0    0    0  501 -0.00000000000E+00 -0.00000000000E+00 -0.79264708140E+03  0.79264708141E+03  0.25500000000E-02 0.  1.
    8880022    1    1    2    0    0  0.40371879559E+03 -0.67716315116E+03 -0.50573788981E+03  0.94905282540E+03  0.15294330000E+03 0.  0.
    8880022    1    1    2    0    0 -0.40371879559E+03  0.67716315116E+03  0.24056808993E+04  0.25361843469E+04  0.15294330000E+03 0.  0.
<mgrwt>
<rscale>  0 0.80307562E+03</rscale>
<asrwt>0</asrwt>
<pdfrwt beam="1">  1        2 0.41424463E+00 0.80307562E+03</pdfrwt>
<pdfrwt beam="2">  1       -2 0.12194571E+00 0.80307562E+03</pdfrwt>
<totfact> 0.14314572E+00</totfact>
</mgrwt>
</event>
<event>
 4    1  0.1701380E-008  0.8181253E+03  0.7818608E-02  0.9534146E-01
          2   -1    0    0  501    0  0.00000000000E+00  0.00000000000E+00  0.14382064022E+04  0.14382064022E+04  0.25500000000E-02 0. -1.
         -2   -1    0    0    0  501 -0.00000000000E+00 -0.00000000000E+00 -0.47700282278E+03  0.47700282278E+03  0.25500000000E-02 0.  1.
    8880022    1    1    2    0    0 -0.79978608473E+03  0.79243708045E+02  0.33119612572E+03  0.88262102474E+03  0.15294330000E+03 0.  0.
    8880022    1    1    2    0    0  0.79978608473E+03 -0.79243708045E+02  0.63000745375E+03  0.10325882003E+04  0.15294330000E+03 0.  0.
<mgrwt>
<rscale>  0 0.81812530E+03</rscale>
<asrwt>0</asrwt>
<pdfrwt beam="1">  1        2 0.22126252E+00 0.81812530E+03</pdfrwt>
<pdfrwt beam="2">  1       -2 0.73385051E-01 0.81812530E+03</pdfrwt>
<totfact> 0.23402855E+01</totfact>
</mgrwt>
</event>
<event>
 4    1  0.1701380E-008  0.7890644E+03  0.7818608E-02  0.9575982E-01
         -2   -1    0    0    0  501 -0.00000000000E+00  0.00000000000E+00  0.92817481051E+03  0.92817481051E+03  0.25500000000E-02 0.  1.
          2   -1    0    0  501    0  0.00000000000E+00 -0.00000000000E+00 -0.17929919461E+04  0.17929919461E+04  0.25500000000E-02 0. -1.
    8880022    1    1    2    0    0 -0.41082478831E+03 -0.65608989910E+03 -0.15087968218E+04  0.17026715669E+04  0.15294330000E+03 0.  0.
    8880022    1    1    2    0    0  0.41082478831E+03  0.65608989910E+03  0.64397968612E+03  0.10184951898E+04  0.15294330000E+03 0.  0.
<mgrwt>
<rscale>  0 0.78906439E+03</rscale>
<asrwt>0</asrwt>
<pdfrwt beam="1">  1        2 0.27584491E+00 0.78906439E+03</pdfrwt>
<pdfrwt beam="2">  1       -2 0.14279613E+00 0.78906439E+03</pdfrwt>
<totfact> 0.30463381E+00</totfact>
</mgrwt>
</event>
<event>
 4    1  0.1701380E-008  0.1173181E+04  0.7818608E-02  0.9136660E-01
          2   -1    0    0  501    0  0.00000000000E+00  0.00000000000E+00  0.15892787623E+04  0.15892787623E+04  0.25500000000E-02 0. -1.
         -2   -1    0    0    0  501 -0.00000000000E+00 -0.00000000000E+00 -0.23317963899E+04  0.23317963899E+04  0.25500000000E-02 0.  1.
    8880022    1    1    2    0    0 -0.40582697078E+03  0.10900768792E+04  0.11831419858E+04  0.16661871877E+04  0.15294330000E+03 0.  0.
    8880022    1    1    2    0    0  0.40582697078E+03 -0.10900768792E+04 -0.19256596134E+04  0.22548879645E+04  0.15294330000E+03 0.  0.
<mgrwt>
<rscale>  0 0.11731815E+04</rscale>
<asrwt>0</asrwt>
<pdfrwt beam="1">  1        2 0.24450442E+00 0.11731815E+04</pdfrwt>
<pdfrwt beam="2">  1       -2 0.35873791E+00 0.11731815E+04</pdfrwt>
<totfact> 0.15256841E-01</totfact>
</mgrwt>
</event>
<event>
 4    1  0.1701380E-008  0.1042445E+04  0.7818608E-02  0.9263179E-01
          2   -1    0    0  501    0  0.00000000000E+00  0.00000000000E+00  0.13745446703E+04  0.13745446703E+04  0.25500000000E-02 0. -1.
         -2   -1    0    0    0  501 -0.00000000000E+00 -0.00000000000E+00 -0.92520975872E+03  0.92520975872E+03  0.25500000000E-02 0.  1.
    8880022    1    1    2    0    0  0.54138291637E+03  0.87761345626E+03  0.66329517088E+03  0.12355779933E+04  0.15294330000E+03 0.  0.
    8880022    1    1    2    0    0 -0.54138291637E+03 -0.87761345626E+03 -0.21396025932E+03  0.10641764357E+04  0.15294330000E+03 0.  0.
<mgrwt>
<rscale>  0 0.10424454E+04</rscale>
<asrwt>0</asrwt>
<pdfrwt beam="1">  1        2 0.21146841E+00 0.10424454E+04</pdfrwt>
<pdfrwt beam="2">  1       -2 0.14233996E+00 0.10424454E+04</pdfrwt>
<totfact> 0.50846612E+00</totfact>
</mgrwt>
</event>
<event>
 4    1  0.1701380E-008  0.1169175E+04  0.7818608E-02  0.9140274E-01
          2   -1    0    0  501    0  0.00000000000E+00  0.00000000000E+00  0.32447756603E+04  0.32447756603E+04  0.25500000000E-02 0. -1.
         -2   -1    0    0    0  501 -0.00000000000E+00 -0.00000000000E+00 -0.61804310969E+03  0.61804310969E+03  0.25500000000E-02 0.  1.
    8880022    1    1    2    0    0 -0.10376916423E+04  0.51650282350E+03  0.22360136158E+03  0.11903647899E+04  0.15294330000E+03 0.  0.
    8880022    1    1    2    0    0  0.10376916423E+04 -0.51650282350E+03  0.24031311891E+04  0.26724539801E+04  0.15294330000E+03 0.  0.
<mgrwt>
<rscale>  0 0.11691752E+04</rscale>
<asrwt>0</asrwt>
<pdfrwt beam="1">  1        2 0.49919626E+00 0.11691752E+04</pdfrwt>
<pdfrwt beam="2">  1       -2 0.95083554E-01 0.11691752E+04</pdfrwt>
<totfact> 0.11272904E+00</totfact>
</mgrwt>
</event>
<event>
 4    1  0.1701380E-008  0.9302302E+03  0.7818608E-02  0.9388562E-01
          2   -1    0    0  501    0  0.00000000000E+00  0.00000000000E+00  0.96810504629E+03  0.96810504630E+03  0.25500000000E-02 0. -1.
         -2   -1    0    0    0  501 -0.00000000000E+00 -0.00000000000E+00 -0.10999046293E+04  0.10999046293E+04  0.25500000000E-02 0.  1.
    8880022    1    1    2    0    0 -0.70794217130E+03 -0.58374177361E+03 -0.51345829573E+03  0.10625288940E+04  0.15294330000E+03 0.  0.
    8880022    1    1    2    0    0  0.70794217130E+03  0.58374177361E+03  0.38165871271E+03  0.10054807816E+04  0.15294330000E+03 0.  0.
<mgrwt>
<rscale>  0 0.93023020E+03</rscale>
<asrwt>0</asrwt>
<pdfrwt beam="1">  1        2 0.14893924E+00 0.93023020E+03</pdfrwt>
<pdfrwt beam="2">  1       -2 0.16921610E+00 0.93023020E+03</pdfrwt>
<totfact> 0.56935818E+00</totfact>
</mgrwt>
</event>
<event>
 4    1  0.1701380E-008  0.4480598E+03  0.7818608E-02  0.1028302E+00
          2   -1    0    0  501    0  0.00000000000E+00  0.00000000000E+00  0.52595908580E+03  0.52595908581E+03  0.25500000000E-02 0. -1.
         -2   -1    0    0    0  501 -0.00000000000E+00 -0.00000000000E+00 -0.12792760165E+04  0.12792760165E+04  0.25500000000E-02 0.  1.
    8880022    1    1    2    0    0  0.36876002908E+03  0.20342554202E+03  0.37940409722E+03  0.58711585926E+03  0.15294330000E+03 0.  0.
    8880022    1    1    2    0    0 -0.36876002908E+03 -0.20342554202E+03 -0.11327210279E+04  0.12181192430E+04  0.15294330000E+03 0.  0.
<mgrwt>
<rscale>  0 0.44805978E+03</rscale>
<asrwt>0</asrwt>
<pdfrwt beam="1">  1        2 0.80916783E-01 0.44805978E+03</pdfrwt>
<pdfrwt beam="2">  1       -2 0.19681169E+00 0.44805978E+03</pdfrwt>
<totfact> 0.86212451E+00</totfact>
</mgrwt>
</event>
<event>
 4    1  0.1701380E-008  0.8159008E+03  0.7818608E-02  0.9537282E-01
         -2   -1    0    0    0  501 -0.00000000000E+00  0.00000000000E+00  0.15746449050E+03  0.15746449052E+03  0.25500000000E-02 0.  1.
          2   -1    0    0  501    0  0.00000000000E+00 -0.00000000000E+00 -0.49759198716E+04  0.49759198716E+04  0.25500000000E-02 0. -1.
    8880022    1    1    2    0    0  0.79237866583E+03 -0.12016027671E+03 -0.14138546598E+04  0.16323844811E+04  0.15294330000E+03 0.  0.
    8880022    1    1    2    0    0 -0.79237866583E+03  0.12016027671E+03 -0.34046007214E+04  0.35009998811E+04  0.15294330000E+03 0.  0.
<mgrwt>
<rscale>  0 0.81590079E+03</rscale>
<asrwt>0</asrwt>
<pdfrwt beam="1">  1        2 0.76552602E+00 0.81590079E+03</pdfrwt>
<pdfrwt beam="2">  1       -2 0.24225310E-01 0.81590079E+03</pdfrwt>
<totfact> 0.64296879E-01</totfact>
</mgrwt>
</event>
<event>
 4    1  0.1701380E-008  0.9201557E+03  0.7818608E-02  0.9400731E-01
         -2   -1    0    0    0  501 -0.00000000000E+00  0.00000000000E+00  0.70301544607E+03  0.70301544607E+03  0.25500000000E-02 0.  1.
          2   -1    0    0  501    0  0.00000000000E+00 -0.00000000000E+00 -0.20390676157E+04  0.20390676157E+04  0.25500000000E-02 0. -1.
    8880022    1    1    2    0    0  0.79621519589E+03 -0.43512790437E+03  0.20917853651E+03  0.94363247320E+03  0.15294330000E+03 0.  0.
    8880022    1    1    2    0    0 -0.79621519589E+03  0.43512790437E+03 -0.15452307061E+04  0.17984505886E+04  0.15294330000E+03 0. -1.
<mgrwt>
<rscale>  0 0.92015574E+03</rscale>
<asrwt>0</asrwt>
<pdfrwt beam="1">  1        2 0.31370271E+00 0.92015574E+03</pdfrwt>
<pdfrwt beam="2">  1       -2 0.10815622E+00 0.92015574E+03</pdfrwt>
<totfact> 0.43967297E+00</totfact>
</mgrwt>
</event>
<event>
 4    1  0.1701380E-008  0.5855519E+03  0.7818608E-02  0.9935843E-01
          2   -1    0    0  501    0  0.00000000000E+00  0.00000000000E+00  0.26716891611E+04  0.26716891611E+04  0.25500000000E-02 0. -1.
         -2   -1    0    0    0  501 -0.00000000000E+00 -0.00000000000E+00 -0.55526124908E+03  0.55526124908E+03  0.25500000000E-02 0.  1.
    8880022    1    1    2    0    0 -0.35233713555E+03  0.44197055096E+03  0.24729977306E+04  0.25413753862E+04  0.15294330000E+03 0.  0.
    8880022    1    1    2    0    0  0.35233713555E+03 -0.44197055096E+03 -0.35656981856E+03  0.68557502400E+03  0.15294330000E+03 0.  0.
<mgrwt>
<rscale>  0 0.58555194E+03</rscale>
<asrwt>0</asrwt>
<pdfrwt beam="1">  1        2 0.41102910E+00 0.58555194E+03</pdfrwt>
<pdfrwt beam="2">  1       -2 0.85424807E-01 0.58555194E+03</pdfrwt>
<totfact> 0.35980178E+00</totfact>
</mgrwt>
</event>
<event>
 4    1  0.1701380E-008  0.2088445E+04  0.7818608E-02  0.8566350E-01
         -2   -1    0    0    0  501 -0.00000000000E+00  0.00000000000E+00  0.15850850531E+04  0.15850850531E+04  0.25500000000E-02 0.  1.
          2   -1    0    0  501    0  0.00000000000E+00 -0.00000000000E+00 -0.29946103269E+04  0.29946103269E+04  0.25500000000E-02 0. -1.
    8880022    1    1    2    0    0  0.20658686303E+04 -0.26532802506E+03 -0.52531440758E+02  0.20891058767E+04  0.15294330000E+03 0.  0.
    8880022    1    1    2    0    0 -0.20658686303E+04  0.26532802506E+03 -0.13569938330E+04  0.24905895034E+04  0.15294330000E+03 0.  0.
<mgrwt>
<rscale>  0 0.20884453E+04</rscale>
<asrwt>0</asrwt>
<pdfrwt beam="1">  1        2 0.46070928E+00 0.20884453E+04</pdfrwt>
<pdfrwt beam="2">  1       -2 0.24385924E+00 0.20884453E+04</pdfrwt>
<totfact> 0.10841927E-01</totfact>
</mgrwt>
</event>
<event>
 4    1  0.1701380E-008  0.2901300E+03  0.7818608E-02  0.1090281E+00
         -2   -1    0    0    0  501 -0.00000000000E+00  0.00000000000E+00  0.18864522870E+03  0.18864522872E+03  0.25500000000E-02 0.  1.
          2   -1    0    0  501    0  0.00000000000E+00 -0.00000000000E+00 -0.16877824564E+04  0.16877824564E+04  0.25500000000E-02 0. -1.
    8880022    1    1    2    0    0  0.24493381850E+03 -0.28128426233E+02 -0.15542604423E+04  0.15811075104E+04  0.15294330000E+03 0.  0.
    8880022    1    1    2    0    0 -0.24493381850E+03  0.28128426233E+02  0.55123214618E+02  0.29532017475E+03  0.15294330000E+03 0.  0.
<mgrwt>
<rscale>  0 0.29013003E+03</rscale>
<asrwt>0</asrwt>
<pdfrwt beam="1">  1        2 0.25965883E+00 0.29013003E+03</pdfrwt>
<pdfrwt beam="2">  1       -2 0.29022344E-01 0.29013003E+03</pdfrwt>
<totfact> 0.11847256E+02</totfact>
</mgrwt>
</event>
<event>
 4    1  0.1701380E-008  0.6446937E+03  0.7818608E-02  0.9816787E-01
          2   -1    0    0  501    0  0.00000000000E+00  0.00000000000E+00  0.91354140673E+03  0.91354140673E+03  0.25500000000E-02 0. -1.
         -2   -1    0    0    0  501 -0.00000000000E+00 -0.00000000000E+00 -0.13128098604E+04  0.13128098604E+04  0.25500000000E-02 0.  1.
    8880022    1    1    2    0    0 -0.18501717339E+03  0.59833686549E+03  0.70020925323E+03  0.95179987938E+03  0.15294330000E+03 0.  0.
    8880022    1    1    2    0    0  0.18501717339E+03 -0.59833686549E+03 -0.10994777069E+04  0.12745513878E+04  0.15294330000E+03 0.  0.
<mgrwt>
<rscale>  0 0.64469374E+03</rscale>
<asrwt>0</asrwt>
<pdfrwt beam="1">  1        2 0.14054483E+00 0.64469374E+03</pdfrwt>
<pdfrwt beam="2">  1       -2 0.20197075E+00 0.64469374E+03</pdfrwt>
<totfact> 0.38557978E+00</totfact>
</mgrwt>
</event>
<event>
 4    1  0.1701380E-008  0.8717863E+03  0.7818608E-02  0.9461554E-01
          2   -1    0    0  501    0  0.00000000000E+00  0.00000000000E+00  0.25969975084E+04  0.25969975084E+04  0.25500000000E-02 0. -1.
         -2   -1    0    0    0  501 -0.00000000000E+00 -0.00000000000E+00 -0.59419183089E+03  0.59419183090E+03  0.25500000000E-02 0.  1.
    8880022    1    1    2    0    0 -0.75488070399E+03  0.40838071350E+03  0.21380692261E+04  0.23089719256E+04  0.15294330000E+03 0. -1.
    8880022    1    1    2    0    0  0.75488070399E+03 -0.40838071350E+03 -0.13526354864E+03  0.88221741370E+03  0.15294330000E+03 0.  0.
<mgrwt>
<rscale>  0 0.87178629E+03</rscale>
<asrwt>0</asrwt>
<pdfrwt beam="1">  1        2 0.39953807E+00 0.87178629E+03</pdfrwt>
<pdfrwt beam="2">  1       -2 0.91414129E-01 0.87178629E+03</pdfrwt>
<totfact> 0.32110982E+00</totfact>
</mgrwt>
</event>
<event>
 4    1  0.1701380E-008  0.7447257E+03  0.7818608E-02  0.9643661E-01
         -2   -1    0    0    0  501 -0.00000000000E+00  0.00000000000E+00  0.40394973570E+03  0.40394973570E+03  0.25500000000E-02 0.  1.
          2   -1    0    0  501    0  0.00000000000E+00 -0.00000000000E+00 -0.15296967034E+04  0.15296967034E+04  0.25500000000E-02 0. -1.
    8880022    1    1    2    0    0  0.61028651037E+03 -0.39846584478E+03 -0.87232830371E+03  0.11469842966E+04  0.15294330000E+03 0.  0.
    8880022    1    1    2    0    0 -0.61028651037E+03  0.39846584478E+03 -0.25341866403E+03  0.78666214253E+03  0.15294330000E+03 0.  0.
<mgrwt>
<rscale>  0 0.74472566E+03</rscale>
<asrwt>0</asrwt>
<pdfrwt beam="1">  1        2 0.23533795E+00 0.74472566E+03</pdfrwt>
<pdfrwt beam="2">  1       -2 0.62146114E-01 0.74472566E+03</pdfrwt>
<totfact> 0.30071607E+01</totfact>
</mgrwt>
</event>
<event>
 4    1  0.1701380E-008  0.3363150E+03  0.7818608E-02  0.1068376E+00
          2   -1    0    0  501    0  0.00000000000E+00  0.00000000000E+00  0.39508790795E+03  0.39508790795E+03  0.25500000000E-02 0. -1.
         -2   -1    0    0    0  501 -0.00000000000E+00 -0.00000000000E+00 -0.99463813412E+03  0.99463813412E+03  0.25500000000E-02 0.  1.
    8880022    1    1    2    0    0 -0.13212279207E+03  0.26881165575E+03  0.28662158813E+03  0.44188202752E+03  0.15294330000E+03 0.  0.
    8880022    1    1    2    0    0  0.13212279207E+03 -0.26881165575E+03 -0.88617181430E+03  0.94784401456E+03  0.15294330000E+03 0.  0.
<mgrwt>
<rscale>  0 0.33631502E+03</rscale>
<asrwt>0</asrwt>
<pdfrwt beam="1">  1        2 0.60782755E-01 0.33631502E+03</pdfrwt>
<pdfrwt beam="2">  1       -2 0.15302125E+00 0.33631502E+03</pdfrwt>
<totfact> 0.24338706E+01</totfact>
</mgrwt>
</event>
<event>
 4    1  0.1701380E-008  0.8091044E+03  0.7818608E-02  0.9546932E-01
         -2   -1    0    0    0  501 -0.00000000000E+00  0.00000000000E+00  0.29729610418E+03  0.29729610419E+03  0.25500000000E-02 0.  1.
          2   -1    0    0  501    0  0.00000000000E+00 -0.00000000000E+00 -0.27019482646E+04  0.27019482646E+04  0.25500000000E-02 0. -1.
    8880022    1    1    2    0    0 -0.50042616636E+03  0.61711577197E+03 -0.55726588818E+03  0.98244345748E+03  0.15294330000E+03 0.  0.
    8880022    1    1    2    0    0  0.50042616636E+03 -0.61711577197E+03 -0.18473862723E+04  0.20168009114E+04  0.15294330000E+03 0.  0.
<mgrwt>
<rscale>  0 0.80910437E+03</rscale>
<asrwt>0</asrwt>
<pdfrwt beam="1">  1        2 0.41568433E+00 0.80910437E+03</pdfrwt>
<pdfrwt beam="2">  1       -2 0.45737864E-01 0.80910437E+03</pdfrwt>
<totfact> 0.12525952E+01</totfact>
</mgrwt>
</event>
<event>
 4    1  0.1701380E-008  0.2353495E+03  0.7818608E-02  0.1122930E+00
          2   -1    0    0  501    0  0.00000000000E+00  0.00000000000E+00  0.10183073671E+04  0.10183073671E+04  0.25500000000E-02 0. -1.
         -2   -1    0    0    0  501 -0.00000000000E+00 -0.00000000000E+00 -0.16798870152E+03  0.16798870154E+03  0.25500000000E-02 0.  1.
    8880022    1    1    2    0    0  0.10623208898E+03  0.14391822235E+03  0.91291568534E+03  0.94276424042E+03  0.15294330000E+03 0. -1.
    8880022    1    1    2    0    0 -0.10623208898E+03 -0.14391822235E+03 -0.62597019768E+02  0.24353182821E+03  0.15294330000E+03 0.  0.
<mgrwt>
<rscale>  0 0.23534945E+03</rscale>
<asrwt>0</asrwt>
<pdfrwt beam="1">  1        2 0.15666267E+00 0.23534945E+03</pdfrwt>
<pdfrwt beam="2">  1       -2 0.25844416E-01 0.23534945E+03</pdfrwt>
<totfact> 0.34671690E+02</totfact>
</mgrwt>
</event>
<event>
 4    1  0.1701380E-008  0.3974471E+03  0.7818608E-02  0.1044667E+00
         -2   -1    0    0    0  501 -0.00000000000E+00  0.00000000000E+00  0.75013515922E+03  0.75013515922E+03  0.25500000000E-02 0.  1.
          2   -1    0    0  501    0  0.00000000000E+00 -0.00000000000E+00 -0.48192064585E+03  0.48192064585E+03  0.25500000000E-02 0. -1.
    8880022    1    1    2    0    0  0.23936037231E+03 -0.27799128743E+03  0.59634910464E+03  0.71665643884E+03  0.15294330000E+03 0.  0.
    8880022    1    1    2    0    0 -0.23936037231E+03  0.27799128743E+03 -0.32813459126E+03  0.51539936623E+03  0.15294330000E+03 0. -1.
<mgrwt>
<rscale>  0 0.39744710E+03</rscale>
<asrwt>0</asrwt>
<pdfrwt beam="1">  1        2 0.74141638E-01 0.39744710E+03</pdfrwt>
<pdfrwt beam="2">  1       -2 0.11540541E+00 0.39744710E+03</pdfrwt>
<totfact> 0.39324142E+01</totfact>
</mgrwt>
</event>
<event>
 4    1  0.1701380E-008  0.6308874E+03  0.7818608E-02  0.9843319E-01
          2   -1    0    0  501    0  0.00000000000E+00  0.00000000000E+00  0.28362314091E+04  0.28362314091E+04  0.25500000000E-02 0. -1.
         -2   -1    0    0    0  501 -0.00000000000E+00 -0.00000000000E+00 -0.28524271704E+03  0.28524271705E+03  0.25500000000E-02 0.  1.
    8880022    1    1    2    0    0 -0.58871510339E+03  0.16745685212E+03  0.16307091777E+03  0.65162185931E+03  0.15294330000E+03 0.  0.
    8880022    1    1    2    0    0  0.58871510339E+03 -0.16745685212E+03  0.23879177743E+04  0.24698522668E+04  0.15294330000E+03 0.  0.
<mgrwt>
<rscale>  0 0.63088741E+03</rscale>
<asrwt>0</asrwt>
<pdfrwt beam="1">  1        2 0.43634331E+00 0.63088741E+03</pdfrwt>
<pdfrwt beam="2">  1       -2 0.43883493E-01 0.63088741E+03</pdfrwt>
<totfact> 0.11709127E+01</totfact>
</mgrwt>
</event>
<event>
 4    1  0.1701380E-008  0.1167782E+04  0.7818608E-02  0.9141534E-01
         -2   -1    0    0    0  501 -0.00000000000E+00  0.00000000000E+00  0.12855132451E+04  0.12855132451E+04  0.25500000000E-02 0.  1.
          2   -1    0    0  501    0  0.00000000000E+00 -0.00000000000E+00 -0.15534023478E+04  0.15534023478E+04  0.25500000000E-02 0. -1.
    8880022    1    1    2    0    0  0.11006360480E+04 -0.35905934757E+03 -0.93325255362E+03  0.14948830412E+04  0.15294330000E+03 0.  0.
    8880022    1    1    2    0    0 -0.11006360480E+04  0.35905934757E+03  0.66536345087E+03  0.13440325516E+04  0.15294330000E+03 0.  0.
<mgrwt>
<rscale>  0 0.11677821E+04</rscale>
<asrwt>0</asrwt>
<pdfrwt beam="1">  1        2 0.23898498E+00 0.11677821E+04</pdfrwt>
<pdfrwt beam="2">  1       -2 0.19777127E+00 0.11677821E+04</pdfrwt>
<totfact> 0.15863517E+00</totfact>
</mgrwt>
</event>
<event>
 4    1  0.1701380E-008  0.1084030E+04  0.7818608E-02  0.9220898E-01
          2   -1    0    0  501    0  0.00000000000E+00  0.00000000000E+00  0.22301448166E+04  0.22301448166E+04  0.25500000000E-02 0. -1.
         -2   -1    0    0    0  501 -0.00000000000E+00 -0.00000000000E+00 -0.83489611599E+03  0.83489611600E+03  0.25500000000E-02 0.  1.
    8880022    1    1    2    0    0 -0.26550208307E+03  0.10398262319E+04  0.16283983685E+04  0.19562215744E+04  0.15294330000E+03 0.  0.
    8880022    1    1    2    0    0  0.26550208307E+03 -0.10398262319E+04 -0.23314966786E+03  0.11088193582E+04  0.15294330000E+03 0.  0.
<mgrwt>
<rscale>  0 0.10840303E+04</rscale>
<asrwt>0</asrwt>
<pdfrwt beam="1">  1        2 0.34309920E+00 0.10840303E+04</pdfrwt>
<pdfrwt beam="2">  1       -2 0.12844556E+00 0.10840303E+04</pdfrwt>
<totfact> 0.22027732E+00</totfact>
</mgrwt>
</event>
<event>
 4    1  0.1701380E-008  0.4143487E+03  0.7818608E-02  0.1038921E+00
          2   -1    0    0  501    0  0.00000000000E+00  0.00000000000E+00  0.19183646846E+04  0.19183646846E+04  0.25500000000E-02 0. -1.
         -2   -1    0    0    0  501 -0.00000000000E+00 -0.00000000000E+00 -0.37291621883E+03  0.37291621884E+03  0.25500000000E-02 0.  1.
    8880022    1    1    2    0    0  0.60807054021E+01 -0.38504052400E+03  0.17714783227E+04  0.18192911479E+04  0.15294330000E+03 0.  0.
    8880022    1    1    2    0    0 -0.60807054021E+01  0.38504052400E+03 -0.22602985691E+03  0.47198975553E+03  0.15294330000E+03 0.  0.
<mgrwt>
<rscale>  0 0.41434869E+03</rscale>
<asrwt>0</asrwt>
<pdfrwt beam="1">  1        2 0.29513303E+00 0.41434869E+03</pdfrwt>
<pdfrwt beam="2">  1       -2 0.57371725E-01 0.41434869E+03</pdfrwt>
<totfact> 0.23144041E+01</totfact>
</mgrwt>
</event>
<event>
 4    1  0.1701380E-008  0.8538920E+03  0.7818608E-02  0.9485128E-01
         -2   -1    0    0    0  501 -0.00000000000E+00  0.00000000000E+00  0.69745914959E+03  0.69745914960E+03  0.25500000000E-02 0.  1.
          2   -1    0    0  501    0  0.00000000000E+00 -0.00000000000E+00 -0.17168438700E+04  0.17168438700E+04  0.25500000000E-02 0. -1.
    8880022    1    1    2    0    0  0.72274181919E+03  0.42823373720E+03 -0.12646066628E+04  0.15258969610E+04  0.15294330000E+03 0.  0.
    8880022    1    1    2    0    0 -0.72274181919E+03 -0.42823373720E+03  0.24522194243E+03  0.88840605860E+03  0.15294330000E+03 0.  0.
<mgrwt>
<rscale>  0 0.85389199E+03</rscale>
<asrwt>0</asrwt>
<pdfrwt beam="1">  1        2 0.26412983E+00 0.85389199E+03</pdfrwt>
<pdfrwt beam="2">  1       -2 0.10730141E+00 0.85389199E+03</pdfrwt>
<totfact> 0.67926401E+00</totfact>
</mgrwt>
</event>
<event>
 4    1  0.1701380E-008  0.1411840E+04  0.7818608E-02  0.8945292E-01
         -2   -1    0    0    0  501 -0.00000000000E+00  0.00000000000E+00  0.13476908588E+04  0.13476908589E+04  0.25500000000E-02 0.  1.
          2   -1    0    0  501    0  0.00000000000E+00 -0.00000000000E+00 -0.19372051719E+04  0.19372051719E+04  0.25500000000E-02 0. -1.
    8880022    1    1    2    0    0  0.13387844108E+04 -0.42137585800E+03  0.50399741138E+03  0.14991018498E+04  0.15294330000E+03 0.  0.
    8880022    1    1    2    0    0 -0.13387844108E+04  0.42137585800E+03 -0.10935117244E+04  0.17857941810E+04  0.15294330000E+03 0.  0.
<mgrwt>
<rscale>  0 0.14118403E+04</rscale>
<asrwt>0</asrwt>
<pdfrwt beam="1">  1        2 0.29803156E+00 0.14118403E+04</pdfrwt>
<pdfrwt beam="2">  1       -2 0.20733706E+00 0.14118403E+04</pdfrwt>
<totfact> 0.81744687E-01</totfact>
</mgrwt>
</event>
<event>
 4    1  0.1701380E-008  0.7631572E+03  0.7818608E-02  0.9614932E-01
         -2   -1    0    0    0  501 -0.00000000000E+00  0.00000000000E+00  0.11650803376E+04  0.11650803376E+04  0.25500000000E-02 0.  1.
          2   -1    0    0  501    0  0.00000000000E+00 -0.00000000000E+00 -0.62278097862E+03  0.62278097863E+03  0.25500000000E-02 0. -1.
    8880022    1    1    2    0    0 -0.73741823801E+03 -0.12341607897E+03  0.66825067174E+03  0.10143805004E+04  0.15294330000E+03 0.  0.
    8880022    1    1    2    0    0  0.73741823801E+03  0.12341607897E+03 -0.12595131275E+03  0.77348081585E+03  0.15294330000E+03 0.  0.
<mgrwt>
<rscale>  0 0.76315715E+03</rscale>
<asrwt>0</asrwt>
<pdfrwt beam="1">  1        2 0.95812459E-01 0.76315715E+03</pdfrwt>
<pdfrwt beam="2">  1       -2 0.17924313E+00 0.76315715E+03</pdfrwt>
<totfact> 0.88371563E+00</totfact>
</mgrwt>
</event>
<event>
 4    1  0.1701380E-008  0.5110753E+03  0.7818608E-02  0.1010928E+00
          2   -1    0    0  501    0  0.00000000000E+00  0.00000000000E+00  0.23891540550E+04  0.23891540550E+04  0.25500000000E-02 0. -1.
         -2   -1    0    0    0  501 -0.00000000000E+00 -0.00000000000E+00 -0.66251418547E+03  0.66251418548E+03  0.25500000000E-02 0.  1.
    8880022    1    1    2    0    0  0.46557241040E+03 -0.14508147705E+03  0.22575869903E+04  0.23147131520E+04  0.15294330000E+03 0.  0.
    8880022    1    1    2    0    0 -0.46557241040E+03  0.14508147705E+03 -0.53094712079E+03  0.73695508845E+03  0.15294330000E+03 0.  1.
<mgrwt>
<rscale>  0 0.51107530E+03</rscale>
<asrwt>0</asrwt>
<pdfrwt beam="1">  1        2 0.36756217E+00 0.51107530E+03</pdfrwt>
<pdfrwt beam="2">  1       -2 0.10192526E+00 0.51107530E+03</pdfrwt>
<totfact> 0.35164033E+00</totfact>
</mgrwt>
</event>
<event>
 4    1  0.1701380E-008  0.1293802E+04  0.7818608E-02  0.9034495E-01
         -2   -1    0    0    0  501 -0.00000000000E+00  0.00000000000E+00  0.97460377452E+03  0.97460377452E+03  0.25500000000E-02 0.  1.
          2   -1    0    0  501    0  0.00000000000E+00 -0.00000000000E+00 -0.31169714466E+04  0.31169714466E+04  0.25500000000E-02 0. -1.
    8880022    1    1    2    0    0 -0.36750237713E+03 -0.12310461331E+04 -0.24419690988E+04  0.27635371015E+04  0.15294330000E+03 0.  0.
    8880022    1    1    2    0    0  0.36750237713E+03  0.12310461331E+04  0.29960142678E+03  0.13280381195E+04  0.15294330000E+03 0.  0.
<mgrwt>
<rscale>  0 0.12938022E+04</rscale>
<asrwt>0</asrwt>
<pdfrwt beam="1">  1        2 0.47953407E+00 0.12938022E+04</pdfrwt>
<pdfrwt beam="2">  1       -2 0.14993904E+00 0.12938022E+04</pdfrwt>
<totfact> 0.42868616E-01</totfact>
</mgrwt>
</event>
<event>
 4    1  0.1701380E-008  0.6469094E+03  0.7818608E-02  0.9812596E-01
         -2   -1    0    0    0  501 -0.00000000000E+00  0.00000000000E+00  0.10214780458E+04  0.10214780458E+04  0.25500000000E-02 0.  1.
          2   -1    0    0  501    0  0.00000000000E+00 -0.00000000000E+00 -0.89631616284E+03  0.89631616284E+03  0.25500000000E-02 0. -1.
    8880022    1    1    2    0    0  0.61549863033E+03 -0.12752099583E+03 -0.64396114537E+03  0.91278572408E+03  0.15294330000E+03 0.  0.
    8880022    1    1    2    0    0 -0.61549863033E+03  0.12752099583E+03  0.76912302829E+03  0.10050084845E+04  0.15294330000E+03 0.  0.
<mgrwt>
<rscale>  0 0.64690944E+03</rscale>
<asrwt>0</asrwt>
<pdfrwt beam="1">  1        2 0.13789479E+00 0.64690944E+03</pdfrwt>
<pdfrwt beam="2">  1       -2 0.15715047E+00 0.64690944E+03</pdfrwt>
<totfact> 0.80470028E+00</totfact>
</mgrwt>
</event>
<event>
 4    1  0.1701380E-008  0.3889483E+03  0.7818608E-02  0.1047675E+00
         -2   -1    0    0    0  501 -0.00000000000E+00  0.00000000000E+00  0.61341627533E+03  0.61341627533E+03  0.25500000000E-02 0.  1.
          2   -1    0    0  501    0  0.00000000000E+00 -0.00000000000E+00 -0.38792486965E+03  0.38792486966E+03  0.25500000000E-02 0. -1.
    8880022    1    1    2    0    0  0.19946221797E+03 -0.29682309601E+03  0.41491941082E+03  0.56871688669E+03  0.15294330000E+03 0.  0.
    8880022    1    1    2    0    0 -0.19946221797E+03  0.29682309601E+03 -0.18942800514E+03  0.43262425830E+03  0.15294330000E+03 0. -1.
<mgrwt>
<rscale>  0 0.38894830E+03</rscale>
<asrwt>0</asrwt>
<pdfrwt beam="1">  1        2 0.59680749E-01 0.38894830E+03</pdfrwt>
<pdfrwt beam="2">  1       -2 0.94371734E-01 0.38894830E+03</pdfrwt>
<totfact> 0.80766609E+01</totfact>
</mgrwt>
</event>
<event>
 4    1  0.1701380E-008  0.5732608E+03  0.7818608E-02  0.9962489E-01
          2   -1    0    0  501    0  0.00000000000E+00  0.00000000000E+00  0.67733331131E+03  0.67733331132E+03  0.25500000000E-02 0. -1.
         -2   -1    0    0    0  501 -0.00000000000E+00 -0.00000000000E+00 -0.16128242822E+04  0.16128242822E+04  0.25500000000E-02 0.  1.
    8880022    1    1    2    0    0 -0.24685824203E+03 -0.49426441363E+03 -0.14252218977E+04  0.15361918542E+04  0.15294330000E+03 0.  0.
    8880022    1    1    2    0    0  0.24685824203E+03  0.49426441363E+03  0.48973092686E+03  0.75396573926E+03  0.15294330000E+03 0.  0.
<mgrwt>
<rscale>  0 0.57326081E+03</rscale>
<asrwt>0</asrwt>
<pdfrwt beam="1">  1        2 0.10420513E+00 0.57326081E+03</pdfrwt>
<pdfrwt beam="2">  1       -2 0.24812681E+00 0.57326081E+03</pdfrwt>
<totfact> 0.29916331E+00</totfact>
</mgrwt>
</event>
<event>
 4    1  0.1701380E-008  0.6247171E+03  0.7818608E-02  0.9855413E-01
         -2   -1    0    0    0  501 -0.00000000000E+00  0.00000000000E+00  0.21890921415E+03  0.21890921417E+03  0.25500000000E-02 0.  1.
          2   -1    0    0  501    0  0.00000000000E+00 -0.00000000000E+00 -0.27512421676E+04  0.27512421676E+04  0.25500000000E-02 0. -1.
    8880022    1    1    2    0    0 -0.71860836865E+02  0.60142810862E+03 -0.38507506496E+03  0.73386252690E+03  0.15294330000E+03 0.  0.
    8880022    1    1    2    0    0  0.71860836865E+02 -0.60142810862E+03 -0.21472578885E+04  0.22362888548E+04  0.15294330000E+03 0.  0.
<mgrwt>
<rscale>  0 0.62471706E+03</rscale>
<asrwt>0</asrwt>
<pdfrwt beam="1">  1        2 0.42326800E+00 0.62471706E+03</pdfrwt>
<pdfrwt beam="2">  1       -2 0.33678343E-01 0.62471706E+03</pdfrwt>
<totfact> 0.21927810E+01</totfact>
</mgrwt>
</event>
<event>
 4    1  0.1701380E-008  0.4742116E+03  0.7818608E-02  0.1020738E+00
          2   -1    0    0  501    0  0.00000000000E+00  0.00000000000E+00  0.14950186399E+04  0.14950186399E+04  0.25500000000E-02 0. -1.
         -2   -1    0    0    0  501 -0.00000000000E+00 -0.00000000000E+00 -0.74749753037E+03  0.74749753038E+03  0.25500000000E-02 0.  1.
    8880022    1    1    2    0    0 -0.12968990701E+03  0.42972726344E+03 -0.62835327947E+03  0.78721311585E+03  0.15294330000E+03 0.  0.
    8880022    1    1    2    0    0  0.12968990701E+03 -0.42972726344E+03  0.13758743890E+04  0.14553030544E+04  0.15294330000E+03 0.  0.
<mgrwt>
<rscale>  0 0.47421160E+03</rscale>
<asrwt>0</asrwt>
<pdfrwt beam="1">  1        2 0.23000287E+00 0.47421160E+03</pdfrwt>
<pdfrwt beam="2">  1       -2 0.11499962E+00 0.47421160E+03</pdfrwt>
<totfact> 0.81080120E+00</totfact>
</mgrwt>
</event>
<event>
 4    1  0.1701380E-008  0.7649394E+03  0.7818608E-02  0.9612200E-01
          2   -1    0    0  501    0  0.00000000000E+00  0.00000000000E+00  0.12763463481E+04  0.12763463481E+04  0.25500000000E-02 0. -1.
         -2   -1    0    0    0  501 -0.00000000000E+00 -0.00000000000E+00 -0.59393566051E+03  0.59393566052E+03  0.25500000000E-02 0.  1.
    8880022    1    1    2    0    0  0.12883209063E+03 -0.73833795727E+03 -0.10544222048E+03  0.77217249472E+03  0.15294330000E+03 0.  0.
    8880022    1    1    2    0    0 -0.12883209063E+03  0.73833795727E+03  0.78785290802E+03  0.10981095139E+04  0.15294330000E+03 0.  0.
<mgrwt>
<rscale>  0 0.76493941E+03</rscale>
<asrwt>0</asrwt>
<pdfrwt beam="1">  1        2 0.19636098E+00 0.76493941E+03</pdfrwt>
<pdfrwt beam="2">  1       -2 0.91374718E-01 0.76493941E+03</pdfrwt>
<totfact> 0.17738899E+01</totfact>
</mgrwt>
</event>
<event>
 4    1  0.1701380E-008  0.8981233E+03  0.7818608E-02  0.9427930E-01
         -2   -1    0    0    0  501 -0.00000000000E+00  0.00000000000E+00  0.59581101964E+03  0.59581101965E+03  0.25500000000E-02 0.  1.
          2   -1    0    0  501    0  0.00000000000E+00 -0.00000000000E+00 -0.28775530943E+04  0.28775530943E+04  0.25500000000E-02 0. -1.
    8880022    1    1    2    0    0  0.83811360077E+03 -0.28425235955E+03 -0.24046234469E+04  0.25668734652E+04  0.15294330000E+03 0.  0.
    8880022    1    1    2    0    0 -0.83811360077E+03  0.28425235955E+03  0.12288137223E+03  0.90649064880E+03  0.15294330000E+03 0. -1.
<mgrwt>
<rscale>  0 0.89812330E+03</rscale>
<asrwt>0</asrwt>
<pdfrwt beam="1">  1        2 0.44270047E+00 0.89812330E+03</pdfrwt>
<pdfrwt beam="2">  1       -2 0.91663236E-01 0.89812330E+03</pdfrwt>
<totfact> 0.21722881E+00</totfact>
</mgrwt>
</event>
<event>
 4    1  0.1701380E-008  0.6396573E+03  0.7818608E-02  0.9826382E-01
          2   -1    0    0  501    0  0.00000000000E+00  0.00000000000E+00  0.22014494943E+04  0.22014494943E+04  0.25500000000E-02 0. -1.
         -2   -1    0    0    0  501 -0.00000000000E+00 -0.00000000000E+00 -0.26738593337E+03  0.26738593338E+03  0.25500000000E-02 0.  1.
    8880022    1    1    2    0    0  0.52197577611E+03 -0.33661719418E+03  0.28541442421E+03  0.70044478213E+03  0.15294330000E+03 0.  0.
    8880022    1    1    2    0    0 -0.52197577611E+03  0.33661719418E+03  0.16486491367E+04  0.17683906456E+04  0.15294330000E+03 0.  0.
<mgrwt>
<rscale>  0 0.63965733E+03</rscale>
<asrwt>0</asrwt>
<pdfrwt beam="1">  1        2 0.33868454E+00 0.63965733E+03</pdfrwt>
<pdfrwt beam="2">  1       -2 0.41136297E-01 0.63965733E+03</pdfrwt>
<totfact> 0.30401706E+01</totfact>
</mgrwt>
</event>
<event>
 4    1  0.2279083E-008  0.1299715E+04  0.7818608E-02  0.9029791E-01
          2   -1    0    0  501    0  0.00000000000E+00  0.00000000000E+00  0.25479358037E+04  0.25479358037E+04  0.25500000000E-02 0. -1.
         -2   -1    0    0    0  501 -0.00000000000E+00 -0.00000000000E+00 -0.11386487334E+04  0.11386487334E+04  0.25500000000E-02 0.  1.
    8880022    1    1    2    0    0 -0.36841056862E+03 -0.12369891622E+04  0.18960125414E+04  0.22987221982E+04  0.15294330000E+03 0.  0.
    8880022    1    1    2    0    0  0.36841056862E+03  0.12369891622E+04 -0.48672547118E+03  0.13878623389E+04  0.15294330000E+03 0.  0.
<mgrwt>
<rscale>  0 0.12997154E+04</rscale>
<asrwt>0</asrwt>
<pdfrwt beam="1">  1        2 0.39199012E+00 0.12997154E+04</pdfrwt>
<pdfrwt beam="2">  1       -2 0.17517673E+00 0.12997154E+04</pdfrwt>
<totfact> 0.61666439E-01</totfact>
</mgrwt>
</event>
<event>
 4    1  0.1701380E-008  0.2636260E+03  0.7818608E-02  0.1104984E+00
         -2   -1    0    0    0  501 -0.00000000000E+00  0.00000000000E+00  0.22433246613E+03  0.22433246615E+03  0.25500000000E-02 0.  1.
          2   -1    0    0  501    0  0.00000000000E+00 -0.00000000000E+00 -0.15776067140E+04  0.15776067140E+04  0.25500000000E-02 0. -1.
    8880022    1    1    2    0    0 -0.19556540381E+03  0.88663442458E+02 -0.14843126267E+04  0.15075419265E+04  0.15294330000E+03 0.  0.
    8880022    1    1    2    0    0  0.19556540381E+03 -0.88663442458E+02  0.13103837889E+03  0.29439725365E+03  0.15294330000E+03 0.  0.
<mgrwt>
<rscale>  0 0.26362603E+03</rscale>
<asrwt>0</asrwt>
<pdfrwt beam="1">  1        2 0.24270872E+00 0.26362603E+03</pdfrwt>
<pdfrwt beam="2">  1       -2 0.34512688E-01 0.26362603E+03</pdfrwt>
<totfact> 0.99186520E+01</totfact>
</mgrwt>
</event>
<event>
 4    1  0.1701380E-008  0.6030733E+03  0.7818608E-02  0.9899050E-01
         -2   -1    0    0    0  501 -0.00000000000E+00  0.00000000000E+00  0.81809870509E+03  0.81809870509E+03  0.25500000000E-02 0.  1.
          2   -1    0    0  501    0  0.00000000000E+00 -0.00000000000E+00 -0.61569523590E+03  0.61569523590E+03  0.25500000000E-02 0. -1.
    8880022    1    1    2    0    0  0.54505523232E+03 -0.20789565521E+03 -0.27675155982E+03  0.66354268032E+03  0.15294330000E+03 0.  0.
    8880022    1    1    2    0    0 -0.54505523232E+03  0.20789565521E+03  0.47915502901E+03  0.77025126067E+03  0.15294330000E+03 0.  0.
<mgrwt>
<rscale>  0 0.60307335E+03</rscale>
<asrwt>0</asrwt>
<pdfrwt beam="1">  1        2 0.94722345E-01 0.60307335E+03</pdfrwt>
<pdfrwt beam="2">  1       -2 0.12586134E+00 0.60307335E+03</pdfrwt>
<totfact> 0.23282221E+01</totfact>
</mgrwt>
</event>
<event>
 4    1  0.1701380E-008  0.1289135E+04  0.7818608E-02  0.9038226E-01
         -2   -1    0    0    0  501 -0.00000000000E+00  0.00000000000E+00  0.66278557624E+03  0.66278557624E+03  0.25500000000E-02 0.  1.
          2   -1    0    0  501    0  0.00000000000E+00 -0.00000000000E+00 -0.27164414043E+04  0.27164414043E+04  0.25500000000E-02 0. -1.
    8880022    1    1    2    0    0 -0.11403729542E+03 -0.12749401741E+04 -0.14955368938E+04  0.19744617510E+04  0.15294330000E+03 0.  0.
    8880022    1    1    2    0    0  0.11403729542E+03  0.12749401741E+04 -0.55811893427E+03  0.14047652296E+04  0.15294330000E+03 0.  0.
<mgrwt>
<rscale>  0 0.12891348E+04</rscale>
<asrwt>0</asrwt>
<pdfrwt beam="1">  1        2 0.41791406E+00 0.12891348E+04</pdfrwt>
<pdfrwt beam="2">  1       -2 0.10196701E+00 0.12891348E+04</pdfrwt>
<totfact> 0.19971096E+00</totfact>
</mgrwt>
</event>
<event>
 4    1  0.1701380E-008  0.1128731E+04  0.7818608E-02  0.9177632E-01
          2   -1    0    0  501    0  0.00000000000E+00  0.00000000000E+00  0.23174734608E+04  0.23174734608E+04  0.25500000000E-02 0. -1.
         -2   -1    0    0    0  501 -0.00000000000E+00 -0.00000000000E+00 -0.63705501699E+03  0.63705501699E+03  0.25500000000E-02 0.  1.
    8880022    1    1    2    0    0 -0.11121163524E+04 -0.11764475664E+03  0.29333763856E+03  0.11662254041E+04  0.15294330000E+03 0.  0.
    8880022    1    1    2    0    0  0.11121163524E+04  0.11764475664E+03  0.13870808053E+04  0.17883030737E+04  0.15294330000E+03 0.  0.
<mgrwt>
<rscale>  0 0.11287315E+04</rscale>
<asrwt>0</asrwt>
<pdfrwt beam="1">  1        2 0.35653438E+00 0.11287315E+04</pdfrwt>
<pdfrwt beam="2">  1       -2 0.98008465E-01 0.11287315E+04</pdfrwt>
<totfact> 0.37984159E+00</totfact>
</mgrwt>
</event>
<event>
 4    1  0.1701380E-008  0.8104182E+03  0.7818608E-02  0.9545058E-01
          2   -1    0    0  501    0  0.00000000000E+00  0.00000000000E+00  0.13910325406E+04  0.13910325406E+04  0.25500000000E-02 0. -1.
         -2   -1    0    0    0  501 -0.00000000000E+00 -0.00000000000E+00 -0.91635566586E+03  0.91635566586E+03  0.25500000000E-02 0.  1.
    8880022    1    1    2    0    0  0.37743494554E+03  0.70066312708E+03 -0.56591043502E+03  0.98844940652E+03  0.15294330000E+03 0.  0.
    8880022    1    1    2    0    0 -0.37743494554E+03 -0.70066312708E+03  0.10405873098E+04  0.13189388000E+04  0.15294330000E+03 0.  0.
<mgrwt>
<rscale>  0 0.81041817E+03</rscale>
<asrwt>0</asrwt>
<pdfrwt beam="1">  1        2 0.21400501E+00 0.81041817E+03</pdfrwt>
<pdfrwt beam="2">  1       -2 0.14097780E+00 0.81041817E+03</pdfrwt>
<totfact> 0.52438033E+00</totfact>
</mgrwt>
</event>
<event>
 4    1  0.1701380E-008  0.1010856E+04  0.7818608E-02  0.9296718E-01
         -2   -1    0    0    0  501 -0.00000000000E+00  0.00000000000E+00  0.72005912230E+03  0.72005912230E+03  0.25500000000E-02 0.  1.
          2   -1    0    0  501    0  0.00000000000E+00 -0.00000000000E+00 -0.15838545889E+04  0.15838545889E+04  0.25500000000E-02 0. -1.
    8880022    1    1    2    0    0  0.38076419731E+03  0.92382696171E+03 -0.80344103312E+03  0.12912578270E+04  0.15294330000E+03 0.  0.
    8880022    1    1    2    0    0 -0.38076419731E+03 -0.92382696171E+03 -0.60354433505E+02  0.10126558842E+04  0.15294330000E+03 0.  0.
<mgrwt>
<rscale>  0 0.10108557E+04</rscale>
<asrwt>0</asrwt>
<pdfrwt beam="1">  1        2 0.24366994E+00 0.10108557E+04</pdfrwt>
<pdfrwt beam="2">  1       -2 0.11077833E+00 0.10108557E+04</pdfrwt>
<totfact> 0.73111982E+00</totfact>
</mgrwt>
</event>
<event>
 4    1  0.1701380E-008  0.1100127E+04  0.7818608E-02  0.9205068E-01
          2   -1    0    0  501    0  0.00000000000E+00  0.00000000000E+00  0.16734810899E+04  0.16734810899E+04  0.25500000000E-02 0. -1.
         -2   -1    0    0    0  501 -0.00000000000E+00 -0.00000000000E+00 -0.14591086489E+04  0.14591086489E+04  0.25500000000E-02 0.  1.
    8880022    1    1    2    0    0 -0.29860266390E+03 -0.10477235212E+04 -0.10051560567E+04  0.14901739761E+04  0.15294330000E+03 0.  0.
    8880022    1    1    2    0    0  0.29860266390E+03  0.10477235212E+04  0.12195284977E+04  0.16424157626E+04  0.15294330000E+03 0.  0.
<mgrwt>
<rscale>  0 0.11001272E+04</rscale>
<asrwt>0</asrwt>
<pdfrwt beam="1">  1        2 0.25745863E+00 0.11001272E+04</pdfrwt>
<pdfrwt beam="2">  1       -2 0.22447825E+00 0.11001272E+04</pdfrwt>
<totfact> 0.92354226E-01</totfact>
</mgrwt>
</event>
<event>
 4    1  0.1701380E-008  0.1213421E+04  0.7818608E-02  0.9101189E-01
         -2   -1    0    0    0  501 -0.00000000000E+00  0.00000000000E+00  0.80595247634E+03  0.80595247635E+03  0.25500000000E-02 0.  1.
          2   -1    0    0  501    0  0.00000000000E+00 -0.00000000000E+00 -0.24790513852E+04  0.24790513852E+04  0.25500000000E-02 0. -1.
    8880022    1    1    2    0    0 -0.40528699773E+03 -0.11334647547E+04 -0.16789886888E+04  0.20715681429E+04  0.15294330000E+03 0.  0.
    8880022    1    1    2    0    0  0.40528699773E+03  0.11334647547E+04  0.58897800039E+01  0.12134357186E+04  0.15294330000E+03 0.  0.
<mgrwt>
<rscale>  0 0.12134214E+04</rscale>
<asrwt>0</asrwt>
<pdfrwt beam="1">  1        2 0.38139252E+00 0.12134214E+04</pdfrwt>
<pdfrwt beam="2">  1       -2 0.12399269E+00 0.12134214E+04</pdfrwt>
<totfact> 0.17139022E+00</totfact>
</mgrwt>
</event>
<event>
 4    1  0.1701380E-008  0.9852589E+03  0.7818608E-02  0.9324862E-01
         -2   -1    0    0    0  501 -0.00000000000E+00  0.00000000000E+00  0.97848630197E+03  0.97848630197E+03  0.25500000000E-02 0.  1.
          2   -1    0    0  501    0  0.00000000000E+00 -0.00000000000E+00 -0.10659584791E+04  0.10659584791E+04  0.25500000000E-02 0. -1.
    8880022    1    1    2    0    0 -0.80699444055E+03  0.54415381101E+03  0.22537968009E+03  0.10107081925E+04  0.15294330000E+03 0.  0.
    8880022    1    1    2    0    0  0.80699444055E+03 -0.54415381101E+03 -0.31285185727E+03  0.10337365887E+04  0.15294330000E+03 0.  0.
<mgrwt>
<rscale>  0 0.98525887E+03</rscale>
<asrwt>0</asrwt>
<pdfrwt beam="1">  1        2 0.16399361E+00 0.98525887E+03</pdfrwt>
<pdfrwt beam="2">  1       -2 0.15053635E+00 0.98525887E+03</pdfrwt>
<totfact> 0.67391752E+00</totfact>
</mgrwt>
</event>
<event>
 4    1  0.1701380E-008  0.2957049E+03  0.7818608E-02  0.1087408E+00
         -2   -1    0    0    0  501 -0.00000000000E+00  0.00000000000E+00  0.41295572262E+03  0.41295572263E+03  0.25500000000E-02 0.  1.
          2   -1    0    0  501    0  0.00000000000E+00 -0.00000000000E+00 -0.11946321108E+04  0.11946321108E+04  0.25500000000E-02 0. -1.
    8880022    1    1    2    0    0 -0.11544846508E+03 -0.22521414277E+03 -0.11199252511E+04  0.11583065135E+04  0.15294330000E+03 0. -1.
    8880022    1    1    2    0    0  0.11544846508E+03  0.22521414277E+03  0.33824886289E+03  0.44928131995E+03  0.15294330000E+03 0.  0.
<mgrwt>
<rscale>  0 0.29570494E+03</rscale>
<asrwt>0</asrwt>
<pdfrwt beam="1">  1        2 0.18378955E+00 0.29570494E+03</pdfrwt>
<pdfrwt beam="2">  1       -2 0.63531651E-01 0.29570494E+03</pdfrwt>
<totfact> 0.47640897E+01</totfact>
</mgrwt>
</event>
<event>
 4    1  0.1701380E-008  0.4623912E+03  0.7818608E-02  0.1024090E+00
          2   -1    0    0  501    0  0.00000000000E+00  0.00000000000E+00  0.97331262408E+03  0.97331262409E+03  0.25500000000E-02 0. -1.
         -2   -1    0    0    0  501 -0.00000000000E+00 -0.00000000000E+00 -0.43790444012E+03  0.43790444012E+03  0.25500000000E-02 0.  1.
    8880022    1    1    2    0    0 -0.28675993173E+03 -0.32891141565E+03 -0.23042027917E+03  0.51662281778E+03  0.15294330000E+03 0.  1.
    8880022    1    1    2    0    0  0.28675993173E+03  0.32891141565E+03  0.76582846313E+03  0.89459424643E+03  0.15294330000E+03 0.  0.
<mgrwt>
<rscale>  0 0.46239121E+03</rscale>
<asrwt>0</asrwt>
<pdfrwt beam="1">  1        2 0.14974040E+00 0.46239121E+03</pdfrwt>
<pdfrwt beam="2">  1       -2 0.67369915E-01 0.46239121E+03</pdfrwt>
<totfact> 0.55430603E+01</totfact>
</mgrwt>
</event>
<event>
 4    1  0.1701380E-008  0.2124062E+03  0.7818608E-02  0.1139675E+00
         -2   -1    0    0    0  501 -0.00000000000E+00  0.00000000000E+00  0.15998137464E+03  0.15998137466E+03  0.25500000000E-02 0.  1.
          2   -1    0    0  501    0  0.00000000000E+00 -0.00000000000E+00 -0.56722045503E+03  0.56722045503E+03  0.25500000000E-02 0. -1.
    8880022    1    1    2    0    0 -0.30016995592E+02 -0.14430430126E+03 -0.46144836857E+03  0.50798720580E+03  0.15294330000E+03 0.  0.
    8880022    1    1    2    0    0  0.30016995592E+02  0.14430430126E+03  0.54209288184E+02  0.21921462389E+03  0.15294330000E+03 0.  0.
<mgrwt>
<rscale>  0 0.21240622E+03</rscale>
<asrwt>0</asrwt>
<pdfrwt beam="1">  1        2 0.87264685E-01 0.21240622E+03</pdfrwt>
<pdfrwt beam="2">  1       -2 0.24612519E-01 0.21240622E+03</pdfrwt>
<totfact> 0.79002338E+02</totfact>
</mgrwt>
</event>
<event>
 4    1  0.1701380E-008  0.7564418E+03  0.7818608E-02  0.9625298E-01
          2   -1    0    0  501    0  0.00000000000E+00  0.00000000000E+00  0.24157865232E+04  0.24157865232E+04  0.25500000000E-02 0. -1.
         -2   -1    0    0    0  501 -0.00000000000E+00 -0.00000000000E+00 -0.27902423983E+03  0.27902423984E+03  0.25500000000E-02 0.  1.
    8880022    1    1    2    0    0 -0.70016850016E+03 -0.24202593492E+03  0.54460290813E+03  0.93209251813E+03  0.15294330000E+03 0.  0.
    8880022    1    1    2    0    0  0.70016850016E+03  0.24202593492E+03  0.15921593752E+04  0.17627182449E+04  0.15294330000E+03 0.  0.
<mgrwt>
<rscale>  0 0.75644176E+03</rscale>
<asrwt>0</asrwt>
<pdfrwt beam="1">  1        2 0.37165945E+00 0.75644176E+03</pdfrwt>
<pdfrwt beam="2">  1       -2 0.42926808E-01 0.75644176E+03</pdfrwt>
<totfact> 0.20882499E+01</totfact>
</mgrwt>
</event>
<event>
 4    1  0.1701380E-008  0.6295864E+03  0.7818608E-02  0.9845856E-01
         -2   -1    0    0    0  501 -0.00000000000E+00  0.00000000000E+00  0.28067236702E+03  0.28067236703E+03  0.25500000000E-02 0.  1.
          2   -1    0    0  501    0  0.00000000000E+00 -0.00000000000E+00 -0.19870832054E+04  0.19870832054E+04  0.25500000000E-02 0. -1.
    8880022    1    1    2    0    0 -0.38345166676E+03 -0.47534427808E+03 -0.14630650169E+04  0.15927769022E+04  0.15294330000E+03 0.  0.
    8880022    1    1    2    0    0  0.38345166676E+03  0.47534427808E+03 -0.24334582148E+03  0.67497867025E+03  0.15294330000E+03 0.  1.
<mgrwt>
<rscale>  0 0.62958639E+03</rscale>
<asrwt>0</asrwt>
<pdfrwt beam="1">  1        2 0.30570510E+00 0.62958639E+03</pdfrwt>
<pdfrwt beam="2">  1       -2 0.43180365E-01 0.62958639E+03</pdfrwt>
<totfact> 0.36228292E+01</totfact>
</mgrwt>
</event>
<event>
 4    1  0.1701380E-008  0.1604647E+04  0.7818608E-02  0.8817698E-01
         -2   -1    0    0    0  501 -0.00000000000E+00  0.00000000000E+00  0.13460460231E+04  0.13460460231E+04  0.25500000000E-02 0.  1.
          2   -1    0    0  501    0  0.00000000000E+00 -0.00000000000E+00 -0.37794122636E+04  0.37794122636E+04  0.25500000000E-02 0. -1.
    8880022    1    1    2    0    0 -0.15933360130E+04  0.11305754119E+03  0.58426987726E+03  0.17077074107E+04  0.15294330000E+03 0.  0.
    8880022    1    1    2    0    0  0.15933360130E+04 -0.11305754119E+03 -0.30176361178E+04  0.34177508760E+04  0.15294330000E+03 0.  0.
<mgrwt>
<rscale>  0 0.16046474E+04</rscale>
<asrwt>0</asrwt>
<pdfrwt beam="1">  1        2 0.58144803E+00 0.16046474E+04</pdfrwt>
<pdfrwt beam="2">  1       -2 0.20708401E+00 0.16046474E+04</pdfrwt>
<totfact> 0.57084228E-02</totfact>
</mgrwt>
</event>
<event>
 4    1  0.1701380E-008  0.7190821E+03  0.7818608E-02  0.9685144E-01
         -2   -1    0    0    0  501 -0.00000000000E+00  0.00000000000E+00  0.45784957793E+03  0.45784957794E+03  0.25500000000E-02 0.  1.
          2   -1    0    0  501    0  0.00000000000E+00 -0.00000000000E+00 -0.15189691900E+04  0.15189691900E+04  0.25500000000E-02 0. -1.
    8880022    1    1    2    0    0  0.42122294312E+03 -0.56236879206E+03 -0.10311408987E+04  0.12571120205E+04  0.15294330000E+03 0.  0.
    8880022    1    1    2    0    0 -0.42122294312E+03  0.56236879206E+03 -0.29978713411E+02  0.71970674748E+03  0.15294330000E+03 0.  0.
<mgrwt>
<rscale>  0 0.71908211E+03</rscale>
<asrwt>0</asrwt>
<pdfrwt beam="1">  1        2 0.23368757E+00 0.71908211E+03</pdfrwt>
<pdfrwt beam="2">  1       -2 0.70438397E-01 0.71908211E+03</pdfrwt>
<totfact> 0.23344388E+01</totfact>
</mgrwt>
</event>
<event>
 4    1  0.1701380E-008  0.5820153E+03  0.7818608E-02  0.9943437E-01
         -2   -1    0    0    0  501 -0.00000000000E+00  0.00000000000E+00  0.39070096783E+03  0.39070096784E+03  0.25500000000E-02 0.  1.
          2   -1    0    0  501    0  0.00000000000E+00 -0.00000000000E+00 -0.14211987270E+04  0.14211987270E+04  0.25500000000E-02 0. -1.
    8880022    1    1    2    0    0 -0.41146046600E+03  0.38216542129E+03 -0.10809739998E+04  0.12276997050E+04  0.15294330000E+03 0.  0.
    8880022    1    1    2    0    0  0.41146046600E+03 -0.38216542129E+03  0.50476240613E+02  0.58419998990E+03  0.15294330000E+03 0.  0.
<mgrwt>
<rscale>  0 0.58201527E+03</rscale>
<asrwt>0</asrwt>
<pdfrwt beam="1">  1        2 0.21864596E+00 0.58201527E+03</pdfrwt>
<pdfrwt beam="2">  1       -2 0.60107842E-01 0.58201527E+03</pdfrwt>
<totfact> 0.37857939E+01</totfact>
</mgrwt>
</event>
<event>
 4    1  0.1701380E-008  0.4397263E+03  0.7818608E-02  0.1030831E+00
          2   -1    0    0  501    0  0.00000000000E+00  0.00000000000E+00  0.22818209137E+04  0.22818209137E+04  0.25500000000E-02 0. -1.
         -2   -1    0    0    0  501 -0.00000000000E+00 -0.00000000000E+00 -0.59852451518E+03  0.59852451519E+03  0.25500000000E-02 0.  1.
    8880022    1    1    2    0    0  0.30530214993E+03 -0.27705260622E+03 -0.49268575848E+03  0.66037751247E+03  0.15294330000E+03 0.  0.
    8880022    1    1    2    0    0 -0.30530214993E+03  0.27705260622E+03  0.21759821570E+04  0.22199679165E+04  0.15294330000E+03 0.  0.
<mgrwt>
<rscale>  0 0.43972628E+03</rscale>
<asrwt>0</asrwt>
<pdfrwt beam="1">  1        2 0.35104936E+00 0.43972628E+03</pdfrwt>
<pdfrwt beam="2">  1       -2 0.92080697E-01 0.43972628E+03</pdfrwt>
<totfact> 0.52119061E+00</totfact>
</mgrwt>
</event>
<event>
 4    1  0.1701380E-008  0.7409968E+03  0.7818608E-02  0.9649582E-01
         -2   -1    0    0    0  501 -0.00000000000E+00  0.00000000000E+00  0.41768795860E+03  0.41768795861E+03  0.25500000000E-02 0.  1.
          2   -1    0    0  501    0  0.00000000000E+00 -0.00000000000E+00 -0.26506296902E+04  0.26506296902E+04  0.25500000000E-02 0. -1.
    8880022    1    1    2    0    0  0.57647913671E+03 -0.43972312656E+03 -0.22056772951E+04  0.23268194185E+04  0.15294330000E+03 0.  0.
    8880022    1    1    2    0    0 -0.57647913671E+03  0.43972312656E+03 -0.27264436521E+02  0.74149823035E+03  0.15294330000E+03 0.  0.
<mgrwt>
<rscale>  0 0.74099681E+03</rscale>
<asrwt>0</asrwt>
<pdfrwt beam="1">  1        2 0.40778917E+00 0.74099681E+03</pdfrwt>
<pdfrwt beam="2">  1       -2 0.64259688E-01 0.74099681E+03</pdfrwt>
<totfact> 0.67108367E+00</totfact>
</mgrwt>
</event>
<event>
 4    1  0.1701380E-008  0.1471014E+04  0.7818608E-02  0.8903960E-01
          2   -1    0    0  501    0  0.00000000000E+00  0.00000000000E+00  0.19133316641E+04  0.19133316641E+04  0.25500000000E-02 0. -1.
         -2   -1    0    0    0  501 -0.00000000000E+00 -0.00000000000E+00 -0.11579532741E+04  0.11579532742E+04  0.25500000000E-02 0.  1.
    8880022    1    1    2    0    0  0.11873810629E+04 -0.85476130264E+03  0.14318354451E+03  0.14779661205E+04  0.15294330000E+03 0.  0.
    8880022    1    1    2    0    0 -0.11873810629E+04  0.85476130264E+03  0.61219484540E+03  0.15933188177E+04  0.15294330000E+03 0.  0.
<mgrwt>
<rscale>  0 0.14710140E+04</rscale>
<asrwt>0</asrwt>
<pdfrwt beam="1">  1        2 0.29435871E+00 0.14710140E+04</pdfrwt>
<pdfrwt beam="2">  1       -2 0.17814666E+00 0.14710140E+04</pdfrwt>
<totfact> 0.13163038E+00</totfact>
</mgrwt>
</event>
<event>
 4    1  0.1701380E-008  0.1083718E+04  0.7818608E-02  0.9221208E-01
         -2   -1    0    0    0  501 -0.00000000000E+00  0.00000000000E+00  0.98936784027E+03  0.98936784028E+03  0.25500000000E-02 0.  1.
          2   -1    0    0  501    0  0.00000000000E+00 -0.00000000000E+00 -0.21748163915E+04  0.21748163915E+04  0.25500000000E-02 0. -1.
    8880022    1    1    2    0    0 -0.10681953479E+04 -0.10006275819E+03 -0.16589372002E+04  0.19815443835E+04  0.15294330000E+03 0.  0.
    8880022    1    1    2    0    0  0.10681953479E+04  0.10006275819E+03  0.47348864900E+03  0.11826398482E+04  0.15294330000E+03 0.  0.
<mgrwt>
<rscale>  0 0.10837184E+04</rscale>
<asrwt>0</asrwt>
<pdfrwt beam="1">  1        2 0.33458714E+00 0.10837184E+04</pdfrwt>
<pdfrwt beam="2">  1       -2 0.15221044E+00 0.10837184E+04</pdfrwt>
<totfact> 0.15200370E+00</totfact>
</mgrwt>
</event>
<event>
 4    1  0.1701380E-008  0.4389038E+03  0.7818608E-02  0.1031084E+00
         -2   -1    0    0    0  501 -0.00000000000E+00  0.00000000000E+00  0.35424157025E+03  0.35424157025E+03  0.25500000000E-02 0.  1.
          2   -1    0    0  501    0  0.00000000000E+00 -0.00000000000E+00 -0.75256599049E+03  0.75256599050E+03  0.25500000000E-02 0. -1.
    8880022    1    1    2    0    0 -0.21072995650E+03  0.35332389572E+03 -0.49063617612E+03  0.65830114704E+03  0.15294330000E+03 0.  0.
    8880022    1    1    2    0    0  0.21072995650E+03 -0.35332389572E+03  0.92311755879E+02  0.44850641371E+03  0.15294330000E+03 0.  0.
<mgrwt>
<rscale>  0 0.43890380E+03</rscale>
<asrwt>0</asrwt>
<pdfrwt beam="1">  1        2 0.11577938E+00 0.43890380E+03</pdfrwt>
<pdfrwt beam="2">  1       -2 0.54498703E-01 0.43890380E+03</pdfrwt>
<totfact> 0.12256430E+02</totfact>
</mgrwt>
</event>
<event>
 4    1  0.1701380E-008  0.5924183E+03  0.7818608E-02  0.9921262E-01
         -2   -1    0    0    0  501 -0.00000000000E+00  0.00000000000E+00  0.14831286820E+04  0.14831286820E+04  0.25500000000E-02 0.  1.
          2   -1    0    0  501    0  0.00000000000E+00 -0.00000000000E+00 -0.16733978631E+04  0.16733978631E+04  0.25500000000E-02 0. -1.
    8880022    1    1    2    0    0 -0.49576736169E+03  0.28597638621E+03 -0.15575557658E+04  0.16664151304E+04  0.15294330000E+03 0.  0.
    8880022    1    1    2    0    0  0.49576736169E+03 -0.28597638621E+03  0.13672865847E+04  0.14901114147E+04  0.15294330000E+03 0.  0.
<mgrwt>
<rscale>  0 0.59241828E+03</rscale>
<asrwt>0</asrwt>
<pdfrwt beam="1">  1        2 0.25744583E+00 0.59241828E+03</pdfrwt>
<pdfrwt beam="2">  1       -2 0.22817364E+00 0.59241828E+03</pdfrwt>
<totfact> 0.96132302E-01</totfact>
</mgrwt>
</event>
<event>
 4    1  0.1701380E-008  0.6756910E+03  0.7818608E-02  0.9759731E-01
          2   -1    0    0  501    0  0.00000000000E+00  0.00000000000E+00  0.15004705145E+04  0.15004705145E+04  0.25500000000E-02 0. -1.
         -2   -1    0    0    0  501 -0.00000000000E+00 -0.00000000000E+00 -0.10888007310E+04  0.10888007310E+04  0.25500000000E-02 0.  1.
    8880022    1    1    2    0    0  0.36011972026E+03 -0.55089065012E+03  0.13047811314E+04  0.14693577424E+04  0.15294330000E+03 0.  0.
    8880022    1    1    2    0    0 -0.36011972026E+03  0.55089065012E+03 -0.89311134796E+03  0.11199135030E+04  0.15294330000E+03 0.  0.
<mgrwt>
<rscale>  0 0.67569103E+03</rscale>
<asrwt>0</asrwt>
<pdfrwt beam="1">  1        2 0.23084162E+00 0.67569103E+03</pdfrwt>
<pdfrwt beam="2">  1       -2 0.16750780E+00 0.67569103E+03</pdfrwt>
<totfact> 0.29340252E+00</totfact>
</mgrwt>
</event>
<event>
 4    1  0.1701380E-008  0.4460044E+03  0.7818608E-02  0.1028920E+00
         -2   -1    0    0    0  501 -0.00000000000E+00  0.00000000000E+00  0.61696997996E+03  0.61696997996E+03  0.25500000000E-02 0.  1.
          2   -1    0    0  501    0  0.00000000000E+00 -0.00000000000E+00 -0.90204152226E+03  0.90204152226E+03  0.25500000000E-02 0. -1.
    8880022    1    1    2    0    0  0.21012624386E+03 -0.36245720063E+03 -0.75136039302E+03  0.87376332829E+03  0.15294330000E+03 0.  0.
    8880022    1    1    2    0    0 -0.21012624386E+03  0.36245720063E+03  0.46628885072E+03  0.64524817394E+03  0.15294330000E+03 0.  0.
<mgrwt>
<rscale>  0 0.44600439E+03</rscale>
<asrwt>0</asrwt>
<pdfrwt beam="1">  1        2 0.13877562E+00 0.44600439E+03</pdfrwt>
<pdfrwt beam="2">  1       -2 0.94918458E-01 0.44600439E+03</pdfrwt>
<totfact> 0.28751221E+01</totfact>
</mgrwt>
</event>
<event>
 4    1  0.1701380E-008  0.3096492E+03  0.7818608E-02  0.1080514E+00
         -2   -1    0    0    0  501 -0.00000000000E+00  0.00000000000E+00  0.47506867093E+03  0.47506867094E+03  0.25500000000E-02 0.  1.
          2   -1    0    0  501    0  0.00000000000E+00 -0.00000000000E+00 -0.15265255784E+04  0.15265255784E+04  0.25500000000E-02 0. -1.
    8880022    1    1    2    0    0  0.21842845683E+03  0.15741657935E+03 -0.14580210115E+04  0.14905394638E+04  0.15294330000E+03 0.  0.
    8880022    1    1    2    0    0 -0.21842845683E+03 -0.15741657935E+03  0.40656410398E+03  0.51105478558E+03  0.15294330000E+03 0.  1.
<mgrwt>
<rscale>  0 0.30964919E+03</rscale>
<asrwt>0</asrwt>
<pdfrwt beam="1">  1        2 0.23485009E+00 0.30964919E+03</pdfrwt>
<pdfrwt beam="2">  1       -2 0.73087489E-01 0.30964919E+03</pdfrwt>
<totfact> 0.23056177E+01</totfact>
</mgrwt>
</event>
<event>
 4    1  0.1701380E-008  0.1146938E+04  0.7818608E-02  0.9160613E-01
         -2   -1    0    0    0  501 -0.00000000000E+00  0.00000000000E+00  0.70040181438E+03  0.70040181439E+03  0.25500000000E-02 0.  1.
          2   -1    0    0  501    0  0.00000000000E+00 -0.00000000000E+00 -0.32493315454E+04  0.32493315454E+04  0.25500000000E-02 0. -1.
    8880022    1    1    2    0    0 -0.66476348535E+03 -0.92204312308E+03 -0.25573474002E+04  0.28027649546E+04  0.15294330000E+03 0.  0.
    8880022    1    1    2    0    0  0.66476348535E+03  0.92204312308E+03  0.84176692393E+01  0.11469684052E+04  0.15294330000E+03 0.  0.
<mgrwt>
<rscale>  0 0.11469375E+04</rscale>
<asrwt>0</asrwt>
<pdfrwt beam="1">  1        2 0.49989715E+00 0.11469375E+04</pdfrwt>
<pdfrwt beam="2">  1       -2 0.10775413E+00 0.11469375E+04</pdfrwt>
<totfact> 0.83270914E-01</totfact>
</mgrwt>
</event>
<event>
 4    1  0.1701380E-008  0.7839903E+03  0.7818608E-02  0.9583484E-01
          2   -1    0    0  501    0  0.00000000000E+00  0.00000000000E+00  0.30196091440E+04  0.30196091440E+04  0.25500000000E-02 0. -1.
         -2   -1    0    0    0  501 -0.00000000000E+00 -0.00000000000E+00 -0.81907116644E+03  0.81907116644E+03  0.25500000000E-02 0.  1.
    8880022    1    1    2    0    0 -0.20609855606E+03 -0.74079185773E+03  0.27641133386E+04  0.28731452092E+04  0.15294330000E+03 0.  0.
    8880022    1    1    2    0    0  0.20609855606E+03  0.74079185773E+03 -0.56357536101E+03  0.96553510130E+03  0.15294330000E+03 0.  0.
<mgrwt>
<rscale>  0 0.78399033E+03</rscale>
<asrwt>0</asrwt>
<pdfrwt beam="1">  1        2 0.46455525E+00 0.78399033E+03</pdfrwt>
<pdfrwt beam="2">  1       -2 0.12601095E+00 0.78399033E+03</pdfrwt>
<totfact> 0.84390340E-01</totfact>
</mgrwt>
</event>
<event>
 4    1  0.1701380E-008  0.5915115E+03  0.7818608E-02  0.9923175E-01
          2   -1    0    0  501    0  0.00000000000E+00  0.00000000000E+00  0.12565322095E+04  0.12565322096E+04  0.25500000000E-02 0. -1.
         -2   -1    0    0    0  501 -0.00000000000E+00 -0.00000000000E+00 -0.16316896532E+04  0.16316896532E+04  0.25500000000E-02 0.  1.
    8880022    1    1    2    0    0 -0.17975945294E+03  0.54238431195E+03  0.11275509107E+04  0.12732858721E+04  0.15294330000E+03 0.  0.
    8880022    1    1    2    0    0  0.17975945294E+03 -0.54238431195E+03 -0.15027083544E+04  0.16149359907E+04  0.15294330000E+03 0.  1.
<mgrwt>
<rscale>  0 0.59151150E+03</rscale>
<asrwt>0</asrwt>
<pdfrwt beam="1">  1        2 0.19331265E+00 0.59151150E+03</pdfrwt>
<pdfrwt beam="2">  1       -2 0.25102918E+00 0.59151150E+03</pdfrwt>
<totfact> 0.11919960E+00</totfact>
</mgrwt>
</event>
<event>
 4    1  0.1861203E-008  0.1088396E+04  0.7818608E-02  0.9216576E-01
         -2   -1    0    0    0  501 -0.00000000000E+00  0.00000000000E+00  0.14315481704E+04  0.14315481704E+04  0.25500000000E-02 0.  1.
          2   -1    0    0  501    0  0.00000000000E+00 -0.00000000000E+00 -0.25218373982E+04  0.25218373982E+04  0.25500000000E-02 0. -1.
    8880022    1    1    2    0    0 -0.10612061590E+04 -0.18723425279E+03  0.10750997542E+04  0.15298517286E+04  0.15294330000E+03 0.  0.
    8880022    1    1    2    0    0  0.10612061590E+04  0.18723425279E+03 -0.21653889820E+04  0.24235338400E+04  0.15294330000E+03 0.  0.
<mgrwt>
<rscale>  0 0.10883964E+04</rscale>
<asrwt>0</asrwt>
<pdfrwt beam="1">  1        2 0.38797499E+00 0.10883964E+04</pdfrwt>
<pdfrwt beam="2">  1       -2 0.22023818E+00 0.10883964E+04</pdfrwt>
<totfact> 0.33080384E-01</totfact>
</mgrwt>
</event>
<event>
 4    1  0.1701380E-008  0.7465770E+03  0.7818608E-02  0.9640736E-01
         -2   -1    0    0    0  501 -0.00000000000E+00  0.00000000000E+00  0.11979086720E+04  0.11979086720E+04  0.25500000000E-02 0.  1.
          2   -1    0    0  501    0  0.00000000000E+00 -0.00000000000E+00 -0.52812630885E+03  0.52812630885E+03  0.25500000000E-02 0. -1.
    8880022    1    1    2    0    0  0.47226221116E+03  0.55763248926E+03  0.63257096919E+03  0.97853118154E+03  0.15294330000E+03 0.  0.
    8880022    1    1    2    0    0 -0.47226221116E+03 -0.55763248926E+03  0.37211393993E+02  0.74750379934E+03  0.15294330000E+03 0.  0.
<mgrwt>
<rscale>  0 0.74657702E+03</rscale>
<asrwt>0</asrwt>
<pdfrwt beam="1">  1        2 0.81250203E-01 0.74657702E+03</pdfrwt>
<pdfrwt beam="2">  1       -2 0.18429364E+00 0.74657702E+03</pdfrwt>
<totfact> 0.99584301E+00</totfact>
</mgrwt>
</event>
<event>
 4    1  0.1701380E-008  0.9160821E+03  0.7818608E-02  0.9405698E-01
         -2   -1    0    0    0  501 -0.00000000000E+00  0.00000000000E+00  0.10977144002E+04  0.10977144002E+04  0.25500000000E-02 0.  1.
          2   -1    0    0  501    0  0.00000000000E+00 -0.00000000000E+00 -0.22268673470E+04  0.22268673470E+04  0.25500000000E-02 0. -1.
    8880022    1    1    2    0    0  0.70077584608E+03 -0.56984909235E+03 -0.19116384507E+04  0.21198037630E+04  0.15294330000E+03 0.  0.
    8880022    1    1    2    0    0 -0.70077584608E+03  0.56984909235E+03  0.78248550390E+03  0.12047779842E+04  0.15294330000E+03 0.  0.
<mgrwt>
<rscale>  0 0.91608211E+03</rscale>
<asrwt>0</asrwt>
<pdfrwt beam="1">  1        2 0.34259498E+00 0.91608211E+03</pdfrwt>
<pdfrwt beam="2">  1       -2 0.16887914E+00 0.91608211E+03</pdfrwt>
<totfact> 0.10981135E+00</totfact>
</mgrwt>
</event>
<event>
 4    1  0.1701380E-008  0.6376513E+03  0.7818608E-02  0.9830231E-01
         -2   -1    0    0    0  501 -0.00000000000E+00  0.00000000000E+00  0.64228205312E+03  0.64228205313E+03  0.25500000000E-02 0.  1.
          2   -1    0    0  501    0  0.00000000000E+00 -0.00000000000E+00 -0.97155410737E+03  0.97155410738E+03  0.25500000000E-02 0. -1.
    8880022    1    1    2    0    0  0.59352876925E+03 -0.17587255236E+03  0.31165825861E+03  0.70973944358E+03  0.15294330000E+03 0.  0.
    8880022    1    1    2    0    0 -0.59352876925E+03  0.17587255236E+03 -0.64093031286E+03  0.90409671693E+03  0.15294330000E+03 0.  0.
<mgrwt>
<rscale>  0 0.63765132E+03</rscale>
<asrwt>0</asrwt>
<pdfrwt beam="1">  1        2 0.14946986E+00 0.63765132E+03</pdfrwt>
<pdfrwt beam="2">  1       -2 0.98812624E-01 0.63765132E+03</pdfrwt>
<totfact> 0.22970345E+01</totfact>
</mgrwt>
</event>
<event>
 4    1  0.1701380E-008  0.7022147E+03  0.7818608E-02  0.9713452E-01
          2   -1    0    0  501    0  0.00000000000E+00  0.00000000000E+00  0.77802154053E+03  0.77802154054E+03  0.25500000000E-02 0. -1.
         -2   -1    0    0    0  501 -0.00000000000E+00 -0.00000000000E+00 -0.10340769145E+04  0.10340769145E+04  0.25500000000E-02 0.  1.
    8880022    1    1    2    0    0  0.61980553348E+03 -0.29249777891E+03  0.43568630797E+03  0.82639461637E+03  0.15294330000E+03 0. -1.
    8880022    1    1    2    0    0 -0.61980553348E+03  0.29249777891E+03 -0.69174168191E+03  0.98570383864E+03  0.15294330000E+03 0.  0.
<mgrwt>
<rscale>  0 0.70221471E+03</rscale>
<asrwt>0</asrwt>
<pdfrwt beam="1">  1        2 0.11969562E+00 0.70221471E+03</pdfrwt>
<pdfrwt beam="2">  1       -2 0.15908876E+00 0.70221471E+03</pdfrwt>
<totfact> 0.93494979E+00</totfact>
</mgrwt>
</event>
<event>
 4    1  0.1701380E-008  0.1563083E+03  0.7818608E-02  0.1192929E+00
         -2   -1    0    0    0  501 -0.00000000000E+00  0.00000000000E+00  0.18137443435E+03  0.18137443436E+03  0.25500000000E-02 0.  1.
          2   -1    0    0  501    0  0.00000000000E+00 -0.00000000000E+00 -0.50026084017E+03  0.50026084018E+03  0.25500000000E-02 0. -1.
    8880022    1    1    2    0    0 -0.28042109969E+01 -0.32136686886E+02  0.13189664175E+03  0.20452141052E+03  0.15294330000E+03 0.  0.
    8880022    1    1    2    0    0  0.28042109969E+01  0.32136686886E+02 -0.45078304758E+03  0.47711386402E+03  0.15294330000E+03 0. -1.
<mgrwt>
<rscale>  0 0.15630830E+03</rscale>
<asrwt>0</asrwt>
<pdfrwt beam="1">  1        2 0.76963206E-01 0.15630830E+03</pdfrwt>
<pdfrwt beam="2">  1       -2 0.27903759E-01 0.15630830E+03</pdfrwt>
<totfact> 0.72791135E+02</totfact>
</mgrwt>
</event>
<event>
 4    1  0.1701380E-008  0.4818946E+03  0.7818608E-02  0.1018616E+00
         -2   -1    0    0    0  501 -0.00000000000E+00  0.00000000000E+00  0.19862937853E+03  0.19862937854E+03  0.25500000000E-02 0.  1.
          2   -1    0    0  501    0  0.00000000000E+00 -0.00000000000E+00 -0.18641714945E+04  0.18641714945E+04  0.25500000000E-02 0. -1.
    8880022    1    1    2    0    0 -0.85243682849E+02  0.44895908773E+03 -0.14625549921E+04  0.15398991869E+04  0.15294330000E+03 0. -1.
    8880022    1    1    2    0    0  0.85243682849E+02 -0.44895908773E+03 -0.20298712391E+03  0.52290168618E+03  0.15294330000E+03 0.  0.
<mgrwt>
<rscale>  0 0.48189460E+03</rscale>
<asrwt>0</asrwt>
<pdfrwt beam="1">  1        2 0.28679560E+00 0.48189460E+03</pdfrwt>
<pdfrwt beam="2">  1       -2 0.30558367E-01 0.48189460E+03</pdfrwt>
<totfact> 0.83576709E+01</totfact>
</mgrwt>
</event>
<event>
 4    1  0.1701380E-008  0.1430679E+04  0.7818608E-02  0.8931906E-01
          2   -1    0    0  501    0  0.00000000000E+00  0.00000000000E+00  0.38091329237E+04  0.38091329237E+04  0.25500000000E-02 0. -1.
         -2   -1    0    0    0  501 -0.00000000000E+00 -0.00000000000E+00 -0.13240073345E+04  0.13240073345E+04  0.25500000000E-02 0.  1.
    8880022    1    1    2    0    0  0.11099342785E+04 -0.88966101861E+03  0.32209002911E+04  0.35243497512E+04  0.15294330000E+03 0.  0.
    8880022    1    1    2    0    0 -0.11099342785E+04  0.88966101861E+03 -0.73577470187E+03  0.16087905070E+04  0.15294330000E+03 0.  0.
<mgrwt>
<rscale>  0 0.14306790E+04</rscale>
<asrwt>0</asrwt>
<pdfrwt beam="1">  1        2 0.58602045E+00 0.14306790E+04</pdfrwt>
<pdfrwt beam="2">  1       -2 0.20369344E+00 0.14306790E+04</pdfrwt>
<totfact> 0.58505299E-02</totfact>
</mgrwt>
</event>
<event>
 4    1  0.1701380E-008  0.9831671E+03  0.7818608E-02  0.9327202E-01
          2   -1    0    0  501    0  0.00000000000E+00  0.00000000000E+00  0.22227901152E+04  0.22227901152E+04  0.25500000000E-02 0. -1.
         -2   -1    0    0    0  501 -0.00000000000E+00 -0.00000000000E+00 -0.52052849852E+03  0.52052849853E+03  0.25500000000E-02 0.  1.
    8880022    1    1    2    0    0  0.53782180395E+03 -0.80868634222E+03  0.29469197806E+03  0.10263824374E+04  0.15294330000E+03 0.  0.
    8880022    1    1    2    0    0 -0.53782180395E+03  0.80868634222E+03  0.14075696386E+04  0.17169361763E+04  0.15294330000E+03 0.  0.
<mgrwt>
<rscale>  0 0.98316710E+03</rscale>
<asrwt>0</asrwt>
<pdfrwt beam="1">  1        2 0.34196771E+00 0.98316710E+03</pdfrwt>
<pdfrwt beam="2">  1       -2 0.80081308E-01 0.98316710E+03</pdfrwt>
<totfact> 0.69659035E+00</totfact>
</mgrwt>
</event>
<event>
 4    1  0.1701380E-008  0.1231726E+04  0.7818608E-02  0.9085531E-01
          2   -1    0    0  501    0  0.00000000000E+00  0.00000000000E+00  0.43600922580E+04  0.43600922580E+04  0.25500000000E-02 0. -1.
         -2   -1    0    0    0  501 -0.00000000000E+00 -0.00000000000E+00 -0.38983823673E+03  0.38983823674E+03  0.25500000000E-02 0.  1.
    8880022    1    1    2    0    0  0.76155433407E+03  0.95592490155E+03  0.12067397648E+04  0.17243462338E+04  0.15294330000E+03 0.  0.
    8880022    1    1    2    0    0 -0.76155433407E+03 -0.95592490155E+03  0.27635142564E+04  0.30255842609E+04  0.15294330000E+03 0.  0.
<mgrwt>
<rscale>  0 0.12317261E+04</rscale>
<asrwt>0</asrwt>
<pdfrwt beam="1">  1        2 0.67078339E+00 0.12317261E+04</pdfrwt>
<pdfrwt beam="2">  1       -2 0.59975116E-01 0.12317261E+04</pdfrwt>
<totfact> 0.44451409E-01</totfact>
</mgrwt>
</event>
<event>
 4    1  0.1701380E-008  0.1454387E+04  0.7818608E-02  0.8915365E-01
          2   -1    0    0  501    0  0.00000000000E+00  0.00000000000E+00  0.16292087523E+04  0.16292087523E+04  0.25500000000E-02 0. -1.
         -2   -1    0    0    0  501 -0.00000000000E+00 -0.00000000000E+00 -0.15777283800E+04  0.15777283800E+04  0.25500000000E-02 0.  1.
    8880022    1    1    2    0    0  0.85761326643E+03 -0.11646245251E+04 -0.64903664125E+03  0.15926364978E+04  0.15294330000E+03 0.  0.
    8880022    1    1    2    0    0 -0.85761326643E+03  0.11646245251E+04  0.70051701360E+03  0.16143006345E+04  0.15294330000E+03 0.  0.
<mgrwt>
<rscale>  0 0.14543873E+04</rscale>
<asrwt>0</asrwt>
<pdfrwt beam="1">  1        2 0.25064750E+00 0.14543873E+04</pdfrwt>
<pdfrwt beam="2">  1       -2 0.24272744E+00 0.14543873E+04</pdfrwt>
<totfact> 0.72225527E-01</totfact>
</mgrwt>
</event>
<event>
 4    1  0.1701380E-008  0.7898416E+03  0.7818608E-02  0.9574838E-01
         -2   -1    0    0    0  501 -0.00000000000E+00  0.00000000000E+00  0.14435254720E+04  0.14435254720E+04  0.25500000000E-02 0.  1.
          2   -1    0    0  501    0  0.00000000000E+00 -0.00000000000E+00 -0.91578237924E+03  0.91578237925E+03  0.25500000000E-02 0. -1.
    8880022    1    1    2    0    0 -0.70883228352E+03 -0.31307336456E+03 -0.59337698309E+03  0.98789981012E+03  0.15294330000E+03 0.  0.
    8880022    1    1    2    0    0  0.70883228352E+03  0.31307336456E+03  0.11211200758E+04  0.13714080411E+04  0.15294330000E+03 0.  1.
<mgrwt>
<rscale>  0 0.78984162E+03</rscale>
<asrwt>0</asrwt>
<pdfrwt beam="1">  1        2 0.14088960E+00 0.78984162E+03</pdfrwt>
<pdfrwt beam="2">  1       -2 0.22208084E+00 0.78984162E+03</pdfrwt>
<totfact> 0.28009953E+00</totfact>
</mgrwt>
</event>
<event>
 4    1  0.1701380E-008  0.2779220E+03  0.7818608E-02  0.1096829E+00
         -2   -1    0    0    0  501 -0.00000000000E+00  0.00000000000E+00  0.21072045758E+03  0.21072045760E+03  0.25500000000E-02 0.  1.
          2   -1    0    0  501    0  0.00000000000E+00 -0.00000000000E+00 -0.23349655177E+04  0.23349655177E+04  0.25500000000E-02 0. -1.
    8880022    1    1    2    0    0 -0.23083825255E+03  0.23721128796E+02  0.10654891744E+03  0.29764629280E+03  0.15294330000E+03 0.  0.
    8880022    1    1    2    0    0  0.23083825255E+03 -0.23721128796E+02 -0.22307939776E+04  0.22480396825E+04  0.15294330000E+03 0.  0.
<mgrwt>
<rscale>  0 0.27792201E+03</rscale>
<asrwt>0</asrwt>
<pdfrwt beam="1">  1        2 0.35922545E+00 0.27792201E+03</pdfrwt>
<pdfrwt beam="2">  1       -2 0.32418534E-01 0.27792201E+03</pdfrwt>
<totfact> 0.44090410E+01</totfact>
</mgrwt>
</event>
<event>
 4    1  0.1701380E-008  0.1229036E+04  0.7818608E-02  0.9087814E-01
          2   -1    0    0  501    0  0.00000000000E+00  0.00000000000E+00  0.12934914230E+04  0.12934914231E+04  0.25500000000E-02 0. -1.
         -2   -1    0    0    0  501 -0.00000000000E+00 -0.00000000000E+00 -0.12475753521E+04  0.12475753521E+04  0.25500000000E-02 0.  1.
    8880022    1    1    2    0    0  0.45047023471E+03  0.11332322380E+04  0.34425436743E+03  0.12763390851E+04  0.15294330000E+03 0.  0.
    8880022    1    1    2    0    0 -0.45047023471E+03 -0.11332322380E+04 -0.29833829644E+03  0.12647276900E+04  0.15294330000E+03 0.  0.
<mgrwt>
<rscale>  0 0.12290364E+04</rscale>
<asrwt>0</asrwt>
<pdfrwt beam="1">  1        2 0.19899868E+00 0.12290364E+04</pdfrwt>
<pdfrwt beam="2">  1       -2 0.19193467E+00 0.12290364E+04</pdfrwt>
<totfact> 0.24283249E+00</totfact>
</mgrwt>
</event>
<event>
 4    1  0.1701380E-008  0.5138217E+03  0.7818608E-02  0.1010233E+00
          2   -1    0    0  501    0  0.00000000000E+00  0.00000000000E+00  0.26463057459E+04  0.26463057459E+04  0.25500000000E-02 0. -1.
         -2   -1    0    0    0  501 -0.00000000000E+00 -0.00000000000E+00 -0.98821539045E+03  0.98821539046E+03  0.25500000000E-02 0.  1.
    8880022    1    1    2    0    0  0.44677083951E+03  0.20252632745E+03 -0.89404343805E+03  0.10311772003E+04  0.15294330000E+03 0.  0.
    8880022    1    1    2    0    0 -0.44677083951E+03 -0.20252632745E+03  0.25521337935E+04  0.26033439360E+04  0.15294330000E+03 0.  0.
<mgrwt>
<rscale>  0 0.51382171E+03</rscale>
<asrwt>0</asrwt>
<pdfrwt beam="1">  1        2 0.40712396E+00 0.51382171E+03</pdfrwt>
<pdfrwt beam="2">  1       -2 0.15203314E+00 0.51382171E+03</pdfrwt>
<totfact> 0.93061228E-01</totfact>
</mgrwt>
</event>
<event>
 4    1  0.1701380E-008  0.6484568E+03  0.7818608E-02  0.9809679E-01
         -2   -1    0    0    0  501 -0.00000000000E+00  0.00000000000E+00  0.42480440390E+03  0.42480440391E+03  0.25500000000E-02 0.  1.
          2   -1    0    0  501    0  0.00000000000E+00 -0.00000000000E+00 -0.18458894331E+04  0.18458894331E+04  0.25500000000E-02 0. -1.
    8880022    1    1    2    0    0 -0.25855557955E+03 -0.57467690255E+03 -0.14837045362E+04  0.16192205945E+04  0.15294330000E+03 0.  0.
    8880022    1    1    2    0    0  0.25855557955E+03  0.57467690255E+03  0.62619506952E+02  0.65147324251E+03  0.15294330000E+03 0.  0.
<mgrwt>
<rscale>  0 0.64845677E+03</rscale>
<asrwt>0</asrwt>
<pdfrwt beam="1">  1        2 0.28398298E+00 0.64845677E+03</pdfrwt>
<pdfrwt beam="2">  1       -2 0.65354525E-01 0.64845677E+03</pdfrwt>
<totfact> 0.18371741E+01</totfact>
</mgrwt>
</event>
<event>
 4    1  0.1701380E-008  0.5607680E+03  0.7818608E-02  0.9990319E-01
         -2   -1    0    0    0  501 -0.00000000000E+00  0.00000000000E+00  0.15902606471E+04  0.15902606471E+04  0.25500000000E-02 0.  1.
          2   -1    0    0  501    0  0.00000000000E+00 -0.00000000000E+00 -0.27924188706E+03  0.27924188707E+03  0.25500000000E-02 0. -1.
    8880022    1    1    2    0    0  0.80587336409E+02  0.53345545679E+03  0.11605023478E+04  0.12888857186E+04  0.15294330000E+03 0.  0.
    8880022    1    1    2    0    0 -0.80587336409E+02 -0.53345545679E+03  0.15051641216E+03  0.58061681556E+03  0.15294330000E+03 0.  0.
<mgrwt>
<rscale>  0 0.56076795E+03</rscale>
<asrwt>0</asrwt>
<pdfrwt beam="1">  1        2 0.42960292E-01 0.56076795E+03</pdfrwt>
<pdfrwt beam="2">  1       -2 0.24465548E+00 0.56076795E+03</pdfrwt>
<totfact> 0.86604360E+00</totfact>
</mgrwt>
</event>
<event>
 4    1  0.1701380E-008  0.3669919E+03  0.7818608E-02  0.1055849E+00
         -2   -1    0    0    0  501 -0.00000000000E+00  0.00000000000E+00  0.75569954516E+03  0.75569954517E+03  0.25500000000E-02 0.  1.
          2   -1    0    0  501    0  0.00000000000E+00 -0.00000000000E+00 -0.22538442699E+04  0.22538442699E+04  0.25500000000E-02 0. -1.
    8880022    1    1    2    0    0 -0.14223262869E+03 -0.30176361639E+03 -0.21931241770E+04  0.22236179325E+04  0.15294330000E+03 0.  0.
    8880022    1    1    2    0    0  0.14223262869E+03  0.30176361639E+03  0.69497945227E+03  0.78592588259E+03  0.15294330000E+03 0.  1.
<mgrwt>
<rscale>  0 0.36699190E+03</rscale>
<asrwt>0</asrwt>
<pdfrwt beam="1">  1        2 0.34674527E+00 0.36699190E+03</pdfrwt>
<pdfrwt beam="2">  1       -2 0.11626147E+00 0.36699190E+03</pdfrwt>
<totfact> 0.31892240E+00</totfact>
</mgrwt>
</event>
<event>
 4    1  0.1701380E-008  0.7423542E+03  0.7818608E-02  0.9647422E-01
         -2   -1    0    0    0  501 -0.00000000000E+00  0.00000000000E+00  0.35987532331E+03  0.35987532332E+03  0.25500000000E-02 0.  1.
          2   -1    0    0  501    0  0.00000000000E+00 -0.00000000000E+00 -0.21053257873E+04  0.21053257873E+04  0.25500000000E-02 0. -1.
    8880022    1    1    2    0    0 -0.52706782321E+03  0.49989760534E+03 -0.15163238161E+04  0.16882913476E+04  0.15294330000E+03 0.  0.
    8880022    1    1    2    0    0  0.52706782321E+03 -0.49989760534E+03 -0.22912664787E+03  0.77690976301E+03  0.15294330000E+03 0.  0.
<mgrwt>
<rscale>  0 0.74235420E+03</rscale>
<asrwt>0</asrwt>
<pdfrwt beam="1">  1        2 0.32389627E+00 0.74235420E+03</pdfrwt>
<pdfrwt beam="2">  1       -2 0.55365436E-01 0.74235420E+03</pdfrwt>
<totfact> 0.18569999E+01</totfact>
</mgrwt>
</event>
<event>
 4    1  0.1701380E-008  0.8845122E+03  0.7818608E-02  0.9445152E-01
         -2   -1    0    0    0  501 -0.00000000000E+00  0.00000000000E+00  0.10835453745E+04  0.10835453745E+04  0.25500000000E-02 0.  1.
          2   -1    0    0  501    0  0.00000000000E+00 -0.00000000000E+00 -0.12282834333E+04  0.12282834333E+04  0.25500000000E-02 0. -1.
    8880022    1    1    2    0    0 -0.59038222748E+03  0.64063948735E+03 -0.81445907004E+03  0.12023748821E+04  0.15294330000E+03 0.  0.
    8880022    1    1    2    0    0  0.59038222748E+03 -0.64063948735E+03  0.66972101129E+03  0.11094539257E+04  0.15294330000E+03 0.  0.
<mgrwt>
<rscale>  0 0.88451217E+03</rscale>
<asrwt>0</asrwt>
<pdfrwt beam="1">  1        2 0.18896668E+00 0.88451217E+03</pdfrwt>
<pdfrwt beam="2">  1       -2 0.16669929E+00 0.88451217E+03</pdfrwt>
<totfact> 0.41198215E+00</totfact>
</mgrwt>
</event>
<event>
 4    1  0.1701380E-008  0.6849748E+03  0.7818608E-02  0.9743278E-01
          2   -1    0    0  501    0  0.00000000000E+00  0.00000000000E+00  0.13354452030E+04  0.13354452030E+04  0.25500000000E-02 0. -1.
         -2   -1    0    0    0  501 -0.00000000000E+00 -0.00000000000E+00 -0.60752826061E+03  0.60752826061E+03  0.25500000000E-02 0.  1.
    8880022    1    1    2    0    0 -0.61412361778E+03  0.26201332761E+03  0.99482332065E+03  0.12078343819E+04  0.15294330000E+03 0.  0.
    8880022    1    1    2    0    0  0.61412361778E+03 -0.26201332761E+03 -0.26690637823E+03  0.73513908175E+03  0.15294330000E+03 0.  0.
<mgrwt>
<rscale>  0 0.68497478E+03</rscale>
<asrwt>0</asrwt>
<pdfrwt beam="1">  1        2 0.20545311E+00 0.68497478E+03</pdfrwt>
<pdfrwt beam="2">  1       -2 0.93465887E-01 0.68497478E+03</pdfrwt>
<totfact> 0.15718526E+01</totfact>
</mgrwt>
</event>
<event>
 4    1  0.1701380E-008  0.1368780E+04  0.7818608E-02  0.8976733E-01
         -2   -1    0    0    0  501 -0.00000000000E+00  0.00000000000E+00  0.25478325980E+04  0.25478325980E+04  0.25500000000E-02 0.  1.
          2   -1    0    0  501    0  0.00000000000E+00 -0.00000000000E+00 -0.19562604885E+04  0.19562604885E+04  0.25500000000E-02 0. -1.
    8880022    1    1    2    0    0 -0.24481174184E+03 -0.13379961932E+04  0.20749061520E+04  0.24857179636E+04  0.15294330000E+03 0.  0.
    8880022    1    1    2    0    0  0.24481174184E+03  0.13379961932E+04 -0.14833340426E+04  0.20183751229E+04  0.15294330000E+03 0.  0.
<mgrwt>
<rscale>  0 0.13687798E+04</rscale>
<asrwt>0</asrwt>
<pdfrwt beam="1">  1        2 0.30096315E+00 0.13687798E+04</pdfrwt>
<pdfrwt beam="2">  1       -2 0.39197425E+00 0.13687798E+04</pdfrwt>
<totfact> 0.56673684E-02</totfact>
</mgrwt>
</event>
<event>
 4    1  0.1701380E-008  0.6531125E+03  0.7818608E-02  0.9800956E-01
         -2   -1    0    0    0  501 -0.00000000000E+00  0.00000000000E+00  0.56762801942E+03  0.56762801942E+03  0.25500000000E-02 0.  1.
          2   -1    0    0  501    0  0.00000000000E+00 -0.00000000000E+00 -0.21981331810E+04  0.21981331810E+04  0.25500000000E-02 0. -1.
    8880022    1    1    2    0    0 -0.41807708838E+03  0.47788679513E+03  0.30661416286E+03  0.72150408085E+03  0.15294330000E+03 0.  0.
    8880022    1    1    2    0    0  0.41807708838E+03 -0.47788679513E+03 -0.19371193245E+04  0.20442571196E+04  0.15294330000E+03 0.  0.
<mgrwt>
<rscale>  0 0.65311247E+03</rscale>
<asrwt>0</asrwt>
<pdfrwt beam="1">  1        2 0.33817433E+00 0.65311247E+03</pdfrwt>
<pdfrwt beam="2">  1       -2 0.87327389E-01 0.65311247E+03</pdfrwt>
<totfact> 0.62111177E+00</totfact>
</mgrwt>
</event>
<event>
 4    1  0.1701380E-008  0.6068663E+03  0.7818608E-02  0.9891262E-01
          2   -1    0    0  501    0  0.00000000000E+00  0.00000000000E+00  0.10753362049E+04  0.10753362049E+04  0.25500000000E-02 0. -1.
         -2   -1    0    0    0  501 -0.00000000000E+00 -0.00000000000E+00 -0.10518746407E+04  0.10518746407E+04  0.25500000000E-02 0.  1.
    8880022    1    1    2    0    0 -0.11303199604E+03 -0.57629750879E+03 -0.86172499020E+03  0.10539718509E+04  0.15294330000E+03 0.  0.
    8880022    1    1    2    0    0  0.11303199604E+03  0.57629750879E+03  0.88518655441E+03  0.10732389948E+04  0.15294330000E+03 0.  0.
<mgrwt>
<rscale>  0 0.60686630E+03</rscale>
<asrwt>0</asrwt>
<pdfrwt beam="1">  1        2 0.16543634E+00 0.60686630E+03</pdfrwt>
<pdfrwt beam="2">  1       -2 0.16182687E+00 0.60686630E+03</pdfrwt>
<totfact> 0.57467592E+00</totfact>
</mgrwt>
</event>
<event>
 4    1  0.1701380E-008  0.7819914E+03  0.7818608E-02  0.9586456E-01
          2   -1    0    0  501    0  0.00000000000E+00  0.00000000000E+00  0.10826021413E+04  0.10826021413E+04  0.25500000000E-02 0. -1.
         -2   -1    0    0    0  501 -0.00000000000E+00 -0.00000000000E+00 -0.17844749427E+04  0.17844749427E+04  0.25500000000E-02 0.  1.
    8880022    1    1    2    0    0 -0.94034327297E+02  0.76110216302E+03  0.83419590469E+03  0.11434130565E+04  0.15294330000E+03 0.  0.
    8880022    1    1    2    0    0  0.94034327297E+02 -0.76110216302E+03 -0.15360687061E+04  0.17236640276E+04  0.15294330000E+03 0.  0.
<mgrwt>
<rscale>  0 0.78199144E+03</rscale>
<asrwt>0</asrwt>
<pdfrwt beam="1">  1        2 0.16655418E+00 0.78199144E+03</pdfrwt>
<pdfrwt beam="2">  1       -2 0.27453461E+00 0.78199144E+03</pdfrwt>
<totfact> 0.10511347E+00</totfact>
</mgrwt>
</event>
<event>
 4    1  0.1701380E-008  0.1097600E+04  0.7818608E-02  0.9207535E-01
         -2   -1    0    0    0  501 -0.00000000000E+00  0.00000000000E+00  0.15491966480E+04  0.15491966480E+04  0.25500000000E-02 0.  1.
          2   -1    0    0  501    0  0.00000000000E+00 -0.00000000000E+00 -0.23663138717E+04  0.23663138717E+04  0.25500000000E-02 0. -1.
    8880022    1    1    2    0    0 -0.10574846590E+04  0.25111678169E+03 -0.20126862137E+04  0.22925162791E+04  0.15294330000E+03 0.  0.
    8880022    1    1    2    0    0  0.10574846590E+04 -0.25111678169E+03  0.11955689901E+04  0.16229942406E+04  0.15294330000E+03 0.  0.
<mgrwt>
<rscale>  0 0.10975997E+04</rscale>
<asrwt>0</asrwt>
<pdfrwt beam="1">  1        2 0.36404829E+00 0.10975997E+04</pdfrwt>
<pdfrwt beam="2">  1       -2 0.23833795E+00 0.10975997E+04</pdfrwt>
<totfact> 0.31238468E-01</totfact>
</mgrwt>
</event>
<event>
 4    1  0.1701380E-008  0.7065926E+03  0.7818608E-02  0.9706024E-01
         -2   -1    0    0    0  501 -0.00000000000E+00  0.00000000000E+00  0.26114216530E+03  0.26114216531E+03  0.25500000000E-02 0.  1.
          2   -1    0    0  501    0  0.00000000000E+00 -0.00000000000E+00 -0.30467262934E+04  0.30467262934E+04  0.25500000000E-02 0. -1.
    8880022    1    1    2    0    0  0.67579885850E+03 -0.13848220199E+03 -0.24022067208E+04  0.25039708863E+04  0.15294330000E+03 0.  0.
    8880022    1    1    2    0    0 -0.67579885850E+03  0.13848220199E+03 -0.38337740737E+03  0.80389757240E+03  0.15294330000E+03 0.  0.
<mgrwt>
<rscale>  0 0.70659258E+03</rscale>
<asrwt>0</asrwt>
<pdfrwt beam="1">  1        2 0.46872710E+00 0.70659258E+03</pdfrwt>
<pdfrwt beam="2">  1       -2 0.40175720E-01 0.70659258E+03</pdfrwt>
<totfact> 0.10238247E+01</totfact>
</mgrwt>
</event>
<event>
 4    1  0.1701380E-008  0.1271161E+04  0.7818608E-02  0.9052752E-01
         -2   -1    0    0    0  501 -0.00000000000E+00  0.00000000000E+00  0.10411696604E+04  0.10411696604E+04  0.25500000000E-02 0.  1.
          2   -1    0    0  501    0  0.00000000000E+00 -0.00000000000E+00 -0.21949981943E+04  0.21949981943E+04  0.25500000000E-02 0. -1.
    8880022    1    1    2    0    0 -0.96318891614E+03 -0.81530769230E+03  0.29888212809E+03  0.13058260607E+04  0.15294330000E+03 0.  0.
    8880022    1    1    2    0    0  0.96318891614E+03  0.81530769230E+03 -0.14527106620E+04  0.19303417940E+04  0.15294330000E+03 0.  0.
<mgrwt>
<rscale>  0 0.12711613E+04</rscale>
<asrwt>0</asrwt>
<pdfrwt beam="1">  1        2 0.33769203E+00 0.12711613E+04</pdfrwt>
<pdfrwt beam="2">  1       -2 0.16017995E+00 0.12711613E+04</pdfrwt>
<totfact> 0.12605636E+00</totfact>
</mgrwt>
</event>
<event>
 4    1  0.1701380E-008  0.2854546E+03  0.7818608E-02  0.1092747E+00
          2   -1    0    0  501    0  0.00000000000E+00  0.00000000000E+00  0.15744249833E+04  0.15744249833E+04  0.25500000000E-02 0. -1.
         -2   -1    0    0    0  501 -0.00000000000E+00 -0.00000000000E+00 -0.58258064577E+02  0.58258064632E+02  0.25500000000E-02 0.  1.
    8880022    1    1    2    0    0 -0.24100504134E+03  0.30379450386E+01  0.48534020482E+03  0.56306254225E+03  0.15294330000E+03 0.  1.
    8880022    1    1    2    0    0  0.24100504134E+03 -0.30379450386E+01  0.10308267139E+04  0.10696205057E+04  0.15294330000E+03 0. -1.
<mgrwt>
<rscale>  0 0.28545457E+03</rscale>
<asrwt>0</asrwt>
<pdfrwt beam="1">  1        2 0.24221924E+00 0.28545457E+03</pdfrwt>
<pdfrwt beam="2">  1       -2 0.89627788E-02 0.28545457E+03</pdfrwt>
<totfact> 0.98400167E+02</totfact>
</mgrwt>
</event>
<event>
 4    1  0.1701380E-008  0.8340296E+03  0.7818608E-02  0.9512026E-01
          2   -1    0    0  501    0  0.00000000000E+00  0.00000000000E+00  0.87800037961E+03  0.87800037962E+03  0.25500000000E-02 0. -1.
         -2   -1    0    0    0  501 -0.00000000000E+00 -0.00000000000E+00 -0.14289945865E+04  0.14289945865E+04  0.25500000000E-02 0.  1.
    8880022    1    1    2    0    0  0.81919684323E+03  0.33620457985E+02  0.49448430631E+03  0.96959795037E+03  0.15294330000E+03 0.  0.
    8880022    1    1    2    0    0 -0.81919684323E+03 -0.33620457985E+02 -0.10454785132E+04  0.13373970157E+04  0.15294330000E+03 0.  0.
<mgrwt>
<rscale>  0 0.83402965E+03</rscale>
<asrwt>0</asrwt>
<pdfrwt beam="1">  1        2 0.13507698E+00 0.83402965E+03</pdfrwt>
<pdfrwt beam="2">  1       -2 0.21984532E+00 0.83402965E+03</pdfrwt>
<totfact> 0.30491413E+00</totfact>
</mgrwt>
</event>
<event>
 4    1  0.1701380E-008  0.9337885E+03  0.7818608E-02  0.9384303E-01
         -2   -1    0    0    0  501 -0.00000000000E+00  0.00000000000E+00  0.83425230349E+03  0.83425230350E+03  0.25500000000E-02 0.  1.
          2   -1    0    0  501    0  0.00000000000E+00 -0.00000000000E+00 -0.14623312506E+04  0.14623312506E+04  0.25500000000E-02 0. -1.
    8880022    1    1    2    0    0  0.42074380772E+03 -0.81947790195E+03  0.29924985515E+03  0.98056693415E+03  0.15294330000E+03 0.  0.
    8880022    1    1    2    0    0 -0.42074380772E+03  0.81947790195E+03 -0.92732880230E+03  0.13160166200E+04  0.15294330000E+03 0.  0.
<mgrwt>
<rscale>  0 0.93378854E+03</rscale>
<asrwt>0</asrwt>
<pdfrwt beam="1">  1        2 0.22497404E+00 0.93378854E+03</pdfrwt>
<pdfrwt beam="2">  1       -2 0.12834651E+00 0.93378854E+03</pdfrwt>
<totfact> 0.59852212E+00</totfact>
</mgrwt>
</event>
<event>
 4    1  0.1701380E-008  0.1209067E+04  0.7818608E-02  0.9104957E-01
          2   -1    0    0  501    0  0.00000000000E+00  0.00000000000E+00  0.37974950532E+04  0.37974950532E+04  0.25500000000E-02 0. -1.
         -2   -1    0    0    0  501 -0.00000000000E+00 -0.00000000000E+00 -0.73976914173E+03  0.73976914174E+03  0.25500000000E-02 0.  1.
    8880022    1    1    2    0    0  0.11975590796E+04 -0.65603330388E+02  0.31000210731E+04  0.33274575659E+04  0.15294330000E+03 0.  0.
    8880022    1    1    2    0    0 -0.11975590796E+04  0.65603330388E+02 -0.42295161612E+02  0.12098066291E+04  0.15294330000E+03 0.  0.
<mgrwt>
<rscale>  0 0.12090671E+04</rscale>
<asrwt>0</asrwt>
<pdfrwt beam="1">  1        2 0.58423000E+00 0.12090671E+04</pdfrwt>
<pdfrwt beam="2">  1       -2 0.11381064E+00 0.12090671E+04</pdfrwt>
<totfact> 0.29968358E-01</totfact>
</mgrwt>
</event>
<event>
 4    1  0.1701380E-008  0.8549164E+03  0.7818608E-02  0.9483762E-01
         -2   -1    0    0    0  501 -0.00000000000E+00  0.00000000000E+00  0.24121469128E+04  0.24121469128E+04  0.25500000000E-02 0.  1.
          2   -1    0    0  501    0  0.00000000000E+00 -0.00000000000E+00 -0.64111393205E+03  0.64111393205E+03  0.25500000000E-02 0. -1.
    8880022    1    1    2    0    0  0.42240352723E+03  0.72736897584E+03 -0.22314110771E+03  0.88355756677E+03  0.15294330000E+03 0.  0.
    8880022    1    1    2    0    0 -0.42240352723E+03 -0.72736897584E+03  0.19941740885E+04  0.21697032781E+04  0.15294330000E+03 0.  0.
<mgrwt>
<rscale>  0 0.85491638E+03</rscale>
<asrwt>0</asrwt>
<pdfrwt beam="1">  1        2 0.98632914E-01 0.85491638E+03</pdfrwt>
<pdfrwt beam="2">  1       -2 0.37109952E+00 0.85491638E+03</pdfrwt>
<totfact> 0.54305934E-01</totfact>
</mgrwt>
</event>
<event>
 4    1  0.1701380E-008  0.7158953E+03  0.7818608E-02  0.9690429E-01
          2   -1    0    0  501    0  0.00000000000E+00  0.00000000000E+00  0.30785125577E+04  0.30785125577E+04  0.25500000000E-02 0. -1.
         -2   -1    0    0    0  501 -0.00000000000E+00 -0.00000000000E+00 -0.91368153526E+03  0.91368153527E+03  0.25500000000E-02 0.  1.
    8880022    1    1    2    0    0  0.41023815335E+03  0.56640895509E+03  0.28875249895E+04  0.29749464978E+04  0.15294330000E+03 0.  0.
    8880022    1    1    2    0    0 -0.41023815335E+03 -0.56640895509E+03 -0.72269396705E+03  0.10172475952E+04  0.15294330000E+03 0.  0.
<mgrwt>
<rscale>  0 0.71589531E+03</rscale>
<asrwt>0</asrwt>
<pdfrwt beam="1">  1        2 0.47361732E+00 0.71589531E+03</pdfrwt>
<pdfrwt beam="2">  1       -2 0.14056639E+00 0.71589531E+03</pdfrwt>
<totfact> 0.59680466E-01</totfact>
</mgrwt>
</event>
<event>
 4    1  0.1701380E-008  0.1580988E+04  0.7818608E-02  0.8832314E-01
         -2   -1    0    0    0  501 -0.00000000000E+00  0.00000000000E+00  0.17929628850E+04  0.17929628850E+04  0.25500000000E-02 0.  1.
          2   -1    0    0  501    0  0.00000000000E+00 -0.00000000000E+00 -0.15750608771E+04  0.15750608771E+04  0.25500000000E-02 0. -1.
    8880022    1    1    2    0    0  0.79991960955E+03 -0.13550862207E+04  0.67979948851E+03  0.17209442306E+04  0.15294330000E+03 0.  0.
    8880022    1    1    2    0    0 -0.79991960955E+03  0.13550862207E+04 -0.46189748060E+03  0.16470795314E+04  0.15294330000E+03 0.  0.
<mgrwt>
<rscale>  0 0.15809876E+04</rscale>
<asrwt>0</asrwt>
<pdfrwt beam="1">  1        2 0.24231706E+00 0.15809876E+04</pdfrwt>
<pdfrwt beam="2">  1       -2 0.27584044E+00 0.15809876E+04</pdfrwt>
<totfact> 0.47929834E-01</totfact>
</mgrwt>
</event>
<event>
 4    1  0.1701380E-008  0.3491737E+03  0.7818608E-02  0.1062955E+00
         -2   -1    0    0    0  501 -0.00000000000E+00  0.00000000000E+00  0.25924202774E+03  0.25924202775E+03  0.25500000000E-02 0.  1.
          2   -1    0    0  501    0  0.00000000000E+00 -0.00000000000E+00 -0.37421632115E+04  0.37421632115E+04  0.25500000000E-02 0. -1.
    8880022    1    1    2    0    0 -0.25788934063E+02 -0.31283473441E+03 -0.36122226410E+04  0.36290597544E+04  0.15294330000E+03 0.  0.
    8880022    1    1    2    0    0  0.25788934063E+02  0.31283473441E+03  0.12930145725E+03  0.37234548478E+03  0.15294330000E+03 0.  1.
<mgrwt>
<rscale>  0 0.34917373E+03</rscale>
<asrwt>0</asrwt>
<pdfrwt beam="1">  1        2 0.57571738E+00 0.34917373E+03</pdfrwt>
<pdfrwt beam="2">  1       -2 0.39883392E-01 0.34917373E+03</pdfrwt>
<totfact> 0.40250022E+00</totfact>
</mgrwt>
</event>
<event>
 4    1  0.1701380E-008  0.9782271E+03  0.7818608E-02  0.9332753E-01
          2   -1    0    0  501    0  0.00000000000E+00  0.00000000000E+00  0.16543976047E+04  0.16543976047E+04  0.25500000000E-02 0. -1.
         -2   -1    0    0    0  501 -0.00000000000E+00 -0.00000000000E+00 -0.84737620425E+03  0.84737620426E+03  0.25500000000E-02 0.  1.
    8880022    1    1    2    0    0 -0.47942089349E+02 -0.96500683921E+03 -0.30122257827E+03  0.10235542674E+04  0.15294330000E+03 0.  0.
    8880022    1    1    2    0    0  0.47942089349E+02  0.96500683921E+03  0.11082439787E+04  0.14782195415E+04  0.15294330000E+03 0.  0.
<mgrwt>
<rscale>  0 0.97822712E+03</rscale>
<asrwt>0</asrwt>
<pdfrwt beam="1">  1        2 0.25452271E+00 0.97822712E+03</pdfrwt>
<pdfrwt beam="2">  1       -2 0.13036557E+00 0.97822712E+03</pdfrwt>
<totfact> 0.44712021E+00</totfact>
</mgrwt>
</event>
<event>
 4    1  0.1701380E-008  0.5294855E+03  0.7818608E-02  0.1006357E+00
          2   -1    0    0  501    0  0.00000000000E+00  0.00000000000E+00  0.40085335005E+03  0.40085335006E+03  0.25500000000E-02 0. -1.
         -2   -1    0    0    0  501 -0.00000000000E+00 -0.00000000000E+00 -0.10895075707E+04  0.10895075707E+04  0.25500000000E-02 0.  1.
    8880022    1    1    2    0    0  0.49862005434E+03  0.91330865030E+02  0.10157666816E+03  0.53914075901E+03  0.15294330000E+03 0.  0.
    8880022    1    1    2    0    0 -0.49862005434E+03 -0.91330865030E+02 -0.79023088885E+03  0.95122016180E+03  0.15294330000E+03 0.  0.
<mgrwt>
<rscale>  0 0.52948554E+03</rscale>
<asrwt>0</asrwt>
<pdfrwt beam="1">  1        2 0.61669747E-01 0.52948554E+03</pdfrwt>
<pdfrwt beam="2">  1       -2 0.16761655E+00 0.52948554E+03</pdfrwt>
<totfact> 0.18245727E+01</totfact>
</mgrwt>
</event>
<event>
 4    1  0.1701380E-008  0.2032630E+03  0.7818608E-02  0.1147015E+00
          2   -1    0    0  501    0  0.00000000000E+00  0.00000000000E+00  0.16982072441E+04  0.16982072441E+04  0.25500000000E-02 0. -1.
         -2   -1    0    0    0  501 -0.00000000000E+00 -0.00000000000E+00 -0.83909393005E+03  0.83909393005E+03  0.25500000000E-02 0.  1.
    8880022    1    1    2    0    0  0.12608589972E+03  0.45016885638E+02  0.16796800335E+04  0.16919340537E+04  0.15294330000E+03 0. -1.
    8880022    1    1    2    0    0 -0.12608589972E+03 -0.45016885638E+02 -0.82056671950E+03  0.84536712040E+03  0.15294330000E+03 0.  0.
<mgrwt>
<rscale>  0 0.20326295E+03</rscale>
<asrwt>0</asrwt>
<pdfrwt beam="1">  1        2 0.26126265E+00 0.20326295E+03</pdfrwt>
<pdfrwt beam="2">  1       -2 0.12909137E+00 0.20326295E+03</pdfrwt>
<totfact> 0.52521732E+00</totfact>
</mgrwt>
</event>
<event>
 4    1  0.1701380E-008  0.1191992E+04  0.7818608E-02  0.9119895E-01
         -2   -1    0    0    0  501 -0.00000000000E+00  0.00000000000E+00  0.27190026863E+04  0.27190026863E+04  0.25500000000E-02 0.  1.
          2   -1    0    0  501    0  0.00000000000E+00 -0.00000000000E+00 -0.14488531991E+04  0.14488531991E+04  0.25500000000E-02 0. -1.
    8880022    1    1    2    0    0  0.11369546097E+04 -0.32370769573E+03  0.23013416372E+04  0.25917209419E+04  0.15294330000E+03 0.  0.
    8880022    1    1    2    0    0 -0.11369546097E+04  0.32370769573E+03 -0.10311921500E+04  0.15761349434E+04  0.15294330000E+03 0.  0.
<mgrwt>
<rscale>  0 0.11919917E+04</rscale>
<asrwt>0</asrwt>
<pdfrwt beam="1">  1        2 0.22290049E+00 0.11919917E+04</pdfrwt>
<pdfrwt beam="2">  1       -2 0.41830811E+00 0.11919917E+04</pdfrwt>
<totfact> 0.75205168E-02</totfact>
</mgrwt>
</event>
<event>
 4    1  0.1701380E-008  0.6831316E+03  0.7818608E-02  0.9746522E-01
         -2   -1    0    0    0  501 -0.00000000000E+00  0.00000000000E+00  0.86580042020E+03  0.86580042021E+03  0.25500000000E-02 0.  1.
          2   -1    0    0  501    0  0.00000000000E+00 -0.00000000000E+00 -0.14997684667E+04  0.14997684667E+04  0.25500000000E-02 0. -1.
    8880022    1    1    2    0    0 -0.64728944426E+03  0.15586387664E+03  0.62969387696E+03  0.92907653312E+03  0.15294330000E+03 0.  0.
    8880022    1    1    2    0    0  0.64728944426E+03 -0.15586387664E+03 -0.12636619235E+04  0.14364923538E+04  0.15294330000E+03 0.  0.
<mgrwt>
<rscale>  0 0.68313163E+03</rscale>
<asrwt>0</asrwt>
<pdfrwt beam="1">  1        2 0.23073361E+00 0.68313163E+03</pdfrwt>
<pdfrwt beam="2">  1       -2 0.13320007E+00 0.68313163E+03</pdfrwt>
<totfact> 0.53727907E+00</totfact>
</mgrwt>
</event>
<event>
 4    1  0.1701380E-008  0.1001862E+04  0.7818608E-02  0.9306505E-01
          2   -1    0    0  501    0  0.00000000000E+00  0.00000000000E+00  0.24953882576E+04  0.24953882576E+04  0.25500000000E-02 0. -1.
         -2   -1    0    0    0  501 -0.00000000000E+00 -0.00000000000E+00 -0.53720829630E+03  0.53720829631E+03  0.25500000000E-02 0.  1.
    8880022    1    1    2    0    0 -0.38378442427E+03  0.91271357486E+03  0.21904380496E+03  0.10255283495E+04  0.15294330000E+03 0.  0.
    8880022    1    1    2    0    0  0.38378442427E+03 -0.91271357486E+03  0.17391361563E+04  0.20070682044E+04  0.15294330000E+03 0.  0.
<mgrwt>
<rscale>  0 0.10018624E+04</rscale>
<asrwt>0</asrwt>
<pdfrwt beam="1">  1        2 0.38390588E+00 0.10018624E+04</pdfrwt>
<pdfrwt beam="2">  1       -2 0.82647431E-01 0.10018624E+04</pdfrwt>
<totfact> 0.45419945E+00</totfact>
</mgrwt>
</event>
<event>
 4    1  0.1701380E-008  0.8701809E+03  0.7818608E-02  0.9463644E-01
         -2   -1    0    0    0  501 -0.00000000000E+00  0.00000000000E+00  0.10725572277E+04  0.10725572277E+04  0.25500000000E-02 0.  1.
          2   -1    0    0  501    0  0.00000000000E+00 -0.00000000000E+00 -0.17356334244E+04  0.17356334244E+04  0.25500000000E-02 0. -1.
    8880022    1    1    2    0    0  0.64112544221E+03  0.56813842054E+03 -0.14129994456E+04  0.16594523747E+04  0.15294330000E+03 0.  0.
    8880022    1    1    2    0    0 -0.64112544221E+03 -0.56813842054E+03  0.74992324901E+03  0.11487382774E+04  0.15294330000E+03 0.  0.
<mgrwt>
<rscale>  0 0.87018087E+03</rscale>
<asrwt>0</asrwt>
<pdfrwt beam="1">  1        2 0.26702053E+00 0.87018087E+03</pdfrwt>
<pdfrwt beam="2">  1       -2 0.16500880E+00 0.87018087E+03</pdfrwt>
<totfact> 0.21965146E+00</totfact>
</mgrwt>
</event>
<event>
 4    1  0.1701380E-008  0.7787201E+03  0.7818608E-02  0.9591340E-01
          2   -1    0    0  501    0  0.00000000000E+00  0.00000000000E+00  0.31822024119E+04  0.31822024119E+04  0.25500000000E-02 0. -1.
         -2   -1    0    0    0  501 -0.00000000000E+00 -0.00000000000E+00 -0.28803211283E+03  0.28803211284E+03  0.25500000000E-02 0.  1.
    8880022    1    1    2    0    0  0.69061830899E+03 -0.32566802825E+03  0.24564436220E+04  0.25769206884E+04  0.15294330000E+03 0.  0.
    8880022    1    1    2    0    0 -0.69061830899E+03  0.32566802825E+03  0.43772667710E+03  0.89331383634E+03  0.15294330000E+03 0.  0.
<mgrwt>
<rscale>  0 0.77872008E+03</rscale>
<asrwt>0</asrwt>
<pdfrwt beam="1">  1        2 0.48956961E+00 0.77872008E+03</pdfrwt>
<pdfrwt beam="2">  1       -2 0.44312632E-01 0.77872008E+03</pdfrwt>
<totfact> 0.68518972E+00</totfact>
</mgrwt>
</event>
<event>
 4    1  0.1701380E-008  0.1784233E+04  0.7818608E-02  0.8714729E-01
         -2   -1    0    0    0  501 -0.00000000000E+00  0.00000000000E+00  0.29195810446E+04  0.29195810446E+04  0.25500000000E-02 0.  1.
          2   -1    0    0  501    0  0.00000000000E+00 -0.00000000000E+00 -0.15172419403E+04  0.15172419403E+04  0.25500000000E-02 0. -1.
    8880022    1    1    2    0    0  0.17673883395E+04 -0.19087865393E+03 -0.47549397544E+03  0.18465054500E+04  0.15294330000E+03 0.  0.
    8880022    1    1    2    0    0 -0.17673883395E+04  0.19087865393E+03  0.18778330798E+04  0.25903175349E+04  0.15294330000E+03 0.  0.
<mgrwt>
<rscale>  0 0.17842331E+04</rscale>
<asrwt>0</asrwt>
<pdfrwt beam="1">  1        2 0.23342184E+00 0.17842331E+04</pdfrwt>
<pdfrwt beam="2">  1       -2 0.44916631E+00 0.17842331E+04</pdfrwt>
<totfact> 0.39686833E-02</totfact>
</mgrwt>
</event>
<event>
 4    1  0.1701380E-008  0.1610504E+04  0.7818608E-02  0.8814121E-01
         -2   -1    0    0    0  501 -0.00000000000E+00  0.00000000000E+00  0.19657220757E+04  0.19657220757E+04  0.25500000000E-02 0.  1.
          2   -1    0    0  501    0  0.00000000000E+00 -0.00000000000E+00 -0.23055729164E+04  0.23055729164E+04  0.25500000000E-02 0. -1.
    8880022    1    1    2    0    0 -0.11130381498E+04 -0.11538961309E+04  0.12267647599E+04  0.20245181236E+04  0.15294330000E+03 0.  0.
    8880022    1    1    2    0    0  0.11130381498E+04  0.11538961309E+04 -0.15666156006E+04  0.22467768685E+04  0.15294330000E+03 0.  0.
<mgrwt>
<rscale>  0 0.16105036E+04</rscale>
<asrwt>0</asrwt>
<pdfrwt beam="1">  1        2 0.35470353E+00 0.16105036E+04</pdfrwt>
<pdfrwt beam="2">  1       -2 0.30241878E+00 0.16105036E+04</pdfrwt>
<totfact> 0.12790863E-01</totfact>
</mgrwt>
</event>
<event>
 4    1  0.1701380E-008  0.9575826E+03  0.7818608E-02  0.9356331E-01
          2   -1    0    0  501    0  0.00000000000E+00  0.00000000000E+00  0.14687133998E+04  0.14687133998E+04  0.25500000000E-02 0. -1.
         -2   -1    0    0    0  501 -0.00000000000E+00 -0.00000000000E+00 -0.79558279980E+03  0.79558279981E+03  0.25500000000E-02 0.  1.
    8880022    1    1    2    0    0  0.90803001654E+03 -0.26278170572E+03  0.86182875547E+03  0.12882985650E+04  0.15294330000E+03 0.  0.
    8880022    1    1    2    0    0 -0.90803001654E+03  0.26278170572E+03 -0.18869815550E+03  0.97599763458E+03  0.15294330000E+03 0.  1.
<mgrwt>
<rscale>  0 0.95758258E+03</rscale>
<asrwt>0</asrwt>
<pdfrwt beam="1">  1        2 0.22595591E+00 0.95758258E+03</pdfrwt>
<pdfrwt beam="2">  1       -2 0.12239735E+00 0.95758258E+03</pdfrwt>
<totfact> 0.66714903E+00</totfact>
</mgrwt>
</event>
<event>
 4    1  0.1701380E-008  0.1029439E+04  0.7818608E-02  0.9276833E-01
          2   -1    0    0  501    0  0.00000000000E+00  0.00000000000E+00  0.35719528000E+04  0.35719528000E+04  0.25500000000E-02 0. -1.
         -2   -1    0    0    0  501 -0.00000000000E+00 -0.00000000000E+00 -0.57456176754E+03  0.57456176754E+03  0.25500000000E-02 0.  1.
    8880022    1    1    2    0    0  0.10058808677E+04 -0.15670827751E+03  0.29405147571E+04  0.31155051747E+04  0.15294330000E+03 0.  0.
    8880022    1    1    2    0    0 -0.10058808677E+04  0.15670827751E+03  0.56876275406E+02  0.10310093928E+04  0.15294330000E+03 0.  0.
<mgrwt>
<rscale>  0 0.10294394E+04</rscale>
<asrwt>0</asrwt>
<pdfrwt beam="1">  1        2 0.54953119E+00 0.10294394E+04</pdfrwt>
<pdfrwt beam="2">  1       -2 0.88394120E-01 0.10294394E+04</pdfrwt>
<totfact> 0.82154793E-01</totfact>
</mgrwt>
</event>
<event>
 4    1  0.1701380E-008  0.1840158E+04  0.7818608E-02  0.8685231E-01
          2   -1    0    0  501    0  0.00000000000E+00  0.00000000000E+00  0.27337347215E+04  0.27337347215E+04  0.25500000000E-02 0. -1.
         -2   -1    0    0    0  501 -0.00000000000E+00 -0.00000000000E+00 -0.24341146701E+04  0.24341146701E+04  0.25500000000E-02 0.  1.
    8880022    1    1    2    0    0 -0.20732866581E+03  0.18220329847E+04 -0.16610088665E+04  0.24789375709E+04  0.15294330000E+03 0.  0.
    8880022    1    1    2    0    0  0.20732866581E+03 -0.18220329847E+04  0.19606289179E+04  0.26889118207E+04  0.15294330000E+03 0.  0.
<mgrwt>
<rscale>  0 0.18401579E+04</rscale>
<asrwt>0</asrwt>
<pdfrwt beam="1">  1        2 0.42057457E+00 0.18401579E+04</pdfrwt>
<pdfrwt beam="2">  1       -2 0.37447918E+00 0.18401579E+04</pdfrwt>
<totfact> 0.24747023E-02</totfact>
</mgrwt>
</event>
<event>
 4    1  0.1701380E-008  0.5738129E+03  0.7818608E-02  0.9961277E-01
          2   -1    0    0  501    0  0.00000000000E+00  0.00000000000E+00  0.28439309904E+04  0.28439309904E+04  0.25500000000E-02 0. -1.
         -2   -1    0    0    0  501 -0.00000000000E+00 -0.00000000000E+00 -0.14523930605E+03  0.14523930608E+03  0.25500000000E-02 0.  1.
    8880022    1    1    2    0    0  0.52624672849E+03  0.17009977904E+03  0.67619331552E+03  0.88684756697E+03  0.15294330000E+03 0.  0.
    8880022    1    1    2    0    0 -0.52624672849E+03 -0.17009977904E+03  0.20224983689E+04  0.21023227295E+04  0.15294330000E+03 0.  0.
<mgrwt>
<rscale>  0 0.57381287E+03</rscale>
<asrwt>0</asrwt>
<pdfrwt beam="1">  1        2 0.43752779E+00 0.57381287E+03</pdfrwt>
<pdfrwt beam="2">  1       -2 0.22344512E-01 0.57381287E+03</pdfrwt>
<totfact> 0.41296705E+01</totfact>
</mgrwt>
</event>
<event>
 4    1  0.1701380E-008  0.7906610E+03  0.7818608E-02  0.9573634E-01
         -2   -1    0    0    0  501 -0.00000000000E+00  0.00000000000E+00  0.22548088230E+04  0.22548088230E+04  0.25500000000E-02 0.  1.
          2   -1    0    0  501    0  0.00000000000E+00 -0.00000000000E+00 -0.13681786750E+04  0.13681786750E+04  0.25500000000E-02 0. -1.
    8880022    1    1    2    0    0  0.74541739518E+03  0.21472337922E+03 -0.11742571718E+04  0.14156358223E+04  0.15294330000E+03 0.  0.
    8880022    1    1    2    0    0 -0.74541739518E+03 -0.21472337922E+03  0.20608873198E+04  0.22073516757E+04  0.15294330000E+03 0.  0.
<mgrwt>
<rscale>  0 0.79066104E+03</rscale>
<asrwt>0</asrwt>
<pdfrwt beam="1">  1        2 0.21048903E+00 0.79066104E+03</pdfrwt>
<pdfrwt beam="2">  1       -2 0.34689367E+00 0.79066104E+03</pdfrwt>
<totfact> 0.25898115E-01</totfact>
</mgrwt>
</event>
<event>
 4    1  0.1701380E-008  0.8114694E+03  0.7818608E-02  0.9543562E-01
          2   -1    0    0  501    0  0.00000000000E+00  0.00000000000E+00  0.14067860974E+04  0.14067860975E+04  0.25500000000E-02 0. -1.
         -2   -1    0    0    0  501 -0.00000000000E+00 -0.00000000000E+00 -0.12231706234E+04  0.12231706234E+04  0.25500000000E-02 0.  1.
    8880022    1    1    2    0    0  0.40071359721E+03  0.68885379907E+03  0.11249873249E+04  0.13871117755E+04  0.15294330000E+03 0.  0.
    8880022    1    1    2    0    0 -0.40071359721E+03 -0.68885379907E+03 -0.94137185086E+03  0.12428449453E+04  0.15294330000E+03 0.  0.
<mgrwt>
<rscale>  0 0.81146941E+03</rscale>
<asrwt>0</asrwt>
<pdfrwt beam="1">  1        2 0.21642863E+00 0.81146941E+03</pdfrwt>
<pdfrwt beam="2">  1       -2 0.18818010E+00 0.81146941E+03</pdfrwt>
<totfact> 0.23293861E+00</totfact>
</mgrwt>
</event>
<event>
 4    1  0.1701380E-008  0.1368430E+04  0.7818608E-02  0.8976993E-01
         -2   -1    0    0    0  501 -0.00000000000E+00  0.00000000000E+00  0.15582837244E+04  0.15582837244E+04  0.25500000000E-02 0.  1.
          2   -1    0    0  501    0  0.00000000000E+00 -0.00000000000E+00 -0.22226458648E+04  0.22226458648E+04  0.25500000000E-02 0. -1.
    8880022    1    1    2    0    0 -0.67807811320E+03 -0.11787366511E+04 -0.16134289532E+04  0.21155979439E+04  0.15294330000E+03 0.  0.
    8880022    1    1    2    0    0  0.67807811320E+03  0.11787366511E+04  0.94906681284E+03  0.16653316452E+04  0.15294330000E+03 0.  0.
<mgrwt>
<rscale>  0 0.13684304E+04</rscale>
<asrwt>0</asrwt>
<pdfrwt beam="1">  1        2 0.34194552E+00 0.13684304E+04</pdfrwt>
<pdfrwt beam="2">  1       -2 0.23973596E+00 0.13684304E+04</pdfrwt>
<totfact> 0.35506102E-01</totfact>
</mgrwt>
</event>
<event>
 4    1  0.1701380E-008  0.1052203E+04  0.7818608E-02  0.9253073E-01
         -2   -1    0    0    0  501 -0.00000000000E+00  0.00000000000E+00  0.18821137396E+04  0.18821137396E+04  0.25500000000E-02 0.  1.
          2   -1    0    0  501    0  0.00000000000E+00 -0.00000000000E+00 -0.85867851308E+03  0.85867851309E+03  0.25500000000E-02 0. -1.
    8880022    1    1    2    0    0 -0.72541719324E+03  0.74666523116E+03 -0.25735392915E+03  0.10832182465E+04  0.15294330000E+03 0.  0.
    8880022    1    1    2    0    0  0.72541719324E+03 -0.74666523116E+03  0.12807891556E+04  0.16575740062E+04  0.15294330000E+03 0.  0.
<mgrwt>
<rscale>  0 0.10522028E+04</rscale>
<asrwt>0</asrwt>
<pdfrwt beam="1">  1        2 0.13210439E+00 0.10522028E+04</pdfrwt>
<pdfrwt beam="2">  1       -2 0.28955596E+00 0.10522028E+04</pdfrwt>
<totfact> 0.11477094E+00</totfact>
</mgrwt>
</event>
<event>
 4    1  0.1701380E-008  0.1130250E+04  0.7818608E-02  0.9176200E-01
         -2   -1    0    0    0  501 -0.00000000000E+00  0.00000000000E+00  0.67365430758E+03  0.67365430758E+03  0.25500000000E-02 0.  1.
          2   -1    0    0  501    0  0.00000000000E+00 -0.00000000000E+00 -0.31405044272E+04  0.31405044272E+04  0.25500000000E-02 0. -1.
    8880022    1    1    2    0    0 -0.81177849233E+03  0.77141969663E+03 -0.33065390684E+02  0.11307332320E+04  0.15294330000E+03 0.  0.
    8880022    1    1    2    0    0  0.81177849233E+03 -0.77141969663E+03 -0.24337847289E+04  0.26834255027E+04  0.15294330000E+03 0.  0.
<mgrwt>
<rscale>  0 0.11302497E+04</rscale>
<asrwt>0</asrwt>
<pdfrwt beam="1">  1        2 0.48315452E+00 0.11302497E+04</pdfrwt>
<pdfrwt beam="2">  1       -2 0.10363913E+00 0.11302497E+04</pdfrwt>
<totfact> 0.10775701E+00</totfact>
</mgrwt>
</event>
<event>
 4    1  0.1701380E-008  0.1860948E+04  0.7818608E-02  0.8674543E-01
          2   -1    0    0  501    0  0.00000000000E+00  0.00000000000E+00  0.34736090823E+04  0.34736090823E+04  0.25500000000E-02 0. -1.
         -2   -1    0    0    0  501 -0.00000000000E+00 -0.00000000000E+00 -0.14224985459E+04  0.14224985459E+04  0.25500000000E-02 0.  1.
    8880022    1    1    2    0    0 -0.18433529521E+04 -0.20441223588E+03  0.23644709044E+04  0.30089614120E+04  0.15294330000E+03 0.  0.
    8880022    1    1    2    0    0  0.18433529521E+04  0.20441223588E+03 -0.31336036797E+03  0.18871462162E+04  0.15294330000E+03 0.  0.
<mgrwt>
<rscale>  0 0.18609476E+04</rscale>
<asrwt>0</asrwt>
<pdfrwt beam="1">  1        2 0.53440140E+00 0.18609476E+04</pdfrwt>
<pdfrwt beam="2">  1       -2 0.21884593E+00 0.18609476E+04</pdfrwt>
<totfact> 0.77141176E-02</totfact>
</mgrwt>
</event>
<event>
 4    1  0.1701380E-008  0.5210714E+03  0.7818608E-02  0.1008421E+00
         -2   -1    0    0    0  501 -0.00000000000E+00  0.00000000000E+00  0.21253528063E+03  0.21253528064E+03  0.25500000000E-02 0.  1.
          2   -1    0    0  501    0  0.00000000000E+00 -0.00000000000E+00 -0.18989594375E+04  0.18989594375E+04  0.25500000000E-02 0. -1.
    8880022    1    1    2    0    0  0.20561457212E+03 -0.45370299236E+03 -0.14471689686E+04  0.15381200974E+04  0.15294330000E+03 0.  0.
    8880022    1    1    2    0    0 -0.20561457212E+03  0.45370299236E+03 -0.23925518834E+03  0.57337462074E+03  0.15294330000E+03 0.  0.
<mgrwt>
<rscale>  0 0.52107141E+03</rscale>
<asrwt>0</asrwt>
<pdfrwt beam="1">  1        2 0.29214759E+00 0.52107141E+03</pdfrwt>
<pdfrwt beam="2">  1       -2 0.32697737E-01 0.52107141E+03</pdfrwt>
<totfact> 0.70141266E+01</totfact>
</mgrwt>
</event>
<event>
 4    1  0.1701380E-008  0.6419690E+03  0.7818608E-02  0.9821966E-01
          2   -1    0    0  501    0  0.00000000000E+00  0.00000000000E+00  0.12174136153E+04  0.12174136153E+04  0.25500000000E-02 0. -1.
         -2   -1    0    0    0  501 -0.00000000000E+00 -0.00000000000E+00 -0.85040605799E+03  0.85040605799E+03  0.25500000000E-02 0.  1.
    8880022    1    1    2    0    0  0.53227649339E+03  0.32467574519E+03  0.98565133196E+03  0.11762792212E+04  0.15294330000E+03 0.  0.
    8880022    1    1    2    0    0 -0.53227649339E+03 -0.32467574519E+03 -0.61864377463E+03  0.89154045215E+03  0.15294330000E+03 0.  0.
<mgrwt>
<rscale>  0 0.64196905E+03</rscale>
<asrwt>0</asrwt>
<pdfrwt beam="1">  1        2 0.18729440E+00 0.64196905E+03</pdfrwt>
<pdfrwt beam="2">  1       -2 0.13083170E+00 0.64196905E+03</pdfrwt>
<totfact> 0.81892990E+00</totfact>
</mgrwt>
</event>
<event>
 4    1  0.1701380E-008  0.7265514E+03  0.7818608E-02  0.9672873E-01
          2   -1    0    0  501    0  0.00000000000E+00  0.00000000000E+00  0.98305295365E+03  0.98305295365E+03  0.25500000000E-02 0. -1.
         -2   -1    0    0    0  501 -0.00000000000E+00 -0.00000000000E+00 -0.70195197499E+03  0.70195197499E+03  0.25500000000E-02 0.  1.
    8880022    1    1    2    0    0  0.65069203124E+03  0.28475465012E+03  0.54898864323E+03  0.91064016697E+03  0.15294330000E+03 0.  0.
    8880022    1    1    2    0    0 -0.65069203124E+03 -0.28475465012E+03 -0.26788766457E+03  0.77436476168E+03  0.15294330000E+03 0.  0.
<mgrwt>
<rscale>  0 0.72655143E+03</rscale>
<asrwt>0</asrwt>
<pdfrwt beam="1">  1        2 0.15123892E+00 0.72655143E+03</pdfrwt>
<pdfrwt beam="2">  1       -2 0.10799261E+00 0.72655143E+03</pdfrwt>
<totfact> 0.18082694E+01</totfact>
</mgrwt>
</event>
<event>
 4    1  0.1701380E-008  0.1295845E+04  0.7818608E-02  0.9032867E-01
         -2   -1    0    0    0  501 -0.00000000000E+00  0.00000000000E+00  0.96324969685E+03  0.96324969685E+03  0.25500000000E-02 0.  1.
          2   -1    0    0  501    0  0.00000000000E+00 -0.00000000000E+00 -0.18420863584E+04  0.18420863584E+04  0.25500000000E-02 0. -1.
    8880022    1    1    2    0    0  0.95083736203E+03 -0.86702401448E+03 -0.11456132869E+03  0.13008990283E+04  0.15294330000E+03 0.  0.
    8880022    1    1    2    0    0 -0.95083736203E+03  0.86702401448E+03 -0.76427533286E+03  0.15044370270E+04  0.15294330000E+03 0.  0.
<mgrwt>
<rscale>  0 0.12958449E+04</rscale>
<asrwt>0</asrwt>
<pdfrwt beam="1">  1        2 0.28339790E+00 0.12958449E+04</pdfrwt>
<pdfrwt beam="2">  1       -2 0.14819226E+00 0.12958449E+04</pdfrwt>
<totfact> 0.24367439E+00</totfact>
</mgrwt>
</event>
<event>
 4    1  0.1701380E-008  0.5987210E+03  0.7818608E-02  0.9908063E-01
          2   -1    0    0  501    0  0.00000000000E+00  0.00000000000E+00  0.41235236070E+04  0.41235236070E+04  0.25500000000E-02 0. -1.
         -2   -1    0    0    0  501 -0.00000000000E+00 -0.00000000000E+00 -0.41570601479E+03  0.41570601479E+03  0.25500000000E-02 0.  1.
    8880022    1    1    2    0    0  0.90044063389E+02  0.57181047956E+03  0.38723106670E+04  0.39183232016E+04  0.15294330000E+03 0.  0.
    8880022    1    1    2    0    0 -0.90044063389E+02 -0.57181047956E+03 -0.16449307479E+03  0.62090642013E+03  0.15294330000E+03 0.  0.
<mgrwt>
<rscale>  0 0.59872098E+03</rscale>
<asrwt>0</asrwt>
<pdfrwt beam="1">  1        2 0.63438824E+00 0.59872098E+03</pdfrwt>
<pdfrwt beam="2">  1       -2 0.63954772E-01 0.59872098E+03</pdfrwt>
<totfact> 0.71570053E-01</totfact>
</mgrwt>
</event>
<event>
 4    1  0.1701380E-008  0.6049088E+03  0.7818608E-02  0.9895274E-01
         -2   -1    0    0    0  501 -0.00000000000E+00  0.00000000000E+00  0.39946971641E+03  0.39946971642E+03  0.25500000000E-02 0.  1.
          2   -1    0    0  501    0  0.00000000000E+00 -0.00000000000E+00 -0.16300699625E+04  0.16300699625E+04  0.25500000000E-02 0. -1.
    8880022    1    1    2    0    0  0.19096544135E+03 -0.55322258722E+03 -0.12869369303E+04  0.14220131316E+04  0.15294330000E+03 0.  0.
    8880022    1    1    2    0    0 -0.19096544135E+03  0.55322258722E+03  0.56336684143E+02  0.60752654740E+03  0.15294330000E+03 0.  0.
<mgrwt>
<rscale>  0 0.60490882E+03</rscale>
<asrwt>0</asrwt>
<pdfrwt beam="1">  1        2 0.25077999E+00 0.60490882E+03</pdfrwt>
<pdfrwt beam="2">  1       -2 0.61456880E-01 0.60490882E+03</pdfrwt>
<totfact> 0.27620997E+01</totfact>
</mgrwt>
</event>
<event>
 4    1  0.1701380E-008  0.7176128E+03  0.7818608E-02  0.9687577E-01
         -2   -1    0    0    0  501 -0.00000000000E+00  0.00000000000E+00  0.61767445028E+03  0.61767445028E+03  0.25500000000E-02 0.  1.
          2   -1    0    0  501    0  0.00000000000E+00 -0.00000000000E+00 -0.95608516522E+03  0.95608516523E+03  0.25500000000E-02 0. -1.
    8880022    1    1    2    0    0 -0.61173050391E+03  0.34258168954E+03  0.11230052735E+03  0.72634666991E+03  0.15294330000E+03 0.  0.
    8880022    1    1    2    0    0  0.61173050391E+03 -0.34258168954E+03 -0.45071124230E+03  0.84741294560E+03  0.15294330000E+03 0.  0.
<mgrwt>
<rscale>  0 0.71761276E+03</rscale>
<asrwt>0</asrwt>
<pdfrwt beam="1">  1        2 0.14709003E+00 0.71761276E+03</pdfrwt>
<pdfrwt beam="2">  1       -2 0.95026838E-01 0.71761276E+03</pdfrwt>
<totfact> 0.25533781E+01</totfact>
</mgrwt>
</event>
<event>
 4    1  0.1701380E-008  0.1252220E+04  0.7818608E-02  0.9068338E-01
          2   -1    0    0  501    0  0.00000000000E+00  0.00000000000E+00  0.19116713185E+04  0.19116713185E+04  0.25500000000E-02 0. -1.
         -2   -1    0    0    0  501 -0.00000000000E+00 -0.00000000000E+00 -0.11789150897E+04  0.11789150897E+04  0.25500000000E-02 0.  1.
    8880022    1    1    2    0    0  0.12146107338E+04 -0.26340673515E+03 -0.48596098717E+03  0.13432096176E+04  0.15294330000E+03 0.  0.
    8880022    1    1    2    0    0 -0.12146107338E+04  0.26340673515E+03  0.12187172160E+04  0.17473767906E+04  0.15294330000E+03 0.  0.
<mgrwt>
<rscale>  0 0.12522196E+04</rscale>
<asrwt>0</asrwt>
<pdfrwt beam="1">  1        2 0.29410327E+00 0.12522196E+04</pdfrwt>
<pdfrwt beam="2">  1       -2 0.18137156E+00 0.12522196E+04</pdfrwt>
<totfact> 0.12812469E+00</totfact>
</mgrwt>
</event>
<event>
 4    1  0.1701380E-008  0.1247614E+04  0.7818608E-02  0.9072171E-01
          2   -1    0    0  501    0  0.00000000000E+00  0.00000000000E+00  0.38133381534E+04  0.38133381534E+04  0.25500000000E-02 0. -1.
         -2   -1    0    0    0  501 -0.00000000000E+00 -0.00000000000E+00 -0.13202272113E+04  0.13202272113E+04  0.25500000000E-02 0.  1.
    8880022    1    1    2    0    0  0.10524042644E+04 -0.65237633110E+03 -0.88684612263E+03  0.15306983084E+04  0.15294330000E+03 0.  0.
    8880022    1    1    2    0    0 -0.10524042644E+04  0.65237633110E+03  0.33799570647E+04  0.36028670563E+04  0.15294330000E+03 0.  0.
<mgrwt>
<rscale>  0 0.12476142E+04</rscale>
<asrwt>0</asrwt>
<pdfrwt beam="1">  1        2 0.58666741E+00 0.12476142E+04</pdfrwt>
<pdfrwt beam="2">  1       -2 0.20311188E+00 0.12476142E+04</pdfrwt>
<totfact> 0.60383137E-02</totfact>
</mgrwt>
</event>
<event>
 4    1  0.1701380E-008  0.9856564E+03  0.7818608E-02  0.9324418E-01
         -2   -1    0    0    0  501 -0.00000000000E+00  0.00000000000E+00  0.55304164904E+03  0.55304164904E+03  0.25500000000E-02 0.  1.
          2   -1    0    0  501    0  0.00000000000E+00 -0.00000000000E+00 -0.21852898217E+04  0.21852898217E+04  0.25500000000E-02 0. -1.
    8880022    1    1    2    0    0  0.19956777766E+03  0.95304756355E+03 -0.20976306951E+03  0.10077297031E+04  0.15294330000E+03 0.  0.
    8880022    1    1    2    0    0 -0.19956777766E+03 -0.95304756355E+03 -0.14224851031E+04  0.17306017676E+04  0.15294330000E+03 0.  0.
<mgrwt>
<rscale>  0 0.98565644E+03</rscale>
<asrwt>0</asrwt>
<pdfrwt beam="1">  1        2 0.33619843E+00 0.98565644E+03</pdfrwt>
<pdfrwt beam="2">  1       -2 0.85083331E-01 0.98565644E+03</pdfrwt>
<totfact> 0.63665530E+00</totfact>
</mgrwt>
</event>
<event>
 4    1  0.1701380E-008  0.7869492E+03  0.7818608E-02  0.9579102E-01
         -2   -1    0    0    0  501 -0.00000000000E+00  0.00000000000E+00  0.31778232667E+03  0.31778232668E+03  0.25500000000E-02 0.  1.
          2   -1    0    0  501    0  0.00000000000E+00 -0.00000000000E+00 -0.29850544479E+04  0.29850544480E+04  0.25500000000E-02 0. -1.
    8880022    1    1    2    0    0  0.16025815294E+03 -0.75512562537E+03 -0.23066467096E+04  0.24371926640E+04  0.15294330000E+03 0.  0.
    8880022    1    1    2    0    0 -0.16025815294E+03  0.75512562537E+03 -0.36062541171E+03  0.86564411063E+03  0.15294330000E+03 0.  0.
<mgrwt>
<rscale>  0 0.78694920E+03</rscale>
<asrwt>0</asrwt>
<pdfrwt beam="1">  1        2 0.45923913E+00 0.78694920E+03</pdfrwt>
<pdfrwt beam="2">  1       -2 0.48889591E-01 0.78694920E+03</pdfrwt>
<totfact> 0.74502048E+00</totfact>
</mgrwt>
</event>
<event>
 4    1  0.1701380E-008  0.6369042E+03  0.7818608E-02  0.9831668E-01
         -2   -1    0    0    0  501 -0.00000000000E+00  0.00000000000E+00  0.36820256519E+03  0.36820256520E+03  0.25500000000E-02 0.  1.
          2   -1    0    0  501    0  0.00000000000E+00 -0.00000000000E+00 -0.21490267657E+04  0.21490267658E+04  0.25500000000E-02 0. -1.
    8880022    1    1    2    0    0 -0.42924396380E+03  0.44497748602E+03 -0.11766025320E+02  0.63701290088E+03  0.15294330000E+03 0.  0.
    8880022    1    1    2    0    0  0.42924396380E+03 -0.44497748602E+03 -0.17690581752E+04  0.18802164301E+04  0.15294330000E+03 0.  0.
<mgrwt>
<rscale>  0 0.63690423E+03</rscale>
<asrwt>0</asrwt>
<pdfrwt beam="1">  1        2 0.33061949E+00 0.63690423E+03</pdfrwt>
<pdfrwt beam="2">  1       -2 0.56646550E-01 0.63690423E+03</pdfrwt>
<totfact> 0.17040672E+01</totfact>
</mgrwt>
</event>
<event>
 4    1  0.1701380E-008  0.5100107E+03  0.7818608E-02  0.1011199E+00
          2   -1    0    0  501    0  0.00000000000E+00  0.00000000000E+00  0.28649368725E+04  0.28649368725E+04  0.25500000000E-02 0. -1.
         -2   -1    0    0    0  501 -0.00000000000E+00 -0.00000000000E+00 -0.10014229312E+04  0.10014229312E+04  0.25500000000E-02 0.  1.
    8880022    1    1    2    0    0  0.15215032459E+03 -0.46213582983E+03 -0.91170807879E+03  0.10446638313E+04  0.15294330000E+03 0.  0.
    8880022    1    1    2    0    0 -0.15215032459E+03  0.46213582983E+03  0.27752220201E+04  0.28216959723E+04  0.15294330000E+03 0.  0.
<mgrwt>
<rscale>  0 0.51001069E+03</rscale>
<asrwt>0</asrwt>
<pdfrwt beam="1">  1        2 0.44075951E+00 0.51001069E+03</pdfrwt>
<pdfrwt beam="2">  1       -2 0.15406507E+00 0.51001069E+03</pdfrwt>
<totfact> 0.67176438E-01</totfact>
</mgrwt>
</event>
<event>
 4    1  0.1701380E-008  0.8512395E+03  0.7818608E-02  0.9488675E-01
         -2   -1    0    0    0  501 -0.00000000000E+00  0.00000000000E+00  0.10040475561E+04  0.10040475561E+04  0.25500000000E-02 0.  1.
          2   -1    0    0  501    0  0.00000000000E+00 -0.00000000000E+00 -0.92090949696E+03  0.92090949696E+03  0.25500000000E-02 0. -1.
    8880022    1    1    2    0    0 -0.78052834570E+03  0.30330267781E+03  0.48923194040E+03  0.98181289324E+03  0.15294330000E+03 0.  0.
    8880022    1    1    2    0    0  0.78052834570E+03 -0.30330267781E+03 -0.40609388126E+03  0.94314415983E+03  0.15294330000E+03 0. -1.
<mgrwt>
<rscale>  0 0.85123949E+03</rscale>
<asrwt>0</asrwt>
<pdfrwt beam="1">  1        2 0.14167838E+00 0.85123949E+03</pdfrwt>
<pdfrwt beam="2">  1       -2 0.15446886E+00 0.85123949E+03</pdfrwt>
<totfact> 0.79122235E+00</totfact>
</mgrwt>
</event>
<event>
 4    1  0.1701380E-008  0.1235874E+04  0.7818608E-02  0.9082023E-01
         -2   -1    0    0    0  501 -0.00000000000E+00  0.00000000000E+00  0.63539843283E+03  0.63539843283E+03  0.25500000000E-02 0.  1.
          2   -1    0    0  501    0  0.00000000000E+00 -0.00000000000E+00 -0.24104432728E+04  0.24104432728E+04  0.25500000000E-02 0. -1.
    8880022    1    1    2    0    0 -0.10854303377E+04 -0.57081795439E+03 -0.80769588555E+03  0.14763998278E+04  0.15294330000E+03 0.  0.
    8880022    1    1    2    0    0  0.10854303377E+04  0.57081795439E+03 -0.96734895437E+03  0.15694418777E+04  0.15294330000E+03 0.  0.
<mgrwt>
<rscale>  0 0.12358737E+04</rscale>
<asrwt>0</asrwt>
<pdfrwt beam="1">  1        2 0.37083742E+00 0.12358737E+04</pdfrwt>
<pdfrwt beam="2">  1       -2 0.97753606E-01 0.12358737E+04</pdfrwt>
<totfact> 0.33448470E+00</totfact>
</mgrwt>
</event>
<event>
 4    1  0.1701380E-008  0.5204636E+03  0.7818608E-02  0.1008571E+00
         -2   -1    0    0    0  501 -0.00000000000E+00  0.00000000000E+00  0.28044032748E+03  0.28044032750E+03  0.25500000000E-02 0.  1.
          2   -1    0    0  501    0  0.00000000000E+00 -0.00000000000E+00 -0.23049726585E+04  0.23049726585E+04  0.25500000000E-02 0. -1.
    8880022    1    1    2    0    0 -0.26770166606E+03  0.41931671418E+03 -0.19975609958E+04  0.20642510201E+04  0.15294330000E+03 0.  0.
    8880022    1    1    2    0    0  0.26770166606E+03 -0.41931671418E+03 -0.26971335198E+02  0.52116196593E+03  0.15294330000E+03 0.  0.
<mgrwt>
<rscale>  0 0.52046358E+03</rscale>
<asrwt>0</asrwt>
<pdfrwt beam="1">  1        2 0.35461117E+00 0.52046358E+03</pdfrwt>
<pdfrwt beam="2">  1       -2 0.43144667E-01 0.52046358E+03</pdfrwt>
<totfact> 0.24830704E+01</totfact>
</mgrwt>
</event>
<event>
 4    1  0.1701380E-008  0.4209559E+03  0.7818608E-02  0.1036756E+00
         -2   -1    0    0    0  501 -0.00000000000E+00  0.00000000000E+00  0.18942702373E+04  0.18942702373E+04  0.25500000000E-02 0.  1.
          2   -1    0    0  501    0  0.00000000000E+00 -0.00000000000E+00 -0.21876569819E+04  0.21876569819E+04  0.25500000000E-02 0. -1.
    8880022    1    1    2    0    0  0.20292285745E+03  0.33561069608E+03  0.18501562456E+04  0.18974409112E+04  0.15294330000E+03 0.  0.
    8880022    1    1    2    0    0 -0.20292285745E+03 -0.33561069608E+03 -0.21435429902E+04  0.21844863079E+04  0.15294330000E+03 0.  0.
<mgrwt>
<rscale>  0 0.42095591E+03</rscale>
<asrwt>0</asrwt>
<pdfrwt beam="1">  1        2 0.33656261E+00 0.42095591E+03</pdfrwt>
<pdfrwt beam="2">  1       -2 0.29142619E+00 0.42095591E+03</pdfrwt>
<totfact> 0.22571983E-01</totfact>
</mgrwt>
</event>
<event>
 4    1  0.1701380E-008  0.1878301E+04  0.7818608E-02  0.8665733E-01
         -2   -1    0    0    0  501 -0.00000000000E+00  0.00000000000E+00  0.11811705516E+04  0.11811705516E+04  0.25500000000E-02 0.  1.
          2   -1    0    0  501    0  0.00000000000E+00 -0.00000000000E+00 -0.49177680455E+04  0.49177680455E+04  0.25500000000E-02 0. -1.
    8880022    1    1    2    0    0 -0.49875465511E+03  0.18044022547E+04  0.42516636980E+02  0.18787823238E+04  0.15294330000E+03 0.  0.
    8880022    1    1    2    0    0  0.49875465511E+03 -0.18044022547E+04 -0.37791141309E+04  0.42201562732E+04  0.15294330000E+03 0.  0.
<mgrwt>
<rscale>  0 0.18783012E+04</rscale>
<asrwt>0</asrwt>
<pdfrwt beam="1">  1        2 0.75657969E+00 0.18783012E+04</pdfrwt>
<pdfrwt beam="2">  1       -2 0.18171855E+00 0.18783012E+04</pdfrwt>
<totfact> 0.70620115E-03</totfact>
</mgrwt>
</event>
<event>
 4    1  0.1701380E-008  0.9592072E+03  0.7818608E-02  0.9354453E-01
          2   -1    0    0  501    0  0.00000000000E+00  0.00000000000E+00  0.13077833250E+04  0.13077833250E+04  0.25500000000E-02 0. -1.
         -2   -1    0    0    0  501 -0.00000000000E+00 -0.00000000000E+00 -0.96871033993E+03  0.96871033993E+03  0.25500000000E-02 0.  1.
    8880022    1    1    2    0    0  0.94460498502E+03 -0.66394151397E+02  0.76506371880E+03  0.12269478016E+04  0.15294330000E+03 0.  0.
    8880022    1    1    2    0    0 -0.94460498502E+03  0.66394151397E+02 -0.42599073369E+03  0.10495458633E+04  0.15294330000E+03 0.  0.
<mgrwt>
<rscale>  0 0.95920718E+03</rscale>
<asrwt>0</asrwt>
<pdfrwt beam="1">  1        2 0.20119743E+00 0.95920718E+03</pdfrwt>
<pdfrwt beam="2">  1       -2 0.14903236E+00 0.95920718E+03</pdfrwt>
<totfact> 0.49673902E+00</totfact>
</mgrwt>
</event>
<event>
 4    1  0.1701380E-008  0.6696399E+03  0.7818608E-02  0.9770608E-01
          2   -1    0    0  501    0  0.00000000000E+00  0.00000000000E+00  0.10648327401E+04  0.10648327401E+04  0.25500000000E-02 0. -1.
         -2   -1    0    0    0  501 -0.00000000000E+00 -0.00000000000E+00 -0.25184208523E+04  0.25184208523E+04  0.25500000000E-02 0.  1.
    8880022    1    1    2    0    0 -0.34942929125E+03 -0.55038637726E+03  0.90819263289E+03  0.11283756047E+04  0.15294330000E+03 0.  0.
    8880022    1    1    2    0    0  0.34942929125E+03  0.55038637726E+03 -0.23617807451E+04  0.24548779877E+04  0.15294330000E+03 0.  0.
<mgrwt>
<rscale>  0 0.66963994E+03</rscale>
<asrwt>0</asrwt>
<pdfrwt beam="1">  1        2 0.16382042E+00 0.66963994E+03</pdfrwt>
<pdfrwt beam="2">  1       -2 0.38744936E+00 0.66963994E+03</pdfrwt>
<totfact> 0.22361910E-01</totfact>
</mgrwt>
</event>
<event>
 4    1  0.1701380E-008  0.4683652E+03  0.7818608E-02  0.1022383E+00
          2   -1    0    0  501    0  0.00000000000E+00  0.00000000000E+00  0.14685310902E+04  0.14685310902E+04  0.25500000000E-02 0. -1.
         -2   -1    0    0    0  501 -0.00000000000E+00 -0.00000000000E+00 -0.28983036568E+03  0.28983036569E+03  0.25500000000E-02 0.  1.
    8880022    1    1    2    0    0 -0.15490460392E+03  0.41470331395E+03 -0.22677328672E+02  0.46891383981E+03  0.15294330000E+03 0.  0.
    8880022    1    1    2    0    0  0.15490460392E+03 -0.41470331395E+03  0.12013780532E+04  0.12894476161E+04  0.15294330000E+03 0.  0.
<mgrwt>
<rscale>  0 0.46836517E+03</rscale>
<asrwt>0</asrwt>
<pdfrwt beam="1">  1        2 0.22592786E+00 0.46836517E+03</pdfrwt>
<pdfrwt beam="2">  1       -2 0.44589287E-01 0.46836517E+03</pdfrwt>
<totfact> 0.66640368E+01</totfact>
</mgrwt>
</event>
<event>
 4    1  0.1701380E-008  0.5769290E+03  0.7818608E-02  0.9954462E-01
          2   -1    0    0  501    0  0.00000000000E+00  0.00000000000E+00  0.22102592517E+04  0.22102592517E+04  0.25500000000E-02 0. -1.
         -2   -1    0    0    0  501 -0.00000000000E+00 -0.00000000000E+00 -0.74053055599E+03  0.74053055600E+03  0.25500000000E-02 0.  1.
    8880022    1    1    2    0    0 -0.27259120215E+03 -0.48492207248E+03  0.20517262474E+04  0.21312971701E+04  0.15294330000E+03 0.  0.
    8880022    1    1    2    0    0  0.27259120215E+03  0.48492207248E+03 -0.58199755172E+03  0.81949263760E+03  0.15294330000E+03 0.  0.
<mgrwt>
<rscale>  0 0.57692897E+03</rscale>
<asrwt>0</asrwt>
<pdfrwt beam="1">  1        2 0.34003988E+00 0.57692897E+03</pdfrwt>
<pdfrwt beam="2">  1       -2 0.11392778E+00 0.57692897E+03</pdfrwt>
<totfact> 0.33197548E+00</totfact>
</mgrwt>
</event>
<event>
 4    1  0.1701380E-008  0.4711438E+03  0.7818608E-02  0.1021598E+00
         -2   -1    0    0    0  501 -0.00000000000E+00  0.00000000000E+00  0.86758509490E+02  0.86758509528E+02  0.25500000000E-02 0.  1.
          2   -1    0    0  501    0  0.00000000000E+00 -0.00000000000E+00 -0.39498422744E+04  0.39498422745E+04  0.25500000000E-02 0. -1.
    8880022    1    1    2    0    0 -0.25384053360E+02  0.44490504510E+03 -0.31293966975E+04  0.31646643096E+04  0.15294330000E+03 0.  0.
    8880022    1    1    2    0    0  0.25384053360E+02 -0.44490504510E+03 -0.73368706747E+03  0.87193647435E+03  0.15294330000E+03 0.  0.
<mgrwt>
<rscale>  0 0.47114382E+03</rscale>
<asrwt>0</asrwt>
<pdfrwt beam="1">  1        2 0.60766790E+00 0.47114382E+03</pdfrwt>
<pdfrwt beam="2">  1       -2 0.13347466E-01 0.47114382E+03</pdfrwt>
<totfact> 0.18786868E+01</totfact>
</mgrwt>
</event>
<event>
 4    1  0.1701380E-008  0.1128580E+04  0.7818608E-02  0.9177775E-01
         -2   -1    0    0    0  501 -0.00000000000E+00  0.00000000000E+00  0.11423476937E+04  0.11423476937E+04  0.25500000000E-02 0.  1.
          2   -1    0    0  501    0  0.00000000000E+00 -0.00000000000E+00 -0.31079171647E+04  0.31079171647E+04  0.25500000000E-02 0. -1.
    8880022    1    1    2    0    0  0.86115749741E+03 -0.71323906522E+03 -0.26845442112E+04  0.29121249071E+04  0.15294330000E+03 0.  0.
    8880022    1    1    2    0    0 -0.86115749741E+03  0.71323906522E+03  0.71897474009E+03  0.13381399514E+04  0.15294330000E+03 0.  0.
<mgrwt>
<rscale>  0 0.11285805E+04</rscale>
<asrwt>0</asrwt>
<pdfrwt beam="1">  1        2 0.47814110E+00 0.11285805E+04</pdfrwt>
<pdfrwt beam="2">  1       -2 0.17574580E+00 0.11285805E+04</pdfrwt>
<totfact> 0.28776476E-01</totfact>
</mgrwt>
</event>
<event>
 4    1  0.1701380E-008  0.1284552E+04  0.7818608E-02  0.9041906E-01
          2   -1    0    0  501    0  0.00000000000E+00  0.00000000000E+00  0.14224297015E+04  0.14224297015E+04  0.25500000000E-02 0. -1.
         -2   -1    0    0    0  501 -0.00000000000E+00 -0.00000000000E+00 -0.15633645446E+04  0.15633645446E+04  0.25500000000E-02 0.  1.
    8880022    1    1    2    0    0 -0.82897340774E+02  0.12727171818E+04  0.68780995936E+03  0.14571050708E+04  0.15294330000E+03 0.  0.
    8880022    1    1    2    0    0  0.82897340774E+02 -0.12727171818E+04 -0.82874480251E+03  0.15286891753E+04  0.15294330000E+03 0.  0.
<mgrwt>
<rscale>  0 0.12845515E+04</rscale>
<asrwt>0</asrwt>
<pdfrwt beam="1">  1        2 0.21883534E+00 0.12845515E+04</pdfrwt>
<pdfrwt beam="2">  1       -2 0.24051762E+00 0.12845515E+04</pdfrwt>
<totfact> 0.99378661E-01</totfact>
</mgrwt>
</event>
<event>
 4    1  0.1701380E-008  0.1368679E+04  0.7818608E-02  0.8976808E-01
          2   -1    0    0  501    0  0.00000000000E+00  0.00000000000E+00  0.31829182377E+04  0.31829182377E+04  0.25500000000E-02 0. -1.
         -2   -1    0    0    0  501 -0.00000000000E+00 -0.00000000000E+00 -0.81194095783E+03  0.81194095784E+03  0.25500000000E-02 0.  1.
    8880022    1    1    2    0    0 -0.12031375578E+04  0.63431034345E+03  0.22332195866E+04  0.26192653492E+04  0.15294330000E+03 0.  0.
    8880022    1    1    2    0    0  0.12031375578E+04 -0.63431034345E+03  0.13775769329E+03  0.13755938463E+04  0.15294330000E+03 0.  0.
<mgrwt>
<rscale>  0 0.13686787E+04</rscale>
<asrwt>0</asrwt>
<pdfrwt beam="1">  1        2 0.48967972E+00 0.13686787E+04</pdfrwt>
<pdfrwt beam="2">  1       -2 0.12491400E+00 0.13686787E+04</pdfrwt>
<totfact> 0.61891466E-01</totfact>
</mgrwt>
</event>
<event>
 4    1  0.1701380E-008  0.3344484E+03  0.7818608E-02  0.1069185E+00
          2   -1    0    0  501    0  0.00000000000E+00  0.00000000000E+00  0.80953340145E+03  0.80953340146E+03  0.25500000000E-02 0. -1.
         -2   -1    0    0    0  501 -0.00000000000E+00 -0.00000000000E+00 -0.44432822357E+03  0.44432822358E+03  0.25500000000E-02 0.  1.
    8880022    1    1    2    0    0  0.24300015762E+03 -0.17150805702E+03  0.70300395479E+03  0.77850517255E+03  0.15294330000E+03 0. -1.
    8880022    1    1    2    0    0 -0.24300015762E+03  0.17150805702E+03 -0.33779877691E+03  0.47535645249E+03  0.15294330000E+03 0.  0.
<mgrwt>
<rscale>  0 0.33444842E+03</rscale>
<asrwt>0</asrwt>
<pdfrwt beam="1">  1        2 0.12454360E+00 0.33444842E+03</pdfrwt>
<pdfrwt beam="2">  1       -2 0.68358188E-01 0.33444842E+03</pdfrwt>
<totfact> 0.70297227E+01</totfact>
</mgrwt>
</event>
<event>
 4    1  0.1701380E-008  0.7342556E+03  0.7818608E-02  0.9660380E-01
         -2   -1    0    0    0  501 -0.00000000000E+00  0.00000000000E+00  0.13385864570E+04  0.13385864570E+04  0.25500000000E-02 0.  1.
          2   -1    0    0  501    0  0.00000000000E+00 -0.00000000000E+00 -0.78229447536E+03  0.78229447537E+03  0.25500000000E-02 0. -1.
    8880022    1    1    2    0    0  0.56727135194E+03  0.44038944460E+03  0.10167740926E+04  0.12541773630E+04  0.15294330000E+03 0.  0.
    8880022    1    1    2    0    0 -0.56727135194E+03 -0.44038944460E+03 -0.46048211091E+03  0.86670356935E+03  0.15294330000E+03 0.  0.
<mgrwt>
<rscale>  0 0.73425561E+03</rscale>
<asrwt>0</asrwt>
<pdfrwt beam="1">  1        2 0.12035300E+00 0.73425561E+03</pdfrwt>
<pdfrwt beam="2">  1       -2 0.20593638E+00 0.73425561E+03</pdfrwt>
<totfact> 0.44239885E+00</totfact>
</mgrwt>
</event>
<event>
 4    1  0.1701380E-008  0.8895198E+03  0.7818608E-02  0.9438778E-01
          2   -1    0    0  501    0  0.00000000000E+00  0.00000000000E+00  0.24565402713E+04  0.24565402713E+04  0.25500000000E-02 0. -1.
         -2   -1    0    0    0  501 -0.00000000000E+00 -0.00000000000E+00 -0.33248460278E+03  0.33248460278E+03  0.25500000000E-02 0.  1.
    8880022    1    1    2    0    0  0.69709016942E+03  0.53096063646E+03  0.13085086945E+04  0.15822264561E+04  0.15294330000E+03 0.  0.
    8880022    1    1    2    0    0 -0.69709016942E+03 -0.53096063646E+03  0.81554697397E+03  0.12067984179E+04  0.15294330000E+03 0.  0.
<mgrwt>
<rscale>  0 0.88951985E+03</rscale>
<asrwt>0</asrwt>
<pdfrwt beam="1">  1        2 0.37792928E+00 0.88951985E+03</pdfrwt>
<pdfrwt beam="2">  1       -2 0.51151476E-01 0.88951985E+03</pdfrwt>
<totfact> 0.13660051E+01</totfact>
</mgrwt>
</event>
<event>
 4    1  0.1701380E-008  0.5190701E+03  0.7818608E-02  0.1008918E+00
         -2   -1    0    0    0  501 -0.00000000000E+00  0.00000000000E+00  0.68431137867E+03  0.68431137868E+03  0.25500000000E-02 0.  1.
          2   -1    0    0  501    0  0.00000000000E+00 -0.00000000000E+00 -0.15182735082E+04  0.15182735082E+04  0.25500000000E-02 0. -1.
    8880022    1    1    2    0    0  0.13184377699E+02 -0.49585109038E+03  0.53081700854E+03  0.74242877181E+03  0.15294330000E+03 0.  0.
    8880022    1    1    2    0    0 -0.13184377699E+02  0.49585109038E+03 -0.13647791380E+04  0.14601561150E+04  0.15294330000E+03 0.  0.
<mgrwt>
<rscale>  0 0.51907012E+03</rscale>
<asrwt>0</asrwt>
<pdfrwt beam="1">  1        2 0.23358054E+00 0.51907012E+03</pdfrwt>
<pdfrwt beam="2">  1       -2 0.10527867E+00 0.51907012E+03</pdfrwt>
<totfact> 0.96441973E+00</totfact>
</mgrwt>
</event>
<event>
 4    1  0.1701380E-008  0.1379078E+04  0.7818608E-02  0.8969104E-01
          2   -1    0    0  501    0  0.00000000000E+00  0.00000000000E+00  0.97735621823E+03  0.97735621823E+03  0.25500000000E-02 0. -1.
         -2   -1    0    0    0  501 -0.00000000000E+00 -0.00000000000E+00 -0.26442667783E+04  0.26442667783E+04  0.25500000000E-02 0.  1.
    8880022    1    1    2    0    0 -0.55457175083E+03  0.12533608411E+04  0.97131449817E+02  0.13824939046E+04  0.15294330000E+03 0.  0.
    8880022    1    1    2    0    0  0.55457175083E+03 -0.12533608411E+04 -0.17640420099E+04  0.22391290920E+04  0.15294330000E+03 0.  0.
<mgrwt>
<rscale>  0 0.13790775E+04</rscale>
<asrwt>0</asrwt>
<pdfrwt beam="1">  1        2 0.15036250E+00 0.13790775E+04</pdfrwt>
<pdfrwt beam="2">  1       -2 0.40681027E+00 0.13790775E+04</pdfrwt>
<totfact> 0.16813649E-01</totfact>
</mgrwt>
</event>
<event>
 4    1  0.1701380E-008  0.5328116E+03  0.7818608E-02  0.1005553E+00
          2   -1    0    0  501    0  0.00000000000E+00  0.00000000000E+00  0.12432475733E+04  0.12432475733E+04  0.25500000000E-02 0. -1.
         -2   -1    0    0    0  501 -0.00000000000E+00 -0.00000000000E+00 -0.14308491088E+04  0.14308491088E+04  0.25500000000E-02 0.  1.
    8880022    1    1    2    0    0 -0.51028619717E+03 -0.10222481628E+02 -0.13195274816E+04  0.14230393283E+04  0.15294330000E+03 0.  0.
    8880022    1    1    2    0    0  0.51028619717E+03  0.10222481628E+02  0.11319259461E+04  0.12510573539E+04  0.15294330000E+03 0.  0.
<mgrwt>
<rscale>  0 0.53281156E+03</rscale>
<asrwt>0</asrwt>
<pdfrwt beam="1">  1        2 0.19126886E+00 0.53281156E+03</pdfrwt>
<pdfrwt beam="2">  1       -2 0.22013063E+00 0.53281156E+03</pdfrwt>
<totfact> 0.18990432E+00</totfact>
</mgrwt>
</event>
<event>
 4    1  0.1701380E-008  0.3126613E+03  0.7818608E-02  0.1079077E+00
         -2   -1    0    0    0  501 -0.00000000000E+00  0.00000000000E+00  0.15514902332E+03  0.15514902334E+03  0.25500000000E-02 0.  1.
          2   -1    0    0  501    0  0.00000000000E+00 -0.00000000000E+00 -0.17497739574E+04  0.17497739574E+04  0.25500000000E-02 0. -1.
    8880022    1    1    2    0    0  0.27065003355E+03  0.33376377699E+02 -0.35399887742E+02  0.31465890789E+03  0.15294330000E+03 0.  0.
    8880022    1    1    2    0    0 -0.27065003355E+03 -0.33376377699E+02 -0.15592250464E+04  0.15902640729E+04  0.15294330000E+03 0.  0.
<mgrwt>
<rscale>  0 0.31266128E+03</rscale>
<asrwt>0</asrwt>
<pdfrwt beam="1">  1        2 0.26919598E+00 0.31266128E+03</pdfrwt>
<pdfrwt beam="2">  1       -2 0.23869082E-01 0.31266128E+03</pdfrwt>
<totfact> 0.15506789E+02</totfact>
</mgrwt>
</event>
<event>
 4    1  0.1701380E-008  0.8463341E+03  0.7818608E-02  0.9495270E-01
          2   -1    0    0  501    0  0.00000000000E+00  0.00000000000E+00  0.28902199559E+04  0.28902199559E+04  0.25500000000E-02 0. -1.
         -2   -1    0    0    0  501 -0.00000000000E+00 -0.00000000000E+00 -0.37874951721E+03  0.37874951722E+03  0.25500000000E-02 0.  1.
    8880022    1    1    2    0    0 -0.60867269673E+03  0.56780920801E+03  0.29476913166E+03  0.89619765813E+03  0.15294330000E+03 0.  0.
    8880022    1    1    2    0    0  0.60867269673E+03 -0.56780920801E+03  0.22167013070E+04  0.23727718150E+04  0.15294330000E+03 0.  0.
<mgrwt>
<rscale>  0 0.84633410E+03</rscale>
<asrwt>0</asrwt>
<pdfrwt beam="1">  1        2 0.44464923E+00 0.84633410E+03</pdfrwt>
<pdfrwt beam="2">  1       -2 0.58269156E-01 0.84633410E+03</pdfrwt>
<totfact> 0.58593519E+00</totfact>
</mgrwt>
</event>
<event>
 4    1  0.1701380E-008  0.1136774E+04  0.7818608E-02  0.9170072E-01
         -2   -1    0    0    0  501 -0.00000000000E+00  0.00000000000E+00  0.14409755315E+04  0.14409755315E+04  0.25500000000E-02 0.  1.
          2   -1    0    0  501    0  0.00000000000E+00 -0.00000000000E+00 -0.24585652587E+04  0.24585652587E+04  0.25500000000E-02 0. -1.
    8880022    1    1    2    0    0 -0.88938316802E+03 -0.69127505879E+03 -0.20627969502E+04  0.23552890560E+04  0.15294330000E+03 0.  0.
    8880022    1    1    2    0    0  0.88938316802E+03  0.69127505879E+03  0.10452072230E+04  0.15442517342E+04  0.15294330000E+03 0.  0.
<mgrwt>
<rscale>  0 0.11367741E+04</rscale>
<asrwt>0</asrwt>
<pdfrwt beam="1">  1        2 0.37824081E+00 0.11367741E+04</pdfrwt>
<pdfrwt beam="2">  1       -2 0.22168854E+00 0.11367741E+04</pdfrwt>
<totfact> 0.34942052E-01</totfact>
</mgrwt>
</event>
<event>
 4    1  0.1701380E-008  0.9317530E+03  0.7818608E-02  0.9386737E-01
          2   -1    0    0  501    0  0.00000000000E+00  0.00000000000E+00  0.79838924333E+03  0.79838924333E+03  0.25500000000E-02 0. -1.
         -2   -1    0    0    0  501 -0.00000000000E+00 -0.00000000000E+00 -0.12383242384E+04  0.12383242384E+04  0.25500000000E-02 0.  1.
    8880022    1    1    2    0    0  0.91252060927E+03  0.10990017730E+03 -0.57549326310E+03  0.10951511586E+04  0.15294330000E+03 0.  0.
    8880022    1    1    2    0    0 -0.91252060927E+03 -0.10990017730E+03  0.13555826802E+03  0.94156232314E+03  0.15294330000E+03 0.  0.
<mgrwt>
<rscale>  0 0.93175295E+03</rscale>
<asrwt>0</asrwt>
<pdfrwt beam="1">  1        2 0.12282911E+00 0.93175295E+03</pdfrwt>
<pdfrwt beam="2">  1       -2 0.19051142E+00 0.93175295E+03</pdfrwt>
<totfact> 0.53071504E+00</totfact>
</mgrwt>
</event>
<event>
 4    1  0.1701380E-008  0.9042767E+03  0.7818608E-02  0.9420251E-01
          2   -1    0    0  501    0  0.00000000000E+00  0.00000000000E+00  0.28883218432E+04  0.28883218432E+04  0.25500000000E-02 0. -1.
         -2   -1    0    0    0  501 -0.00000000000E+00 -0.00000000000E+00 -0.13243024428E+04  0.13243024428E+04  0.25500000000E-02 0.  1.
    8880022    1    1    2    0    0  0.88504830158E+03  0.10494814466E+03 -0.10856355807E+04  0.14129121970E+04  0.15294330000E+03 0.  0.
    8880022    1    1    2    0    0 -0.88504830158E+03 -0.10494814466E+03  0.26496549811E+04  0.27997120890E+04  0.15294330000E+03 0.  0.
<mgrwt>
<rscale>  0 0.90427665E+03</rscale>
<asrwt>0</asrwt>
<pdfrwt beam="1">  1        2 0.44435720E+00 0.90427665E+03</pdfrwt>
<pdfrwt beam="2">  1       -2 0.20373884E+00 0.90427665E+03</pdfrwt>
<totfact> 0.26568525E-01</totfact>
</mgrwt>
</event>
<event>
 4    1  0.1701380E-008  0.1446331E+04  0.7818608E-02  0.8920948E-01
          2   -1    0    0  501    0  0.00000000000E+00  0.00000000000E+00  0.32111328339E+04  0.32111328339E+04  0.25500000000E-02 0. -1.
         -2   -1    0    0    0  501 -0.00000000000E+00 -0.00000000000E+00 -0.89188446075E+03  0.89188446075E+03  0.25500000000E-02 0.  1.
    8880022    1    1    2    0    0  0.11876449657E+04  0.81116108414E+03  0.94445514024E+02  0.14494117693E+04  0.15294330000E+03 0.  0.
    8880022    1    1    2    0    0 -0.11876449657E+04 -0.81116108414E+03  0.22248028591E+04  0.26536055253E+04  0.15294330000E+03 0.  0.
<mgrwt>
<rscale>  0 0.14463314E+04</rscale>
<asrwt>0</asrwt>
<pdfrwt beam="1">  1        2 0.49402043E+00 0.14463314E+04</pdfrwt>
<pdfrwt beam="2">  1       -2 0.13721299E+00 0.14463314E+04</pdfrwt>
<totfact> 0.46215656E-01</totfact>
</mgrwt>
</event>
<event>
 4    1  0.1701380E-008  0.1004644E+04  0.7818608E-02  0.9303466E-01
          2   -1    0    0  501    0  0.00000000000E+00  0.00000000000E+00  0.16463397222E+04  0.16463397222E+04  0.25500000000E-02 0. -1.
         -2   -1    0    0    0  501 -0.00000000000E+00 -0.00000000000E+00 -0.89669405534E+03  0.89669405534E+03  0.25500000000E-02 0.  1.
    8880022    1    1    2    0    0 -0.96368755125E+03 -0.23921408459E+03 -0.34029474799E+03  0.10607116683E+04  0.15294330000E+03 0.  0.
    8880022    1    1    2    0    0  0.96368755125E+03  0.23921408459E+03  0.10899404149E+04  0.14823221093E+04  0.15294330000E+03 0.  0.
<mgrwt>
<rscale>  0 0.10046436E+04</rscale>
<asrwt>0</asrwt>
<pdfrwt beam="1">  1        2 0.25328303E+00 0.10046436E+04</pdfrwt>
<pdfrwt beam="2">  1       -2 0.13795293E+00 0.10046436E+04</pdfrwt>
<totfact> 0.38955879E+00</totfact>
</mgrwt>
</event>
<event>
 4    1  0.1701380E-008  0.8855380E+03  0.7818608E-02  0.9443842E-01
         -2   -1    0    0    0  501 -0.00000000000E+00  0.00000000000E+00  0.16858827579E+04  0.16858827579E+04  0.25500000000E-02 0.  1.
          2   -1    0    0  501    0  0.00000000000E+00 -0.00000000000E+00 -0.62104300126E+03  0.62104300126E+03  0.25500000000E-02 0. -1.
    8880022    1    1    2    0    0 -0.21996196926E+03  0.84403944420E+03 -0.45496588222E+02  0.88670595117E+03  0.15294330000E+03 0.  0.
    8880022    1    1    2    0    0  0.21996196926E+03 -0.84403944420E+03  0.11103363448E+04  0.14202198080E+04  0.15294330000E+03 0.  0.
<mgrwt>
<rscale>  0 0.88553797E+03</rscale>
<asrwt>0</asrwt>
<pdfrwt beam="1">  1        2 0.95545079E-01 0.88553797E+03</pdfrwt>
<pdfrwt beam="2">  1       -2 0.25936657E+00 0.88553797E+03</pdfrwt>
<totfact> 0.27131954E+00</totfact>
</mgrwt>
</event>
<event>
 4    1  0.1701380E-008  0.1251858E+04  0.7818608E-02  0.9068638E-01
         -2   -1    0    0    0  501 -0.00000000000E+00  0.00000000000E+00  0.45227493607E+03  0.45227493608E+03  0.25500000000E-02 0.  1.
          2   -1    0    0  501    0  0.00000000000E+00 -0.00000000000E+00 -0.38197776069E+04  0.38197776069E+04  0.25500000000E-02 0. -1.
    8880022    1    1    2    0    0 -0.66182834804E+03  0.10515423366E+04 -0.23346937628E+04  0.26491403637E+04  0.15294330000E+03 0.  0.
    8880022    1    1    2    0    0  0.66182834804E+03 -0.10515423366E+04 -0.10328089081E+04  0.16229121792E+04  0.15294330000E+03 0.  0.
<mgrwt>
<rscale>  0 0.12518585E+04</rscale>
<asrwt>0</asrwt>
<pdfrwt beam="1">  1        2 0.58765807E+00 0.12518585E+04</pdfrwt>
<pdfrwt beam="2">  1       -2 0.69580762E-01 0.12518585E+04</pdfrwt>
<totfact> 0.89822797E-01</totfact>
</mgrwt>
</event>
<event>
 4    1  0.1701380E-008  0.4694119E+03  0.7818608E-02  0.1022086E+00
          2   -1    0    0  501    0  0.00000000000E+00  0.00000000000E+00  0.76952077957E+03  0.76952077957E+03  0.25500000000E-02 0. -1.
         -2   -1    0    0    0  501 -0.00000000000E+00 -0.00000000000E+00 -0.73951360838E+03  0.73951360838E+03  0.25500000000E-02 0.  1.
    8880022    1    1    2    0    0 -0.43857650116E+03  0.67871529129E+02 -0.57564139088E+03  0.74277220986E+03  0.15294330000E+03 0.  1.
    8880022    1    1    2    0    0  0.43857650116E+03 -0.67871529129E+02  0.60564856207E+03  0.76626217810E+03  0.15294330000E+03 0.  0.
<mgrwt>
<rscale>  0 0.46941191E+03</rscale>
<asrwt>0</asrwt>
<pdfrwt beam="1">  1        2 0.11838781E+00 0.46941191E+03</pdfrwt>
<pdfrwt beam="2">  1       -2 0.11377132E+00 0.46941191E+03</pdfrwt>
<totfact> 0.23010453E+01</totfact>
</mgrwt>
</event>
<event>
 4    1  0.1701380E-008  0.1179443E+04  0.7818608E-02  0.9131043E-01
          2   -1    0    0  501    0  0.00000000000E+00  0.00000000000E+00  0.72930123448E+03  0.72930123449E+03  0.25500000000E-02 0. -1.
         -2   -1    0    0    0  501 -0.00000000000E+00 -0.00000000000E+00 -0.36413918975E+04  0.36413918975E+04  0.25500000000E-02 0.  1.
    8880022    1    1    2    0    0  0.56439878459E+03 -0.10242791012E+04  0.51975597800E+02  0.11805874728E+04  0.15294330000E+03 0.  0.
    8880022    1    1    2    0    0 -0.56439878459E+03  0.10242791012E+04 -0.29640662608E+04  0.31901056592E+04  0.15294330000E+03 0.  0.
<mgrwt>
<rscale>  0 0.11794428E+04</rscale>
<asrwt>0</asrwt>
<pdfrwt beam="1">  1        2 0.11220019E+00 0.11794428E+04</pdfrwt>
<pdfrwt beam="2">  1       -2 0.56021413E+00 0.11794428E+04</pdfrwt>
<totfact> 0.28478559E-02</totfact>
</mgrwt>
</event>
<event>
 4    1  0.1701380E-008  0.1096149E+04  0.7818608E-02  0.9208953E-01
         -2   -1    0    0    0  501 -0.00000000000E+00  0.00000000000E+00  0.82649986959E+03  0.82649986960E+03  0.25500000000E-02 0.  1.
          2   -1    0    0  501    0  0.00000000000E+00 -0.00000000000E+00 -0.20918355003E+04  0.20918355003E+04  0.25500000000E-02 0. -1.
    8880022    1    1    2    0    0  0.10574275798E+04 -0.24494564593E+03 -0.14385528382E+04  0.18085843573E+04  0.15294330000E+03 0.  0.
    8880022    1    1    2    0    0 -0.10574275798E+04  0.24494564593E+03  0.17321720752E+03  0.11097510126E+04  0.15294330000E+03 0.  0.
<mgrwt>
<rscale>  0 0.10961492E+04</rscale>
<asrwt>0</asrwt>
<pdfrwt beam="1">  1        2 0.32182084E+00 0.10961492E+04</pdfrwt>
<pdfrwt beam="2">  1       -2 0.12715383E+00 0.10961492E+04</pdfrwt>
<totfact> 0.26940317E+00</totfact>
</mgrwt>
</event>
<event>
 4    1  0.1701380E-008  0.6177787E+03  0.7818608E-02  0.9869192E-01
         -2   -1    0    0    0  501 -0.00000000000E+00  0.00000000000E+00  0.23849066424E+03  0.23849066425E+03  0.25500000000E-02 0.  1.
          2   -1    0    0  501    0  0.00000000000E+00 -0.00000000000E+00 -0.39148023014E+04  0.39148023014E+04  0.25500000000E-02 0. -1.
    8880022    1    1    2    0    0 -0.59849961480E+03  0.75567444152E+01 -0.24139875051E+03  0.66326759537E+03  0.15294330000E+03 0.  0.
    8880022    1    1    2    0    0  0.59849961480E+03 -0.75567444152E+01 -0.34349128866E+04  0.34900253703E+04  0.15294330000E+03 0.  0.
<mgrwt>
<rscale>  0 0.61777872E+03</rscale>
<asrwt>0</asrwt>
<pdfrwt beam="1">  1        2 0.60227723E+00 0.61777872E+03</pdfrwt>
<pdfrwt beam="2">  1       -2 0.36690874E-01 0.61777872E+03</pdfrwt>
<totfact> 0.31931608E+00</totfact>
</mgrwt>
</event>
<event>
 4    1  0.1701380E-008  0.5378371E+03  0.7818608E-02  0.1004349E+00
         -2   -1    0    0    0  501 -0.00000000000E+00  0.00000000000E+00  0.88669152623E+03  0.88669152623E+03  0.25500000000E-02 0.  1.
          2   -1    0    0  501    0  0.00000000000E+00 -0.00000000000E+00 -0.79085232069E+03  0.79085232069E+03  0.25500000000E-02 0. -1.
    8880022    1    1    2    0    0 -0.10490809142E+03  0.50484784163E+03  0.69082114731E+03  0.87550132006E+03  0.15294330000E+03 0.  0.
    8880022    1    1    2    0    0  0.10490809142E+03 -0.50484784163E+03 -0.59498194177E+03  0.80204252686E+03  0.15294330000E+03 0. -1.
<mgrwt>
<rscale>  0 0.53783706E+03</rscale>
<asrwt>0</asrwt>
<pdfrwt beam="1">  1        2 0.12166959E+00 0.53783706E+03</pdfrwt>
<pdfrwt beam="2">  1       -2 0.13641408E+00 0.53783706E+03</pdfrwt>
<totfact> 0.14004737E+01</totfact>
</mgrwt>
</event>
<event>
 4    1  0.1701380E-008  0.1825436E+03  0.7818608E-02  0.1165364E+00
         -2   -1    0    0    0  501 -0.00000000000E+00  0.00000000000E+00  0.60990370435E+03  0.60990370436E+03  0.25500000000E-02 0.  1.
          2   -1    0    0  501    0  0.00000000000E+00 -0.00000000000E+00 -0.37913168446E+03  0.37913168447E+03  0.25500000000E-02 0. -1.
    8880022    1    1    2    0    0 -0.96577664322E+02  0.24561686529E+02 -0.34211476420E+03  0.38776885717E+03  0.15294330000E+03 0. -1.
    8880022    1    1    2    0    0  0.96577664322E+02 -0.24561686529E+02  0.57288678409E+03  0.60126653166E+03  0.15294330000E+03 0.  0.
<mgrwt>
<rscale>  0 0.18254362E+03</rscale>
<asrwt>0</asrwt>
<pdfrwt beam="1">  1        2 0.58327952E-01 0.18254362E+03</pdfrwt>
<pdfrwt beam="2">  1       -2 0.93831338E-01 0.18254362E+03</pdfrwt>
<totfact> 0.86125154E+01</totfact>
</mgrwt>
</event>
<event>
 4    1  0.1701380E-008  0.9234929E+03  0.7818608E-02  0.9396681E-01
          2   -1    0    0  501    0  0.00000000000E+00  0.00000000000E+00  0.16024936016E+04  0.16024936016E+04  0.25500000000E-02 0. -1.
         -2   -1    0    0    0  501 -0.00000000000E+00 -0.00000000000E+00 -0.97920150285E+03  0.97920150286E+03  0.25500000000E-02 0.  1.
    8880022    1    1    2    0    0 -0.32665509156E+03  0.85014344230E+03 -0.56051330432E+03  0.10802843323E+04  0.15294330000E+03 0.  0.
    8880022    1    1    2    0    0  0.32665509156E+03 -0.85014344230E+03  0.11838054031E+04  0.15014107721E+04  0.15294330000E+03 0.  0.
<mgrwt>
<rscale>  0 0.92349287E+03</rscale>
<asrwt>0</asrwt>
<pdfrwt beam="1">  1        2 0.24653748E+00 0.92349287E+03</pdfrwt>
<pdfrwt beam="2">  1       -2 0.15064639E+00 0.92349287E+03</pdfrwt>
<totfact> 0.33028269E+00</totfact>
</mgrwt>
</event>
<event>
 4    1  0.1701380E-008  0.9011367E+03  0.7818608E-02  0.9424162E-01
         -2   -1    0    0    0  501 -0.00000000000E+00  0.00000000000E+00  0.25030609709E+04  0.25030609709E+04  0.25500000000E-02 0.  1.
          2   -1    0    0  501    0  0.00000000000E+00 -0.00000000000E+00 -0.81979653023E+03  0.81979653023E+03  0.25500000000E-02 0. -1.
    8880022    1    1    2    0    0  0.56733012826E+03 -0.68322200620E+03 -0.44987139736E+03  0.10071900076E+04  0.15294330000E+03 0.  0.
    8880022    1    1    2    0    0 -0.56733012826E+03  0.68322200620E+03  0.21331358380E+04  0.23156674935E+04  0.15294330000E+03 0.  0.
<mgrwt>
<rscale>  0 0.90113675E+03</rscale>
<asrwt>0</asrwt>
<pdfrwt beam="1">  1        2 0.12612254E+00 0.90113675E+03</pdfrwt>
<pdfrwt beam="2">  1       -2 0.38508630E+00 0.90113675E+03</pdfrwt>
<totfact> 0.31970431E-01</totfact>
</mgrwt>
</event>
<event>
 4    1  0.1701380E-008  0.1455326E+04  0.7818608E-02  0.8914716E-01
          2   -1    0    0  501    0  0.00000000000E+00  0.00000000000E+00  0.44730547544E+04  0.44730547544E+04  0.25500000000E-02 0. -1.
         -2   -1    0    0    0  501 -0.00000000000E+00 -0.00000000000E+00 -0.76097760432E+03  0.76097760432E+03  0.25500000000E-02 0.  1.
    8880022    1    1    2    0    0 -0.11843508546E+04  0.83180270533E+03  0.34645544948E+04  0.37578068321E+04  0.15294330000E+03 0.  0.
    8880022    1    1    2    0    0  0.11843508546E+04 -0.83180270533E+03  0.24752265531E+03  0.14762255266E+04  0.15294330000E+03 0.  0.
<mgrwt>
<rscale>  0 0.14553262E+04</rscale>
<asrwt>0</asrwt>
<pdfrwt beam="1">  1        2 0.68816226E+00 0.14553262E+04</pdfrwt>
<pdfrwt beam="2">  1       -2 0.11707348E+00 0.14553262E+04</pdfrwt>
<totfact> 0.72536289E-02</totfact>
</mgrwt>
</event>
<event>
 4    1  0.1701380E-008  0.1543607E+04  0.7818608E-02  0.8855961E-01
          2   -1    0    0  501    0  0.00000000000E+00  0.00000000000E+00  0.19105700338E+04  0.19105700338E+04  0.25500000000E-02 0. -1.
         -2   -1    0    0    0  501 -0.00000000000E+00 -0.00000000000E+00 -0.14593314046E+04  0.14593314046E+04  0.25500000000E-02 0.  1.
    8880022    1    1    2    0    0 -0.80930986140E+03  0.13055072298E+04 -0.41690203974E+03  0.15989154269E+04  0.15294330000E+03 0.  0.
    8880022    1    1    2    0    0  0.80930986140E+03 -0.13055072298E+04  0.86814066888E+03  0.17709860115E+04  0.15294330000E+03 0.  0.
<mgrwt>
<rscale>  0 0.15436072E+04</rscale>
<asrwt>0</asrwt>
<pdfrwt beam="1">  1        2 0.29393385E+00 0.15436072E+04</pdfrwt>
<pdfrwt beam="2">  1       -2 0.22451252E+00 0.15436072E+04</pdfrwt>
<totfact> 0.64781101E-01</totfact>
</mgrwt>
</event>
<event>
 4    1  0.1701380E-008  0.7226825E+03  0.7818608E-02  0.9679209E-01
          2   -1    0    0  501    0  0.00000000000E+00  0.00000000000E+00  0.20993243671E+04  0.20993243671E+04  0.25500000000E-02 0. -1.
         -2   -1    0    0    0  501 -0.00000000000E+00 -0.00000000000E+00 -0.93972586597E+03  0.93972586597E+03  0.25500000000E-02 0.  1.
    8880022    1    1    2    0    0 -0.68382356898E+03  0.17681545440E+03 -0.72315535888E+03  0.10223618266E+04  0.15294330000E+03 0.  0.
    8880022    1    1    2    0    0  0.68382356898E+03 -0.17681545440E+03  0.18827538600E+04  0.20166884065E+04  0.15294330000E+03 0.  0.
<mgrwt>
<rscale>  0 0.72268252E+03</rscale>
<asrwt>0</asrwt>
<pdfrwt beam="1">  1        2 0.32297298E+00 0.72268252E+03</pdfrwt>
<pdfrwt beam="2">  1       -2 0.14457321E+00 0.72268252E+03</pdfrwt>
<totfact> 0.20306646E+00</totfact>
</mgrwt>
</event>
<event>
 4    1  0.1701380E-008  0.1327197E+04  0.7818608E-02  0.9008271E-01
          2   -1    0    0  501    0  0.00000000000E+00  0.00000000000E+00  0.26654832883E+04  0.26654832883E+04  0.25500000000E-02 0. -1.
         -2   -1    0    0    0  501 -0.00000000000E+00 -0.00000000000E+00 -0.72955635958E+03  0.72955635958E+03  0.25500000000E-02 0.  1.
    8880022    1    1    2    0    0 -0.13020787913E+04  0.20652397102E+03  0.44698301860E+03  0.14004452154E+04  0.15294330000E+03 0.  0.
    8880022    1    1    2    0    0  0.13020787913E+04 -0.20652397102E+03  0.14889439101E+04  0.19945944324E+04  0.15294330000E+03 0.  0.
<mgrwt>
<rscale>  0 0.13271974E+04</rscale>
<asrwt>0</asrwt>
<pdfrwt beam="1">  1        2 0.41007435E+00 0.13271974E+04</pdfrwt>
<pdfrwt beam="2">  1       -2 0.11223944E+00 0.13271974E+04</pdfrwt>
<totfact> 0.16882014E+00</totfact>
</mgrwt>
</event>
<event>
 4    1  0.1701380E-008  0.3605764E+03  0.7818608E-02  0.1058356E+00
          2   -1    0    0  501    0  0.00000000000E+00  0.00000000000E+00  0.12499147611E+04  0.12499147611E+04  0.25500000000E-02 0. -1.
         -2   -1    0    0    0  501 -0.00000000000E+00 -0.00000000000E+00 -0.26076955564E+03  0.26076955565E+03  0.25500000000E-02 0.  1.
    8880022    1    1    2    0    0 -0.23084538440E+03 -0.23094168262E+03  0.10801972660E+04  0.11387894620E+04  0.15294330000E+03 0.  0.
    8880022    1    1    2    0    0  0.23084538440E+03  0.23094168262E+03 -0.91052060513E+02  0.37189485477E+03  0.15294330000E+03 0.  0.
<mgrwt>
<rscale>  0 0.36057635E+03</rscale>
<asrwt>0</asrwt>
<pdfrwt beam="1">  1        2 0.19229459E+00 0.36057635E+03</pdfrwt>
<pdfrwt beam="2">  1       -2 0.40118392E-01 0.36057635E+03</pdfrwt>
<totfact> 0.11038679E+02</totfact>
</mgrwt>
</event>
<event>
 4    1  0.1701380E-008  0.8078152E+03  0.7818608E-02  0.9548773E-01
         -2   -1    0    0    0  501 -0.00000000000E+00  0.00000000000E+00  0.10183693733E+04  0.10183693733E+04  0.25500000000E-02 0.  1.
          2   -1    0    0  501    0  0.00000000000E+00 -0.00000000000E+00 -0.99421574483E+03  0.99421574483E+03  0.25500000000E-02 0. -1.
    8880022    1    1    2    0    0  0.41390072130E+03 -0.67665349248E+03  0.61204789873E+03  0.10134929893E+04  0.15294330000E+03 0.  0.
    8880022    1    1    2    0    0 -0.41390072130E+03  0.67665349248E+03 -0.58789427024E+03  0.99909212887E+03  0.15294330000E+03 0.  0.
<mgrwt>
<rscale>  0 0.80781521E+03</rscale>
<asrwt>0</asrwt>
<pdfrwt beam="1">  1        2 0.15295627E+00 0.80781521E+03</pdfrwt>
<pdfrwt beam="2">  1       -2 0.15667221E+00 0.80781521E+03</pdfrwt>
<totfact> 0.68542537E+00</totfact>
</mgrwt>
</event>
<event>
 4    1  0.1701380E-008  0.1226794E+04  0.7818608E-02  0.9089721E-01
          2   -1    0    0  501    0  0.00000000000E+00  0.00000000000E+00  0.29844913844E+04  0.29844913844E+04  0.25500000000E-02 0. -1.
         -2   -1    0    0    0  501 -0.00000000000E+00 -0.00000000000E+00 -0.13303360946E+04  0.13303360946E+04  0.25500000000E-02 0.  1.
    8880022    1    1    2    0    0 -0.97327766746E+03  0.73100167045E+03  0.25271095227E+04  0.28091470329E+04  0.15294330000E+03 0.  0.
    8880022    1    1    2    0    0  0.97327766746E+03 -0.73100167045E+03 -0.87295423286E+03  0.15056804461E+04  0.15294330000E+03 0.  0.
<mgrwt>
<rscale>  0 0.12267944E+04</rscale>
<asrwt>0</asrwt>
<pdfrwt beam="1">  1        2 0.45915251E+00 0.12267944E+04</pdfrwt>
<pdfrwt beam="2">  1       -2 0.20466710E+00 0.12267944E+04</pdfrwt>
<totfact> 0.21600450E-01</totfact>
</mgrwt>
</event>
<event>
 4    1  0.1701380E-008  0.3161106E+03  0.7818608E-02  0.1077453E+00
          2   -1    0    0  501    0  0.00000000000E+00  0.00000000000E+00  0.24227992667E+04  0.24227992667E+04  0.25500000000E-02 0. -1.
         -2   -1    0    0    0  501 -0.00000000000E+00 -0.00000000000E+00 -0.52122858745E+02  0.52122858807E+02  0.25500000000E-02 0.  1.
    8880022    1    1    2    0    0 -0.85534687822E+02 -0.26309328404E+03  0.17506776272E+04  0.17789879332E+04  0.15294330000E+03 0. -1.
    8880022    1    1    2    0    0  0.85534687822E+02  0.26309328404E+03  0.61999878072E+03  0.69593419231E+03  0.15294330000E+03 0.  0.
<mgrwt>
<rscale>  0 0.31611060E+03</rscale>
<asrwt>0</asrwt>
<pdfrwt beam="1">  1        2 0.37273835E+00 0.31611060E+03</pdfrwt>
<pdfrwt beam="2">  1       -2 0.80189014E-02 0.31611060E+03</pdfrwt>
<totfact> 0.41295950E+02</totfact>
</mgrwt>
</event>
<event>
 4    1  0.1701380E-008  0.4230799E+03  0.7818608E-02  0.1036069E+00
         -2   -1    0    0    0  501 -0.00000000000E+00  0.00000000000E+00  0.88925467716E+03  0.88925467717E+03  0.25500000000E-02 0.  1.
          2   -1    0    0  501    0  0.00000000000E+00 -0.00000000000E+00 -0.99319932477E+03  0.99319932478E+03  0.25500000000E-02 0. -1.
    8880022    1    1    2    0    0  0.35801471237E+03  0.16562117163E+03 -0.89242712947E+03  0.98763492303E+03  0.15294330000E+03 0.  0.
    8880022    1    1    2    0    0 -0.35801471237E+03 -0.16562117163E+03  0.78848248186E+03  0.89481907891E+03  0.15294330000E+03 0.  0.
<mgrwt>
<rscale>  0 0.42307985E+03</rscale>
<asrwt>0</asrwt>
<pdfrwt beam="1">  1        2 0.15279990E+00 0.42307985E+03</pdfrwt>
<pdfrwt beam="2">  1       -2 0.13680841E+00 0.42307985E+03</pdfrwt>
<totfact> 0.10395172E+01</totfact>
</mgrwt>
</event>
<event>
 4    1  0.1701380E-008  0.1021487E+04  0.7818608E-02  0.9285287E-01
         -2   -1    0    0    0  501 -0.00000000000E+00  0.00000000000E+00  0.15535598438E+04  0.15535598438E+04  0.25500000000E-02 0.  1.
          2   -1    0    0  501    0  0.00000000000E+00 -0.00000000000E+00 -0.18059107035E+04  0.18059107035E+04  0.25500000000E-02 0. -1.
    8880022    1    1    2    0    0  0.79507199183E+03  0.62282061175E+03  0.12050469406E+04  0.15797388293E+04  0.15294330000E+03 0.  0.
    8880022    1    1    2    0    0 -0.79507199183E+03 -0.62282061175E+03 -0.14573978004E+04  0.17797317180E+04  0.15294330000E+03 0.  0.
<mgrwt>
<rscale>  0 0.10214875E+04</rscale>
<asrwt>0</asrwt>
<pdfrwt beam="1">  1        2 0.27783241E+00 0.10214875E+04</pdfrwt>
<pdfrwt beam="2">  1       -2 0.23900921E+00 0.10214875E+04</pdfrwt>
<totfact> 0.64102115E-01</totfact>
</mgrwt>
</event>
<event>
 4    1  0.1701380E-008  0.9511376E+03  0.7818608E-02  0.9363822E-01
         -2   -1    0    0    0  501 -0.00000000000E+00  0.00000000000E+00  0.69520736632E+03  0.69520736633E+03  0.25500000000E-02 0.  1.
          2   -1    0    0  501    0  0.00000000000E+00 -0.00000000000E+00 -0.15071085724E+04  0.15071085724E+04  0.25500000000E-02 0. -1.
    8880022    1    1    2    0    0 -0.82990504292E+03 -0.43878103280E+03  0.98440030660E+00  0.95113815877E+03  0.15294330000E+03 0.  0.
    8880022    1    1    2    0    0  0.82990504292E+03  0.43878103280E+03 -0.81288560643E+03  0.12511777800E+04  0.15294330000E+03 0.  0.
<mgrwt>
<rscale>  0 0.95113765E+03</rscale>
<asrwt>0</asrwt>
<pdfrwt beam="1">  1        2 0.23186286E+00 0.95113765E+03</pdfrwt>
<pdfrwt beam="2">  1       -2 0.10695498E+00 0.95113765E+03</pdfrwt>
<totfact> 0.88447668E+00</totfact>
</mgrwt>
</event>
<event>
 4    1  0.1754443E-008  0.6565475E+03  0.7818608E-02  0.9794570E-01
         -2   -1    0    0    0  501 -0.00000000000E+00  0.00000000000E+00  0.90088236926E+03  0.90088236926E+03  0.25500000000E-02 0.  1.
          2   -1    0    0  501    0  0.00000000000E+00 -0.00000000000E+00 -0.27431698029E+04  0.27431698029E+04  0.25500000000E-02 0. -1.
    8880022    1    1    2    0    0 -0.55971654049E+03  0.30721389384E+03 -0.25766565833E+04  0.26589873605E+04  0.15294330000E+03 0.  0.
    8880022    1    1    2    0    0  0.55971654049E+03 -0.30721389384E+03  0.73436914961E+03  0.98506481167E+03  0.15294330000E+03 0.  0.
<mgrwt>
<rscale>  0 0.65654751E+03</rscale>
<asrwt>0</asrwt>
<pdfrwt beam="1">  1        2 0.42202612E+00 0.65654751E+03</pdfrwt>
<pdfrwt beam="2">  1       -2 0.13859729E+00 0.65654751E+03</pdfrwt>
<totfact> 0.99944868E-01</totfact>
</mgrwt>
</event>
<event>
 4    1  0.1701380E-008  0.8718161E+03  0.7818608E-02  0.9461515E-01
         -2   -1    0    0    0  501 -0.00000000000E+00  0.00000000000E+00  0.68977912541E+03  0.68977912541E+03  0.25500000000E-02 0.  1.
          2   -1    0    0  501    0  0.00000000000E+00 -0.00000000000E+00 -0.16307968561E+04  0.16307968561E+04  0.25500000000E-02 0. -1.
    8880022    1    1    2    0    0 -0.79770357002E+03  0.31676606651E+03  0.19026655577E+03  0.89233667512E+03  0.15294330000E+03 0.  0.
    8880022    1    1    2    0    0  0.79770357002E+03 -0.31676606651E+03 -0.11312842865E+04  0.14282393064E+04  0.15294330000E+03 0.  0.
<mgrwt>
<rscale>  0 0.87181614E+03</rscale>
<asrwt>0</asrwt>
<pdfrwt beam="1">  1        2 0.25089182E+00 0.87181614E+03</pdfrwt>
<pdfrwt beam="2">  1       -2 0.10611987E+00 0.87181614E+03</pdfrwt>
<totfact> 0.77631762E+00</totfact>
</mgrwt>
</event>
<event>
 4    1  0.1701380E-008  0.1203010E+04  0.7818608E-02  0.9110226E-01
          2   -1    0    0  501    0  0.00000000000E+00  0.00000000000E+00  0.12608413768E+04  0.12608413768E+04  0.25500000000E-02 0. -1.
         -2   -1    0    0    0  501 -0.00000000000E+00 -0.00000000000E+00 -0.21100946117E+04  0.21100946117E+04  0.25500000000E-02 0.  1.
    8880022    1    1    2    0    0  0.64033792717E+03 -0.10068807016E+04  0.71356801679E+03  0.13987181188E+04  0.15294330000E+03 0.  0.
    8880022    1    1    2    0    0 -0.64033792717E+03  0.10068807016E+04 -0.15628212517E+04  0.19722178698E+04  0.15294330000E+03 0.  0.
<mgrwt>
<rscale>  0 0.12030100E+04</rscale>
<asrwt>0</asrwt>
<pdfrwt beam="1">  1        2 0.19397560E+00 0.12030100E+04</pdfrwt>
<pdfrwt beam="2">  1       -2 0.32462994E+00 0.12030100E+04</pdfrwt>
<totfact> 0.38215765E-01</totfact>
</mgrwt>
</event>
<event>
 4    1  0.1701380E-008  0.8450242E+03  0.7818608E-02  0.9497040E-01
          2   -1    0    0  501    0  0.00000000000E+00  0.00000000000E+00  0.86094950949E+03  0.86094950949E+03  0.25500000000E-02 0. -1.
         -2   -1    0    0    0  501 -0.00000000000E+00 -0.00000000000E+00 -0.14441170579E+04  0.14441170579E+04  0.25500000000E-02 0.  1.
    8880022    1    1    2    0    0 -0.50454976645E+03 -0.66038156228E+03 -0.10435393869E+04  0.13427733910E+04  0.15294330000E+03 0.  0.
    8880022    1    1    2    0    0  0.50454976645E+03  0.66038156228E+03  0.46037183847E+03  0.96229317638E+03  0.15294330000E+03 0.  0.
<mgrwt>
<rscale>  0 0.84502422E+03</rscale>
<asrwt>0</asrwt>
<pdfrwt beam="1">  1        2 0.13245377E+00 0.84502422E+03</pdfrwt>
<pdfrwt beam="2">  1       -2 0.22217185E+00 0.84502422E+03</pdfrwt>
<totfact> 0.30248185E+00</totfact>
</mgrwt>
</event>
<event>
 4    1  0.1701380E-008  0.1240164E+04  0.7818608E-02  0.9078410E-01
         -2   -1    0    0    0  501 -0.00000000000E+00  0.00000000000E+00  0.85818221899E+03  0.85818221899E+03  0.25500000000E-02 0.  1.
          2   -1    0    0  501    0  0.00000000000E+00 -0.00000000000E+00 -0.28892894585E+04  0.28892894585E+04  0.25500000000E-02 0. -1.
    8880022    1    1    2    0    0  0.46126457569E+03  0.11409863549E+04  0.13906946155E+03  0.12479370333E+04  0.15294330000E+03 0.  0.
    8880022    1    1    2    0    0 -0.46126457569E+03 -0.11409863549E+04 -0.21701767010E+04  0.24995346442E+04  0.15294330000E+03 0.  0.
<mgrwt>
<rscale>  0 0.12401639E+04</rscale>
<asrwt>0</asrwt>
<pdfrwt beam="1">  1        2 0.44450607E+00 0.12401639E+04</pdfrwt>
<pdfrwt beam="2">  1       -2 0.13202804E+00 0.12401639E+04</pdfrwt>
<totfact> 0.83421036E-01</totfact>
</mgrwt>
</event>
<event>
 4    1  0.1701380E-008  0.9587813E+03  0.7818608E-02  0.9354945E-01
          2   -1    0    0  501    0  0.00000000000E+00  0.00000000000E+00  0.97238698341E+03  0.97238698342E+03  0.25500000000E-02 0. -1.
         -2   -1    0    0    0  501 -0.00000000000E+00 -0.00000000000E+00 -0.15887939437E+04  0.15887939437E+04  0.25500000000E-02 0.  1.
    8880022    1    1    2    0    0  0.47229391407E+03 -0.82024894471E+03  0.50673806418E+03  0.10844560808E+04  0.15294330000E+03 0.  0.
    8880022    1    1    2    0    0 -0.47229391407E+03  0.82024894471E+03 -0.11231450244E+04  0.14767248462E+04  0.15294330000E+03 0.  0.
<mgrwt>
<rscale>  0 0.95878127E+03</rscale>
<asrwt>0</asrwt>
<pdfrwt beam="1">  1        2 0.14959800E+00 0.95878127E+03</pdfrwt>
<pdfrwt beam="2">  1       -2 0.24442984E+00 0.95878127E+03</pdfrwt>
<totfact> 0.18280426E+00</totfact>
</mgrwt>
</event>
<event>
 4    1  0.1701380E-008  0.1652624E+04  0.7818608E-02  0.8788856E-01
         -2   -1    0    0    0  501 -0.00000000000E+00  0.00000000000E+00  0.90208340132E+03  0.90208340132E+03  0.25500000000E-02 0.  1.
          2   -1    0    0  501    0  0.00000000000E+00 -0.00000000000E+00 -0.33216253391E+04  0.33216253391E+04  0.25500000000E-02 0. -1.
    8880022    1    1    2    0    0  0.11165422685E+04  0.12087624135E+04 -0.58147108798E+03  0.17519342136E+04  0.15294330000E+03 0.  0.
    8880022    1    1    2    0    0 -0.11165422685E+04 -0.12087624135E+04 -0.18380708498E+04  0.24717745269E+04  0.15294330000E+03 0.  0.
<mgrwt>
<rscale>  0 0.16526236E+04</rscale>
<asrwt>0</asrwt>
<pdfrwt beam="1">  1        2 0.51101928E+00 0.16526236E+04</pdfrwt>
<pdfrwt beam="2">  1       -2 0.13878206E+00 0.16526236E+04</pdfrwt>
<totfact> 0.37060796E-01</totfact>
</mgrwt>
</event>
<event>
 4    1  0.1701380E-008  0.7658469E+03  0.7818608E-02  0.9610812E-01
          2   -1    0    0  501    0  0.00000000000E+00  0.00000000000E+00  0.31748435746E+04  0.31748435746E+04  0.25500000000E-02 0. -1.
         -2   -1    0    0    0  501 -0.00000000000E+00 -0.00000000000E+00 -0.66399172333E+03  0.66399172334E+03  0.25500000000E-02 0.  1.
    8880022    1    1    2    0    0  0.75016883435E+03 -0.19406610179E+02  0.28861101030E+04  0.29859928125E+04  0.15294330000E+03 0.  0.
    8880022    1    1    2    0    0 -0.75016883435E+03  0.19406610179E+02 -0.37525825171E+03  0.85284248548E+03  0.15294330000E+03 0.  0.
<mgrwt>
<rscale>  0 0.76584695E+03</rscale>
<asrwt>0</asrwt>
<pdfrwt beam="1">  1        2 0.48843747E+00 0.76584695E+03</pdfrwt>
<pdfrwt beam="2">  1       -2 0.10215257E+00 0.76584695E+03</pdfrwt>
<totfact> 0.11323109E+00</totfact>
</mgrwt>
</event>
<event>
 4    1  0.1701380E-008  0.1216350E+04  0.7818608E-02  0.9098664E-01
          2   -1    0    0  501    0  0.00000000000E+00  0.00000000000E+00  0.29044402508E+04  0.29044402508E+04  0.25500000000E-02 0. -1.
         -2   -1    0    0    0  501 -0.00000000000E+00 -0.00000000000E+00 -0.10511820793E+04  0.10511820793E+04  0.25500000000E-02 0.  1.
    8880022    1    1    2    0    0  0.84872426902E+03  0.85777839900E+03 -0.49327836115E+03  0.13125668978E+04  0.15294330000E+03 0.  0.
    8880022    1    1    2    0    0 -0.84872426902E+03 -0.85777839900E+03  0.23465365326E+04  0.26430554323E+04  0.15294330000E+03 0.  0.
<mgrwt>
<rscale>  0 0.12163504E+04</rscale>
<asrwt>0</asrwt>
<pdfrwt beam="1">  1        2 0.44683696E+00 0.12163504E+04</pdfrwt>
<pdfrwt beam="2">  1       -2 0.16172032E+00 0.12163504E+04</pdfrwt>
<totfact> 0.47874817E-01</totfact>
</mgrwt>
</event>
<event>
 4    1  0.1701380E-008  0.9944562E+03  0.7818608E-02  0.9314646E-01
          2   -1    0    0  501    0  0.00000000000E+00  0.00000000000E+00  0.14263537750E+04  0.14263537750E+04  0.25500000000E-02 0. -1.
         -2   -1    0    0    0  501 -0.00000000000E+00 -0.00000000000E+00 -0.78953979135E+03  0.78953979136E+03  0.25500000000E-02 0.  1.
    8880022    1    1    2    0    0  0.47984465078E+03  0.85749668314E+03  0.70515394715E+03  0.12190919541E+04  0.15294330000E+03 0.  0.
    8880022    1    1    2    0    0 -0.47984465078E+03 -0.85749668314E+03 -0.68339963504E+02  0.99680161221E+03  0.15294330000E+03 0.  0.
<mgrwt>
<rscale>  0 0.99445618E+03</rscale>
<asrwt>0</asrwt>
<pdfrwt beam="1">  1        2 0.21943904E+00 0.99445618E+03</pdfrwt>
<pdfrwt beam="2">  1       -2 0.12146766E+00 0.99445618E+03</pdfrwt>
<totfact> 0.71575803E+00</totfact>
</mgrwt>
</event>
<event>
 4    1  0.1701380E-008  0.4581445E+03  0.7818608E-02  0.1025321E+00
          2   -1    0    0  501    0  0.00000000000E+00  0.00000000000E+00  0.10750311722E+04  0.10750311722E+04  0.25500000000E-02 0. -1.
         -2   -1    0    0    0  501 -0.00000000000E+00 -0.00000000000E+00 -0.37472731938E+03  0.37472731939E+03  0.25500000000E-02 0.  1.
    8880022    1    1    2    0    0  0.41963084213E+03  0.10205227227E+03  0.85182025468E+03  0.96720944435E+03  0.15294330000E+03 0. -1.
    8880022    1    1    2    0    0 -0.41963084213E+03 -0.10205227227E+03 -0.15151640186E+03  0.48254904724E+03  0.15294330000E+03 0.  0.
<mgrwt>
<rscale>  0 0.45814448E+03</rscale>
<asrwt>0</asrwt>
<pdfrwt beam="1">  1        2 0.16538941E+00 0.45814448E+03</pdfrwt>
<pdfrwt beam="2">  1       -2 0.57650357E-01 0.45814448E+03</pdfrwt>
<totfact> 0.66661621E+01</totfact>
</mgrwt>
</event>
<event>
 4    1  0.1701380E-008  0.6848865E+03  0.7818608E-02  0.9743433E-01
          2   -1    0    0  501    0  0.00000000000E+00  0.00000000000E+00  0.14542024903E+04  0.14542024903E+04  0.25500000000E-02 0. -1.
         -2   -1    0    0    0  501 -0.00000000000E+00 -0.00000000000E+00 -0.66136339374E+03  0.66136339374E+03  0.25500000000E-02 0.  1.
    8880022    1    1    2    0    0  0.19017366513E+03 -0.63993115360E+03  0.11535129762E+04  0.13415147199E+04  0.15294330000E+03 0.  0.
    8880022    1    1    2    0    0 -0.19017366513E+03  0.63993115360E+03 -0.36067387968E+03  0.77405116417E+03  0.15294330000E+03 0.  0.
<mgrwt>
<rscale>  0 0.68488653E+03</rscale>
<asrwt>0</asrwt>
<pdfrwt beam="1">  1        2 0.22372346E+00 0.68488653E+03</pdfrwt>
<pdfrwt beam="2">  1       -2 0.10174822E+00 0.68488653E+03</pdfrwt>
<totfact> 0.11034136E+01</totfact>
</mgrwt>
</event>
<event>
 4    1  0.1701380E-008  0.4858376E+03  0.7818608E-02  0.1017543E+00
          2   -1    0    0  501    0  0.00000000000E+00  0.00000000000E+00  0.31359058316E+04  0.31359058316E+04  0.25500000000E-02 0. -1.
         -2   -1    0    0    0  501 -0.00000000000E+00 -0.00000000000E+00 -0.16299949422E+03  0.16299949424E+03  0.25500000000E-02 0.  1.
    8880022    1    1    2    0    0  0.42929683449E+03  0.16837672638E+03  0.27635469608E+03  0.55893654841E+03  0.15294330000E+03 0.  0.
    8880022    1    1    2    0    0 -0.42929683449E+03 -0.16837672638E+03  0.26965516413E+04  0.27399687775E+04  0.15294330000E+03 0.  0.
<mgrwt>
<rscale>  0 0.48583757E+03</rscale>
<asrwt>0</asrwt>
<pdfrwt beam="1">  1        2 0.48244706E+00 0.48583757E+03</pdfrwt>
<pdfrwt beam="2">  1       -2 0.25076845E-01 0.48583757E+03</pdfrwt>
<totfact> 0.22844833E+01</totfact>
</mgrwt>
</event>
<event>
 4    1  0.1701380E-008  0.1279958E+04  0.7818608E-02  0.9045611E-01
         -2   -1    0    0    0  501 -0.00000000000E+00  0.00000000000E+00  0.69241246217E+03  0.69241246217E+03  0.25500000000E-02 0.  1.
          2   -1    0    0  501    0  0.00000000000E+00 -0.00000000000E+00 -0.27068883155E+04  0.27068883155E+04  0.25500000000E-02 0. -1.
    8880022    1    1    2    0    0  0.11943263550E+04 -0.43414981376E+03 -0.16103372413E+04  0.20570559513E+04  0.15294330000E+03 0.  0.
    8880022    1    1    2    0    0 -0.11943263550E+04  0.43414981376E+03 -0.40413861204E+03  0.13422448264E+04  0.15294330000E+03 0.  0.
<mgrwt>
<rscale>  0 0.12799583E+04</rscale>
<asrwt>0</asrwt>
<pdfrwt beam="1">  1        2 0.41644435E+00 0.12799583E+04</pdfrwt>
<pdfrwt beam="2">  1       -2 0.10652500E+00 0.12799583E+04</pdfrwt>
<totfact> 0.18223506E+00</totfact>
</mgrwt>
</event>
<event>
 4    1  0.1701380E-008  0.9658642E+03  0.7818608E-02  0.9346798E-01
          2   -1    0    0  501    0  0.00000000000E+00  0.00000000000E+00  0.96072649095E+03  0.96072649096E+03  0.25500000000E-02 0. -1.
         -2   -1    0    0    0  501 -0.00000000000E+00 -0.00000000000E+00 -0.98683382405E+03  0.98683382406E+03  0.25500000000E-02 0.  1.
    8880022    1    1    2    0    0  0.50112163320E+03 -0.81140561224E+03 -0.13628724184E+03  0.97543212175E+03  0.15294330000E+03 0.  0.
    8880022    1    1    2    0    0 -0.50112163320E+03  0.81140561224E+03  0.11017990874E+03  0.97212819327E+03  0.15294330000E+03 0.  0.
<mgrwt>
<rscale>  0 0.96586418E+03</rscale>
<asrwt>0</asrwt>
<pdfrwt beam="1">  1        2 0.14780408E+00 0.96586418E+03</pdfrwt>
<pdfrwt beam="2">  1       -2 0.15182059E+00 0.96586418E+03</pdfrwt>
<totfact> 0.77084011E+00</totfact>
</mgrwt>
</event>
<event>
 4    1  0.1701380E-008  0.4921952E+03  0.7818608E-02  0.1015836E+00
         -2   -1    0    0    0  501 -0.00000000000E+00  0.00000000000E+00  0.11470563418E+04  0.11470563418E+04  0.25500000000E-02 0.  1.
          2   -1    0    0  501    0  0.00000000000E+00 -0.00000000000E+00 -0.10328044059E+04  0.10328044059E+04  0.25500000000E-02 0. -1.
    8880022    1    1    2    0    0  0.41975556681E+03  0.20656649433E+03  0.10292498216E+04  0.11408818084E+04  0.15294330000E+03 0.  1.
    8880022    1    1    2    0    0 -0.41975556681E+03 -0.20656649433E+03 -0.91499788571E+03  0.10389789393E+04  0.15294330000E+03 0.  0.
<mgrwt>
<rscale>  0 0.49219519E+03</rscale>
<asrwt>0</asrwt>
<pdfrwt beam="1">  1        2 0.15889299E+00 0.49219519E+03</pdfrwt>
<pdfrwt beam="2">  1       -2 0.17647021E+00 0.49219519E+03</pdfrwt>
<totfact> 0.49172076E+00</totfact>
</mgrwt>
</event>
<event>
 4    1  0.1701380E-008  0.1590766E+04  0.7818608E-02  0.8826241E-01
         -2   -1    0    0    0  501 -0.00000000000E+00  0.00000000000E+00  0.11587096555E+04  0.11587096555E+04  0.25500000000E-02 0.  1.
          2   -1    0    0  501    0  0.00000000000E+00 -0.00000000000E+00 -0.25437632239E+04  0.25437632239E+04  0.25500000000E-02 0. -1.
    8880022    1    1    2    0    0 -0.14943545704E+04 -0.52349737479E+03  0.37409707498E+01  0.15907704836E+04  0.15294330000E+03 0.  0.
    8880022    1    1    2    0    0  0.14943545704E+04  0.52349737479E+03 -0.13887945392E+04  0.21117023959E+04  0.15294330000E+03 0.  0.
<mgrwt>
<rscale>  0 0.15907661E+04</rscale>
<asrwt>0</asrwt>
<pdfrwt beam="1">  1        2 0.39134819E+00 0.15907661E+04</pdfrwt>
<pdfrwt beam="2">  1       -2 0.17826302E+00 0.15907661E+04</pdfrwt>
<totfact> 0.57086443E-01</totfact>
</mgrwt>
</event>
<event>
 4    1  0.1701380E-008  0.1387175E+04  0.7818608E-02  0.8963154E-01
          2   -1    0    0  501    0  0.00000000000E+00  0.00000000000E+00  0.22054292748E+04  0.22054292748E+04  0.25500000000E-02 0. -1.
         -2   -1    0    0    0  501 -0.00000000000E+00 -0.00000000000E+00 -0.14037422086E+04  0.14037422086E+04  0.25500000000E-02 0.  1.
    8880022    1    1    2    0    0  0.11608733181E+04  0.74379915664E+03  0.15109807722E+04  0.20511749300E+04  0.15294330000E+03 0.  0.
    8880022    1    1    2    0    0 -0.11608733181E+04 -0.74379915664E+03 -0.70929370606E+03  0.15579965535E+04  0.15294330000E+03 0.  0.
<mgrwt>
<rscale>  0 0.13871754E+04</rscale>
<asrwt>0</asrwt>
<pdfrwt beam="1">  1        2 0.33929681E+00 0.13871754E+04</pdfrwt>
<pdfrwt beam="2">  1       -2 0.21596034E+00 0.13871754E+04</pdfrwt>
<totfact> 0.51093808E-01</totfact>
</mgrwt>
</event>
<event>
 4    1  0.1701380E-008  0.1486360E+04  0.7818608E-02  0.8893574E-01
         -2   -1    0    0    0  501 -0.00000000000E+00  0.00000000000E+00  0.12875733562E+04  0.12875733562E+04  0.25500000000E-02 0.  1.
          2   -1    0    0  501    0  0.00000000000E+00 -0.00000000000E+00 -0.26641231917E+04  0.26641231917E+04  0.25500000000E-02 0. -1.
    8880022    1    1    2    0    0 -0.93362853001E+03 -0.11463912114E+04 -0.18670909425E+04  0.23864817792E+04  0.15294330000E+03 0.  0.
    8880022    1    1    2    0    0  0.93362853001E+03  0.11463912114E+04  0.49054110698E+03  0.15652147688E+04  0.15294330000E+03 0.  0.
<mgrwt>
<rscale>  0 0.14863602E+04</rscale>
<asrwt>0</asrwt>
<pdfrwt beam="1">  1        2 0.40986510E+00 0.14863602E+04</pdfrwt>
<pdfrwt beam="2">  1       -2 0.19808821E+00 0.14863602E+04</pdfrwt>
<totfact> 0.35972156E-01</totfact>
</mgrwt>
</event>
<event>
 4    1  0.1701380E-008  0.6107696E+03  0.7818608E-02  0.9883311E-01
         -2   -1    0    0    0  501 -0.00000000000E+00  0.00000000000E+00  0.13072521284E+04  0.13072521284E+04  0.25500000000E-02 0.  1.
          2   -1    0    0  501    0  0.00000000000E+00 -0.00000000000E+00 -0.10727807784E+04  0.10727807784E+04  0.25500000000E-02 0. -1.
    8880022    1    1    2    0    0  0.48775830607E+03 -0.33427479017E+03  0.11367668046E+04  0.12904565942E+04  0.15294330000E+03 0.  0.
    8880022    1    1    2    0    0 -0.48775830607E+03  0.33427479017E+03 -0.90229545459E+03  0.10895763126E+04  0.15294330000E+03 0.  0.
<mgrwt>
<rscale>  0 0.61076956E+03</rscale>
<asrwt>0</asrwt>
<pdfrwt beam="1">  1        2 0.16504320E+00 0.61076956E+03</pdfrwt>
<pdfrwt beam="2">  1       -2 0.20111571E+00 0.61076956E+03</pdfrwt>
<totfact> 0.31100957E+00</totfact>
</mgrwt>
</event>
<event>
 4    1  0.1701380E-008  0.3991362E+03  0.7818608E-02  0.1044079E+00
          2   -1    0    0  501    0  0.00000000000E+00  0.00000000000E+00  0.10761493028E+04  0.10761493028E+04  0.25500000000E-02 0. -1.
         -2   -1    0    0    0  501 -0.00000000000E+00 -0.00000000000E+00 -0.71260855198E+03  0.71260855198E+03  0.25500000000E-02 0.  1.
    8880022    1    1    2    0    0 -0.30831732457E+03 -0.20213472530E+03 -0.61430762968E+03  0.73258687996E+03  0.15294330000E+03 0.  0.
    8880022    1    1    2    0    0  0.30831732457E+03  0.20213472530E+03  0.97784838053E+03  0.10561709749E+04  0.15294330000E+03 0.  0.
<mgrwt>
<rscale>  0 0.39913616E+03</rscale>
<asrwt>0</asrwt>
<pdfrwt beam="1">  1        2 0.16556143E+00 0.39913616E+03</pdfrwt>
<pdfrwt beam="2">  1       -2 0.10963208E+00 0.39913616E+03</pdfrwt>
<totfact> 0.16035467E+01</totfact>
</mgrwt>
</event>
<event>
 4    1  0.1701380E-008  0.7513865E+03  0.7818608E-02  0.9633178E-01
         -2   -1    0    0    0  501 -0.00000000000E+00  0.00000000000E+00  0.52618070720E+03  0.52618070720E+03  0.25500000000E-02 0.  1.
          2   -1    0    0  501    0  0.00000000000E+00 -0.00000000000E+00 -0.28353566133E+04  0.28353566133E+04  0.25500000000E-02 0. -1.
    8880022    1    1    2    0    0 -0.71681421660E+03 -0.16543085306E+03  0.17052651288E+03  0.77049395382E+03  0.15294330000E+03 0.  0.
    8880022    1    1    2    0    0  0.71681421660E+03  0.16543085306E+03 -0.24797024189E+04  0.25910433666E+04  0.15294330000E+03 0.  0.
<mgrwt>
<rscale>  0 0.75138648E+03</rscale>
<asrwt>0</asrwt>
<pdfrwt beam="1">  1        2 0.43620870E+00 0.75138648E+03</pdfrwt>
<pdfrwt beam="2">  1       -2 0.80950880E-01 0.75138648E+03</pdfrwt>
<totfact> 0.31427197E+00</totfact>
</mgrwt>
</event>
<event>
 4    1  0.1701380E-008  0.9467134E+03  0.7818608E-02  0.9369000E-01
         -2   -1    0    0    0  501 -0.00000000000E+00  0.00000000000E+00  0.79950978887E+03  0.79950978887E+03  0.25500000000E-02 0.  1.
          2   -1    0    0  501    0  0.00000000000E+00 -0.00000000000E+00 -0.28209776450E+04  0.28209776450E+04  0.25500000000E-02 0. -1.
    8880022    1    1    2    0    0  0.70095622689E+03  0.61768520539E+03  0.39452483894E+03  0.10256296342E+04  0.15294330000E+03 0.  0.
    8880022    1    1    2    0    0 -0.70095622689E+03 -0.61768520539E+03 -0.24159926950E+04  0.25948577997E+04  0.15294330000E+03 0.  0.
<mgrwt>
<rscale>  0 0.94671342E+03</rscale>
<asrwt>0</asrwt>
<pdfrwt beam="1">  1        2 0.43399656E+00 0.94671342E+03</pdfrwt>
<pdfrwt beam="2">  1       -2 0.12300151E+00 0.94671342E+03</pdfrwt>
<totfact> 0.11464731E+00</totfact>
</mgrwt>
</event>
<event>
 4    1  0.1701380E-008  0.9356012E+03  0.7818608E-02  0.9382141E-01
          2   -1    0    0  501    0  0.00000000000E+00  0.00000000000E+00  0.95348241856E+03  0.95348241857E+03  0.25500000000E-02 0. -1.
         -2   -1    0    0    0  501 -0.00000000000E+00 -0.00000000000E+00 -0.11164019613E+04  0.11164019613E+04  0.25500000000E-02 0.  1.
    8880022    1    1    2    0    0  0.89195995652E+03 -0.23741400108E+03  0.35477291215E+03  0.10006065381E+04  0.15294330000E+03 0.  0.
    8880022    1    1    2    0    0 -0.89195995652E+03  0.23741400108E+03 -0.51769245485E+03  0.10692778417E+04  0.15294330000E+03 0.  0.
<mgrwt>
<rscale>  0 0.93560121E+03</rscale>
<asrwt>0</asrwt>
<pdfrwt beam="1">  1        2 0.14668960E+00 0.93560121E+03</pdfrwt>
<pdfrwt beam="2">  1       -2 0.17175415E+00 0.93560121E+03</pdfrwt>
<totfact> 0.55810445E+00</totfact>
</mgrwt>
</event>
<event>
 4    1  0.1701380E-008  0.8493388E+03  0.7818608E-02  0.9491225E-01
          2   -1    0    0  501    0  0.00000000000E+00  0.00000000000E+00  0.65866062044E+03  0.65866062044E+03  0.25500000000E-02 0. -1.
         -2   -1    0    0    0  501 -0.00000000000E+00 -0.00000000000E+00 -0.19106228683E+04  0.19106228683E+04  0.25500000000E-02 0.  1.
    8880022    1    1    2    0    0 -0.44424349257E+03  0.70755387800E+03 -0.14652119241E+04  0.16935827132E+04  0.15294330000E+03 0.  1.
    8880022    1    1    2    0    0  0.44424349257E+03 -0.70755387800E+03  0.21324967618E+03  0.87570077559E+03  0.15294330000E+03 0.  0.
<mgrwt>
<rscale>  0 0.84933882E+03</rscale>
<asrwt>0</asrwt>
<pdfrwt beam="1">  1        2 0.10133240E+00 0.84933882E+03</pdfrwt>
<pdfrwt beam="2">  1       -2 0.29394198E+00 0.84933882E+03</pdfrwt>
<totfact> 0.15694996E+00</totfact>
</mgrwt>
</event>
<event>
 4    1  0.1701380E-008  0.1789846E+04  0.7818608E-02  0.8711718E-01
         -2   -1    0    0    0  501 -0.00000000000E+00  0.00000000000E+00  0.86206788446E+03  0.86206788446E+03  0.25500000000E-02 0.  1.
          2   -1    0    0  501    0  0.00000000000E+00 -0.00000000000E+00 -0.41097677869E+04  0.41097677869E+04  0.25500000000E-02 0. -1.
    8880022    1    1    2    0    0  0.10078319093E+04  0.14712002291E+04 -0.85448475535E+03  0.19833535040E+04  0.15294330000E+03 0.  0.
    8880022    1    1    2    0    0 -0.10078319093E+04 -0.14712002291E+04 -0.23932151471E+04  0.29884821674E+04  0.15294330000E+03 0.  0.
<mgrwt>
<rscale>  0 0.17898455E+04</rscale>
<asrwt>0</asrwt>
<pdfrwt beam="1">  1        2 0.63227195E+00 0.17898455E+04</pdfrwt>
<pdfrwt beam="2">  1       -2 0.13262583E+00 0.17898455E+04</pdfrwt>
<totfact> 0.10671530E-01</totfact>
</mgrwt>
</event>
<event>
 4    1  0.1701380E-008  0.1746802E+04  0.7818608E-02  0.8735113E-01
         -2   -1    0    0    0  501 -0.00000000000E+00  0.00000000000E+00  0.27943051225E+04  0.27943051225E+04  0.25500000000E-02 0.  1.
          2   -1    0    0  501    0  0.00000000000E+00 -0.00000000000E+00 -0.17101183005E+04  0.17101183005E+04  0.25500000000E-02 0. -1.
    8880022    1    1    2    0    0 -0.69070496859E+02  0.17387220525E+04 -0.81197322232E+03  0.19262962586E+04  0.15294330000E+03 0.  0.
    8880022    1    1    2    0    0  0.69070496859E+02 -0.17387220525E+04  0.18961600443E+04  0.25781271644E+04  0.15294330000E+03 0.  0.
<mgrwt>
<rscale>  0 0.17468019E+04</rscale>
<asrwt>0</asrwt>
<pdfrwt beam="1">  1        2 0.26309513E+00 0.17468019E+04</pdfrwt>
<pdfrwt beam="2">  1       -2 0.42989309E+00 0.17468019E+04</pdfrwt>
<totfact> 0.41648685E-02</totfact>
</mgrwt>
</event>
<event>
 4    1  0.1701380E-008  0.8611055E+03  0.7818608E-02  0.9475552E-01
         -2   -1    0    0    0  501 -0.00000000000E+00  0.00000000000E+00  0.19057192407E+04  0.19057192407E+04  0.25500000000E-02 0.  1.
          2   -1    0    0  501    0  0.00000000000E+00 -0.00000000000E+00 -0.96688970947E+03  0.96688970947E+03  0.25500000000E-02 0. -1.
    8880022    1    1    2    0    0 -0.83971643934E+03 -0.11396196655E+03  0.15797278189E+04  0.17991783300E+04  0.15294330000E+03 0.  0.
    8880022    1    1    2    0    0  0.83971643934E+03  0.11396196655E+03 -0.64089828762E+03  0.10734306202E+04  0.15294330000E+03 0.  0.
<mgrwt>
<rscale>  0 0.86110550E+03</rscale>
<asrwt>0</asrwt>
<pdfrwt beam="1">  1        2 0.14875226E+00 0.86110550E+03</pdfrwt>
<pdfrwt beam="2">  1       -2 0.29318758E+00 0.86110550E+03</pdfrwt>
<totfact> 0.94814588E-01</totfact>
</mgrwt>
</event>
<event>
 4    1  0.1701380E-008  0.1006638E+04  0.7818608E-02  0.9301294E-01
          2   -1    0    0  501    0  0.00000000000E+00  0.00000000000E+00  0.39946016900E+04  0.39946016900E+04  0.25500000000E-02 0. -1.
         -2   -1    0    0    0  501 -0.00000000000E+00 -0.00000000000E+00 -0.42396044740E+03  0.42396044741E+03  0.25500000000E-02 0.  1.
    8880022    1    1    2    0    0 -0.46080562299E+03 -0.88180895951E+03  0.31854890517E+04  0.33407575510E+04  0.15294330000E+03 0.  0.
    8880022    1    1    2    0    0  0.46080562299E+03  0.88180895951E+03  0.38515219091E+03  0.10778045864E+04  0.15294330000E+03 0.  0.
<mgrwt>
<rscale>  0 0.10066382E+04</rscale>
<asrwt>0</asrwt>
<pdfrwt beam="1">  1        2 0.61455410E+00 0.10066382E+04</pdfrwt>
<pdfrwt beam="2">  1       -2 0.65224685E-01 0.10066382E+04</pdfrwt>
<totfact> 0.78821880E-01</totfact>
</mgrwt>
</event>
<event>
 4    1  0.1701380E-008  0.3007602E+03  0.7818608E-02  0.1084861E+00
         -2   -1    0    0    0  501 -0.00000000000E+00  0.00000000000E+00  0.78832585287E+03  0.78832585288E+03  0.25500000000E-02 0.  1.
          2   -1    0    0  501    0  0.00000000000E+00 -0.00000000000E+00 -0.28338840683E+04  0.28338840683E+04  0.25500000000E-02 0. -1.
    8880022    1    1    2    0    0  0.25866463976E+03  0.12556647617E+02 -0.27968389406E+04  0.28129637001E+04  0.15294330000E+03 0.  0.
    8880022    1    1    2    0    0 -0.25866463976E+03 -0.12556647617E+02  0.75128072520E+03  0.80924622108E+03  0.15294330000E+03 0.  0.
<mgrwt>
<rscale>  0 0.30076023E+03</rscale>
<asrwt>0</asrwt>
<pdfrwt beam="1">  1        2 0.43598216E+00 0.30076023E+03</pdfrwt>
<pdfrwt beam="2">  1       -2 0.12128090E+00 0.30076023E+03</pdfrwt>
<totfact> 0.14122702E+00</totfact>
</mgrwt>
</event>
<event>
 4    1  0.1701380E-008  0.6002754E+03  0.7818608E-02  0.9904835E-01
         -2   -1    0    0    0  501 -0.00000000000E+00  0.00000000000E+00  0.93823590318E+03  0.93823590318E+03  0.25500000000E-02 0.  1.
          2   -1    0    0  501    0  0.00000000000E+00 -0.00000000000E+00 -0.17294038484E+04  0.17294038484E+04  0.25500000000E-02 0. -1.
    8880022    1    1    2    0    0 -0.10570931132E+03 -0.57075775882E+03  0.78084865077E+03  0.98491377601E+03  0.15294330000E+03 0.  0.
    8880022    1    1    2    0    0  0.10570931132E+03  0.57075775882E+03 -0.15720165960E+04  0.16827259756E+04  0.15294330000E+03 0.  0.
<mgrwt>
<rscale>  0 0.60027538E+03</rscale>
<asrwt>0</asrwt>
<pdfrwt beam="1">  1        2 0.26606213E+00 0.60027538E+03</pdfrwt>
<pdfrwt beam="2">  1       -2 0.14434399E+00 0.60027538E+03</pdfrwt>
<totfact> 0.33209399E+00</totfact>
</mgrwt>
</event>
<event>
 4    1  0.1701380E-008  0.6980407E+03  0.7818608E-02  0.9720589E-01
          2   -1    0    0  501    0  0.00000000000E+00  0.00000000000E+00  0.31360154991E+04  0.31360154991E+04  0.25500000000E-02 0. -1.
         -2   -1    0    0    0  501 -0.00000000000E+00 -0.00000000000E+00 -0.14084969028E+04  0.14084969028E+04  0.25500000000E-02 0.  1.
    8880022    1    1    2    0    0 -0.33152157920E+03  0.59494758328E+03  0.30070243152E+04  0.30869817086E+04  0.15294330000E+03 0.  0.
    8880022    1    1    2    0    0  0.33152157920E+03 -0.59494758328E+03 -0.12795057188E+04  0.14575306933E+04  0.15294330000E+03 0.  1.
<mgrwt>
<rscale>  0 0.69804071E+03</rscale>
<asrwt>0</asrwt>
<pdfrwt beam="1">  1        2 0.48246393E+00 0.69804071E+03</pdfrwt>
<pdfrwt beam="2">  1       -2 0.21669183E+00 0.69804071E+03</pdfrwt>
<totfact> 0.16290059E-01</totfact>
</mgrwt>
</event>
<event>
 4    1  0.1701380E-008  0.1711368E+04  0.7818608E-02  0.8754907E-01
         -2   -1    0    0    0  501 -0.00000000000E+00  0.00000000000E+00  0.17027830329E+04  0.17027830329E+04  0.25500000000E-02 0.  1.
          2   -1    0    0  501    0  0.00000000000E+00 -0.00000000000E+00 -0.30199947967E+04  0.30199947967E+04  0.25500000000E-02 0. -1.
    8880022    1    1    2    0    0 -0.29763866017E+03  0.16783323308E+04 -0.22079072859E+04  0.27934985987E+04  0.15294330000E+03 0.  0.
    8880022    1    1    2    0    0  0.29763866017E+03 -0.16783323308E+04  0.89069552209E+03  0.19292792309E+04  0.15294330000E+03 0.  0.
<mgrwt>
<rscale>  0 0.17113678E+04</rscale>
<asrwt>0</asrwt>
<pdfrwt beam="1">  1        2 0.46461458E+00 0.17113678E+04</pdfrwt>
<pdfrwt beam="2">  1       -2 0.26196662E+00 0.17113678E+04</pdfrwt>
<totfact> 0.84057325E-02</totfact>
</mgrwt>
</event>
<event>
 4    1  0.1701380E-008  0.1538308E+04  0.7818608E-02  0.8859371E-01
          2   -1    0    0  501    0  0.00000000000E+00  0.00000000000E+00  0.14831302576E+04  0.14831302576E+04  0.25500000000E-02 0. -1.
         -2   -1    0    0    0  501 -0.00000000000E+00 -0.00000000000E+00 -0.21241071839E+04  0.21241071839E+04  0.25500000000E-02 0.  1.
    8880022    1    1    2    0    0  0.96112493543E+03  0.11913176552E+04 -0.12202086770E+04  0.19634917279E+04  0.15294330000E+03 0.  0.
    8880022    1    1    2    0    0 -0.96112493543E+03 -0.11913176552E+04  0.57923175067E+03  0.16437457136E+04  0.15294330000E+03 0.  0.
<mgrwt>
<rscale>  0 0.15383077E+04</rscale>
<asrwt>0</asrwt>
<pdfrwt beam="1">  1        2 0.22817388E+00 0.15383077E+04</pdfrwt>
<pdfrwt beam="2">  1       -2 0.32678572E+00 0.15383077E+04</pdfrwt>
<totfact> 0.26447848E-01</totfact>
</mgrwt>
</event>
<event>
 4    1  0.1701380E-008  0.6350179E+03  0.7818608E-02  0.9835305E-01
          2   -1    0    0  501    0  0.00000000000E+00  0.00000000000E+00  0.23047101917E+04  0.23047101917E+04  0.25500000000E-02 0. -1.
         -2   -1    0    0    0  501 -0.00000000000E+00 -0.00000000000E+00 -0.22709137952E+03  0.22709137953E+03  0.25500000000E-02 0.  1.
    8880022    1    1    2    0    0  0.58551231257E+03  0.19243556609E+03  0.43232362215E+03  0.76821317520E+03  0.15294330000E+03 0.  0.
    8880022    1    1    2    0    0 -0.58551231257E+03 -0.19243556609E+03  0.16452951900E+04  0.17635883960E+04  0.15294330000E+03 0.  0.
<mgrwt>
<rscale>  0 0.63501793E+03</rscale>
<asrwt>0</asrwt>
<pdfrwt beam="1">  1        2 0.35457080E+00 0.63501793E+03</pdfrwt>
<pdfrwt beam="2">  1       -2 0.34937135E-01 0.63501793E+03</pdfrwt>
<totfact> 0.36563091E+01</totfact>
</mgrwt>
</event>
<event>
 4    1  0.1701380E-008  0.1231094E+04  0.7818608E-02  0.9086067E-01
         -2   -1    0    0    0  501 -0.00000000000E+00  0.00000000000E+00  0.62159367256E+03  0.62159367257E+03  0.25500000000E-02 0.  1.
          2   -1    0    0  501    0  0.00000000000E+00 -0.00000000000E+00 -0.25241557214E+04  0.25241557214E+04  0.25500000000E-02 0. -1.
    8880022    1    1    2    0    0 -0.11241396651E+04 -0.47802868204E+03 -0.12414683610E+04  0.17483811803E+04  0.15294330000E+03 0.  0.
    8880022    1    1    2    0    0  0.11241396651E+04  0.47802868204E+03 -0.66109368790E+03  0.13973682137E+04  0.15294330000E+03 0.  0.
<mgrwt>
<rscale>  0 0.12310943E+04</rscale>
<asrwt>0</asrwt>
<pdfrwt beam="1">  1        2 0.38833164E+00 0.12310943E+04</pdfrwt>
<pdfrwt beam="2">  1       -2 0.95629797E-01 0.12310943E+04</pdfrwt>
<totfact> 0.30336326E+00</totfact>
</mgrwt>
</event>
<event>
 4    1  0.1701380E-008  0.1518638E+04  0.7818608E-02  0.8872153E-01
         -2   -1    0    0    0  501 -0.00000000000E+00  0.00000000000E+00  0.86478369854E+03  0.86478369855E+03  0.25500000000E-02 0.  1.
          2   -1    0    0  501    0  0.00000000000E+00 -0.00000000000E+00 -0.32549668243E+04  0.32549668243E+04  0.25500000000E-02 0. -1.
    8880022    1    1    2    0    0  0.13734978094E+04  0.62958200103E+03 -0.31951545862E+03  0.15518864359E+04  0.15294330000E+03 0.  0.
    8880022    1    1    2    0    0 -0.13734978094E+04 -0.62958200103E+03 -0.20706676672E+04  0.25678640870E+04  0.15294330000E+03 0.  0.
<mgrwt>
<rscale>  0 0.15186380E+04</rscale>
<asrwt>0</asrwt>
<pdfrwt beam="1">  1        2 0.50076412E+00 0.15186380E+04</pdfrwt>
<pdfrwt beam="2">  1       -2 0.13304365E+00 0.15186380E+04</pdfrwt>
<totfact> 0.46455377E-01</totfact>
</mgrwt>
</event>
<event>
 4    1  0.1701380E-008  0.8352315E+03  0.7818608E-02  0.9510376E-01
         -2   -1    0    0    0  501 -0.00000000000E+00  0.00000000000E+00  0.43109858119E+03  0.43109858120E+03  0.25500000000E-02 0.  1.
          2   -1    0    0  501    0  0.00000000000E+00 -0.00000000000E+00 -0.38987618370E+04  0.38987618370E+04  0.25500000000E-02 0. -1.
    8880022    1    1    2    0    0  0.54837493963E+03  0.61115043464E+03 -0.78062662315E+02  0.83887148029E+03  0.15294330000E+03 0.  0.
    8880022    1    1    2    0    0 -0.54837493963E+03 -0.61115043464E+03 -0.33896005935E+04  0.34909889379E+04  0.15294330000E+03 0.  0.
<mgrwt>
<rscale>  0 0.83523145E+03</rscale>
<asrwt>0</asrwt>
<pdfrwt beam="1">  1        2 0.59980949E+00 0.83523145E+03</pdfrwt>
<pdfrwt beam="2">  1       -2 0.66322861E-01 0.83523145E+03</pdfrwt>
<totfact> 0.93482699E-01</totfact>
</mgrwt>
</event>
<event>
 4    1  0.1701380E-008  0.1289970E+04  0.7818608E-02  0.9037557E-01
         -2   -1    0    0    0  501 -0.00000000000E+00  0.00000000000E+00  0.16552823305E+04  0.16552823305E+04  0.25500000000E-02 0.  1.
          2   -1    0    0  501    0  0.00000000000E+00 -0.00000000000E+00 -0.10895124865E+04  0.10895124865E+04  0.25500000000E-02 0. -1.
    8880022    1    1    2    0    0 -0.31346859108E+03  0.12419212003E+04 -0.98710532945E+02  0.12937411827E+04  0.15294330000E+03 0.  0.
    8880022    1    1    2    0    0  0.31346859108E+03 -0.12419212003E+04  0.66448037701E+03  0.14510536344E+04  0.15294330000E+03 0.  0.
<mgrwt>
<rscale>  0 0.12899700E+04</rscale>
<asrwt>0</asrwt>
<pdfrwt beam="1">  1        2 0.16761731E+00 0.12899700E+04</pdfrwt>
<pdfrwt beam="2">  1       -2 0.25465882E+00 0.12899700E+04</pdfrwt>
<totfact> 0.12832648E+00</totfact>
</mgrwt>
</event>
<event>
 4    1  0.1701380E-008  0.3160643E+03  0.7818608E-02  0.1077475E+00
         -2   -1    0    0    0  501 -0.00000000000E+00  0.00000000000E+00  0.12486190844E+04  0.12486190844E+04  0.25500000000E-02 0.  1.
          2   -1    0    0  501    0  0.00000000000E+00 -0.00000000000E+00 -0.30545074014E+03  0.30545074015E+03  0.25500000000E-02 0. -1.
    8880022    1    1    2    0    0 -0.24435808018E+03 -0.12959211019E+03 -0.19597579911E+03  0.37189131910E+03  0.15294330000E+03 0.  0.
    8880022    1    1    2    0    0  0.24435808018E+03  0.12959211019E+03  0.11391441434E+04  0.11821785055E+04  0.15294330000E+03 0.  1.
<mgrwt>
<rscale>  0 0.31606430E+03</rscale>
<asrwt>0</asrwt>
<pdfrwt beam="1">  1        2 0.46992421E-01 0.31606430E+03</pdfrwt>
<pdfrwt beam="2">  1       -2 0.19209525E+00 0.31606430E+03</pdfrwt>
<totfact> 0.17359897E+01</totfact>
</mgrwt>
</event>
<event>
 4    1  0.2817400E-008  0.2952342E+04  0.7818608E-02  0.8257472E-01
         -2   -1    0    0    0  501 -0.00000000000E+00  0.00000000000E+00  0.33012857531E+04  0.33012857531E+04  0.25500000000E-02 0.  1.
          2   -1    0    0  501    0  0.00000000000E+00 -0.00000000000E+00 -0.34834444618E+04  0.34834444618E+04  0.25500000000E-02 0. -1.
    8880022    1    1    2    0    0  0.10685406342E+04 -0.27479364754E+04 -0.17600694266E+04  0.34371747118E+04  0.15294330000E+03 0.  0.
    8880022    1    1    2    0    0 -0.10685406342E+04  0.27479364754E+04  0.15779107179E+04  0.33475555031E+04  0.15294330000E+03 0.  0.
<mgrwt>
<rscale>  0 0.29523424E+04</rscale>
<asrwt>0</asrwt>
<pdfrwt beam="1">  1        2 0.53591453E+00 0.29523424E+04</pdfrwt>
<pdfrwt beam="2">  1       -2 0.50789011E+00 0.29523424E+04</pdfrwt>
<totfact> 0.96877611E-04</totfact>
</mgrwt>
</event>
<event>
 4    1  0.1701380E-008  0.2706028E+03  0.7818608E-02  0.1100935E+00
          2   -1    0    0  501    0  0.00000000000E+00  0.00000000000E+00  0.12131811639E+04  0.12131811639E+04  0.25500000000E-02 0. -1.
         -2   -1    0    0    0  501 -0.00000000000E+00 -0.00000000000E+00 -0.12536603655E+03  0.12536603657E+03  0.25500000000E-02 0.  1.
    8880022    1    1    2    0    0  0.22121668617E+03 -0.29956387022E+02  0.10258502806E+04  0.10609404595E+04  0.15294330000E+03 0. -1.
    8880022    1    1    2    0    0 -0.22121668617E+03  0.29956387022E+02  0.61964846689E+02  0.27760674092E+03  0.15294330000E+03 0.  0.
<mgrwt>
<rscale>  0 0.27060277E+03</rscale>
<asrwt>0</asrwt>
<pdfrwt beam="1">  1        2 0.18664326E+00 0.27060277E+03</pdfrwt>
<pdfrwt beam="2">  1       -2 0.19287082E-01 0.27060277E+03</pdfrwt>
<totfact> 0.44191415E+02</totfact>
</mgrwt>
</event>
<event>
 4    1  0.1701380E-008  0.3585091E+03  0.7818608E-02  0.1059176E+00
          2   -1    0    0  501    0  0.00000000000E+00  0.00000000000E+00  0.23163482206E+04  0.23163482206E+04  0.25500000000E-02 0. -1.
         -2   -1    0    0    0  501 -0.00000000000E+00 -0.00000000000E+00 -0.38869093507E+03  0.38869093508E+03  0.25500000000E-02 0.  1.
    8880022    1    1    2    0    0 -0.13473167530E+03  0.29493129197E+03 -0.28843561290E+03  0.46013459673E+03  0.15294330000E+03 0.  0.
    8880022    1    1    2    0    0  0.13473167530E+03 -0.29493129197E+03  0.22160928984E+04  0.22449045589E+04  0.15294330000E+03 0. -1.
<mgrwt>
<rscale>  0 0.35850906E+03</rscale>
<asrwt>0</asrwt>
<pdfrwt beam="1">  1        2 0.35636126E+00 0.35850906E+03</pdfrwt>
<pdfrwt beam="2">  1       -2 0.59798606E-01 0.35850906E+03</pdfrwt>
<totfact> 0.13195408E+01</totfact>
</mgrwt>
</event>
<event>
 4    1  0.1701380E-008  0.1183919E+04  0.7818608E-02  0.9127050E-01
         -2   -1    0    0    0  501 -0.00000000000E+00  0.00000000000E+00  0.78079987867E+03  0.78079987868E+03  0.25500000000E-02 0.  1.
          2   -1    0    0  501    0  0.00000000000E+00 -0.00000000000E+00 -0.19567283707E+04  0.19567283707E+04  0.25500000000E-02 0. -1.
    8880022    1    1    2    0    0  0.11738571450E+04 -0.18239394068E+02 -0.98127358587E+03  0.15377134895E+04  0.15294330000E+03 0.  0.
    8880022    1    1    2    0    0 -0.11738571450E+04  0.18239394068E+02 -0.19465490611E+03  0.11998147598E+04  0.15294330000E+03 0.  0.
<mgrwt>
<rscale>  0 0.11839193E+04</rscale>
<asrwt>0</asrwt>
<pdfrwt beam="1">  1        2 0.30103513E+00 0.11839193E+04</pdfrwt>
<pdfrwt beam="2">  1       -2 0.12012306E+00 0.11839193E+04</pdfrwt>
<totfact> 0.36569455E+00</totfact>
</mgrwt>
</event>
<event>
 4    1  0.1701380E-008  0.3981489E+03  0.7818608E-02  0.1044423E+00
          2   -1    0    0  501    0  0.00000000000E+00  0.00000000000E+00  0.11660759173E+04  0.11660759173E+04  0.25500000000E-02 0. -1.
         -2   -1    0    0    0  501 -0.00000000000E+00 -0.00000000000E+00 -0.38084870123E+03  0.38084870124E+03  0.25500000000E-02 0.  1.
    8880022    1    1    2    0    0  0.13493501063E+03  0.34194068655E+03  0.10128543953E+04  0.10882998526E+04  0.15294330000E+03 0.  0.
    8880022    1    1    2    0    0 -0.13493501063E+03 -0.34194068655E+03 -0.22762717917E+03  0.45862476593E+03  0.15294330000E+03 0.  0.
<mgrwt>
<rscale>  0 0.39814890E+03</rscale>
<asrwt>0</asrwt>
<pdfrwt beam="1">  1        2 0.17939630E+00 0.39814890E+03</pdfrwt>
<pdfrwt beam="2">  1       -2 0.58592108E-01 0.39814890E+03</pdfrwt>
<totfact> 0.57415765E+01</totfact>
</mgrwt>
</event>
<event>
 4    1  0.1701380E-008  0.1116508E+04  0.7818608E-02  0.9189250E-01
         -2   -1    0    0    0  501 -0.00000000000E+00  0.00000000000E+00  0.77426260095E+03  0.77426260096E+03  0.25500000000E-02 0.  1.
          2   -1    0    0  501    0  0.00000000000E+00 -0.00000000000E+00 -0.17758839235E+04  0.17758839235E+04  0.25500000000E-02 0. -1.
    8880022    1    1    2    0    0 -0.66292552201E+03 -0.88528371879E+03 -0.11115104143E+03  0.11220266118E+04  0.15294330000E+03 0.  0.
    8880022    1    1    2    0    0  0.66292552201E+03  0.88528371879E+03 -0.89047028113E+03  0.14281199127E+04  0.15294330000E+03 0.  0.
<mgrwt>
<rscale>  0 0.11165076E+04</rscale>
<asrwt>0</asrwt>
<pdfrwt beam="1">  1        2 0.27321291E+00 0.11165076E+04</pdfrwt>
<pdfrwt beam="2">  1       -2 0.11911732E+00 0.11165076E+04</pdfrwt>
<totfact> 0.47342831E+00</totfact>
</mgrwt>
</event>
<event>
 4    1  0.1701380E-008  0.8244370E+03  0.7818608E-02  0.9525304E-01
          2   -1    0    0  501    0  0.00000000000E+00  0.00000000000E+00  0.26094261742E+04  0.26094261742E+04  0.25500000000E-02 0. -1.
         -2   -1    0    0    0  501 -0.00000000000E+00 -0.00000000000E+00 -0.86853677092E+03  0.86853677092E+03  0.25500000000E-02 0.  1.
    8880022    1    1    2    0    0 -0.72012011573E+03  0.37112215247E+03 -0.58459176703E+03  0.10106650386E+04  0.15294330000E+03 0.  0.
    8880022    1    1    2    0    0  0.72012011573E+03 -0.37112215247E+03  0.23254811703E+04  0.24672979065E+04  0.15294330000E+03 0.  0.
<mgrwt>
<rscale>  0 0.82443695E+03</rscale>
<asrwt>0</asrwt>
<pdfrwt beam="1">  1        2 0.40145017E+00 0.82443695E+03</pdfrwt>
<pdfrwt beam="2">  1       -2 0.13362104E+00 0.82443695E+03</pdfrwt>
<totfact> 0.12647679E+00</totfact>
</mgrwt>
</event>
<event>
 4    1  0.1701380E-008  0.9473733E+03  0.7818608E-02  0.9368226E-01
         -2   -1    0    0    0  501 -0.00000000000E+00  0.00000000000E+00  0.54262854208E+03  0.54262854209E+03  0.25500000000E-02 0.  1.
          2   -1    0    0  501    0  0.00000000000E+00 -0.00000000000E+00 -0.26997984431E+04  0.26997984431E+04  0.25500000000E-02 0. -1.
    8880022    1    1    2    0    0 -0.89708991830E+03  0.26335188052E+03 -0.20875944406E+04  0.22925022870E+04  0.15294330000E+03 0.  0.
    8880022    1    1    2    0    0  0.89708991830E+03 -0.26335188052E+03 -0.69575460416E+02  0.94992469817E+03  0.15294330000E+03 0.  0.
<mgrwt>
<rscale>  0 0.94737331E+03</rscale>
<asrwt>0</asrwt>
<pdfrwt beam="1">  1        2 0.41535360E+00 0.94737331E+03</pdfrwt>
<pdfrwt beam="2">  1       -2 0.83481316E-01 0.94737331E+03</pdfrwt>
<totfact> 0.34073653E+00</totfact>
</mgrwt>
</event>
<event>
 4    1  0.1701380E-008  0.5487107E+03  0.7818608E-02  0.1001793E+00
         -2   -1    0    0    0  501 -0.00000000000E+00  0.00000000000E+00  0.18323572341E+03  0.18323572343E+03  0.25500000000E-02 0.  1.
          2   -1    0    0  501    0  0.00000000000E+00 -0.00000000000E+00 -0.40627654057E+04  0.40627654057E+04  0.25500000000E-02 0. -1.
    8880022    1    1    2    0    0 -0.52310383327E+03  0.63672226342E+02 -0.35781370789E+04  0.36199652458E+04  0.15294330000E+03 0.  0.
    8880022    1    1    2    0    0  0.52310383327E+03 -0.63672226342E+02 -0.30139260345E+03  0.62603588333E+03  0.15294330000E+03 0.  0.
<mgrwt>
<rscale>  0 0.54871069E+03</rscale>
<asrwt>0</asrwt>
<pdfrwt beam="1">  1        2 0.62504076E+00 0.54871069E+03</pdfrwt>
<pdfrwt beam="2">  1       -2 0.28190114E-01 0.54871069E+03</pdfrwt>
<totfact> 0.40897406E+00</totfact>
</mgrwt>
</event>
<event>
 4    1  0.1701380E-008  0.1238791E+04  0.7818608E-02  0.9079565E-01
          2   -1    0    0  501    0  0.00000000000E+00  0.00000000000E+00  0.19442767575E+04  0.19442767575E+04  0.25500000000E-02 0. -1.
         -2   -1    0    0    0  501 -0.00000000000E+00 -0.00000000000E+00 -0.12597153880E+04  0.12597153880E+04  0.25500000000E-02 0.  1.
    8880022    1    1    2    0    0  0.96401627422E+03  0.76281264458E+03  0.13212513218E+04  0.18111618415E+04  0.15294330000E+03 0.  0.
    8880022    1    1    2    0    0 -0.96401627422E+03 -0.76281264458E+03 -0.63668995218E+03  0.13928303041E+04  0.15294330000E+03 0.  0.
<mgrwt>
<rscale>  0 0.12387906E+04</rscale>
<asrwt>0</asrwt>
<pdfrwt beam="1">  1        2 0.29911950E+00 0.12387906E+04</pdfrwt>
<pdfrwt beam="2">  1       -2 0.19380237E+00 0.12387906E+04</pdfrwt>
<totfact> 0.10138149E+00</totfact>
</mgrwt>
</event>
<event>
 4    1  0.1701380E-008  0.7682088E+03  0.7818608E-02  0.9607209E-01
          2   -1    0    0  501    0  0.00000000000E+00  0.00000000000E+00  0.96229601686E+03  0.96229601686E+03  0.25500000000E-02 0. -1.
         -2   -1    0    0    0  501 -0.00000000000E+00 -0.00000000000E+00 -0.13182321577E+04  0.13182321577E+04  0.25500000000E-02 0.  1.
    8880022    1    1    2    0    0 -0.37520189223E+03  0.65266891407E+03 -0.10118281510E+04  0.12704097888E+04  0.15294330000E+03 0.  0.
    8880022    1    1    2    0    0  0.37520189223E+03 -0.65266891407E+03  0.65589201013E+03  0.10101183858E+04  0.15294330000E+03 0.  0.
<mgrwt>
<rscale>  0 0.76820884E+03</rscale>
<asrwt>0</asrwt>
<pdfrwt beam="1">  1        2 0.14804554E+00 0.76820884E+03</pdfrwt>
<pdfrwt beam="2">  1       -2 0.20280495E+00 0.76820884E+03</pdfrwt>
<totfact> 0.34704676E+00</totfact>
</mgrwt>
</event>
<event>
 4    1  0.1701380E-008  0.8147353E+03  0.7818608E-02  0.9538930E-01
          2   -1    0    0  501    0  0.00000000000E+00  0.00000000000E+00  0.36650390571E+04  0.36650390571E+04  0.25500000000E-02 0. -1.
         -2   -1    0    0    0  501 -0.00000000000E+00 -0.00000000000E+00 -0.20405409562E+03  0.20405409564E+03  0.25500000000E-02 0.  1.
    8880022    1    1    2    0    0  0.32221824175E+03  0.73251440688E+03  0.23791187509E+04  0.25147563770E+04  0.15294330000E+03 0.  0.
    8880022    1    1    2    0    0 -0.32221824175E+03 -0.73251440688E+03  0.10818662106E+04  0.13543367758E+04  0.15294330000E+03 0.  0.
<mgrwt>
<rscale>  0 0.81473530E+03</rscale>
<asrwt>0</asrwt>
<pdfrwt beam="1">  1        2 0.56385212E+00 0.81473530E+03</pdfrwt>
<pdfrwt beam="2">  1       -2 0.31392940E-01 0.81473530E+03</pdfrwt>
<totfact> 0.62687360E+00</totfact>
</mgrwt>
</event>
<event>
 4    1  0.1701380E-008  0.1201051E+04  0.7818608E-02  0.9111937E-01
         -2   -1    0    0    0  501 -0.00000000000E+00  0.00000000000E+00  0.67741618017E+03  0.67741618018E+03  0.25500000000E-02 0.  1.
          2   -1    0    0  501    0  0.00000000000E+00 -0.00000000000E+00 -0.27353630437E+04  0.27353630437E+04  0.25500000000E-02 0. -1.
    8880022    1    1    2    0    0  0.10682701208E+04  0.52719076911E+03 -0.18320860142E+04  0.21906761455E+04  0.15294330000E+03 0.  0.
    8880022    1    1    2    0    0 -0.10682701208E+04 -0.52719076911E+03 -0.22586084942E+03  0.12221030785E+04  0.15294330000E+03 0.  0.
<mgrwt>
<rscale>  0 0.12010507E+04</rscale>
<asrwt>0</asrwt>
<pdfrwt beam="1">  1        2 0.42082508E+00 0.12010507E+04</pdfrwt>
<pdfrwt beam="2">  1       -2 0.10421788E+00 0.12010507E+04</pdfrwt>
<totfact> 0.18659238E+00</totfact>
</mgrwt>
</event>
<event>
 4    1  0.1701380E-008  0.8811413E+03  0.7818608E-02  0.9449468E-01
         -2   -1    0    0    0  501 -0.00000000000E+00  0.00000000000E+00  0.15577231086E+04  0.15577231086E+04  0.25500000000E-02 0.  1.
          2   -1    0    0  501    0  0.00000000000E+00 -0.00000000000E+00 -0.19604223507E+04  0.19604223507E+04  0.25500000000E-02 0. -1.
    8880022    1    1    2    0    0  0.18498419996E+03 -0.84782020793E+03 -0.17204346974E+04  0.19329525240E+04  0.15294330000E+03 0.  0.
    8880022    1    1    2    0    0 -0.18498419996E+03  0.84782020793E+03  0.13177354552E+04  0.15851929353E+04  0.15294330000E+03 0.  0.
<mgrwt>
<rscale>  0 0.88114126E+03</rscale>
<asrwt>0</asrwt>
<pdfrwt beam="1">  1        2 0.30160344E+00 0.88114126E+03</pdfrwt>
<pdfrwt beam="2">  1       -2 0.23964971E+00 0.88114126E+03</pdfrwt>
<totfact> 0.53510016E-01</totfact>
</mgrwt>
</event>
<event>
 4    1  0.1701380E-008  0.4808162E+03  0.7818608E-02  0.1018911E+00
         -2   -1    0    0    0  501 -0.00000000000E+00  0.00000000000E+00  0.10477189926E+04  0.10477189926E+04  0.25500000000E-02 0.  1.
          2   -1    0    0  501    0  0.00000000000E+00 -0.00000000000E+00 -0.81781064743E+03  0.81781064743E+03  0.25500000000E-02 0. -1.
    8880022    1    1    2    0    0 -0.15864800859E+03  0.42734458953E+03 -0.68210326089E+03  0.83453526011E+03  0.15294330000E+03 0.  0.
    8880022    1    1    2    0    0  0.15864800859E+03 -0.42734458953E+03  0.91201160604E+03  0.10309943799E+04  0.15294330000E+03 0.  0.
<mgrwt>
<rscale>  0 0.48081622E+03</rscale>
<asrwt>0</asrwt>
<pdfrwt beam="1">  1        2 0.12581702E+00 0.48081622E+03</pdfrwt>
<pdfrwt beam="2">  1       -2 0.16118754E+00 0.48081622E+03</pdfrwt>
<totfact> 0.87381806E+00</totfact>
</mgrwt>
</event>
<event>
 4    1  0.1701380E-008  0.1081784E+04  0.7818608E-02  0.9223131E-01
         -2   -1    0    0    0  501 -0.00000000000E+00  0.00000000000E+00  0.62206993697E+03  0.62206993697E+03  0.25500000000E-02 0.  1.
          2   -1    0    0  501    0  0.00000000000E+00 -0.00000000000E+00 -0.22847082222E+04  0.22847082222E+04  0.25500000000E-02 0. -1.
    8880022    1    1    2    0    0 -0.59857747385E+03  0.88801416362E+03 -0.22054972132E+03  0.11040371278E+04  0.15294330000E+03 0.  0.
    8880022    1    1    2    0    0  0.59857747385E+03 -0.88801416362E+03 -0.14420885639E+04  0.18027410314E+04  0.15294330000E+03 0.  0.
<mgrwt>
<rscale>  0 0.10817836E+04</rscale>
<asrwt>0</asrwt>
<pdfrwt beam="1">  1        2 0.35149357E+00 0.10817836E+04</pdfrwt>
<pdfrwt beam="2">  1       -2 0.95703068E-01 0.10817836E+04</pdfrwt>
<totfact> 0.42152389E+00</totfact>
</mgrwt>
</event>
<event>
 4    1  0.1701380E-008  0.6026318E+03  0.7818608E-02  0.9899961E-01
          2   -1    0    0  501    0  0.00000000000E+00  0.00000000000E+00  0.39877168617E+04  0.39877168617E+04  0.25500000000E-02 0. -1.
         -2   -1    0    0    0  501 -0.00000000000E+00 -0.00000000000E+00 -0.49753927300E+03  0.49753927300E+03  0.25500000000E-02 0.  1.
    8880022    1    1    2    0    0 -0.31542252215E+03  0.49018575195E+03  0.37721036517E+04  0.38199386188E+04  0.15294330000E+03 0.  0.
    8880022    1    1    2    0    0  0.31542252215E+03 -0.49018575195E+03 -0.28192606306E+03  0.66531751588E+03  0.15294330000E+03 0.  0.
<mgrwt>
<rscale>  0 0.60263180E+03</rscale>
<asrwt>0</asrwt>
<pdfrwt beam="1">  1        2 0.61349491E+00 0.60263180E+03</pdfrwt>
<pdfrwt beam="2">  1       -2 0.76544503E-01 0.60263180E+03</pdfrwt>
<totfact> 0.62064952E-01</totfact>
</mgrwt>
</event>
<event>
 4    1  0.1701380E-008  0.1495091E+04  0.7818608E-02  0.8887724E-01
          2   -1    0    0  501    0  0.00000000000E+00  0.00000000000E+00  0.27273512221E+04  0.27273512221E+04  0.25500000000E-02 0. -1.
         -2   -1    0    0    0  501 -0.00000000000E+00 -0.00000000000E+00 -0.10180899878E+04  0.10180899878E+04  0.25500000000E-02 0.  1.
    8880022    1    1    2    0    0 -0.14365367779E+04  0.38505592960E+03  0.16815535226E+04  0.22500933060E+04  0.15294330000E+03 0.  0.
    8880022    1    1    2    0    0  0.14365367779E+04 -0.38505592960E+03  0.27707711675E+02  0.14953479038E+04  0.15294330000E+03 0.  0.
<mgrwt>
<rscale>  0 0.14950912E+04</rscale>
<asrwt>0</asrwt>
<pdfrwt beam="1">  1        2 0.41959250E+00 0.14950912E+04</pdfrwt>
<pdfrwt beam="2">  1       -2 0.15662923E+00 0.14950912E+04</pdfrwt>
<totfact> 0.64533902E-01</totfact>
</mgrwt>
</event>
<event>
 4    1  0.1701380E-008  0.2351318E+04  0.7818608E-02  0.8457958E-01
          2   -1    0    0  501    0  0.00000000000E+00  0.00000000000E+00  0.27460569527E+04  0.27460569527E+04  0.25500000000E-02 0. -1.
         -2   -1    0    0    0  501 -0.00000000000E+00 -0.00000000000E+00 -0.21316177914E+04  0.21316177914E+04  0.25500000000E-02 0.  1.
    8880022    1    1    2    0    0 -0.42383289124E+02  0.23459552761E+04 -0.26731297128E+03  0.23664636863E+04  0.15294330000E+03 0.  0.
    8880022    1    1    2    0    0  0.42383289124E+02 -0.23459552761E+04  0.88175213252E+03  0.25112110578E+04  0.15294330000E+03 0.  0.
<mgrwt>
<rscale>  0 0.23513175E+04</rscale>
<asrwt>0</asrwt>
<pdfrwt beam="1">  1        2 0.42247030E+00 0.23513175E+04</pdfrwt>
<pdfrwt beam="2">  1       -2 0.32794120E+00 0.23513175E+04</pdfrwt>
<totfact> 0.45517903E-02</totfact>
</mgrwt>
</event>
<event>
 4    1  0.1701380E-008  0.1231364E+04  0.7818608E-02  0.9085838E-01
         -2   -1    0    0    0  501 -0.00000000000E+00  0.00000000000E+00  0.16667406308E+04  0.16667406308E+04  0.25500000000E-02 0.  1.
          2   -1    0    0  501    0  0.00000000000E+00 -0.00000000000E+00 -0.25332985387E+04  0.25332985387E+04  0.25500000000E-02 0. -1.
    8880022    1    1    2    0    0 -0.30294313968E+03  0.11836766478E+04 -0.21144723167E+04  0.24468857316E+04  0.15294330000E+03 0.  0.
    8880022    1    1    2    0    0  0.30294313968E+03 -0.11836766478E+04  0.12479144087E+04  0.17531534379E+04  0.15294330000E+03 0.  0.
<mgrwt>
<rscale>  0 0.12313637E+04</rscale>
<asrwt>0</asrwt>
<pdfrwt beam="1">  1        2 0.38973824E+00 0.12313637E+04</pdfrwt>
<pdfrwt beam="2">  1       -2 0.25642164E+00 0.12313637E+04</pdfrwt>
<totfact> 0.19017436E-01</totfact>
</mgrwt>
</event>
<event>
 4    1  0.1701380E-008  0.8624355E+03  0.7818608E-02  0.9473797E-01
         -2   -1    0    0    0  501 -0.00000000000E+00  0.00000000000E+00  0.37103147586E+03  0.37103147587E+03  0.25500000000E-02 0.  1.
          2   -1    0    0  501    0  0.00000000000E+00 -0.00000000000E+00 -0.29596210333E+04  0.29596210333E+04  0.25500000000E-02 0. -1.
    8880022    1    1    2    0    0  0.82120134204E+03  0.21454984327E+03 -0.34833585358E+03  0.93012515251E+03  0.15294330000E+03 0.  0.
    8880022    1    1    2    0    0 -0.82120134204E+03 -0.21454984327E+03 -0.22402537038E+04  0.24005273566E+04  0.15294330000E+03 0.  0.
<mgrwt>
<rscale>  0 0.86243547E+03</rscale>
<asrwt>0</asrwt>
<pdfrwt beam="1">  1        2 0.45532630E+00 0.86243547E+03</pdfrwt>
<pdfrwt beam="2">  1       -2 0.57081768E-01 0.86243547E+03</pdfrwt>
<totfact> 0.55386241E+00</totfact>
</mgrwt>
</event>
<event>
 4    1  0.1701380E-008  0.3364229E+03  0.7818608E-02  0.1068330E+00
         -2   -1    0    0    0  501 -0.00000000000E+00  0.00000000000E+00  0.13230035291E+03  0.13230035293E+03  0.25500000000E-02 0.  1.
          2   -1    0    0  501    0  0.00000000000E+00 -0.00000000000E+00 -0.17300571108E+04  0.17300571108E+04  0.25500000000E-02 0. -1.
    8880022    1    1    2    0    0 -0.26466730798E+03 -0.14049886069E+03 -0.14609451136E+04  0.14991801065E+04  0.15294330000E+03 0.  0.
    8880022    1    1    2    0    0  0.26466730798E+03  0.14049886069E+03 -0.13681164427E+03  0.36317735721E+03  0.15294330000E+03 0.  0.
<mgrwt>
<rscale>  0 0.33642290E+03</rscale>
<asrwt>0</asrwt>
<pdfrwt beam="1">  1        2 0.26616262E+00 0.33642290E+03</pdfrwt>
<pdfrwt beam="2">  1       -2 0.20353902E-01 0.33642290E+03</pdfrwt>
<totfact> 0.20882343E+02</totfact>
</mgrwt>
</event>
<event>
 4    1  0.1701380E-008  0.1391281E+04  0.7818608E-02  0.8960154E-01
         -2   -1    0    0    0  501 -0.00000000000E+00  0.00000000000E+00  0.16774609742E+04  0.16774609742E+04  0.25500000000E-02 0.  1.
          2   -1    0    0  501    0  0.00000000000E+00 -0.00000000000E+00 -0.15439198641E+04  0.15439198641E+04  0.25500000000E-02 0. -1.
    8880022    1    1    2    0    0  0.97776724825E+03  0.97787682596E+03 -0.74275273625E+03  0.15771319408E+04  0.15294330000E+03 0.  0.
    8880022    1    1    2    0    0 -0.97776724825E+03 -0.97787682596E+03  0.87629384637E+03  0.16442488974E+04  0.15294330000E+03 0.  0.
<mgrwt>
<rscale>  0 0.13912813E+04</rscale>
<asrwt>0</asrwt>
<pdfrwt beam="1">  1        2 0.23752613E+00 0.13912813E+04</pdfrwt>
<pdfrwt beam="2">  1       -2 0.25807092E+00 0.13912813E+04</pdfrwt>
<totfact> 0.65354453E-01</totfact>
</mgrwt>
</event>
<event>
 4    1  0.1701380E-008  0.1182365E+04  0.7818608E-02  0.9128434E-01
         -2   -1    0    0    0  501 -0.00000000000E+00  0.00000000000E+00  0.13290737672E+04  0.13290737672E+04  0.25500000000E-02 0.  1.
          2   -1    0    0  501    0  0.00000000000E+00 -0.00000000000E+00 -0.11719715111E+04  0.11719715111E+04  0.25500000000E-02 0. -1.
    8880022    1    1    2    0    0  0.10579902591E+04 -0.50522405717E+03  0.47890425437E+03  0.12756706762E+04  0.15294330000E+03 0.  0.
    8880022    1    1    2    0    0 -0.10579902591E+04  0.50522405717E+03 -0.32180199832E+03  0.12253746021E+04  0.15294330000E+03 0.  0.
<mgrwt>
<rscale>  0 0.11823647E+04</rscale>
<asrwt>0</asrwt>
<pdfrwt beam="1">  1        2 0.18030331E+00 0.11823647E+04</pdfrwt>
<pdfrwt beam="2">  1       -2 0.20447289E+00 0.11823647E+04</pdfrwt>
<totfact> 0.23820118E+00</totfact>
</mgrwt>
</event>
<event>
 4    1  0.1701380E-008  0.8746147E+03  0.7818608E-02  0.9457883E-01
         -2   -1    0    0    0  501 -0.00000000000E+00  0.00000000000E+00  0.93040010131E+03  0.93040010131E+03  0.25500000000E-02 0.  1.
          2   -1    0    0  501    0  0.00000000000E+00 -0.00000000000E+00 -0.11029650970E+04  0.11029650970E+04  0.25500000000E-02 0. -1.
    8880022    1    1    2    0    0 -0.83002591372E+03  0.22938220540E+03 -0.59925737320E+03  0.10602170844E+04  0.15294330000E+03 0.  0.
    8880022    1    1    2    0    0  0.83002591372E+03 -0.22938220540E+03  0.42669237753E+03  0.97314811394E+03  0.15294330000E+03 0.  0.
<mgrwt>
<rscale>  0 0.87461470E+03</rscale>
<asrwt>0</asrwt>
<pdfrwt beam="1">  1        2 0.16968694E+00 0.87461470E+03</pdfrwt>
<pdfrwt beam="2">  1       -2 0.14313848E+00 0.87461470E+03</pdfrwt>
<totfact> 0.73854923E+00</totfact>
</mgrwt>
</event>
<event>
 4    1  0.1701380E-008  0.1004608E+04  0.7818608E-02  0.9303506E-01
         -2   -1    0    0    0  501 -0.00000000000E+00  0.00000000000E+00  0.99418038440E+03  0.99418038441E+03  0.25500000000E-02 0.  1.
          2   -1    0    0  501    0  0.00000000000E+00 -0.00000000000E+00 -0.12630958523E+04  0.12630958523E+04  0.25500000000E-02 0. -1.
    8880022    1    1    2    0    0 -0.99284484098E+03  0.10200843487E+02 -0.63451522966E+03  0.11882113302E+04  0.15294330000E+03 0.  0.
    8880022    1    1    2    0    0  0.99284484098E+03 -0.10200843487E+02  0.36559976180E+03  0.10690649065E+04  0.15294330000E+03 0.  0.
<mgrwt>
<rscale>  0 0.10046077E+04</rscale>
<asrwt>0</asrwt>
<pdfrwt beam="1">  1        2 0.19432244E+00 0.10046077E+04</pdfrwt>
<pdfrwt beam="2">  1       -2 0.15295083E+00 0.10046077E+04</pdfrwt>
<totfact> 0.48985596E+00</totfact>
</mgrwt>
</event>
<event>
 4    1  0.1701380E-008  0.4210818E+03  0.7818608E-02  0.1036715E+00
         -2   -1    0    0    0  501 -0.00000000000E+00  0.00000000000E+00  0.50838861925E+03  0.50838861926E+03  0.25500000000E-02 0.  1.
          2   -1    0    0  501    0  0.00000000000E+00 -0.00000000000E+00 -0.14678277895E+04  0.14678277895E+04  0.25500000000E-02 0. -1.
    8880022    1    1    2    0    0  0.10843043635E+03  0.37704252815E+03 -0.13424865785E+04  0.14069755129E+04  0.15294330000E+03 0.  0.
    8880022    1    1    2    0    0 -0.10843043635E+03 -0.37704252815E+03  0.38304740821E+03  0.56924089586E+03  0.15294330000E+03 0.  0.
<mgrwt>
<rscale>  0 0.42108180E+03</rscale>
<asrwt>0</asrwt>
<pdfrwt beam="1">  1        2 0.22581966E+00 0.42108180E+03</pdfrwt>
<pdfrwt beam="2">  1       -2 0.78213634E-01 0.42108180E+03</pdfrwt>
<totfact> 0.20774312E+01</totfact>
</mgrwt>
</event>
<event>
 4    1  0.1701380E-008  0.7742612E+03  0.7818608E-02  0.9598039E-01
          2   -1    0    0  501    0  0.00000000000E+00  0.00000000000E+00  0.14204551476E+04  0.14204551476E+04  0.25500000000E-02 0. -1.
         -2   -1    0    0    0  501 -0.00000000000E+00 -0.00000000000E+00 -0.87383053963E+03  0.87383053964E+03  0.25500000000E-02 0.  1.
    8880022    1    1    2    0    0 -0.34124024664E+03  0.67797036152E+03  0.10981629903E+04  0.13436674899E+04  0.15294330000E+03 0.  0.
    8880022    1    1    2    0    0  0.34124024664E+03 -0.67797036152E+03 -0.55153838233E+03  0.95061819740E+03  0.15294330000E+03 0.  0.
<mgrwt>
<rscale>  0 0.77426118E+03</rscale>
<asrwt>0</asrwt>
<pdfrwt beam="1">  1        2 0.21853156E+00 0.77426118E+03</pdfrwt>
<pdfrwt beam="2">  1       -2 0.13443547E+00 0.77426118E+03</pdfrwt>
<totfact> 0.57326881E+00</totfact>
</mgrwt>
</event>
<event>
 4    1  0.1701380E-008  0.1027519E+04  0.7818608E-02  0.9278867E-01
         -2   -1    0    0    0  501 -0.00000000000E+00  0.00000000000E+00  0.83797241255E+03  0.83797241256E+03  0.25500000000E-02 0.  1.
          2   -1    0    0  501    0  0.00000000000E+00 -0.00000000000E+00 -0.35293713395E+04  0.35293713395E+04  0.25500000000E-02 0. -1.
    8880022    1    1    2    0    0 -0.92141257130E+03 -0.42825449587E+03 -0.30967442657E+04  0.32627625932E+04  0.15294330000E+03 0.  0.
    8880022    1    1    2    0    0  0.92141257130E+03  0.42825449587E+03  0.40534533873E+03  0.11045811588E+04  0.15294330000E+03 0.  0.
<mgrwt>
<rscale>  0 0.10275187E+04</rscale>
<asrwt>0</asrwt>
<pdfrwt beam="1">  1        2 0.54298020E+00 0.10275187E+04</pdfrwt>
<pdfrwt beam="2">  1       -2 0.12891883E+00 0.10275187E+04</pdfrwt>
<totfact> 0.35316537E-01</totfact>
</mgrwt>
</event>
<event>
 4    1  0.1701380E-008  0.1253888E+04  0.7818608E-02  0.9066954E-01
         -2   -1    0    0    0  501 -0.00000000000E+00  0.00000000000E+00  0.30895222232E+04  0.30895222232E+04  0.25500000000E-02 0.  1.
          2   -1    0    0  501    0  0.00000000000E+00 -0.00000000000E+00 -0.75585389979E+03  0.75585389980E+03  0.25500000000E-02 0. -1.
    8880022    1    1    2    0    0 -0.12362606980E+04 -0.14318475615E+03  0.22658517021E+04  0.25896559572E+04  0.15294330000E+03 0.  0.
    8880022    1    1    2    0    0  0.12362606980E+04  0.14318475615E+03  0.67816621394E+02  0.12557201659E+04  0.15294330000E+03 0.  0.
<mgrwt>
<rscale>  0 0.12538876E+04</rscale>
<asrwt>0</asrwt>
<pdfrwt beam="1">  1        2 0.11628522E+00 0.12538876E+04</pdfrwt>
<pdfrwt beam="2">  1       -2 0.47531111E+00 0.12538876E+04</pdfrwt>
<totfact> 0.86000592E-02</totfact>
</mgrwt>
</event>
<event>
 4    1  0.1701380E-008  0.1265132E+04  0.7818608E-02  0.9057682E-01
         -2   -1    0    0    0  501 -0.00000000000E+00  0.00000000000E+00  0.19825819365E+04  0.19825819365E+04  0.25500000000E-02 0.  1.
          2   -1    0    0  501    0  0.00000000000E+00 -0.00000000000E+00 -0.97788246829E+03  0.97788246830E+03  0.25500000000E-02 0. -1.
    8880022    1    1    2    0    0  0.10610238000E+04 -0.67186042816E+03 -0.11586607407E+03  0.12704269122E+04  0.15294330000E+03 0.  0.
    8880022    1    1    2    0    0 -0.10610238000E+04  0.67186042816E+03  0.11205655423E+04  0.16900374927E+04  0.15294330000E+03 0.  0.
<mgrwt>
<rscale>  0 0.12651322E+04</rscale>
<asrwt>0</asrwt>
<pdfrwt beam="1">  1        2 0.15044346E+00 0.12651322E+04</pdfrwt>
<pdfrwt beam="2">  1       -2 0.30501260E+00 0.12651322E+04</pdfrwt>
<totfact> 0.74890035E-01</totfact>
</mgrwt>
</event>
<event>
 4    1  0.1701380E-008  0.6690213E+03  0.7818608E-02  0.9771727E-01
          2   -1    0    0  501    0  0.00000000000E+00  0.00000000000E+00  0.19696785348E+03  0.19696785350E+03  0.25500000000E-02 0. -1.
         -2   -1    0    0    0  501 -0.00000000000E+00 -0.00000000000E+00 -0.30414108770E+04  0.30414108770E+04  0.25500000000E-02 0.  1.
    8880022    1    1    2    0    0 -0.55988015895E+03 -0.33276435880E+03 -0.60802993731E+03  0.90404091089E+03  0.15294330000E+03 0.  0.
    8880022    1    1    2    0    0  0.55988015895E+03  0.33276435880E+03 -0.22364130862E+04  0.23343378196E+04  0.15294330000E+03 0.  0.
<mgrwt>
<rscale>  0 0.66902135E+03</rscale>
<asrwt>0</asrwt>
<pdfrwt beam="1">  1        2 0.30302749E-01 0.66902135E+03</pdfrwt>
<pdfrwt beam="2">  1       -2 0.46790933E+00 0.66902135E+03</pdfrwt>
<totfact> 0.50192985E-01</totfact>
</mgrwt>
</event>
<event>
 4    1  0.1701380E-008  0.1317034E+04  0.7818608E-02  0.9016165E-01
          2   -1    0    0  501    0  0.00000000000E+00  0.00000000000E+00  0.30224851954E+04  0.30224851954E+04  0.25500000000E-02 0. -1.
         -2   -1    0    0    0  501 -0.00000000000E+00 -0.00000000000E+00 -0.93260958885E+03  0.93260958885E+03  0.25500000000E-02 0.  1.
    8880022    1    1    2    0    0 -0.11214117232E+04 -0.67351441711E+03 -0.18152335321E+03  0.13294842247E+04  0.15294330000E+03 0.  0.
    8880022    1    1    2    0    0  0.11214117232E+04  0.67351441711E+03  0.22713989598E+04  0.26256105596E+04  0.15294330000E+03 0.  0.
<mgrwt>
<rscale>  0 0.13170336E+04</rscale>
<asrwt>0</asrwt>
<pdfrwt beam="1">  1        2 0.46499772E+00 0.13170336E+04</pdfrwt>
<pdfrwt beam="2">  1       -2 0.14347840E+00 0.13170336E+04</pdfrwt>
<totfact> 0.55084420E-01</totfact>
</mgrwt>
</event>
<event>
 4    1  0.1701380E-008  0.3938527E+03  0.7818608E-02  0.1045929E+00
         -2   -1    0    0    0  501 -0.00000000000E+00  0.00000000000E+00  0.93405414693E+03  0.93405414694E+03  0.25500000000E-02 0.  1.
          2   -1    0    0  501    0  0.00000000000E+00 -0.00000000000E+00 -0.44003731774E+03  0.44003731775E+03  0.25500000000E-02 0. -1.
    8880022    1    1    2    0    0 -0.20944683602E+03 -0.29641243328E+03 -0.29510346314E+03  0.49214430271E+03  0.15294330000E+03 0. -1.
    8880022    1    1    2    0    0  0.20944683602E+03  0.29641243328E+03  0.78912029233E+03  0.88194716197E+03  0.15294330000E+03 0.  0.
<mgrwt>
<rscale>  0 0.39385271E+03</rscale>
<asrwt>0</asrwt>
<pdfrwt beam="1">  1        2 0.67698050E-01 0.39385271E+03</pdfrwt>
<pdfrwt beam="2">  1       -2 0.14370064E+00 0.39385271E+03</pdfrwt>
<totfact> 0.25195719E+01</totfact>
</mgrwt>
</event>
<event>
 4    1  0.1701380E-008  0.4030459E+03  0.7818608E-02  0.1042730E+00
         -2   -1    0    0    0  501 -0.00000000000E+00  0.00000000000E+00  0.83263042009E+03  0.83263042010E+03  0.25500000000E-02 0.  1.
          2   -1    0    0  501    0  0.00000000000E+00 -0.00000000000E+00 -0.13893086110E+04  0.13893086110E+04  0.25500000000E-02 0. -1.
    8880022    1    1    2    0    0  0.25454689475E+03  0.27250722994E+03  0.75167443080E+03  0.85291289996E+03  0.15294330000E+03 0.  0.
    8880022    1    1    2    0    0 -0.25454689475E+03 -0.27250722994E+03 -0.13083526217E+04  0.13690261311E+04  0.15294330000E+03 0. -1.
<mgrwt>
<rscale>  0 0.40304586E+03</rscale>
<asrwt>0</asrwt>
<pdfrwt beam="1">  1        2 0.21373979E+00 0.40304586E+03</pdfrwt>
<pdfrwt beam="2">  1       -2 0.12809699E+00 0.40304586E+03</pdfrwt>
<totfact> 0.72340156E+00</totfact>
</mgrwt>
</event>
<event>
 4    1  0.1701380E-008  0.2534699E+04  0.7818608E-02  0.8390727E-01
         -2   -1    0    0    0  501 -0.00000000000E+00  0.00000000000E+00  0.19906029361E+04  0.19906029361E+04  0.25500000000E-02 0.  1.
          2   -1    0    0  501    0  0.00000000000E+00 -0.00000000000E+00 -0.35732194156E+04  0.35732194156E+04  0.25500000000E-02 0. -1.
    8880022    1    1    2    0    0  0.23004026477E+04 -0.10533063067E+04 -0.16566082741E+04  0.30280437817E+04  0.15294330000E+03 0.  0.
    8880022    1    1    2    0    0 -0.23004026477E+04  0.10533063067E+04  0.73991794598E+02  0.25357785700E+04  0.15294330000E+03 0.  0.
<mgrwt>
<rscale>  0 0.25346988E+04</rscale>
<asrwt>0</asrwt>
<pdfrwt beam="1">  1        2 0.54972606E+00 0.25346988E+04</pdfrwt>
<pdfrwt beam="2">  1       -2 0.30624661E+00 0.25346988E+04</pdfrwt>
<totfact> 0.17572280E-02</totfact>
</mgrwt>
</event>
<event>
 4    1  0.1701380E-008  0.1276154E+04  0.7818608E-02  0.9048692E-01
         -2   -1    0    0    0  501 -0.00000000000E+00  0.00000000000E+00  0.74643249161E+03  0.74643249161E+03  0.25500000000E-02 0.  1.
          2   -1    0    0  501    0  0.00000000000E+00 -0.00000000000E+00 -0.25594837259E+04  0.25594837259E+04  0.25500000000E-02 0. -1.
    8880022    1    1    2    0    0 -0.38409405199E+03 -0.12073310996E+04 -0.27156270615E+03  0.13047277805E+04  0.15294330000E+03 0.  0.
    8880022    1    1    2    0    0  0.38409405199E+03  0.12073310996E+04 -0.15414885281E+04  0.20011884369E+04  0.15294330000E+03 0.  0.
<mgrwt>
<rscale>  0 0.12761537E+04</rscale>
<asrwt>0</asrwt>
<pdfrwt beam="1">  1        2 0.39376672E+00 0.12761537E+04</pdfrwt>
<pdfrwt beam="2">  1       -2 0.11483577E+00 0.12761537E+04</pdfrwt>
<totfact> 0.18511683E+00</totfact>
</mgrwt>
</event>
<event>
 4    1  0.1701380E-008  0.4466464E+03  0.7818608E-02  0.1028727E+00
          2   -1    0    0  501    0  0.00000000000E+00  0.00000000000E+00  0.70919725328E+03  0.70919725328E+03  0.25500000000E-02 0. -1.
         -2   -1    0    0    0  501 -0.00000000000E+00 -0.00000000000E+00 -0.33980851955E+03  0.33980851956E+03  0.25500000000E-02 0.  1.
    8880022    1    1    2    0    0 -0.22672951204E+03 -0.35312193599E+03  0.40234607508E+03  0.60114506607E+03  0.15294330000E+03 0.  1.
    8880022    1    1    2    0    0  0.22672951204E+03  0.35312193599E+03 -0.32957341353E+02  0.44786070678E+03  0.15294330000E+03 0.  0.
<mgrwt>
<rscale>  0 0.44664642E+03</rscale>
<asrwt>0</asrwt>
<pdfrwt beam="1">  1        2 0.10910727E+00 0.44664642E+03</pdfrwt>
<pdfrwt beam="2">  1       -2 0.52278233E-01 0.44664642E+03</pdfrwt>
<totfact> 0.14370083E+02</totfact>
</mgrwt>
</event>
<event>
 4    1  0.1701380E-008  0.2582719E+03  0.7818608E-02  0.1108186E+00
          2   -1    0    0  501    0  0.00000000000E+00  0.00000000000E+00  0.14900570435E+04  0.14900570435E+04  0.25500000000E-02 0. -1.
         -2   -1    0    0    0  501 -0.00000000000E+00 -0.00000000000E+00 -0.18572366766E+03  0.18572366768E+03  0.25500000000E-02 0.  1.
    8880022    1    1    2    0    0  0.19260800199E+03  0.78834563134E+02 -0.77790537260E+02  0.26973274083E+03  0.15294330000E+03 0.  1.
    8880022    1    1    2    0    0 -0.19260800199E+03 -0.78834563134E+02  0.13821239131E+04  0.14060479704E+04  0.15294330000E+03 0.  0.
<mgrwt>
<rscale>  0 0.25827192E+03</rscale>
<asrwt>0</asrwt>
<pdfrwt beam="1">  1        2 0.22923954E+00 0.25827192E+03</pdfrwt>
<pdfrwt beam="2">  1       -2 0.28572873E-01 0.25827192E+03</pdfrwt>
<totfact> 0.15644240E+02</totfact>
</mgrwt>
</event>
<event>
 4    1  0.1701380E-008  0.1062090E+04  0.7818608E-02  0.9242950E-01
          2   -1    0    0  501    0  0.00000000000E+00  0.00000000000E+00  0.22311289509E+04  0.22311289509E+04  0.25500000000E-02 0. -1.
         -2   -1    0    0    0  501 -0.00000000000E+00 -0.00000000000E+00 -0.68626726768E+03  0.68626726768E+03  0.25500000000E-02 0.  1.
    8880022    1    1    2    0    0 -0.95749681768E+03 -0.43340970242E+03  0.15208948404E+04  0.18550355507E+04  0.15294330000E+03 0.  0.
    8880022    1    1    2    0    0  0.95749681768E+03  0.43340970242E+03  0.23966842858E+02  0.10623606678E+04  0.15294330000E+03 0.  0.
<mgrwt>
<rscale>  0 0.10620903E+04</rscale>
<asrwt>0</asrwt>
<pdfrwt beam="1">  1        2 0.34325061E+00 0.10620903E+04</pdfrwt>
<pdfrwt beam="2">  1       -2 0.10557958E+00 0.10620903E+04</pdfrwt>
<totfact> 0.35815378E+00</totfact>
</mgrwt>
</event>
<event>
 4    1  0.1701380E-008  0.1913701E+03  0.7818608E-02  0.1157231E+00
         -2   -1    0    0    0  501 -0.00000000000E+00  0.00000000000E+00  0.16075997837E+03  0.16075997839E+03  0.25500000000E-02 0.  1.
          2   -1    0    0  501    0  0.00000000000E+00 -0.00000000000E+00 -0.51287860023E+03  0.51287860024E+03  0.25500000000E-02 0. -1.
    8880022    1    1    2    0    0  0.85081525501E+02  0.77407864067E+02 -0.42717015478E+03  0.46807781143E+03  0.15294330000E+03 0. -1.
    8880022    1    1    2    0    0 -0.85081525501E+02 -0.77407864067E+02  0.75051532925E+02  0.20556076720E+03  0.15294330000E+03 0.  0.
<mgrwt>
<rscale>  0 0.19137005E+03</rscale>
<asrwt>0</asrwt>
<pdfrwt beam="1">  1        2 0.78904399E-01 0.19137005E+03</pdfrwt>
<pdfrwt beam="2">  1       -2 0.24732305E-01 0.19137005E+03</pdfrwt>
<totfact> 0.87741475E+02</totfact>
</mgrwt>
</event>
<event>
 4    1  0.1701380E-008  0.6479009E+03  0.7818608E-02  0.9810726E-01
         -2   -1    0    0    0  501 -0.00000000000E+00  0.00000000000E+00  0.73875413494E+03  0.73875413494E+03  0.25500000000E-02 0.  1.
          2   -1    0    0  501    0  0.00000000000E+00 -0.00000000000E+00 -0.82648918450E+03  0.82648918451E+03  0.25500000000E-02 0. -1.
    8880022    1    1    2    0    0 -0.58813417024E+03 -0.22468234790E+03  0.39362308052E+03  0.75809942765E+03  0.15294330000E+03 0.  0.
    8880022    1    1    2    0    0  0.58813417024E+03  0.22468234790E+03 -0.48135813009E+03  0.80714389180E+03  0.15294330000E+03 0.  0.
<mgrwt>
<rscale>  0 0.64790093E+03</rscale>
<asrwt>0</asrwt>
<pdfrwt beam="1">  1        2 0.12715218E+00 0.64790093E+03</pdfrwt>
<pdfrwt beam="2">  1       -2 0.11365448E+00 0.64790093E+03</pdfrwt>
<totfact> 0.20524567E+01</totfact>
</mgrwt>
</event>
<event>
 4    1  0.1701380E-008  0.1120297E+04  0.7818608E-02  0.9185632E-01
         -2   -1    0    0    0  501 -0.00000000000E+00  0.00000000000E+00  0.27211564322E+04  0.27211564322E+04  0.25500000000E-02 0.  1.
          2   -1    0    0  501    0  0.00000000000E+00 -0.00000000000E+00 -0.76941142322E+03  0.76941142323E+03  0.25500000000E-02 0. -1.
    8880022    1    1    2    0    0 -0.39335354629E+03 -0.10377600128E+04  0.20804437919E+04  0.23629030621E+04  0.15294330000E+03 0.  0.
    8880022    1    1    2    0    0  0.39335354629E+03  0.10377600128E+04 -0.12869878287E+03  0.11276647934E+04  0.15294330000E+03 0.  0.
<mgrwt>
<rscale>  0 0.11202966E+04</rscale>
<asrwt>0</asrwt>
<pdfrwt beam="1">  1        2 0.11837099E+00 0.11202966E+04</pdfrwt>
<pdfrwt beam="2">  1       -2 0.41863945E+00 0.11202966E+04</pdfrwt>
<totfact> 0.20306694E-01</totfact>
</mgrwt>
</event>
<event>
 4    1  0.1701380E-008  0.2798375E+03  0.7818608E-02  0.1095778E+00
         -2   -1    0    0    0  501 -0.00000000000E+00  0.00000000000E+00  0.17093448656E+03  0.17093448657E+03  0.25500000000E-02 0.  1.
          2   -1    0    0  501    0  0.00000000000E+00 -0.00000000000E+00 -0.60879972059E+03  0.60879972059E+03  0.25500000000E-02 0. -1.
    8880022    1    1    2    0    0  0.22439738866E+03  0.67551550218E+02 -0.41288814819E+03  0.49878419773E+03  0.15294330000E+03 0.  0.
    8880022    1    1    2    0    0 -0.22439738866E+03 -0.67551550218E+02 -0.24977085844E+02  0.28095000944E+03  0.15294330000E+03 0.  1.
<mgrwt>
<rscale>  0 0.27983755E+03</rscale>
<asrwt>0</asrwt>
<pdfrwt beam="1">  1        2 0.93661495E-01 0.27983755E+03</pdfrwt>
<pdfrwt beam="2">  1       -2 0.26297614E-01 0.27983755E+03</pdfrwt>
<totfact> 0.64665339E+02</totfact>
</mgrwt>
</event>
<event>
 4    1  0.1701380E-008  0.8734985E+03  0.7818608E-02  0.9459330E-01
         -2   -1    0    0    0  501 -0.00000000000E+00  0.00000000000E+00  0.54702148835E+03  0.54702148836E+03  0.25500000000E-02 0.  1.
          2   -1    0    0  501    0  0.00000000000E+00 -0.00000000000E+00 -0.28955140886E+04  0.28955140886E+04  0.25500000000E-02 0. -1.
    8880022    1    1    2    0    0 -0.19034068605E+03 -0.83867658142E+03  0.64923610602E+02  0.87590793650E+03  0.15294330000E+03 0.  0.
    8880022    1    1    2    0    0  0.19034068605E+03  0.83867658142E+03 -0.24134162108E+04  0.25666276404E+04  0.15294330000E+03 0.  0.
<mgrwt>
<rscale>  0 0.87349850E+03</rscale>
<asrwt>0</asrwt>
<pdfrwt beam="1">  1        2 0.44546370E+00 0.87349850E+03</pdfrwt>
<pdfrwt beam="2">  1       -2 0.84157154E-01 0.87349850E+03</pdfrwt>
<totfact> 0.25896738E+00</totfact>
</mgrwt>
</event>
<event>
 4    1  0.1701380E-008  0.4805684E+03  0.7818608E-02  0.1018979E+00
          2   -1    0    0  501    0  0.00000000000E+00  0.00000000000E+00  0.39280822186E+04  0.39280822186E+04  0.25500000000E-02 0. -1.
         -2   -1    0    0    0  501 -0.00000000000E+00 -0.00000000000E+00 -0.11760462628E+04  0.11760462628E+04  0.25500000000E-02 0.  1.
    8880022    1    1    2    0    0 -0.59044077142E+02  0.45173900515E+03 -0.11114362836E+04  0.12108825696E+04  0.15294330000E+03 0.  0.
    8880022    1    1    2    0    0  0.59044077142E+02 -0.45173900515E+03  0.38634722394E+04  0.38932459118E+04  0.15294330000E+03 0. -1.
<mgrwt>
<rscale>  0 0.48056840E+03</rscale>
<asrwt>0</asrwt>
<pdfrwt beam="1">  1        2 0.60432035E+00 0.48056840E+03</pdfrwt>
<pdfrwt beam="2">  1       -2 0.18093019E+00 0.48056840E+03</pdfrwt>
<totfact> 0.86374716E-02</totfact>
</mgrwt>
</event>
<event>
 4    1  0.1701380E-008  0.1700296E+04  0.7818608E-02  0.8761196E-01
          2   -1    0    0  501    0  0.00000000000E+00  0.00000000000E+00  0.16396200156E+04  0.16396200156E+04  0.25500000000E-02 0. -1.
         -2   -1    0    0    0  501 -0.00000000000E+00 -0.00000000000E+00 -0.26380464724E+04  0.26380464724E+04  0.25500000000E-02 0.  1.
    8880022    1    1    2    0    0  0.12201066448E+03  0.16890021910E+04  0.73246507402E+03  0.18513540291E+04  0.15294330000E+03 0.  0.
    8880022    1    1    2    0    0 -0.12201066448E+03 -0.16890021910E+04 -0.17308915308E+04  0.24263124588E+04  0.15294330000E+03 0.  0.
<mgrwt>
<rscale>  0 0.17002960E+04</rscale>
<asrwt>0</asrwt>
<pdfrwt beam="1">  1        2 0.25224923E+00 0.17002960E+04</pdfrwt>
<pdfrwt beam="2">  1       -2 0.40585330E+00 0.17002960E+04</pdfrwt>
<totfact> 0.66179976E-02</totfact>
</mgrwt>
</event>
<event>
 4    1  0.1701380E-008  0.7751657E+03  0.7818608E-02  0.9596676E-01
          2   -1    0    0  501    0  0.00000000000E+00  0.00000000000E+00  0.92662012768E+03  0.92662012769E+03  0.25500000000E-02 0. -1.
         -2   -1    0    0    0  501 -0.00000000000E+00 -0.00000000000E+00 -0.71674791738E+03  0.71674791738E+03  0.25500000000E-02 0.  1.
    8880022    1    1    2    0    0 -0.62615236377E+03  0.43060817647E+03 -0.14867824629E+03  0.78929529217E+03  0.15294330000E+03 0.  0.
    8880022    1    1    2    0    0  0.62615236377E+03 -0.43060817647E+03  0.35855045659E+03  0.85407275290E+03  0.15294330000E+03 0.  0.
<mgrwt>
<rscale>  0 0.77516568E+03</rscale>
<asrwt>0</asrwt>
<pdfrwt beam="1">  1        2 0.14255694E+00 0.77516568E+03</pdfrwt>
<pdfrwt beam="2">  1       -2 0.11026891E+00 0.77516568E+03</pdfrwt>
<totfact> 0.18620529E+01</totfact>
</mgrwt>
</event>
<event>
 4    1  0.1701380E-008  0.1795097E+03  0.7818608E-02  0.1168278E+00
          2   -1    0    0  501    0  0.00000000000E+00  0.00000000000E+00  0.12145896137E+04  0.12145896137E+04  0.25500000000E-02 0. -1.
         -2   -1    0    0    0  501 -0.00000000000E+00 -0.00000000000E+00 -0.11305823021E+04  0.11305823021E+04  0.25500000000E-02 0.  1.
    8880022    1    1    2    0    0 -0.58710870749E+02  0.73383256171E+02  0.12007498339E+04  0.12140938536E+04  0.15294330000E+03 0. -1.
    8880022    1    1    2    0    0  0.58710870749E+02 -0.73383256171E+02 -0.11167425224E+04  0.11310780623E+04  0.15294330000E+03 0.  0.
<mgrwt>
<rscale>  0 0.17950967E+03</rscale>
<asrwt>0</asrwt>
<pdfrwt beam="1">  1        2 0.18685994E+00 0.17950967E+03</pdfrwt>
<pdfrwt beam="2">  1       -2 0.17393574E+00 0.17950967E+03</pdfrwt>
<totfact> 0.44821792E+00</totfact>
</mgrwt>
</event>
<event>
 4    1  0.1701380E-008  0.1116807E+04  0.7818608E-02  0.9188964E-01
         -2   -1    0    0    0  501 -0.00000000000E+00  0.00000000000E+00  0.10612185885E+04  0.10612185886E+04  0.25500000000E-02 0.  1.
          2   -1    0    0  501    0  0.00000000000E+00 -0.00000000000E+00 -0.18880346893E+04  0.18880346893E+04  0.25500000000E-02 0. -1.
    8880022    1    1    2    0    0 -0.71337600040E+03  0.84555317469E+03  0.49261458469E+03  0.12206253607E+04  0.15294330000E+03 0.  0.
    8880022    1    1    2    0    0  0.71337600040E+03 -0.84555317469E+03 -0.13194306855E+04  0.17286279172E+04  0.15294330000E+03 0.  0.
<mgrwt>
<rscale>  0 0.11168067E+04</rscale>
<asrwt>0</asrwt>
<pdfrwt beam="1">  1        2 0.29046688E+00 0.11168067E+04</pdfrwt>
<pdfrwt beam="2">  1       -2 0.16326440E+00 0.11168067E+04</pdfrwt>
<totfact> 0.18035525E+00</totfact>
</mgrwt>
</event>
<event>
 4    1  0.1701380E-008  0.3654827E+03  0.7818608E-02  0.1056434E+00
          2   -1    0    0  501    0  0.00000000000E+00  0.00000000000E+00  0.23758066037E+04  0.23758066037E+04  0.25500000000E-02 0. -1.
         -2   -1    0    0    0  501 -0.00000000000E+00 -0.00000000000E+00 -0.16468716109E+03  0.16468716111E+03  0.25500000000E-02 0.  1.
    8880022    1    1    2    0    0  0.16668846979E+03 -0.28705552693E+03  0.21364185769E+04  0.21674551691E+04  0.15294330000E+03 0.  0.
    8880022    1    1    2    0    0 -0.16668846979E+03  0.28705552693E+03  0.74700865707E+02  0.37303859567E+03  0.15294330000E+03 0.  1.
<mgrwt>
<rscale>  0 0.36548266E+03</rscale>
<asrwt>0</asrwt>
<pdfrwt beam="1">  1        2 0.36550871E+00 0.36548266E+03</pdfrwt>
<pdfrwt beam="2">  1       -2 0.25336486E-01 0.36548266E+03</pdfrwt>
<totfact> 0.63776946E+01</totfact>
</mgrwt>
</event>
<event>
 4    1  0.1701380E-008  0.6314696E+03  0.7818608E-02  0.9842185E-01
          2   -1    0    0  501    0  0.00000000000E+00  0.00000000000E+00  0.13947793568E+04  0.13947793568E+04  0.25500000000E-02 0. -1.
         -2   -1    0    0    0  501 -0.00000000000E+00 -0.00000000000E+00 -0.45126600451E+03  0.45126600451E+03  0.25500000000E-02 0.  1.
    8880022    1    1    2    0    0  0.59908533549E+03  0.12829269003E+03 -0.87011805212E+02  0.63743624056E+03  0.15294330000E+03 0.  0.
    8880022    1    1    2    0    0 -0.59908533549E+03 -0.12829269003E+03  0.10305251575E+04  0.12086091208E+04  0.15294330000E+03 0.  0.
<mgrwt>
<rscale>  0 0.63146964E+03</rscale>
<asrwt>0</asrwt>
<pdfrwt beam="1">  1        2 0.21458144E+00 0.63146964E+03</pdfrwt>
<pdfrwt beam="2">  1       -2 0.69425539E-01 0.63146964E+03</pdfrwt>
<totfact> 0.28587057E+01</totfact>
</mgrwt>
</event>
<event>
 4    1  0.1701380E-008  0.5839189E+03  0.7818608E-02  0.9939343E-01
         -2   -1    0    0    0  501 -0.00000000000E+00  0.00000000000E+00  0.18034080866E+04  0.18034080866E+04  0.25500000000E-02 0.  1.
          2   -1    0    0  501    0  0.00000000000E+00 -0.00000000000E+00 -0.42719339301E+03  0.42719339302E+03  0.25500000000E-02 0. -1.
    8880022    1    1    2    0    0  0.35704484523E+03  0.43599148077E+03 -0.14458652765E+03  0.60155341392E+03  0.15294330000E+03 0.  0.
    8880022    1    1    2    0    0 -0.35704484523E+03 -0.43599148077E+03  0.15208012212E+04  0.16290480657E+04  0.15294330000E+03 0.  0.
<mgrwt>
<rscale>  0 0.58391887E+03</rscale>
<asrwt>0</asrwt>
<pdfrwt beam="1">  1        2 0.65722062E-01 0.58391887E+03</pdfrwt>
<pdfrwt beam="2">  1       -2 0.27744739E+00 0.58391887E+03</pdfrwt>
<totfact> 0.34239267E+00</totfact>
</mgrwt>
</event>
<event>
 4    1  0.1701380E-008  0.9925582E+03  0.7818608E-02  0.9316745E-01
         -2   -1    0    0    0  501 -0.00000000000E+00  0.00000000000E+00  0.72117321915E+03  0.72117321915E+03  0.25500000000E-02 0.  1.
          2   -1    0    0  501    0  0.00000000000E+00 -0.00000000000E+00 -0.14883556367E+04  0.14883556367E+04  0.25500000000E-02 0. -1.
    8880022    1    1    2    0    0 -0.97770592480E+03 -0.76624162154E+02 -0.66920954283E+02  0.99481164285E+03  0.15294330000E+03 0.  0.
    8880022    1    1    2    0    0  0.97770592480E+03  0.76624162154E+02 -0.70026146329E+03  0.12147172130E+04  0.15294330000E+03 0.  0.
<mgrwt>
<rscale>  0 0.99255821E+03</rscale>
<asrwt>0</asrwt>
<pdfrwt beam="1">  1        2 0.22897779E+00 0.99255821E+03</pdfrwt>
<pdfrwt beam="2">  1       -2 0.11094973E+00 0.99255821E+03</pdfrwt>
<totfact> 0.82542015E+00</totfact>
</mgrwt>
</event>
<event>
 4    1  0.1701380E-008  0.1088825E+04  0.7818608E-02  0.9216153E-01
         -2   -1    0    0    0  501 -0.00000000000E+00  0.00000000000E+00  0.63631315322E+03  0.63631315322E+03  0.25500000000E-02 0.  1.
          2   -1    0    0  501    0  0.00000000000E+00 -0.00000000000E+00 -0.39135446107E+04  0.39135446107E+04  0.25500000000E-02 0. -1.
    8880022    1    1    2    0    0 -0.91019488273E+03 -0.57766152654E+03  0.80394963683E+01  0.10888543752E+04  0.15294330000E+03 0.  0.
    8880022    1    1    2    0    0  0.91019488273E+03  0.57766152654E+03 -0.32852709539E+04  0.34610033888E+04  0.15294330000E+03 0.  0.
<mgrwt>
<rscale>  0 0.10888247E+04</rscale>
<asrwt>0</asrwt>
<pdfrwt beam="1">  1        2 0.60208377E+00 0.10888247E+04</pdfrwt>
<pdfrwt beam="2">  1       -2 0.97894334E-01 0.10888247E+04</pdfrwt>
<totfact> 0.35908408E-01</totfact>
</mgrwt>
</event>
<event>
 4    1  0.1701380E-008  0.5762395E+03  0.7818608E-02  0.9955966E-01
          2   -1    0    0  501    0  0.00000000000E+00  0.00000000000E+00  0.41571808942E+03  0.41571808943E+03  0.25500000000E-02 0. -1.
         -2   -1    0    0    0  501 -0.00000000000E+00 -0.00000000000E+00 -0.12397732499E+04  0.12397732499E+04  0.25500000000E-02 0.  1.
    8880022    1    1    2    0    0  0.22013281160E+03 -0.51009985344E+03  0.81668764196E+02  0.58199807154E+03  0.15294330000E+03 0.  0.
    8880022    1    1    2    0    0 -0.22013281160E+03  0.51009985344E+03 -0.90572392466E+03  0.10734932678E+04  0.15294330000E+03 0.  0.
<mgrwt>
<rscale>  0 0.57623951E+03</rscale>
<asrwt>0</asrwt>
<pdfrwt beam="1">  1        2 0.63956630E-01 0.57623951E+03</pdfrwt>
<pdfrwt beam="2">  1       -2 0.19073434E+00 0.57623951E+03</pdfrwt>
<totfact> 0.12101804E+01</totfact>
</mgrwt>
</event>
<event>
 4    1  0.1701380E-008  0.9190624E+03  0.7818608E-02  0.9402061E-01
         -2   -1    0    0    0  501 -0.00000000000E+00  0.00000000000E+00  0.12701724577E+04  0.12701724577E+04  0.25500000000E-02 0.  1.
          2   -1    0    0  501    0  0.00000000000E+00 -0.00000000000E+00 -0.95843195276E+03  0.95843195276E+03  0.25500000000E-02 0. -1.
    8880022    1    1    2    0    0 -0.73346836925E+03 -0.53226697587E+03 -0.46068168889E+03  0.10280580012E+04  0.15294330000E+03 0.  0.
    8880022    1    1    2    0    0  0.73346836925E+03  0.53226697587E+03  0.77242219379E+03  0.12005464093E+04  0.15294330000E+03 0.  0.
<mgrwt>
<rscale>  0 0.91906237E+03</rscale>
<asrwt>0</asrwt>
<pdfrwt beam="1">  1        2 0.14745107E+00 0.91906237E+03</pdfrwt>
<pdfrwt beam="2">  1       -2 0.19541115E+00 0.91906237E+03</pdfrwt>
<totfact> 0.38265910E+00</totfact>
</mgrwt>
</event>
<event>
 4    1  0.1701380E-008  0.8170126E+03  0.7818608E-02  0.9535713E-01
         -2   -1    0    0    0  501 -0.00000000000E+00  0.00000000000E+00  0.13394943851E+04  0.13394943851E+04  0.25500000000E-02 0.  1.
          2   -1    0    0  501    0  0.00000000000E+00 -0.00000000000E+00 -0.13947421088E+04  0.13947421088E+04  0.25500000000E-02 0. -1.
    8880022    1    1    2    0    0  0.79306033953E+03  0.12317995256E+03 -0.11236302505E+04  0.13892640482E+04  0.15294330000E+03 0.  0.
    8880022    1    1    2    0    0 -0.79306033953E+03 -0.12317995256E+03  0.10683825268E+04  0.13449724456E+04  0.15294330000E+03 0.  0.
<mgrwt>
<rscale>  0 0.81701264E+03</rscale>
<asrwt>0</asrwt>
<pdfrwt beam="1">  1        2 0.21457571E+00 0.81701264E+03</pdfrwt>
<pdfrwt beam="2">  1       -2 0.20607606E+00 0.81701264E+03</pdfrwt>
<totfact> 0.18040010E+00</totfact>
</mgrwt>
</event>
<event>
 4    1  0.1701380E-008  0.2259279E+04  0.7818608E-02  0.8494152E-01
         -2   -1    0    0    0  501 -0.00000000000E+00  0.00000000000E+00  0.19944377310E+04  0.19944377310E+04  0.25500000000E-02 0.  1.
          2   -1    0    0  501    0  0.00000000000E+00 -0.00000000000E+00 -0.30305818943E+04  0.30305818943E+04  0.25500000000E-02 0. -1.
    8880022    1    1    2    0    0 -0.20393664662E+04 -0.96017398291E+03 -0.15088823188E+04  0.27168119489E+04  0.15294330000E+03 0.  0.
    8880022    1    1    2    0    0  0.20393664662E+04  0.96017398291E+03  0.47273815557E+03  0.23082076764E+04  0.15294330000E+03 0.  0.
<mgrwt>
<rscale>  0 0.22592789E+04</rscale>
<asrwt>0</asrwt>
<pdfrwt beam="1">  1        2 0.46624337E+00 0.22592789E+04</pdfrwt>
<pdfrwt beam="2">  1       -2 0.30683657E+00 0.22592789E+04</pdfrwt>
<totfact> 0.41397300E-02</totfact>
</mgrwt>
</event>
<event>
 4    1  0.1701380E-008  0.8060577E+03  0.7818608E-02  0.9551290E-01
         -2   -1    0    0    0  501 -0.00000000000E+00  0.00000000000E+00  0.11466075469E+04  0.11466075469E+04  0.25500000000E-02 0.  1.
          2   -1    0    0  501    0  0.00000000000E+00 -0.00000000000E+00 -0.22455651041E+04  0.22455651041E+04  0.25500000000E-02 0. -1.
    8880022    1    1    2    0    0 -0.66479543097E+03 -0.42940009929E+03  0.91707858845E+03  0.12209677312E+04  0.15294330000E+03 0.  0.
    8880022    1    1    2    0    0  0.66479543097E+03  0.42940009929E+03 -0.20160361456E+04  0.21712049198E+04  0.15294330000E+03 0.  0.
<mgrwt>
<rscale>  0 0.80605773E+03</rscale>
<asrwt>0</asrwt>
<pdfrwt beam="1">  1        2 0.34547155E+00 0.80605773E+03</pdfrwt>
<pdfrwt beam="2">  1       -2 0.17640116E+00 0.80605773E+03</pdfrwt>
<totfact> 0.96806958E-01</totfact>
</mgrwt>
</event>
<event>
 4    1  0.1701380E-008  0.1080094E+04  0.7818608E-02  0.9224814E-01
          2   -1    0    0  501    0  0.00000000000E+00  0.00000000000E+00  0.10890251913E+04  0.10890251913E+04  0.25500000000E-02 0. -1.
         -2   -1    0    0    0  501 -0.00000000000E+00 -0.00000000000E+00 -0.18294385632E+04  0.18294385632E+04  0.25500000000E-02 0.  1.
    8880022    1    1    2    0    0  0.21413547978E+03 -0.10475481719E+04  0.56920954601E+03  0.12209022633E+04  0.15294330000E+03 0.  0.
    8880022    1    1    2    0    0 -0.21413547978E+03  0.10475481719E+04 -0.13096229179E+04  0.16975614912E+04  0.15294330000E+03 0.  0.
<mgrwt>
<rscale>  0 0.10800939E+04</rscale>
<asrwt>0</asrwt>
<pdfrwt beam="1">  1        2 0.16754234E+00 0.10800939E+04</pdfrwt>
<pdfrwt beam="2">  1       -2 0.28145209E+00 0.10800939E+04</pdfrwt>
<totfact> 0.90420060E-01</totfact>
</mgrwt>
</event>
<event>
 4    1  0.1701380E-008  0.5168967E+03  0.7818608E-02  0.1009460E+00
          2   -1    0    0  501    0  0.00000000000E+00  0.00000000000E+00  0.23942044992E+04  0.23942044992E+04  0.25500000000E-02 0. -1.
         -2   -1    0    0    0  501 -0.00000000000E+00 -0.00000000000E+00 -0.13631573782E+03  0.13631573785E+03  0.25500000000E-02 0.  1.
    8880022    1    1    2    0    0  0.48846293598E+03  0.72072966305E+02  0.16677523783E+04  0.17460183849E+04  0.15294330000E+03 0.  0.
    8880022    1    1    2    0    0 -0.48846293598E+03 -0.72072966305E+02  0.59013638316E+03  0.78450185216E+03  0.15294330000E+03 0.  0.
<mgrwt>
<rscale>  0 0.51689671E+03</rscale>
<asrwt>0</asrwt>
<pdfrwt beam="1">  1        2 0.36833916E+00 0.51689671E+03</pdfrwt>
<pdfrwt beam="2">  1       -2 0.20971652E-01 0.51689671E+03</pdfrwt>
<totfact> 0.84247171E+01</totfact>
</mgrwt>
</event>
<event>
 4    1  0.1701380E-008  0.1778725E+04  0.7818608E-02  0.8717696E-01
          2   -1    0    0  501    0  0.00000000000E+00  0.00000000000E+00  0.22280583750E+04  0.22280583750E+04  0.25500000000E-02 0. -1.
         -2   -1    0    0    0  501 -0.00000000000E+00 -0.00000000000E+00 -0.15994596463E+04  0.15994596463E+04  0.25500000000E-02 0.  1.
    8880022    1    1    2    0    0  0.15747095154E+04  0.81287123359E+03 -0.32672418221E+03  0.18084828018E+04  0.15294330000E+03 0.  0.
    8880022    1    1    2    0    0 -0.15747095154E+04 -0.81287123359E+03  0.95532291099E+03  0.20190352195E+04  0.15294330000E+03 0.  0.
<mgrwt>
<rscale>  0 0.17787246E+04</rscale>
<asrwt>0</asrwt>
<pdfrwt beam="1">  1        2 0.34277821E+00 0.17787246E+04</pdfrwt>
<pdfrwt beam="2">  1       -2 0.24607072E+00 0.17787246E+04</pdfrwt>
<totfact> 0.30801403E-01</totfact>
</mgrwt>
</event>
<event>
 4    1  0.1701380E-008  0.1870714E+04  0.7818608E-02  0.8669573E-01
         -2   -1    0    0    0  501 -0.00000000000E+00  0.00000000000E+00  0.18222790624E+04  0.18222790624E+04  0.25500000000E-02 0.  1.
          2   -1    0    0  501    0  0.00000000000E+00 -0.00000000000E+00 -0.25935354301E+04  0.25935354301E+04  0.25500000000E-02 0. -1.
    8880022    1    1    2    0    0  0.34740864603E+03  0.18317988897E+04  0.73916873277E+03  0.20114527109E+04  0.15294330000E+03 0.  0.
    8880022    1    1    2    0    0 -0.34740864603E+03 -0.18317988897E+04 -0.15104251005E+04  0.24043617816E+04  0.15294330000E+03 0.  0.
<mgrwt>
<rscale>  0 0.18707142E+04</rscale>
<asrwt>0</asrwt>
<pdfrwt beam="1">  1        2 0.39900545E+00 0.18707142E+04</pdfrwt>
<pdfrwt beam="2">  1       -2 0.28035062E+00 0.18707142E+04</pdfrwt>
<totfact> 0.11561241E-01</totfact>
</mgrwt>
</event>
<event>
 4    1  0.1701380E-008  0.3918451E+03  0.7818608E-02  0.1046641E+00
         -2   -1    0    0    0  501 -0.00000000000E+00  0.00000000000E+00  0.41855283559E+03  0.41855283560E+03  0.25500000000E-02 0.  1.
          2   -1    0    0  501    0  0.00000000000E+00 -0.00000000000E+00 -0.91056787111E+03  0.91056787111E+03  0.25500000000E-02 0. -1.
    8880022    1    1    2    0    0  0.24506284712E+03 -0.26475490384E+03 -0.75954057747E+03  0.85466045889E+03  0.15294330000E+03 0. -1.
    8880022    1    1    2    0    0 -0.24506284712E+03  0.26475490384E+03  0.26752554196E+03  0.47446024782E+03  0.15294330000E+03 0.  0.
<mgrwt>
<rscale>  0 0.39184514E+03</rscale>
<asrwt>0</asrwt>
<pdfrwt beam="1">  1        2 0.14008736E+00 0.39184514E+03</pdfrwt>
<pdfrwt beam="2">  1       -2 0.64392744E-01 0.39184514E+03</pdfrwt>
<totfact> 0.67680858E+01</totfact>
</mgrwt>
</event>
<event>
 4    1  0.1701380E-008  0.4786398E+03  0.7818608E-02  0.1019510E+00
          2   -1    0    0  501    0  0.00000000000E+00  0.00000000000E+00  0.69078654138E+03  0.69078654139E+03  0.25500000000E-02 0. -1.
         -2   -1    0    0    0  501 -0.00000000000E+00 -0.00000000000E+00 -0.79200009750E+03  0.79200009751E+03  0.25500000000E-02 0.  1.
    8880022    1    1    2    0    0  0.31509745145E+03 -0.32621773593E+03  0.51463260793E+03  0.70281063546E+03  0.15294330000E+03 0.  0.
    8880022    1    1    2    0    0 -0.31509745145E+03  0.32621773593E+03 -0.61584616405E+03  0.77997600344E+03  0.15294330000E+03 0.  1.
<mgrwt>
<rscale>  0 0.47863981E+03</rscale>
<asrwt>0</asrwt>
<pdfrwt beam="1">  1        2 0.10627485E+00 0.47863981E+03</pdfrwt>
<pdfrwt beam="2">  1       -2 0.12184617E+00 0.47863981E+03</pdfrwt>
<totfact> 0.22268192E+01</totfact>
</mgrwt>
</event>
<event>
 4    1  0.1701380E-008  0.1409584E+04  0.7818608E-02  0.8946910E-01
          2   -1    0    0  501    0  0.00000000000E+00  0.00000000000E+00  0.22416851035E+04  0.22416851035E+04  0.25500000000E-02 0. -1.
         -2   -1    0    0    0  501 -0.00000000000E+00 -0.00000000000E+00 -0.13001737435E+04  0.13001737435E+04  0.25500000000E-02 0.  1.
    8880022    1    1    2    0    0 -0.12639596516E+04 -0.60493136933E+03 -0.52833731521E+03  0.15053464499E+04  0.15294330000E+03 0.  0.
    8880022    1    1    2    0    0  0.12639596516E+04  0.60493136933E+03  0.14698486752E+04  0.20365123971E+04  0.15294330000E+03 0.  0.
<mgrwt>
<rscale>  0 0.14095842E+04</rscale>
<asrwt>0</asrwt>
<pdfrwt beam="1">  1        2 0.34487463E+00 0.14095842E+04</pdfrwt>
<pdfrwt beam="2">  1       -2 0.20002673E+00 0.14095842E+04</pdfrwt>
<totfact> 0.61685769E-01</totfact>
</mgrwt>
</event>
<event>
 4    1  0.1701380E-008  0.9910641E+03  0.7818608E-02  0.9318400E-01
         -2   -1    0    0    0  501 -0.00000000000E+00  0.00000000000E+00  0.24593306294E+04  0.24593306294E+04  0.25500000000E-02 0.  1.
          2   -1    0    0  501    0  0.00000000000E+00 -0.00000000000E+00 -0.56513789589E+03  0.56513789590E+03  0.25500000000E-02 0. -1.
    8880022    1    1    2    0    0  0.68433464629E+03 -0.70035885231E+03  0.12810628419E+03  0.99930941314E+03  0.15294330000E+03 0. -1.
    8880022    1    1    2    0    0 -0.68433464629E+03  0.70035885231E+03  0.17660864493E+04  0.20251591122E+04  0.15294330000E+03 0.  0.
<mgrwt>
<rscale>  0 0.99106412E+03</rscale>
<asrwt>0</asrwt>
<pdfrwt beam="1">  1        2 0.86944292E-01 0.99106412E+03</pdfrwt>
<pdfrwt beam="2">  1       -2 0.37835856E+00 0.99106412E+03</pdfrwt>
<totfact> 0.55711780E-01</totfact>
</mgrwt>
</event>
<event>
 4    1  0.1701380E-008  0.4613635E+03  0.7818608E-02  0.1024387E+00
         -2   -1    0    0    0  501 -0.00000000000E+00  0.00000000000E+00  0.10131470717E+03  0.10131470720E+03  0.25500000000E-02 0.  1.
          2   -1    0    0  501    0  0.00000000000E+00 -0.00000000000E+00 -0.26264197073E+04  0.26264197073E+04  0.25500000000E-02 0. -1.
    8880022    1    1    2    0    0  0.27472269525E+03  0.33762712208E+03 -0.65249984024E+03  0.79913223397E+03  0.15294330000E+03 0.  0.
    8880022    1    1    2    0    0 -0.27472269525E+03 -0.33762712208E+03 -0.18726051599E+04  0.19286021805E+04  0.15294330000E+03 0.  0.
<mgrwt>
<rscale>  0 0.46136351E+03</rscale>
<asrwt>0</asrwt>
<pdfrwt beam="1">  1        2 0.40406452E+00 0.46136351E+03</pdfrwt>
<pdfrwt beam="2">  1       -2 0.15586880E-01 0.46136351E+03</pdfrwt>
<totfact> 0.10495983E+02</totfact>
</mgrwt>
</event>
<event>
 4    1  0.1701380E-008  0.9357233E+03  0.7818608E-02  0.9381995E-01
          2   -1    0    0  501    0  0.00000000000E+00  0.00000000000E+00  0.41815280923E+04  0.41815280923E+04  0.25500000000E-02 0. -1.
         -2   -1    0    0    0  501 -0.00000000000E+00 -0.00000000000E+00 -0.37702690821E+03  0.37702690822E+03  0.25500000000E-02 0.  1.
    8880022    1    1    2    0    0  0.91274766023E+03  0.13812341933E+03  0.34220750097E+04  0.35477000149E+04  0.15294330000E+03 0.  0.
    8880022    1    1    2    0    0 -0.91274766023E+03 -0.13812341933E+03  0.38242617437E+03  0.10108549857E+04  0.15294330000E+03 0.  0.
<mgrwt>
<rscale>  0 0.93572326E+03</rscale>
<asrwt>0</asrwt>
<pdfrwt beam="1">  1        2 0.64331201E+00 0.93572326E+03</pdfrwt>
<pdfrwt beam="2">  1       -2 0.58004140E-01 0.93572326E+03</pdfrwt>
<totfact> 0.72176654E-01</totfact>
</mgrwt>
</event>
<event>
 4    1  0.1701380E-008  0.4978639E+03  0.7818608E-02  0.1014338E+00
          2   -1    0    0  501    0  0.00000000000E+00  0.00000000000E+00  0.41372137482E+04  0.41372137482E+04  0.25500000000E-02 0. -1.
         -2   -1    0    0    0  501 -0.00000000000E+00 -0.00000000000E+00 -0.36046768395E+03  0.36046768396E+03  0.25500000000E-02 0.  1.
    8880022    1    1    2    0    0  0.40068756693E+03  0.25283654003E+03  0.39418415307E+04  0.39731578308E+04  0.15294330000E+03 0.  0.
    8880022    1    1    2    0    0 -0.40068756693E+03 -0.25283654003E+03 -0.16509546649E+03  0.52452360132E+03  0.15294330000E+03 0.  0.
<mgrwt>
<rscale>  0 0.49786393E+03</rscale>
<asrwt>0</asrwt>
<pdfrwt beam="1">  1        2 0.63649440E+00 0.49786393E+03</pdfrwt>
<pdfrwt beam="2">  1       -2 0.55456568E-01 0.49786393E+03</pdfrwt>
<totfact> 0.97606686E-01</totfact>
</mgrwt>
</event>
<event>
 4    1  0.1701380E-008  0.4450308E+03  0.7818608E-02  0.1029214E+00
         -2   -1    0    0    0  501 -0.00000000000E+00  0.00000000000E+00  0.52246231363E+03  0.52246231363E+03  0.25500000000E-02 0.  1.
          2   -1    0    0  501    0  0.00000000000E+00 -0.00000000000E+00 -0.20960367760E+04  0.20960367760E+04  0.25500000000E-02 0. -1.
    8880022    1    1    2    0    0 -0.54369356601E+02 -0.41437270582E+03 -0.19717461429E+04  0.20213449165E+04  0.15294330000E+03 0.  0.
    8880022    1    1    2    0    0  0.54369356601E+02  0.41437270582E+03  0.39817168057E+03  0.59715417313E+03  0.15294330000E+03 0.  0.
<mgrwt>
<rscale>  0 0.44503081E+03</rscale>
<asrwt>0</asrwt>
<pdfrwt beam="1">  1        2 0.32246719E+00 0.44503081E+03</pdfrwt>
<pdfrwt beam="2">  1       -2 0.80378818E-01 0.44503081E+03</pdfrwt>
<totfact> 0.89264764E+00</totfact>
</mgrwt>
</event>
<event>
 4    1  0.1701380E-008  0.6444918E+03  0.7818608E-02  0.9817170E-01
         -2   -1    0    0    0  501 -0.00000000000E+00  0.00000000000E+00  0.10850983745E+04  0.10850983745E+04  0.25500000000E-02 0.  1.
          2   -1    0    0  501    0  0.00000000000E+00 -0.00000000000E+00 -0.20959194231E+04  0.20959194231E+04  0.25500000000E-02 0. -1.
    8880022    1    1    2    0    0 -0.36703157781E+02 -0.62500467616E+03 -0.19433590404E+04  0.20474408368E+04  0.15294330000E+03 0.  0.
    8880022    1    1    2    0    0  0.36703157781E+02  0.62500467616E+03  0.93253799185E+03  0.11335769609E+04  0.15294330000E+03 0.  0.
<mgrwt>
<rscale>  0 0.64449175E+03</rscale>
<asrwt>0</asrwt>
<pdfrwt beam="1">  1        2 0.32244914E+00 0.64449175E+03</pdfrwt>
<pdfrwt beam="2">  1       -2 0.16693821E+00 0.64449175E+03</pdfrwt>
<totfact> 0.14112623E+00</totfact>
</mgrwt>
</event>
<event>
 4    1  0.1701380E-008  0.7297029E+03  0.7818608E-02  0.9667743E-01
          2   -1    0    0  501    0  0.00000000000E+00  0.00000000000E+00  0.47306576746E+03  0.47306576747E+03  0.25500000000E-02 0. -1.
         -2   -1    0    0    0  501 -0.00000000000E+00 -0.00000000000E+00 -0.15726789451E+04  0.15726789451E+04  0.25500000000E-02 0.  1.
    8880022    1    1    2    0    0  0.17375950716E+03 -0.69201321589E+03 -0.44124425979E+01  0.72971623249E+03  0.15294330000E+03 0.  0.
    8880022    1    1    2    0    0 -0.17375950716E+03  0.69201321589E+03 -0.10952007350E+04  0.13160284801E+04  0.15294330000E+03 0.  0.
<mgrwt>
<rscale>  0 0.72970289E+03</rscale>
<asrwt>0</asrwt>
<pdfrwt beam="1">  1        2 0.72779349E-01 0.72970289E+03</pdfrwt>
<pdfrwt beam="2">  1       -2 0.24195060E+00 0.72970289E+03</pdfrwt>
<totfact> 0.48719003E+00</totfact>
</mgrwt>
</event>
<event>
 4    1  0.2023824E-008  0.1240177E+04  0.7818608E-02  0.9078399E-01
         -2   -1    0    0    0  501 -0.00000000000E+00  0.00000000000E+00  0.19029605224E+04  0.19029605224E+04  0.25500000000E-02 0.  1.
          2   -1    0    0  501    0  0.00000000000E+00 -0.00000000000E+00 -0.18026681232E+04  0.18026681232E+04  0.25500000000E-02 0. -1.
    8880022    1    1    2    0    0 -0.10872740671E+04  0.57661253829E+03  0.14262838724E+04  0.18900593255E+04  0.15294330000E+03 0.  0.
    8880022    1    1    2    0    0  0.10872740671E+04 -0.57661253829E+03 -0.13259914732E+04  0.18155693201E+04  0.15294330000E+03 0.  0.
<mgrwt>
<rscale>  0 0.12401768E+04</rscale>
<asrwt>0</asrwt>
<pdfrwt beam="1">  1        2 0.27733356E+00 0.12401768E+04</pdfrwt>
<pdfrwt beam="2">  1       -2 0.29276316E+00 0.12401768E+04</pdfrwt>
<totfact> 0.29350145E-01</totfact>
</mgrwt>
</event>
<event>
 4    1  0.1701380E-008  0.9226850E+03  0.7818608E-02  0.9397660E-01
          2   -1    0    0  501    0  0.00000000000E+00  0.00000000000E+00  0.53205122443E+03  0.53205122443E+03  0.25500000000E-02 0. -1.
         -2   -1    0    0    0  501 -0.00000000000E+00 -0.00000000000E+00 -0.21636961739E+04  0.21636961739E+04  0.25500000000E-02 0.  1.
    8880022    1    1    2    0    0  0.64974552454E+03 -0.63701384447E+03 -0.12792119395E+03  0.93151026273E+03  0.15294330000E+03 0.  0.
    8880022    1    1    2    0    0 -0.64974552454E+03  0.63701384447E+03 -0.15037237555E+04  0.17642371356E+04  0.15294330000E+03 0.  0.
<mgrwt>
<rscale>  0 0.92268496E+03</rscale>
<asrwt>0</asrwt>
<pdfrwt beam="1">  1        2 0.81854036E-01 0.92268496E+03</pdfrwt>
<pdfrwt beam="2">  1       -2 0.33287633E+00 0.92268496E+03</pdfrwt>
<totfact> 0.11660086E+00</totfact>
</mgrwt>
</event>
<event>
 4    1  0.1701380E-008  0.8262818E+03  0.7818608E-02  0.9522736E-01
          2   -1    0    0  501    0  0.00000000000E+00  0.00000000000E+00  0.95882335374E+03  0.95882335374E+03  0.25500000000E-02 0. -1.
         -2   -1    0    0    0  501 -0.00000000000E+00 -0.00000000000E+00 -0.11813740624E+04  0.11813740624E+04  0.25500000000E-02 0.  1.
    8880022    1    1    2    0    0 -0.56119593101E+03 -0.58686371524E+03  0.56319217193E+03  0.99996348372E+03  0.15294330000E+03 0.  0.
    8880022    1    1    2    0    0  0.56119593101E+03  0.58686371524E+03 -0.78574288063E+03  0.11402339325E+04  0.15294330000E+03 0.  0.
<mgrwt>
<rscale>  0 0.82628176E+03</rscale>
<asrwt>0</asrwt>
<pdfrwt beam="1">  1        2 0.14751129E+00 0.82628176E+03</pdfrwt>
<pdfrwt beam="2">  1       -2 0.18174986E+00 0.82628176E+03</pdfrwt>
<totfact> 0.47764092E+00</totfact>
</mgrwt>
</event>
<event>
 4    1  0.1701380E-008  0.1438432E+04  0.7818608E-02  0.8926460E-01
         -2   -1    0    0    0  501 -0.00000000000E+00  0.00000000000E+00  0.19146633178E+04  0.19146633178E+04  0.25500000000E-02 0.  1.
          2   -1    0    0  501    0  0.00000000000E+00 -0.00000000000E+00 -0.17013595068E+04  0.17013595068E+04  0.25500000000E-02 0. -1.
    8880022    1    1    2    0    0 -0.13979170919E+04 -0.30252616625E+03 -0.98540785165E+03  0.17435924306E+04  0.15294330000E+03 0.  0.
    8880022    1    1    2    0    0  0.13979170919E+04  0.30252616625E+03  0.11987116626E+04  0.18724303939E+04  0.15294330000E+03 0.  0.
<mgrwt>
<rscale>  0 0.14384318E+04</rscale>
<asrwt>0</asrwt>
<pdfrwt beam="1">  1        2 0.26174762E+00 0.14384318E+04</pdfrwt>
<pdfrwt beam="2">  1       -2 0.29456359E+00 0.14384318E+04</pdfrwt>
<totfact> 0.31773854E-01</totfact>
</mgrwt>
</event>
<event>
 4    1  0.1701380E-008  0.9613969E+03  0.7818608E-02  0.9351928E-01
         -2   -1    0    0    0  501 -0.00000000000E+00  0.00000000000E+00  0.80566246447E+03  0.80566246447E+03  0.25500000000E-02 0.  1.
          2   -1    0    0  501    0  0.00000000000E+00 -0.00000000000E+00 -0.17968614530E+04  0.17968614530E+04  0.25500000000E-02 0. -1.
    8880022    1    1    2    0    0 -0.93894669407E+03 -0.13882146388E+03  0.28681949866E+03  0.10032693412E+04  0.15294330000E+03 0.  0.
    8880022    1    1    2    0    0  0.93894669407E+03  0.13882146388E+03 -0.12780184872E+04  0.15992545763E+04  0.15294330000E+03 0.  0.
<mgrwt>
<rscale>  0 0.96139687E+03</rscale>
<asrwt>0</asrwt>
<pdfrwt beam="1">  1        2 0.27644022E+00 0.96139687E+03</pdfrwt>
<pdfrwt beam="2">  1       -2 0.12394807E+00 0.96139687E+03</pdfrwt>
<totfact> 0.42477293E+00</totfact>
</mgrwt>
</event>
<event>
 4    1  0.1701380E-008  0.1374650E+04  0.7818608E-02  0.8972376E-01
          2   -1    0    0  501    0  0.00000000000E+00  0.00000000000E+00  0.30445593143E+04  0.30445593143E+04  0.25500000000E-02 0. -1.
         -2   -1    0    0    0  501 -0.00000000000E+00 -0.00000000000E+00 -0.14402910091E+04  0.14402910091E+04  0.25500000000E-02 0.  1.
    8880022    1    1    2    0    0  0.21168443922E+02 -0.13659510266E+04 -0.88947404133E+03  0.16373228250E+04  0.15294330000E+03 0.  0.
    8880022    1    1    2    0    0 -0.21168443922E+02  0.13659510266E+04  0.24937423466E+04  0.28475274984E+04  0.15294330000E+03 0.  0.
<mgrwt>
<rscale>  0 0.13746498E+04</rscale>
<asrwt>0</asrwt>
<pdfrwt beam="1">  1        2 0.46839374E+00 0.13746498E+04</pdfrwt>
<pdfrwt beam="2">  1       -2 0.22158323E+00 0.13746498E+04</pdfrwt>
<totfact> 0.15102022E-01</totfact>
</mgrwt>
</event>
<event>
 4    1  0.1701380E-008  0.4719111E+03  0.7818608E-02  0.1021382E+00
          2   -1    0    0  501    0  0.00000000000E+00  0.00000000000E+00  0.58408011671E+03  0.58408011672E+03  0.25500000000E-02 0. -1.
         -2   -1    0    0    0  501 -0.00000000000E+00 -0.00000000000E+00 -0.72877778689E+03  0.72877778689E+03  0.25500000000E-02 0.  1.
    8880022    1    1    2    0    0 -0.43941769890E+03  0.78870450719E+02  0.38092848981E+03  0.60647063364E+03  0.15294330000E+03 0.  0.
    8880022    1    1    2    0    0  0.43941769890E+03 -0.78870450719E+02 -0.52562615999E+03  0.70638726997E+03  0.15294330000E+03 0.  0.
<mgrwt>
<rscale>  0 0.47191113E+03</rscale>
<asrwt>0</asrwt>
<pdfrwt beam="1">  1        2 0.89858480E-01 0.47191113E+03</pdfrwt>
<pdfrwt beam="2">  1       -2 0.11211966E+00 0.47191113E+03</pdfrwt>
<totfact> 0.33443889E+01</totfact>
</mgrwt>
</event>
<event>
 4    1  0.1701380E-008  0.4187205E+03  0.7818608E-02  0.1037484E+00
         -2   -1    0    0    0  501 -0.00000000000E+00  0.00000000000E+00  0.34855363415E+03  0.34855363416E+03  0.25500000000E-02 0.  1.
          2   -1    0    0  501    0  0.00000000000E+00 -0.00000000000E+00 -0.12495935384E+04  0.12495935384E+04  0.25500000000E-02 0. -1.
    8880022    1    1    2    0    0  0.34977868931E+03 -0.17201767612E+03 -0.10681676713E+04  0.11473051205E+04  0.15294330000E+03 0.  0.
    8880022    1    1    2    0    0 -0.34977868931E+03  0.17201767612E+03  0.16712776707E+03  0.45084205210E+03  0.15294330000E+03 0.  0.
<mgrwt>
<rscale>  0 0.41872051E+03</rscale>
<asrwt>0</asrwt>
<pdfrwt beam="1">  1        2 0.19224516E+00 0.41872051E+03</pdfrwt>
<pdfrwt beam="2">  1       -2 0.53623637E-01 0.41872051E+03</pdfrwt>
<totfact> 0.61471496E+01</totfact>
</mgrwt>
</event>
<event>
 4    1  0.1701380E-008  0.9385735E+03  0.7818608E-02  0.9378607E-01
         -2   -1    0    0    0  501 -0.00000000000E+00  0.00000000000E+00  0.58234021486E+03  0.58234021486E+03  0.25500000000E-02 0.  1.
          2   -1    0    0  501    0  0.00000000000E+00 -0.00000000000E+00 -0.28074325781E+04  0.28074325781E+04  0.25500000000E-02 0. -1.
    8880022    1    1    2    0    0 -0.76984293450E+03  0.51465556702E+03  0.38444748888E+02  0.93936049959E+03  0.15294330000E+03 0.  0.
    8880022    1    1    2    0    0  0.76984293450E+03 -0.51465556702E+03 -0.22635371121E+04  0.24504122933E+04  0.15294330000E+03 0.  0.
<mgrwt>
<rscale>  0 0.93857347E+03</rscale>
<asrwt>0</asrwt>
<pdfrwt beam="1">  1        2 0.43191270E+00 0.93857347E+03</pdfrwt>
<pdfrwt beam="2">  1       -2 0.89590804E-01 0.93857347E+03</pdfrwt>
<totfact> 0.25064318E+00</totfact>
</mgrwt>
</event>
<event>
 4    1  0.1701380E-008  0.1956746E+03  0.7818608E-02  0.1153441E+00
         -2   -1    0    0    0  501 -0.00000000000E+00  0.00000000000E+00  0.17429051968E+03  0.17429051970E+03  0.25500000000E-02 0.  1.
          2   -1    0    0  501    0  0.00000000000E+00 -0.00000000000E+00 -0.18502296851E+04  0.18502296851E+04  0.25500000000E-02 0. -1.
    8880022    1    1    2    0    0  0.42681684140E+02  0.11434667512E+03  0.11229821072E+03  0.22560901892E+03  0.15294330000E+03 0.  1.
    8880022    1    1    2    0    0 -0.42681684140E+02 -0.11434667512E+03 -0.17882373761E+04  0.17989111859E+04  0.15294330000E+03 0.  0.
<mgrwt>
<rscale>  0 0.19567458E+03</rscale>
<asrwt>0</asrwt>
<pdfrwt beam="1">  1        2 0.28465071E+00 0.19567458E+03</pdfrwt>
<pdfrwt beam="2">  1       -2 0.26813927E-01 0.19567458E+03</pdfrwt>
<totfact> 0.11553963E+02</totfact>
</mgrwt>
</event>
<event>
 4    1  0.1701380E-008  0.4219808E+03  0.7818608E-02  0.1036424E+00
          2   -1    0    0  501    0  0.00000000000E+00  0.00000000000E+00  0.44237687077E+03  0.44237687078E+03  0.25500000000E-02 0. -1.
         -2   -1    0    0    0  501 -0.00000000000E+00 -0.00000000000E+00 -0.26151260166E+04  0.26151260166E+04  0.25500000000E-02 0.  1.
    8880022    1    1    2    0    0 -0.20820755742E+02 -0.39273735409E+03 -0.24925584537E+04  0.25280259949E+04  0.15294330000E+03 0.  0.
    8880022    1    1    2    0    0  0.20820755742E+02  0.39273735409E+03  0.31980930787E+03  0.52947689240E+03  0.15294330000E+03 0. -1.
<mgrwt>
<rscale>  0 0.42198079E+03</rscale>
<asrwt>0</asrwt>
<pdfrwt beam="1">  1        2 0.68057981E-01 0.42198079E+03</pdfrwt>
<pdfrwt beam="2">  1       -2 0.40232707E+00 0.42198079E+03</pdfrwt>
<totfact> 0.58809178E-01</totfact>
</mgrwt>
</event>
<event>
 4    1  0.1701380E-008  0.5663822E+03  0.7818608E-02  0.9977716E-01
         -2   -1    0    0    0  501 -0.00000000000E+00  0.00000000000E+00  0.16008488994E+04  0.16008488994E+04  0.25500000000E-02 0.  1.
          2   -1    0    0  501    0  0.00000000000E+00 -0.00000000000E+00 -0.22753055887E+04  0.22753055887E+04  0.25500000000E-02 0. -1.
    8880022    1    1    2    0    0 -0.53455580308E+03 -0.10792213414E+03 -0.21879954969E+04  0.22601135019E+04  0.15294330000E+03 0.  0.
    8880022    1    1    2    0    0  0.53455580308E+03  0.10792213414E+03  0.15135388077E+04  0.16160409862E+04  0.15294330000E+03 0.  0.
<mgrwt>
<rscale>  0 0.56638216E+03</rscale>
<asrwt>0</asrwt>
<pdfrwt beam="1">  1        2 0.35004701E+00 0.56638216E+03</pdfrwt>
<pdfrwt beam="2">  1       -2 0.24628445E+00 0.56638216E+03</pdfrwt>
<totfact> 0.35428832E-01</totfact>
</mgrwt>
</event>
<event>
 4    1  0.1701380E-008  0.6014678E+03  0.7818608E-02  0.9902366E-01
          2   -1    0    0  501    0  0.00000000000E+00  0.00000000000E+00  0.14504102351E+04  0.14504102351E+04  0.25500000000E-02 0. -1.
         -2   -1    0    0    0  501 -0.00000000000E+00 -0.00000000000E+00 -0.84119866542E+03  0.84119866542E+03  0.25500000000E-02 0.  1.
    8880022    1    1    2    0    0  0.44868739157E+03 -0.37020458671E+03 -0.65643169886E+03  0.89031794302E+03  0.15294330000E+03 0.  0.
    8880022    1    1    2    0    0 -0.44868739157E+03  0.37020458671E+03  0.12656432685E+04  0.14012909575E+04  0.15294330000E+03 0. -1.
<mgrwt>
<rscale>  0 0.60146776E+03</rscale>
<asrwt>0</asrwt>
<pdfrwt beam="1">  1        2 0.22314003E+00 0.60146776E+03</pdfrwt>
<pdfrwt beam="2">  1       -2 0.12941518E+00 0.60146776E+03</pdfrwt>
<totfact> 0.62432228E+00</totfact>
</mgrwt>
</event>
<event>
 4    1  0.1701380E-008  0.7965320E+03  0.7818608E-02  0.9565051E-01
         -2   -1    0    0    0  501 -0.00000000000E+00  0.00000000000E+00  0.16039648260E+04  0.16039648260E+04  0.25500000000E-02 0.  1.
          2   -1    0    0  501    0  0.00000000000E+00 -0.00000000000E+00 -0.11901917966E+04  0.11901917966E+04  0.25500000000E-02 0. -1.
    8880022    1    1    2    0    0 -0.75030471532E+03  0.21934984391E+03  0.13484378342E+04  0.15661250798E+04  0.15294330000E+03 0.  0.
    8880022    1    1    2    0    0  0.75030471532E+03 -0.21934984391E+03 -0.93466480474E+03  0.12280315428E+04  0.15294330000E+03 0.  0.
<mgrwt>
<rscale>  0 0.79653197E+03</rscale>
<asrwt>0</asrwt>
<pdfrwt beam="1">  1        2 0.18310643E+00 0.79653197E+03</pdfrwt>
<pdfrwt beam="2">  1       -2 0.24676382E+00 0.79653197E+03</pdfrwt>
<totfact> 0.13273925E+00</totfact>
</mgrwt>
</event>
<event>
 4    1  0.1701380E-008  0.1813786E+04  0.7818608E-02  0.8699002E-01
          2   -1    0    0  501    0  0.00000000000E+00  0.00000000000E+00  0.20717523417E+04  0.20717523417E+04  0.25500000000E-02 0. -1.
         -2   -1    0    0    0  501 -0.00000000000E+00 -0.00000000000E+00 -0.19171422545E+04  0.19171422545E+04  0.25500000000E-02 0.  1.
    8880022    1    1    2    0    0  0.17956172243E+04 -0.20539691268E+03 -0.74916296665E+03  0.19624132877E+04  0.15294330000E+03 0.  0.
    8880022    1    1    2    0    0 -0.17956172243E+04  0.20539691268E+03  0.90377305387E+03  0.20264813086E+04  0.15294330000E+03 0.  0.
<mgrwt>
<rscale>  0 0.18137863E+04</rscale>
<asrwt>0</asrwt>
<pdfrwt beam="1">  1        2 0.31873113E+00 0.18137863E+04</pdfrwt>
<pdfrwt beam="2">  1       -2 0.29494496E+00 0.18137863E+04</pdfrwt>
<totfact> 0.18844282E-01</totfact>
</mgrwt>
</event>
<event>
 4    1  0.1701380E-008  0.6813751E+03  0.7818608E-02  0.9749624E-01
          2   -1    0    0  501    0  0.00000000000E+00  0.00000000000E+00  0.15082995777E+04  0.15082995777E+04  0.25500000000E-02 0. -1.
         -2   -1    0    0    0  501 -0.00000000000E+00 -0.00000000000E+00 -0.86586809162E+03  0.86586809163E+03  0.25500000000E-02 0.  1.
    8880022    1    1    2    0    0 -0.61309751398E+02  0.66115164477E+03 -0.63178803753E+03  0.92920835144E+03  0.15294330000E+03 0.  0.
    8880022    1    1    2    0    0  0.61309751398E+02 -0.66115164477E+03  0.12742195236E+04  0.14449593178E+04  0.15294330000E+03 0.  0.
<mgrwt>
<rscale>  0 0.68137511E+03</rscale>
<asrwt>0</asrwt>
<pdfrwt beam="1">  1        2 0.23204609E+00 0.68137511E+03</pdfrwt>
<pdfrwt beam="2">  1       -2 0.13321048E+00 0.68137511E+03</pdfrwt>
<totfact> 0.53150408E+00</totfact>
</mgrwt>
</event>
<event>
 4    1  0.1701380E-008  0.5381077E+03  0.7818608E-02  0.1004285E+00
         -2   -1    0    0    0  501 -0.00000000000E+00  0.00000000000E+00  0.18481266564E+03  0.18481266566E+03  0.25500000000E-02 0.  1.
          2   -1    0    0  501    0  0.00000000000E+00 -0.00000000000E+00 -0.31102380617E+04  0.31102380617E+04  0.25500000000E-02 0. -1.
    8880022    1    1    2    0    0  0.30201640649E+03  0.41827547428E+03 -0.30211057791E+03  0.61711484869E+03  0.15294330000E+03 0.  1.
    8880022    1    1    2    0    0 -0.30201640649E+03 -0.41827547428E+03 -0.26233148181E+04  0.26779358786E+04  0.15294330000E+03 0.  0.
<mgrwt>
<rscale>  0 0.53810774E+03</rscale>
<asrwt>0</asrwt>
<pdfrwt beam="1">  1        2 0.47849812E+00 0.53810774E+03</pdfrwt>
<pdfrwt beam="2">  1       -2 0.28432720E-01 0.53810774E+03</pdfrwt>
<totfact> 0.18631635E+01</totfact>
</mgrwt>
</event>
<event>
 4    1  0.1701380E-008  0.1522314E+04  0.7818608E-02  0.8869748E-01
         -2   -1    0    0    0  501 -0.00000000000E+00  0.00000000000E+00  0.23261919228E+04  0.23261919228E+04  0.25500000000E-02 0.  1.
          2   -1    0    0  501    0  0.00000000000E+00 -0.00000000000E+00 -0.13884511031E+04  0.13884511031E+04  0.25500000000E-02 0. -1.
    8880022    1    1    2    0    0  0.47551445703E+03 -0.14380315755E+04  0.14560198891E+04  0.21065218682E+04  0.15294330000E+03 0.  0.
    8880022    1    1    2    0    0 -0.47551445703E+03  0.14380315755E+04 -0.51827906939E+03  0.16081211577E+04  0.15294330000E+03 0.  0.
<mgrwt>
<rscale>  0 0.15223142E+04</rscale>
<asrwt>0</asrwt>
<pdfrwt beam="1">  1        2 0.21360786E+00 0.15223142E+04</pdfrwt>
<pdfrwt beam="2">  1       -2 0.35787568E+00 0.15223142E+04</pdfrwt>
<totfact> 0.19181681E-01</totfact>
</mgrwt>
</event>
<event>
 4    1  0.1701380E-008  0.2670010E+03  0.7818608E-02  0.1103008E+00
         -2   -1    0    0    0  501 -0.00000000000E+00  0.00000000000E+00  0.62055263907E+02  0.62055263959E+02  0.25500000000E-02 0.  1.
          2   -1    0    0  501    0  0.00000000000E+00 -0.00000000000E+00 -0.24212028776E+04  0.24212028776E+04  0.25500000000E-02 0. -1.
    8880022    1    1    2    0    0  0.86861683030E+02  0.20088043034E+03 -0.20796666819E+04  0.20967362877E+04  0.15294330000E+03 0.  0.
    8880022    1    1    2    0    0 -0.86861683030E+02 -0.20088043034E+03 -0.27948093180E+03  0.38652185388E+03  0.15294330000E+03 0.  0.
<mgrwt>
<rscale>  0 0.26700103E+03</rscale>
<asrwt>0</asrwt>
<pdfrwt beam="1">  1        2 0.37249268E+00 0.26700103E+03</pdfrwt>
<pdfrwt beam="2">  1       -2 0.95469655E-02 0.26700103E+03</pdfrwt>
<totfact> 0.31735798E+02</totfact>
</mgrwt>
</event>
<event>
 4    1  0.1701380E-008  0.6060032E+03  0.7818608E-02  0.9893029E-01
          2   -1    0    0  501    0  0.00000000000E+00  0.00000000000E+00  0.81079419516E+03  0.81079419517E+03  0.25500000000E-02 0. -1.
         -2   -1    0    0    0  501 -0.00000000000E+00 -0.00000000000E+00 -0.12179438987E+04  0.12179438987E+04  0.25500000000E-02 0.  1.
    8880022    1    1    2    0    0  0.41182288133E+03 -0.41743283355E+03  0.60034841030E+03  0.85302879370E+03  0.15294330000E+03 0. -1.
    8880022    1    1    2    0    0 -0.41182288133E+03  0.41743283355E+03 -0.10074981138E+04  0.11757093002E+04  0.15294330000E+03 0.  0.
<mgrwt>
<rscale>  0 0.60600323E+03</rscale>
<asrwt>0</asrwt>
<pdfrwt beam="1">  1        2 0.12473757E+00 0.60600323E+03</pdfrwt>
<pdfrwt beam="2">  1       -2 0.18737598E+00 0.60600323E+03</pdfrwt>
<totfact> 0.56892131E+00</totfact>
</mgrwt>
</event>
<event>
 4    1  0.1701380E-008  0.5914304E+03  0.7818608E-02  0.9923347E-01
          2   -1    0    0  501    0  0.00000000000E+00  0.00000000000E+00  0.23944544768E+04  0.23944544769E+04  0.25500000000E-02 0. -1.
         -2   -1    0    0    0  501 -0.00000000000E+00 -0.00000000000E+00 -0.26689284208E+03  0.26689284209E+03  0.25500000000E-02 0.  1.
    8880022    1    1    2    0    0 -0.56997475094E+03 -0.39076973456E+02  0.19590500615E+04  0.20463790028E+04  0.15294330000E+03 0.  0.
    8880022    1    1    2    0    0  0.56997475094E+03  0.39076973456E+02  0.16851157330E+03  0.61496831618E+03  0.15294330000E+03 0.  1.
<mgrwt>
<rscale>  0 0.59143037E+03</rscale>
<asrwt>0</asrwt>
<pdfrwt beam="1">  1        2 0.36837762E+00 0.59143037E+03</pdfrwt>
<pdfrwt beam="2">  1       -2 0.41060437E-01 0.59143037E+03</pdfrwt>
<totfact> 0.24073113E+01</totfact>
</mgrwt>
</event>
<event>
 4    1  0.1701380E-008  0.1679181E+04  0.7818608E-02  0.8773328E-01
          2   -1    0    0  501    0  0.00000000000E+00  0.00000000000E+00  0.21945535727E+04  0.21945535727E+04  0.25500000000E-02 0. -1.
         -2   -1    0    0    0  501 -0.00000000000E+00 -0.00000000000E+00 -0.13627724142E+04  0.13627724142E+04  0.25500000000E-02 0.  1.
    8880022    1    1    2    0    0 -0.10946274557E+04 -0.12641394877E+04 -0.94549679131E+01  0.16792078372E+04  0.15294330000E+03 0.  0.
    8880022    1    1    2    0    0  0.10946274557E+04  0.12641394877E+04  0.84123612636E+03  0.18781181497E+04  0.15294330000E+03 0.  0.
<mgrwt>
<rscale>  0 0.16791812E+04</rscale>
<asrwt>0</asrwt>
<pdfrwt beam="1">  1        2 0.33762362E+00 0.16791812E+04</pdfrwt>
<pdfrwt beam="2">  1       -2 0.20965730E+00 0.16791812E+04</pdfrwt>
<totfact> 0.55182023E-01</totfact>
</mgrwt>
</event>
<event>
 4    1  0.1701380E-008  0.2649971E+03  0.7818608E-02  0.1104177E+00
         -2   -1    0    0    0  501 -0.00000000000E+00  0.00000000000E+00  0.26336292598E+03  0.26336292599E+03  0.25500000000E-02 0.  1.
          2   -1    0    0  501    0  0.00000000000E+00 -0.00000000000E+00 -0.13738868390E+04  0.13738868390E+04  0.25500000000E-02 0. -1.
    8880022    1    1    2    0    0  0.86397248297E+02  0.19841205501E+03  0.17964336681E+03  0.32014874721E+03  0.15294330000E+03 0.  0.
    8880022    1    1    2    0    0 -0.86397248297E+02 -0.19841205501E+03 -0.12901672798E+04  0.13171010178E+04  0.15294330000E+03 0.  0.
<mgrwt>
<rscale>  0 0.26499713E+03</rscale>
<asrwt>0</asrwt>
<pdfrwt beam="1">  1        2 0.21136720E+00 0.26499713E+03</pdfrwt>
<pdfrwt beam="2">  1       -2 0.40517374E-01 0.26499713E+03</pdfrwt>
<totfact> 0.94191993E+01</totfact>
</mgrwt>
</event>
<event>
 4    1  0.1701380E-008  0.7916665E+03  0.7818608E-02  0.9572158E-01
          2   -1    0    0  501    0  0.00000000000E+00  0.00000000000E+00  0.20036347634E+04  0.20036347634E+04  0.25500000000E-02 0. -1.
         -2   -1    0    0    0  501 -0.00000000000E+00 -0.00000000000E+00 -0.41578129566E+03  0.41578129566E+03  0.25500000000E-02 0.  1.
    8880022    1    1    2    0    0 -0.59352320812E+03  0.50107330262E+03  0.19188254653E+03  0.81458874155E+03  0.15294330000E+03 0.  0.
    8880022    1    1    2    0    0  0.59352320812E+03 -0.50107330262E+03  0.13959709212E+04  0.16048273176E+04  0.15294330000E+03 0.  0.
<mgrwt>
<rscale>  0 0.79166654E+03</rscale>
<asrwt>0</asrwt>
<pdfrwt beam="1">  1        2 0.30825150E+00 0.79166654E+03</pdfrwt>
<pdfrwt beam="2">  1       -2 0.63966353E-01 0.79166654E+03</pdfrwt>
<totfact> 0.15459613E+01</totfact>
</mgrwt>
</event>
<event>
 4    1  0.1701380E-008  0.6587272E+03  0.7818608E-02  0.9790540E-01
          2   -1    0    0  501    0  0.00000000000E+00  0.00000000000E+00  0.30784152205E+04  0.30784152205E+04  0.25500000000E-02 0. -1.
         -2   -1    0    0    0  501 -0.00000000000E+00 -0.00000000000E+00 -0.17315815900E+03  0.17315815901E+03  0.25500000000E-02 0.  1.
    8880022    1    1    2    0    0  0.63717516351E+03 -0.67361912687E+02  0.75152240648E+03  0.99935348938E+03  0.15294330000E+03 0.  0.
    8880022    1    1    2    0    0 -0.63717516351E+03  0.67361912687E+02  0.21537346550E+04  0.22522198902E+04  0.15294330000E+03 0. -1.
<mgrwt>
<rscale>  0 0.65872716E+03</rscale>
<asrwt>0</asrwt>
<pdfrwt beam="1">  1        2 0.47360231E+00 0.65872716E+03</pdfrwt>
<pdfrwt beam="2">  1       -2 0.26639719E-01 0.65872716E+03</pdfrwt>
<totfact> 0.21396456E+01</totfact>
</mgrwt>
</event>
<event>
 4    1  0.1701380E-008  0.6793599E+03  0.7818608E-02  0.9753195E-01
          2   -1    0    0  501    0  0.00000000000E+00  0.00000000000E+00  0.19561827932E+04  0.19561827932E+04  0.25500000000E-02 0. -1.
         -2   -1    0    0    0  501 -0.00000000000E+00 -0.00000000000E+00 -0.55963876061E+03  0.55963876061E+03  0.25500000000E-02 0.  1.
    8880022    1    1    2    0    0 -0.48709995186E+03 -0.44818726106E+03  0.16549605187E+04  0.17889729331E+04  0.15294330000E+03 0.  0.
    8880022    1    1    2    0    0  0.48709995186E+03  0.44818726106E+03 -0.25841648609E+03  0.72684862068E+03  0.15294330000E+03 0.  0.
<mgrwt>
<rscale>  0 0.67935987E+03</rscale>
<asrwt>0</asrwt>
<pdfrwt beam="1">  1        2 0.30095119E+00 0.67935987E+03</pdfrwt>
<pdfrwt beam="2">  1       -2 0.86098273E-01 0.67935987E+03</pdfrwt>
<totfact> 0.86526159E+00</totfact>
</mgrwt>
</event>
<event>
 4    1  0.1701380E-008  0.9705567E+03  0.7818608E-02  0.9341440E-01
         -2   -1    0    0    0  501 -0.00000000000E+00  0.00000000000E+00  0.87052922856E+03  0.87052922856E+03  0.25500000000E-02 0.  1.
          2   -1    0    0  501    0  0.00000000000E+00 -0.00000000000E+00 -0.24302723884E+04  0.24302723884E+04  0.25500000000E-02 0. -1.
    8880022    1    1    2    0    0  0.95001719415E+03 -0.12671248801E+03 -0.20091159748E+04  0.22312613870E+04  0.15294330000E+03 0.  0.
    8880022    1    1    2    0    0 -0.95001719415E+03  0.12671248801E+03  0.44937281493E+03  0.10695402300E+04  0.15294330000E+03 0.  0.
<mgrwt>
<rscale>  0 0.97055674E+03</rscale>
<asrwt>0</asrwt>
<pdfrwt beam="1">  1        2 0.37388806E+00 0.97055674E+03</pdfrwt>
<pdfrwt beam="2">  1       -2 0.13392757E+00 0.97055674E+03</pdfrwt>
<totfact> 0.15525252E+00</totfact>
</mgrwt>
</event>
<event>
 4    1  0.1701380E-008  0.4477075E+03  0.7818608E-02  0.1028408E+00
         -2   -1    0    0    0  501 -0.00000000000E+00  0.00000000000E+00  0.27177601452E+03  0.27177601453E+03  0.25500000000E-02 0.  1.
          2   -1    0    0  501    0  0.00000000000E+00 -0.00000000000E+00 -0.76620659951E+03  0.76620659951E+03  0.25500000000E-02 0. -1.
    8880022    1    1    2    0    0  0.30490192522E+03 -0.28997437375E+03 -0.34762565479E+03  0.56682058036E+03  0.15294330000E+03 0. -1.
    8880022    1    1    2    0    0 -0.30490192522E+03  0.28997437375E+03 -0.14680493020E+03  0.47116203368E+03  0.15294330000E+03 0.  0.
<mgrwt>
<rscale>  0 0.44770747E+03</rscale>
<asrwt>0</asrwt>
<pdfrwt beam="1">  1        2 0.11787794E+00 0.44770747E+03</pdfrwt>
<pdfrwt beam="2">  1       -2 0.41811695E-01 0.44770747E+03</pdfrwt>
<totfact> 0.20340730E+02</totfact>
</mgrwt>
</event>
<event>
 4    1  0.1701380E-008  0.2130414E+03  0.7818608E-02  0.1139180E+00
         -2   -1    0    0    0  501 -0.00000000000E+00  0.00000000000E+00  0.48063701167E+03  0.48063701168E+03  0.25500000000E-02 0.  1.
          2   -1    0    0  501    0  0.00000000000E+00 -0.00000000000E+00 -0.47714507945E+03  0.47714507945E+03  0.25500000000E-02 0. -1.
    8880022    1    1    2    0    0 -0.14708462799E+03 -0.19002416822E+02 -0.42714725786E+03  0.47732736414E+03  0.15294330000E+03 0.  0.
    8880022    1    1    2    0    0  0.14708462799E+03  0.19002416822E+02  0.43063919009E+03  0.48045472699E+03  0.15294330000E+03 0.  1.
<mgrwt>
<rscale>  0 0.21304139E+03</rscale>
<asrwt>0</asrwt>
<pdfrwt beam="1">  1        2 0.73406935E-01 0.21304139E+03</pdfrwt>
<pdfrwt beam="2">  1       -2 0.73944156E-01 0.21304139E+03</pdfrwt>
<totfact> 0.11322808E+02</totfact>
</mgrwt>
</event>
<event>
 4    1  0.1701380E-008  0.4533989E+03  0.7818608E-02  0.1026713E+00
          2   -1    0    0  501    0  0.00000000000E+00  0.00000000000E+00  0.28621803074E+04  0.28621803074E+04  0.25500000000E-02 0. -1.
         -2   -1    0    0    0  501 -0.00000000000E+00 -0.00000000000E+00 -0.14440873311E+03  0.14440873313E+03  0.25500000000E-02 0.  1.
    8880022    1    1    2    0    0 -0.40736473254E+03 -0.12740819655E+03  0.24246786846E+04  0.24667057486E+04  0.15294330000E+03 0.  0.
    8880022    1    1    2    0    0  0.40736473254E+03  0.12740819655E+03  0.29309288972E+03  0.53988329192E+03  0.15294330000E+03 0.  0.
<mgrwt>
<rscale>  0 0.45339886E+03</rscale>
<asrwt>0</asrwt>
<pdfrwt beam="1">  1        2 0.44033541E+00 0.45339886E+03</pdfrwt>
<pdfrwt beam="2">  1       -2 0.22216729E-01 0.45339886E+03</pdfrwt>
<totfact> 0.41781677E+01</totfact>
</mgrwt>
</event>
<event>
 4    1  0.1701380E-008  0.2150820E+03  0.7818608E-02  0.1137604E+00
         -2   -1    0    0    0  501 -0.00000000000E+00  0.00000000000E+00  0.92851579637E+02  0.92851579672E+02  0.25500000000E-02 0.  1.
          2   -1    0    0  501    0  0.00000000000E+00 -0.00000000000E+00 -0.58799040491E+03  0.58799040491E+03  0.25500000000E-02 0. -1.
    8880022    1    1    2    0    0 -0.59146075097E+02  0.13917736572E+03 -0.38058565491E+03  0.43715636912E+03  0.15294330000E+03 0. -1.
    8880022    1    1    2    0    0  0.59146075097E+02 -0.13917736572E+03 -0.11455317036E+03  0.24368561546E+03  0.15294330000E+03 0.  0.
<mgrwt>
<rscale>  0 0.21508196E+03</rscale>
<asrwt>0</asrwt>
<pdfrwt beam="1">  1        2 0.90460060E-01 0.21508196E+03</pdfrwt>
<pdfrwt beam="2">  1       -2 0.14284859E-01 0.21508196E+03</pdfrwt>
<totfact> 0.19083870E+03</totfact>
</mgrwt>
</event>
<event>
 4    1  0.3636965E-008  0.1797040E+04  0.7818608E-02  0.8707875E-01
          2   -1    0    0  501    0  0.00000000000E+00  0.00000000000E+00  0.32401504767E+04  0.32401504767E+04  0.25500000000E-02 0. -1.
         -2   -1    0    0    0  501 -0.00000000000E+00 -0.00000000000E+00 -0.19550016489E+04  0.19550016489E+04  0.25500000000E-02 0.  1.
    8880022    1    1    2    0    0  0.43753154631E+03  0.17362390655E+04  0.24612417496E+04  0.30474682196E+04  0.15294330000E+03 0.  0.
    8880022    1    1    2    0    0 -0.43753154631E+03 -0.17362390655E+04 -0.11760929218E+04  0.21476839060E+04  0.15294330000E+03 0.  0.
<mgrwt>
<rscale>  0 0.17970397E+04</rscale>
<asrwt>0</asrwt>
<pdfrwt beam="1">  1        2 0.49848469E+00 0.17970397E+04</pdfrwt>
<pdfrwt beam="2">  1       -2 0.30076949E+00 0.17970397E+04</pdfrwt>
<totfact> 0.34753949E-02</totfact>
</mgrwt>
</event>
<event>
 4    1  0.1701380E-008  0.4070768E+03  0.7818608E-02  0.1041356E+00
          2   -1    0    0  501    0  0.00000000000E+00  0.00000000000E+00  0.56760159308E+03  0.56760159309E+03  0.25500000000E-02 0. -1.
         -2   -1    0    0    0  501 -0.00000000000E+00 -0.00000000000E+00 -0.87733866597E+03  0.87733866597E+03  0.25500000000E-02 0.  1.
    8880022    1    1    2    0    0  0.14700159618E+03 -0.34743403826E+03 -0.74501288643E+03  0.84897334127E+03  0.15294330000E+03 0.  0.
    8880022    1    1    2    0    0 -0.14700159618E+03  0.34743403826E+03  0.43527581355E+03  0.59596691779E+03  0.15294330000E+03 0.  0.
<mgrwt>
<rscale>  0 0.40707681E+03</rscale>
<asrwt>0</asrwt>
<pdfrwt beam="1">  1        2 0.87323322E-01 0.40707681E+03</pdfrwt>
<pdfrwt beam="2">  1       -2 0.13497518E+00 0.40707681E+03</pdfrwt>
<totfact> 0.22072574E+01</totfact>
</mgrwt>
</event>
<event>
 4    1  0.1701380E-008  0.9534665E+03  0.7818608E-02  0.9361108E-01
         -2   -1    0    0    0  501 -0.00000000000E+00  0.00000000000E+00  0.13788309885E+04  0.13788309885E+04  0.25500000000E-02 0.  1.
          2   -1    0    0  501    0  0.00000000000E+00 -0.00000000000E+00 -0.70056197751E+03  0.70056197751E+03  0.25500000000E-02 0. -1.
    8880022    1    1    2    0    0 -0.55212193024E+03 -0.76214699922E+03  0.86888400214E+02  0.95741731830E+03  0.15294330000E+03 0.  0.
    8880022    1    1    2    0    0  0.55212193024E+03  0.76214699922E+03  0.59138061080E+03  0.11219756477E+04  0.15294330000E+03 0.  0.
<mgrwt>
<rscale>  0 0.95346648E+03</rscale>
<asrwt>0</asrwt>
<pdfrwt beam="1">  1        2 0.10777877E+00 0.95346648E+03</pdfrwt>
<pdfrwt beam="2">  1       -2 0.21212784E+00 0.95346648E+03</pdfrwt>
<totfact> 0.45370164E+00</totfact>
</mgrwt>
</event>
<event>
 4    1  0.1701380E-008  0.8455439E+03  0.7818608E-02  0.9496337E-01
          2   -1    0    0  501    0  0.00000000000E+00  0.00000000000E+00  0.79395014799E+03  0.79395014799E+03  0.25500000000E-02 0. -1.
         -2   -1    0    0    0  501 -0.00000000000E+00 -0.00000000000E+00 -0.42719328867E+04  0.42719328867E+04  0.25500000000E-02 0.  1.
    8880022    1    1    2    0    0  0.54553102990E+03  0.62765341299E+03 -0.39891898305E+04  0.40778156001E+04  0.15294330000E+03 0.  0.
    8880022    1    1    2    0    0 -0.54553102990E+03 -0.62765341299E+03  0.51120709187E+03  0.98806743455E+03  0.15294330000E+03 0. -1.
<mgrwt>
<rscale>  0 0.84554395E+03</rscale>
<asrwt>0</asrwt>
<pdfrwt beam="1">  1        2 0.12214618E+00 0.84554395E+03</pdfrwt>
<pdfrwt beam="2">  1       -2 0.65722043E+00 0.84554395E+03</pdfrwt>
<totfact> 0.11249169E-02</totfact>
</mgrwt>
</event>
<event>
 4    1  0.1701380E-008  0.8904081E+03  0.7818608E-02  0.9437652E-01
         -2   -1    0    0    0  501 -0.00000000000E+00  0.00000000000E+00  0.96367431014E+03  0.96367431014E+03  0.25500000000E-02 0.  1.
          2   -1    0    0  501    0  0.00000000000E+00 -0.00000000000E+00 -0.29521342634E+04  0.29521342634E+04  0.25500000000E-02 0. -1.
    8880022    1    1    2    0    0 -0.96431779458E+02 -0.87185767065E+03 -0.26570846184E+04  0.28023071224E+04  0.15294330000E+03 0.  0.
    8880022    1    1    2    0    0  0.96431779458E+02  0.87185767065E+03  0.66862466510E+03  0.11135014512E+04  0.15294330000E+03 0.  0.
<mgrwt>
<rscale>  0 0.89040807E+03</rscale>
<asrwt>0</asrwt>
<pdfrwt beam="1">  1        2 0.45417450E+00 0.89040807E+03</pdfrwt>
<pdfrwt beam="2">  1       -2 0.14825759E+00 0.89040807E+03</pdfrwt>
<totfact> 0.59731310E-01</totfact>
</mgrwt>
</event>
<event>
 4    1  0.1701380E-008  0.3769721E+03  0.7818608E-02  0.1052059E+00
          2   -1    0    0  501    0  0.00000000000E+00  0.00000000000E+00  0.67164025095E+03  0.67164025095E+03  0.25500000000E-02 0. -1.
         -2   -1    0    0    0  501 -0.00000000000E+00 -0.00000000000E+00 -0.96319035311E+03  0.96319035311E+03  0.25500000000E-02 0.  1.
    8880022    1    1    2    0    0  0.11805264287E+03 -0.32369723967E+03  0.57629955568E+03  0.68864298468E+03  0.15294330000E+03 0.  0.
    8880022    1    1    2    0    0 -0.11805264287E+03  0.32369723967E+03 -0.86784965784E+03  0.94618761939E+03  0.15294330000E+03 0.  0.
<mgrwt>
<rscale>  0 0.37697212E+03</rscale>
<asrwt>0</asrwt>
<pdfrwt beam="1">  1        2 0.10332927E+00 0.37697212E+03</pdfrwt>
<pdfrwt beam="2">  1       -2 0.14818313E+00 0.37697212E+03</pdfrwt>
<totfact> 0.14288540E+01</totfact>
</mgrwt>
</event>
<event>
 4    1  0.1701380E-008  0.1106098E+04  0.7818608E-02  0.9199268E-01
         -2   -1    0    0    0  501 -0.00000000000E+00  0.00000000000E+00  0.80360137691E+03  0.80360137691E+03  0.25500000000E-02 0.  1.
          2   -1    0    0  501    0  0.00000000000E+00 -0.00000000000E+00 -0.23619178554E+04  0.23619178554E+04  0.25500000000E-02 0. -1.
    8880022    1    1    2    0    0 -0.77398825907E+03  0.77524428153E+03  0.16442735012E+03  0.11182528908E+04  0.15294330000E+03 0.  0.
    8880022    1    1    2    0    0  0.77398825907E+03 -0.77524428153E+03 -0.17227438286E+04  0.20472663416E+04  0.15294330000E+03 0.  0.
<mgrwt>
<rscale>  0 0.11060982E+04</rscale>
<asrwt>0</asrwt>
<pdfrwt beam="1">  1        2 0.36337197E+00 0.11060982E+04</pdfrwt>
<pdfrwt beam="2">  1       -2 0.12363098E+00 0.11060982E+04</pdfrwt>
<totfact> 0.20400871E+00</totfact>
</mgrwt>
</event>
<event>
 4    1  0.1701380E-008  0.1415251E+04  0.7818608E-02  0.8942852E-01
         -2   -1    0    0    0  501 -0.00000000000E+00  0.00000000000E+00  0.79726034050E+03  0.79726034050E+03  0.25500000000E-02 0.  1.
          2   -1    0    0  501    0  0.00000000000E+00 -0.00000000000E+00 -0.31828048793E+04  0.31828048793E+04  0.25500000000E-02 0. -1.
    8880022    1    1    2    0    0 -0.11527898399E+04 -0.80661026510E+03 -0.21061799795E+04  0.25375047376E+04  0.15294330000E+03 0.  0.
    8880022    1    1    2    0    0  0.11527898399E+04  0.80661026510E+03 -0.27936455934E+03  0.14425604822E+04  0.15294330000E+03 0.  0.
<mgrwt>
<rscale>  0 0.14152513E+04</rscale>
<asrwt>0</asrwt>
<pdfrwt beam="1">  1        2 0.48966228E+00 0.14152513E+04</pdfrwt>
<pdfrwt beam="2">  1       -2 0.12265544E+00 0.14152513E+04</pdfrwt>
<totfact> 0.64453662E-01</totfact>
</mgrwt>
</event>
<event>
 4    1  0.1701380E-008  0.2013656E+03  0.7818608E-02  0.1148592E+00
          2   -1    0    0  501    0  0.00000000000E+00  0.00000000000E+00  0.11015280147E+04  0.11015280147E+04  0.25500000000E-02 0. -1.
         -2   -1    0    0    0  501 -0.00000000000E+00 -0.00000000000E+00 -0.11264272146E+04  0.11264272146E+04  0.25500000000E-02 0.  1.
    8880022    1    1    2    0    0 -0.13010489791E+03  0.15137700241E+02 -0.11080740673E+04  0.11262221034E+04  0.15294330000E+03 0.  1.
    8880022    1    1    2    0    0  0.13010489791E+03 -0.15137700241E+02  0.10831748674E+04  0.11017331260E+04  0.15294330000E+03 0.  0.
<mgrwt>
<rscale>  0 0.20136556E+03</rscale>
<asrwt>0</asrwt>
<pdfrwt beam="1">  1        2 0.16946585E+00 0.20136556E+03</pdfrwt>
<pdfrwt beam="2">  1       -2 0.17329649E+00 0.20136556E+03</pdfrwt>
<totfact> 0.51815363E+00</totfact>
</mgrwt>
</event>
