<event>
 4    5  0.7767175E-008  0.8254470E+03  0.7818608E-02  0.9658257E-01
         -1   -1    0    0    0  501 -0.00000000000E+00  0.00000000000E+00  0.23433934005E+04  0.23433934005E+04  0.50400000000E-02 0.  1.
          1   -1    0    0  501    0  0.00000000000E+00 -0.00000000000E+00 -0.64183106925E+03  0.64183106927E+03  0.50400000000E-02 0. -1.
    8880023    1    1    2    0    0  0.20738399507E+03 -0.45226578632E+03  0.21469466805E+04  0.23001614548E+04  0.65864270000E+03 0.  1.
    8880022    1    1    2    0    0 -0.20738399507E+03  0.45226578632E+03 -0.44538434928E+03  0.68506301498E+03  0.15294330000E+03 0.  0.
<mgrwt>
<rscale>  0 0.73557480E+03</rscale>
<asrwt>0</asrwt>
<pdfrwt beam="1">  1        1 0.98743241E-01 0.82544695E+03</pdfrwt>
<pdfrwt beam="2">  1       -1 0.36052206E+00 0.82544695E+03</pdfrwt>
<totfact> 0.43216887E-01</totfact>
</mgrwt>
</event>
<event>
 4    5  0.7767175E-008  0.8337579E+03  0.7818608E-02  0.9642064E-01
         -1   -1    0    0    0  501 -0.00000000000E+00  0.00000000000E+00  0.49640292165E+03  0.49640292168E+03  0.50400000000E-02 0.  1.
          1   -1    0    0  501    0  0.00000000000E+00 -0.00000000000E+00 -0.13808852842E+04  0.13808852842E+04  0.50400000000E-02 0. -1.
    8880023    1    1    2    0    0  0.50571696408E+03  0.74782231737E+02  0.12197963985E+02  0.83384712420E+03  0.65864270000E+03 0.  0.
    8880022    1    1    2    0    0 -0.50571696408E+03 -0.74782231737E+02 -0.89668032649E+03  0.10434410817E+04  0.15294330000E+03 0.  0.
<mgrwt>
<rscale>  0 0.74573552E+03</rscale>
<asrwt>0</asrwt>
<pdfrwt beam="1">  1        1 0.21244389E+00 0.83375790E+03</pdfrwt>
<pdfrwt beam="2">  1       -1 0.76369681E-01 0.83375790E+03</pdfrwt>
<totfact> 0.13965103E+01</totfact>
</mgrwt>
</event>
<event>
 4    5  0.7767175E-008  0.9867130E+03  0.7818608E-02  0.9399151E-01
          1   -1    0    0  501    0  0.00000000000E+00  0.00000000000E+00  0.83643872378E+03  0.83643872380E+03  0.50400000000E-02 0. -1.
         -1   -1    0    0    0  501 -0.00000000000E+00 -0.00000000000E+00 -0.12175873037E+04  0.12175873037E+04  0.50400000000E-02 0.  1.
    8880023    1    1    2    0    0  0.44605417274E+02  0.73335027822E+03 -0.72906839616E+03  0.12268427798E+04  0.65864270000E+03 0.  0.
    8880022    1    1    2    0    0 -0.44605417274E+02 -0.73335027822E+03  0.34791981621E+03  0.82718324774E+03  0.15294330000E+03 0.  0.
<mgrwt>
<rscale>  0 0.92145559E+03</rscale>
<asrwt>0</asrwt>
<pdfrwt beam="1">  1        1 0.12868288E+00 0.98671297E+03</pdfrwt>
<pdfrwt beam="2">  1       -1 0.18732112E+00 0.98671297E+03</pdfrwt>
<totfact> 0.38142430E+00</totfact>
</mgrwt>
</event>
<event>
 4    5  0.7767175E-008  0.1079895E+04  0.7818608E-02  0.9283777E-01
          1   -1    0    0  501    0  0.00000000000E+00  0.00000000000E+00  0.12873914719E+04  0.12873914719E+04  0.50400000000E-02 0. -1.
         -1   -1    0    0    0  501 -0.00000000000E+00 -0.00000000000E+00 -0.91699352706E+03  0.91699352708E+03  0.50400000000E-02 0.  1.
    8880023    1    1    2    0    0 -0.75073583078E+03  0.41080316957E+03  0.68618837744E+03  0.12794640391E+04  0.65864270000E+03 0. -1.
    8880022    1    1    2    0    0  0.75073583078E+03 -0.41080316957E+03 -0.31579043258E+03  0.92492095991E+03  0.15294330000E+03 0.  1.
<mgrwt>
<rscale>  0 0.10229016E+04</rscale>
<asrwt>0</asrwt>
<pdfrwt beam="1">  1        1 0.19806023E+00 0.10798952E+04</pdfrwt>
<pdfrwt beam="2">  1       -1 0.14107593E+00 0.10798952E+04</pdfrwt>
<totfact> 0.37728262E+00</totfact>
</mgrwt>
</event>
<event>
 4    5  0.7767175E-008  0.7237577E+03  0.7818608E-02  0.9910070E-01
         -1   -1    0    0    0  501 -0.00000000000E+00  0.00000000000E+00  0.57296537265E+03  0.57296537267E+03  0.50400000000E-02 0.  1.
          1   -1    0    0  501    0  0.00000000000E+00 -0.00000000000E+00 -0.18406085808E+04  0.18406085808E+04  0.50400000000E-02 0. -1.
    8880023    1    1    2    0    0  0.18760901034E+03  0.23413207875E+03  0.31946783284E+03  0.79112886026E+03  0.65864270000E+03 0.  1.
    8880022    1    1    2    0    0 -0.18760901034E+03 -0.23413207875E+03 -0.15871110410E+04  0.16224450932E+04  0.15294330000E+03 0.  0.
<mgrwt>
<rscale>  0 0.59775703E+03</rscale>
<asrwt>0</asrwt>
<pdfrwt beam="1">  1        1 0.28317055E+00 0.72375768E+03</pdfrwt>
<pdfrwt beam="2">  1       -1 0.88148520E-01 0.72375768E+03</pdfrwt>
<totfact> 0.50854556E+00</totfact>
</mgrwt>
</event>
<event>
 4    5  0.7767175E-008  0.9543113E+03  0.7818608E-02  0.9443938E-01
          1   -1    0    0  501    0  0.00000000000E+00  0.00000000000E+00  0.10584409701E+04  0.10584409701E+04  0.50400000000E-02 0. -1.
         -1   -1    0    0    0  501 -0.00000000000E+00 -0.00000000000E+00 -0.19195489863E+04  0.19195489863E+04  0.50400000000E-02 0.  1.
    8880023    1    1    2    0    0  0.37880305977E+03 -0.57741497609E+03 -0.16576560226E+04  0.19127293348E+04  0.65864270000E+03 0.  0.
    8880022    1    1    2    0    0 -0.37880305977E+03  0.57741497609E+03  0.79654800636E+03  0.10652606217E+04  0.15294330000E+03 0.  0.
<mgrwt>
<rscale>  0 0.88546302E+03</rscale>
<asrwt>0</asrwt>
<pdfrwt beam="1">  1        1 0.16283707E+00 0.95431128E+03</pdfrwt>
<pdfrwt beam="2">  1       -1 0.29531523E+00 0.95431128E+03</pdfrwt>
<totfact> 0.49322491E-01</totfact>
</mgrwt>
</event>
<event>
 4    5  0.7767175E-008  0.1116282E+04  0.7818608E-02  0.9243141E-01
          1   -1    0    0  501    0  0.00000000000E+00  0.00000000000E+00  0.85628219399E+03  0.85628219401E+03  0.50400000000E-02 0. -1.
         -1   -1    0    0    0  501 -0.00000000000E+00 -0.00000000000E+00 -0.14718323126E+04  0.14718323126E+04  0.50400000000E-02 0.  1.
    8880023    1    1    2    0    0  0.84585930255E+03  0.31112296219E+03  0.16204281408E+03  0.11279820642E+04  0.65864270000E+03 0.  0.
    8880022    1    1    2    0    0 -0.84585930255E+03 -0.31112296219E+03 -0.77759293264E+03  0.12001324424E+04  0.15294330000E+03 0.  0.
<mgrwt>
<rscale>  0 0.10619025E+04</rscale>
<asrwt>0</asrwt>
<pdfrwt beam="1">  1        1 0.13173572E+00 0.11162821E+04</pdfrwt>
<pdfrwt beam="2">  1       -1 0.22643574E+00 0.11162821E+04</pdfrwt>
<totfact> 0.19557908E+00</totfact>
</mgrwt>
</event>
<event>
 4    5  0.7767175E-008  0.7717043E+03  0.7818608E-02  0.9775697E-01
         -1   -1    0    0    0  501 -0.00000000000E+00  0.00000000000E+00  0.73874788186E+03  0.73874788187E+03  0.50400000000E-02 0.  1.
          1   -1    0    0  501    0  0.00000000000E+00 -0.00000000000E+00 -0.12969024331E+04  0.12969024331E+04  0.50400000000E-02 0. -1.
    8880023    1    1    2    0    0 -0.18591645718E+02  0.40171093946E+03  0.48211167712E+03  0.90992263608E+03  0.65864270000E+03 0.  1.
    8880022    1    1    2    0    0  0.18591645718E+02 -0.40171093946E+03 -0.10402662284E+04  0.11257276789E+04  0.15294330000E+03 0.  0.
<mgrwt>
<rscale>  0 0.66683230E+03</rscale>
<asrwt>0</asrwt>
<pdfrwt beam="1">  1        1 0.19952345E+00 0.77170431E+03</pdfrwt>
<pdfrwt beam="2">  1       -1 0.11365352E+00 0.77170431E+03</pdfrwt>
<totfact> 0.66403494E+00</totfact>
</mgrwt>
</event>
<event>
 4    5  0.7767175E-008  0.8975666E+03  0.7818608E-02  0.9529949E-01
          1   -1    0    0  501    0  0.00000000000E+00  0.00000000000E+00  0.98901692655E+03  0.98901692657E+03  0.50400000000E-02 0. -1.
         -1   -1    0    0    0  501 -0.00000000000E+00 -0.00000000000E+00 -0.69183763795E+03  0.69183763796E+03  0.50400000000E-02 0.  1.
    8880023    1    1    2    0    0  0.40168814796E+03  0.45876154903E+03 -0.14914421428E+03  0.90987346922E+03  0.65864270000E+03 0.  0.
    8880022    1    1    2    0    0 -0.40168814796E+03 -0.45876154903E+03  0.44632350288E+03  0.77098109531E+03  0.15294330000E+03 0.  0.
<mgrwt>
<rscale>  0 0.82111333E+03</rscale>
<asrwt>0</asrwt>
<pdfrwt beam="1">  1        1 0.15215645E+00 0.89756656E+03</pdfrwt>
<pdfrwt beam="2">  1       -1 0.10643656E+00 0.89756656E+03</pdfrwt>
<totfact> 0.12896992E+01</totfact>
</mgrwt>
</event>
<event>
 4    5  0.7767175E-008  0.8867305E+03  0.7818608E-02  0.9547678E-01
          1   -1    0    0  501    0  0.00000000000E+00  0.00000000000E+00  0.30900950661E+03  0.30900950665E+03  0.50400000000E-02 0. -1.
         -1   -1    0    0    0  501 -0.00000000000E+00 -0.00000000000E+00 -0.30474445875E+04  0.30474445875E+04  0.50400000000E-02 0.  1.
    8880023    1    1    2    0    0  0.13800847134E+03  0.57743786104E+03 -0.25728987948E+04  0.27214149327E+04  0.65864270000E+03 0.  1.
    8880022    1    1    2    0    0 -0.13800847134E+03 -0.57743786104E+03 -0.16553628608E+03  0.63503916143E+03  0.15294330000E+03 0.  0.
<mgrwt>
<rscale>  0 0.80858152E+03</rscale>
<asrwt>0</asrwt>
<pdfrwt beam="1">  1        1 0.47539926E-01 0.88673053E+03</pdfrwt>
<pdfrwt beam="2">  1       -1 0.46883761E+00 0.88673053E+03</pdfrwt>
<totfact> 0.21161753E-01</totfact>
</mgrwt>
</event>
<event>
 4    5  0.7767175E-008  0.6654998E+03  0.7818608E-02  0.1019118E+00
          1   -1    0    0  501    0  0.00000000000E+00  0.00000000000E+00  0.99685917220E+03  0.99685917221E+03  0.50400000000E-02 0. -1.
         -1   -1    0    0    0  501 -0.00000000000E+00 -0.00000000000E+00 -0.54012823754E+03  0.54012823756E+03  0.50400000000E-02 0.  1.
    8880023    1    1    2    0    0 -0.43251623323E+02  0.84906341878E+02 -0.32084535853E+03  0.73880426377E+03  0.65864270000E+03 0.  1.
    8880022    1    1    2    0    0  0.43251623323E+02 -0.84906341878E+02  0.77757629320E+03  0.79818314600E+03  0.15294330000E+03 0.  0.
<mgrwt>
<rscale>  0 0.48006346E+03</rscale>
<asrwt>0</asrwt>
<pdfrwt beam="1">  1        1 0.15336295E+00 0.66549981E+03</pdfrwt>
<pdfrwt beam="2">  1       -1 0.83096652E-01 0.66549981E+03</pdfrwt>
<totfact> 0.22743632E+01</totfact>
</mgrwt>
</event>
<event>
 4    5  0.7767175E-008  0.7742701E+03  0.7818608E-02  0.9769473E-01
          1   -1    0    0  501    0  0.00000000000E+00  0.00000000000E+00  0.23046822701E+04  0.23046822701E+04  0.50400000000E-02 0. -1.
         -1   -1    0    0    0  501 -0.00000000000E+00 -0.00000000000E+00 -0.61757048502E+03  0.61757048504E+03  0.50400000000E-02 0.  1.
    8880023    1    1    2    0    0 -0.10755620629E+03  0.39257566397E+03 -0.34245919353E+03  0.84662417574E+03  0.65864270000E+03 0.  1.
    8880022    1    1    2    0    0  0.10755620629E+03 -0.39257566397E+03  0.20295709786E+04  0.20756285794E+04  0.15294330000E+03 0.  0.
<mgrwt>
<rscale>  0 0.67026851E+03</rscale>
<asrwt>0</asrwt>
<pdfrwt beam="1">  1        1 0.35456649E+00 0.77427011E+03</pdfrwt>
<pdfrwt beam="2">  1       -1 0.95010846E-01 0.77427011E+03</pdfrwt>
<totfact> 0.20862499E+00</totfact>
</mgrwt>
</event>
<event>
 4    5  0.7767175E-008  0.8174787E+03  0.7818608E-02  0.9674205E-01
         -1   -1    0    0    0  501 -0.00000000000E+00  0.00000000000E+00  0.25779756430E+04  0.25779756430E+04  0.50400000000E-02 0.  1.
          1   -1    0    0  501    0  0.00000000000E+00 -0.00000000000E+00 -0.63008667974E+03  0.63008667976E+03  0.50400000000E-02 0. -1.
    8880023    1    1    2    0    0  0.31112079722E+03 -0.37103234115E+03  0.23955043790E+04  0.25311484715E+04  0.65864270000E+03 0.  1.
    8880022    1    1    2    0    0 -0.31112079722E+03  0.37103234115E+03 -0.44761541573E+03  0.67691385128E+03  0.15294330000E+03 0.  0.
<mgrwt>
<rscale>  0 0.72573622E+03</rscale>
<asrwt>0</asrwt>
<pdfrwt beam="1">  1        1 0.96936410E-01 0.81747866E+03</pdfrwt>
<pdfrwt beam="2">  1       -1 0.39661165E+00 0.81747866E+03</pdfrwt>
<totfact> 0.25507405E-01</totfact>
</mgrwt>
</event>
<event>
 4    5  0.7767175E-008  0.1117980E+04  0.7818608E-02  0.9241297E-01
          1   -1    0    0  501    0  0.00000000000E+00  0.00000000000E+00  0.20360875526E+04  0.20360875526E+04  0.50400000000E-02 0. -1.
         -1   -1    0    0    0  501 -0.00000000000E+00 -0.00000000000E+00 -0.69313335764E+03  0.69313335766E+03  0.50400000000E-02 0.  1.
    8880023    1    1    2    0    0 -0.21659933564E+03 -0.87701445701E+03  0.17744226567E+02  0.11181210551E+04  0.65864270000E+03 0.  1.
    8880022    1    1    2    0    0  0.21659933564E+03  0.87701445701E+03  0.13252099684E+04  0.16110998551E+04  0.15294330000E+03 0.  0.
<mgrwt>
<rscale>  0 0.10637160E+04</rscale>
<asrwt>0</asrwt>
<pdfrwt beam="1">  1        1 0.31324423E+00 0.11179802E+04</pdfrwt>
<pdfrwt beam="2">  1       -1 0.10663590E+00 0.11179802E+04</pdfrwt>
<totfact> 0.23028881E+00</totfact>
</mgrwt>
</event>
<event>
 4    5  0.7767175E-008  0.1023470E+04  0.7818608E-02  0.9351476E-01
         -1   -1    0    0    0  501 -0.00000000000E+00  0.00000000000E+00  0.46670876128E+03  0.46670876131E+03  0.50400000000E-02 0.  1.
          1   -1    0    0  501    0  0.00000000000E+00 -0.00000000000E+00 -0.24071433022E+04  0.24071433022E+04  0.50400000000E-02 0. -1.
    8880023    1    1    2    0    0 -0.52380174729E+03  0.58250468031E+03 -0.17895503843E+04  0.20615481458E+04  0.65864270000E+03 0. -1.
    8880022    1    1    2    0    0  0.52380174729E+03 -0.58250468031E+03 -0.15088415659E+03  0.81230391774E+03  0.15294330000E+03 0.  0.
<mgrwt>
<rscale>  0 0.96178892E+03</rscale>
<asrwt>0</asrwt>
<pdfrwt beam="1">  1        1 0.37032973E+00 0.10234697E+04</pdfrwt>
<pdfrwt beam="2">  1       -1 0.71801350E-01 0.10234697E+04</pdfrwt>
<totfact> 0.31184180E+00</totfact>
</mgrwt>
</event>
<event>
 4    5  0.7767175E-008  0.1702439E+04  0.7818608E-02  0.8778514E-01
          1   -1    0    0  501    0  0.00000000000E+00  0.00000000000E+00  0.20281863781E+04  0.20281863781E+04  0.50400000000E-02 0. -1.
         -1   -1    0    0    0  501 -0.00000000000E+00 -0.00000000000E+00 -0.24519185528E+04  0.24519185528E+04  0.50400000000E-02 0.  1.
    8880023    1    1    2    0    0 -0.15521824691E+04 -0.23498784332E+03 -0.17336602153E+04  0.24297896312E+04  0.65864270000E+03 0.  0.
    8880022    1    1    2    0    0  0.15521824691E+04  0.23498784332E+03  0.13099280405E+04  0.20503152997E+04  0.15294330000E+03 0.  0.
<mgrwt>
<rscale>  0 0.16702537E+04</rscale>
<asrwt>0</asrwt>
<pdfrwt beam="1">  1        1 0.31202868E+00 0.17024394E+04</pdfrwt>
<pdfrwt beam="2">  1       -1 0.37721824E+00 0.17024394E+04</pdfrwt>
<totfact> 0.26777892E-02</totfact>
</mgrwt>
</event>
<event>
 4    5  0.7767175E-008  0.6717667E+03  0.7818608E-02  0.1014427E+00
         -1   -1    0    0    0  501 -0.00000000000E+00  0.00000000000E+00  0.70589182887E+03  0.70589182889E+03  0.50400000000E-02 0.  1.
          1   -1    0    0  501    0  0.00000000000E+00 -0.00000000000E+00 -0.19614328294E+04  0.19614328294E+04  0.50400000000E-02 0. -1.
    8880023    1    1    2    0    0 -0.73636292375E+02  0.10971788176E+03  0.53910128580E+03  0.86133658911E+03  0.65864270000E+03 0.  1.
    8880022    1    1    2    0    0  0.73636292375E+02 -0.10971788176E+03 -0.17946422863E+04  0.18059880692E+04  0.15294330000E+03 0.  0.
<mgrwt>
<rscale>  0 0.49752566E+03</rscale>
<asrwt>0</asrwt>
<pdfrwt beam="1">  1        1 0.30175889E+00 0.67176672E+03</pdfrwt>
<pdfrwt beam="2">  1       -1 0.10859874E+00 0.67176672E+03</pdfrwt>
<totfact> 0.26623952E+00</totfact>
</mgrwt>
</event>
<event>
 4    5  0.7767175E-008  0.6709121E+03  0.7818608E-02  0.1015017E+00
         -1   -1    0    0    0  501 -0.00000000000E+00  0.00000000000E+00  0.57632853249E+03  0.57632853251E+03  0.50400000000E-02 0.  1.
          1   -1    0    0  501    0  0.00000000000E+00 -0.00000000000E+00 -0.45655676160E+03  0.45655676163E+03  0.50400000000E-02 0. -1.
    8880023    1    1    2    0    0 -0.10603242357E+03 -0.71203764171E+02  0.32617116771E+03  0.74599643953E+03  0.65864270000E+03 0.  1.
    8880022    1    1    2    0    0  0.10603242357E+03  0.71203764171E+02 -0.20639939682E+03  0.28688885461E+03  0.15294330000E+03 0.  0.
<mgrwt>
<rscale>  0 0.49528388E+03</rscale>
<asrwt>0</asrwt>
<pdfrwt beam="1">  1        1 0.70239502E-01 0.67091211E+03</pdfrwt>
<pdfrwt beam="2">  1       -1 0.88665928E-01 0.67091211E+03</pdfrwt>
<totfact> 0.64336551E+01</totfact>
</mgrwt>
</event>
<event>
 4    5  0.7767175E-008  0.8259570E+03  0.7818608E-02  0.9657251E-01
          1   -1    0    0  501    0  0.00000000000E+00  0.00000000000E+00  0.48945670384E+03  0.48945670386E+03  0.50400000000E-02 0. -1.
         -1   -1    0    0    0  501 -0.00000000000E+00 -0.00000000000E+00 -0.11662598079E+04  0.11662598079E+04  0.50400000000E-02 0.  1.
    8880023    1    1    2    0    0 -0.23910134100E+03  0.43729311246E+03 -0.76638630333E+03  0.11267443764E+04  0.65864270000E+03 0.  1.
    8880022    1    1    2    0    0  0.23910134100E+03 -0.43729311246E+03  0.89583199233E+02  0.52897213544E+03  0.15294330000E+03 0.  0.
<mgrwt>
<rscale>  0 0.73620121E+03</rscale>
<asrwt>0</asrwt>
<pdfrwt beam="1">  1        1 0.75301032E-01 0.82595697E+03</pdfrwt>
<pdfrwt beam="2">  1       -1 0.17942459E+00 0.82595697E+03</pdfrwt>
<totfact> 0.97975367E+00</totfact>
</mgrwt>
</event>
<event>
 4    5  0.7767175E-008  0.8924566E+03  0.7818608E-02  0.9538251E-01
         -1   -1    0    0    0  501 -0.00000000000E+00  0.00000000000E+00  0.16801116356E+04  0.16801116356E+04  0.50400000000E-02 0.  1.
          1   -1    0    0  501    0  0.00000000000E+00 -0.00000000000E+00 -0.99137270742E+03  0.99137270744E+03  0.50400000000E-02 0. -1.
    8880023    1    1    2    0    0 -0.58725221360E+03 -0.13342963307E+03  0.14415062108E+04  0.16954111571E+04  0.65864270000E+03 0.  1.
    8880022    1    1    2    0    0  0.58725221360E+03  0.13342963307E+03 -0.75276728271E+03  0.97607318593E+03  0.15294330000E+03 0.  0.
<mgrwt>
<rscale>  0 0.81521513E+03</rscale>
<asrwt>0</asrwt>
<pdfrwt beam="1">  1        1 0.15251888E+00 0.89245663E+03</pdfrwt>
<pdfrwt beam="2">  1       -1 0.25847871E+00 0.89245663E+03</pdfrwt>
<totfact> 0.96801597E-01</totfact>
</mgrwt>
</event>
<event>
 4    5  0.7767175E-008  0.8274549E+03  0.7818608E-02  0.9654305E-01
         -1   -1    0    0    0  501 -0.00000000000E+00  0.00000000000E+00  0.25906221023E+03  0.25906221028E+03  0.50400000000E-02 0.  1.
          1   -1    0    0  501    0  0.00000000000E+00 -0.00000000000E+00 -0.25080266664E+04  0.25080266664E+04  0.50400000000E-02 0. -1.
    8880023    1    1    2    0    0 -0.48868123196E+03 -0.10982773756E+03 -0.56087668944E+03  0.99963210504E+03  0.65864270000E+03 0.  1.
    8880022    1    1    2    0    0  0.48868123196E+03  0.10982773756E+03 -0.16880877667E+04  0.17674567716E+04  0.15294330000E+03 0.  0.
<mgrwt>
<rscale>  0 0.73803880E+03</rscale>
<asrwt>0</asrwt>
<pdfrwt beam="1">  1        1 0.38585024E+00 0.82745494E+03</pdfrwt>
<pdfrwt beam="2">  1       -1 0.39855726E-01 0.82745494E+03</pdfrwt>
<totfact> 0.85444412E+00</totfact>
</mgrwt>
</event>
<event>
 4    5  0.7767175E-008  0.1247007E+04  0.7818608E-02  0.9112729E-01
         -1   -1    0    0    0  501 -0.00000000000E+00  0.00000000000E+00  0.77239370521E+03  0.77239370523E+03  0.50400000000E-02 0.  1.
          1   -1    0    0  501    0  0.00000000000E+00 -0.00000000000E+00 -0.23755309188E+04  0.23755309188E+04  0.50400000000E-02 0. -1.
    8880023    1    1    2    0    0  0.81730966636E+03 -0.67321753075E+03 -0.32379294936E+02  0.12474275768E+04  0.65864270000E+03 0.  0.
    8880022    1    1    2    0    0 -0.81730966636E+03  0.67321753075E+03 -0.15707579187E+04  0.19004970472E+04  0.15294330000E+03 0.  0.
<mgrwt>
<rscale>  0 0.12001454E+04</rscale>
<asrwt>0</asrwt>
<pdfrwt beam="1">  1        1 0.36546629E+00 0.12470073E+04</pdfrwt>
<pdfrwt beam="2">  1       -1 0.11882980E+00 0.12470073E+04</pdfrwt>
<totfact> 0.10279768E+00</totfact>
</mgrwt>
</event>
<event>
 4    5  0.7767175E-008  0.7444642E+03  0.7818608E-02  0.9847129E-01
          1   -1    0    0  501    0  0.00000000000E+00  0.00000000000E+00  0.12686393490E+04  0.12686393490E+04  0.50400000000E-02 0. -1.
         -1   -1    0    0    0  501 -0.00000000000E+00 -0.00000000000E+00 -0.24981559343E+03  0.24981559349E+03  0.50400000000E-02 0.  1.
    8880023    1    1    2    0    0  0.15567387731E+03  0.31013275530E+03  0.62906931974E+03  0.97465639960E+03  0.65864270000E+03 0. -1.
    8880022    1    1    2    0    0 -0.15567387731E+03 -0.31013275530E+03  0.38975443582E+03  0.54379854288E+03  0.15294330000E+03 0.  1.
<mgrwt>
<rscale>  0 0.62893513E+03</rscale>
<asrwt>0</asrwt>
<pdfrwt beam="1">  1        1 0.19517528E+00 0.74446416E+03</pdfrwt>
<pdfrwt beam="2">  1       -1 0.38433168E-01 0.74446416E+03</pdfrwt>
<totfact> 0.63964739E+01</totfact>
</mgrwt>
</event>
<event>
 4    5  0.7767175E-008  0.1127222E+04  0.7818608E-02  0.9231336E-01
         -1   -1    0    0    0  501 -0.00000000000E+00  0.00000000000E+00  0.72765195192E+03  0.72765195194E+03  0.50400000000E-02 0.  1.
          1   -1    0    0  501    0  0.00000000000E+00 -0.00000000000E+00 -0.21002458848E+04  0.21002458848E+04  0.50400000000E-02 0. -1.
    8880023    1    1    2    0    0  0.63379858392E+03 -0.65963587345E+03  0.51514506454E+02  0.11283989016E+04  0.65864270000E+03 0.  1.
    8880022    1    1    2    0    0 -0.63379858392E+03  0.65963587345E+03 -0.14241084393E+04  0.16994989351E+04  0.15294330000E+03 0.  0.
<mgrwt>
<rscale>  0 0.10735762E+04</rscale>
<asrwt>0</asrwt>
<pdfrwt beam="1">  1        1 0.32311475E+00 0.11272224E+04</pdfrwt>
<pdfrwt beam="2">  1       -1 0.11194645E+00 0.11272224E+04</pdfrwt>
<totfact> 0.18553094E+00</totfact>
</mgrwt>
</event>
<event>
 4    5  0.7767175E-008  0.9164305E+03  0.7818608E-02  0.9500154E-01
         -1   -1    0    0    0  501 -0.00000000000E+00  0.00000000000E+00  0.10853343712E+04  0.10853343712E+04  0.50400000000E-02 0.  1.
          1   -1    0    0  501    0  0.00000000000E+00 -0.00000000000E+00 -0.20434098346E+04  0.20434098346E+04  0.50400000000E-02 0. -1.
    8880023    1    1    2    0    0 -0.53781286288E+02  0.63493484857E+03  0.82250520421E+03  0.12314055814E+04  0.65864270000E+03 0.  1.
    8880022    1    1    2    0    0  0.53781286288E+02 -0.63493484857E+03 -0.17805806677E+04  0.18973386244E+04  0.15294330000E+03 0.  0.
<mgrwt>
<rscale>  0 0.84272474E+03</rscale>
<asrwt>0</asrwt>
<pdfrwt beam="1">  1        1 0.31437074E+00 0.91643052E+03</pdfrwt>
<pdfrwt beam="2">  1       -1 0.16697452E+00 0.91643052E+03</pdfrwt>
<totfact> 0.74051910E-01</totfact>
</mgrwt>
</event>
<event>
 4    5  0.7944185E-008  0.1489079E+04  0.7818608E-02  0.8917387E-01
         -1   -1    0    0    0  501 -0.00000000000E+00  0.00000000000E+00  0.15207057637E+04  0.15207057637E+04  0.50400000000E-02 0.  1.
          1   -1    0    0  501    0  0.00000000000E+00 -0.00000000000E+00 -0.37047118605E+04  0.37047118605E+04  0.50400000000E-02 0. -1.
    8880023    1    1    2    0    0  0.11676102443E+04 -0.64825255577E+03  0.98345274591E+03  0.17845264269E+04  0.65864270000E+03 0.  0.
    8880022    1    1    2    0    0 -0.11676102443E+04  0.64825255577E+03 -0.31674588427E+04  0.34408911973E+04  0.15294330000E+03 0.  0.
<mgrwt>
<rscale>  0 0.14514634E+04</rscale>
<asrwt>0</asrwt>
<pdfrwt beam="1">  1        1 0.56995567E+00 0.14890787E+04</pdfrwt>
<pdfrwt beam="2">  1       -1 0.23395473E+00 0.14890787E+04</pdfrwt>
<totfact> 0.14496950E-02</totfact>
</mgrwt>
</event>
<event>
 4    5  0.7767175E-008  0.8196247E+03  0.7818608E-02  0.9669867E-01
          1   -1    0    0  501    0  0.00000000000E+00  0.00000000000E+00  0.19386845639E+04  0.19386845639E+04  0.50400000000E-02 0. -1.
         -1   -1    0    0    0  501 -0.00000000000E+00 -0.00000000000E+00 -0.60055824361E+03  0.60055824363E+03  0.50400000000E-02 0.  1.
    8880023    1    1    2    0    0 -0.92436616157E+02  0.47898834949E+03 -0.26116332072E+03  0.86022721028E+03  0.65864270000E+03 0.  0.
    8880022    1    1    2    0    0  0.92436616157E+02 -0.47898834949E+03  0.15992896410E+04  0.16790155973E+04  0.15294330000E+03 0.  0.
<mgrwt>
<rscale>  0 0.72839575E+03</rscale>
<asrwt>0</asrwt>
<pdfrwt beam="1">  1        1 0.29825917E+00 0.81962465E+03</pdfrwt>
<pdfrwt beam="2">  1       -1 0.92393575E-01 0.81962465E+03</pdfrwt>
<totfact> 0.38780116E+00</totfact>
</mgrwt>
</event>
<event>
 4    5  0.7767175E-008  0.1038911E+04  0.7818608E-02  0.9332332E-01
          1   -1    0    0  501    0  0.00000000000E+00  0.00000000000E+00  0.90944984875E+03  0.90944984876E+03  0.50400000000E-02 0. -1.
         -1   -1    0    0    0  501 -0.00000000000E+00 -0.00000000000E+00 -0.17514332365E+04  0.17514332365E+04  0.50400000000E-02 0.  1.
    8880023    1    1    2    0    0 -0.15260266894E+03 -0.78882079645E+03 -0.13459017705E+04  0.17002316329E+04  0.65864270000E+03 0.  1.
    8880022    1    1    2    0    0  0.15260266894E+03  0.78882079645E+03  0.50391838273E+03  0.96065145237E+03  0.15294330000E+03 0.  0.
<mgrwt>
<rscale>  0 0.97860025E+03</rscale>
<asrwt>0</asrwt>
<pdfrwt beam="1">  1        1 0.13991536E+00 0.10389110E+04</pdfrwt>
<pdfrwt beam="2">  1       -1 0.26945127E+00 0.10389110E+04</pdfrwt>
<totfact> 0.93540196E-01</totfact>
</mgrwt>
</event>
<event>
 4    5  0.7767175E-008  0.1298992E+04  0.7818608E-02  0.9066431E-01
          1   -1    0    0  501    0  0.00000000000E+00  0.00000000000E+00  0.12173177842E+04  0.12173177842E+04  0.50400000000E-02 0. -1.
         -1   -1    0    0    0  501 -0.00000000000E+00 -0.00000000000E+00 -0.34997734756E+04  0.34997734756E+04  0.50400000000E-02 0.  1.
    8880023    1    1    2    0    0  0.33244924720E+02 -0.11191360174E+04 -0.30741489894E+04  0.33373302002E+04  0.65864270000E+03 0.  0.
    8880022    1    1    2    0    0 -0.33244924720E+02  0.11191360174E+04  0.79169329795E+03  0.13797610595E+04  0.15294330000E+03 0.  0.
<mgrwt>
<rscale>  0 0.12545188E+04</rscale>
<asrwt>0</asrwt>
<pdfrwt beam="1">  1        1 0.18727966E+00 0.12989922E+04</pdfrwt>
<pdfrwt beam="2">  1       -1 0.53842668E+00 0.12989922E+04</pdfrwt>
<totfact> 0.86375579E-03</totfact>
</mgrwt>
</event>
<event>
 4    5  0.7767175E-008  0.6977792E+03  0.7818608E-02  0.1000654E+00
         -1   -1    0    0    0  501 -0.00000000000E+00  0.00000000000E+00  0.65864201203E+03  0.65864201205E+03  0.50400000000E-02 0.  1.
          1   -1    0    0  501    0  0.00000000000E+00 -0.00000000000E+00 -0.73956620974E+03  0.73956620975E+03  0.50400000000E-02 0. -1.
    8880023    1    1    2    0    0  0.33641562978E+02 -0.22793385341E+03  0.42829742852E+03  0.81873957388E+03  0.65864270000E+03 0.  1.
    8880022    1    1    2    0    0 -0.33641562978E+02  0.22793385341E+03 -0.50922162623E+03  0.57946864792E+03  0.15294330000E+03 0.  0.
<mgrwt>
<rscale>  0 0.55364329E+03</rscale>
<asrwt>0</asrwt>
<pdfrwt beam="1">  1        1 0.11377942E+00 0.69777919E+03</pdfrwt>
<pdfrwt beam="2">  1       -1 0.10132954E+00 0.69777919E+03</pdfrwt>
<totfact> 0.23895854E+01</totfact>
</mgrwt>
</event>
<event>
 4    5  0.7767175E-008  0.1118875E+04  0.7818608E-02  0.9240327E-01
          1   -1    0    0  501    0  0.00000000000E+00  0.00000000000E+00  0.20933818691E+04  0.20933818691E+04  0.50400000000E-02 0. -1.
         -1   -1    0    0    0  501 -0.00000000000E+00 -0.00000000000E+00 -0.49640459215E+03  0.49640459218E+03  0.50400000000E-02 0.  1.
    8880023    1    1    2    0    0  0.88893608241E+03  0.16692433300E+03  0.94238968302E+03  0.14628669155E+04  0.65864270000E+03 0.  0.
    8880022    1    1    2    0    0 -0.88893608241E+03 -0.16692433300E+03  0.65458759395E+03  0.11269195458E+04  0.15294330000E+03 0.  0.
<mgrwt>
<rscale>  0 0.10646713E+04</rscale>
<asrwt>0</asrwt>
<pdfrwt beam="1">  1        1 0.32205876E+00 0.11188750E+04</pdfrwt>
<pdfrwt beam="2">  1       -1 0.76369936E-01 0.11188750E+04</pdfrwt>
<totfact> 0.44229894E+00</totfact>
</mgrwt>
</event>
<event>
 4    5  0.7767175E-008  0.7786860E+03  0.7818608E-02  0.9758933E-01
         -1   -1    0    0    0  501 -0.00000000000E+00  0.00000000000E+00  0.52989396466E+03  0.52989396468E+03  0.50400000000E-02 0.  1.
          1   -1    0    0  501    0  0.00000000000E+00 -0.00000000000E+00 -0.18593421056E+04  0.18593421056E+04  0.50400000000E-02 0. -1.
    8880023    1    1    2    0    0 -0.40421705637E+03 -0.95657072728E+02  0.19424641660E+03  0.80254817977E+03  0.65864270000E+03 0.  1.
    8880022    1    1    2    0    0  0.40421705637E+03  0.95657072728E+02 -0.15236945575E+04  0.15866878905E+04  0.15294330000E+03 0.  0.
<mgrwt>
<rscale>  0 0.67613798E+03</rscale>
<asrwt>0</asrwt>
<pdfrwt beam="1">  1        1 0.28605263E+00 0.77868602E+03</pdfrwt>
<pdfrwt beam="2">  1       -1 0.81522149E-01 0.77868602E+03</pdfrwt>
<totfact> 0.57950518E+00</totfact>
</mgrwt>
</event>
<event>
 4    5  0.7767175E-008  0.7316046E+03  0.7818608E-02  0.9885114E-01
          1   -1    0    0  501    0  0.00000000000E+00  0.00000000000E+00  0.14690272769E+04  0.14690272769E+04  0.50400000000E-02 0. -1.
         -1   -1    0    0    0  501 -0.00000000000E+00 -0.00000000000E+00 -0.20580805628E+03  0.20580805634E+03  0.50400000000E-02 0.  1.
    8880023    1    1    2    0    0  0.54046723962E+02 -0.31386953113E+03  0.71742615828E+03  0.10246685463E+04  0.65864270000E+03 0.  1.
    8880022    1    1    2    0    0 -0.54046723962E+02  0.31386953113E+03  0.54579306235E+03  0.65016678696E+03  0.15294330000E+03 0. -1.
<mgrwt>
<rscale>  0 0.60988199E+03</rscale>
<asrwt>0</asrwt>
<pdfrwt beam="1">  1        1 0.22600420E+00 0.73160463E+03</pdfrwt>
<pdfrwt beam="2">  1       -1 0.31662778E-01 0.73160463E+03</pdfrwt>
<totfact> 0.65523828E+01</totfact>
</mgrwt>
</event>
<event>
 4    5  0.7767175E-008  0.8890868E+03  0.7818608E-02  0.9543783E-01
          1   -1    0    0  501    0  0.00000000000E+00  0.00000000000E+00  0.56520002718E+03  0.56520002720E+03  0.50400000000E-02 0. -1.
         -1   -1    0    0    0  501 -0.00000000000E+00 -0.00000000000E+00 -0.11816126153E+04  0.11816126153E+04  0.50400000000E-02 0.  1.
    8880023    1    1    2    0    0 -0.57643001404E+03  0.15618448505E+03 -0.20396171450E+02  0.88932073209E+03  0.65864270000E+03 0.  0.
    8880022    1    1    2    0    0  0.57643001404E+03 -0.15618448505E+03 -0.59601641664E+03  0.85749191039E+03  0.15294330000E+03 0.  0.
<mgrwt>
<rscale>  0 0.81131441E+03</rscale>
<asrwt>0</asrwt>
<pdfrwt beam="1">  1        1 0.86953850E-01 0.88908681E+03</pdfrwt>
<pdfrwt beam="2">  1       -1 0.18178656E+00 0.88908681E+03</pdfrwt>
<totfact> 0.76550587E+00</totfact>
</mgrwt>
</event>
<event>
 4    5  0.7767175E-008  0.8445467E+03  0.7818608E-02  0.9621666E-01
          1   -1    0    0  501    0  0.00000000000E+00  0.00000000000E+00  0.64046598103E+03  0.64046598105E+03  0.50400000000E-02 0. -1.
         -1   -1    0    0    0  501 -0.00000000000E+00 -0.00000000000E+00 -0.14864387819E+04  0.14864387819E+04  0.50400000000E-02 0.  1.
    8880023    1    1    2    0    0 -0.43332996758E+03  0.30277726109E+03 -0.12037865457E+04  0.14704969175E+04  0.65864270000E+03 0.  1.
    8880022    1    1    2    0    0  0.43332996758E+03 -0.30277726109E+03  0.35781374476E+03  0.65640784547E+03  0.15294330000E+03 0.  0.
<mgrwt>
<rscale>  0 0.75878636E+03</rscale>
<asrwt>0</asrwt>
<pdfrwt beam="1">  1        1 0.98533228E-01 0.84454670E+03</pdfrwt>
<pdfrwt beam="2">  1       -1 0.22868289E+00 0.84454670E+03</pdfrwt>
<totfact> 0.30777104E+00</totfact>
</mgrwt>
</event>
<event>
 4    5  0.7767175E-008  0.7557362E+03  0.7818608E-02  0.9816274E-01
         -1   -1    0    0    0  501 -0.00000000000E+00  0.00000000000E+00  0.47366312318E+03  0.47366312320E+03  0.50400000000E-02 0.  1.
          1   -1    0    0  501    0  0.00000000000E+00 -0.00000000000E+00 -0.14360153193E+04  0.14360153193E+04  0.50400000000E-02 0. -1.
    8880023    1    1    2    0    0  0.33854237960E+03 -0.15071829601E+03  0.11105334423E+03  0.76385207931E+03  0.65864270000E+03 0.  0.
    8880022    1    1    2    0    0 -0.33854237960E+03  0.15071829601E+03 -0.10734055403E+04  0.11458263632E+04  0.15294330000E+03 0.  0.
<mgrwt>
<rscale>  0 0.64496467E+03</rscale>
<asrwt>0</asrwt>
<pdfrwt beam="1">  1        1 0.22092543E+00 0.75573617E+03</pdfrwt>
<pdfrwt beam="2">  1       -1 0.72871251E-01 0.75573617E+03</pdfrwt>
<totfact> 0.14243288E+01</totfact>
</mgrwt>
</event>
<event>
 4    5  0.7767175E-008  0.9668996E+03  0.7818608E-02  0.9426205E-01
          1   -1    0    0  501    0  0.00000000000E+00  0.00000000000E+00  0.64387940017E+03  0.64387940019E+03  0.50400000000E-02 0. -1.
         -1   -1    0    0    0  501 -0.00000000000E+00 -0.00000000000E+00 -0.20153985395E+04  0.20153985395E+04  0.50400000000E-02 0.  1.
    8880023    1    1    2    0    0  0.39848003949E+03  0.58506267098E+03 -0.16259129677E+04  0.18916891541E+04  0.65864270000E+03 0.  1.
    8880022    1    1    2    0    0 -0.39848003949E+03 -0.58506267098E+03  0.25439382838E+03  0.76758878560E+03  0.15294330000E+03 0.  0.
<mgrwt>
<rscale>  0 0.89950127E+03</rscale>
<asrwt>0</asrwt>
<pdfrwt beam="1">  1        1 0.99058370E-01 0.96689962E+03</pdfrwt>
<pdfrwt beam="2">  1       -1 0.31006131E+00 0.96689962E+03</pdfrwt>
<totfact> 0.89526512E-01</totfact>
</mgrwt>
</event>
<event>
 4    5  0.7767175E-008  0.7670212E+03  0.7818608E-02  0.9787258E-01
          1   -1    0    0  501    0  0.00000000000E+00  0.00000000000E+00  0.23801395619E+04  0.23801395620E+04  0.50400000000E-02 0. -1.
         -1   -1    0    0    0  501 -0.00000000000E+00 -0.00000000000E+00 -0.10944371631E+04  0.10944371632E+04  0.50400000000E-02 0.  1.
    8880023    1    1    2    0    0  0.10970142630E+03  0.37746123971E+03 -0.93774234435E+03  0.12114793853E+04  0.65864270000E+03 0.  1.
    8880022    1    1    2    0    0 -0.10970142630E+03 -0.37746123971E+03  0.22234447432E+04  0.22630973398E+04  0.15294330000E+03 0.  0.
<mgrwt>
<rscale>  0 0.66050859E+03</rscale>
<asrwt>0</asrwt>
<pdfrwt beam="1">  1        1 0.36617531E+00 0.76702125E+03</pdfrwt>
<pdfrwt beam="2">  1       -1 0.16837495E+00 0.76702125E+03</pdfrwt>
<totfact> 0.44216468E-01</totfact>
</mgrwt>
</event>
<event>
 4    5  0.7767175E-008  0.1134554E+04  0.7818608E-02  0.9223526E-01
         -1   -1    0    0    0  501 -0.00000000000E+00  0.00000000000E+00  0.37193061466E+03  0.37193061470E+03  0.50400000000E-02 0.  1.
          1   -1    0    0  501    0  0.00000000000E+00 -0.00000000000E+00 -0.37659989940E+04  0.37659989940E+04  0.50400000000E-02 0. -1.
    8880023    1    1    2    0    0  0.86818462625E+03  0.31568604881E+03 -0.82289719695E+03  0.14015606407E+04  0.65864270000E+03 0.  0.
    8880022    1    1    2    0    0 -0.86818462625E+03 -0.31568604881E+03 -0.25711711824E+04  0.27363689680E+04  0.15294330000E+03 0.  0.
<mgrwt>
<rscale>  0 0.10813867E+04</rscale>
<asrwt>0</asrwt>
<pdfrwt beam="1">  1        1 0.57938443E+00 0.11345538E+04</pdfrwt>
<pdfrwt beam="2">  1       -1 0.57220097E-01 0.11345538E+04</pdfrwt>
<totfact> 0.48178816E-01</totfact>
</mgrwt>
</event>
<event>
 4    5  0.7767175E-008  0.7832362E+03  0.7818608E-02  0.9748289E-01
          1   -1    0    0  501    0  0.00000000000E+00  0.00000000000E+00  0.18222665976E+04  0.18222665976E+04  0.50400000000E-02 0. -1.
         -1   -1    0    0    0  501 -0.00000000000E+00 -0.00000000000E+00 -0.50041159130E+03  0.50041159132E+03  0.50400000000E-02 0.  1.
    8880023    1    1    2    0    0 -0.20399489527E+03 -0.37153041187E+03 -0.13761300599E+03  0.79523349396E+03  0.65864270000E+03 0.  1.
    8880022    1    1    2    0    0  0.20399489527E+03  0.37153041187E+03  0.14594680123E+04  0.15274446950E+04  0.15294330000E+03 0.  0.
<mgrwt>
<rscale>  0 0.68213037E+03</rscale>
<asrwt>0</asrwt>
<pdfrwt beam="1">  1        1 0.28034870E+00 0.78323622E+03</pdfrwt>
<pdfrwt beam="2">  1       -1 0.76986400E-01 0.78323622E+03</pdfrwt>
<totfact> 0.69222173E+00</totfact>
</mgrwt>
</event>
<event>
 4    5  0.7767175E-008  0.1163874E+04  0.7818608E-02  0.9193065E-01
          1   -1    0    0  501    0  0.00000000000E+00  0.00000000000E+00  0.22736642195E+04  0.22736642195E+04  0.50400000000E-02 0. -1.
         -1   -1    0    0    0  501 -0.00000000000E+00 -0.00000000000E+00 -0.55307965649E+03  0.55307965652E+03  0.50400000000E-02 0.  1.
    8880023    1    1    2    0    0  0.59777864704E+03 -0.75063523804E+03  0.50030188609E+03  0.12668483551E+04  0.65864270000E+03 0.  0.
    8880022    1    1    2    0    0 -0.59777864704E+03  0.75063523804E+03  0.12202826769E+04  0.15598955209E+04  0.15294330000E+03 0.  0.
<mgrwt>
<rscale>  0 0.11125296E+04</rscale>
<asrwt>0</asrwt>
<pdfrwt beam="1">  1        1 0.34979449E+00 0.11638740E+04</pdfrwt>
<pdfrwt beam="2">  1       -1 0.85089178E-01 0.11638740E+04</pdfrwt>
<totfact> 0.26335049E+00</totfact>
</mgrwt>
</event>
<event>
 4    5  0.7767175E-008  0.1132193E+04  0.7818608E-02  0.9226033E-01
         -1   -1    0    0    0  501 -0.00000000000E+00  0.00000000000E+00  0.15543873856E+04  0.15543873856E+04  0.50400000000E-02 0.  1.
          1   -1    0    0  501    0  0.00000000000E+00 -0.00000000000E+00 -0.27622396568E+04  0.27622396568E+04  0.50400000000E-02 0. -1.
    8880023    1    1    2    0    0  0.91083340236E+03  0.13576542199E+03 -0.24872800875E+04  0.27328414108E+04  0.65864270000E+03 0. -1.
    8880022    1    1    2    0    0 -0.91083340236E+03 -0.13576542199E+03  0.12794278163E+04  0.15837856316E+04  0.15294330000E+03 0.  0.
<mgrwt>
<rscale>  0 0.10788722E+04</rscale>
<asrwt>0</asrwt>
<pdfrwt beam="1">  1        1 0.42495995E+00 0.11321925E+04</pdfrwt>
<pdfrwt beam="2">  1       -1 0.23913652E+00 0.11321925E+04</pdfrwt>
<totfact> 0.72930117E-02</totfact>
</mgrwt>
</event>
<event>
 4    5  0.7767175E-008  0.8999976E+03  0.7818608E-02  0.9526035E-01
          1   -1    0    0  501    0  0.00000000000E+00  0.00000000000E+00  0.23116379844E+04  0.23116379844E+04  0.50400000000E-02 0. -1.
         -1   -1    0    0    0  501 -0.00000000000E+00 -0.00000000000E+00 -0.44119374191E+03  0.44119374194E+03  0.50400000000E-02 0.  1.
    8880023    1    1    2    0    0  0.19487593624E+02  0.61302998477E+03  0.14034995996E+03  0.91087531861E+03  0.65864270000E+03 0.  1.
    8880022    1    1    2    0    0 -0.19487593624E+02 -0.61302998477E+03  0.17300942825E+04  0.18419564077E+04  0.15294330000E+03 0.  0.
<mgrwt>
<rscale>  0 0.82391253E+03</rscale>
<asrwt>0</asrwt>
<pdfrwt beam="1">  1        1 0.35563661E+00 0.89999763E+03</pdfrwt>
<pdfrwt beam="2">  1       -1 0.67875960E-01 0.89999763E+03</pdfrwt>
<totfact> 0.41378480E+00</totfact>
</mgrwt>
</event>
<event>
 4    5  0.7767175E-008  0.8639465E+03  0.7818608E-02  0.9586582E-01
          1   -1    0    0  501    0  0.00000000000E+00  0.00000000000E+00  0.14948759217E+04  0.14948759218E+04  0.50400000000E-02 0. -1.
         -1   -1    0    0    0  501 -0.00000000000E+00 -0.00000000000E+00 -0.42096300001E+03  0.42096300004E+03  0.50400000000E-02 0.  1.
    8880023    1    1    2    0    0  0.12116668746E+03  0.54581310732E+03  0.23354664955E+03  0.89495673529E+03  0.65864270000E+03 0.  0.
    8880022    1    1    2    0    0 -0.12116668746E+03 -0.54581310732E+03  0.84036627219E+03  0.10208821865E+04  0.15294330000E+03 0. -1.
<mgrwt>
<rscale>  0 0.78190702E+03</rscale>
<asrwt>0</asrwt>
<pdfrwt beam="1">  1        1 0.22998091E+00 0.86394648E+03</pdfrwt>
<pdfrwt beam="2">  1       -1 0.64763538E-01 0.86394648E+03</pdfrwt>
<totfact> 0.16275417E+01</totfact>
</mgrwt>
</event>
<event>
 4    5  0.7767175E-008  0.7886882E+03  0.7818608E-02  0.9735810E-01
          1   -1    0    0  501    0  0.00000000000E+00  0.00000000000E+00  0.56769297934E+03  0.56769297936E+03  0.50400000000E-02 0. -1.
         -1   -1    0    0    0  501 -0.00000000000E+00 -0.00000000000E+00 -0.25275876077E+04  0.25275876077E+04  0.50400000000E-02 0.  1.
    8880023    1    1    2    0    0  0.39230844792E+03 -0.18523771265E+03 -0.23583255044E+04  0.24867103409E+04  0.65864270000E+03 0.  1.
    8880022    1    1    2    0    0 -0.39230844792E+03  0.18523771265E+03  0.39843087606E+03  0.60857024616E+03  0.15294330000E+03 0.  0.
<mgrwt>
<rscale>  0 0.68924114E+03</rscale>
<asrwt>0</asrwt>
<pdfrwt beam="1">  1        1 0.87337383E-01 0.78868824E+03</pdfrwt>
<pdfrwt beam="2">  1       -1 0.38885963E+00 0.78868824E+03</pdfrwt>
<totfact> 0.33635822E-01</totfact>
</mgrwt>
</event>
<event>
 4    5  0.7767175E-008  0.6890746E+03  0.7818608E-02  0.1004596E+00
         -1   -1    0    0    0  501 -0.00000000000E+00  0.00000000000E+00  0.11236421011E+03  0.11236421022E+03  0.50400000000E-02 0.  1.
          1   -1    0    0  501    0  0.00000000000E+00 -0.00000000000E+00 -0.24969738470E+04  0.24969738470E+04  0.50400000000E-02 0. -1.
    8880023    1    1    2    0    0  0.90714622944E+02 -0.18106488330E+03 -0.10860131094E+04  0.12861758491E+04  0.65864270000E+03 0.  1.
    8880022    1    1    2    0    0 -0.90714622944E+02  0.18106488330E+03 -0.12985965274E+04  0.13231622081E+04  0.15294330000E+03 0.  0.
<mgrwt>
<rscale>  0 0.53680294E+03</rscale>
<asrwt>0</asrwt>
<pdfrwt beam="1">  1        1 0.38414978E+00 0.68907463E+03</pdfrwt>
<pdfrwt beam="2">  1       -1 0.17286803E-01 0.68907463E+03</pdfrwt>
<totfact> 0.37350126E+01</totfact>
</mgrwt>
</event>
<event>
 4    5  0.7767175E-008  0.8288753E+03  0.7818608E-02  0.9651525E-01
         -1   -1    0    0    0  501 -0.00000000000E+00  0.00000000000E+00  0.13186995366E+04  0.13186995366E+04  0.50400000000E-02 0.  1.
          1   -1    0    0  501    0  0.00000000000E+00 -0.00000000000E+00 -0.18317218146E+04  0.18317218146E+04  0.50400000000E-02 0. -1.
    8880023    1    1    2    0    0  0.40659773234E+03  0.29648319170E+03  0.11435556240E+04  0.14123574867E+04  0.65864270000E+03 0.  1.
    8880022    1    1    2    0    0 -0.40659773234E+03 -0.29648319170E+03 -0.16565779020E+04  0.17380638645E+04  0.15294330000E+03 0.  0.
<mgrwt>
<rscale>  0 0.73977811E+03</rscale>
<asrwt>0</asrwt>
<pdfrwt beam="1">  1        1 0.28180335E+00 0.82887527E+03</pdfrwt>
<pdfrwt beam="2">  1       -1 0.20287685E+00 0.82887527E+03</pdfrwt>
<totfact> 0.58148403E-01</totfact>
</mgrwt>
</event>
<event>
 4    5  0.7767175E-008  0.8794644E+03  0.7818608E-02  0.9559836E-01
          1   -1    0    0  501    0  0.00000000000E+00  0.00000000000E+00  0.13777608163E+04  0.13777608163E+04  0.50400000000E-02 0. -1.
         -1   -1    0    0    0  501 -0.00000000000E+00 -0.00000000000E+00 -0.10228376191E+04  0.10228376191E+04  0.50400000000E-02 0.  1.
    8880023    1    1    2    0    0 -0.42613409103E+03  0.39756399255E+03 -0.74096523479E+03  0.11499943814E+04  0.65864270000E+03 0.  1.
    8880022    1    1    2    0    0  0.42613409103E+03 -0.39756399255E+03  0.10958884320E+04  0.12506040541E+04  0.15294330000E+03 0.  0.
<mgrwt>
<rscale>  0 0.80012503E+03</rscale>
<asrwt>0</asrwt>
<pdfrwt beam="1">  1        1 0.21196320E+00 0.87946438E+03</pdfrwt>
<pdfrwt beam="2">  1       -1 0.15735963E+00 0.87946438E+03</pdfrwt>
<totfact> 0.24917686E+00</totfact>
</mgrwt>
</event>
<event>
 4    5  0.7767175E-008  0.6714858E+03  0.7818608E-02  0.1014619E+00
         -1   -1    0    0    0  501 -0.00000000000E+00  0.00000000000E+00  0.36146481747E+03  0.36146481750E+03  0.50400000000E-02 0.  1.
          1   -1    0    0  501    0  0.00000000000E+00 -0.00000000000E+00 -0.74571298624E+03  0.74571298625E+03  0.50400000000E-02 0. -1.
    8880023    1    1    2    0    0  0.12530786725E+03 -0.37161499528E+02  0.22096170129E+01  0.67148948414E+03  0.65864270000E+03 0.  1.
    8880022    1    1    2    0    0 -0.12530786725E+03  0.37161499528E+02 -0.38645778578E+03  0.43568831961E+03  0.15294330000E+03 0.  0.
<mgrwt>
<rscale>  0 0.49679314E+03</rscale>
<asrwt>0</asrwt>
<pdfrwt beam="1">  1        1 0.11472507E+00 0.67148585E+03</pdfrwt>
<pdfrwt beam="2">  1       -1 0.55609972E-01 0.67148585E+03</pdfrwt>
<totfact> 0.82942669E+01</totfact>
</mgrwt>
</event>
<event>
 4    5  0.7767175E-008  0.1126860E+04  0.7818608E-02  0.9231724E-01
         -1   -1    0    0    0  501 -0.00000000000E+00  0.00000000000E+00  0.57035477695E+03  0.57035477697E+03  0.50400000000E-02 0.  1.
          1   -1    0    0  501    0  0.00000000000E+00 -0.00000000000E+00 -0.23736510194E+04  0.23736510194E+04  0.50400000000E-02 0. -1.
    8880023    1    1    2    0    0 -0.60290006741E+03 -0.68739731742E+03 -0.28053378850E+03  0.11612549143E+04  0.65864270000E+03 0.  0.
    8880022    1    1    2    0    0  0.60290006741E+03  0.68739731742E+03 -0.15227624540E+04  0.17827508821E+04  0.15294330000E+03 0.  0.
<mgrwt>
<rscale>  0 0.10731900E+04</rscale>
<asrwt>0</asrwt>
<pdfrwt beam="1">  1        1 0.36517708E+00 0.11268601E+04</pdfrwt>
<pdfrwt beam="2">  1       -1 0.87746890E-01 0.11268601E+04</pdfrwt>
<totfact> 0.21140639E+00</totfact>
</mgrwt>
</event>
<event>
 4    5  0.7767175E-008  0.1397463E+04  0.7818608E-02  0.8985656E-01
          1   -1    0    0  501    0  0.00000000000E+00  0.00000000000E+00  0.13619787817E+04  0.13619787817E+04  0.50400000000E-02 0. -1.
         -1   -1    0    0    0  501 -0.00000000000E+00 -0.00000000000E+00 -0.15830335131E+04  0.15830335131E+04  0.50400000000E-02 0.  1.
    8880023    1    1    2    0    0 -0.84054983135E+03  0.90142636054E+03 -0.76044835984E+03  0.15909699610E+04  0.65864270000E+03 0.  0.
    8880022    1    1    2    0    0  0.84054983135E+03 -0.90142636054E+03  0.53939362840E+03  0.13540423338E+04  0.15294330000E+03 0.  0.
<mgrwt>
<rscale>  0 0.13568534E+04</rscale>
<asrwt>0</asrwt>
<pdfrwt beam="1">  1        1 0.20953520E+00 0.13974633E+04</pdfrwt>
<pdfrwt beam="2">  1       -1 0.24354362E+00 0.13974633E+04</pdfrwt>
<totfact> 0.60140670E-01</totfact>
</mgrwt>
</event>
<event>
 4    5  0.7767175E-008  0.8212467E+03  0.7818608E-02  0.9666610E-01
          1   -1    0    0  501    0  0.00000000000E+00  0.00000000000E+00  0.76258852086E+03  0.76258852087E+03  0.50400000000E-02 0. -1.
         -1   -1    0    0    0  501 -0.00000000000E+00 -0.00000000000E+00 -0.13551336428E+04  0.13551336429E+04  0.50400000000E-02 0.  1.
    8880023    1    1    2    0    0  0.23809795382E+03 -0.42888854132E+03 -0.11150845009E+04  0.13848681045E+04  0.65864270000E+03 0.  0.
    8880022    1    1    2    0    0 -0.23809795382E+03  0.42888854132E+03  0.52253937895E+03  0.73285405918E+03  0.15294330000E+03 0.  0.
<mgrwt>
<rscale>  0 0.73040112E+03</rscale>
<asrwt>0</asrwt>
<pdfrwt beam="1">  1        1 0.11732131E+00 0.82124675E+03</pdfrwt>
<pdfrwt beam="2">  1       -1 0.20848210E+00 0.82124675E+03</pdfrwt>
<totfact> 0.32307763E+00</totfact>
</mgrwt>
</event>
<event>
 4    5  0.7767175E-008  0.1085531E+04  0.7818608E-02  0.9277339E-01
          1   -1    0    0  501    0  0.00000000000E+00  0.00000000000E+00  0.22090406298E+04  0.22090406298E+04  0.50400000000E-02 0. -1.
         -1   -1    0    0    0  501 -0.00000000000E+00 -0.00000000000E+00 -0.44586812396E+03  0.44586812399E+03  0.50400000000E-02 0.  1.
    8880023    1    1    2    0    0  0.41678456995E+03 -0.75555193518E+03  0.77296595961E+03  0.13326119786E+04  0.65864270000E+03 0. -1.
    8880022    1    1    2    0    0 -0.41678456995E+03  0.75555193518E+03  0.99020654622E+03  0.13222967752E+04  0.15294330000E+03 0.  1.
<mgrwt>
<rscale>  0 0.10289614E+04</rscale>
<asrwt>0</asrwt>
<pdfrwt beam="1">  1        1 0.33985240E+00 0.10855313E+04</pdfrwt>
<pdfrwt beam="2">  1       -1 0.68595096E-01 0.10855313E+04</pdfrwt>
<totfact> 0.46356848E+00</totfact>
</mgrwt>
</event>
<event>
 4    5  0.7767175E-008  0.9675199E+03  0.7818608E-02  0.9425343E-01
         -1   -1    0    0    0  501 -0.00000000000E+00  0.00000000000E+00  0.37594085739E+03  0.37594085742E+03  0.50400000000E-02 0.  1.
          1   -1    0    0  501    0  0.00000000000E+00 -0.00000000000E+00 -0.21000500471E+04  0.21000500471E+04  0.50400000000E-02 0. -1.
    8880023    1    1    2    0    0  0.56167290652E+03 -0.43221295470E+03 -0.60037340303E+03  0.11386583866E+04  0.65864270000E+03 0.  1.
    8880022    1    1    2    0    0 -0.56167290652E+03  0.43221295470E+03 -0.11237357867E+04  0.13373325179E+04  0.15294330000E+03 0.  0.
<mgrwt>
<rscale>  0 0.90019108E+03</rscale>
<asrwt>0</asrwt>
<pdfrwt beam="1">  1        1 0.32308462E+00 0.96751987E+03</pdfrwt>
<pdfrwt beam="2">  1       -1 0.57837056E-01 0.96751987E+03</pdfrwt>
<totfact> 0.78456478E+00</totfact>
</mgrwt>
</event>
<event>
 4    5  0.7767175E-008  0.1774745E+04  0.7818608E-02  0.8736636E-01
         -1   -1    0    0    0  501 -0.00000000000E+00  0.00000000000E+00  0.21553459995E+04  0.21553459996E+04  0.50400000000E-02 0.  1.
          1   -1    0    0  501    0  0.00000000000E+00 -0.00000000000E+00 -0.20525808857E+04  0.20525808857E+04  0.50400000000E-02 0. -1.
    8880023    1    1    2    0    0 -0.54970527222E+03  0.15536199358E+04  0.12702664602E+04  0.21824980818E+04  0.65864270000E+03 0.  0.
    8880022    1    1    2    0    0  0.54970527222E+03 -0.15536199358E+04 -0.11675013464E+04  0.20254288035E+04  0.15294330000E+03 0.  0.
<mgrwt>
<rscale>  0 0.17440424E+04</rscale>
<asrwt>0</asrwt>
<pdfrwt beam="1">  1        1 0.31578167E+00 0.17747453E+04</pdfrwt>
<pdfrwt beam="2">  1       -1 0.33159169E+00 0.17747453E+04</pdfrwt>
<totfact> 0.51433855E-02</totfact>
</mgrwt>
</event>
<event>
 4    5  0.7767175E-008  0.1520278E+04  0.7818608E-02  0.8895448E-01
         -1   -1    0    0    0  501 -0.00000000000E+00  0.00000000000E+00  0.91308777758E+03  0.91308777760E+03  0.50400000000E-02 0.  1.
          1   -1    0    0  501    0  0.00000000000E+00 -0.00000000000E+00 -0.36492171006E+04  0.36492171006E+04  0.50400000000E-02 0. -1.
    8880023    1    1    2    0    0  0.95821951691E+03 -0.97941366699E+03 -0.24694569535E+02  0.15204788067E+04  0.65864270000E+03 0.  0.
    8880022    1    1    2    0    0 -0.95821951691E+03  0.97941366699E+03 -0.27114347535E+04  0.30418260714E+04  0.15294330000E+03 0.  0.
<mgrwt>
<rscale>  0 0.14835772E+04</rscale>
<asrwt>0</asrwt>
<pdfrwt beam="1">  1        1 0.56141801E+00 0.15202783E+04</pdfrwt>
<pdfrwt beam="2">  1       -1 0.14047504E+00 0.15202783E+04</pdfrwt>
<totfact> 0.75403944E-02</totfact>
</mgrwt>
</event>
<event>
 4    5  0.7767175E-008  0.8106673E+03  0.7818608E-02  0.9688189E-01
         -1   -1    0    0    0  501 -0.00000000000E+00  0.00000000000E+00  0.45894993168E+03  0.45894993171E+03  0.50400000000E-02 0.  1.
          1   -1    0    0  501    0  0.00000000000E+00 -0.00000000000E+00 -0.20465905175E+04  0.20465905175E+04  0.50400000000E-02 0. -1.
    8880023    1    1    2    0    0 -0.45684718266E+03  0.12108641729E+03  0.32135407300E+02  0.81130398706E+03  0.65864270000E+03 0.  1.
    8880022    1    1    2    0    0  0.45684718266E+03 -0.12108641729E+03 -0.16197759931E+04  0.16942364621E+04  0.15294330000E+03 0.  0.
<mgrwt>
<rscale>  0 0.71724409E+03</rscale>
<asrwt>0</asrwt>
<pdfrwt beam="1">  1        1 0.31486007E+00 0.81066730E+03</pdfrwt>
<pdfrwt beam="2">  1       -1 0.70607683E-01 0.81066730E+03</pdfrwt>
<totfact> 0.58367449E+00</totfact>
</mgrwt>
</event>
<event>
 4    5  0.7767175E-008  0.1228466E+04  0.7818608E-02  0.9129936E-01
         -1   -1    0    0    0  501 -0.00000000000E+00  0.00000000000E+00  0.15665956924E+04  0.15665956925E+04  0.50400000000E-02 0.  1.
          1   -1    0    0  501    0  0.00000000000E+00 -0.00000000000E+00 -0.16308377771E+04  0.16308377771E+04  0.50400000000E-02 0. -1.
    8880023    1    1    2    0    0  0.11570057551E+03 -0.10305006447E+04  0.10871119667E+04  0.16404087406E+04  0.65864270000E+03 0.  0.
    8880022    1    1    2    0    0 -0.11570057551E+03  0.10305006447E+04 -0.11513540514E+04  0.15570247289E+04  0.15294330000E+03 0.  0.
<mgrwt>
<rscale>  0 0.11806813E+04</rscale>
<asrwt>0</asrwt>
<pdfrwt beam="1">  1        1 0.25089812E+00 0.12284659E+04</pdfrwt>
<pdfrwt beam="2">  1       -1 0.24101472E+00 0.12284659E+04</pdfrwt>
<totfact> 0.41455826E-01</totfact>
</mgrwt>
</event>
<event>
 4    5  0.7767175E-008  0.8486826E+03  0.7818608E-02  0.9614021E-01
          1   -1    0    0  501    0  0.00000000000E+00  0.00000000000E+00  0.60846109284E+03  0.60846109286E+03  0.50400000000E-02 0. -1.
         -1   -1    0    0    0  501 -0.00000000000E+00 -0.00000000000E+00 -0.11777632433E+04  0.11777632433E+04  0.50400000000E-02 0.  1.
    8880023    1    1    2    0    0 -0.25135345469E+01  0.53520608323E+03 -0.81603191080E+03  0.11773572759E+04  0.65864270000E+03 0.  0.
    8880022    1    1    2    0    0  0.25135345469E+01 -0.53520608323E+03  0.24672976037E+03  0.60886706024E+03  0.15294330000E+03 0.  0.
<mgrwt>
<rscale>  0 0.76375094E+03</rscale>
<asrwt>0</asrwt>
<pdfrwt beam="1">  1        1 0.93609398E-01 0.84868255E+03</pdfrwt>
<pdfrwt beam="2">  1       -1 0.18119435E+00 0.84868255E+03</pdfrwt>
<totfact> 0.69859434E+00</totfact>
</mgrwt>
</event>
<event>
 4    5  0.7767175E-008  0.9637028E+03  0.7818608E-02  0.9430667E-01
          1   -1    0    0  501    0  0.00000000000E+00  0.00000000000E+00  0.97877010934E+03  0.97877010935E+03  0.50400000000E-02 0. -1.
         -1   -1    0    0    0  501 -0.00000000000E+00 -0.00000000000E+00 -0.80004567584E+03  0.80004567586E+03  0.50400000000E-02 0.  1.
    8880023    1    1    2    0    0 -0.48834329275E+03 -0.50639279665E+03 -0.17047181148E+03  0.97866423295E+03  0.65864270000E+03 0.  0.
    8880022    1    1    2    0    0  0.48834329275E+03  0.50639279665E+03  0.34919624498E+03  0.80015155227E+03  0.15294330000E+03 0.  0.
<mgrwt>
<rscale>  0 0.89594315E+03</rscale>
<asrwt>0</asrwt>
<pdfrwt beam="1">  1        1 0.15058002E+00 0.96370278E+03</pdfrwt>
<pdfrwt beam="2">  1       -1 0.12308395E+00 0.96370278E+03</pdfrwt>
<totfact> 0.92013412E+00</totfact>
</mgrwt>
</event>
<event>
 4    5  0.7767175E-008  0.6774479E+03  0.7818608E-02  0.1010806E+00
         -1   -1    0    0    0  501 -0.00000000000E+00  0.00000000000E+00  0.37418948143E+03  0.37418948147E+03  0.50400000000E-02 0.  1.
          1   -1    0    0  501    0  0.00000000000E+00 -0.00000000000E+00 -0.12030547982E+04  0.12030547982E+04  0.50400000000E-02 0. -1.
    8880023    1    1    2    0    0 -0.34647914817E+02  0.15467697617E+03  0.42200175298E+02  0.67876100803E+03  0.65864270000E+03 0.  1.
    8880022    1    1    2    0    0  0.34647914817E+02 -0.15467697617E+03 -0.87106549209E+03  0.89848327168E+03  0.15294330000E+03 0.  0.
<mgrwt>
<rscale>  0 0.51155670E+03</rscale>
<asrwt>0</asrwt>
<pdfrwt beam="1">  1        1 0.18508535E+00 0.67744790E+03</pdfrwt>
<pdfrwt beam="2">  1       -1 0.57567613E-01 0.67744790E+03</pdfrwt>
<totfact> 0.33696491E+01</totfact>
</mgrwt>
</event>
<event>
 4    5  0.7767175E-008  0.8676235E+03  0.7818608E-02  0.9580144E-01
         -1   -1    0    0    0  501 -0.00000000000E+00  0.00000000000E+00  0.11047352037E+04  0.11047352037E+04  0.50400000000E-02 0.  1.
          1   -1    0    0  501    0  0.00000000000E+00 -0.00000000000E+00 -0.84807625424E+03  0.84807625425E+03  0.50400000000E-02 0. -1.
    8880023    1    1    2    0    0  0.13675026452E+03  0.54795954975E+03  0.78083189385E+03  0.11672484550E+04  0.65864270000E+03 0.  1.
    8880022    1    1    2    0    0 -0.13675026452E+03 -0.54795954975E+03 -0.52417294437E+03  0.78556300297E+03  0.15294330000E+03 0.  0.
<mgrwt>
<rscale>  0 0.78624442E+03</rscale>
<asrwt>0</asrwt>
<pdfrwt beam="1">  1        1 0.13047327E+00 0.86762348E+03</pdfrwt>
<pdfrwt beam="2">  1       -1 0.16995926E+00 0.86762348E+03</pdfrwt>
<totfact> 0.50431392E+00</totfact>
</mgrwt>
</event>
<event>
 4    5  0.7767175E-008  0.1424276E+04  0.7818608E-02  0.8965046E-01
         -1   -1    0    0    0  501 -0.00000000000E+00  0.00000000000E+00  0.11110217816E+04  0.11110217816E+04  0.50400000000E-02 0.  1.
          1   -1    0    0  501    0  0.00000000000E+00 -0.00000000000E+00 -0.27503427782E+04  0.27503427782E+04  0.50400000000E-02 0. -1.
    8880023    1    1    2    0    0 -0.18790843104E+03 -0.12487759474E+04 -0.20749826445E+04  0.25167666015E+04  0.65864270000E+03 0. -1.
    8880022    1    1    2    0    0  0.18790843104E+03  0.12487759474E+04  0.43566164783E+03  0.13445979584E+04  0.15294330000E+03 0.  0.
<mgrwt>
<rscale>  0 0.13845946E+04</rscale>
<asrwt>0</asrwt>
<pdfrwt beam="1">  1        1 0.42312965E+00 0.14242757E+04</pdfrwt>
<pdfrwt beam="2">  1       -1 0.17092643E+00 0.14242757E+04</pdfrwt>
<totfact> 0.20974542E-01</totfact>
</mgrwt>
</event>
<event>
 4    5  0.7767175E-008  0.1376376E+04  0.7818608E-02  0.9002260E-01
          1   -1    0    0  501    0  0.00000000000E+00  0.00000000000E+00  0.71550530687E+03  0.71550530689E+03  0.50400000000E-02 0. -1.
         -1   -1    0    0    0  501 -0.00000000000E+00 -0.00000000000E+00 -0.32862982020E+04  0.32862982020E+04  0.50400000000E-02 0.  1.
    8880023    1    1    2    0    0 -0.10381479459E+04  0.61874861582E+03 -0.24068827737E+04  0.27726333872E+04  0.65864270000E+03 0.  0.
    8880022    1    1    2    0    0  0.10381479459E+04 -0.61874861582E+03 -0.16391012145E+03  0.12291701217E+04  0.15294330000E+03 0.  0.
<mgrwt>
<rscale>  0 0.13350017E+04</rscale>
<asrwt>0</asrwt>
<pdfrwt beam="1">  1        1 0.11007774E+00 0.13763761E+04</pdfrwt>
<pdfrwt beam="2">  1       -1 0.50558433E+00 0.13763761E+04</pdfrwt>
<totfact> 0.34799733E-02</totfact>
</mgrwt>
</event>
<event>
 4    5  0.7767175E-008  0.8136999E+03  0.7818608E-02  0.9681921E-01
         -1   -1    0    0    0  501 -0.00000000000E+00  0.00000000000E+00  0.20223511131E+04  0.20223511131E+04  0.50400000000E-02 0.  1.
          1   -1    0    0  501    0  0.00000000000E+00 -0.00000000000E+00 -0.62243685652E+03  0.62243685654E+03  0.50400000000E-02 0. -1.
    8880023    1    1    2    0    0  0.43682696617E+03 -0.19359649424E+03  0.18179606684E+04  0.19917551554E+04  0.65864270000E+03 0.  0.
    8880022    1    1    2    0    0 -0.43682696617E+03  0.19359649424E+03 -0.41804641185E+03  0.65303281420E+03  0.15294330000E+03 0.  0.
<mgrwt>
<rscale>  0 0.72103485E+03</rscale>
<asrwt>0</asrwt>
<pdfrwt beam="1">  1        1 0.95759515E-01 0.81369995E+03</pdfrwt>
<pdfrwt beam="2">  1       -1 0.31113094E+00 0.81369995E+03</pdfrwt>
<totfact> 0.94922407E-01</totfact>
</mgrwt>
</event>
<event>
 4    5  0.7767175E-008  0.1000367E+04  0.7818608E-02  0.9381078E-01
         -1   -1    0    0    0  501 -0.00000000000E+00  0.00000000000E+00  0.93978453065E+03  0.93978453066E+03  0.50400000000E-02 0.  1.
          1   -1    0    0  501    0  0.00000000000E+00 -0.00000000000E+00 -0.25801760814E+04  0.25801760814E+04  0.50400000000E-02 0. -1.
    8880023    1    1    2    0    0  0.75243557095E+03  0.27654869874E+02  0.58969047901E+03  0.11612360430E+04  0.65864270000E+03 0.  1.
    8880022    1    1    2    0    0 -0.75243557095E+03 -0.27654869874E+02 -0.22300820298E+04  0.23587245691E+04  0.15294330000E+03 0.  0.
<mgrwt>
<rscale>  0 0.93649419E+03</rscale>
<asrwt>0</asrwt>
<pdfrwt beam="1">  1        1 0.39695016E+00 0.10003671E+04</pdfrwt>
<pdfrwt beam="2">  1       -1 0.14458224E+00 0.10003671E+04</pdfrwt>
<totfact> 0.46773753E-01</totfact>
</mgrwt>
</event>
<event>
 4    5  0.7767175E-008  0.9614210E+03  0.7818608E-02  0.9433869E-01
          1   -1    0    0  501    0  0.00000000000E+00  0.00000000000E+00  0.80656110312E+03  0.80656110313E+03  0.50400000000E-02 0. -1.
         -1   -1    0    0    0  501 -0.00000000000E+00 -0.00000000000E+00 -0.12816493188E+04  0.12816493189E+04  0.50400000000E-02 0.  1.
    8880023    1    1    2    0    0  0.42613412311E+03 -0.55581456981E+03 -0.84637471524E+03  0.12808905073E+04  0.65864270000E+03 0.  1.
    8880022    1    1    2    0    0 -0.42613412311E+03  0.55581456981E+03  0.37128649951E+03  0.80731991467E+03  0.15294330000E+03 0.  0.
<mgrwt>
<rscale>  0 0.89340067E+03</rscale>
<asrwt>0</asrwt>
<pdfrwt beam="1">  1        1 0.12408632E+00 0.96142100E+03</pdfrwt>
<pdfrwt beam="2">  1       -1 0.19717682E+00 0.96142100E+03</pdfrwt>
<totfact> 0.34646173E+00</totfact>
</mgrwt>
</event>
<event>
 4    5  0.7767175E-008  0.8644856E+03  0.7818608E-02  0.9585634E-01
          1   -1    0    0  501    0  0.00000000000E+00  0.00000000000E+00  0.19443384020E+03  0.19443384026E+03  0.50400000000E-02 0. -1.
         -1   -1    0    0    0  501 -0.00000000000E+00 -0.00000000000E+00 -0.27935307615E+04  0.27935307615E+04  0.50400000000E-02 0.  1.
    8880023    1    1    2    0    0 -0.35248157373E+03  0.43506530297E+03 -0.18346663029E+04  0.20281360228E+04  0.65864270000E+03 0.  0.
    8880022    1    1    2    0    0  0.35248157373E+03 -0.43506530297E+03 -0.76443061838E+03  0.95982857896E+03  0.15294330000E+03 0.  0.
<mgrwt>
<rscale>  0 0.78254375E+03</rscale>
<asrwt>0</asrwt>
<pdfrwt beam="1">  1        1 0.29912901E-01 0.86448556E+03</pdfrwt>
<pdfrwt beam="2">  1       -1 0.42977393E+00 0.86448556E+03</pdfrwt>
<totfact> 0.72163937E-01</totfact>
</mgrwt>
</event>
<event>
 4    5  0.7767175E-008  0.8766530E+03  0.7818608E-02  0.9564601E-01
          1   -1    0    0  501    0  0.00000000000E+00  0.00000000000E+00  0.59320681579E+03  0.59320681581E+03  0.50400000000E-02 0. -1.
         -1   -1    0    0    0  501 -0.00000000000E+00 -0.00000000000E+00 -0.13468147409E+04  0.13468147410E+04  0.50400000000E-02 0.  1.
    8880023    1    1    2    0    0  0.17825345385E+03  0.55039615151E+03 -0.96650991129E+03  0.13048608479E+04  0.65864270000E+03 0.  1.
    8880022    1    1    2    0    0 -0.17825345385E+03 -0.55039615151E+03  0.21290198614E+03  0.63516070890E+03  0.15294330000E+03 0.  0.
<mgrwt>
<rscale>  0 0.79684088E+03</rscale>
<asrwt>0</asrwt>
<pdfrwt beam="1">  1        1 0.91262588E-01 0.87665297E+03</pdfrwt>
<pdfrwt beam="2">  1       -1 0.20720227E+00 0.87665297E+03</pdfrwt>
<totfact> 0.47662004E+00</totfact>
</mgrwt>
</event>
<event>
 4    5  0.7767175E-008  0.1005484E+04  0.7818608E-02  0.9374418E-01
         -1   -1    0    0    0  501 -0.00000000000E+00  0.00000000000E+00  0.39571139486E+03  0.39571139489E+03  0.50400000000E-02 0.  1.
          1   -1    0    0  501    0  0.00000000000E+00 -0.00000000000E+00 -0.23404525284E+04  0.23404525284E+04  0.50400000000E-02 0. -1.
    8880023    1    1    2    0    0 -0.47939219177E+03  0.58938106674E+03 -0.15960421963E+04  0.18863583472E+04  0.65864270000E+03 0. -1.
    8880022    1    1    2    0    0  0.47939219177E+03 -0.58938106674E+03 -0.34869893726E+03  0.84980557613E+03  0.15294330000E+03 0.  0.
<mgrwt>
<rscale>  0 0.94211181E+03</rscale>
<asrwt>0</asrwt>
<pdfrwt beam="1">  1        1 0.36006961E+00 0.10054835E+04</pdfrwt>
<pdfrwt beam="2">  1       -1 0.60878678E-01 0.10054835E+04</pdfrwt>
<totfact> 0.48514475E+00</totfact>
</mgrwt>
</event>
<event>
 4    5  0.7767175E-008  0.1146181E+04  0.7818608E-02  0.9211301E-01
          1   -1    0    0  501    0  0.00000000000E+00  0.00000000000E+00  0.88208856763E+03  0.88208856765E+03  0.50400000000E-02 0. -1.
         -1   -1    0    0    0  501 -0.00000000000E+00 -0.00000000000E+00 -0.15221096233E+04  0.15221096233E+04  0.50400000000E-02 0.  1.
    8880023    1    1    2    0    0  0.55488115283E+03  0.75632496294E+03 -0.85476940003E+03  0.14298116928E+04  0.65864270000E+03 0.  0.
    8880022    1    1    2    0    0 -0.55488115283E+03 -0.75632496294E+03  0.21474834439E+03  0.97438649814E+03  0.15294330000E+03 0.  0.
<mgrwt>
<rscale>  0 0.10937539E+04</rscale>
<asrwt>0</asrwt>
<pdfrwt beam="1">  1        1 0.13570593E+00 0.11461809E+04</pdfrwt>
<pdfrwt beam="2">  1       -1 0.23417071E+00 0.11461809E+04</pdfrwt>
<totfact> 0.16483794E+00</totfact>
</mgrwt>
</event>
<event>
 4    5  0.7767175E-008  0.8779772E+03  0.7818608E-02  0.9562352E-01
         -1   -1    0    0    0  501 -0.00000000000E+00  0.00000000000E+00  0.63549976778E+03  0.63549976780E+03  0.50400000000E-02 0.  1.
          1   -1    0    0  501    0  0.00000000000E+00 -0.00000000000E+00 -0.13429890451E+04  0.13429890451E+04  0.50400000000E-02 0. -1.
    8880023    1    1    2    0    0 -0.12226323860E+03  0.56752572554E+03  0.19039693000E+03  0.89838463137E+03  0.65864270000E+03 0.  1.
    8880022    1    1    2    0    0  0.12226323860E+03 -0.56752572554E+03 -0.89788620736E+03  0.10801041816E+04  0.15294330000E+03 0.  0.
<mgrwt>
<rscale>  0 0.79838864E+03</rscale>
<asrwt>0</asrwt>
<pdfrwt beam="1">  1        1 0.20661370E+00 0.87797719E+03</pdfrwt>
<pdfrwt beam="2">  1       -1 0.97769196E-01 0.87797719E+03</pdfrwt>
<totfact> 0.86185361E+00</totfact>
</mgrwt>
</event>
<event>
 4    5  0.7767175E-008  0.6644450E+03  0.7818608E-02  0.1020004E+00
         -1   -1    0    0    0  501 -0.00000000000E+00  0.00000000000E+00  0.87803111112E+03  0.87803111113E+03  0.50400000000E-02 0.  1.
          1   -1    0    0  501    0  0.00000000000E+00 -0.00000000000E+00 -0.20228917508E+03  0.20228917514E+03  0.50400000000E-02 0. -1.
    8880023    1    1    2    0    0 -0.92662592573E+01 -0.87126859854E+02  0.56472077648E+03  0.87200729063E+03  0.65864270000E+03 0.  1.
    8880022    1    1    2    0    0  0.92662592573E+01  0.87126859854E+02  0.11102115956E+03  0.20831299564E+03  0.15294330000E+03 0. -1.
<mgrwt>
<rscale>  0 0.47685298E+03</rscale>
<asrwt>0</asrwt>
<pdfrwt beam="1">  1        1 0.31121411E-01 0.66444500E+03</pdfrwt>
<pdfrwt beam="2">  1       -1 0.13508171E+00 0.66444500E+03</pdfrwt>
<totfact> 0.69018001E+01</totfact>
</mgrwt>
</event>
<event>
 4    5  0.7767175E-008  0.7930898E+03  0.7818608E-02  0.9725941E-01
          1   -1    0    0  501    0  0.00000000000E+00  0.00000000000E+00  0.21755054902E+04  0.21755054902E+04  0.50400000000E-02 0. -1.
         -1   -1    0    0    0  501 -0.00000000000E+00 -0.00000000000E+00 -0.58668192557E+03  0.58668192559E+03  0.50400000000E-02 0.  1.
    8880023    1    1    2    0    0  0.43464733969E+03  0.79138999193E+02 -0.27593080762E+03  0.83971977942E+03  0.65864270000E+03 0.  0.
    8880022    1    1    2    0    0 -0.43464733969E+03 -0.79138999193E+02  0.18647543722E+04  0.19224676364E+04  0.15294330000E+03 0. -1.
<mgrwt>
<rscale>  0 0.69493045E+03</rscale>
<asrwt>0</asrwt>
<pdfrwt beam="1">  1        1 0.33469314E+00 0.79308984E+03</pdfrwt>
<pdfrwt beam="2">  1       -1 0.90258760E-01 0.79308984E+03</pdfrwt>
<totfact> 0.28465606E+00</totfact>
</mgrwt>
</event>
<event>
 4    5  0.7767175E-008  0.6889812E+03  0.7818608E-02  0.1004641E+00
          1   -1    0    0  501    0  0.00000000000E+00  0.00000000000E+00  0.94047557821E+03  0.94047557822E+03  0.50400000000E-02 0. -1.
         -1   -1    0    0    0  501 -0.00000000000E+00 -0.00000000000E+00 -0.41197342042E+03  0.41197342045E+03  0.50400000000E-02 0.  1.
    8880023    1    1    2    0    0 -0.57501329600E+02  0.19385179632E+03 -0.79647077124E+02  0.69356959636E+03  0.65864270000E+03 0.  1.
    8880022    1    1    2    0    0  0.57501329600E+02 -0.19385179632E+03  0.60814923491E+03  0.65887940230E+03  0.15294330000E+03 0.  0.
<mgrwt>
<rscale>  0 0.53661416E+03</rscale>
<asrwt>0</asrwt>
<pdfrwt beam="1">  1        1 0.14468855E+00 0.68898122E+03</pdfrwt>
<pdfrwt beam="2">  1       -1 0.63380527E-01 0.68898122E+03</pdfrwt>
<totfact> 0.43912445E+01</totfact>
</mgrwt>
</event>
<event>
 4    5  0.7767175E-008  0.8955749E+03  0.7818608E-02  0.9533173E-01
         -1   -1    0    0    0  501 -0.00000000000E+00  0.00000000000E+00  0.61780071514E+03  0.61780071516E+03  0.50400000000E-02 0.  1.
          1   -1    0    0  501    0  0.00000000000E+00 -0.00000000000E+00 -0.10362325471E+04  0.10362325471E+04  0.50400000000E-02 0. -1.
    8880023    1    1    2    0    0 -0.44954069102E+03  0.40762404571E+03 -0.49547782272E+03  0.10235002074E+04  0.65864270000E+03 0. -1.
    8880022    1    1    2    0    0  0.44954069102E+03 -0.40762404571E+03  0.77045990782E+02  0.63053305483E+03  0.15294330000E+03 0.  0.
<mgrwt>
<rscale>  0 0.81881679E+03</rscale>
<asrwt>0</asrwt>
<pdfrwt beam="1">  1        1 0.15942039E+00 0.89557490E+03</pdfrwt>
<pdfrwt beam="2">  1       -1 0.95046264E-01 0.89557490E+03</pdfrwt>
<totfact> 0.15370927E+01</totfact>
</mgrwt>
</event>
<event>
 4    5  0.7767175E-008  0.9245155E+03  0.7818608E-02  0.9487770E-01
          1   -1    0    0  501    0  0.00000000000E+00  0.00000000000E+00  0.18962044375E+04  0.18962044375E+04  0.50400000000E-02 0. -1.
         -1   -1    0    0    0  501 -0.00000000000E+00 -0.00000000000E+00 -0.70614084665E+03  0.70614084667E+03  0.50400000000E-02 0.  1.
    8880023    1    1    2    0    0  0.51574701171E+03 -0.39360349278E+03 -0.29837250855E+03  0.97147056041E+03  0.65864270000E+03 0.  1.
    8880022    1    1    2    0    0 -0.51574701171E+03  0.39360349278E+03  0.14884360994E+04  0.16308747238E+04  0.15294330000E+03 0.  0.
<mgrwt>
<rscale>  0 0.85191536E+03</rscale>
<asrwt>0</asrwt>
<pdfrwt beam="1">  1        1 0.29172375E+00 0.92451549E+03</pdfrwt>
<pdfrwt beam="2">  1       -1 0.10863706E+00 0.92451549E+03</pdfrwt>
<totfact> 0.28119557E+00</totfact>
</mgrwt>
</event>
<event>
 4    5  0.7767175E-008  0.1027017E+04  0.7818608E-02  0.9347034E-01
         -1   -1    0    0    0  501 -0.00000000000E+00  0.00000000000E+00  0.11283286730E+04  0.11283286730E+04  0.50400000000E-02 0.  1.
          1   -1    0    0  501    0  0.00000000000E+00 -0.00000000000E+00 -0.12020551154E+04  0.12020551154E+04  0.50400000000E-02 0. -1.
    8880023    1    1    2    0    0 -0.61503506370E+03 -0.49263185954E+03  0.67800786268E+03  0.12306336363E+04  0.65864270000E+03 0.  1.
    8880022    1    1    2    0    0  0.61503506370E+03  0.49263185954E+03 -0.75173430508E+03  0.10997501521E+04  0.15294330000E+03 0.  0.
<mgrwt>
<rscale>  0 0.96565768E+03</rscale>
<asrwt>0</asrwt>
<pdfrwt beam="1">  1        1 0.18493156E+00 0.10270173E+04</pdfrwt>
<pdfrwt beam="2">  1       -1 0.17358903E+00 0.10270173E+04</pdfrwt>
<totfact> 0.24674562E+00</totfact>
</mgrwt>
</event>
<event>
 4    5  0.7767175E-008  0.6588436E+03  0.7818608E-02  0.1025374E+00
          1   -1    0    0  501    0  0.00000000000E+00  0.00000000000E+00  0.11515910057E+04  0.11515910057E+04  0.50400000000E-02 0. -1.
         -1   -1    0    0    0  501 -0.00000000000E+00 -0.00000000000E+00 -0.33070762745E+03  0.33070762749E+03  0.50400000000E-02 0.  1.
    8880023    1    1    2    0    0  0.12853707647E+02  0.99741313446E+01  0.12031779157E+02  0.65895346654E+03  0.65864270000E+03 0.  1.
    8880022    1    1    2    0    0 -0.12853707647E+02 -0.99741313446E+01  0.80885159912E+03  0.82334516669E+03  0.15294330000E+03 0.  0.
<mgrwt>
<rscale>  0 0.45796283E+03</rscale>
<asrwt>0</asrwt>
<pdfrwt beam="1">  1        1 0.17716785E+00 0.65884361E+03</pdfrwt>
<pdfrwt beam="2">  1       -1 0.50878096E-01 0.65884361E+03</pdfrwt>
<totfact> 0.46666501E+01</totfact>
</mgrwt>
</event>
<event>
 4    5  0.7767175E-008  0.6977703E+03  0.7818608E-02  0.1000658E+00
          1   -1    0    0  501    0  0.00000000000E+00  0.00000000000E+00  0.65688015538E+03  0.65688015540E+03  0.50400000000E-02 0. -1.
         -1   -1    0    0    0  501 -0.00000000000E+00 -0.00000000000E+00 -0.69017165742E+03  0.69017165744E+03  0.50400000000E-02 0.  1.
    8880023    1    1    2    0    0  0.29701038518E+02  0.22845350658E+03 -0.46203121457E+03  0.83687287317E+03  0.65864270000E+03 0.  1.
    8880022    1    1    2    0    0 -0.29701038518E+02 -0.22845350658E+03  0.42873971253E+03  0.51017893966E+03  0.15294330000E+03 0.  0.
<mgrwt>
<rscale>  0 0.55362673E+03</rscale>
<asrwt>0</asrwt>
<pdfrwt beam="1">  1        1 0.10105849E+00 0.69777028E+03</pdfrwt>
<pdfrwt beam="2">  1       -1 0.10618025E+00 0.69777028E+03</pdfrwt>
<totfact> 0.25647602E+01</totfact>
</mgrwt>
</event>
<event>
 4    5  0.7767175E-008  0.1293416E+04  0.7818608E-02  0.9071266E-01
          1   -1    0    0  501    0  0.00000000000E+00  0.00000000000E+00  0.16600183659E+04  0.16600183659E+04  0.50400000000E-02 0. -1.
         -1   -1    0    0    0  501 -0.00000000000E+00 -0.00000000000E+00 -0.17501541609E+04  0.17501541609E+04  0.50400000000E-02 0.  1.
    8880023    1    1    2    0    0 -0.78271706677E+03  0.79149836521E+03 -0.12475769558E+04  0.17970459470E+04  0.65864270000E+03 0.  0.
    8880022    1    1    2    0    0  0.78271706677E+03 -0.79149836521E+03  0.11574411608E+04  0.16131265798E+04  0.15294330000E+03 0.  0.
<mgrwt>
<rscale>  0 0.12486997E+04</rscale>
<asrwt>0</asrwt>
<pdfrwt beam="1">  1        1 0.25538744E+00 0.12934164E+04</pdfrwt>
<pdfrwt beam="2">  1       -1 0.26925449E+00 0.12934164E+04</pdfrwt>
<totfact> 0.25705780E-01</totfact>
</mgrwt>
</event>
<event>
 4    5  0.7767175E-008  0.7747837E+03  0.7818608E-02  0.9768236E-01
         -1   -1    0    0    0  501 -0.00000000000E+00  0.00000000000E+00  0.59706583955E+03  0.59706583957E+03  0.50400000000E-02 0.  1.
          1   -1    0    0  501    0  0.00000000000E+00 -0.00000000000E+00 -0.26366602917E+04  0.26366602917E+04  0.50400000000E-02 0. -1.
    8880023    1    1    2    0    0  0.35148296541E+03 -0.20721806507E+03  0.31704392556E+03  0.83714195837E+03  0.65864270000E+03 0.  1.
    8880022    1    1    2    0    0 -0.35148296541E+03  0.20721806507E+03 -0.23566383778E+04  0.23965841729E+04  0.15294330000E+03 0.  0.
<mgrwt>
<rscale>  0 0.67095403E+03</rscale>
<asrwt>0</asrwt>
<pdfrwt beam="1">  1        1 0.40564004E+00 0.77478372E+03</pdfrwt>
<pdfrwt beam="2">  1       -1 0.91856284E-01 0.77478372E+03</pdfrwt>
<totfact> 0.13351847E+00</totfact>
</mgrwt>
</event>
<event>
 4    5  0.7767175E-008  0.1456262E+04  0.7818608E-02  0.8941155E-01
          1   -1    0    0  501    0  0.00000000000E+00  0.00000000000E+00  0.51472171720E+04  0.51472171720E+04  0.50400000000E-02 0. -1.
         -1   -1    0    0    0  501 -0.00000000000E+00 -0.00000000000E+00 -0.50250815046E+03  0.50250815048E+03  0.50400000000E-02 0.  1.
    8880023    1    1    2    0    0 -0.11472527218E+04  0.60885036605E+03  0.97128943458E+03  0.17504573539E+04  0.65864270000E+03 0. -1.
    8880022    1    1    2    0    0  0.11472527218E+04 -0.60885036605E+03  0.36734195870E+04  0.38992679686E+04  0.15294330000E+03 0.  0.
<mgrwt>
<rscale>  0 0.14176301E+04</rscale>
<asrwt>0</asrwt>
<pdfrwt beam="1">  1        1 0.79187951E+00 0.14562616E+04</pdfrwt>
<pdfrwt beam="2">  1       -1 0.77308951E-01 0.14562616E+04</pdfrwt>
<totfact> 0.92936901E-03</totfact>
</mgrwt>
</event>
<event>
 4    5  0.7767175E-008  0.8680035E+03  0.7818608E-02  0.9579482E-01
          1   -1    0    0  501    0  0.00000000000E+00  0.00000000000E+00  0.22791919866E+04  0.22791919866E+04  0.50400000000E-02 0. -1.
         -1   -1    0    0    0  501 -0.00000000000E+00 -0.00000000000E+00 -0.74806562207E+03  0.74806562209E+03  0.50400000000E-02 0.  1.
    8880023    1    1    2    0    0 -0.42425996520E+02  0.56375514947E+03 -0.43844513460E+03  0.97245266006E+03  0.65864270000E+03 0.  0.
    8880022    1    1    2    0    0  0.42425996520E+02 -0.56375514947E+03  0.19695714991E+04  0.20548049486E+04  0.15294330000E+03 0.  0.
<mgrwt>
<rscale>  0 0.78669191E+03</rscale>
<asrwt>0</asrwt>
<pdfrwt beam="1">  1        1 0.35064491E+00 0.86800348E+03</pdfrwt>
<pdfrwt beam="2">  1       -1 0.11508702E+00 0.86800348E+03</pdfrwt>
<totfact> 0.13670167E+00</totfact>
</mgrwt>
</event>
<event>
 4    5  0.7767175E-008  0.1159471E+04  0.7818608E-02  0.9197563E-01
          1   -1    0    0  501    0  0.00000000000E+00  0.00000000000E+00  0.19179415116E+04  0.19179415116E+04  0.50400000000E-02 0. -1.
         -1   -1    0    0    0  501 -0.00000000000E+00 -0.00000000000E+00 -0.12925942482E+04  0.12925942483E+04  0.50400000000E-02 0.  1.
    8880023    1    1    2    0    0 -0.92192195212E+03 -0.24621759876E+03 -0.85642263853E+03  0.14414690887E+04  0.65864270000E+03 0.  0.
    8880022    1    1    2    0    0  0.92192195212E+03  0.24621759876E+03  0.14817699019E+04  0.17690666711E+04  0.15294330000E+03 0.  0.
<mgrwt>
<rscale>  0 0.11078621E+04</rscale>
<asrwt>0</asrwt>
<pdfrwt beam="1">  1        1 0.29506792E+00 0.11594712E+04</pdfrwt>
<pdfrwt beam="2">  1       -1 0.19886065E+00 0.11594712E+04</pdfrwt>
<totfact> 0.51239153E-01</totfact>
</mgrwt>
</event>
<event>
 4    5  0.7767175E-008  0.8691599E+03  0.7818608E-02  0.9577473E-01
          1   -1    0    0  501    0  0.00000000000E+00  0.00000000000E+00  0.18731468011E+04  0.18731468011E+04  0.50400000000E-02 0. -1.
         -1   -1    0    0    0  501 -0.00000000000E+00 -0.00000000000E+00 -0.60457346809E+03  0.60457346811E+03  0.50400000000E-02 0.  1.
    8880023    1    1    2    0    0 -0.55591952696E+03  0.11217053254E+03 -0.20360340349E+03  0.89268880412E+03  0.65864270000E+03 0.  1.
    8880022    1    1    2    0    0  0.55591952696E+03 -0.11217053254E+03  0.14721767365E+04  0.15850314651E+04  0.15294330000E+03 0.  0.
<mgrwt>
<rscale>  0 0.78805288E+03</rscale>
<asrwt>0</asrwt>
<pdfrwt beam="1">  1        1 0.28817643E+00 0.86915991E+03</pdfrwt>
<pdfrwt beam="2">  1       -1 0.93011304E-01 0.86915991E+03</pdfrwt>
<totfact> 0.41947340E+00</totfact>
</mgrwt>
</event>
<event>
 4    5  0.7767175E-008  0.6613504E+03  0.7818608E-02  0.1022814E+00
         -1   -1    0    0    0  501 -0.00000000000E+00  0.00000000000E+00  0.64495165820E+03  0.64495165822E+03  0.50400000000E-02 0.  1.
          1   -1    0    0  501    0  0.00000000000E+00 -0.00000000000E+00 -0.38009339168E+03  0.38009339171E+03  0.50400000000E-02 0. -1.
    8880023    1    1    2    0    0 -0.10415503820E+02 -0.58870106443E+02  0.43262712285E+03  0.79028514211E+03  0.65864270000E+03 0.  1.
    8880022    1    1    2    0    0  0.10415503820E+02  0.58870106443E+02 -0.16776885633E+03  0.23475990782E+03  0.15294330000E+03 0.  0.
<mgrwt>
<rscale>  0 0.46684793E+03</rscale>
<asrwt>0</asrwt>
<pdfrwt beam="1">  1        1 0.58475907E-01 0.66135042E+03</pdfrwt>
<pdfrwt beam="2">  1       -1 0.99223331E-01 0.66135042E+03</pdfrwt>
<totfact> 0.63966214E+01</totfact>
</mgrwt>
</event>
<event>
 4    5  0.7767175E-008  0.7848484E+03  0.7818608E-02  0.9744569E-01
         -1   -1    0    0    0  501 -0.00000000000E+00  0.00000000000E+00  0.54741608529E+03  0.54741608531E+03  0.50400000000E-02 0.  1.
          1   -1    0    0  501    0  0.00000000000E+00 -0.00000000000E+00 -0.21147078690E+04  0.21147078690E+04  0.50400000000E-02 0. -1.
    8880023    1    1    2    0    0 -0.36118654731E+03  0.22742284120E+03  0.22251551784E+03  0.81578197614E+03  0.65864270000E+03 0.  1.
    8880022    1    1    2    0    0  0.36118654731E+03 -0.22742284120E+03 -0.17898073015E+04  0.18463419782E+04  0.15294330000E+03 0.  0.
<mgrwt>
<rscale>  0 0.68424074E+03</rscale>
<asrwt>0</asrwt>
<pdfrwt beam="1">  1        1 0.32533967E+00 0.78484844E+03</pdfrwt>
<pdfrwt beam="2">  1       -1 0.84217860E-01 0.78484844E+03</pdfrwt>
<totfact> 0.36420519E+00</totfact>
</mgrwt>
</event>
<event>
 4    5  0.7767175E-008  0.7887668E+03  0.7818608E-02  0.9735633E-01
          1   -1    0    0  501    0  0.00000000000E+00  0.00000000000E+00  0.11305098580E+04  0.11305098580E+04  0.50400000000E-02 0. -1.
         -1   -1    0    0    0  501 -0.00000000000E+00 -0.00000000000E+00 -0.48241694912E+03  0.48241694915E+03  0.50400000000E-02 0.  1.
    8880023    1    1    2    0    0 -0.16997561541E+03  0.39931328640E+03 -0.34729358538E+02  0.78953096528E+03  0.65864270000E+03 0.  1.
    8880022    1    1    2    0    0  0.16997561541E+03 -0.39931328640E+03  0.68282226743E+03  0.82339584189E+03  0.15294330000E+03 0.  0.
<mgrwt>
<rscale>  0 0.68934305E+03</rscale>
<asrwt>0</asrwt>
<pdfrwt beam="1">  1        1 0.17392459E+00 0.78876677E+03</pdfrwt>
<pdfrwt beam="2">  1       -1 0.74217993E-01 0.78876677E+03</pdfrwt>
<totfact> 0.22532281E+01</totfact>
</mgrwt>
</event>
<event>
 4    5  0.7767175E-008  0.6955072E+03  0.7818608E-02  0.1001638E+00
          1   -1    0    0  501    0  0.00000000000E+00  0.00000000000E+00  0.16417794729E+03  0.16417794737E+03  0.50400000000E-02 0. -1.
         -1   -1    0    0    0  501 -0.00000000000E+00 -0.00000000000E+00 -0.16284266783E+04  0.16284266783E+04  0.50400000000E-02 0.  1.
    8880023    1    1    2    0    0 -0.10506713615E+03 -0.19718255478E+03 -0.13042409202E+04  0.14780983213E+04  0.65864270000E+03 0.  1.
    8880022    1    1    2    0    0  0.10506713615E+03  0.19718255478E+03 -0.16000781080E+03  0.31450630445E+03  0.15294330000E+03 0.  0.
<mgrwt>
<rscale>  0 0.54938007E+03</rscale>
<asrwt>0</asrwt>
<pdfrwt beam="1">  1        1 0.25258147E-01 0.69550720E+03</pdfrwt>
<pdfrwt beam="2">  1       -1 0.25052717E+00 0.69550720E+03</pdfrwt>
<totfact> 0.13852282E+01</totfact>
</mgrwt>
</event>
<event>
 4    5  0.7767175E-008  0.6744014E+03  0.7818608E-02  0.1012686E+00
         -1   -1    0    0    0  501 -0.00000000000E+00  0.00000000000E+00  0.26592820764E+03  0.26592820769E+03  0.50400000000E-02 0.  1.
          1   -1    0    0  501    0  0.00000000000E+00 -0.00000000000E+00 -0.10193162213E+04  0.10193162213E+04  0.50400000000E-02 0. -1.
    8880023    1    1    2    0    0 -0.64465444536E+01  0.14479455741E+03 -0.21619929380E+03  0.70820855876E+03  0.65864270000E+03 0.  0.
    8880022    1    1    2    0    0  0.64465444536E+01 -0.14479455741E+03 -0.53718871982E+03  0.57703587021E+03  0.15294330000E+03 0.  0.
<mgrwt>
<rscale>  0 0.50420842E+03</rscale>
<asrwt>0</asrwt>
<pdfrwt beam="1">  1        1 0.15681788E+00 0.67440138E+03</pdfrwt>
<pdfrwt beam="2">  1       -1 0.40912032E-01 0.67440138E+03</pdfrwt>
<totfact> 0.87731147E+01</totfact>
</mgrwt>
</event>
<event>
 4    5  0.7767175E-008  0.6899010E+03  0.7818608E-02  0.1004200E+00
         -1   -1    0    0    0  501 -0.00000000000E+00  0.00000000000E+00  0.75647364948E+03  0.75647364949E+03  0.50400000000E-02 0.  1.
          1   -1    0    0  501    0  0.00000000000E+00 -0.00000000000E+00 -0.17291066721E+04  0.17291066721E+04  0.50400000000E-02 0. -1.
    8880023    1    1    2    0    0  0.59053267957E+02  0.19663636245E+03  0.58653609729E+03  0.90553185874E+03  0.65864270000E+03 0.  1.
    8880022    1    1    2    0    0 -0.59053267957E+02 -0.19663636245E+03 -0.15591691199E+04  0.15800484628E+04  0.15294330000E+03 0.  0.
<mgrwt>
<rscale>  0 0.53846484E+03</rscale>
<asrwt>0</asrwt>
<pdfrwt beam="1">  1        1 0.26601641E+00 0.68990097E+03</pdfrwt>
<pdfrwt beam="2">  1       -1 0.11638056E+00 0.68990097E+03</pdfrwt>
<totfact> 0.32179099E+00</totfact>
</mgrwt>
</event>
<event>
 4    5  0.7767175E-008  0.6607149E+03  0.7818608E-02  0.1023436E+00
         -1   -1    0    0    0  501 -0.00000000000E+00  0.00000000000E+00  0.93685715089E+02  0.93685715225E+02  0.50400000000E-02 0.  1.
          1   -1    0    0  501    0  0.00000000000E+00 -0.00000000000E+00 -0.19905050637E+04  0.19905050637E+04  0.50400000000E-02 0. -1.
    8880023    1    1    2    0    0  0.51331603199E+02 -0.99534613431E+01 -0.12103147862E+04  0.13789148244E+04  0.65864270000E+03 0.  1.
    8880022    1    1    2    0    0 -0.51331603199E+02  0.99534613431E+01 -0.68650456239E+03  0.70527595456E+03  0.15294330000E+03 0.  0.
<mgrwt>
<rscale>  0 0.46466931E+03</rscale>
<asrwt>0</asrwt>
<pdfrwt beam="1">  1        1 0.30623152E+00 0.66071492E+03</pdfrwt>
<pdfrwt beam="2">  1       -1 0.14413188E-01 0.66071492E+03</pdfrwt>
<totfact> 0.11035308E+02</totfact>
</mgrwt>
</event>
<event>
 4    5  0.7767175E-008  0.8437075E+03  0.7818608E-02  0.9623229E-01
         -1   -1    0    0    0  501 -0.00000000000E+00  0.00000000000E+00  0.10114458956E+04  0.10114458957E+04  0.50400000000E-02 0.  1.
          1   -1    0    0  501    0  0.00000000000E+00 -0.00000000000E+00 -0.73101694404E+03  0.73101694406E+03  0.50400000000E-02 0. -1.
    8880023    1    1    2    0    0  0.23033998390E+03  0.47431603139E+03  0.66321638379E+03  0.10731721129E+04  0.65864270000E+03 0.  1.
    8880022    1    1    2    0    0 -0.23033998390E+03 -0.47431603139E+03 -0.38278743218E+03  0.66929072687E+03  0.15294330000E+03 0.  0.
<mgrwt>
<rscale>  0 0.75777653E+03</rscale>
<asrwt>0</asrwt>
<pdfrwt beam="1">  1        1 0.11246415E+00 0.84370754E+03</pdfrwt>
<pdfrwt beam="2">  1       -1 0.15560706E+00 0.84370754E+03</pdfrwt>
<totfact> 0.82063621E+00</totfact>
</mgrwt>
</event>
<event>
 4    5  0.1456025E-007  0.8193557E+03  0.7818608E-02  0.9670409E-01
          1   -1    0    0  501    0  0.00000000000E+00  0.00000000000E+00  0.21491814336E+04  0.21491814336E+04  0.50400000000E-02 0. -1.
         -1   -1    0    0    0  501 -0.00000000000E+00 -0.00000000000E+00 -0.22392625440E+04  0.22392625440E+04  0.50400000000E-02 0.  1.
    8880023    1    1    2    0    0  0.41425732187E+03  0.25675755296E+03 -0.21317782825E+04  0.22838175106E+04  0.65864270000E+03 0.  1.
    8880022    1    1    2    0    0 -0.41425732187E+03 -0.25675755296E+03  0.20416971721E+04  0.21046264669E+04  0.15294330000E+03 0.  0.
<mgrwt>
<rscale>  0 0.72806285E+03</rscale>
<asrwt>0</asrwt>
<pdfrwt beam="1">  1        1 0.33064330E+00 0.81935571E+03</pdfrwt>
<pdfrwt beam="2">  1       -1 0.34450193E+00 0.81935571E+03</pdfrwt>
<totfact> 0.42948849E-02</totfact>
</mgrwt>
</event>
<event>
 4    5  0.7767175E-008  0.9139443E+03  0.7818608E-02  0.9504007E-01
          1   -1    0    0  501    0  0.00000000000E+00  0.00000000000E+00  0.21536023845E+04  0.21536023845E+04  0.50400000000E-02 0. -1.
         -1   -1    0    0    0  501 -0.00000000000E+00 -0.00000000000E+00 -0.46031149728E+03  0.46031149731E+03  0.50400000000E-02 0.  1.
    8880023    1    1    2    0    0 -0.86593381903E+01 -0.63356845142E+03  0.13380707176E+03  0.92368745011E+03  0.65864270000E+03 0.  0.
    8880022    1    1    2    0    0  0.86593381903E+01  0.63356845142E+03  0.15594838155E+04  0.16902264317E+04  0.15294330000E+03 0.  0.
<mgrwt>
<rscale>  0 0.83989021E+03</rscale>
<asrwt>0</asrwt>
<pdfrwt beam="1">  1        1 0.33132344E+00 0.91394429E+03</pdfrwt>
<pdfrwt beam="2">  1       -1 0.70817154E-01 0.91394429E+03</pdfrwt>
<totfact> 0.48405358E+00</totfact>
</mgrwt>
</event>
<event>
 4    5  0.7767175E-008  0.9491665E+03  0.7818608E-02  0.9451314E-01
          1   -1    0    0  501    0  0.00000000000E+00  0.00000000000E+00  0.15663204588E+04  0.15663204588E+04  0.50400000000E-02 0. -1.
         -1   -1    0    0    0  501 -0.00000000000E+00 -0.00000000000E+00 -0.76879038354E+03  0.76879038356E+03  0.50400000000E-02 0.  1.
    8880023    1    1    2    0    0 -0.62719071842E+03 -0.27154867459E+03 -0.33244032762E+03  0.10057005805E+04  0.65864270000E+03 0.  0.
    8880022    1    1    2    0    0  0.62719071842E+03  0.27154867459E+03  0.11299704029E+04  0.13294102618E+04  0.15294330000E+03 0.  0.
<mgrwt>
<rscale>  0 0.87970391E+03</rscale>
<asrwt>0</asrwt>
<pdfrwt beam="1">  1        1 0.24097238E+00 0.94916652E+03</pdfrwt>
<pdfrwt beam="2">  1       -1 0.11827545E+00 0.94916652E+03</pdfrwt>
<totfact> 0.38236930E+00</totfact>
</mgrwt>
</event>
<event>
 4    5  0.7767175E-008  0.7424978E+03  0.7818608E-02  0.9852730E-01
          1   -1    0    0  501    0  0.00000000000E+00  0.00000000000E+00  0.73440710702E+03  0.73440710704E+03  0.50400000000E-02 0. -1.
         -1   -1    0    0    0  501 -0.00000000000E+00 -0.00000000000E+00 -0.13559962677E+04  0.13559962678E+04  0.50400000000E-02 0.  1.
    8880023    1    1    2    0    0 -0.28681655437E+03  0.18769392688E+03 -0.11939216765E+04  0.14059701000E+04  0.65864270000E+03 0.  1.
    8880022    1    1    2    0    0  0.28681655437E+03 -0.18769392688E+03  0.57233251579E+03  0.68443327483E+03  0.15294330000E+03 0.  0.
<mgrwt>
<rscale>  0 0.62607914E+03</rscale>
<asrwt>0</asrwt>
<pdfrwt beam="1">  1        1 0.11298571E+00 0.74249778E+03</pdfrwt>
<pdfrwt beam="2">  1       -1 0.20861481E+00 0.74249778E+03</pdfrwt>
<totfact> 0.34596386E+00</totfact>
</mgrwt>
</event>
<event>
 4    5  0.7767175E-008  0.9601912E+03  0.7818608E-02  0.9435600E-01
         -1   -1    0    0    0  501 -0.00000000000E+00  0.00000000000E+00  0.12817172135E+04  0.12817172135E+04  0.50400000000E-02 0.  1.
          1   -1    0    0  501    0  0.00000000000E+00 -0.00000000000E+00 -0.64731187311E+03  0.64731187313E+03  0.50400000000E-02 0. -1.
    8880023    1    1    2    0    0 -0.55028138830E+03 -0.43051990379E+03 -0.18847880573E+02  0.96037619855E+03  0.65864270000E+03 0.  0.
    8880022    1    1    2    0    0  0.55028138830E+03  0.43051990379E+03  0.65325322095E+03  0.96865288807E+03  0.15294330000E+03 0.  0.
<mgrwt>
<rscale>  0 0.89202940E+03</rscale>
<asrwt>0</asrwt>
<pdfrwt beam="1">  1        1 0.99586443E-01 0.96019123E+03</pdfrwt>
<pdfrwt beam="2">  1       -1 0.19718726E+00 0.96019123E+03</pdfrwt>
<totfact> 0.48645634E+00</totfact>
</mgrwt>
</event>
<event>
 4    5  0.7767175E-008  0.6810371E+03  0.7818608E-02  0.1008743E+00
          1   -1    0    0  501    0  0.00000000000E+00  0.00000000000E+00  0.11385815665E+04  0.11385815665E+04  0.50400000000E-02 0. -1.
         -1   -1    0    0    0  501 -0.00000000000E+00 -0.00000000000E+00 -0.12671429875E+04  0.12671429876E+04  0.50400000000E-02 0.  1.
    8880023    1    1    2    0    0 -0.48956701498E+02  0.16614624349E+03 -0.11619453620E+04  0.13468216524E+04  0.65864270000E+03 0.  1.
    8880022    1    1    2    0    0  0.48956701498E+02 -0.16614624349E+03  0.10333839409E+04  0.10589029017E+04  0.15294330000E+03 0.  0.
<mgrwt>
<rscale>  0 0.51977287E+03</rscale>
<asrwt>0</asrwt>
<pdfrwt beam="1">  1        1 0.17516639E+00 0.68103711E+03</pdfrwt>
<pdfrwt beam="2">  1       -1 0.19494508E+00 0.68103711E+03</pdfrwt>
<totfact> 0.20483831E+00</totfact>
</mgrwt>
</event>
<event>
 4    5  0.7767175E-008  0.6868703E+03  0.7818608E-02  0.1005677E+00
         -1   -1    0    0    0  501 -0.00000000000E+00  0.00000000000E+00  0.79480619387E+02  0.79480619547E+02  0.50400000000E-02 0.  1.
          1   -1    0    0  501    0  0.00000000000E+00 -0.00000000000E+00 -0.38662228712E+04  0.38662228712E+04  0.50400000000E-02 0. -1.
    8880023    1    1    2    0    0  0.49580714965E+02 -0.18847362075E+03 -0.15511228029E+04  0.16963999260E+04  0.65864270000E+03 0. -1.
    8880022    1    1    2    0    0 -0.49580714965E+02  0.18847362075E+03 -0.22356194489E+04  0.22493035647E+04  0.15294330000E+03 0.  0.
<mgrwt>
<rscale>  0 0.53229514E+03</rscale>
<asrwt>0</asrwt>
<pdfrwt beam="1">  1        1 0.59480337E+00 0.68687026E+03</pdfrwt>
<pdfrwt beam="2">  1       -1 0.12227791E-01 0.68687026E+03</pdfrwt>
<totfact> 0.63312058E+00</totfact>
</mgrwt>
</event>
<event>
 4    5  0.7767175E-008  0.7443730E+03  0.7818608E-02  0.9847387E-01
          1   -1    0    0  501    0  0.00000000000E+00  0.00000000000E+00  0.57753344576E+03  0.57753344579E+03  0.50400000000E-02 0. -1.
         -1   -1    0    0    0  501 -0.00000000000E+00 -0.00000000000E+00 -0.80236652555E+03  0.80236652556E+03  0.50400000000E-02 0.  1.
    8880023    1    1    2    0    0  0.21554478726E+03  0.27170084621E+03 -0.51277138967E+03  0.90389468937E+03  0.65864270000E+03 0.  1.
    8880022    1    1    2    0    0 -0.21554478726E+03 -0.27170084621E+03  0.28793830989E+03  0.47600528197E+03  0.15294330000E+03 0.  0.
<mgrwt>
<rscale>  0 0.62880310E+03</rscale>
<asrwt>0</asrwt>
<pdfrwt beam="1">  1        1 0.88851299E-01 0.74437297E+03</pdfrwt>
<pdfrwt beam="2">  1       -1 0.12344100E+00 0.74437297E+03</pdfrwt>
<totfact> 0.21446467E+01</totfact>
</mgrwt>
</event>
<event>
 4    5  0.7767175E-008  0.7818631E+03  0.7818608E-02  0.9751479E-01
         -1   -1    0    0    0  501 -0.00000000000E+00  0.00000000000E+00  0.52119056305E+03  0.52119056307E+03  0.50400000000E-02 0.  1.
          1   -1    0    0  501    0  0.00000000000E+00 -0.00000000000E+00 -0.22913823312E+04  0.22913823312E+04  0.50400000000E-02 0. -1.
    8880023    1    1    2    0    0 -0.32855929464E+03 -0.26372047661E+03  0.18766307637E+03  0.80406923606E+03  0.65864270000E+03 0.  1.
    8880022    1    1    2    0    0  0.32855929464E+03  0.26372047661E+03 -0.19578548445E+04  0.20085036582E+04  0.15294330000E+03 0.  0.
<mgrwt>
<rscale>  0 0.68032776E+03</rscale>
<asrwt>0</asrwt>
<pdfrwt beam="1">  1        1 0.35252035E+00 0.78186310E+03</pdfrwt>
<pdfrwt beam="2">  1       -1 0.80183165E-01 0.78186310E+03</pdfrwt>
<totfact> 0.30792842E+00</totfact>
</mgrwt>
</event>
<event>
 4    5  0.7767175E-008  0.1106384E+04  0.7818608E-02  0.9253982E-01
         -1   -1    0    0    0  501 -0.00000000000E+00  0.00000000000E+00  0.29627681657E+03  0.29627681661E+03  0.50400000000E-02 0.  1.
          1   -1    0    0  501    0  0.00000000000E+00 -0.00000000000E+00 -0.37728679350E+04  0.37728679350E+04  0.50400000000E-02 0. -1.
    8880023    1    1    2    0    0 -0.18961708030E+03  0.86851583564E+03 -0.25313087527E+04  0.27625366245E+04  0.65864270000E+03 0.  1.
    8880022    1    1    2    0    0  0.18961708030E+03 -0.86851583564E+03 -0.94528236575E+03  0.13066081271E+04  0.15294330000E+03 0. -1.
<mgrwt>
<rscale>  0 0.10513203E+04</rscale>
<asrwt>0</asrwt>
<pdfrwt beam="1">  1        1 0.58044119E+00 0.11063836E+04</pdfrwt>
<pdfrwt beam="2">  1       -1 0.45581051E-01 0.11063836E+04</pdfrwt>
<totfact> 0.73865032E-01</totfact>
</mgrwt>
</event>
<event>
 4    5  0.7767175E-008  0.7011368E+03  0.7818608E-02  0.9992517E-01
          1   -1    0    0  501    0  0.00000000000E+00  0.00000000000E+00  0.11414368174E+04  0.11414368174E+04  0.50400000000E-02 0. -1.
         -1   -1    0    0    0  501 -0.00000000000E+00 -0.00000000000E+00 -0.35134379404E+03  0.35134379407E+03  0.50400000000E-02 0.  1.
    8880023    1    1    2    0    0 -0.19994517407E+03 -0.13343386622E+03  0.53697123741E+02  0.70319005728E+03  0.65864270000E+03 0.  1.
    8880022    1    1    2    0    0  0.19994517407E+03  0.13343386622E+03  0.73639589958E+03  0.78959055416E+03  0.15294330000E+03 0.  0.
<mgrwt>
<rscale>  0 0.55979553E+03</rscale>
<asrwt>0</asrwt>
<pdfrwt beam="1">  1        1 0.17560566E+00 0.70113685E+03</pdfrwt>
<pdfrwt beam="2">  1       -1 0.54052892E-01 0.70113685E+03</pdfrwt>
<totfact> 0.42085663E+01</totfact>
</mgrwt>
</event>
<event>
 4    5  0.7767175E-008  0.9520495E+03  0.7818608E-02  0.9447171E-01
         -1   -1    0    0    0  501 -0.00000000000E+00  0.00000000000E+00  0.28849904995E+03  0.28849904999E+03  0.50400000000E-02 0.  1.
          1   -1    0    0  501    0  0.00000000000E+00 -0.00000000000E+00 -0.32923256506E+04  0.32923256506E+04  0.50400000000E-02 0. -1.
    8880023    1    1    2    0    0 -0.38630334676E+03  0.56864563004E+03 -0.72791308671E+03  0.11984388997E+04  0.65864270000E+03 0.  0.
    8880022    1    1    2    0    0  0.38630334676E+03 -0.56864563004E+03 -0.22759135140E+04  0.23823858009E+04  0.15294330000E+03 0.  0.
<mgrwt>
<rscale>  0 0.88293282E+03</rscale>
<asrwt>0</asrwt>
<pdfrwt beam="1">  1        1 0.50651161E+00 0.95204954E+03</pdfrwt>
<pdfrwt beam="2">  1       -1 0.44384471E-01 0.95204954E+03</pdfrwt>
<totfact> 0.18950343E+00</totfact>
</mgrwt>
</event>
<event>
 4    5  0.7767175E-008  0.9834666E+03  0.7818608E-02  0.9403515E-01
          1   -1    0    0  501    0  0.00000000000E+00  0.00000000000E+00  0.34683252552E+04  0.34683252553E+04  0.50400000000E-02 0. -1.
         -1   -1    0    0    0  501 -0.00000000000E+00 -0.00000000000E+00 -0.56777804429E+03  0.56777804431E+03  0.50400000000E-02 0.  1.
    8880023    1    1    2    0    0  0.73033199598E+03  0.33897799840E+01 -0.57740509589E+02  0.98516013301E+03  0.65864270000E+03 0.  0.
    8880022    1    1    2    0    0 -0.73033199598E+03 -0.33897799840E+01  0.29582877205E+04  0.30509431666E+04  0.15294330000E+03 0.  0.
<mgrwt>
<rscale>  0 0.91786949E+03</rscale>
<asrwt>0</asrwt>
<pdfrwt beam="1">  1        1 0.53358851E+00 0.98346658E+03</pdfrwt>
<pdfrwt beam="2">  1       -1 0.87350466E-01 0.98346658E+03</pdfrwt>
<totfact> 0.35582743E-01</totfact>
</mgrwt>
</event>
<event>
 4    5  0.7767175E-008  0.8530211E+03  0.7818608E-02  0.9606100E-01
         -1   -1    0    0    0  501 -0.00000000000E+00  0.00000000000E+00  0.15847056469E+04  0.15847056469E+04  0.50400000000E-02 0.  1.
          1   -1    0    0  501    0  0.00000000000E+00 -0.00000000000E+00 -0.63132414036E+03  0.63132414038E+03  0.50400000000E-02 0. -1.
    8880023    1    1    2    0    0 -0.19013210139E+03  0.50762636804E+03  0.12998616693E+04  0.15547621397E+04  0.65864270000E+03 0.  0.
    8880022    1    1    2    0    0  0.19013210139E+03 -0.50762636804E+03 -0.34648016277E+03  0.66126764757E+03  0.15294330000E+03 0.  0.
<mgrwt>
<rscale>  0 0.76893740E+03</rscale>
<asrwt>0</asrwt>
<pdfrwt beam="1">  1        1 0.97126791E-01 0.85302107E+03</pdfrwt>
<pdfrwt beam="2">  1       -1 0.24380087E+00 0.85302107E+03</pdfrwt>
<totfact> 0.25005054E+00</totfact>
</mgrwt>
</event>
<event>
 4    5  0.7767175E-008  0.1731166E+04  0.7818608E-02  0.8761600E-01
         -1   -1    0    0    0  501 -0.00000000000E+00  0.00000000000E+00  0.28923129554E+04  0.28923129554E+04  0.50400000000E-02 0.  1.
          1   -1    0    0  501    0  0.00000000000E+00 -0.00000000000E+00 -0.12960053146E+04  0.12960053146E+04  0.50400000000E-02 0. -1.
    8880023    1    1    2    0    0  0.16009599746E+04 -0.72650607731E+01  0.18795332389E+04  0.25553044875E+04  0.65864270000E+03 0.  0.
    8880022    1    1    2    0    0 -0.16009599746E+04  0.72650607731E+01 -0.28322559814E+03  0.16330137825E+04  0.15294330000E+03 0.  0.
<mgrwt>
<rscale>  0 0.16995872E+04</rscale>
<asrwt>0</asrwt>
<pdfrwt beam="1">  1        1 0.19938543E+00 0.17311660E+04</pdfrwt>
<pdfrwt beam="2">  1       -1 0.44497123E+00 0.17311660E+04</pdfrwt>
<totfact> 0.29393458E-02</totfact>
</mgrwt>
</event>
<event>
 4    5  0.7767175E-008  0.1109432E+04  0.7818608E-02  0.9250627E-01
         -1   -1    0    0    0  501 -0.00000000000E+00  0.00000000000E+00  0.62778060794E+03  0.62778060796E+03  0.50400000000E-02 0.  1.
          1   -1    0    0  501    0  0.00000000000E+00 -0.00000000000E+00 -0.37308640125E+04  0.37308640125E+04  0.50400000000E-02 0. -1.
    8880023    1    1    2    0    0 -0.61162054794E+03  0.65034532474E+03  0.17188741638E+02  0.11095649576E+04  0.65864270000E+03 0.  0.
    8880022    1    1    2    0    0  0.61162054794E+03 -0.65034532474E+03 -0.31202721462E+04  0.32490796628E+04  0.15294330000E+03 0.  0.
<mgrwt>
<rscale>  0 0.10545812E+04</rscale>
<asrwt>0</asrwt>
<pdfrwt beam="1">  1        1 0.57397906E+00 0.11094318E+04</pdfrwt>
<pdfrwt beam="2">  1       -1 0.96581634E-01 0.11094318E+04</pdfrwt>
<totfact> 0.17203506E-01</totfact>
</mgrwt>
</event>
<event>
 4    5  0.7767175E-008  0.1086946E+04  0.7818608E-02  0.9275731E-01
          1   -1    0    0  501    0  0.00000000000E+00  0.00000000000E+00  0.26644265629E+03  0.26644265634E+03  0.50400000000E-02 0. -1.
         -1   -1    0    0    0  501 -0.00000000000E+00 -0.00000000000E+00 -0.45956055305E+04  0.45956055305E+04  0.50400000000E-02 0.  1.
    8880023    1    1    2    0    0 -0.83736021675E+03 -0.21556622207E+03 -0.34593130543E+04  0.36260581825E+04  0.65864270000E+03 0.  1.
    8880022    1    1    2    0    0  0.83736021675E+03  0.21556622207E+03 -0.86984981990E+03  0.12359900044E+04  0.15294330000E+03 0.  0.
<mgrwt>
<rscale>  0 0.10304810E+04</rscale>
<asrwt>0</asrwt>
<pdfrwt beam="1">  1        1 0.40991181E-01 0.10869458E+04</pdfrwt>
<pdfrwt beam="2">  1       -1 0.70701618E+00 0.10869458E+04</pdfrwt>
<totfact> 0.19416250E-02</totfact>
</mgrwt>
</event>
<event>
 4    5  0.7767175E-008  0.1360767E+04  0.7818608E-02  0.9014784E-01
         -1   -1    0    0    0  501 -0.00000000000E+00  0.00000000000E+00  0.14676131588E+04  0.14676131589E+04  0.50400000000E-02 0.  1.
          1   -1    0    0  501    0  0.00000000000E+00 -0.00000000000E+00 -0.16200362038E+04  0.16200362038E+04  0.50400000000E-02 0. -1.
    8880023    1    1    2    0    0 -0.60574056335E+03  0.10251603558E+04  0.77918163087E+03  0.15680591843E+04  0.65864270000E+03 0.  0.
    8880022    1    1    2    0    0  0.60574056335E+03 -0.10251603558E+04 -0.93160467580E+03  0.15195901784E+04  0.15294330000E+03 0.  0.
<mgrwt>
<rscale>  0 0.13188056E+04</rscale>
<asrwt>0</asrwt>
<pdfrwt beam="1">  1        1 0.24923634E+00 0.13607665E+04</pdfrwt>
<pdfrwt beam="2">  1       -1 0.22578664E+00 0.13607665E+04</pdfrwt>
<totfact> 0.52284803E-01</totfact>
</mgrwt>
</event>
<event>
 4    5  0.7767175E-008  0.1125762E+04  0.7818608E-02  0.9232901E-01
          1   -1    0    0  501    0  0.00000000000E+00  0.00000000000E+00  0.22878623263E+04  0.22878623263E+04  0.50400000000E-02 0. -1.
         -1   -1    0    0    0  501 -0.00000000000E+00 -0.00000000000E+00 -0.56538050574E+03  0.56538050576E+03  0.50400000000E-02 0.  1.
    8880023    1    1    2    0    0 -0.90809307377E+03  0.94323803716E+02  0.31566056250E+03  0.11691799723E+04  0.65864270000E+03 0.  0.
    8880022    1    1    2    0    0  0.90809307377E+03 -0.94323803716E+02  0.14068212580E+04  0.16840628598E+04  0.15294330000E+03 0.  0.
<mgrwt>
<rscale>  0 0.10720193E+04</rscale>
<asrwt>0</asrwt>
<pdfrwt beam="1">  1        1 0.35197882E+00 0.11257621E+04</pdfrwt>
<pdfrwt beam="2">  1       -1 0.86981615E-01 0.11257621E+04</pdfrwt>
<totfact> 0.24661995E+00</totfact>
</mgrwt>
</event>
<event>
 4    5  0.7767175E-008  0.8088120E+03  0.7818608E-02  0.9692057E-01
         -1   -1    0    0    0  501 -0.00000000000E+00  0.00000000000E+00  0.98637096756E+03  0.98637096758E+03  0.50400000000E-02 0.  1.
          1   -1    0    0  501    0  0.00000000000E+00 -0.00000000000E+00 -0.14690723831E+04  0.14690723831E+04  0.50400000000E-02 0. -1.
    8880023    1    1    2    0    0 -0.33728512593E+03 -0.32650480619E+03  0.76520135002E+03  0.11134226318E+04  0.65864270000E+03 0.  1.
    8880022    1    1    2    0    0  0.33728512593E+03  0.32650480619E+03 -0.12479027656E+04  0.13420207189E+04  0.15294330000E+03 0.  0.
<mgrwt>
<rscale>  0 0.71491699E+03</rscale>
<asrwt>0</asrwt>
<pdfrwt beam="1">  1        1 0.22601114E+00 0.80881200E+03</pdfrwt>
<pdfrwt beam="2">  1       -1 0.15174938E+00 0.80881200E+03</pdfrwt>
<totfact> 0.24050658E+00</totfact>
</mgrwt>
</event>
<event>
 4    5  0.7767175E-008  0.7798859E+03  0.7818608E-02  0.9756105E-01
          1   -1    0    0  501    0  0.00000000000E+00  0.00000000000E+00  0.80022105646E+03  0.80022105648E+03  0.50400000000E-02 0. -1.
         -1   -1    0    0    0  501 -0.00000000000E+00 -0.00000000000E+00 -0.15306353220E+04  0.15306353220E+04  0.50400000000E-02 0.  1.
    8880023    1    1    2    0    0 -0.41619566407E+03  0.34540339652E+02 -0.13554128253E+04  0.15637666064E+04  0.65864270000E+03 0.  0.
    8880022    1    1    2    0    0  0.41619566407E+03 -0.34540339652E+02  0.62499855974E+03  0.76708977216E+03  0.15294330000E+03 0.  0.
<mgrwt>
<rscale>  0 0.67772354E+03</rscale>
<asrwt>0</asrwt>
<pdfrwt beam="1">  1        1 0.12311093E+00 0.77988594E+03</pdfrwt>
<pdfrwt beam="2">  1       -1 0.23548236E+00 0.77988594E+03</pdfrwt>
<totfact> 0.19950864E+00</totfact>
</mgrwt>
</event>
<event>
 4    5  0.7767175E-008  0.1456911E+04  0.7818608E-02  0.8940677E-01
         -1   -1    0    0    0  501 -0.00000000000E+00  0.00000000000E+00  0.11861807695E+04  0.11861807695E+04  0.50400000000E-02 0.  1.
          1   -1    0    0  501    0  0.00000000000E+00 -0.00000000000E+00 -0.17298294766E+04  0.17298294767E+04  0.50400000000E-02 0. -1.
    8880023    1    1    2    0    0  0.12830239660E+04 -0.20647002940E+03  0.94935982348E+02  0.14600011703E+04  0.65864270000E+03 0.  0.
    8880022    1    1    2    0    0 -0.12830239660E+04  0.20647002940E+03 -0.63858468951E+03  0.14560090758E+04  0.15294330000E+03 0.  0.
<mgrwt>
<rscale>  0 0.14183005E+04</rscale>
<asrwt>0</asrwt>
<pdfrwt beam="1">  1        1 0.26612761E+00 0.14569113E+04</pdfrwt>
<pdfrwt beam="2">  1       -1 0.18248935E+00 0.14569113E+04</pdfrwt>
<totfact> 0.86461734E-01</totfact>
</mgrwt>
</event>
<event>
 4    5  0.7767175E-008  0.8874415E+03  0.7818608E-02  0.9546500E-01
         -1   -1    0    0    0  501 -0.00000000000E+00  0.00000000000E+00  0.32585260361E+03  0.32585260365E+03  0.50400000000E-02 0.  1.
          1   -1    0    0  501    0  0.00000000000E+00 -0.00000000000E+00 -0.18575705779E+04  0.18575705779E+04  0.50400000000E-02 0. -1.
    8880023    1    1    2    0    0  0.35276371497E+03  0.47885275302E+03 -0.61383451176E+03  0.10790482898E+04  0.65864270000E+03 0. -1.
    8880022    1    1    2    0    0 -0.35276371497E+03 -0.47885275302E+03 -0.91788346251E+03  0.11043748917E+04  0.15294330000E+03 0.  1.
<mgrwt>
<rscale>  0 0.80940659E+03</rscale>
<asrwt>0</asrwt>
<pdfrwt beam="1">  1        1 0.28578008E+00 0.88744149E+03</pdfrwt>
<pdfrwt beam="2">  1       -1 0.50131171E-01 0.88744149E+03</pdfrwt>
<totfact> 0.15198776E+01</totfact>
</mgrwt>
</event>
<event>
 4    5  0.7767175E-008  0.9169475E+03  0.7818608E-02  0.9499355E-01
         -1   -1    0    0    0  501 -0.00000000000E+00  0.00000000000E+00  0.75880849268E+03  0.75880849270E+03  0.50400000000E-02 0.  1.
          1   -1    0    0  501    0  0.00000000000E+00 -0.00000000000E+00 -0.24104204647E+04  0.24104204647E+04  0.50400000000E-02 0. -1.
    8880023    1    1    2    0    0 -0.44733119992E+03 -0.45483767132E+03  0.41096863541E+03  0.10048322921E+04  0.65864270000E+03 0.  1.
    8880022    1    1    2    0    0  0.44733119992E+03  0.45483767132E+03 -0.20625806074E+04  0.21643966653E+04  0.15294330000E+03 0.  0.
<mgrwt>
<rscale>  0 0.84331364E+03</rscale>
<asrwt>0</asrwt>
<pdfrwt beam="1">  1        1 0.37083391E+00 0.91694750E+03</pdfrwt>
<pdfrwt beam="2">  1       -1 0.11673977E+00 0.91694750E+03</pdfrwt>
<totfact> 0.10667749E+00</totfact>
</mgrwt>
</event>
<event>
 4    5  0.7767175E-008  0.1009641E+04  0.7818608E-02  0.9369052E-01
          1   -1    0    0  501    0  0.00000000000E+00  0.00000000000E+00  0.13144043990E+04  0.13144043990E+04  0.50400000000E-02 0. -1.
         -1   -1    0    0    0  501 -0.00000000000E+00 -0.00000000000E+00 -0.16301855659E+04  0.16301855659E+04  0.50400000000E-02 0.  1.
    8880023    1    1    2    0    0 -0.15924872870E+02 -0.76505567545E+03 -0.13269096917E+04  0.16673521896E+04  0.65864270000E+03 0.  1.
    8880022    1    1    2    0    0  0.15924872870E+02  0.76505567545E+03  0.10111285248E+04  0.12772377753E+04  0.15294330000E+03 0.  0.
<mgrwt>
<rscale>  0 0.94666925E+03</rscale>
<asrwt>0</asrwt>
<pdfrwt beam="1">  1        1 0.20221606E+00 0.10096405E+04</pdfrwt>
<pdfrwt beam="2">  1       -1 0.25079778E+00 0.10096405E+04</pdfrwt>
<totfact> 0.61357303E-01</totfact>
</mgrwt>
</event>
<event>
 4    5  0.7767175E-008  0.1708501E+04  0.7818608E-02  0.8774914E-01
         -1   -1    0    0    0  501 -0.00000000000E+00  0.00000000000E+00  0.15821951361E+04  0.15821951361E+04  0.50400000000E-02 0.  1.
          1   -1    0    0  501    0  0.00000000000E+00 -0.00000000000E+00 -0.21365481379E+04  0.21365481380E+04  0.50400000000E-02 0. -1.
    8880023    1    1    2    0    0 -0.76601090361E+03  0.13778215029E+04 -0.11132408574E+04  0.20391861639E+04  0.65864270000E+03 0.  0.
    8880022    1    1    2    0    0  0.76601090361E+03 -0.13778215029E+04  0.55888785550E+03  0.16795571101E+04  0.15294330000E+03 0.  0.
<mgrwt>
<rscale>  0 0.16764453E+04</rscale>
<asrwt>0</asrwt>
<pdfrwt beam="1">  1        1 0.32869971E+00 0.17085008E+04</pdfrwt>
<pdfrwt beam="2">  1       -1 0.24341464E+00 0.17085008E+04</pdfrwt>
<totfact> 0.17069265E-01</totfact>
</mgrwt>
</event>
<event>
 4    5  0.7767175E-008  0.7739299E+03  0.7818608E-02  0.9770294E-01
         -1   -1    0    0    0  501 -0.00000000000E+00  0.00000000000E+00  0.17933116163E+04  0.17933116163E+04  0.50400000000E-02 0.  1.
          1   -1    0    0  501    0  0.00000000000E+00 -0.00000000000E+00 -0.70841394530E+03  0.70841394532E+03  0.50400000000E-02 0. -1.
    8880023    1    1    2    0    0  0.36631323640E+03 -0.17598836038E+03  0.16302443719E+04  0.18046230101E+04  0.65864270000E+03 0.  1.
    8880022    1    1    2    0    0 -0.36631323640E+03  0.17598836038E+03 -0.54534670091E+03  0.69710255154E+03  0.15294330000E+03 0.  0.
<mgrwt>
<rscale>  0 0.66981402E+03</rscale>
<asrwt>0</asrwt>
<pdfrwt beam="1">  1        1 0.10898676E+00 0.77392990E+03</pdfrwt>
<pdfrwt beam="2">  1       -1 0.27589409E+00 0.77392990E+03</pdfrwt>
<totfact> 0.13254632E+00</totfact>
</mgrwt>
</event>
<event>
 4    5  0.7767175E-008  0.7111491E+03  0.7818608E-02  0.9953758E-01
          1   -1    0    0  501    0  0.00000000000E+00  0.00000000000E+00  0.11725116116E+04  0.11725116116E+04  0.50400000000E-02 0. -1.
         -1   -1    0    0    0  501 -0.00000000000E+00 -0.00000000000E+00 -0.63472257133E+03  0.63472257135E+03  0.50400000000E-02 0.  1.
    8880023    1    1    2    0    0 -0.26801443731E+03 -0.95475224277E+01 -0.40278088790E+03  0.81729159038E+03  0.65864270000E+03 0.  0.
    8880022    1    1    2    0    0  0.26801443731E+03  0.95475224277E+01  0.94056992817E+03  0.98994259257E+03  0.15294330000E+03 0. -1.
<mgrwt>
<rscale>  0 0.57725196E+03</rscale>
<asrwt>0</asrwt>
<pdfrwt beam="1">  1        1 0.18038640E+00 0.71114914E+03</pdfrwt>
<pdfrwt beam="2">  1       -1 0.97649628E-01 0.71114914E+03</pdfrwt>
<totfact> 0.11706640E+01</totfact>
</mgrwt>
</event>
<event>
 4    5  0.7767175E-008  0.8288680E+03  0.7818608E-02  0.9651539E-01
         -1   -1    0    0    0  501 -0.00000000000E+00  0.00000000000E+00  0.62465970174E+03  0.62465970176E+03  0.50400000000E-02 0.  1.
          1   -1    0    0  501    0  0.00000000000E+00 -0.00000000000E+00 -0.13365008271E+04  0.13365008271E+04  0.50400000000E-02 0. -1.
    8880023    1    1    2    0    0 -0.21443514258E+03  0.45522463858E+03  0.24928900870E+03  0.86554440560E+03  0.65864270000E+03 0.  1.
    8880022    1    1    2    0    0  0.21443514258E+03 -0.45522463858E+03 -0.96113013407E+03  0.10956161233E+04  0.15294330000E+03 0.  0.
<mgrwt>
<rscale>  0 0.73976919E+03</rscale>
<asrwt>0</asrwt>
<pdfrwt beam="1">  1        1 0.20561551E+00 0.82886797E+03</pdfrwt>
<pdfrwt beam="2">  1       -1 0.96101493E-01 0.82886797E+03</pdfrwt>
<totfact> 0.91129771E+00</totfact>
</mgrwt>
</event>
<event>
 4    5  0.7767175E-008  0.7874807E+03  0.7818608E-02  0.9738549E-01
          1   -1    0    0  501    0  0.00000000000E+00  0.00000000000E+00  0.21161544323E+04  0.21161544323E+04  0.50400000000E-02 0. -1.
         -1   -1    0    0    0  501 -0.00000000000E+00 -0.00000000000E+00 -0.62082810617E+03  0.62082810619E+03  0.50400000000E-02 0.  1.
    8880023    1    1    2    0    0  0.32302618931E+03 -0.28630362593E+03 -0.33092769836E+03  0.85418910846E+03  0.65864270000E+03 0.  1.
    8880022    1    1    2    0    0 -0.32302618931E+03  0.28630362593E+03  0.18262540245E+04  0.18827934300E+04  0.15294330000E+03 0.  0.
<mgrwt>
<rscale>  0 0.68767249E+03</rscale>
<asrwt>0</asrwt>
<pdfrwt beam="1">  1        1 0.32556222E+00 0.78748072E+03</pdfrwt>
<pdfrwt beam="2">  1       -1 0.95512018E-01 0.78748072E+03</pdfrwt>
<totfact> 0.27538751E+00</totfact>
</mgrwt>
</event>
<event>
 4    5  0.7767175E-008  0.6688142E+03  0.7818608E-02  0.1016528E+00
         -1   -1    0    0    0  501 -0.00000000000E+00  0.00000000000E+00  0.55690495117E+03  0.55690495119E+03  0.50400000000E-02 0.  1.
          1   -1    0    0  501    0  0.00000000000E+00 -0.00000000000E+00 -0.15449051041E+04  0.15449051041E+04  0.50400000000E-02 0. -1.
    8880023    1    1    2    0    0  0.11130453795E+03 -0.33368873604E+02  0.34671719864E+03  0.75334268695E+03  0.65864270000E+03 0.  1.
    8880022    1    1    2    0    0 -0.11130453795E+03  0.33368873604E+02 -0.13347173515E+04  0.13484673683E+04  0.15294330000E+03 0.  0.
<mgrwt>
<rscale>  0 0.48960779E+03</rscale>
<asrwt>0</asrwt>
<pdfrwt beam="1">  1        1 0.23767771E+00 0.66881417E+03</pdfrwt>
<pdfrwt beam="2">  1       -1 0.85677685E-01 0.66881417E+03</pdfrwt>
<totfact> 0.86357515E+00</totfact>
</mgrwt>
</event>
<event>
 4    5  0.7767175E-008  0.8418078E+03  0.7818608E-02  0.9626781E-01
         -1   -1    0    0    0  501 -0.00000000000E+00  0.00000000000E+00  0.61648192630E+03  0.61648192632E+03  0.50400000000E-02 0.  1.
          1   -1    0    0  501    0  0.00000000000E+00 -0.00000000000E+00 -0.11236611129E+04  0.11236611129E+04  0.50400000000E-02 0. -1.
    8880023    1    1    2    0    0 -0.93919211658E+02 -0.51576094374E+03  0.18157125047E+03  0.86116693775E+03  0.65864270000E+03 0.  1.
    8880022    1    1    2    0    0  0.93919211658E+02  0.51576094374E+03 -0.68875043705E+03  0.87897610147E+03  0.15294330000E+03 0.  0.
<mgrwt>
<rscale>  0 0.75548725E+03</rscale>
<asrwt>0</asrwt>
<pdfrwt beam="1">  1        1 0.17287094E+00 0.84180780E+03</pdfrwt>
<pdfrwt beam="2">  1       -1 0.94843373E-01 0.84180780E+03</pdfrwt>
<totfact> 0.13347529E+01</totfact>
</mgrwt>
</event>
<event>
 4    5  0.7767175E-008  0.7760188E+03  0.7818608E-02  0.9765273E-01
         -1   -1    0    0    0  501 -0.00000000000E+00  0.00000000000E+00  0.57601908883E+03  0.57601908885E+03  0.50400000000E-02 0.  1.
          1   -1    0    0  501    0  0.00000000000E+00 -0.00000000000E+00 -0.12002211662E+04  0.12002211662E+04  0.50400000000E-02 0. -1.
    8880023    1    1    2    0    0 -0.40965773750E+03  0.23988790042E+02 -0.95272725912E+03  0.12287775879E+04  0.65864270000E+03 0. -1.
    8880022    1    1    2    0    0  0.40965773750E+03 -0.23988790042E+02  0.32852518172E+03  0.54746266721E+03  0.15294330000E+03 0.  1.
<mgrwt>
<rscale>  0 0.67259935E+03</rscale>
<asrwt>0</asrwt>
<pdfrwt beam="1">  1        1 0.18464941E+00 0.77601877E+03</pdfrwt>
<pdfrwt beam="2">  1       -1 0.88618322E-01 0.77601877E+03</pdfrwt>
<totfact> 0.13744478E+01</totfact>
</mgrwt>
</event>
<event>
 4    5  0.7767175E-008  0.6753491E+03  0.7818608E-02  0.1012087E+00
         -1   -1    0    0    0  501 -0.00000000000E+00  0.00000000000E+00  0.77087209095E+03  0.77087209097E+03  0.50400000000E-02 0.  1.
          1   -1    0    0  501    0  0.00000000000E+00 -0.00000000000E+00 -0.13952739969E+04  0.13952739970E+04  0.50400000000E-02 0. -1.
    8880023    1    1    2    0    0  0.76107528327E+02 -0.12842812780E+03  0.61200806043E+03  0.91140013834E+03  0.65864270000E+03 0.  1.
    8880022    1    1    2    0    0 -0.76107528327E+02  0.12842812780E+03 -0.12364099664E+04  0.12547459496E+04  0.15294330000E+03 0.  0.
<mgrwt>
<rscale>  0 0.50653489E+03</rscale>
<asrwt>0</asrwt>
<pdfrwt beam="1">  1        1 0.21465754E+00 0.67534906E+03</pdfrwt>
<pdfrwt beam="2">  1       -1 0.11859571E+00 0.67534906E+03</pdfrwt>
<totfact> 0.51989609E+00</totfact>
</mgrwt>
</event>
<event>
 4    5  0.7767175E-008  0.1116961E+04  0.7818608E-02  0.9242403E-01
          1   -1    0    0  501    0  0.00000000000E+00  0.00000000000E+00  0.16265155395E+04  0.16265155395E+04  0.50400000000E-02 0. -1.
         -1   -1    0    0    0  501 -0.00000000000E+00 -0.00000000000E+00 -0.15873237684E+04  0.15873237684E+04  0.50400000000E-02 0.  1.
    8880023    1    1    2    0    0 -0.89813168051E+03  0.84564774781E+02  0.12628404880E+04  0.16859323893E+04  0.65864270000E+03 0.  0.
    8880022    1    1    2    0    0  0.89813168051E+03 -0.84564774781E+02 -0.12236487169E+04  0.15279069187E+04  0.15294330000E+03 0.  0.
<mgrwt>
<rscale>  0 0.10626276E+04</rscale>
<asrwt>0</asrwt>
<pdfrwt beam="1">  1        1 0.25023316E+00 0.11169610E+04</pdfrwt>
<pdfrwt beam="2">  1       -1 0.24420366E+00 0.11169610E+04</pdfrwt>
<totfact> 0.40426317E-01</totfact>
</mgrwt>
</event>
<event>
 4    5  0.7767175E-008  0.8288701E+03  0.7818608E-02  0.9651535E-01
         -1   -1    0    0    0  501 -0.00000000000E+00  0.00000000000E+00  0.87113809950E+03  0.87113809951E+03  0.50400000000E-02 0.  1.
          1   -1    0    0  501    0  0.00000000000E+00 -0.00000000000E+00 -0.80292088787E+03  0.80292088789E+03  0.50400000000E-02 0. -1.
    8880023    1    1    2    0    0  0.39580593492E+03 -0.31072997550E+03  0.52189248970E+03  0.97948835259E+03  0.65864270000E+03 0.  0.
    8880022    1    1    2    0    0 -0.39580593492E+03  0.31072997550E+03 -0.45367527808E+03  0.69457063481E+03  0.15294330000E+03 0.  0.
<mgrwt>
<rscale>  0 0.73977181E+03</rscale>
<asrwt>0</asrwt>
<pdfrwt beam="1">  1        1 0.12352629E+00 0.82887011E+03</pdfrwt>
<pdfrwt beam="2">  1       -1 0.13402125E+00 0.82887011E+03</pdfrwt>
<totfact> 0.10529646E+01</totfact>
</mgrwt>
</event>
<event>
 4    5  0.7767175E-008  0.7485856E+03  0.7818608E-02  0.9835608E-01
          1   -1    0    0  501    0  0.00000000000E+00  0.00000000000E+00  0.14974459245E+04  0.14974459245E+04  0.50400000000E-02 0. -1.
         -1   -1    0    0    0  501 -0.00000000000E+00 -0.00000000000E+00 -0.53731045241E+03  0.53731045243E+03  0.50400000000E-02 0.  1.
    8880023    1    1    2    0    0 -0.52004549781E+02 -0.35194561214E+03 -0.23006541531E+03  0.78314142317E+03  0.65864270000E+03 0.  1.
    8880022    1    1    2    0    0  0.52004549781E+02  0.35194561214E+03  0.11902008874E+04  0.12516149538E+04  0.15294330000E+03 0.  0.
<mgrwt>
<rscale>  0 0.63486107E+03</rscale>
<asrwt>0</asrwt>
<pdfrwt beam="1">  1        1 0.23037629E+00 0.74858560E+03</pdfrwt>
<pdfrwt beam="2">  1       -1 0.82663148E-01 0.74858560E+03</pdfrwt>
<totfact> 0.99210263E+00</totfact>
</mgrwt>
</event>
<event>
 4    5  0.7767175E-008  0.7739418E+03  0.7818608E-02  0.9770265E-01
         -1   -1    0    0    0  501 -0.00000000000E+00  0.00000000000E+00  0.37678300261E+03  0.37678300265E+03  0.50400000000E-02 0.  1.
          1   -1    0    0  501    0  0.00000000000E+00 -0.00000000000E+00 -0.11471770003E+04  0.11471770003E+04  0.50400000000E-02 0. -1.
    8880023    1    1    2    0    0  0.40215149680E+03  0.58736024171E+02 -0.18615313623E+03  0.79601441149E+03  0.65864270000E+03 0.  0.
    8880022    1    1    2    0    0 -0.40215149680E+03 -0.58736024171E+02 -0.58424086146E+03  0.72794559146E+03  0.15294330000E+03 0.  0.
<mgrwt>
<rscale>  0 0.66982996E+03</rscale>
<asrwt>0</asrwt>
<pdfrwt beam="1">  1        1 0.17648877E+00 0.77394183E+03</pdfrwt>
<pdfrwt beam="2">  1       -1 0.57966616E-01 0.77394183E+03</pdfrwt>
<totfact> 0.36107677E+01</totfact>
</mgrwt>
</event>
<event>
 4    5  0.7767175E-008  0.1394352E+04  0.7818608E-02  0.8988084E-01
         -1   -1    0    0    0  501 -0.00000000000E+00  0.00000000000E+00  0.66871341744E+03  0.66871341746E+03  0.50400000000E-02 0.  1.
          1   -1    0    0  501    0  0.00000000000E+00 -0.00000000000E+00 -0.39501180041E+04  0.39501180041E+04  0.50400000000E-02 0. -1.
    8880023    1    1    2    0    0 -0.12240352824E+04  0.11020950390E+03 -0.35156759308E+03  0.14379911286E+04  0.65864270000E+03 0.  0.
    8880022    1    1    2    0    0  0.12240352824E+04 -0.11020950390E+03 -0.29298369936E+04  0.31808402929E+04  0.15294330000E+03 0.  0.
<mgrwt>
<rscale>  0 0.13536317E+04</rscale>
<asrwt>0</asrwt>
<pdfrwt beam="1">  1        1 0.60771045E+00 0.13943524E+04</pdfrwt>
<pdfrwt beam="2">  1       -1 0.10287899E+00 0.13943524E+04</pdfrwt>
<totfact> 0.93091996E-02</totfact>
</mgrwt>
</event>
<event>
 4    5  0.7767175E-008  0.8067379E+03  0.7818608E-02  0.9696412E-01
         -1   -1    0    0    0  501 -0.00000000000E+00  0.00000000000E+00  0.96899214173E+03  0.96899214175E+03  0.50400000000E-02 0.  1.
          1   -1    0    0  501    0  0.00000000000E+00 -0.00000000000E+00 -0.18090997078E+04  0.18090997079E+04  0.50400000000E-02 0. -1.
    8880023    1    1    2    0    0 -0.35549556238E+03 -0.30106273569E+03  0.75768667750E+03  0.11067588596E+04  0.65864270000E+03 0.  1.
    8880022    1    1    2    0    0  0.35549556238E+03  0.30106273569E+03 -0.15977942436E+04  0.16713329900E+04  0.15294330000E+03 0.  0.
<mgrwt>
<rscale>  0 0.71230806E+03</rscale>
<asrwt>0</asrwt>
<pdfrwt beam="1">  1        1 0.27832303E+00 0.80673792E+03</pdfrwt>
<pdfrwt beam="2">  1       -1 0.14907571E+00 0.80673792E+03</pdfrwt>
<totfact> 0.14842172E+00</totfact>
</mgrwt>
</event>
<event>
 4    5  0.7767175E-008  0.9451115E+03  0.7818608E-02  0.9457183E-01
         -1   -1    0    0    0  501 -0.00000000000E+00  0.00000000000E+00  0.70747480505E+03  0.70747480507E+03  0.50400000000E-02 0.  1.
          1   -1    0    0  501    0  0.00000000000E+00 -0.00000000000E+00 -0.16795108217E+04  0.16795108217E+04  0.50400000000E-02 0. -1.
    8880023    1    1    2    0    0  0.60499791878E+03  0.30561929231E+03  0.25319320814E+03  0.97843887928E+03  0.65864270000E+03 0.  1.
    8880022    1    1    2    0    0 -0.60499791878E+03 -0.30561929231E+03 -0.12252292248E+04  0.14085467475E+04  0.15294330000E+03 0.  0.
<mgrwt>
<rscale>  0 0.87515535E+03</rscale>
<asrwt>0</asrwt>
<pdfrwt beam="1">  1        1 0.25838628E+00 0.94511155E+03</pdfrwt>
<pdfrwt beam="2">  1       -1 0.10884228E+00 0.94511155E+03</pdfrwt>
<totfact> 0.39080844E+00</totfact>
</mgrwt>
</event>
<event>
 4    5  0.7767175E-008  0.8844918E+03  0.7818608E-02  0.9551400E-01
          1   -1    0    0  501    0  0.00000000000E+00  0.00000000000E+00  0.94230074613E+03  0.94230074615E+03  0.50400000000E-02 0. -1.
         -1   -1    0    0    0  501 -0.00000000000E+00 -0.00000000000E+00 -0.66950732366E+03  0.66950732368E+03  0.50400000000E-02 0.  1.
    8880023    1    1    2    0    0 -0.48251866997E+03 -0.34013417807E+03 -0.11072590542E+03  0.89139551174E+03  0.65864270000E+03 0.  0.
    8880022    1    1    2    0    0  0.48251866997E+03  0.34013417807E+03  0.38351932789E+03  0.72041255808E+03  0.15294330000E+03 0.  0.
<mgrwt>
<rscale>  0 0.80598076E+03</rscale>
<asrwt>0</asrwt>
<pdfrwt beam="1">  1        1 0.14496935E+00 0.88449179E+03</pdfrwt>
<pdfrwt beam="2">  1       -1 0.10300113E+00 0.88449179E+03</pdfrwt>
<totfact> 0.15178129E+01</totfact>
</mgrwt>
</event>
<event>
 4    5  0.7767175E-008  0.1626519E+04  0.7818608E-02  0.8825105E-01
          1   -1    0    0  501    0  0.00000000000E+00  0.00000000000E+00  0.27143100378E+04  0.27143100378E+04  0.50400000000E-02 0. -1.
         -1   -1    0    0    0  501 -0.00000000000E+00 -0.00000000000E+00 -0.11506105429E+04  0.11506105429E+04  0.50400000000E-02 0.  1.
    8880023    1    1    2    0    0  0.72211240454E+03  0.13001182850E+04 -0.98237856715E+02  0.16294829740E+04  0.65864270000E+03 0.  0.
    8880022    1    1    2    0    0 -0.72211240454E+03 -0.13001182850E+04  0.16619373516E+04  0.22354376067E+04  0.15294330000E+03 0.  0.
<mgrwt>
<rscale>  0 0.15926032E+04</rscale>
<asrwt>0</asrwt>
<pdfrwt beam="1">  1        1 0.41758616E+00 0.16265190E+04</pdfrwt>
<pdfrwt beam="2">  1       -1 0.17701701E+00 0.16265190E+04</pdfrwt>
<totfact> 0.19582128E-01</totfact>
</mgrwt>
</event>
<event>
 4    5  0.7767175E-008  0.8219864E+03  0.7818608E-02  0.9665130E-01
         -1   -1    0    0    0  501 -0.00000000000E+00  0.00000000000E+00  0.22014564608E+03  0.22014564613E+03  0.50400000000E-02 0.  1.
          1   -1    0    0  501    0  0.00000000000E+00 -0.00000000000E+00 -0.21738678566E+04  0.21738678566E+04  0.50400000000E-02 0. -1.
    8880023    1    1    2    0    0 -0.17437451990E+03  0.45983138567E+03 -0.14865658404E+04  0.16986876053E+04  0.65864270000E+03 0. -1.
    8880022    1    1    2    0    0  0.17437451990E+03 -0.45983138567E+03 -0.46715637016E+03  0.69532589743E+03  0.15294330000E+03 0.  0.
<mgrwt>
<rscale>  0 0.73131412E+03</rscale>
<asrwt>0</asrwt>
<pdfrwt beam="1">  1        1 0.33444119E+00 0.82198636E+03</pdfrwt>
<pdfrwt beam="2">  1       -1 0.33868562E-01 0.82198636E+03</pdfrwt>
<totfact> 0.19299912E+01</totfact>
</mgrwt>
</event>
<event>
 4    5  0.7767175E-008  0.1313782E+04  0.7818608E-02  0.9053748E-01
         -1   -1    0    0    0  501 -0.00000000000E+00  0.00000000000E+00  0.11509576863E+04  0.11509576864E+04  0.50400000000E-02 0.  1.
          1   -1    0    0  501    0  0.00000000000E+00 -0.00000000000E+00 -0.14171140233E+04  0.14171140233E+04  0.50400000000E-02 0. -1.
    8880023    1    1    2    0    0 -0.49612077257E+03  0.10227795088E+04  0.20198157262E+03  0.13292180056E+04  0.65864270000E+03 0.  0.
    8880022    1    1    2    0    0  0.49612077257E+03 -0.10227795088E+04 -0.46813790960E+03  0.12388537040E+04  0.15294330000E+03 0.  0.
<mgrwt>
<rscale>  0 0.12699402E+04</rscale>
<asrwt>0</asrwt>
<pdfrwt beam="1">  1        1 0.21801754E+00 0.13137823E+04</pdfrwt>
<pdfrwt beam="2">  1       -1 0.17707041E+00 0.13137823E+04</pdfrwt>
<totfact> 0.15802312E+00</totfact>
</mgrwt>
</event>
<event>
 4    5  0.7767175E-008  0.7316376E+03  0.7818608E-02  0.9885012E-01
          1   -1    0    0  501    0  0.00000000000E+00  0.00000000000E+00  0.17998875334E+04  0.17998875334E+04  0.50400000000E-02 0. -1.
         -1   -1    0    0    0  501 -0.00000000000E+00 -0.00000000000E+00 -0.20301340378E+03  0.20301340384E+03  0.50400000000E-02 0.  1.
    8880023    1    1    2    0    0  0.45775877710E+02 -0.31525858863E+03  0.60310194702E+03  0.94816959108E+03  0.65864270000E+03 0.  1.
    8880022    1    1    2    0    0 -0.45775877710E+02  0.31525858863E+03  0.99377218263E+03  0.10547313462E+04  0.15294330000E+03 0.  0.
<mgrwt>
<rscale>  0 0.60993210E+03</rscale>
<asrwt>0</asrwt>
<pdfrwt beam="1">  1        1 0.27690578E+00 0.73163763E+03</pdfrwt>
<pdfrwt beam="2">  1       -1 0.31232830E-01 0.73163763E+03</pdfrwt>
<totfact> 0.40086776E+01</totfact>
</mgrwt>
</event>
<event>
 4    5  0.7767175E-008  0.7611025E+03  0.7818608E-02  0.9802262E-01
          1   -1    0    0  501    0  0.00000000000E+00  0.00000000000E+00  0.25788039538E+04  0.25788039538E+04  0.50400000000E-02 0. -1.
         -1   -1    0    0    0  501 -0.00000000000E+00 -0.00000000000E+00 -0.14399840384E+03  0.14399840393E+03  0.50400000000E-02 0.  1.
    8880023    1    1    2    0    0  0.63957016638E+02 -0.37600036904E+03  0.11961433442E+04  0.14177573430E+04  0.65864270000E+03 0.  1.
    8880022    1    1    2    0    0 -0.63957016638E+02  0.37600036904E+03  0.12386622057E+04  0.13050450147E+04  0.15294330000E+03 0.  0.
<mgrwt>
<rscale>  0 0.65241313E+03</rscale>
<asrwt>0</asrwt>
<pdfrwt beam="1">  1        1 0.39673909E+00 0.76110248E+03</pdfrwt>
<pdfrwt beam="2">  1       -1 0.22153599E-01 0.76110248E+03</pdfrwt>
<totfact> 0.21515184E+01</totfact>
</mgrwt>
</event>
<event>
 4    5  0.7767175E-008  0.9733390E+03  0.7818608E-02  0.9417301E-01
          1   -1    0    0  501    0  0.00000000000E+00  0.00000000000E+00  0.71657682872E+03  0.71657682874E+03  0.50400000000E-02 0. -1.
         -1   -1    0    0    0  501 -0.00000000000E+00 -0.00000000000E+00 -0.13745832276E+04  0.13745832276E+04  0.50400000000E-02 0.  1.
    8880023    1    1    2    0    0  0.68029122406E+03  0.22534962456E+03 -0.89370947106E+03  0.13214028257E+04  0.65864270000E+03 0.  0.
    8880022    1    1    2    0    0 -0.68029122406E+03 -0.22534962456E+03  0.23570307222E+03  0.76975723062E+03  0.15294330000E+03 0.  0.
<mgrwt>
<rscale>  0 0.90665461E+03</rscale>
<asrwt>0</asrwt>
<pdfrwt beam="1">  1        1 0.11024259E+00 0.97333900E+03</pdfrwt>
<pdfrwt beam="2">  1       -1 0.21147434E+00 0.97333900E+03</pdfrwt>
<totfact> 0.33286610E+00</totfact>
</mgrwt>
</event>
<event>
 4    5  0.1065603E-007  0.7177285E+03  0.7818608E-02  0.9930348E-01
         -1   -1    0    0    0  501 -0.00000000000E+00  0.00000000000E+00  0.12147194959E+04  0.12147194959E+04  0.50400000000E-02 0.  1.
          1   -1    0    0  501    0  0.00000000000E+00 -0.00000000000E+00 -0.21992629265E+04  0.21992629265E+04  0.50400000000E-02 0. -1.
    8880023    1    1    2    0    0  0.19174712595E+02 -0.28452827663E+03  0.10950838574E+04  0.13093291683E+04  0.65864270000E+03 0.  1.
    8880022    1    1    2    0    0 -0.19174712595E+02  0.28452827663E+03 -0.20796272880E+04  0.21046532541E+04  0.15294330000E+03 0.  0.
<mgrwt>
<rscale>  0 0.58812766E+03</rscale>
<asrwt>0</asrwt>
<pdfrwt beam="1">  1        1 0.33834814E+00 0.71772851E+03</pdfrwt>
<pdfrwt beam="2">  1       -1 0.18687992E+00 0.71772851E+03</pdfrwt>
<totfact> 0.43638631E-01</totfact>
</mgrwt>
</event>
<event>
 4    5  0.7767175E-008  0.7578941E+03  0.7818608E-02  0.9810590E-01
          1   -1    0    0  501    0  0.00000000000E+00  0.00000000000E+00  0.78932148262E+03  0.78932148264E+03  0.50400000000E-02 0. -1.
         -1   -1    0    0    0  501 -0.00000000000E+00 -0.00000000000E+00 -0.96839722706E+03  0.96839722707E+03  0.50400000000E-02 0.  1.
    8880023    1    1    2    0    0  0.19974140536E+03 -0.31732736107E+03 -0.74439794367E+03  0.10623237679E+04  0.65864270000E+03 0.  1.
    8880022    1    1    2    0    0 -0.19974140536E+03  0.31732736107E+03  0.56532219924E+03  0.69539494178E+03  0.15294330000E+03 0.  0.
<mgrwt>
<rscale>  0 0.64797298E+03</rscale>
<asrwt>0</asrwt>
<pdfrwt beam="1">  1        1 0.12143407E+00 0.75789411E+03</pdfrwt>
<pdfrwt beam="2">  1       -1 0.14898419E+00 0.75789411E+03</pdfrwt>
<totfact> 0.82778276E+00</totfact>
</mgrwt>
</event>
<event>
 4    5  0.7767175E-008  0.1120838E+04  0.7818608E-02  0.9238203E-01
         -1   -1    0    0    0  501 -0.00000000000E+00  0.00000000000E+00  0.74541922893E+03  0.74541922895E+03  0.50400000000E-02 0.  1.
          1   -1    0    0  501    0  0.00000000000E+00 -0.00000000000E+00 -0.16524417871E+04  0.16524417871E+04  0.50400000000E-02 0. -1.
    8880023    1    1    2    0    0  0.48111257052E+03 -0.76876417606E+03 -0.21353900669E+02  0.11210414173E+04  0.65864270000E+03 0.  0.
    8880022    1    1    2    0    0 -0.48111257052E+03  0.76876417606E+03 -0.88566865747E+03  0.12768195987E+04  0.15294330000E+03 0.  0.
<mgrwt>
<rscale>  0 0.10667666E+04</rscale>
<asrwt>0</asrwt>
<pdfrwt beam="1">  1        1 0.25422181E+00 0.11208380E+04</pdfrwt>
<pdfrwt beam="2">  1       -1 0.11467988E+00 0.11208380E+04</pdfrwt>
<totfact> 0.35216427E+00</totfact>
</mgrwt>
</event>
<event>
 4    5  0.7767175E-008  0.7131986E+03  0.7818608E-02  0.9946310E-01
          1   -1    0    0  501    0  0.00000000000E+00  0.00000000000E+00  0.59857744037E+03  0.59857744039E+03  0.50400000000E-02 0. -1.
         -1   -1    0    0    0  501 -0.00000000000E+00 -0.00000000000E+00 -0.77310186078E+03  0.77310186079E+03  0.50400000000E-02 0.  1.
    8880023    1    1    2    0    0  0.24553243938E+03 -0.12064765405E+03 -0.53680092327E+03  0.89264072992E+03  0.65864270000E+03 0.  1.
    8880022    1    1    2    0    0 -0.24553243938E+03  0.12064765405E+03  0.36227650287E+03  0.47903857127E+03  0.15294330000E+03 0.  0.
<mgrwt>
<rscale>  0 0.58068475E+03</rscale>
<asrwt>0</asrwt>
<pdfrwt beam="1">  1        1 0.92088837E-01 0.71319860E+03</pdfrwt>
<pdfrwt beam="2">  1       -1 0.11893875E+00 0.71319860E+03</pdfrwt>
<totfact> 0.22395015E+01</totfact>
</mgrwt>
</event>
<event>
 4    5  0.7767175E-008  0.8113745E+03  0.7818608E-02  0.9686721E-01
          1   -1    0    0  501    0  0.00000000000E+00  0.00000000000E+00  0.14236577396E+04  0.14236577397E+04  0.50400000000E-02 0. -1.
         -1   -1    0    0    0  501 -0.00000000000E+00 -0.00000000000E+00 -0.38826241258E+03  0.38826241261E+03  0.50400000000E-02 0.  1.
    8880023    1    1    2    0    0  0.46981319223E+03 -0.61595278408E+02  0.19400597926E+03  0.83424633063E+03  0.65864270000E+03 0.  1.
    8880022    1    1    2    0    0 -0.46981319223E+03  0.61595278408E+02  0.84138934781E+03  0.97767382164E+03  0.15294330000E+03 0.  0.
<mgrwt>
<rscale>  0 0.71812955E+03</rscale>
<asrwt>0</asrwt>
<pdfrwt beam="1">  1        1 0.21902427E+00 0.81137453E+03</pdfrwt>
<pdfrwt beam="2">  1       -1 0.59732678E-01 0.81137453E+03</pdfrwt>
<totfact> 0.21546141E+01</totfact>
</mgrwt>
</event>
<event>
 4    5  0.7767175E-008  0.7187740E+03  0.7818608E-02  0.9926756E-01
          1   -1    0    0  501    0  0.00000000000E+00  0.00000000000E+00  0.86400034092E+03  0.86400034093E+03  0.50400000000E-02 0. -1.
         -1   -1    0    0    0  501 -0.00000000000E+00 -0.00000000000E+00 -0.17083881395E+04  0.17083881395E+04  0.50400000000E-02 0.  1.
    8880023    1    1    2    0    0  0.27164921025E+03  0.95039949919E+02 -0.15975150850E+04  0.17517678324E+04  0.65864270000E+03 0.  1.
    8880022    1    1    2    0    0 -0.27164921025E+03 -0.95039949919E+02  0.75312728640E+03  0.82062064807E+03  0.15294330000E+03 0.  0.
<mgrwt>
<rscale>  0 0.58981907E+03</rscale>
<asrwt>0</asrwt>
<pdfrwt beam="1">  1        1 0.13292313E+00 0.71877402E+03</pdfrwt>
<pdfrwt beam="2">  1       -1 0.26282894E+00 0.71877402E+03</pdfrwt>
<totfact> 0.11860318E+00</totfact>
</mgrwt>
</event>
<event>
 4    5  0.7767175E-008  0.1784764E+04  0.7818608E-02  0.8731011E-01
          1   -1    0    0  501    0  0.00000000000E+00  0.00000000000E+00  0.19014023645E+04  0.19014023645E+04  0.50400000000E-02 0. -1.
         -1   -1    0    0    0  501 -0.00000000000E+00 -0.00000000000E+00 -0.18354718982E+04  0.18354718982E+04  0.50400000000E-02 0.  1.
    8880023    1    1    2    0    0  0.10988581421E+04 -0.12426119453E+04 -0.68228640865E+03  0.19107324807E+04  0.65864270000E+03 0.  0.
    8880022    1    1    2    0    0 -0.10988581421E+04  0.12426119453E+04  0.74821687490E+03  0.18261417820E+04  0.15294330000E+03 0.  0.
<mgrwt>
<rscale>  0 0.17542556E+04</rscale>
<asrwt>0</asrwt>
<pdfrwt beam="1">  1        1 0.29252344E+00 0.17847644E+04</pdfrwt>
<pdfrwt beam="2">  1       -1 0.28238029E+00 0.17847644E+04</pdfrwt>
<totfact> 0.13641026E-01</totfact>
</mgrwt>
</event>
<event>
 4    5  0.7767175E-008  0.6639342E+03  0.7818608E-02  0.1020445E+00
         -1   -1    0    0    0  501 -0.00000000000E+00  0.00000000000E+00  0.23905253854E+03  0.23905253859E+03  0.50400000000E-02 0.  1.
          1   -1    0    0  501    0  0.00000000000E+00 -0.00000000000E+00 -0.84543223630E+03  0.84543223631E+03  0.50400000000E-02 0. -1.
    8880023    1    1    2    0    0  0.94061099731E+01  0.83126325318E+02 -0.29264126849E+03  0.72556707419E+03  0.65864270000E+03 0.  1.
    8880022    1    1    2    0    0 -0.94061099731E+01 -0.83126325318E+02 -0.31373842927E+03  0.35891770071E+03  0.15294330000E+03 0.  0.
<mgrwt>
<rscale>  0 0.47526446E+03</rscale>
<asrwt>0</asrwt>
<pdfrwt beam="1">  1        1 0.13006650E+00 0.66393423E+03</pdfrwt>
<pdfrwt beam="2">  1       -1 0.36777314E-01 0.66393423E+03</pdfrwt>
<totfact> 0.14656957E+02</totfact>
</mgrwt>
</event>
<event>
 4    5  0.7767175E-008  0.1125914E+04  0.7818608E-02  0.9232739E-01
         -1   -1    0    0    0  501 -0.00000000000E+00  0.00000000000E+00  0.14735043487E+04  0.14735043487E+04  0.50400000000E-02 0.  1.
          1   -1    0    0  501    0  0.00000000000E+00 -0.00000000000E+00 -0.92364172019E+03  0.92364172020E+03  0.50400000000E-02 0. -1.
    8880023    1    1    2    0    0 -0.21107123820E+03  0.88843691325E+03 -0.27290312514E+03  0.11585152301E+04  0.65864270000E+03 0.  0.
    8880022    1    1    2    0    0  0.21107123820E+03 -0.88843691325E+03  0.82276575364E+03  0.12386308388E+04  0.15294330000E+03 0.  0.
<mgrwt>
<rscale>  0 0.10721809E+04</rscale>
<asrwt>0</asrwt>
<pdfrwt beam="1">  1        1 0.14209873E+00 0.11259136E+04</pdfrwt>
<pdfrwt beam="2">  1       -1 0.22669298E+00 0.11259136E+04</pdfrwt>
<totfact> 0.17113760E+00</totfact>
</mgrwt>
</event>
<event>
 4    5  0.7767175E-008  0.1009074E+04  0.7818608E-02  0.9369781E-01
          1   -1    0    0  501    0  0.00000000000E+00  0.00000000000E+00  0.40342033201E+04  0.40342033201E+04  0.50400000000E-02 0. -1.
         -1   -1    0    0    0  501 -0.00000000000E+00 -0.00000000000E+00 -0.30322338442E+03  0.30322338447E+03  0.50400000000E-02 0.  1.
    8880023    1    1    2    0    0  0.49702286886E+03  0.58085138887E+03  0.75293501804E+03  0.12590239933E+04  0.65864270000E+03 0.  0.
    8880022    1    1    2    0    0 -0.49702286886E+03 -0.58085138887E+03  0.29780449176E+04  0.30784027113E+04  0.15294330000E+03 0.  0.
<mgrwt>
<rscale>  0 0.94604847E+03</rscale>
<asrwt>0</asrwt>
<pdfrwt beam="1">  1        1 0.62064662E+00 0.10090740E+04</pdfrwt>
<pdfrwt beam="2">  1       -1 0.46649755E-01 0.10090740E+04</pdfrwt>
<totfact> 0.43151979E-01</totfact>
</mgrwt>
</event>
<event>
 4    5  0.7767175E-008  0.1120911E+04  0.7818608E-02  0.9238124E-01
         -1   -1    0    0    0  501 -0.00000000000E+00  0.00000000000E+00  0.14240993253E+04  0.14240993253E+04  0.50400000000E-02 0.  1.
          1   -1    0    0  501    0  0.00000000000E+00 -0.00000000000E+00 -0.86680299646E+03  0.86680299648E+03  0.50400000000E-02 0. -1.
    8880023    1    1    2    0    0 -0.16095508384E+03 -0.89259393375E+03  0.75321757849E+03  0.13504730269E+04  0.65864270000E+03 0.  0.
    8880022    1    1    2    0    0  0.16095508384E+03  0.89259393375E+03 -0.19592124966E+03  0.94042929488E+03  0.15294330000E+03 0.  0.
<mgrwt>
<rscale>  0 0.10668441E+04</rscale>
<asrwt>0</asrwt>
<pdfrwt beam="1">  1        1 0.13335431E+00 0.11209106E+04</pdfrwt>
<pdfrwt beam="2">  1       -1 0.21909220E+00 0.11209106E+04</pdfrwt>
<totfact> 0.21437305E+00</totfact>
</mgrwt>
</event>
<event>
 4    5  0.7767175E-008  0.8173446E+03  0.7818608E-02  0.9674477E-01
          1   -1    0    0  501    0  0.00000000000E+00  0.00000000000E+00  0.12632670264E+04  0.12632670264E+04  0.50400000000E-02 0. -1.
         -1   -1    0    0    0  501 -0.00000000000E+00 -0.00000000000E+00 -0.41442132349E+03  0.41442132352E+03  0.50400000000E-02 0.  1.
    8880023    1    1    2    0    0  0.16604487302E+03  0.45461093165E+03  0.17807497963E+03  0.83651832237E+03  0.65864270000E+03 0.  1.
    8880022    1    1    2    0    0 -0.16604487302E+03 -0.45461093165E+03  0.67077072330E+03  0.84117002757E+03  0.15294330000E+03 0.  0.
<mgrwt>
<rscale>  0 0.72556984E+03</rscale>
<asrwt>0</asrwt>
<pdfrwt beam="1">  1        1 0.19434877E+00 0.81734461E+03</pdfrwt>
<pdfrwt beam="2">  1       -1 0.63757127E-01 0.81734461E+03</pdfrwt>
<totfact> 0.24523631E+01</totfact>
</mgrwt>
</event>
<event>
 4    5  0.7767175E-008  0.1728868E+04  0.7818608E-02  0.8762939E-01
         -1   -1    0    0    0  501 -0.00000000000E+00  0.00000000000E+00  0.12124917531E+04  0.12124917531E+04  0.50400000000E-02 0.  1.
          1   -1    0    0  501    0  0.00000000000E+00 -0.00000000000E+00 -0.35778746533E+04  0.35778746533E+04  0.50400000000E-02 0. -1.
    8880023    1    1    2    0    0 -0.14946970448E+04 -0.56661698373E+03  0.22417273545E+03  0.17433409545E+04  0.65864270000E+03 0.  0.
    8880022    1    1    2    0    0  0.14946970448E+04  0.56661698373E+03 -0.25895556356E+04  0.30470254519E+04  0.15294330000E+03 0.  0.
<mgrwt>
<rscale>  0 0.16972415E+04</rscale>
<asrwt>0</asrwt>
<pdfrwt beam="1">  1        1 0.55044225E+00 0.17288679E+04</pdfrwt>
<pdfrwt beam="2">  1       -1 0.18653719E+00 0.17288679E+04</pdfrwt>
<totfact> 0.37459113E-02</totfact>
</mgrwt>
</event>
<event>
 4    5  0.7767175E-008  0.8333577E+03  0.7818608E-02  0.9642834E-01
          1   -1    0    0  501    0  0.00000000000E+00  0.00000000000E+00  0.45596299486E+03  0.45596299489E+03  0.50400000000E-02 0. -1.
         -1   -1    0    0    0  501 -0.00000000000E+00 -0.00000000000E+00 -0.10509895937E+04  0.10509895937E+04  0.50400000000E-02 0.  1.
    8880023    1    1    2    0    0  0.51021383940E+03 -0.18887424400E+02 -0.24245255623E+03  0.86791033235E+03  0.65864270000E+03 0. -1.
    8880022    1    1    2    0    0 -0.51021383940E+03  0.18887424400E+02 -0.35257404257E+03  0.63904225621E+03  0.15294330000E+03 0.  0.
<mgrwt>
<rscale>  0 0.74524850E+03</rscale>
<asrwt>0</asrwt>
<pdfrwt beam="1">  1        1 0.70148153E-01 0.83335773E+03</pdfrwt>
<pdfrwt beam="2">  1       -1 0.16169071E+00 0.83335773E+03</pdfrwt>
<totfact> 0.14540167E+01</totfact>
</mgrwt>
</event>
<event>
 4    5  0.7767175E-008  0.1200827E+04  0.7818608E-02  0.9156319E-01
          1   -1    0    0  501    0  0.00000000000E+00  0.00000000000E+00  0.24501488938E+04  0.24501488938E+04  0.50400000000E-02 0. -1.
         -1   -1    0    0    0  501 -0.00000000000E+00 -0.00000000000E+00 -0.11203641338E+04  0.11203641338E+04  0.50400000000E-02 0.  1.
    8880023    1    1    2    0    0  0.94230964105E+03 -0.34674006661E+03 -0.63526023673E+03  0.13585072352E+04  0.65864270000E+03 0.  1.
    8880022    1    1    2    0    0 -0.94230964105E+03  0.34674006661E+03  0.19650449968E+04  0.22120057924E+04  0.15294330000E+03 0.  0.
<mgrwt>
<rscale>  0 0.11515894E+04</rscale>
<asrwt>0</asrwt>
<pdfrwt beam="1">  1        1 0.37694598E+00 0.12008274E+04</pdfrwt>
<pdfrwt beam="2">  1       -1 0.17236371E+00 0.12008274E+04</pdfrwt>
<totfact> 0.34177762E-01</totfact>
</mgrwt>
</event>
<event>
 4    5  0.7767175E-008  0.1217929E+04  0.7818608E-02  0.9139888E-01
          1   -1    0    0  501    0  0.00000000000E+00  0.00000000000E+00  0.17682112017E+04  0.17682112017E+04  0.50400000000E-02 0. -1.
         -1   -1    0    0    0  501 -0.00000000000E+00 -0.00000000000E+00 -0.10590378360E+04  0.10590378360E+04  0.50400000000E-02 0.  1.
    8880023    1    1    2    0    0 -0.10662994308E+03  0.10189068315E+04  0.11742489313E+04  0.16918072688E+04  0.65864270000E+03 0.  0.
    8880022    1    1    2    0    0  0.10662994308E+03 -0.10189068315E+04 -0.46507556558E+03  0.11354417690E+04  0.15294330000E+03 0.  0.
<mgrwt>
<rscale>  0 0.11696019E+04</rscale>
<asrwt>0</asrwt>
<pdfrwt beam="1">  1        1 0.27203249E+00 0.12179291E+04</pdfrwt>
<pdfrwt beam="2">  1       -1 0.16292890E+00 0.12179291E+04</pdfrwt>
<totfact> 0.11643036E+00</totfact>
</mgrwt>
</event>
<event>
 4    5  0.7767175E-008  0.1224997E+04  0.7818608E-02  0.9133199E-01
         -1   -1    0    0    0  501 -0.00000000000E+00  0.00000000000E+00  0.10623858044E+04  0.10623858044E+04  0.50400000000E-02 0.  1.
          1   -1    0    0  501    0  0.00000000000E+00 -0.00000000000E+00 -0.15130233826E+04  0.15130233826E+04  0.50400000000E-02 0. -1.
    8880023    1    1    2    0    0 -0.75871033077E+03 -0.70083157823E+03 -0.81295359866E+03  0.14702074775E+04  0.65864270000E+03 0. -1.
    8880022    1    1    2    0    0  0.75871033077E+03  0.70083157823E+03  0.36231602041E+03  0.11052017095E+04  0.15294330000E+03 0.  0.
<mgrwt>
<rscale>  0 0.11770348E+04</rscale>
<asrwt>0</asrwt>
<pdfrwt beam="1">  1        1 0.23277283E+00 0.12249965E+04</pdfrwt>
<pdfrwt beam="2">  1       -1 0.16344397E+00 0.12249965E+04</pdfrwt>
<totfact> 0.17243233E+00</totfact>
</mgrwt>
</event>
<event>
 4    5  0.7767175E-008  0.8249529E+03  0.7818608E-02  0.9659233E-01
          1   -1    0    0  501    0  0.00000000000E+00  0.00000000000E+00  0.38492823588E+04  0.38492823588E+04  0.50400000000E-02 0. -1.
         -1   -1    0    0    0  501 -0.00000000000E+00 -0.00000000000E+00 -0.25280375025E+03  0.25280375030E+03  0.50400000000E-02 0.  1.
    8880023    1    1    2    0    0  0.30689370350E+03 -0.39058084848E+03  0.50505866086E+03  0.96728051858E+03  0.65864270000E+03 0.  0.
    8880022    1    1    2    0    0 -0.30689370350E+03  0.39058084848E+03  0.30914199477E+04  0.31348055905E+04  0.15294330000E+03 0.  0.
<mgrwt>
<rscale>  0 0.73496768E+03</rscale>
<asrwt>0</asrwt>
<pdfrwt beam="1">  1        1 0.59219728E+00 0.82495294E+03</pdfrwt>
<pdfrwt beam="2">  1       -1 0.38892885E-01 0.82495294E+03</pdfrwt>
<totfact> 0.89984503E-01</totfact>
</mgrwt>
</event>
<event>
 4    5  0.7767175E-008  0.7556601E+03  0.7818608E-02  0.9816475E-01
         -1   -1    0    0    0  501 -0.00000000000E+00  0.00000000000E+00  0.34028668229E+03  0.34028668233E+03  0.50400000000E-02 0.  1.
          1   -1    0    0  501    0  0.00000000000E+00 -0.00000000000E+00 -0.16480730065E+04  0.16480730065E+04  0.50400000000E-02 0. -1.
    8880023    1    1    2    0    0  0.33033819443E+03 -0.16759660110E+03 -0.15971614068E+03  0.77235444924E+03  0.65864270000E+03 0.  0.
    8880022    1    1    2    0    0 -0.33033819443E+03  0.16759660110E+03 -0.11480701836E+04  0.12160052396E+04  0.15294330000E+03 0.  0.
<mgrwt>
<rscale>  0 0.64485826E+03</rscale>
<asrwt>0</asrwt>
<pdfrwt beam="1">  1        1 0.25354969E+00 0.75566008E+03</pdfrwt>
<pdfrwt beam="2">  1       -1 0.52351798E-01 0.75566008E+03</pdfrwt>
<totfact> 0.19689510E+01</totfact>
</mgrwt>
</event>
<event>
 4    5  0.7767175E-008  0.1497236E+04  0.7818608E-02  0.8911590E-01
         -1   -1    0    0    0  501 -0.00000000000E+00  0.00000000000E+00  0.16250247845E+04  0.16250247845E+04  0.50400000000E-02 0.  1.
          1   -1    0    0  501    0  0.00000000000E+00 -0.00000000000E+00 -0.19302850460E+04  0.19302850460E+04  0.50400000000E-02 0. -1.
    8880023    1    1    2    0    0  0.13202318526E+04 -0.25474322871E+03  0.89679955439E+03  0.17452695792E+04  0.65864270000E+03 0.  0.
    8880022    1    1    2    0    0 -0.13202318526E+04  0.25474322871E+03 -0.12020598159E+04  0.18100402513E+04  0.15294330000E+03 0.  0.
<mgrwt>
<rscale>  0 0.14598648E+04</rscale>
<asrwt>0</asrwt>
<pdfrwt beam="1">  1        1 0.29696693E+00 0.14972363E+04</pdfrwt>
<pdfrwt beam="2">  1       -1 0.25000381E+00 0.14972363E+04</pdfrwt>
<totfact> 0.21867253E-01</totfact>
</mgrwt>
</event>
<event>
 4    5  0.7767175E-008  0.6648725E+03  0.7818608E-02  0.1019641E+00
         -1   -1    0    0    0  501 -0.00000000000E+00  0.00000000000E+00  0.37916852388E+03  0.37916852392E+03  0.50400000000E-02 0.  1.
          1   -1    0    0  501    0  0.00000000000E+00 -0.00000000000E+00 -0.86668620992E+03  0.86668620993E+03  0.50400000000E-02 0. -1.
    8880023    1    1    2    0    0 -0.84141761047E+02 -0.34137291008E+02  0.62489087982E+02  0.66780257784E+03  0.65864270000E+03 0.  1.
    8880022    1    1    2    0    0  0.84141761047E+02  0.34137291008E+02 -0.55000677402E+03  0.57805215601E+03  0.15294330000E+03 0.  0.
<mgrwt>
<rscale>  0 0.47816513E+03</rscale>
<asrwt>0</asrwt>
<pdfrwt beam="1">  1        1 0.13333634E+00 0.66487247E+03</pdfrwt>
<pdfrwt beam="2">  1       -1 0.58333619E-01 0.66487247E+03</pdfrwt>
<totfact> 0.59511149E+01</totfact>
</mgrwt>
</event>
<event>
 4    5  0.7767175E-008  0.8255461E+03  0.7818608E-02  0.9658061E-01
          1   -1    0    0  501    0  0.00000000000E+00  0.00000000000E+00  0.79053399984E+03  0.79053399985E+03  0.50400000000E-02 0. -1.
         -1   -1    0    0    0  501 -0.00000000000E+00 -0.00000000000E+00 -0.68804899341E+03  0.68804899343E+03  0.50400000000E-02 0.  1.
    8880023    1    1    2    0    0  0.49166763364E+03 -0.77324369149E+02 -0.23469899175E+03  0.85825983421E+03  0.65864270000E+03 0.  0.
    8880022    1    1    2    0    0 -0.49166763364E+03  0.77324369149E+02  0.33718399818E+03  0.62032315907E+03  0.15294330000E+03 0.  0.
<mgrwt>
<rscale>  0 0.73569658E+03</rscale>
<asrwt>0</asrwt>
<pdfrwt beam="1">  1        1 0.12162061E+00 0.82554608E+03</pdfrwt>
<pdfrwt beam="2">  1       -1 0.10585369E+00 0.82554608E+03</pdfrwt>
<totfact> 0.19186567E+01</totfact>
</mgrwt>
</event>
<event>
 4    5  0.7767175E-008  0.9208792E+03  0.7818608E-02  0.9493312E-01
         -1   -1    0    0    0  501 -0.00000000000E+00  0.00000000000E+00  0.44997776761E+03  0.44997776764E+03  0.50400000000E-02 0.  1.
          1   -1    0    0  501    0  0.00000000000E+00 -0.00000000000E+00 -0.17497419218E+04  0.17497419219E+04  0.50400000000E-02 0. -1.
    8880023    1    1    2    0    0  0.63446704949E+03  0.10798064785E+03 -0.24201715078E+03  0.95215059982E+03  0.65864270000E+03 0.  0.
    8880022    1    1    2    0    0 -0.63446704949E+03 -0.10798064785E+03 -0.10577470035E+04  0.12475690897E+04  0.15294330000E+03 0.  0.
<mgrwt>
<rscale>  0 0.84778679E+03</rscale>
<asrwt>0</asrwt>
<pdfrwt beam="1">  1        1 0.26919106E+00 0.92087918E+03</pdfrwt>
<pdfrwt beam="2">  1       -1 0.69227350E-01 0.92087918E+03</pdfrwt>
<totfact> 0.94708650E+00</totfact>
</mgrwt>
</event>
<event>
 4    5  0.7767175E-008  0.1995008E+04  0.7818608E-02  0.8621705E-01
         -1   -1    0    0    0  501 -0.00000000000E+00  0.00000000000E+00  0.14170314108E+04  0.14170314108E+04  0.50400000000E-02 0.  1.
          1   -1    0    0  501    0  0.00000000000E+00 -0.00000000000E+00 -0.32487381157E+04  0.32487381157E+04  0.50400000000E-02 0. -1.
    8880023    1    1    2    0    0  0.16178220971E+04  0.96379398254E+03  0.54902354621E+02  0.19957634263E+04  0.65864270000E+03 0.  1.
    8880022    1    1    2    0    0 -0.16178220971E+04 -0.96379398254E+03 -0.18866090596E+04  0.26700061003E+04  0.15294330000E+03 0.  0.
<mgrwt>
<rscale>  0 0.19680518E+04</rscale>
<asrwt>0</asrwt>
<pdfrwt beam="1">  1        1 0.49980586E+00 0.19950081E+04</pdfrwt>
<pdfrwt beam="2">  1       -1 0.21800483E+00 0.19950081E+04</pdfrwt>
<totfact> 0.39577784E-02</totfact>
</mgrwt>
</event>
<event>
 4    5  0.7767175E-008  0.7452705E+03  0.7818608E-02  0.9844852E-01
         -1   -1    0    0    0  501 -0.00000000000E+00  0.00000000000E+00  0.24511883917E+03  0.24511883922E+03  0.50400000000E-02 0.  1.
          1   -1    0    0  501    0  0.00000000000E+00 -0.00000000000E+00 -0.25095257488E+04  0.25095257488E+04  0.50400000000E-02 0. -1.
    8880023    1    1    2    0    0 -0.30740545980E+03 -0.16468110046E+03 -0.38845212222E+03  0.84043038920E+03  0.65864270000E+03 0.  0.
    8880022    1    1    2    0    0  0.30740545980E+03  0.16468110046E+03 -0.18759547874E+04  0.19142141988E+04  0.15294330000E+03 0.  0.
<mgrwt>
<rscale>  0 0.63010087E+03</rscale>
<asrwt>0</asrwt>
<pdfrwt beam="1">  1        1 0.38608087E+00 0.74527055E+03</pdfrwt>
<pdfrwt beam="2">  1       -1 0.37710592E-01 0.74527055E+03</pdfrwt>
<totfact> 0.95455278E+00</totfact>
</mgrwt>
</event>
<event>
 4    5  0.7767175E-008  0.7489155E+03  0.7818608E-02  0.9834699E-01
          1   -1    0    0  501    0  0.00000000000E+00  0.00000000000E+00  0.24374179856E+04  0.24374179856E+04  0.50400000000E-02 0. -1.
         -1   -1    0    0    0  501 -0.00000000000E+00 -0.00000000000E+00 -0.26335992384E+03  0.26335992389E+03  0.50400000000E-02 0.  1.
    8880023    1    1    2    0    0  0.32461084933E+03 -0.14728214896E+03  0.33354116438E+03  0.81983178122E+03  0.65864270000E+03 0.  1.
    8880022    1    1    2    0    0 -0.32461084933E+03  0.14728214896E+03  0.18405168974E+04  0.18809461283E+04  0.15294330000E+03 0.  0.
<mgrwt>
<rscale>  0 0.63533205E+03</rscale>
<asrwt>0</asrwt>
<pdfrwt beam="1">  1        1 0.37498739E+00 0.74891551E+03</pdfrwt>
<pdfrwt beam="2">  1       -1 0.40516910E-01 0.74891551E+03</pdfrwt>
<totfact> 0.93796226E+00</totfact>
</mgrwt>
</event>
<event>
 4    5  0.7767175E-008  0.1034220E+04  0.7818608E-02  0.9338096E-01
         -1   -1    0    0    0  501 -0.00000000000E+00  0.00000000000E+00  0.53933445096E+03  0.53933445099E+03  0.50400000000E-02 0.  1.
          1   -1    0    0  501    0  0.00000000000E+00 -0.00000000000E+00 -0.22887916021E+04  0.22887916021E+04  0.50400000000E-02 0. -1.
    8880023    1    1    2    0    0  0.32942554180E+03  0.72614074868E+03 -0.16436974821E+03  0.10472006469E+04  0.65864270000E+03 0.  0.
    8880022    1    1    2    0    0 -0.32942554180E+03 -0.72614074868E+03 -0.15850874029E+04  0.17809254062E+04  0.15294330000E+03 0.  0.
<mgrwt>
<rscale>  0 0.97350102E+03</rscale>
<asrwt>0</asrwt>
<pdfrwt beam="1">  1        1 0.35212178E+00 0.10342204E+04</pdfrwt>
<pdfrwt beam="2">  1       -1 0.82974532E-01 0.10342204E+04</pdfrwt>
<totfact> 0.27614194E+00</totfact>
</mgrwt>
</event>
<event>
 4    5  0.7767175E-008  0.1519490E+04  0.7818608E-02  0.8895995E-01
          1   -1    0    0  501    0  0.00000000000E+00  0.00000000000E+00  0.17718309870E+04  0.17718309870E+04  0.50400000000E-02 0. -1.
         -1   -1    0    0    0  501 -0.00000000000E+00 -0.00000000000E+00 -0.16708129629E+04  0.16708129629E+04  0.50400000000E-02 0.  1.
    8880023    1    1    2    0    0 -0.13637017719E+04 -0.12392472003E+03 -0.87567086403E+03  0.17537529835E+04  0.65864270000E+03 0.  0.
    8880022    1    1    2    0    0  0.13637017719E+04  0.12392472003E+03  0.97668888818E+03  0.16888909663E+04  0.15294330000E+03 0.  0.
<mgrwt>
<rscale>  0 0.14827665E+04</rscale>
<asrwt>0</asrwt>
<pdfrwt beam="1">  1        1 0.27258938E+00 0.15194901E+04</pdfrwt>
<pdfrwt beam="2">  1       -1 0.25704815E+00 0.15194901E+04</pdfrwt>
<totfact> 0.25150931E-01</totfact>
</mgrwt>
</event>
<event>
 4    5  0.7767175E-008  0.9974565E+03  0.7818608E-02  0.9384893E-01
          1   -1    0    0  501    0  0.00000000000E+00  0.00000000000E+00  0.29484892346E+04  0.29484892346E+04  0.50400000000E-02 0. -1.
         -1   -1    0    0    0  501 -0.00000000000E+00 -0.00000000000E+00 -0.94654364138E+03  0.94654364139E+03  0.50400000000E-02 0.  1.
    8880023    1    1    2    0    0 -0.26546173291E+03 -0.70045655399E+03 -0.61290090502E+03  0.11707121941E+04  0.65864270000E+03 0.  1.
    8880022    1    1    2    0    0  0.26546173291E+03  0.70045655399E+03  0.26148464982E+04  0.27243206819E+04  0.15294330000E+03 0.  0.
<mgrwt>
<rscale>  0 0.93329435E+03</rscale>
<asrwt>0</asrwt>
<pdfrwt beam="1">  1        1 0.45361371E+00 0.99745653E+03</pdfrwt>
<pdfrwt beam="2">  1       -1 0.14562210E+00 0.99745653E+03</pdfrwt>
<totfact> 0.25287800E-01</totfact>
</mgrwt>
</event>
<event>
 4    5  0.7767175E-008  0.8488672E+03  0.7818608E-02  0.9613682E-01
         -1   -1    0    0    0  501 -0.00000000000E+00  0.00000000000E+00  0.73845727217E+03  0.73845727219E+03  0.50400000000E-02 0.  1.
          1   -1    0    0  501    0  0.00000000000E+00 -0.00000000000E+00 -0.99550490130E+03  0.99550490131E+03  0.50400000000E-02 0. -1.
    8880023    1    1    2    0    0  0.53547715156E+03  0.54349320007E+01  0.34277432528E+03  0.91546150256E+03  0.65864270000E+03 0.  0.
    8880022    1    1    2    0    0 -0.53547715156E+03 -0.54349320007E+01 -0.59982195441E+03  0.81850067094E+03  0.15294330000E+03 0.  0.
<mgrwt>
<rscale>  0 0.76397212E+03</rscale>
<asrwt>0</asrwt>
<pdfrwt beam="1">  1        1 0.15315460E+00 0.84886720E+03</pdfrwt>
<pdfrwt beam="2">  1       -1 0.11360881E+00 0.84886720E+03</pdfrwt>
<totfact> 0.10987273E+01</totfact>
</mgrwt>
</event>
<event>
 4    5  0.7767175E-008  0.9338729E+03  0.7818608E-02  0.9473707E-01
         -1   -1    0    0    0  501 -0.00000000000E+00  0.00000000000E+00  0.24180456338E+04  0.24180456338E+04  0.50400000000E-02 0.  1.
          1   -1    0    0  501    0  0.00000000000E+00 -0.00000000000E+00 -0.65708777329E+03  0.65708777331E+03  0.50400000000E-02 0. -1.
    8880023    1    1    2    0    0 -0.59688120986E+03 -0.28642831306E+03  0.21127787515E+04  0.23099680985E+04  0.65864270000E+03 0.  1.
    8880022    1    1    2    0    0  0.59688120986E+03  0.28642831306E+03 -0.35182089094E+03  0.76516530862E+03  0.15294330000E+03 0.  0.
<mgrwt>
<rscale>  0 0.86250339E+03</rscale>
<asrwt>0</asrwt>
<pdfrwt beam="1">  1        1 0.10109043E+00 0.93387288E+03</pdfrwt>
<pdfrwt beam="2">  1       -1 0.37200702E+00 0.93387288E+03</pdfrwt>
<totfact> 0.34337443E-01</totfact>
</mgrwt>
</event>
<event>
 4    5  0.7767175E-008  0.9715579E+03  0.7818608E-02  0.9419753E-01
         -1   -1    0    0    0  501 -0.00000000000E+00  0.00000000000E+00  0.50401992081E+03  0.50401992084E+03  0.50400000000E-02 0.  1.
          1   -1    0    0  501    0  0.00000000000E+00 -0.00000000000E+00 -0.16891055456E+04  0.16891055456E+04  0.50400000000E-02 0. -1.
    8880023    1    1    2    0    0 -0.69646860108E+03 -0.15825918828E+03 -0.24378681805E+03  0.10016769449E+04  0.65864270000E+03 0.  1.
    8880022    1    1    2    0    0  0.69646860108E+03  0.15825918828E+03 -0.94129880671E+03  0.11914485215E+04  0.15294330000E+03 0. -1.
<mgrwt>
<rscale>  0 0.90467780E+03</rscale>
<asrwt>0</asrwt>
<pdfrwt beam="1">  1        1 0.25986239E+00 0.97155787E+03</pdfrwt>
<pdfrwt beam="2">  1       -1 0.77541527E-01 0.97155787E+03</pdfrwt>
<totfact> 0.81707489E+00</totfact>
</mgrwt>
</event>
<event>
 4    5  0.7767175E-008  0.9182323E+03  0.7818608E-02  0.9497375E-01
         -1   -1    0    0    0  501 -0.00000000000E+00  0.00000000000E+00  0.71087619418E+03  0.71087619420E+03  0.50400000000E-02 0.  1.
          1   -1    0    0  501    0  0.00000000000E+00 -0.00000000000E+00 -0.14389111792E+04  0.14389111793E+04  0.50400000000E-02 0. -1.
    8880023    1    1    2    0    0 -0.62373237670E+03 -0.14247181190E+03  0.26762950550E+03  0.95643925756E+03  0.65864270000E+03 0.  0.
    8880022    1    1    2    0    0  0.62373237670E+03  0.14247181190E+03 -0.99566449057E+03  0.11933481159E+04  0.15294330000E+03 0.  0.
<mgrwt>
<rscale>  0 0.84477642E+03</rscale>
<asrwt>0</asrwt>
<pdfrwt beam="1">  1        1 0.22137095E+00 0.91823227E+03</pdfrwt>
<pdfrwt beam="2">  1       -1 0.10936557E+00 0.91823227E+03</pdfrwt>
<totfact> 0.56677533E+00</totfact>
</mgrwt>
</event>
<event>
 4    5  0.7767175E-008  0.6803953E+03  0.7818608E-02  0.1009101E+00
          1   -1    0    0  501    0  0.00000000000E+00  0.00000000000E+00  0.37906046135E+03  0.37906046139E+03  0.50400000000E-02 0. -1.
         -1   -1    0    0    0  501 -0.00000000000E+00 -0.00000000000E+00 -0.83977435584E+03  0.83977435585E+03  0.50400000000E-02 0.  1.
    8880023    1    1    2    0    0  0.15713477738E+03 -0.66605341050E+02 -0.63518741489E+03  0.93080656853E+03  0.65864270000E+03 0.  1.
    8880022    1    1    2    0    0 -0.15713477738E+03  0.66605341050E+02  0.17447352040E+03  0.28802824871E+03  0.15294330000E+03 0.  0.
<mgrwt>
<rscale>  0 0.51833535E+03</rscale>
<asrwt>0</asrwt>
<pdfrwt beam="1">  1        1 0.58316994E-01 0.68039534E+03</pdfrwt>
<pdfrwt beam="2">  1       -1 0.12919605E+00 0.68039534E+03</pdfrwt>
<totfact> 0.34176363E+01</totfact>
</mgrwt>
</event>
<event>
 4    5  0.7767175E-008  0.9897458E+03  0.7818608E-02  0.9395098E-01
          1   -1    0    0  501    0  0.00000000000E+00  0.00000000000E+00  0.19257388548E+04  0.19257388548E+04  0.50400000000E-02 0. -1.
         -1   -1    0    0    0  501 -0.00000000000E+00 -0.00000000000E+00 -0.10966338598E+04  0.10966338598E+04  0.50400000000E-02 0.  1.
    8880023    1    1    2    0    0  0.73280685361E+03  0.93704769783E+02 -0.77015910208E+03  0.12540899957E+04  0.65864270000E+03 0.  1.
    8880022    1    1    2    0    0 -0.73280685361E+03 -0.93704769783E+02  0.15992640971E+04  0.17682827189E+04  0.15294330000E+03 0.  0.
<mgrwt>
<rscale>  0 0.92480201E+03</rscale>
<asrwt>0</asrwt>
<pdfrwt beam="1">  1        1 0.29626752E+00 0.98974576E+03</pdfrwt>
<pdfrwt beam="2">  1       -1 0.16871290E+00 0.98974576E+03</pdfrwt>
<totfact> 0.85194360E-01</totfact>
</mgrwt>
</event>
<event>
 4    5  0.7767175E-008  0.1161872E+04  0.7818608E-02  0.9195107E-01
          1   -1    0    0  501    0  0.00000000000E+00  0.00000000000E+00  0.78765466713E+03  0.78765466715E+03  0.50400000000E-02 0. -1.
         -1   -1    0    0    0  501 -0.00000000000E+00 -0.00000000000E+00 -0.19157377777E+04  0.19157377777E+04  0.50400000000E-02 0.  1.
    8880023    1    1    2    0    0 -0.10023668708E+02 -0.95709732221E+03 -0.12727973594E+04  0.17233569225E+04  0.65864270000E+03 0.  0.
    8880022    1    1    2    0    0  0.10023668708E+02  0.95709732221E+03  0.14471424883E+03  0.98003552229E+03  0.15294330000E+03 0.  0.
<mgrwt>
<rscale>  0 0.11104073E+04</rscale>
<asrwt>0</asrwt>
<pdfrwt beam="1">  1        1 0.12117764E+00 0.11618718E+04</pdfrwt>
<pdfrwt beam="2">  1       -1 0.29472889E+00 0.11618718E+04</pdfrwt>
<totfact> 0.80284602E-01</totfact>
</mgrwt>
</event>
<event>
 4    5  0.7767175E-008  0.1724712E+04  0.7818608E-02  0.8765367E-01
         -1   -1    0    0    0  501 -0.00000000000E+00  0.00000000000E+00  0.20327667193E+04  0.20327667193E+04  0.50400000000E-02 0.  1.
          1   -1    0    0  501    0  0.00000000000E+00 -0.00000000000E+00 -0.22999298837E+04  0.22999298838E+04  0.50400000000E-02 0. -1.
    8880023    1    1    2    0    0  0.32138974896E+03 -0.15612592628E+04  0.12474421378E+04  0.21285544273E+04  0.65864270000E+03 0.  0.
    8880022    1    1    2    0    0 -0.32138974896E+03  0.15612592628E+04 -0.15146053023E+04  0.22041421758E+04  0.15294330000E+03 0.  0.
<mgrwt>
<rscale>  0 0.16929992E+04</rscale>
<asrwt>0</asrwt>
<pdfrwt beam="1">  1        1 0.35383537E+00 0.17247122E+04</pdfrwt>
<pdfrwt beam="2">  1       -1 0.31273334E+00 0.17247122E+04</pdfrwt>
<totfact> 0.46553648E-02</totfact>
</mgrwt>
</event>
<event>
 4    5  0.7767175E-008  0.8731595E+03  0.7818608E-02  0.9570571E-01
         -1   -1    0    0    0  501 -0.00000000000E+00  0.00000000000E+00  0.21561639434E+03  0.21561639439E+03  0.50400000000E-02 0.  1.
          1   -1    0    0  501    0  0.00000000000E+00 -0.00000000000E+00 -0.34278118905E+04  0.34278118905E+04  0.50400000000E-02 0. -1.
    8880023    1    1    2    0    0 -0.13550669640E+03  0.55698768618E+03 -0.89061264563E+03  0.12472363201E+04  0.65864270000E+03 0.  0.
    8880022    1    1    2    0    0  0.13550669640E+03 -0.55698768618E+03 -0.23215828505E+04  0.23961919648E+04  0.15294330000E+03 0.  0.
<mgrwt>
<rscale>  0 0.79275015E+03</rscale>
<asrwt>0</asrwt>
<pdfrwt beam="1">  1        1 0.52735564E+00 0.87315952E+03</pdfrwt>
<pdfrwt beam="2">  1       -1 0.33171755E-01 0.87315952E+03</pdfrwt>
<totfact> 0.25704764E+00</totfact>
</mgrwt>
</event>
<event>
 4    5  0.7767175E-008  0.8914270E+03  0.7818608E-02  0.9539937E-01
          1   -1    0    0  501    0  0.00000000000E+00  0.00000000000E+00  0.20965574026E+04  0.20965574026E+04  0.50400000000E-02 0. -1.
         -1   -1    0    0    0  501 -0.00000000000E+00 -0.00000000000E+00 -0.55065595028E+03  0.55065595030E+03  0.50400000000E-02 0.  1.
    8880023    1    1    2    0    0 -0.19095787114E+03  0.56953225359E+03 -0.91789961014E+02  0.89614033479E+03  0.65864270000E+03 0.  0.
    8880022    1    1    2    0    0  0.19095787114E+03 -0.56953225359E+03  0.16376914133E+04  0.17510730181E+04  0.15294330000E+03 0.  0.
<mgrwt>
<rscale>  0 0.81402424E+03</rscale>
<asrwt>0</asrwt>
<pdfrwt beam="1">  1        1 0.32254729E+00 0.89142700E+03</pdfrwt>
<pdfrwt beam="2">  1       -1 0.84716301E-01 0.89142700E+03</pdfrwt>
<totfact> 0.36341479E+00</totfact>
</mgrwt>
</event>
<event>
 4    5  0.7767175E-008  0.8977661E+03  0.7818608E-02  0.9529627E-01
          1   -1    0    0  501    0  0.00000000000E+00  0.00000000000E+00  0.95520843978E+03  0.95520843979E+03  0.50400000000E-02 0. -1.
         -1   -1    0    0    0  501 -0.00000000000E+00 -0.00000000000E+00 -0.12487894885E+04  0.12487894886E+04  0.50400000000E-02 0.  1.
    8880023    1    1    2    0    0  0.38076701590E+03 -0.47664472043E+03 -0.94156767811E+03  0.13009740999E+04  0.65864270000E+03 0.  0.
    8880022    1    1    2    0    0 -0.38076701590E+03  0.47664472043E+03  0.64798662934E+03  0.90302382844E+03  0.15294330000E+03 0.  0.
<mgrwt>
<rscale>  0 0.82134321E+03</rscale>
<asrwt>0</asrwt>
<pdfrwt beam="1">  1        1 0.14695515E+00 0.89776607E+03</pdfrwt>
<pdfrwt beam="2">  1       -1 0.19212146E+00 0.89776607E+03</pdfrwt>
<totfact> 0.28517001E+00</totfact>
</mgrwt>
</event>
<event>
 4    5  0.7767175E-008  0.1323685E+04  0.7818608E-02  0.9045371E-01
          1   -1    0    0  501    0  0.00000000000E+00  0.00000000000E+00  0.22784582968E+04  0.22784582968E+04  0.50400000000E-02 0. -1.
         -1   -1    0    0    0  501 -0.00000000000E+00 -0.00000000000E+00 -0.78122235491E+03  0.78122235493E+03  0.50400000000E-02 0.  1.
    8880023    1    1    2    0    0 -0.11415394023E+04 -0.12336975705E+03  0.23123398541E+03  0.13437305036E+04  0.65864270000E+03 0.  0.
    8880022    1    1    2    0    0  0.11415394023E+04  0.12336975705E+03  0.12660019565E+04  0.17159501481E+04  0.15294330000E+03 0.  0.
<mgrwt>
<rscale>  0 0.12802549E+04</rscale>
<asrwt>0</asrwt>
<pdfrwt beam="1">  1        1 0.35053204E+00 0.13236852E+04</pdfrwt>
<pdfrwt beam="2">  1       -1 0.12018806E+00 0.13236852E+04</pdfrwt>
<totfact> 0.11540344E+00</totfact>
</mgrwt>
</event>
<event>
 4    5  0.7767175E-008  0.1095659E+04  0.7818608E-02  0.9265905E-01
         -1   -1    0    0    0  501 -0.00000000000E+00  0.00000000000E+00  0.92389096690E+03  0.92389096691E+03  0.50400000000E-02 0.  1.
          1   -1    0    0  501    0  0.00000000000E+00 -0.00000000000E+00 -0.12170488315E+04  0.12170488315E+04  0.50400000000E-02 0. -1.
    8880023    1    1    2    0    0 -0.60943360186E+03 -0.62868819718E+03  0.21577290987E+03  0.11167033264E+04  0.65864270000E+03 0.  0.
    8880022    1    1    2    0    0  0.60943360186E+03  0.62868819718E+03 -0.50893077447E+03  0.10242364720E+04  0.15294330000E+03 0.  0.
<mgrwt>
<rscale>  0 0.10398324E+04</rscale>
<asrwt>0</asrwt>
<pdfrwt beam="1">  1        1 0.18723828E+00 0.10956589E+04</pdfrwt>
<pdfrwt beam="2">  1       -1 0.14213707E+00 0.10956589E+04</pdfrwt>
<totfact> 0.41508314E+00</totfact>
</mgrwt>
</event>
<event>
 4    5  0.7767175E-008  0.9076371E+03  0.7818608E-02  0.9513881E-01
          1   -1    0    0  501    0  0.00000000000E+00  0.00000000000E+00  0.83799026313E+03  0.83799026315E+03  0.50400000000E-02 0. -1.
         -1   -1    0    0    0  501 -0.00000000000E+00 -0.00000000000E+00 -0.13853346690E+04  0.13853346690E+04  0.50400000000E-02 0.  1.
    8880023    1    1    2    0    0 -0.49187301746E+03 -0.38478018977E+03 -0.10639818092E+04  0.13985214894E+04  0.65864270000E+03 0.  0.
    8880022    1    1    2    0    0  0.49187301746E+03  0.38478018977E+03  0.51663740329E+03  0.82480344279E+03  0.15294330000E+03 0.  0.
<mgrwt>
<rscale>  0 0.83268110E+03</rscale>
<asrwt>0</asrwt>
<pdfrwt beam="1">  1        1 0.12892158E+00 0.90763708E+03</pdfrwt>
<pdfrwt beam="2">  1       -1 0.21312841E+00 0.90763708E+03</pdfrwt>
<totfact> 0.25530522E+00</totfact>
</mgrwt>
</event>
<event>
 4    5  0.7767175E-008  0.9416102E+03  0.7818608E-02  0.9462289E-01
          1   -1    0    0  501    0  0.00000000000E+00  0.00000000000E+00  0.12497209191E+04  0.12497209191E+04  0.50400000000E-02 0. -1.
         -1   -1    0    0    0  501 -0.00000000000E+00 -0.00000000000E+00 -0.65548569291E+03  0.65548569293E+03  0.50400000000E-02 0.  1.
    8880023    1    1    2    0    0  0.44808264623E+03 -0.50203738951E+03 -0.74122126642E+02  0.94452310413E+03  0.65864270000E+03 0.  0.
    8880022    1    1    2    0    0 -0.44808264623E+03  0.50203738951E+03  0.66835735286E+03  0.96068350795E+03  0.15294330000E+03 0.  0.
<mgrwt>
<rscale>  0 0.87122099E+03</rscale>
<asrwt>0</asrwt>
<pdfrwt beam="1">  1        1 0.19226476E+00 0.94161022E+03</pdfrwt>
<pdfrwt beam="2">  1       -1 0.10084395E+00 0.94161022E+03</pdfrwt>
<totfact> 0.92858837E+00</totfact>
</mgrwt>
</event>
<event>
 4    5  0.7767175E-008  0.7807688E+03  0.7818608E-02  0.9754034E-01
         -1   -1    0    0    0  501 -0.00000000000E+00  0.00000000000E+00  0.13942073450E+04  0.13942073450E+04  0.50400000000E-02 0.  1.
          1   -1    0    0  501    0  0.00000000000E+00 -0.00000000000E+00 -0.24675911748E+04  0.24675911748E+04  0.50400000000E-02 0. -1.
    8880023    1    1    2    0    0 -0.21979352818E+03  0.35704404321E+03  0.12620856382E+04  0.14840687344E+04  0.65864270000E+03 0.  1.
    8880022    1    1    2    0    0  0.21979352818E+03 -0.35704404321E+03 -0.23354694680E+04  0.23777297855E+04  0.15294330000E+03 0.  0.
<mgrwt>
<rscale>  0 0.67888762E+03</rscale>
<asrwt>0</asrwt>
<pdfrwt beam="1">  1        1 0.37962941E+00 0.78076876E+03</pdfrwt>
<pdfrwt beam="2">  1       -1 0.21449344E+00 0.78076876E+03</pdfrwt>
<totfact> 0.18318880E-01</totfact>
</mgrwt>
</event>
<event>
 4    5  0.7767175E-008  0.6752558E+03  0.7818608E-02  0.1012146E+00
         -1   -1    0    0    0  501 -0.00000000000E+00  0.00000000000E+00  0.58260905546E+03  0.58260905548E+03  0.50400000000E-02 0.  1.
          1   -1    0    0  501    0  0.00000000000E+00 -0.00000000000E+00 -0.12143558521E+04  0.12143558521E+04  0.50400000000E-02 0. -1.
    8880023    1    1    2    0    0 -0.36152695297E+02 -0.14440621255E+03  0.37188650703E+03  0.77088906593E+03  0.65864270000E+03 0.  1.
    8880022    1    1    2    0    0  0.36152695297E+02  0.14440621255E+03 -0.10036333037E+04  0.10260758417E+04  0.15294330000E+03 0.  0.
<mgrwt>
<rscale>  0 0.50630761E+03</rscale>
<asrwt>0</asrwt>
<pdfrwt beam="1">  1        1 0.18682398E+00 0.67525579E+03</pdfrwt>
<pdfrwt beam="2">  1       -1 0.89632162E-01 0.67525579E+03</pdfrwt>
<totfact> 0.13281561E+01</totfact>
</mgrwt>
</event>
<event>
 4    5  0.7767175E-008  0.8410992E+03  0.7818608E-02  0.9628111E-01
          1   -1    0    0  501    0  0.00000000000E+00  0.00000000000E+00  0.18893039872E+04  0.18893039872E+04  0.50400000000E-02 0. -1.
         -1   -1    0    0    0  501 -0.00000000000E+00 -0.00000000000E+00 -0.31027055975E+03  0.31027055979E+03  0.50400000000E-02 0.  1.
    8880023    1    1    2    0    0 -0.49049443045E+03  0.18180467259E+03  0.46913615537E+03  0.96308704893E+03  0.65864270000E+03 0.  1.
    8880022    1    1    2    0    0  0.49049443045E+03 -0.18180467259E+03  0.11098972721E+04  0.12364874980E+04  0.15294330000E+03 0.  0.
<mgrwt>
<rscale>  0 0.75463224E+03</rscale>
<asrwt>0</asrwt>
<pdfrwt beam="1">  1        1 0.29066215E+00 0.84109924E+03</pdfrwt>
<pdfrwt beam="2">  1       -1 0.47733932E-01 0.84109924E+03</pdfrwt>
<totfact> 0.15968243E+01</totfact>
</mgrwt>
</event>
<event>
 4    5  0.7767175E-008  0.8652721E+03  0.7818608E-02  0.9584253E-01
          1   -1    0    0  501    0  0.00000000000E+00  0.00000000000E+00  0.10613654059E+04  0.10613654059E+04  0.50400000000E-02 0. -1.
         -1   -1    0    0    0  501 -0.00000000000E+00 -0.00000000000E+00 -0.12433441751E+04  0.12433441751E+04  0.50400000000E-02 0.  1.
    8880023    1    1    2    0    0 -0.54796877897E+03  0.12089606048E+03 -0.98635056395E+03  0.13120911864E+04  0.65864270000E+03 0.  1.
    8880022    1    1    2    0    0  0.54796877897E+03 -0.12089606048E+03  0.80437179469E+03  0.99261839459E+03  0.15294330000E+03 0.  0.
<mgrwt>
<rscale>  0 0.78347229E+03</rscale>
<asrwt>0</asrwt>
<pdfrwt beam="1">  1        1 0.16328699E+00 0.86527212E+03</pdfrwt>
<pdfrwt beam="2">  1       -1 0.19128372E+00 0.86527212E+03</pdfrwt>
<totfact> 0.24017114E+00</totfact>
</mgrwt>
</event>
<event>
 4    5  0.7767175E-008  0.7436825E+03  0.7818608E-02  0.9849347E-01
          1   -1    0    0  501    0  0.00000000000E+00  0.00000000000E+00  0.96642703060E+03  0.96642703061E+03  0.50400000000E-02 0. -1.
         -1   -1    0    0    0  501 -0.00000000000E+00 -0.00000000000E+00 -0.56419366680E+03  0.56419366683E+03  0.50400000000E-02 0.  1.
    8880023    1    1    2    0    0  0.20206535544E+03 -0.28004104056E+03 -0.24351168895E+03  0.78253532903E+03  0.65864270000E+03 0.  1.
    8880022    1    1    2    0    0 -0.20206535544E+03  0.28004104056E+03  0.64574505274E+03  0.74808536841E+03  0.15294330000E+03 0.  0.
<mgrwt>
<rscale>  0 0.62780206E+03</rscale>
<asrwt>0</asrwt>
<pdfrwt beam="1">  1        1 0.14868108E+00 0.74368246E+03</pdfrwt>
<pdfrwt beam="2">  1       -1 0.86799027E-01 0.74368246E+03</pdfrwt>
<totfact> 0.21650359E+01</totfact>
</mgrwt>
</event>
<event>
 4    5  0.7767175E-008  0.1031497E+04  0.7818608E-02  0.9341463E-01
          1   -1    0    0  501    0  0.00000000000E+00  0.00000000000E+00  0.16249866969E+04  0.16249866969E+04  0.50400000000E-02 0. -1.
         -1   -1    0    0    0  501 -0.00000000000E+00 -0.00000000000E+00 -0.76132439399E+03  0.76132439401E+03  0.50400000000E-02 0.  1.
    8880023    1    1    2    0    0  0.66941267983E+03  0.42668679661E+03 -0.19958033014E+03  0.10506271807E+04  0.65864270000E+03 0.  0.
    8880022    1    1    2    0    0 -0.66941267983E+03 -0.42668679661E+03  0.10632426330E+04  0.13356839102E+04  0.15294330000E+03 0.  0.
<mgrwt>
<rscale>  0 0.97053694E+03</rscale>
<asrwt>0</asrwt>
<pdfrwt beam="1">  1        1 0.24999795E+00 0.10314966E+04</pdfrwt>
<pdfrwt beam="2">  1       -1 0.11712683E+00 0.10314966E+04</pdfrwt>
<totfact> 0.35317610E+00</totfact>
</mgrwt>
</event>
<event>
 4    5  0.7767175E-008  0.7908993E+03  0.7818608E-02  0.9730831E-01
         -1   -1    0    0    0  501 -0.00000000000E+00  0.00000000000E+00  0.36829617553E+03  0.36829617556E+03  0.50400000000E-02 0.  1.
          1   -1    0    0  501    0  0.00000000000E+00 -0.00000000000E+00 -0.23133903986E+04  0.23133903986E+04  0.50400000000E-02 0. -1.
    8880023    1    1    2    0    0 -0.36454947727E+03  0.24251827364E+03 -0.12166982374E+03  0.80020321588E+03  0.65864270000E+03 0.  1.
    8880022    1    1    2    0    0  0.36454947727E+03 -0.24251827364E+03 -0.18234243993E+04  0.18814833582E+04  0.15294330000E+03 0.  0.
<mgrwt>
<rscale>  0 0.69210456E+03</rscale>
<asrwt>0</asrwt>
<pdfrwt beam="1">  1        1 0.35590621E+00 0.79089926E+03</pdfrwt>
<pdfrwt beam="2">  1       -1 0.56660952E-01 0.79089926E+03</pdfrwt>
<totfact> 0.60148268E+00</totfact>
</mgrwt>
</event>
<event>
 4    5  0.7767175E-008  0.9618290E+03  0.7818608E-02  0.9433295E-01
          1   -1    0    0  501    0  0.00000000000E+00  0.00000000000E+00  0.30455419995E+04  0.30455419995E+04  0.50400000000E-02 0. -1.
         -1   -1    0    0    0  501 -0.00000000000E+00 -0.00000000000E+00 -0.68990678962E+03  0.68990678964E+03  0.50400000000E-02 0.  1.
    8880023    1    1    2    0    0 -0.59582132328E+03 -0.36919062561E+03 -0.28173496892E+03  0.10022422693E+04  0.65864270000E+03 0.  0.
    8880022    1    1    2    0    0  0.59582132328E+03  0.36919062561E+03  0.26373701788E+04  0.27332065199E+04  0.15294330000E+03 0.  0.
<mgrwt>
<rscale>  0 0.89385543E+03</rscale>
<asrwt>0</asrwt>
<pdfrwt beam="1">  1        1 0.46854492E+00 0.96182897E+03</pdfrwt>
<pdfrwt beam="2">  1       -1 0.10613951E+00 0.96182897E+03</pdfrwt>
<totfact> 0.47611132E-01</totfact>
</mgrwt>
</event>
<event>
 4    5  0.7767175E-008  0.2308898E+04  0.7818608E-02  0.8483504E-01
          1   -1    0    0  501    0  0.00000000000E+00  0.00000000000E+00  0.29580670983E+04  0.29580670983E+04  0.50400000000E-02 0. -1.
         -1   -1    0    0    0  501 -0.00000000000E+00 -0.00000000000E+00 -0.25344143178E+04  0.25344143178E+04  0.50400000000E-02 0.  1.
    8880023    1    1    2    0    0  0.21614778141E+04 -0.47456809188E+03 -0.13301919605E+04  0.26646617183E+04  0.65864270000E+03 0.  0.
    8880022    1    1    2    0    0 -0.21614778141E+04  0.47456809188E+03  0.17538447410E+04  0.28278196978E+04  0.15294330000E+03 0.  0.
<mgrwt>
<rscale>  0 0.22858924E+04</rscale>
<asrwt>0</asrwt>
<pdfrwt beam="1">  1        1 0.45508725E+00 0.23088983E+04</pdfrwt>
<pdfrwt beam="2">  1       -1 0.38990989E+00 0.23088983E+04</pdfrwt>
<totfact> 0.45747588E-03</totfact>
</mgrwt>
</event>
<event>
 4    5  0.7767175E-008  0.7476943E+03  0.7818608E-02  0.9838076E-01
         -1   -1    0    0    0  501 -0.00000000000E+00  0.00000000000E+00  0.57481528721E+03  0.57481528723E+03  0.50400000000E-02 0.  1.
          1   -1    0    0  501    0  0.00000000000E+00 -0.00000000000E+00 -0.88256302400E+03  0.88256302401E+03  0.50400000000E-02 0. -1.
    8880023    1    1    2    0    0 -0.15896409866E+03  0.31617549253E+03  0.24203724669E+03  0.78589360717E+03  0.65864270000E+03 0.  1.
    8880022    1    1    2    0    0  0.15896409866E+03 -0.31617549253E+03 -0.54978498347E+03  0.67148470408E+03  0.15294330000E+03 0.  0.
<mgrwt>
<rscale>  0 0.63358617E+03</rscale>
<asrwt>0</asrwt>
<pdfrwt beam="1">  1        1 0.13577893E+00 0.74769428E+03</pdfrwt>
<pdfrwt beam="2">  1       -1 0.88433121E-01 0.74769428E+03</pdfrwt>
<totfact> 0.24266220E+01</totfact>
</mgrwt>
</event>
<event>
 4    5  0.7767175E-008  0.1285285E+04  0.7818608E-02  0.9078373E-01
          1   -1    0    0  501    0  0.00000000000E+00  0.00000000000E+00  0.17107719817E+04  0.17107719817E+04  0.50400000000E-02 0. -1.
         -1   -1    0    0    0  501 -0.00000000000E+00 -0.00000000000E+00 -0.22140399115E+04  0.22140399115E+04  0.50400000000E-02 0.  1.
    8880023    1    1    2    0    0  0.10275370187E+04 -0.40288210246E+03 -0.18021247189E+04  0.22135062733E+04  0.65864270000E+03 0.  1.
    8880022    1    1    2    0    0 -0.10275370187E+04  0.40288210246E+03  0.12988567890E+04  0.17113056199E+04  0.15294330000E+03 0.  0.
<mgrwt>
<rscale>  0 0.12402079E+04</rscale>
<asrwt>0</asrwt>
<pdfrwt beam="1">  1        1 0.26319569E+00 0.12852846E+04</pdfrwt>
<pdfrwt beam="2">  1       -1 0.34062152E+00 0.12852846E+04</pdfrwt>
<totfact> 0.81823929E-02</totfact>
</mgrwt>
</event>
<event>
 4    5  0.7767175E-008  0.1708582E+04  0.7818608E-02  0.8774865E-01
          1   -1    0    0  501    0  0.00000000000E+00  0.00000000000E+00  0.15399981956E+04  0.15399981956E+04  0.50400000000E-02 0. -1.
         -1   -1    0    0    0  501 -0.00000000000E+00 -0.00000000000E+00 -0.17859178406E+04  0.17859178406E+04  0.50400000000E-02 0.  1.
    8880023    1    1    2    0    0 -0.69281729655E+03  0.14161383206E+04  0.73236443623E+02  0.17101512601E+04  0.65864270000E+03 0.  1.
    8880022    1    1    2    0    0  0.69281729655E+03 -0.14161383206E+04 -0.31915608862E+03  0.16157647760E+04  0.15294330000E+03 0.  0.
<mgrwt>
<rscale>  0 0.16765286E+04</rscale>
<asrwt>0</asrwt>
<pdfrwt beam="1">  1        1 0.23692280E+00 0.17085824E+04</pdfrwt>
<pdfrwt beam="2">  1       -1 0.27475659E+00 0.17085824E+04</pdfrwt>
<totfact> 0.27310142E-01</totfact>
</mgrwt>
</event>
<event>
 4    5  0.7767175E-008  0.7248200E+03  0.7818608E-02  0.9906602E-01
          1   -1    0    0  501    0  0.00000000000E+00  0.00000000000E+00  0.68496083288E+03  0.68496083289E+03  0.50400000000E-02 0. -1.
         -1   -1    0    0    0  501 -0.00000000000E+00 -0.00000000000E+00 -0.59567875085E+03  0.59567875087E+03  0.50400000000E-02 0.  1.
    8880023    1    1    2    0    0 -0.45239666086E+02  0.29917757795E+03 -0.28209624040E+03  0.77778039680E+03  0.65864270000E+03 0.  0.
    8880022    1    1    2    0    0  0.45239666086E+02 -0.29917757795E+03  0.37137832243E+03  0.50285918697E+03  0.15294330000E+03 0.  0.
<mgrwt>
<rscale>  0 0.59942401E+03</rscale>
<asrwt>0</asrwt>
<pdfrwt beam="1">  1        1 0.10537859E+00 0.72482002E+03</pdfrwt>
<pdfrwt beam="2">  1       -1 0.91642885E-01 0.72482002E+03</pdfrwt>
<totfact> 0.33553490E+01</totfact>
</mgrwt>
</event>
<event>
 4    5  0.7767175E-008  0.7811484E+03  0.7818608E-02  0.9753146E-01
         -1   -1    0    0    0  501 -0.00000000000E+00  0.00000000000E+00  0.90176722849E+03  0.90176722850E+03  0.50400000000E-02 0.  1.
          1   -1    0    0  501    0  0.00000000000E+00 -0.00000000000E+00 -0.49083570614E+03  0.49083570616E+03  0.50400000000E-02 0. -1.
    8880023    1    1    2    0    0  0.16594875631E+03 -0.38580247679E+03  0.51247781729E+03  0.93425171142E+03  0.65864270000E+03 0.  0.
    8880022    1    1    2    0    0 -0.16594875631E+03  0.38580247679E+03 -0.10154629494E+03  0.45835122324E+03  0.15294330000E+03 0.  0.
<mgrwt>
<rscale>  0 0.67938752E+03</rscale>
<asrwt>0</asrwt>
<pdfrwt beam="1">  1        1 0.75513185E-01 0.78114835E+03</pdfrwt>
<pdfrwt beam="2">  1       -1 0.13873342E+00 0.78114835E+03</pdfrwt>
<totfact> 0.19959856E+01</totfact>
</mgrwt>
</event>
<event>
 4    5  0.7767175E-008  0.8544800E+03  0.7818608E-02  0.9603459E-01
         -1   -1    0    0    0  501 -0.00000000000E+00  0.00000000000E+00  0.11971690586E+04  0.11971690586E+04  0.50400000000E-02 0.  1.
          1   -1    0    0  501    0  0.00000000000E+00 -0.00000000000E+00 -0.13066959855E+04  0.13066959855E+04  0.50400000000E-02 0. -1.
    8880023    1    1    2    0    0  0.45872586964E+03  0.29308104251E+03  0.96543392348E+03  0.12892628855E+04  0.65864270000E+03 0.  0.
    8880022    1    1    2    0    0 -0.45872586964E+03 -0.29308104251E+03 -0.10749608504E+04  0.12146021587E+04  0.15294330000E+03 0.  0.
<mgrwt>
<rscale>  0 0.77067674E+03</rscale>
<asrwt>0</asrwt>
<pdfrwt beam="1">  1        1 0.20103015E+00 0.85448003E+03</pdfrwt>
<pdfrwt beam="2">  1       -1 0.18417985E+00 0.85448003E+03</pdfrwt>
<totfact> 0.17852499E+00</totfact>
</mgrwt>
</event>
<event>
 4    5  0.7767175E-008  0.1415088E+04  0.7818608E-02  0.8972047E-01
         -1   -1    0    0    0  501 -0.00000000000E+00  0.00000000000E+00  0.70683196068E+03  0.70683196069E+03  0.50400000000E-02 0.  1.
          1   -1    0    0  501    0  0.00000000000E+00 -0.00000000000E+00 -0.35476513555E+04  0.35476513555E+04  0.50400000000E-02 0. -1.
    8880023    1    1    2    0    0 -0.10739389804E+03  0.12478503501E+04 -0.34300221825E+03  0.14560647903E+04  0.65864270000E+03 0.  0.
    8880022    1    1    2    0    0  0.10739389804E+03 -0.12478503501E+04 -0.24978171766E+04  0.27984185259E+04  0.15294330000E+03 0.  0.
<mgrwt>
<rscale>  0 0.13750940E+04</rscale>
<asrwt>0</asrwt>
<pdfrwt beam="1">  1        1 0.54579251E+00 0.14150880E+04</pdfrwt>
<pdfrwt beam="2">  1       -1 0.10874338E+00 0.14150880E+04</pdfrwt>
<totfact> 0.17480793E-01</totfact>
</mgrwt>
</event>
<event>
 4    5  0.7767175E-008  0.7905607E+03  0.7818608E-02  0.9731590E-01
         -1   -1    0    0    0  501 -0.00000000000E+00  0.00000000000E+00  0.49893276765E+03  0.49893276768E+03  0.50400000000E-02 0.  1.
          1   -1    0    0  501    0  0.00000000000E+00 -0.00000000000E+00 -0.15097732965E+04  0.15097732965E+04  0.50400000000E-02 0. -1.
    8880023    1    1    2    0    0 -0.29233383149E+03  0.32514151759E+03  0.10787156925E+03  0.79788630594E+03  0.65864270000E+03 0.  0.
    8880022    1    1    2    0    0  0.29233383149E+03 -0.32514151759E+03 -0.11187120981E+04  0.12108197583E+04  0.15294330000E+03 0.  0.
<mgrwt>
<rscale>  0 0.69166688E+03</rscale>
<asrwt>0</asrwt>
<pdfrwt beam="1">  1        1 0.23227281E+00 0.79056074E+03</pdfrwt>
<pdfrwt beam="2">  1       -1 0.76758888E-01 0.79056074E+03</pdfrwt>
<totfact> 0.11317754E+01</totfact>
</mgrwt>
</event>
<event>
 4    5  0.7767175E-008  0.1005777E+04  0.7818608E-02  0.9374038E-01
         -1   -1    0    0    0  501 -0.00000000000E+00  0.00000000000E+00  0.79741953142E+03  0.79741953143E+03  0.50400000000E-02 0.  1.
          1   -1    0    0  501    0  0.00000000000E+00 -0.00000000000E+00 -0.16523129436E+04  0.16523129436E+04  0.50400000000E-02 0. -1.
    8880023    1    1    2    0    0 -0.54844818714E+03  0.52629136788E+03 -0.12296256205E+04  0.15885740117E+04  0.65864270000E+03 0.  0.
    8880022    1    1    2    0    0  0.54844818714E+03 -0.52629136788E+03  0.37473220836E+03  0.86115846328E+03  0.15294330000E+03 0.  0.
<mgrwt>
<rscale>  0 0.94243421E+03</rscale>
<asrwt>0</asrwt>
<pdfrwt beam="1">  1        1 0.25420199E+00 0.10057774E+04</pdfrwt>
<pdfrwt beam="2">  1       -1 0.12267993E+00 0.10057774E+04</pdfrwt>
<totfact> 0.30304632E+00</totfact>
</mgrwt>
</event>
<event>
 4    5  0.7767175E-008  0.1429454E+04  0.7818608E-02  0.8961128E-01
          1   -1    0    0  501    0  0.00000000000E+00  0.00000000000E+00  0.43248213722E+04  0.43248213722E+04  0.50400000000E-02 0. -1.
         -1   -1    0    0    0  501 -0.00000000000E+00 -0.00000000000E+00 -0.52597122844E+03  0.52597122846E+03  0.50400000000E-02 0.  1.
    8880023    1    1    2    0    0 -0.51361293871E+03 -0.11600558035E+04  0.91690570641E+03  0.16982502756E+04  0.65864270000E+03 0.  0.
    8880022    1    1    2    0    0  0.51361293871E+03  0.11600558035E+04  0.28819444373E+04  0.31525423250E+04  0.15294330000E+03 0.  0.
<mgrwt>
<rscale>  0 0.13899468E+04</rscale>
<asrwt>0</asrwt>
<pdfrwt beam="1">  1        1 0.66535714E+00 0.14294537E+04</pdfrwt>
<pdfrwt beam="2">  1       -1 0.80918650E-01 0.14294537E+04</pdfrwt>
<totfact> 0.72456099E-02</totfact>
</mgrwt>
</event>
<event>
 4    5  0.7767175E-008  0.7359894E+03  0.7818608E-02  0.9871787E-01
          1   -1    0    0  501    0  0.00000000000E+00  0.00000000000E+00  0.13151290783E+04  0.13151290783E+04  0.50400000000E-02 0. -1.
         -1   -1    0    0    0  501 -0.00000000000E+00 -0.00000000000E+00 -0.52887984158E+03  0.52887984160E+03  0.50400000000E-02 0.  1.
    8880023    1    1    2    0    0  0.30275849176E+03 -0.12730871820E+03 -0.22516520170E+03  0.76966212612E+03  0.65864270000E+03 0.  1.
    8880022    1    1    2    0    0 -0.30275849176E+03  0.12730871820E+03  0.10114144384E+04  0.10743467938E+04  0.15294330000E+03 0.  0.
<mgrwt>
<rscale>  0 0.61648285E+03</rscale>
<asrwt>0</asrwt>
<pdfrwt beam="1">  1        1 0.20232755E+00 0.73598942E+03</pdfrwt>
<pdfrwt beam="2">  1       -1 0.81366129E-01 0.73598942E+03</pdfrwt>
<totfact> 0.13757283E+01</totfact>
</mgrwt>
</event>
<event>
 4    5  0.7767175E-008  0.1022223E+04  0.7818608E-02  0.9353044E-01
          1   -1    0    0  501    0  0.00000000000E+00  0.00000000000E+00  0.13319622431E+04  0.13319622431E+04  0.50400000000E-02 0. -1.
         -1   -1    0    0    0  501 -0.00000000000E+00 -0.00000000000E+00 -0.86954905219E+03  0.86954905221E+03  0.50400000000E-02 0.  1.
    8880023    1    1    2    0    0  0.35808326478E+03 -0.69491394062E+03  0.83708196089E+03  0.13212287557E+04  0.65864270000E+03 0.  0.
    8880022    1    1    2    0    0 -0.35808326478E+03  0.69491394062E+03 -0.37466876997E+03  0.88028253963E+03  0.15294330000E+03 0.  0.
<mgrwt>
<rscale>  0 0.96042810E+03</rscale>
<asrwt>0</asrwt>
<pdfrwt beam="1">  1        1 0.20491727E+00 0.10222227E+04</pdfrwt>
<pdfrwt beam="2">  1       -1 0.13377678E+00 0.10222227E+04</pdfrwt>
<totfact> 0.40524941E+00</totfact>
</mgrwt>
</event>
<event>
 4    5  0.7767175E-008  0.1271292E+04  0.7818608E-02  0.9090756E-01
          1   -1    0    0  501    0  0.00000000000E+00  0.00000000000E+00  0.22710792435E+04  0.22710792435E+04  0.50400000000E-02 0. -1.
         -1   -1    0    0    0  501 -0.00000000000E+00 -0.00000000000E+00 -0.77965517938E+03  0.77965517939E+03  0.50400000000E-02 0.  1.
    8880023    1    1    2    0    0  0.24317135946E+03 -0.10598302984E+04  0.95772070422E+02  0.12748941396E+04  0.65864270000E+03 0.  0.
    8880022    1    1    2    0    0 -0.24317135946E+03  0.10598302984E+04  0.13956519937E+04  0.17758402833E+04  0.15294330000E+03 0.  0.
<mgrwt>
<rscale>  0 0.12255802E+04</rscale>
<asrwt>0</asrwt>
<pdfrwt beam="1">  1        1 0.34939681E+00 0.12712918E+04</pdfrwt>
<pdfrwt beam="2">  1       -1 0.11994695E+00 0.12712918E+04</pdfrwt>
<totfact> 0.11804805E+00</totfact>
</mgrwt>
</event>
<event>
 4    5  0.7767175E-008  0.1235515E+04  0.7818608E-02  0.9123349E-01
         -1   -1    0    0    0  501 -0.00000000000E+00  0.00000000000E+00  0.12156188130E+04  0.12156188130E+04  0.50400000000E-02 0.  1.
          1   -1    0    0  501    0  0.00000000000E+00 -0.00000000000E+00 -0.21454166048E+04  0.21454166048E+04  0.50400000000E-02 0. -1.
    8880023    1    1    2    0    0  0.75665098991E+03 -0.72122580834E+03  0.69906511550E+03  0.14195737491E+04  0.65864270000E+03 0.  1.
    8880022    1    1    2    0    0 -0.75665098991E+03  0.72122580834E+03 -0.16288629073E+04  0.19414616687E+04  0.15294330000E+03 0.  0.
<mgrwt>
<rscale>  0 0.11880861E+04</rscale>
<asrwt>0</asrwt>
<pdfrwt beam="1">  1        1 0.33006409E+00 0.12355151E+04</pdfrwt>
<pdfrwt beam="2">  1       -1 0.18701828E+00 0.12355151E+04</pdfrwt>
<totfact> 0.43040090E-01</totfact>
</mgrwt>
</event>
<event>
 4    5  0.7767175E-008  0.6909524E+03  0.7818608E-02  0.1003703E+00
         -1   -1    0    0    0  501 -0.00000000000E+00  0.00000000000E+00  0.54207900887E+03  0.54207900889E+03  0.50400000000E-02 0.  1.
          1   -1    0    0  501    0  0.00000000000E+00 -0.00000000000E+00 -0.61493203962E+03  0.61493203964E+03  0.50400000000E-02 0. -1.
    8880023    1    1    2    0    0 -0.11641483018E+03  0.17335691274E+03  0.25746312666E+03  0.73736185129E+03  0.65864270000E+03 0.  1.
    8880022    1    1    2    0    0  0.11641483018E+03 -0.17335691274E+03 -0.33031615741E+03  0.41964919724E+03  0.15294330000E+03 0.  0.
<mgrwt>
<rscale>  0 0.54055858E+03</rscale>
<asrwt>0</asrwt>
<pdfrwt beam="1">  1        1 0.94604929E-01 0.69095241E+03</pdfrwt>
<pdfrwt beam="2">  1       -1 0.83396771E-01 0.69095241E+03</pdfrwt>
<totfact> 0.48452017E+01</totfact>
</mgrwt>
</event>
<event>
 4    5  0.7767175E-008  0.6927462E+03  0.7818608E-02  0.1002874E+00
         -1   -1    0    0    0  501 -0.00000000000E+00  0.00000000000E+00  0.94722052344E+03  0.94722052345E+03  0.50400000000E-02 0.  1.
          1   -1    0    0  501    0  0.00000000000E+00 -0.00000000000E+00 -0.13732844994E+04  0.13732844994E+04  0.50400000000E-02 0. -1.
    8880023    1    1    2    0    0  0.16437789511E+03  0.13808307143E+03  0.80471278965E+03  0.10618191499E+04  0.65864270000E+03 0.  1.
    8880022    1    1    2    0    0 -0.16437789511E+03 -0.13808307143E+03 -0.12307767656E+04  0.12586858729E+04  0.15294330000E+03 0.  0.
<mgrwt>
<rscale>  0 0.54407909E+03</rscale>
<asrwt>0</asrwt>
<pdfrwt beam="1">  1        1 0.21127454E+00 0.69274615E+03</pdfrwt>
<pdfrwt beam="2">  1       -1 0.14572623E+00 0.69274615E+03</pdfrwt>
<totfact> 0.31879093E+00</totfact>
</mgrwt>
</event>
<event>
 4    5  0.7767175E-008  0.8406848E+03  0.7818608E-02  0.9628890E-01
         -1   -1    0    0    0  501 -0.00000000000E+00  0.00000000000E+00  0.45762492879E+03  0.45762492882E+03  0.50400000000E-02 0.  1.
          1   -1    0    0  501    0  0.00000000000E+00 -0.00000000000E+00 -0.15724960608E+04  0.15724960608E+04  0.50400000000E-02 0. -1.
    8880023    1    1    2    0    0 -0.32526857114E+03  0.40882896330E+03 -0.59695850203E+02  0.84280161687E+03  0.65864270000E+03 0.  0.
    8880022    1    1    2    0    0  0.32526857114E+03 -0.40882896330E+03 -0.10551752818E+04  0.11873193728E+04  0.15294330000E+03 0.  0.
<mgrwt>
<rscale>  0 0.75413188E+03</rscale>
<asrwt>0</asrwt>
<pdfrwt beam="1">  1        1 0.24192247E+00 0.84068482E+03</pdfrwt>
<pdfrwt beam="2">  1       -1 0.70403836E-01 0.84068482E+03</pdfrwt>
<totfact> 0.12187787E+01</totfact>
</mgrwt>
</event>
<event>
 4    5  0.7767175E-008  0.9841786E+03  0.7818608E-02  0.9402556E-01
         -1   -1    0    0    0  501 -0.00000000000E+00  0.00000000000E+00  0.28459619938E+03  0.28459619942E+03  0.50400000000E-02 0.  1.
          1   -1    0    0  501    0  0.00000000000E+00 -0.00000000000E+00 -0.39182525725E+04  0.39182525725E+04  0.50400000000E-02 0. -1.
    8880023    1    1    2    0    0  0.73031530172E+03  0.37907086569E+02 -0.78807274442E+03  0.12608196714E+04  0.65864270000E+03 0.  1.
    8880022    1    1    2    0    0 -0.73031530172E+03 -0.37907086569E+02 -0.28455836287E+04  0.29420291005E+04  0.15294330000E+03 0.  0.
<mgrwt>
<rscale>  0 0.91865642E+03</rscale>
<asrwt>0</asrwt>
<pdfrwt beam="1">  1        1 0.60280805E+00 0.98417864E+03</pdfrwt>
<pdfrwt beam="2">  1       -1 0.43784034E-01 0.98417864E+03</pdfrwt>
<totfact> 0.61426219E-01</totfact>
</mgrwt>
</event>
<event>
 4    5  0.7767175E-008  0.9348817E+03  0.7818608E-02  0.9472208E-01
         -1   -1    0    0    0  501 -0.00000000000E+00  0.00000000000E+00  0.41904674518E+03  0.41904674521E+03  0.50400000000E-02 0.  1.
          1   -1    0    0  501    0  0.00000000000E+00 -0.00000000000E+00 -0.18560711753E+04  0.18560711753E+04  0.50400000000E-02 0. -1.
    8880023    1    1    2    0    0 -0.35142625566E+03  0.56275503340E+03 -0.36180449078E+03  0.10024501666E+04  0.65864270000E+03 0.  0.
    8880022    1    1    2    0    0  0.35142625566E+03 -0.56275503340E+03 -0.10752199393E+04  0.12726677538E+04  0.15294330000E+03 0.  0.
<mgrwt>
<rscale>  0 0.86364191E+03</rscale>
<asrwt>0</asrwt>
<pdfrwt beam="1">  1        1 0.28554941E+00 0.93488173E+03</pdfrwt>
<pdfrwt beam="2">  1       -1 0.64468731E-01 0.93488173E+03</pdfrwt>
<totfact> 0.92638271E+00</totfact>
</mgrwt>
</event>
<event>
 4    5  0.7767175E-008  0.7072933E+03  0.7818608E-02  0.9968193E-01
          1   -1    0    0  501    0  0.00000000000E+00  0.00000000000E+00  0.10542021045E+04  0.10542021045E+04  0.50400000000E-02 0. -1.
         -1   -1    0    0    0  501 -0.00000000000E+00 -0.00000000000E+00 -0.35345235076E+03  0.35345235080E+03  0.50400000000E-02 0.  1.
    8880023    1    1    2    0    0 -0.33185093164E+02  0.25564105687E+03  0.71796159536E+02  0.71092791136E+03  0.65864270000E+03 0.  1.
    8880022    1    1    2    0    0  0.33185093164E+02 -0.25564105687E+03  0.62895359417E+03  0.69672654392E+03  0.15294330000E+03 0.  0.
<mgrwt>
<rscale>  0 0.57067198E+03</rscale>
<asrwt>0</asrwt>
<pdfrwt beam="1">  1        1 0.16218494E+00 0.70729330E+03</pdfrwt>
<pdfrwt beam="2">  1       -1 0.54377284E-01 0.70729330E+03</pdfrwt>
<totfact> 0.48293274E+01</totfact>
</mgrwt>
</event>
<event>
 4    5  0.7767175E-008  0.7796996E+03  0.7818608E-02  0.9756543E-01
          1   -1    0    0  501    0  0.00000000000E+00  0.00000000000E+00  0.18980054348E+04  0.18980054348E+04  0.50400000000E-02 0. -1.
         -1   -1    0    0    0  501 -0.00000000000E+00 -0.00000000000E+00 -0.47792200046E+03  0.47792200049E+03  0.50400000000E-02 0.  1.
    8880023    1    1    2    0    0  0.26797835737E+03  0.31985756604E+03 -0.10561305574E+03  0.78681991992E+03  0.65864270000E+03 0.  1.
    8880022    1    1    2    0    0 -0.26797835737E+03 -0.31985756604E+03  0.15256964901E+04  0.15891075154E+04  0.15294330000E+03 0.  0.
<mgrwt>
<rscale>  0 0.67747757E+03</rscale>
<asrwt>0</asrwt>
<pdfrwt beam="1">  1        1 0.29200084E+00 0.77969960E+03</pdfrwt>
<pdfrwt beam="2">  1       -1 0.73526462E-01 0.77969960E+03</pdfrwt>
<totfact> 0.67835242E+00</totfact>
</mgrwt>
</event>
<event>
 4    5  0.7767175E-008  0.1270006E+04  0.7818608E-02  0.9091904E-01
         -1   -1    0    0    0  501 -0.00000000000E+00  0.00000000000E+00  0.12577627301E+04  0.12577627301E+04  0.50400000000E-02 0.  1.
          1   -1    0    0  501    0  0.00000000000E+00 -0.00000000000E+00 -0.15970523431E+04  0.15970523431E+04  0.50400000000E-02 0. -1.
    8880023    1    1    2    0    0  0.98498651153E+03  0.45706230240E+03  0.60586737765E+03  0.14071211255E+04  0.65864270000E+03 0.  0.
    8880022    1    1    2    0    0 -0.98498651153E+03 -0.45706230240E+03 -0.94515699063E+03  0.14476939477E+04  0.15294330000E+03 0.  0.
<mgrwt>
<rscale>  0 0.12242348E+04</rscale>
<asrwt>0</asrwt>
<pdfrwt beam="1">  1        1 0.24570036E+00 0.12700057E+04</pdfrwt>
<pdfrwt beam="2">  1       -1 0.19350196E+00 0.12700057E+04</pdfrwt>
<totfact> 0.90957227E-01</totfact>
</mgrwt>
</event>
<event>
 4    5  0.7767175E-008  0.9236251E+03  0.7818608E-02  0.9489123E-01
         -1   -1    0    0    0  501 -0.00000000000E+00  0.00000000000E+00  0.33762259791E+03  0.33762259794E+03  0.50400000000E-02 0.  1.
          1   -1    0    0  501    0  0.00000000000E+00 -0.00000000000E+00 -0.26895217292E+04  0.26895217292E+04  0.50400000000E-02 0. -1.
    8880023    1    1    2    0    0 -0.39703448917E+02 -0.64629468536E+03 -0.48079830715E+03  0.10412734524E+04  0.65864270000E+03 0.  1.
    8880022    1    1    2    0    0  0.39703448917E+02  0.64629468536E+03 -0.18711008241E+04  0.19858708748E+04  0.15294330000E+03 0.  0.
<mgrwt>
<rscale>  0 0.85090522E+03</rscale>
<asrwt>0</asrwt>
<pdfrwt beam="1">  1        1 0.41377256E+00 0.92362514E+03</pdfrwt>
<pdfrwt beam="2">  1       -1 0.51941940E-01 0.92362514E+03</pdfrwt>
<totfact> 0.38486735E+00</totfact>
</mgrwt>
</event>
<event>
 4    5  0.7767175E-008  0.7011657E+03  0.7818608E-02  0.9992400E-01
         -1   -1    0    0    0  501 -0.00000000000E+00  0.00000000000E+00  0.28367345316E+03  0.28367345321E+03  0.50400000000E-02 0.  1.
          1   -1    0    0  501    0  0.00000000000E+00 -0.00000000000E+00 -0.11419606684E+04  0.11419606685E+04  0.50400000000E-02 0. -1.
    8880023    1    1    2    0    0  0.63466749077E+01  0.24038049592E+03 -0.23367100330E+03  0.73907740268E+03  0.65864270000E+03 0.  1.
    8880022    1    1    2    0    0 -0.63466749077E+01 -0.24038049592E+03 -0.62461621198E+03  0.68655671898E+03  0.15294330000E+03 0.  0.
<mgrwt>
<rscale>  0 0.55984759E+03</rscale>
<asrwt>0</asrwt>
<pdfrwt beam="1">  1        1 0.17568625E+00 0.70116565E+03</pdfrwt>
<pdfrwt beam="2">  1       -1 0.43642070E-01 0.70116565E+03</pdfrwt>
<totfact> 0.62893290E+01</totfact>
</mgrwt>
</event>
<event>
 4    5  0.7767175E-008  0.1283895E+04  0.7818608E-02  0.9079594E-01
          1   -1    0    0  501    0  0.00000000000E+00  0.00000000000E+00  0.25417326294E+04  0.25417326295E+04  0.50400000000E-02 0. -1.
         -1   -1    0    0    0  501 -0.00000000000E+00 -0.00000000000E+00 -0.65539072167E+03  0.65539072169E+03  0.50400000000E-02 0.  1.
    8880023    1    1    2    0    0 -0.11005972432E+04  0.57114091053E+02  0.40860644068E+03  0.13473476688E+04  0.65864270000E+03 0.  0.
    8880022    1    1    2    0    0  0.11005972432E+04 -0.57114091053E+02  0.14777354671E+04  0.18497756823E+04  0.15294330000E+03 0.  0.
<mgrwt>
<rscale>  0 0.12387561E+04</rscale>
<asrwt>0</asrwt>
<pdfrwt beam="1">  1        1 0.39103579E+00 0.12838951E+04</pdfrwt>
<pdfrwt beam="2">  1       -1 0.10082934E+00 0.12838951E+04</pdfrwt>
<totfact> 0.11615112E+00</totfact>
</mgrwt>
</event>
<event>
 4    5  0.7782425E-008  0.1700608E+04  0.7818608E-02  0.8779605E-01
         -1   -1    0    0    0  501 -0.00000000000E+00  0.00000000000E+00  0.20192358114E+04  0.20192358114E+04  0.50400000000E-02 0.  1.
          1   -1    0    0  501    0  0.00000000000E+00 -0.00000000000E+00 -0.25137089476E+04  0.25137089476E+04  0.50400000000E-02 0. -1.
    8880023    1    1    2    0    0  0.27881596940E+03  0.15428925190E+04  0.13033306763E+04  0.21426004593E+04  0.65864270000E+03 0.  1.
    8880022    1    1    2    0    0 -0.27881596940E+03 -0.15428925190E+04 -0.17978038126E+04  0.23903442998E+04  0.15294330000E+03 0.  0.
<mgrwt>
<rscale>  0 0.16683823E+04</rscale>
<asrwt>0</asrwt>
<pdfrwt beam="1">  1        1 0.38672445E+00 0.17006075E+04</pdfrwt>
<pdfrwt beam="2">  1       -1 0.31065166E+00 0.17006075E+04</pdfrwt>
<totfact> 0.34280196E-02</totfact>
</mgrwt>
</event>
<event>
 4    5  0.7767175E-008  0.8972411E+03  0.7818608E-02  0.9530475E-01
          1   -1    0    0  501    0  0.00000000000E+00  0.00000000000E+00  0.18845999651E+04  0.18845999651E+04  0.50400000000E-02 0. -1.
         -1   -1    0    0    0  501 -0.00000000000E+00 -0.00000000000E+00 -0.36159294030E+03  0.36159294033E+03  0.50400000000E-02 0.  1.
    8880023    1    1    2    0    0  0.29146745092E+03 -0.53504971321E+03  0.13000471658E+04  0.15796089105E+04  0.65864270000E+03 0.  0.
    8880022    1    1    2    0    0 -0.29146745092E+03  0.53504971321E+03  0.22295985896E+03  0.66658399491E+03  0.15294330000E+03 0.  0.
<mgrwt>
<rscale>  0 0.82073830E+03</rscale>
<asrwt>0</asrwt>
<pdfrwt beam="1">  1        1 0.28993846E+00 0.89724115E+03</pdfrwt>
<pdfrwt beam="2">  1       -1 0.55629683E-01 0.89724115E+03</pdfrwt>
<totfact> 0.11920035E+01</totfact>
</mgrwt>
</event>
<event>
 4    5  0.7767175E-008  0.8371308E+03  0.7818608E-02  0.9635614E-01
          1   -1    0    0  501    0  0.00000000000E+00  0.00000000000E+00  0.76631011360E+03  0.76631011362E+03  0.50400000000E-02 0. -1.
         -1   -1    0    0    0  501 -0.00000000000E+00 -0.00000000000E+00 -0.93791867173E+03  0.93791867174E+03  0.50400000000E-02 0.  1.
    8880023    1    1    2    0    0  0.30592781731E+03  0.41639629312E+03 -0.58819771681E+03  0.10231150779E+04  0.65864270000E+03 0.  0.
    8880022    1    1    2    0    0 -0.30592781731E+03 -0.41639629312E+03  0.41658915868E+03  0.68111370745E+03  0.15294330000E+03 0. -1.
<mgrwt>
<rscale>  0 0.74983174E+03</rscale>
<asrwt>0</asrwt>
<pdfrwt beam="1">  1        1 0.11789386E+00 0.83713076E+03</pdfrwt>
<pdfrwt beam="2">  1       -1 0.14429518E+00 0.83713076E+03</pdfrwt>
<totfact> 0.93492427E+00</totfact>
</mgrwt>
</event>
<event>
 4    5  0.7767175E-008  0.1088223E+04  0.7818608E-02  0.9274283E-01
          1   -1    0    0  501    0  0.00000000000E+00  0.00000000000E+00  0.69856412207E+03  0.69856412208E+03  0.50400000000E-02 0. -1.
         -1   -1    0    0    0  501 -0.00000000000E+00 -0.00000000000E+00 -0.18363348142E+04  0.18363348142E+04  0.50400000000E-02 0.  1.
    8880023    1    1    2    0    0  0.20286754435E+03 -0.84217802562E+03  0.10667079603E+02  0.10882752686E+04  0.65864270000E+03 0.  0.
    8880022    1    1    2    0    0 -0.20286754435E+03  0.84217802562E+03 -0.11484377718E+04  0.14466236677E+04  0.15294330000E+03 0.  0.
<mgrwt>
<rscale>  0 0.10318528E+04</rscale>
<asrwt>0</asrwt>
<pdfrwt beam="1">  1        1 0.10747140E+00 0.10882230E+04</pdfrwt>
<pdfrwt beam="2">  1       -1 0.28251305E+00 0.10882230E+04</pdfrwt>
<totfact> 0.11716880E+00</totfact>
</mgrwt>
</event>
<event>
 4    5  0.7767175E-008  0.1029878E+04  0.7818608E-02  0.9343472E-01
          1   -1    0    0  501    0  0.00000000000E+00  0.00000000000E+00  0.21591610699E+04  0.21591610699E+04  0.50400000000E-02 0. -1.
         -1   -1    0    0    0  501 -0.00000000000E+00 -0.00000000000E+00 -0.48165044562E+03  0.48165044565E+03  0.50400000000E-02 0.  1.
    8880023    1    1    2    0    0 -0.21962871222E+01  0.79172793764E+03  0.35026579434E+03  0.10878116950E+04  0.65864270000E+03 0. -1.
    8880022    1    1    2    0    0  0.21962871222E+01 -0.79172793764E+03  0.13272448300E+04  0.15529998206E+04  0.15294330000E+03 0.  0.
<mgrwt>
<rscale>  0 0.96877427E+03</rscale>
<asrwt>0</asrwt>
<pdfrwt beam="1">  1        1 0.33217862E+00 0.10298777E+04</pdfrwt>
<pdfrwt beam="2">  1       -1 0.74100070E-01 0.10298777E+04</pdfrwt>
<totfact> 0.43000589E+00</totfact>
</mgrwt>
</event>
<event>
 4    5  0.7767175E-008  0.7810633E+03  0.7818608E-02  0.9753345E-01
          1   -1    0    0  501    0  0.00000000000E+00  0.00000000000E+00  0.19720636702E+04  0.19720636702E+04  0.50400000000E-02 0. -1.
         -1   -1    0    0    0  501 -0.00000000000E+00 -0.00000000000E+00 -0.41157632422E+03  0.41157632425E+03  0.50400000000E-02 0.  1.
    8880023    1    1    2    0    0  0.25795990905E+03 -0.33121941188E+03  0.21774111008E+02  0.78136670754E+03  0.65864270000E+03 0.  0.
    8880022    1    1    2    0    0 -0.25795990905E+03  0.33121941188E+03  0.15387132350E+04  0.16022732869E+04  0.15294330000E+03 0.  0.
<mgrwt>
<rscale>  0 0.67927550E+03</rscale>
<asrwt>0</asrwt>
<pdfrwt beam="1">  1        1 0.30339441E+00 0.78106326E+03</pdfrwt>
<pdfrwt beam="2">  1       -1 0.63319434E-01 0.78106326E+03</pdfrwt>
<totfact> 0.82017161E+00</totfact>
</mgrwt>
</event>
<event>
 4    5  0.7767175E-008  0.1352221E+04  0.7818608E-02  0.9021727E-01
         -1   -1    0    0    0  501 -0.00000000000E+00  0.00000000000E+00  0.23876251398E+04  0.23876251398E+04  0.50400000000E-02 0.  1.
          1   -1    0    0  501    0  0.00000000000E+00 -0.00000000000E+00 -0.15175889531E+04  0.15175889531E+04  0.50400000000E-02 0. -1.
    8880023    1    1    2    0    0 -0.89103196874E+03 -0.77508243973E+03  0.18991147997E+04  0.23313382394E+04  0.65864270000E+03 0.  0.
    8880022    1    1    2    0    0  0.89103196874E+03  0.77508243973E+03 -0.10290786130E+04  0.15738758536E+04  0.15294330000E+03 0.  0.
<mgrwt>
<rscale>  0 0.13099309E+04</rscale>
<asrwt>0</asrwt>
<pdfrwt beam="1">  1        1 0.23347522E+00 0.13522208E+04</pdfrwt>
<pdfrwt beam="2">  1       -1 0.36732694E+00 0.13522208E+04</pdfrwt>
<totfact> 0.73174100E-02</totfact>
</mgrwt>
</event>
<event>
 4    5  0.7767175E-008  0.7330785E+03  0.7818608E-02  0.9880588E-01
         -1   -1    0    0    0  501 -0.00000000000E+00  0.00000000000E+00  0.20276139996E+04  0.20276139996E+04  0.50400000000E-02 0.  1.
          1   -1    0    0  501    0  0.00000000000E+00 -0.00000000000E+00 -0.24164454368E+03  0.24164454373E+03  0.50400000000E-02 0. -1.
    8880023    1    1    2    0    0  0.20339740839E+03  0.24944599096E+03  0.17662770253E+04  0.19123646474E+04  0.65864270000E+03 0.  1.
    8880022    1    1    2    0    0 -0.20339740839E+03 -0.24944599096E+03  0.19692430632E+02  0.35689389598E+03  0.15294330000E+03 0.  0.
<mgrwt>
<rscale>  0 0.61211369E+03</rscale>
<asrwt>0</asrwt>
<pdfrwt beam="1">  1        1 0.37176082E-01 0.73307845E+03</pdfrwt>
<pdfrwt beam="2">  1       -1 0.31194063E+00 0.73307845E+03</pdfrwt>
<totfact> 0.33769911E+00</totfact>
</mgrwt>
</event>
<event>
 4    5  0.7767175E-008  0.6628212E+03  0.7818608E-02  0.1021436E+00
          1   -1    0    0  501    0  0.00000000000E+00  0.00000000000E+00  0.13107894330E+04  0.13107894331E+04  0.50400000000E-02 0. -1.
         -1   -1    0    0    0  501 -0.00000000000E+00 -0.00000000000E+00 -0.21530377985E+03  0.21530377991E+03  0.50400000000E-02 0.  1.
    8880023    1    1    2    0    0 -0.74241898750E+02  0.31342391746E+01  0.32713897014E+03  0.73915613711E+03  0.65864270000E+03 0.  1.
    8880022    1    1    2    0    0  0.74241898750E+02 -0.31342391746E+01  0.76834668304E+03  0.78693707585E+03  0.15294330000E+03 0.  0.
<mgrwt>
<rscale>  0 0.47172028E+03</rscale>
<asrwt>0</asrwt>
<pdfrwt beam="1">  1        1 0.20165990E+00 0.66282116E+03</pdfrwt>
<pdfrwt beam="2">  1       -1 0.33123660E-01 0.66282116E+03</pdfrwt>
<totfact> 0.78517487E+01</totfact>
</mgrwt>
</event>
<event>
 4    5  0.7767175E-008  0.7987766E+03  0.7818608E-02  0.9713447E-01
          1   -1    0    0  501    0  0.00000000000E+00  0.00000000000E+00  0.22616170237E+04  0.22616170237E+04  0.50400000000E-02 0. -1.
         -1   -1    0    0    0  501 -0.00000000000E+00 -0.00000000000E+00 -0.47172192624E+03  0.47172192627E+03  0.50400000000E-02 0.  1.
    8880023    1    1    2    0    0  0.25959035436E+03  0.36992803127E+03 -0.80715433090E+02  0.80284437334E+03  0.65864270000E+03 0.  0.
    8880022    1    1    2    0    0 -0.25959035436E+03 -0.36992803127E+03  0.18706105306E+04  0.19304945766E+04  0.15294330000E+03 0.  0.
<mgrwt>
<rscale>  0 0.70221749E+03</rscale>
<asrwt>0</asrwt>
<pdfrwt beam="1">  1        1 0.34794107E+00 0.79877663E+03</pdfrwt>
<pdfrwt beam="2">  1       -1 0.72572606E-01 0.79877663E+03</pdfrwt>
<totfact> 0.39629680E+00</totfact>
</mgrwt>
</event>
<event>
 4    5  0.7767175E-008  0.8093902E+03  0.7818608E-02  0.9690848E-01
         -1   -1    0    0    0  501 -0.00000000000E+00  0.00000000000E+00  0.35229435570E+03  0.35229435574E+03  0.50400000000E-02 0.  1.
          1   -1    0    0  501    0  0.00000000000E+00 -0.00000000000E+00 -0.19315999421E+04  0.19315999421E+04  0.50400000000E-02 0. -1.
    8880023    1    1    2    0    0 -0.30704253753E+02 -0.46942474923E+03 -0.22203675495E+03  0.83929307944E+03  0.65864270000E+03 0.  0.
    8880022    1    1    2    0    0  0.30704253753E+02  0.46942474923E+03 -0.13572688315E+04  0.14446012184E+04  0.15294330000E+03 0.  0.
<mgrwt>
<rscale>  0 0.71564293E+03</rscale>
<asrwt>0</asrwt>
<pdfrwt beam="1">  1        1 0.29716922E+00 0.80939024E+03</pdfrwt>
<pdfrwt beam="2">  1       -1 0.54199133E-01 0.80939024E+03</pdfrwt>
<totfact> 0.11795395E+01</totfact>
</mgrwt>
</event>
<event>
 4    5  0.7767175E-008  0.9250192E+03  0.7818608E-02  0.9487006E-01
         -1   -1    0    0    0  501 -0.00000000000E+00  0.00000000000E+00  0.90399256740E+03  0.90399256742E+03  0.50400000000E-02 0.  1.
          1   -1    0    0  501    0  0.00000000000E+00 -0.00000000000E+00 -0.12088804418E+04  0.12088804418E+04  0.50400000000E-02 0. -1.
    8880023    1    1    2    0    0  0.18430430484E+03  0.62280188069E+03 -0.84617813262E+03  0.12536657839E+04  0.65864270000E+03 0. -1.
    8880022    1    1    2    0    0 -0.18430430484E+03 -0.62280188069E+03  0.54129025822E+03  0.85920722531E+03  0.15294330000E+03 0.  0.
<mgrwt>
<rscale>  0 0.85248659E+03</rscale>
<asrwt>0</asrwt>
<pdfrwt beam="1">  1        1 0.18598161E+00 0.92501917E+03</pdfrwt>
<pdfrwt beam="2">  1       -1 0.13907578E+00 0.92501917E+03</pdfrwt>
<totfact> 0.45469887E+00</totfact>
</mgrwt>
</event>
<event>
 4    5  0.7767175E-008  0.8768165E+03  0.7818608E-02  0.9564323E-01
         -1   -1    0    0    0  501 -0.00000000000E+00  0.00000000000E+00  0.84403189489E+03  0.84403189491E+03  0.50400000000E-02 0.  1.
          1   -1    0    0  501    0  0.00000000000E+00 -0.00000000000E+00 -0.74103479751E+03  0.74103479753E+03  0.50400000000E-02 0. -1.
    8880023    1    1    2    0    0  0.10934676000E+03  0.56836633631E+03  0.34106020293E+03  0.94081309220E+03  0.65864270000E+03 0. -1.
    8880022    1    1    2    0    0 -0.10934676000E+03 -0.56836633631E+03 -0.23806310555E+03  0.64425360023E+03  0.15294330000E+03 0.  0.
<mgrwt>
<rscale>  0 0.79703212E+03</rscale>
<asrwt>0</asrwt>
<pdfrwt beam="1">  1        1 0.11400535E+00 0.87681652E+03</pdfrwt>
<pdfrwt beam="2">  1       -1 0.12985106E+00 0.87681652E+03</pdfrwt>
<totfact> 0.12877152E+01</totfact>
</mgrwt>
</event>
<event>
 4    5  0.8310521E-008  0.1090971E+04  0.7818608E-02  0.9271176E-01
          1   -1    0    0  501    0  0.00000000000E+00  0.00000000000E+00  0.30849703730E+04  0.30849703730E+04  0.50400000000E-02 0. -1.
         -1   -1    0    0    0  501 -0.00000000000E+00 -0.00000000000E+00 -0.20190417114E+04  0.20190417114E+04  0.50400000000E-02 0.  1.
    8880023    1    1    2    0    0  0.68169000857E+03 -0.54009826527E+03 -0.18001728748E+04  0.21049560540E+04  0.65864270000E+03 0.  1.
    8880022    1    1    2    0    0 -0.68169000857E+03  0.54009826527E+03  0.28661015364E+04  0.29990560304E+04  0.15294330000E+03 0.  0.
<mgrwt>
<rscale>  0 0.10348031E+04</rscale>
<asrwt>0</asrwt>
<pdfrwt beam="1">  1        1 0.47461083E+00 0.10909709E+04</pdfrwt>
<pdfrwt beam="2">  1       -1 0.31062180E+00 0.10909709E+04</pdfrwt>
<totfact> 0.14893480E-02</totfact>
</mgrwt>
</event>
<event>
 4    5  0.7767175E-008  0.1339422E+04  0.7818608E-02  0.9032243E-01
          1   -1    0    0  501    0  0.00000000000E+00  0.00000000000E+00  0.14902250262E+04  0.14902250262E+04  0.50400000000E-02 0. -1.
         -1   -1    0    0    0  501 -0.00000000000E+00 -0.00000000000E+00 -0.27894334003E+04  0.27894334003E+04  0.50400000000E-02 0.  1.
    8880023    1    1    2    0    0  0.11370332997E+04  0.25960696229E+03 -0.23483523656E+04  0.27034810039E+04  0.65864270000E+03 0.  1.
    8880022    1    1    2    0    0 -0.11370332997E+04 -0.25960696229E+03  0.10491439915E+04  0.15761774226E+04  0.15294330000E+03 0.  0.
<mgrwt>
<rscale>  0 0.12966286E+04</rscale>
<asrwt>0</asrwt>
<pdfrwt beam="1">  1        1 0.22926539E+00 0.13394218E+04</pdfrwt>
<pdfrwt beam="2">  1       -1 0.42914360E+00 0.13394218E+04</pdfrwt>
<totfact> 0.29022898E-02</totfact>
</mgrwt>
</event>
<event>
 4    5  0.7767175E-008  0.6698677E+03  0.7818608E-02  0.1015758E+00
         -1   -1    0    0    0  501 -0.00000000000E+00  0.00000000000E+00  0.20134247007E+04  0.20134247007E+04  0.50400000000E-02 0.  1.
          1   -1    0    0  501    0  0.00000000000E+00 -0.00000000000E+00 -0.26731652887E+03  0.26731652891E+03  0.50400000000E-02 0. -1.
    8880023    1    1    2    0    0  0.12205545488E+03  0.38693364656E+01  0.19108864413E+04  0.20248974551E+04  0.65864270000E+03 0.  1.
    8880022    1    1    2    0    0 -0.12205545488E+03 -0.38693364656E+01 -0.16477826951E+03  0.25584377449E+03  0.15294330000E+03 0.  0.
<mgrwt>
<rscale>  0 0.49249011E+03</rscale>
<asrwt>0</asrwt>
<pdfrwt beam="1">  1        1 0.41125621E-01 0.66986768E+03</pdfrwt>
<pdfrwt beam="2">  1       -1 0.30975764E+00 0.66986768E+03</pdfrwt>
<totfact> 0.30926423E+00</totfact>
</mgrwt>
</event>
<event>
 4    5  0.7767175E-008  0.1273680E+04  0.7818608E-02  0.9088629E-01
         -1   -1    0    0    0  501 -0.00000000000E+00  0.00000000000E+00  0.13363993783E+04  0.13363993783E+04  0.50400000000E-02 0.  1.
          1   -1    0    0  501    0  0.00000000000E+00 -0.00000000000E+00 -0.18607119533E+04  0.18607119533E+04  0.50400000000E-02 0. -1.
    8880023    1    1    2    0    0 -0.99678919947E+03  0.44143163829E+03  0.77750983102E+03  0.14922407122E+04  0.65864270000E+03 0.  0.
    8880022    1    1    2    0    0  0.99678919947E+03 -0.44143163829E+03 -0.13018224060E+04  0.17048706195E+04  0.15294330000E+03 0.  0.
<mgrwt>
<rscale>  0 0.12280782E+04</rscale>
<asrwt>0</asrwt>
<pdfrwt beam="1">  1        1 0.28626338E+00 0.12736800E+04</pdfrwt>
<pdfrwt beam="2">  1       -1 0.20559991E+00 0.12736800E+04</pdfrwt>
<totfact> 0.49564250E-01</totfact>
</mgrwt>
</event>
<event>
 4    5  0.7767175E-008  0.8175218E+03  0.7818608E-02  0.9674117E-01
         -1   -1    0    0    0  501 -0.00000000000E+00  0.00000000000E+00  0.51823158312E+03  0.51823158314E+03  0.50400000000E-02 0.  1.
          1   -1    0    0  501    0  0.00000000000E+00 -0.00000000000E+00 -0.12244205687E+04  0.12244205687E+04  0.50400000000E-02 0. -1.
    8880023    1    1    2    0    0  0.35988939914E+03 -0.32405445144E+03  0.64077163459E+02  0.82002911915E+03  0.65864270000E+03 0.  0.
    8880022    1    1    2    0    0 -0.35988939914E+03  0.32405445144E+03 -0.77026614904E+03  0.92262303271E+03  0.15294330000E+03 0.  0.
<mgrwt>
<rscale>  0 0.72578975E+03</rscale>
<asrwt>0</asrwt>
<pdfrwt beam="1">  1        1 0.18837239E+00 0.81752179E+03</pdfrwt>
<pdfrwt beam="2">  1       -1 0.79727936E-01 0.81752179E+03</pdfrwt>
<totfact> 0.16496748E+01</totfact>
</mgrwt>
</event>
<event>
 4    5  0.7767175E-008  0.8668501E+03  0.7818608E-02  0.9581493E-01
          1   -1    0    0  501    0  0.00000000000E+00  0.00000000000E+00  0.25342196974E+04  0.25342196974E+04  0.50400000000E-02 0. -1.
         -1   -1    0    0    0  501 -0.00000000000E+00 -0.00000000000E+00 -0.49357118172E+03  0.49357118175E+03  0.50400000000E-02 0.  1.
    8880023    1    1    2    0    0 -0.66652146999E+02  0.55962170794E+03 -0.38983308415E+02  0.86772626403E+03  0.65864270000E+03 0.  0.
    8880022    1    1    2    0    0  0.66652146999E+02 -0.55962170794E+03  0.20796318241E+04  0.21600646151E+04  0.15294330000E+03 0.  0.
<mgrwt>
<rscale>  0 0.78533329E+03</rscale>
<asrwt>0</asrwt>
<pdfrwt beam="1">  1        1 0.38987997E+00 0.86685014E+03</pdfrwt>
<pdfrwt beam="2">  1       -1 0.75934026E-01 0.86685014E+03</pdfrwt>
<totfact> 0.23259763E+00</totfact>
</mgrwt>
</event>
<event>
 4    5  0.7767175E-008  0.6613492E+03  0.7818608E-02  0.1022815E+00
          1   -1    0    0  501    0  0.00000000000E+00  0.00000000000E+00  0.77233568806E+03  0.77233568808E+03  0.50400000000E-02 0. -1.
         -1   -1    0    0    0  501 -0.00000000000E+00 -0.00000000000E+00 -0.32197628895E+03  0.32197628899E+03  0.50400000000E-02 0.  1.
    8880023    1    1    2    0    0  0.45455313011E+02 -0.38812174893E+02  0.51946518699E+02  0.66338617522E+03  0.65864270000E+03 0.  1.
    8880022    1    1    2    0    0 -0.45455313011E+02  0.38812174893E+02  0.39841288042E+03  0.43092580185E+03  0.15294330000E+03 0.  0.
<mgrwt>
<rscale>  0 0.46684382E+03</rscale>
<asrwt>0</asrwt>
<pdfrwt beam="1">  1        1 0.11882087E+00 0.66134921E+03</pdfrwt>
<pdfrwt beam="2">  1       -1 0.49534814E-01 0.66134921E+03</pdfrwt>
<totfact> 0.98035105E+01</totfact>
</mgrwt>
</event>
<event>
 4    5  0.7767175E-008  0.9455933E+03  0.7818608E-02  0.9456483E-01
          1   -1    0    0  501    0  0.00000000000E+00  0.00000000000E+00  0.22521354075E+04  0.22521354075E+04  0.50400000000E-02 0. -1.
         -1   -1    0    0    0  501 -0.00000000000E+00 -0.00000000000E+00 -0.61941730558E+03  0.61941730560E+03  0.50400000000E-02 0.  1.
    8880023    1    1    2    0    0  0.81368506125E+02  0.67358416322E+03 -0.15050516742E+03  0.95749593754E+03  0.65864270000E+03 0.  0.
    8880022    1    1    2    0    0 -0.81368506125E+02 -0.67358416322E+03  0.17832232693E+04  0.19140567756E+04  0.15294330000E+03 0.  0.
<mgrwt>
<rscale>  0 0.87569617E+03</rscale>
<asrwt>0</asrwt>
<pdfrwt beam="1">  1        1 0.34648236E+00 0.94559329E+03</pdfrwt>
<pdfrwt beam="2">  1       -1 0.95294972E-01 0.94559329E+03</pdfrwt>
<totfact> 0.21833472E+00</totfact>
</mgrwt>
</event>
<event>
 4    5  0.7767175E-008  0.1410626E+04  0.7818608E-02  0.8975470E-01
          1   -1    0    0  501    0  0.00000000000E+00  0.00000000000E+00  0.23930272635E+04  0.23930272635E+04  0.50400000000E-02 0. -1.
         -1   -1    0    0    0  501 -0.00000000000E+00 -0.00000000000E+00 -0.11825306746E+04  0.11825306747E+04  0.50400000000E-02 0.  1.
    8880023    1    1    2    0    0 -0.21355735050E+03 -0.12290031085E+04 -0.46123318977E+03  0.14841164524E+04  0.65864270000E+03 0.  1.
    8880022    1    1    2    0    0  0.21355735050E+03  0.12290031085E+04  0.16717297786E+04  0.20914414857E+04  0.15294330000E+03 0.  0.
<mgrwt>
<rscale>  0 0.13704779E+04</rscale>
<asrwt>0</asrwt>
<pdfrwt beam="1">  1        1 0.36815804E+00 0.14106260E+04</pdfrwt>
<pdfrwt beam="2">  1       -1 0.18192780E+00 0.14106260E+04</pdfrwt>
<totfact> 0.30990292E-01</totfact>
</mgrwt>
</event>
<event>
 4    5  0.7767175E-008  0.1520729E+04  0.7818608E-02  0.8895136E-01
          1   -1    0    0  501    0  0.00000000000E+00  0.00000000000E+00  0.32512233675E+04  0.32512233675E+04  0.50400000000E-02 0. -1.
         -1   -1    0    0    0  501 -0.00000000000E+00 -0.00000000000E+00 -0.12274503711E+04  0.12274503711E+04  0.50400000000E-02 0.  1.
    8880023    1    1    2    0    0  0.11154239412E+04 -0.79663951960E+03 -0.50152312834E+03  0.16012934607E+04  0.65864270000E+03 0.  1.
    8880022    1    1    2    0    0 -0.11154239412E+04  0.79663951960E+03  0.25252961247E+04  0.28773802779E+04  0.15294330000E+03 0.  0.
<mgrwt>
<rscale>  0 0.14840403E+04</rscale>
<asrwt>0</asrwt>
<pdfrwt beam="1">  1        1 0.50018821E+00 0.15207285E+04</pdfrwt>
<pdfrwt beam="2">  1       -1 0.18883852E+00 0.15207285E+04</pdfrwt>
<totfact> 0.66345977E-02</totfact>
</mgrwt>
</event>
<event>
 4    5  0.7767175E-008  0.1198349E+04  0.7818608E-02  0.9158729E-01
          1   -1    0    0  501    0  0.00000000000E+00  0.00000000000E+00  0.28409459596E+04  0.28409459596E+04  0.50400000000E-02 0. -1.
         -1   -1    0    0    0  501 -0.00000000000E+00 -0.00000000000E+00 -0.65359885072E+03  0.65359885074E+03  0.50400000000E-02 0.  1.
    8880023    1    1    2    0    0 -0.91886674498E+03 -0.39738356649E+03  0.13499672744E+03  0.12059287361E+04  0.65864270000E+03 0.  0.
    8880022    1    1    2    0    0  0.91886674498E+03  0.39738356649E+03  0.20523503814E+04  0.22886160742E+04  0.15294330000E+03 0.  0.
<mgrwt>
<rscale>  0 0.11489757E+04</rscale>
<asrwt>0</asrwt>
<pdfrwt beam="1">  1        1 0.43706860E+00 0.11983489E+04</pdfrwt>
<pdfrwt beam="2">  1       -1 0.10055367E+00 0.11983489E+04</pdfrwt>
<totfact> 0.72894239E-01</totfact>
</mgrwt>
</event>
<event>
 4    5  0.7767175E-008  0.7514971E+03  0.7818608E-02  0.9827640E-01
          1   -1    0    0  501    0  0.00000000000E+00  0.00000000000E+00  0.20659497980E+04  0.20659497980E+04  0.50400000000E-02 0. -1.
         -1   -1    0    0    0  501 -0.00000000000E+00 -0.00000000000E+00 -0.61650204414E+03  0.61650204416E+03  0.50400000000E-02 0.  1.
    8880023    1    1    2    0    0  0.36034607870E+03  0.32989745698E+02 -0.35827772975E+03  0.83253273668E+03  0.65864270000E+03 0.  1.
    8880022    1    1    2    0    0 -0.36034607870E+03 -0.32989745698E+02  0.18077254836E+04  0.18499191055E+04  0.15294330000E+03 0.  0.
<mgrwt>
<rscale>  0 0.63900095E+03</rscale>
<asrwt>0</asrwt>
<pdfrwt beam="1">  1        1 0.31783844E+00 0.75149706E+03</pdfrwt>
<pdfrwt beam="2">  1       -1 0.94846466E-01 0.75149706E+03</pdfrwt>
<totfact> 0.30425784E+00</totfact>
</mgrwt>
</event>
<event>
 4    5  0.7767175E-008  0.6645756E+03  0.7818608E-02  0.1019892E+00
          1   -1    0    0  501    0  0.00000000000E+00  0.00000000000E+00  0.14555796557E+04  0.14555796557E+04  0.50400000000E-02 0. -1.
         -1   -1    0    0    0  501 -0.00000000000E+00 -0.00000000000E+00 -0.48396979585E+03  0.48396979587E+03  0.50400000000E-02 0.  1.
    8880023    1    1    2    0    0  0.27755959848E+02 -0.84143764544E+02 -0.24639852364E+03  0.70878276301E+03  0.65864270000E+03 0.  1.
    8880022    1    1    2    0    0 -0.27755959848E+02  0.84143764544E+02  0.12180083835E+04  0.12307666885E+04  0.15294330000E+03 0.  0.
<mgrwt>
<rscale>  0 0.47725561E+03</rscale>
<asrwt>0</asrwt>
<pdfrwt beam="1">  1        1 0.22393533E+00 0.66457563E+03</pdfrwt>
<pdfrwt beam="2">  1       -1 0.74456891E-01 0.66457563E+03</pdfrwt>
<totfact> 0.13386384E+01</totfact>
</mgrwt>
</event>
<event>
 4    5  0.7767175E-008  0.7650028E+03  0.7818608E-02  0.9792324E-01
          1   -1    0    0  501    0  0.00000000000E+00  0.00000000000E+00  0.19960192631E+04  0.19960192631E+04  0.50400000000E-02 0. -1.
         -1   -1    0    0    0  501 -0.00000000000E+00 -0.00000000000E+00 -0.92859911854E+03  0.92859911856E+03  0.50400000000E-02 0.  1.
    8880023    1    1    2    0    0 -0.15942493640E+03  0.35496873023E+03 -0.74306808813E+03  0.10664799575E+04  0.65864270000E+03 0.  0.
    8880022    1    1    2    0    0  0.15942493640E+03 -0.35496873023E+03  0.18104882327E+04  0.18581384242E+04  0.15294330000E+03 0.  0.
<mgrwt>
<rscale>  0 0.65776127E+03</rscale>
<asrwt>0</asrwt>
<pdfrwt beam="1">  1        1 0.30707989E+00 0.76500282E+03</pdfrwt>
<pdfrwt beam="2">  1       -1 0.14286140E+00 0.76500282E+03</pdfrwt>
<totfact> 0.12559155E+00</totfact>
</mgrwt>
</event>
<event>
 4    5  0.7767175E-008  0.6878792E+03  0.7818608E-02  0.1005177E+00
         -1   -1    0    0    0  501 -0.00000000000E+00  0.00000000000E+00  0.38362212216E+03  0.38362212219E+03  0.50400000000E-02 0.  1.
          1   -1    0    0  501    0  0.00000000000E+00 -0.00000000000E+00 -0.14178683878E+04  0.14178683878E+04  0.50400000000E-02 0. -1.
    8880023    1    1    2    0    0  0.18543172016E+03  0.70588289916E+02  0.49029808576E+02  0.68962436000E+03  0.65864270000E+03 0.  1.
    8880022    1    1    2    0    0 -0.18543172016E+03 -0.70588289916E+02 -0.10832760742E+04  0.11118661500E+04  0.15294330000E+03 0.  0.
<mgrwt>
<rscale>  0 0.53437225E+03</rscale>
<asrwt>0</asrwt>
<pdfrwt beam="1">  1        1 0.21813360E+00 0.68787923E+03</pdfrwt>
<pdfrwt beam="2">  1       -1 0.59018789E-01 0.68787923E+03</pdfrwt>
<totfact> 0.22621211E+01</totfact>
</mgrwt>
</event>
<event>
 4    5  0.7767175E-008  0.8171735E+03  0.7818608E-02  0.9674824E-01
          1   -1    0    0  501    0  0.00000000000E+00  0.00000000000E+00  0.21273746596E+04  0.21273746597E+04  0.50400000000E-02 0. -1.
         -1   -1    0    0    0  501 -0.00000000000E+00 -0.00000000000E+00 -0.99625026447E+03  0.99625026448E+03  0.50400000000E-02 0.  1.
    8880023    1    1    2    0    0  0.45681944903E+03  0.15899165644E+03 -0.79002609879E+03  0.11366238599E+04  0.65864270000E+03 0.  0.
    8880022    1    1    2    0    0 -0.45681944903E+03 -0.15899165644E+03  0.19211504940E+04  0.19870010642E+04  0.15294330000E+03 0.  0.
<mgrwt>
<rscale>  0 0.72535746E+03</rscale>
<asrwt>0</asrwt>
<pdfrwt beam="1">  1        1 0.32728841E+00 0.81717352E+03</pdfrwt>
<pdfrwt beam="2">  1       -1 0.15326927E+00 0.81717352E+03</pdfrwt>
<totfact> 0.84103718E-01</totfact>
</mgrwt>
</event>
<event>
 4    5  0.7767175E-008  0.6744736E+03  0.7818608E-02  0.1012640E+00
         -1   -1    0    0    0  501 -0.00000000000E+00  0.00000000000E+00  0.88300485929E+03  0.88300485931E+03  0.50400000000E-02 0.  1.
          1   -1    0    0  501    0  0.00000000000E+00 -0.00000000000E+00 -0.13464809419E+04  0.13464809419E+04  0.50400000000E-02 0. -1.
    8880023    1    1    2    0    0  0.10569168363E+03  0.99667671735E+02  0.74371409931E+03  0.10040046038E+04  0.65864270000E+03 0.  1.
    8880022    1    1    2    0    0 -0.10569168363E+03 -0.99667671735E+02 -0.12071901820E+04  0.12254811974E+04  0.15294330000E+03 0.  0.
<mgrwt>
<rscale>  0 0.50438697E+03</rscale>
<asrwt>0</asrwt>
<pdfrwt beam="1">  1        1 0.20715092E+00 0.67447356E+03</pdfrwt>
<pdfrwt beam="2">  1       -1 0.13584690E+00 0.67447356E+03</pdfrwt>
<totfact> 0.40096834E+00</totfact>
</mgrwt>
</event>
<event>
 4    5  0.1234687E-007  0.9837967E+03  0.7818608E-02  0.9403070E-01
          1   -1    0    0  501    0  0.00000000000E+00  0.00000000000E+00  0.14476351771E+04  0.14476351771E+04  0.50400000000E-02 0. -1.
         -1   -1    0    0    0  501 -0.00000000000E+00 -0.00000000000E+00 -0.21790366056E+04  0.21790366056E+04  0.50400000000E-02 0.  1.
    8880023    1    1    2    0    0  0.73048645354E+03 -0.20862048446E+02 -0.19576863329E+04  0.21909796138E+04  0.65864270000E+03 0.  0.
    8880022    1    1    2    0    0 -0.73048645354E+03  0.20862048446E+02  0.12262849044E+04  0.14356921689E+04  0.15294330000E+03 0.  0.
<mgrwt>
<rscale>  0 0.91823431E+03</rscale>
<asrwt>0</asrwt>
<pdfrwt beam="1">  1        1 0.22271310E+00 0.98379667E+03</pdfrwt>
<pdfrwt beam="2">  1       -1 0.33523640E+00 0.98379667E+03</pdfrwt>
<totfact> 0.14175552E-01</totfact>
</mgrwt>
</event>
<event>
 4    5  0.7767175E-008  0.8972576E+03  0.7818608E-02  0.9530449E-01
          1   -1    0    0  501    0  0.00000000000E+00  0.00000000000E+00  0.96183988990E+03  0.96183988992E+03  0.50400000000E-02 0. -1.
         -1   -1    0    0    0  501 -0.00000000000E+00 -0.00000000000E+00 -0.11680723755E+04  0.11680723755E+04  0.50400000000E-02 0.  1.
    8880023    1    1    2    0    0  0.66466675119E+02  0.60567573958E+03 -0.84605350316E+03  0.12332386861E+04  0.65864270000E+03 0.  1.
    8880022    1    1    2    0    0 -0.66466675119E+02 -0.60567573958E+03  0.63982101754E+03  0.89667357935E+03  0.15294330000E+03 0.  0.
<mgrwt>
<rscale>  0 0.82075722E+03</rscale>
<asrwt>0</asrwt>
<pdfrwt beam="1">  1        1 0.14797537E+00 0.89725756E+03</pdfrwt>
<pdfrwt beam="2">  1       -1 0.17970344E+00 0.89725756E+03</pdfrwt>
<totfact> 0.34476796E+00</totfact>
</mgrwt>
</event>
<event>
 4    5  0.7767175E-008  0.6624911E+03  0.7818608E-02  0.1021738E+00
         -1   -1    0    0    0  501 -0.00000000000E+00  0.00000000000E+00  0.45970432191E+03  0.45970432194E+03  0.50400000000E-02 0.  1.
          1   -1    0    0  501    0  0.00000000000E+00 -0.00000000000E+00 -0.14514470707E+04  0.14514470707E+04  0.50400000000E-02 0. -1.
    8880023    1    1    2    0    0  0.64570814757E+02  0.30245919881E+02  0.21204107639E+03  0.69559746271E+03  0.65864270000E+03 0.  1.
    8880022    1    1    2    0    0 -0.64570814757E+02 -0.30245919881E+02 -0.12037838252E+04  0.12155539299E+04  0.15294330000E+03 0.  0.
<mgrwt>
<rscale>  0 0.47064627E+03</rscale>
<asrwt>0</asrwt>
<pdfrwt beam="1">  1        1 0.22329955E+00 0.66249107E+03</pdfrwt>
<pdfrwt beam="2">  1       -1 0.70723742E-01 0.66249107E+03</pdfrwt>
<totfact> 0.14986180E+01</totfact>
</mgrwt>
</event>
<event>
 4    5  0.7767175E-008  0.8103429E+03  0.7818608E-02  0.9688863E-01
         -1   -1    0    0    0  501 -0.00000000000E+00  0.00000000000E+00  0.23459862489E+03  0.23459862494E+03  0.50400000000E-02 0.  1.
          1   -1    0    0  501    0  0.00000000000E+00 -0.00000000000E+00 -0.34322510903E+04  0.34322510903E+04  0.50400000000E-02 0. -1.
    8880023    1    1    2    0    0 -0.20839915378E+03 -0.42357439460E+03 -0.56506648330E+03  0.98790475850E+03  0.65864270000E+03 0.  1.
    8880022    1    1    2    0    0  0.20839915378E+03  0.42357439460E+03 -0.26325859821E+04  0.26789449568E+04  0.15294330000E+03 0.  0.
<mgrwt>
<rscale>  0 0.71683769E+03</rscale>
<asrwt>0</asrwt>
<pdfrwt beam="1">  1        1 0.52803860E+00 0.81034294E+03</pdfrwt>
<pdfrwt beam="2">  1       -1 0.36092098E-01 0.81034294E+03</pdfrwt>
<totfact> 0.22198232E+00</totfact>
</mgrwt>
</event>
<event>
 4    5  0.7767175E-008  0.7526594E+03  0.7818608E-02  0.9824496E-01
          1   -1    0    0  501    0  0.00000000000E+00  0.00000000000E+00  0.14935666662E+04  0.14935666662E+04  0.50400000000E-02 0. -1.
         -1   -1    0    0    0  501 -0.00000000000E+00 -0.00000000000E+00 -0.53547015509E+03  0.53547015511E+03  0.50400000000E-02 0.  1.
    8880023    1    1    2    0    0 -0.65505899974E+02  0.35832243501E+03 -0.22187836236E+03  0.78468223142E+03  0.65864270000E+03 0.  1.
    8880022    1    1    2    0    0  0.65505899974E+02 -0.35832243501E+03  0.11799748735E+04  0.12443545899E+04  0.15294330000E+03 0.  0.
<mgrwt>
<rscale>  0 0.64064356E+03</rscale>
<asrwt>0</asrwt>
<pdfrwt beam="1">  1        1 0.22977948E+00 0.75265942E+03</pdfrwt>
<pdfrwt beam="2">  1       -1 0.82380025E-01 0.75265942E+03</pdfrwt>
<totfact> 0.10049487E+01</totfact>
</mgrwt>
</event>
<event>
 4    5  0.7767175E-008  0.1539571E+04  0.7818608E-02  0.8882187E-01
          1   -1    0    0  501    0  0.00000000000E+00  0.00000000000E+00  0.14494326127E+04  0.14494326127E+04  0.50400000000E-02 0. -1.
         -1   -1    0    0    0  501 -0.00000000000E+00 -0.00000000000E+00 -0.19284049091E+04  0.19284049092E+04  0.50400000000E-02 0.  1.
    8880023    1    1    2    0    0 -0.12866505856E+04 -0.53009437228E+03 -0.10525122764E+04  0.18649563188E+04  0.65864270000E+03 0.  0.
    8880022    1    1    2    0    0  0.12866505856E+04  0.53009437228E+03  0.57353998002E+03  0.15128812030E+04  0.15294330000E+03 0.  0.
<mgrwt>
<rscale>  0 0.15034121E+04</rscale>
<asrwt>0</asrwt>
<pdfrwt beam="1">  1        1 0.22298963E+00 0.15395714E+04</pdfrwt>
<pdfrwt beam="2">  1       -1 0.29667768E+00 0.15395714E+04</pdfrwt>
<totfact> 0.23185259E-01</totfact>
</mgrwt>
</event>
<event>
 4    5  0.7767175E-008  0.7015935E+03  0.7818608E-02  0.9990654E-01
          1   -1    0    0  501    0  0.00000000000E+00  0.00000000000E+00  0.19568852396E+04  0.19568852396E+04  0.50400000000E-02 0. -1.
         -1   -1    0    0    0  501 -0.00000000000E+00 -0.00000000000E+00 -0.86173518969E+03  0.86173518970E+03  0.50400000000E-02 0.  1.
    8880023    1    1    2    0    0 -0.23735711953E+03  0.45659934170E+02 -0.70575022604E+03  0.99514663221E+03  0.65864270000E+03 0.  1.
    8880022    1    1    2    0    0  0.23735711953E+03 -0.45659934170E+02  0.18009002759E+04  0.18234737971E+04  0.15294330000E+03 0.  0.
<mgrwt>
<rscale>  0 0.56061951E+03</rscale>
<asrwt>0</asrwt>
<pdfrwt beam="1">  1        1 0.30105926E+00 0.70159350E+03</pdfrwt>
<pdfrwt beam="2">  1       -1 0.13257465E+00 0.70159350E+03</pdfrwt>
<totfact> 0.16391664E+00</totfact>
</mgrwt>
</event>
<event>
 4    5  0.7767175E-008  0.8108501E+03  0.7818608E-02  0.9687809E-01
          1   -1    0    0  501    0  0.00000000000E+00  0.00000000000E+00  0.90776528639E+03  0.90776528640E+03  0.50400000000E-02 0. -1.
         -1   -1    0    0    0  501 -0.00000000000E+00 -0.00000000000E+00 -0.74882233173E+03  0.74882233175E+03  0.50400000000E-02 0.  1.
    8880023    1    1    2    0    0  0.10029410588E+03 -0.46217835896E+03 -0.40374111951E+03  0.90580618292E+03  0.65864270000E+03 0.  0.
    8880022    1    1    2    0    0 -0.10029410588E+03  0.46217835896E+03  0.56268407417E+03  0.75078143524E+03  0.15294330000E+03 0.  0.
<mgrwt>
<rscale>  0 0.71747309E+03</rscale>
<asrwt>0</asrwt>
<pdfrwt beam="1">  1        1 0.13965620E+00 0.81085014E+03</pdfrwt>
<pdfrwt beam="2">  1       -1 0.11520344E+00 0.81085014E+03</pdfrwt>
<totfact> 0.12536422E+01</totfact>
</mgrwt>
</event>
<event>
 4    5  0.7767175E-008  0.1140467E+04  0.7818608E-02  0.9217285E-01
          1   -1    0    0  501    0  0.00000000000E+00  0.00000000000E+00  0.11127168777E+04  0.11127168777E+04  0.50400000000E-02 0. -1.
         -1   -1    0    0    0  501 -0.00000000000E+00 -0.00000000000E+00 -0.11104593388E+04  0.11104593388E+04  0.50400000000E-02 0.  1.
    8880023    1    1    2    0    0  0.86599524053E+03 -0.34191546648E+03 -0.38438386271E+03  0.12035011853E+04  0.65864270000E+03 0. -1.
    8880022    1    1    2    0    0 -0.86599524053E+03  0.34191546648E+03  0.38664140156E+03  0.10196750312E+04  0.15294330000E+03 0.  0.
<mgrwt>
<rscale>  0 0.10876788E+04</rscale>
<asrwt>0</asrwt>
<pdfrwt beam="1">  1        1 0.17118721E+00 0.11404666E+04</pdfrwt>
<pdfrwt beam="2">  1       -1 0.17083990E+00 0.11404666E+04</pdfrwt>
<totfact> 0.29699448E+00</totfact>
</mgrwt>
</event>
<event>
 4    5  0.7767175E-008  0.8875899E+03  0.7818608E-02  0.9546255E-01
         -1   -1    0    0    0  501 -0.00000000000E+00  0.00000000000E+00  0.20220486743E+04  0.20220486743E+04  0.50400000000E-02 0.  1.
          1   -1    0    0  501    0  0.00000000000E+00 -0.00000000000E+00 -0.84200005595E+03  0.84200005596E+03  0.50400000000E-02 0. -1.
    8880023    1    1    2    0    0 -0.31057925408E+03  0.50748997730E+03  0.17902311717E+04  0.19981850276E+04  0.65864270000E+03 0.  0.
    8880022    1    1    2    0    0  0.31057925408E+03 -0.50748997730E+03 -0.61018255337E+03  0.86586370265E+03  0.15294330000E+03 0.  0.
<mgrwt>
<rscale>  0 0.80957872E+03</rscale>
<asrwt>0</asrwt>
<pdfrwt beam="1">  1        1 0.12953847E+00 0.88758986E+03</pdfrwt>
<pdfrwt beam="2">  1       -1 0.31108441E+00 0.88758986E+03</pdfrwt>
<totfact> 0.58860825E-01</totfact>
</mgrwt>
</event>
<event>
 4    5  0.7767175E-008  0.1083064E+04  0.7818608E-02  0.9280151E-01
         -1   -1    0    0    0  501 -0.00000000000E+00  0.00000000000E+00  0.19551095393E+04  0.19551095393E+04  0.50400000000E-02 0.  1.
          1   -1    0    0  501    0  0.00000000000E+00 -0.00000000000E+00 -0.68006712892E+03  0.68006712894E+03  0.50400000000E-02 0. -1.
    8880023    1    1    2    0    0 -0.53706787839E+03 -0.67139779180E+03  0.13814968401E+04  0.17554374458E+04  0.65864270000E+03 0.  1.
    8880022    1    1    2    0    0  0.53706787839E+03  0.67139779180E+03 -0.10645442970E+03  0.87973922241E+03  0.15294330000E+03 0.  0.
<mgrwt>
<rscale>  0 0.10263092E+04</rscale>
<asrwt>0</asrwt>
<pdfrwt beam="1">  1        1 0.10462571E+00 0.10830638E+04</pdfrwt>
<pdfrwt beam="2">  1       -1 0.30078608E+00 0.10830638E+04</pdfrwt>
<totfact> 0.93151456E-01</totfact>
</mgrwt>
</event>
<event>
 4    5  0.7767175E-008  0.9062645E+03  0.7818608E-02  0.9516049E-01
         -1   -1    0    0    0  501 -0.00000000000E+00  0.00000000000E+00  0.83563435289E+03  0.83563435291E+03  0.50400000000E-02 0.  1.
          1   -1    0    0  501    0  0.00000000000E+00 -0.00000000000E+00 -0.15658855247E+04  0.15658855247E+04  0.50400000000E-02 0. -1.
    8880023    1    1    2    0    0 -0.46030251882E+03  0.41907836007E+03  0.48477199554E+03  0.10277738928E+04  0.65864270000E+03 0.  1.
    8880022    1    1    2    0    0  0.46030251882E+03 -0.41907836007E+03 -0.12150231673E+04  0.13737459848E+04  0.15294330000E+03 0.  0.
<mgrwt>
<rscale>  0 0.83110865E+03</rscale>
<asrwt>0</asrwt>
<pdfrwt beam="1">  1        1 0.24090547E+00 0.90626447E+03</pdfrwt>
<pdfrwt beam="2">  1       -1 0.12855913E+00 0.90626447E+03</pdfrwt>
<totfact> 0.31312712E+00</totfact>
</mgrwt>
</event>
<event>
 4    5  0.7767175E-008  0.1204297E+04  0.7818608E-02  0.9152956E-01
         -1   -1    0    0    0  501 -0.00000000000E+00  0.00000000000E+00  0.10509731258E+04  0.10509731258E+04  0.50400000000E-02 0.  1.
          1   -1    0    0  501    0  0.00000000000E+00 -0.00000000000E+00 -0.14932938672E+04  0.14932938672E+04  0.50400000000E-02 0. -1.
    8880023    1    1    2    0    0  0.92329238901E+03  0.40503435912E+03  0.34860062254E+03  0.12537361237E+04  0.65864270000E+03 0.  0.
    8880022    1    1    2    0    0 -0.92329238901E+03 -0.40503435912E+03 -0.79092136387E+03  0.12905308693E+04  0.15294330000E+03 0.  0.
<mgrwt>
<rscale>  0 0.11552472E+04</rscale>
<asrwt>0</asrwt>
<pdfrwt beam="1">  1        1 0.22973752E+00 0.12042973E+04</pdfrwt>
<pdfrwt beam="2">  1       -1 0.16168817E+00 0.12042973E+04</pdfrwt>
<totfact> 0.18389654E+00</totfact>
</mgrwt>
</event>
<event>
 4    5  0.7767175E-008  0.7014484E+03  0.7818608E-02  0.9991245E-01
          1   -1    0    0  501    0  0.00000000000E+00  0.00000000000E+00  0.14580904744E+04  0.14580904744E+04  0.50400000000E-02 0. -1.
         -1   -1    0    0    0  501 -0.00000000000E+00 -0.00000000000E+00 -0.21508866767E+03  0.21508866773E+03  0.50400000000E-02 0.  1.
    8880023    1    1    2    0    0 -0.21190836837E+03  0.11538851859E+03  0.45779628237E+03  0.83762002675E+03  0.65864270000E+03 0.  1.
    8880022    1    1    2    0    0  0.21190836837E+03 -0.11538851859E+03  0.78520552440E+03  0.83555911542E+03  0.15294330000E+03 0. -1.
<mgrwt>
<rscale>  0 0.56035803E+03</rscale>
<asrwt>0</asrwt>
<pdfrwt beam="1">  1        1 0.22432162E+00 0.70144841E+03</pdfrwt>
<pdfrwt beam="2">  1       -1 0.33090564E-01 0.70144841E+03</pdfrwt>
<totfact> 0.61887827E+01</totfact>
</mgrwt>
</event>
<event>
 4    5  0.7767175E-008  0.7648846E+03  0.7818608E-02  0.9792622E-01
          1   -1    0    0  501    0  0.00000000000E+00  0.00000000000E+00  0.50192953263E+03  0.50192953265E+03  0.50400000000E-02 0. -1.
         -1   -1    0    0    0  501 -0.00000000000E+00 -0.00000000000E+00 -0.13873195347E+04  0.13873195347E+04  0.50400000000E-02 0.  1.
    8880023    1    1    2    0    0  0.38296354693E+03  0.67654588037E+02 -0.11598054649E+04  0.13893153509E+04  0.65864270000E+03 0.  1.
    8880022    1    1    2    0    0 -0.38296354693E+03 -0.67654588037E+02  0.27441546286E+03  0.49993371644E+03  0.15294330000E+03 0.  0.
<mgrwt>
<rscale>  0 0.65759992E+03</rscale>
<asrwt>0</asrwt>
<pdfrwt beam="1">  1        1 0.77219929E-01 0.76488458E+03</pdfrwt>
<pdfrwt beam="2">  1       -1 0.21343377E+00 0.76488458E+03</pdfrwt>
<totfact> 0.55542861E+00</totfact>
</mgrwt>
</event>
<event>
 4    5  0.7767175E-008  0.1598326E+04  0.7818608E-02  0.8843154E-01
          1   -1    0    0  501    0  0.00000000000E+00  0.00000000000E+00  0.51738969610E+04  0.51738969610E+04  0.50400000000E-02 0. -1.
         -1   -1    0    0    0  501 -0.00000000000E+00 -0.00000000000E+00 -0.12125484515E+04  0.12125484516E+04  0.50400000000E-02 0.  1.
    8880023    1    1    2    0    0 -0.64851023511E+03 -0.13039443974E+04 -0.51295394887E+03  0.16786210044E+04  0.65864270000E+03 0.  0.
    8880022    1    1    2    0    0  0.64851023511E+03  0.13039443974E+04  0.44743024584E+04  0.47078244082E+04  0.15294330000E+03 0.  0.
<mgrwt>
<rscale>  0 0.15637162E+04</rscale>
<asrwt>0</asrwt>
<pdfrwt beam="1">  1        1 0.79598413E+00 0.15983262E+04</pdfrwt>
<pdfrwt beam="2">  1       -1 0.18654592E+00 0.15983262E+04</pdfrwt>
<totfact> 0.91267264E-04</totfact>
</mgrwt>
</event>
<event>
 4    5  0.7767175E-008  0.8878652E+03  0.7818608E-02  0.9545800E-01
          1   -1    0    0  501    0  0.00000000000E+00  0.00000000000E+00  0.17728806334E+04  0.17728806334E+04  0.50400000000E-02 0. -1.
         -1   -1    0    0    0  501 -0.00000000000E+00 -0.00000000000E+00 -0.76964839829E+03  0.76964839831E+03  0.50400000000E-02 0.  1.
    8880023    1    1    2    0    0  0.37706909146E+03 -0.46077459160E+03 -0.42742756213E+03  0.98539273953E+03  0.65864270000E+03 0.  1.
    8880022    1    1    2    0    0 -0.37706909146E+03  0.46077459160E+03  0.14306597972E+04  0.15571362922E+04  0.15294330000E+03 0.  0.
<mgrwt>
<rscale>  0 0.80989805E+03</rscale>
<asrwt>0</asrwt>
<pdfrwt beam="1">  1        1 0.27275086E+00 0.88786515E+03</pdfrwt>
<pdfrwt beam="2">  1       -1 0.11840745E+00 0.88786515E+03</pdfrwt>
<totfact> 0.27862744E+00</totfact>
</mgrwt>
</event>
<event>
 4    5  0.7767175E-008  0.1053120E+04  0.7818608E-02  0.9315140E-01
         -1   -1    0    0    0  501 -0.00000000000E+00  0.00000000000E+00  0.14130333616E+04  0.14130333616E+04  0.50400000000E-02 0.  1.
          1   -1    0    0  501    0  0.00000000000E+00 -0.00000000000E+00 -0.74383017131E+03  0.74383017133E+03  0.50400000000E-02 0. -1.
    8880023    1    1    2    0    0  0.80487579097E+03 -0.16560776862E+03  0.78436076032E+03  0.13131195606E+04  0.65864270000E+03 0.  0.
    8880022    1    1    2    0    0 -0.80487579097E+03  0.16560776862E+03 -0.11515757000E+03  0.84374397234E+03  0.15294330000E+03 0.  0.
<mgrwt>
<rscale>  0 0.99400873E+03</rscale>
<asrwt>0</asrwt>
<pdfrwt beam="1">  1        1 0.11443541E+00 0.10531197E+04</pdfrwt>
<pdfrwt beam="2">  1       -1 0.21738974E+00 0.10531197E+04</pdfrwt>
<totfact> 0.28397389E+00</totfact>
</mgrwt>
</event>
<event>
 4    5  0.7767175E-008  0.8185113E+03  0.7818608E-02  0.9672113E-01
         -1   -1    0    0    0  501 -0.00000000000E+00  0.00000000000E+00  0.15592321787E+04  0.15592321788E+04  0.50400000000E-02 0.  1.
          1   -1    0    0  501    0  0.00000000000E+00 -0.00000000000E+00 -0.45340775791E+03  0.45340775793E+03  0.50400000000E-02 0. -1.
    8880023    1    1    2    0    0 -0.39464360422E+03 -0.28356130252E+03  0.12400256823E+04  0.14858076880E+04  0.65864270000E+03 0.  1.
    8880022    1    1    2    0    0  0.39464360422E+03  0.28356130252E+03 -0.13420126150E+03  0.52683224868E+03  0.15294330000E+03 0.  0.
<mgrwt>
<rscale>  0 0.72701693E+03</rscale>
<asrwt>0</asrwt>
<pdfrwt beam="1">  1        1 0.69755038E-01 0.81851133E+03</pdfrwt>
<pdfrwt beam="2">  1       -1 0.23988188E+00 0.81851133E+03</pdfrwt>
<totfact> 0.42394405E+00</totfact>
</mgrwt>
</event>
<event>
 4    5  0.7767175E-008  0.7895517E+03  0.7818608E-02  0.9733860E-01
          1   -1    0    0  501    0  0.00000000000E+00  0.00000000000E+00  0.20319501290E+04  0.20319501290E+04  0.50400000000E-02 0. -1.
         -1   -1    0    0    0  501 -0.00000000000E+00 -0.00000000000E+00 -0.39488328810E+03  0.39488328813E+03  0.50400000000E-02 0.  1.
    8880023    1    1    2    0    0  0.43523695783E+03  0.12267760919E+02  0.69336984923E+02  0.79259039305E+03  0.65864270000E+03 0.  1.
    8880022    1    1    2    0    0 -0.43523695783E+03 -0.12267760919E+02  0.15677298560E+04  0.16342430241E+04  0.15294330000E+03 0.  0.
<mgrwt>
<rscale>  0 0.69036076E+03</rscale>
<asrwt>0</asrwt>
<pdfrwt beam="1">  1        1 0.31260771E+00 0.78955172E+03</pdfrwt>
<pdfrwt beam="2">  1       -1 0.60751275E-01 0.78955172E+03</pdfrwt>
<totfact> 0.81097341E+00</totfact>
</mgrwt>
</event>
<event>
 4    5  0.7767175E-008  0.8423733E+03  0.7818608E-02  0.9625721E-01
         -1   -1    0    0    0  501 -0.00000000000E+00  0.00000000000E+00  0.94112863087E+03  0.94112863088E+03  0.50400000000E-02 0.  1.
          1   -1    0    0  501    0  0.00000000000E+00 -0.00000000000E+00 -0.19641629482E+04  0.19641629482E+04  0.50400000000E-02 0. -1.
    8880023    1    1    2    0    0 -0.13512185861E+03  0.50746885840E+03  0.70142237673E+03  0.10961688354E+04  0.65864270000E+03 0.  0.
    8880022    1    1    2    0    0  0.13512185861E+03 -0.50746885840E+03 -0.17244566941E+04  0.18091227437E+04  0.15294330000E+03 0.  0.
<mgrwt>
<rscale>  0 0.75616916E+03</rscale>
<asrwt>0</asrwt>
<pdfrwt beam="1">  1        1 0.30217891E+00 0.84237329E+03</pdfrwt>
<pdfrwt beam="2">  1       -1 0.14478902E+00 0.84237329E+03</pdfrwt>
<totfact> 0.12542887E+00</totfact>
</mgrwt>
</event>
<event>
 4    5  0.7767175E-008  0.6915571E+03  0.7818608E-02  0.1003421E+00
          1   -1    0    0  501    0  0.00000000000E+00  0.00000000000E+00  0.31879535793E+03  0.31879535797E+03  0.50400000000E-02 0. -1.
         -1   -1    0    0    0  501 -0.00000000000E+00 -0.00000000000E+00 -0.16810106781E+04  0.16810106781E+04  0.50400000000E-02 0.  1.
    8880023    1    1    2    0    0 -0.11022878566E+03 -0.17969578064E+03 -0.15374984283E+04  0.16858684949E+04  0.65864270000E+03 0.  1.
    8880022    1    1    2    0    0  0.11022878566E+03  0.17969578064E+03  0.17528310812E+03  0.31393754120E+03  0.15294330000E+03 0.  0.
<mgrwt>
<rscale>  0 0.54175238E+03</rscale>
<asrwt>0</asrwt>
<pdfrwt beam="1">  1        1 0.49045441E-01 0.69155706E+03</pdfrwt>
<pdfrwt beam="2">  1       -1 0.25861702E+00 0.69155706E+03</pdfrwt>
<totfact> 0.52032769E+00</totfact>
</mgrwt>
</event>
<event>
 4    5  0.7767175E-008  0.7271977E+03  0.7818608E-02  0.9898944E-01
         -1   -1    0    0    0  501 -0.00000000000E+00  0.00000000000E+00  0.90232785355E+03  0.90232785357E+03  0.50400000000E-02 0.  1.
          1   -1    0    0  501    0  0.00000000000E+00 -0.00000000000E+00 -0.74958343743E+03  0.74958343745E+03  0.50400000000E-02 0. -1.
    8880023    1    1    2    0    0  0.37272545891E+02  0.30596908708E+03  0.69746913337E+03  0.10076108987E+04  0.65864270000E+03 0.  0.
    8880022    1    1    2    0    0 -0.37272545891E+02 -0.30596908708E+03 -0.54472471726E+03  0.64430039231E+03  0.15294330000E+03 0.  0.
<mgrwt>
<rscale>  0 0.60312512E+03</rscale>
<asrwt>0</asrwt>
<pdfrwt beam="1">  1        1 0.11532053E+00 0.72719772E+03</pdfrwt>
<pdfrwt beam="2">  1       -1 0.13881967E+00 0.72719772E+03</pdfrwt>
<totfact> 0.10857377E+01</totfact>
</mgrwt>
</event>
<event>
 4    5  0.8944824E-008  0.1315788E+04  0.7818608E-02  0.9052045E-01
          1   -1    0    0  501    0  0.00000000000E+00  0.00000000000E+00  0.17406757951E+04  0.17406757951E+04  0.50400000000E-02 0. -1.
         -1   -1    0    0    0  501 -0.00000000000E+00 -0.00000000000E+00 -0.17691748373E+04  0.17691748373E+04  0.50400000000E-02 0.  1.
    8880023    1    1    2    0    0 -0.10495475630E+04  0.44264712586E+03 -0.12625197626E+04  0.18235276039E+04  0.65864270000E+03 0. -1.
    8880022    1    1    2    0    0  0.10495475630E+04 -0.44264712586E+03  0.12340207204E+04  0.16863230285E+04  0.15294330000E+03 0.  0.
<mgrwt>
<rscale>  0 0.12720295E+04</rscale>
<asrwt>0</asrwt>
<pdfrwt beam="1">  1        1 0.26779628E+00 0.13157875E+04</pdfrwt>
<pdfrwt beam="2">  1       -1 0.27218074E+00 0.13157875E+04</pdfrwt>
<totfact> 0.21612514E-01</totfact>
</mgrwt>
</event>
<event>
 4    5  0.7767175E-008  0.8836508E+03  0.7818608E-02  0.9552804E-01
         -1   -1    0    0    0  501 -0.00000000000E+00  0.00000000000E+00  0.66230819201E+03  0.66230819203E+03  0.50400000000E-02 0.  1.
          1   -1    0    0  501    0  0.00000000000E+00 -0.00000000000E+00 -0.21973904119E+04  0.21973904119E+04  0.50400000000E-02 0. -1.
    8880023    1    1    2    0    0 -0.31895835105E+03 -0.49527178106E+03  0.29458478177E+03  0.93146066301E+03  0.65864270000E+03 0.  1.
    8880022    1    1    2    0    0  0.31895835105E+03  0.49527178106E+03 -0.18296670017E+04  0.19282379409E+04  0.15294330000E+03 0.  0.
<mgrwt>
<rscale>  0 0.80500272E+03</rscale>
<asrwt>0</asrwt>
<pdfrwt beam="1">  1        1 0.33806006E+00 0.88365082E+03</pdfrwt>
<pdfrwt beam="2">  1       -1 0.10189357E+00 0.88365082E+03</pdfrwt>
<totfact> 0.20614981E+00</totfact>
</mgrwt>
</event>
<event>
 4    5  0.7767175E-008  0.1099842E+04  0.7818608E-02  0.9261232E-01
          1   -1    0    0  501    0  0.00000000000E+00  0.00000000000E+00  0.14984528205E+04  0.14984528205E+04  0.50400000000E-02 0. -1.
         -1   -1    0    0    0  501 -0.00000000000E+00 -0.00000000000E+00 -0.99463710029E+03  0.99463710030E+03  0.50400000000E-02 0.  1.
    8880023    1    1    2    0    0  0.81743299209E+03  0.32809291990E+03 -0.44770884062E+03  0.11874742409E+04  0.65864270000E+03 0.  1.
    8880022    1    1    2    0    0 -0.81743299209E+03 -0.32809291990E+03  0.95152456083E+03  0.13056156799E+04  0.15294330000E+03 0. -1.
<mgrwt>
<rscale>  0 0.10443158E+04</rscale>
<asrwt>0</asrwt>
<pdfrwt beam="1">  1        1 0.23053120E+00 0.10998417E+04</pdfrwt>
<pdfrwt beam="2">  1       -1 0.15302109E+00 0.10998417E+04</pdfrwt>
<totfact> 0.21515008E+00</totfact>
</mgrwt>
</event>
<event>
 4    5  0.7767175E-008  0.1625983E+04  0.7818608E-02  0.8825444E-01
          1   -1    0    0  501    0  0.00000000000E+00  0.00000000000E+00  0.18862708804E+04  0.18862708805E+04  0.50400000000E-02 0. -1.
         -1   -1    0    0    0  501 -0.00000000000E+00 -0.00000000000E+00 -0.15241389381E+04  0.15241389381E+04  0.50400000000E-02 0.  1.
    8880023    1    1    2    0    0 -0.13551296866E+04 -0.61125678932E+03  0.85461580692E+03  0.18368967618E+04  0.65864270000E+03 0.  0.
    8880022    1    1    2    0    0  0.13551296866E+04  0.61125678932E+03 -0.49248386458E+03  0.15735130568E+04  0.15294330000E+03 0.  0.
<mgrwt>
<rscale>  0 0.15920545E+04</rscale>
<asrwt>0</asrwt>
<pdfrwt beam="1">  1        1 0.29019552E+00 0.16259833E+04</pdfrwt>
<pdfrwt beam="2">  1       -1 0.23448291E+00 0.16259833E+04</pdfrwt>
<totfact> 0.29219707E-01</totfact>
</mgrwt>
</event>
<event>
 4    5  0.7767175E-008  0.9064223E+03  0.7818608E-02  0.9515799E-01
         -1   -1    0    0    0  501 -0.00000000000E+00  0.00000000000E+00  0.36742180213E+03  0.36742180217E+03  0.50400000000E-02 0.  1.
          1   -1    0    0  501    0  0.00000000000E+00 -0.00000000000E+00 -0.25207592251E+04  0.25207592251E+04  0.50400000000E-02 0. -1.
    8880023    1    1    2    0    0 -0.41403479744E+03  0.46515195966E+03 -0.34558097614E+03  0.97006575881E+03  0.65864270000E+03 0.  0.
    8880022    1    1    2    0    0  0.41403479744E+03 -0.46515195966E+03 -0.18077564468E+04  0.19181152684E+04  0.15294330000E+03 0.  0.
<mgrwt>
<rscale>  0 0.83128951E+03</rscale>
<asrwt>0</asrwt>
<pdfrwt beam="1">  1        1 0.38780910E+00 0.90642229E+03</pdfrwt>
<pdfrwt beam="2">  1       -1 0.56526433E-01 0.90642229E+03</pdfrwt>
<totfact> 0.42868299E+00</totfact>
</mgrwt>
</event>
<event>
 4    5  0.7767175E-008  0.1374322E+04  0.7818608E-02  0.9003897E-01
          1   -1    0    0  501    0  0.00000000000E+00  0.00000000000E+00  0.14556550003E+04  0.14556550003E+04  0.50400000000E-02 0. -1.
         -1   -1    0    0    0  501 -0.00000000000E+00 -0.00000000000E+00 -0.13332497702E+04  0.13332497702E+04  0.50400000000E-02 0.  1.
    8880023    1    1    2    0    0  0.11714358472E+04 -0.28755454586E+03 -0.44852625459E+03  0.14456609451E+04  0.65864270000E+03 0.  1.
    8880022    1    1    2    0    0 -0.11714358472E+04  0.28755454586E+03  0.57093148472E+03  0.13432438253E+04  0.15294330000E+03 0.  0.
<mgrwt>
<rscale>  0 0.13328710E+04</rscale>
<asrwt>0</asrwt>
<pdfrwt beam="1">  1        1 0.22394692E+00 0.13743216E+04</pdfrwt>
<pdfrwt beam="2">  1       -1 0.20511535E+00 0.13743216E+04</pdfrwt>
<totfact> 0.93609589E-01</totfact>
</mgrwt>
</event>
<event>
 4    5  0.7767175E-008  0.7215969E+03  0.7818608E-02  0.9917219E-01
         -1   -1    0    0    0  501 -0.00000000000E+00  0.00000000000E+00  0.33276105049E+03  0.33276105053E+03  0.50400000000E-02 0.  1.
          1   -1    0    0  501    0  0.00000000000E+00 -0.00000000000E+00 -0.18564841548E+04  0.18564841548E+04  0.50400000000E-02 0. -1.
    8880023    1    1    2    0    0  0.26284189323E+03  0.13343935431E+03 -0.10142255984E+03  0.72868968980E+03  0.65864270000E+03 0.  1.
    8880022    1    1    2    0    0 -0.26284189323E+03 -0.13343935431E+03 -0.14223005445E+04  0.14605555155E+04  0.15294330000E+03 0.  0.
<mgrwt>
<rscale>  0 0.59433987E+03</rscale>
<asrwt>0</asrwt>
<pdfrwt beam="1">  1        1 0.28561294E+00 0.72159693E+03</pdfrwt>
<pdfrwt beam="2">  1       -1 0.51194009E-01 0.72159693E+03</pdfrwt>
<totfact> 0.14960109E+01</totfact>
</mgrwt>
</event>
<event>
 4    5  0.7767175E-008  0.7068335E+03  0.7818608E-02  0.9969953E-01
          1   -1    0    0  501    0  0.00000000000E+00  0.00000000000E+00  0.22311783479E+04  0.22311783479E+04  0.50400000000E-02 0. -1.
         -1   -1    0    0    0  501 -0.00000000000E+00 -0.00000000000E+00 -0.71795105847E+03  0.71795105849E+03  0.50400000000E-02 0.  1.
    8880023    1    1    2    0    0 -0.18431503703E+03  0.17841352584E+03 -0.53045524735E+03  0.88374000406E+03  0.65864270000E+03 0.  1.
    8880022    1    1    2    0    0  0.18431503703E+03 -0.17841352584E+03  0.20436825368E+04  0.20653894023E+04  0.15294330000E+03 0.  0.
<mgrwt>
<rscale>  0 0.56987612E+03</rscale>
<asrwt>0</asrwt>
<pdfrwt beam="1">  1        1 0.34325820E+00 0.70683352E+03</pdfrwt>
<pdfrwt beam="2">  1       -1 0.11045401E+00 0.70683352E+03</pdfrwt>
<totfact> 0.16765496E+00</totfact>
</mgrwt>
</event>
<event>
 4    5  0.7767175E-008  0.1003214E+04  0.7818608E-02  0.9377365E-01
         -1   -1    0    0    0  501 -0.00000000000E+00  0.00000000000E+00  0.64202021801E+03  0.64202021803E+03  0.50400000000E-02 0.  1.
          1   -1    0    0  501    0  0.00000000000E+00 -0.00000000000E+00 -0.27495232223E+04  0.27495232223E+04  0.50400000000E-02 0. -1.
    8880023    1    1    2    0    0  0.75242796636E+03  0.80497862485E+02  0.14203277164E+03  0.10132182711E+04  0.65864270000E+03 0.  0.
    8880022    1    1    2    0    0 -0.75242796636E+03 -0.80497862485E+02 -0.22495357759E+04  0.23783251693E+04  0.15294330000E+03 0. -1.
<mgrwt>
<rscale>  0 0.93962092E+03</rscale>
<asrwt>0</asrwt>
<pdfrwt beam="1">  1        1 0.42300357E+00 0.10032138E+04</pdfrwt>
<pdfrwt beam="2">  1       -1 0.98772343E-01 0.10032138E+04</pdfrwt>
<totfact> 0.90749151E-01</totfact>
</mgrwt>
</event>
<event>
 4    5  0.7767175E-008  0.1024851E+04  0.7818608E-02  0.9349744E-01
         -1   -1    0    0    0  501 -0.00000000000E+00  0.00000000000E+00  0.57427088156E+03  0.57427088158E+03  0.50400000000E-02 0.  1.
          1   -1    0    0  501    0  0.00000000000E+00 -0.00000000000E+00 -0.16325980405E+04  0.16325980405E+04  0.50400000000E-02 0. -1.
    8880023    1    1    2    0    0  0.78180847079E+03  0.72692432453E+02 -0.95400266598E+03  0.14001571225E+04  0.65864270000E+03 0.  0.
    8880022    1    1    2    0    0 -0.78180847079E+03 -0.72692432453E+02 -0.10432449297E+03  0.80671179959E+03  0.15294330000E+03 0.  0.
<mgrwt>
<rscale>  0 0.96329539E+03</rscale>
<asrwt>0</asrwt>
<pdfrwt beam="1">  1        1 0.25116893E+00 0.10248507E+04</pdfrwt>
<pdfrwt beam="2">  1       -1 0.88349367E-01 0.10248507E+04</pdfrwt>
<totfact> 0.66956480E+00</totfact>
</mgrwt>
</event>
<event>
 4    5  0.7767175E-008  0.1612120E+04  0.7818608E-02  0.8834270E-01
         -1   -1    0    0    0  501 -0.00000000000E+00  0.00000000000E+00  0.17087909532E+04  0.17087909532E+04  0.50400000000E-02 0.  1.
          1   -1    0    0  501    0  0.00000000000E+00 -0.00000000000E+00 -0.24495227074E+04  0.24495227074E+04  0.50400000000E-02 0. -1.
    8880023    1    1    2    0    0 -0.66984518653E+03 -0.13101254331E+04  0.98192360313E+03  0.18876189745E+04  0.65864270000E+03 0. -1.
    8880022    1    1    2    0    0  0.66984518653E+03  0.13101254331E+04 -0.17226553573E+04  0.22706946861E+04  0.15294330000E+03 0.  0.
<mgrwt>
<rscale>  0 0.15778536E+04</rscale>
<asrwt>0</asrwt>
<pdfrwt beam="1">  1        1 0.37684965E+00 0.16121202E+04</pdfrwt>
<pdfrwt beam="2">  1       -1 0.26289092E+00 0.16121202E+04</pdfrwt>
<totfact> 0.78449619E-02</totfact>
</mgrwt>
</event>
<event>
 4    5  0.7767175E-008  0.9178712E+03  0.7818608E-02  0.9497931E-01
         -1   -1    0    0    0  501 -0.00000000000E+00  0.00000000000E+00  0.71577964498E+03  0.71577964499E+03  0.50400000000E-02 0.  1.
          1   -1    0    0  501    0  0.00000000000E+00 -0.00000000000E+00 -0.14045429417E+04  0.14045429417E+04  0.50400000000E-02 0. -1.
    8880023    1    1    2    0    0 -0.57840575216E+03  0.27225748083E+03  0.27100316009E+03  0.95704245937E+03  0.65864270000E+03 0.  1.
    8880022    1    1    2    0    0  0.57840575216E+03 -0.27225748083E+03 -0.95976645684E+03  0.11632801274E+04  0.15294330000E+03 0.  0.
<mgrwt>
<rscale>  0 0.84436544E+03</rscale>
<asrwt>0</asrwt>
<pdfrwt beam="1">  1        1 0.21608353E+00 0.91787121E+03</pdfrwt>
<pdfrwt beam="2">  1       -1 0.11011995E+00 0.91787121E+03</pdfrwt>
<totfact> 0.58924025E+00</totfact>
</mgrwt>
</event>
<event>
 4    5  0.7767175E-008  0.9748838E+03  0.7818608E-02  0.9415181E-01
          1   -1    0    0  501    0  0.00000000000E+00  0.00000000000E+00  0.19227148573E+04  0.19227148573E+04  0.50400000000E-02 0. -1.
         -1   -1    0    0    0  501 -0.00000000000E+00 -0.00000000000E+00 -0.89862518354E+03  0.89862518356E+03  0.50400000000E-02 0.  1.
    8880023    1    1    2    0    0 -0.58382490867E+03  0.41920959569E+03 -0.52466413147E+03  0.11071002060E+04  0.65864270000E+03 0.  0.
    8880022    1    1    2    0    0  0.58382490867E+03 -0.41920959569E+03  0.15487538053E+04  0.17142398349E+04  0.15294330000E+03 0.  0.
<mgrwt>
<rscale>  0 0.90836802E+03</rscale>
<asrwt>0</asrwt>
<pdfrwt beam="1">  1        1 0.29580228E+00 0.97488380E+03</pdfrwt>
<pdfrwt beam="2">  1       -1 0.13825003E+00 0.97488380E+03</pdfrwt>
<totfact> 0.14766772E+00</totfact>
</mgrwt>
</event>
<event>
 4    5  0.7767175E-008  0.1571698E+04  0.7818608E-02  0.8860599E-01
         -1   -1    0    0    0  501 -0.00000000000E+00  0.00000000000E+00  0.27837276515E+04  0.27837276515E+04  0.50400000000E-02 0.  1.
          1   -1    0    0  501    0  0.00000000000E+00 -0.00000000000E+00 -0.11573923229E+04  0.11573923229E+04  0.50400000000E-02 0. -1.
    8880023    1    1    2    0    0 -0.12964357315E+04 -0.59638773948E+03  0.19147759822E+04  0.24772164237E+04  0.65864270000E+03 0.  0.
    8880022    1    1    2    0    0  0.12964357315E+04  0.59638773948E+03 -0.28844065358E+03  0.14639035506E+04  0.15294330000E+03 0.  0.
<mgrwt>
<rscale>  0 0.15364037E+04</rscale>
<asrwt>0</asrwt>
<pdfrwt beam="1">  1        1 0.17806036E+00 0.15716979E+04</pdfrwt>
<pdfrwt beam="2">  1       -1 0.42826579E+00 0.15716979E+04</pdfrwt>
<totfact> 0.49442941E-02</totfact>
</mgrwt>
</event>
<event>
 4    5  0.7767175E-008  0.2452194E+04  0.7818608E-02  0.8428128E-01
         -1   -1    0    0    0  501 -0.00000000000E+00  0.00000000000E+00  0.35492072688E+04  0.35492072688E+04  0.50400000000E-02 0.  1.
          1   -1    0    0  501    0  0.00000000000E+00 -0.00000000000E+00 -0.23238027513E+04  0.23238027513E+04  0.50400000000E-02 0. -1.
    8880023    1    1    2    0    0 -0.23547830382E+04 -0.18558936826E+03  0.22178185444E+04  0.33063538638E+04  0.65864270000E+03 0.  0.
    8880022    1    1    2    0    0  0.23547830382E+04  0.18558936826E+03 -0.99241402688E+03  0.25666561563E+04  0.15294330000E+03 0.  0.
<mgrwt>
<rscale>  0 0.24306206E+04</rscale>
<asrwt>0</asrwt>
<pdfrwt beam="1">  1        1 0.35750812E+00 0.24521943E+04</pdfrwt>
<pdfrwt beam="2">  1       -1 0.54603188E+00 0.24521943E+04</pdfrwt>
<totfact> 0.11705502E-03</totfact>
</mgrwt>
</event>
<event>
 4    5  0.7767175E-008  0.7168996E+03  0.7818608E-02  0.9933220E-01
          1   -1    0    0  501    0  0.00000000000E+00  0.00000000000E+00  0.11220538892E+04  0.11220538892E+04  0.50400000000E-02 0. -1.
         -1   -1    0    0    0  501 -0.00000000000E+00 -0.00000000000E+00 -0.53271394501E+03  0.53271394503E+03  0.50400000000E-02 0.  1.
    8880023    1    1    2    0    0 -0.10137922924E+03 -0.26430481200E+03 -0.24732797704E+03  0.75836410533E+03  0.65864270000E+03 0.  1.
    8880022    1    1    2    0    0  0.10137922924E+03  0.26430481200E+03  0.83666792126E+03  0.89640372894E+03  0.15294330000E+03 0.  0.
<mgrwt>
<rscale>  0 0.58677979E+03</rscale>
<asrwt>0</asrwt>
<pdfrwt beam="1">  1        1 0.17262367E+00 0.71689957E+03</pdfrwt>
<pdfrwt beam="2">  1       -1 0.81955993E-01 0.71689957E+03</pdfrwt>
<totfact> 0.18711377E+01</totfact>
</mgrwt>
</event>
<event>
 4    5  0.7767175E-008  0.7429932E+03  0.7818608E-02  0.9851312E-01
          1   -1    0    0  501    0  0.00000000000E+00  0.00000000000E+00  0.20273351948E+04  0.20273351948E+04  0.50400000000E-02 0. -1.
         -1   -1    0    0    0  501 -0.00000000000E+00 -0.00000000000E+00 -0.35574460275E+03  0.35574460279E+03  0.50400000000E-02 0.  1.
    8880023    1    1    2    0    0 -0.14862449850E+03 -0.31006367073E+03  0.79634891401E+02  0.74724871606E+03  0.65864270000E+03 0.  1.
    8880022    1    1    2    0    0  0.14862449850E+03  0.31006367073E+03  0.15919557006E+04  0.16358310815E+04  0.15294330000E+03 0.  0.
<mgrwt>
<rscale>  0 0.62680053E+03</rscale>
<asrwt>0</asrwt>
<pdfrwt beam="1">  1        1 0.31189771E+00 0.74299322E+03</pdfrwt>
<pdfrwt beam="2">  1       -1 0.54729941E-01 0.74299322E+03</pdfrwt>
<totfact> 0.10088004E+01</totfact>
</mgrwt>
</event>
<event>
 4    5  0.7767175E-008  0.9640205E+03  0.7818608E-02  0.9430222E-01
         -1   -1    0    0    0  501 -0.00000000000E+00  0.00000000000E+00  0.65505549183E+03  0.65505549185E+03  0.50400000000E-02 0.  1.
          1   -1    0    0  501    0  0.00000000000E+00 -0.00000000000E+00 -0.28403929361E+04  0.28403929361E+04  0.50400000000E-02 0. -1.
    8880023    1    1    2    0    0 -0.20888068842E+03  0.67223076640E+03  0.21639759625E+03  0.98800985380E+03  0.65864270000E+03 0.  1.
    8880022    1    1    2    0    0  0.20888068842E+03 -0.67223076640E+03 -0.24017350405E+04  0.25074385742E+04  0.15294330000E+03 0.  0.
<mgrwt>
<rscale>  0 0.89629700E+03</rscale>
<asrwt>0</asrwt>
<pdfrwt beam="1">  1        1 0.43698352E+00 0.96402051E+03</pdfrwt>
<pdfrwt beam="2">  1       -1 0.10077777E+00 0.96402051E+03</pdfrwt>
<totfact> 0.75284642E-01</totfact>
</mgrwt>
</event>
<event>
 4    5  0.7767175E-008  0.1682513E+04  0.7818608E-02  0.8790470E-01
         -1   -1    0    0    0  501 -0.00000000000E+00  0.00000000000E+00  0.26290457825E+04  0.26290457825E+04  0.50400000000E-02 0.  1.
          1   -1    0    0  501    0  0.00000000000E+00 -0.00000000000E+00 -0.22805976815E+04  0.22805976815E+04  0.50400000000E-02 0. -1.
    8880023    1    1    2    0    0  0.52865880701E+03 -0.14551839885E+04  0.20181238978E+04  0.26274845095E+04  0.65864270000E+03 0.  0.
    8880022    1    1    2    0    0 -0.52865880701E+03  0.14551839885E+04 -0.16696757968E+04  0.22821589545E+04  0.15294330000E+03 0.  0.
<mgrwt>
<rscale>  0 0.16498919E+04</rscale>
<asrwt>0</asrwt>
<pdfrwt beam="1">  1        1 0.35086118E+00 0.16825132E+04</pdfrwt>
<pdfrwt beam="2">  1       -1 0.40446858E+00 0.16825132E+04</pdfrwt>
<totfact> 0.11767994E-02</totfact>
</mgrwt>
</event>
<event>
 4    5  0.7767175E-008  0.1666079E+04  0.7818608E-02  0.8800474E-01
         -1   -1    0    0    0  501 -0.00000000000E+00  0.00000000000E+00  0.14978541478E+04  0.14978541478E+04  0.50400000000E-02 0.  1.
          1   -1    0    0  501    0  0.00000000000E+00 -0.00000000000E+00 -0.19029410388E+04  0.19029410388E+04  0.50400000000E-02 0. -1.
    8880023    1    1    2    0    0 -0.56957175861E+03  0.14204212353E+04 -0.74601664553E+03  0.18254751479E+04  0.65864270000E+03 0. -1.
    8880022    1    1    2    0    0  0.56957175861E+03 -0.14204212353E+04  0.34092975454E+03  0.15753200388E+04  0.15294330000E+03 0.  0.
<mgrwt>
<rscale>  0 0.16330886E+04</rscale>
<asrwt>0</asrwt>
<pdfrwt beam="1">  1        1 0.29276016E+00 0.16660788E+04</pdfrwt>
<pdfrwt beam="2">  1       -1 0.23043910E+00 0.16660788E+04</pdfrwt>
<totfact> 0.30156915E-01</totfact>
</mgrwt>
</event>
<event>
 4    5  0.7767175E-008  0.8198482E+03  0.7818608E-02  0.9669417E-01
          1   -1    0    0  501    0  0.00000000000E+00  0.00000000000E+00  0.34651229684E+04  0.34651229684E+04  0.50400000000E-02 0. -1.
         -1   -1    0    0    0  501 -0.00000000000E+00 -0.00000000000E+00 -0.19502818350E+03  0.19502818356E+03  0.50400000000E-02 0.  1.
    8880023    1    1    2    0    0 -0.47355109976E+03 -0.11870202233E+03  0.82865225619E+03  0.11656824534E+04  0.65864270000E+03 0.  1.
    8880022    1    1    2    0    0  0.47355109976E+03  0.11870202233E+03  0.24414425287E+04  0.24944686986E+04  0.15294330000E+03 0.  0.
<mgrwt>
<rscale>  0 0.72867232E+03</rscale>
<asrwt>0</asrwt>
<pdfrwt beam="1">  1        1 0.53309579E+00 0.81984817E+03</pdfrwt>
<pdfrwt beam="2">  1       -1 0.30004339E-01 0.81984817E+03</pdfrwt>
<totfact> 0.28986409E+00</totfact>
</mgrwt>
</event>
<event>
 4    5  0.7767175E-008  0.1109738E+04  0.7818608E-02  0.9250291E-01
         -1   -1    0    0    0  501 -0.00000000000E+00  0.00000000000E+00  0.98831282394E+03  0.98831282395E+03  0.50400000000E-02 0.  1.
          1   -1    0    0  501    0  0.00000000000E+00 -0.00000000000E+00 -0.21922245148E+04  0.21922245148E+04  0.50400000000E-02 0. -1.
    8880023    1    1    2    0    0 -0.60129108419E+03 -0.66042188312E+03  0.52568307596E+03  0.12279498908E+04  0.65864270000E+03 0.  0.
    8880022    1    1    2    0    0  0.60129108419E+03  0.66042188312E+03 -0.17295947669E+04  0.19525874480E+04  0.15294330000E+03 0.  0.
<mgrwt>
<rscale>  0 0.10549085E+04</rscale>
<asrwt>0</asrwt>
<pdfrwt beam="1">  1        1 0.33726531E+00 0.11097379E+04</pdfrwt>
<pdfrwt beam="2">  1       -1 0.15204813E+00 0.11097379E+04</pdfrwt>
<totfact> 0.73920529E-01</totfact>
</mgrwt>
</event>
<event>
 4    5  0.7767175E-008  0.8199023E+03  0.7818608E-02  0.9669308E-01
          1   -1    0    0  501    0  0.00000000000E+00  0.00000000000E+00  0.92584994568E+03  0.92584994569E+03  0.50400000000E-02 0. -1.
         -1   -1    0    0    0  501 -0.00000000000E+00 -0.00000000000E+00 -0.58381678507E+03  0.58381678509E+03  0.50400000000E-02 0.  1.
    8880023    1    1    2    0    0  0.36858198379E+03  0.32027637934E+03 -0.10957555580E+03  0.82719202525E+03  0.65864270000E+03 0.  1.
    8880022    1    1    2    0    0 -0.36858198379E+03 -0.32027637934E+03  0.45160871641E+03  0.68247470553E+03  0.15294330000E+03 0.  0.
<mgrwt>
<rscale>  0 0.72873934E+03</rscale>
<asrwt>0</asrwt>
<pdfrwt beam="1">  1        1 0.14243845E+00 0.81990234E+03</pdfrwt>
<pdfrwt beam="2">  1       -1 0.89817967E-01 0.81990234E+03</pdfrwt>
<totfact> 0.21455724E+01</totfact>
</mgrwt>
</event>
<event>
 4    5  0.7767175E-008  0.7113314E+03  0.7818608E-02  0.9953090E-01
          1   -1    0    0  501    0  0.00000000000E+00  0.00000000000E+00  0.10089518154E+04  0.10089518154E+04  0.50400000000E-02 0. -1.
         -1   -1    0    0    0  501 -0.00000000000E+00 -0.00000000000E+00 -0.12516555948E+04  0.12516555949E+04  0.50400000000E-02 0.  1.
    8880023    1    1    2    0    0  0.20801653430E+03  0.17003321692E+03 -0.11220341191E+04  0.13285153157E+04  0.65864270000E+03 0.  1.
    8880022    1    1    2    0    0 -0.20801653430E+03 -0.17003321692E+03  0.87933033969E+03  0.93209209454E+03  0.15294330000E+03 0.  0.
<mgrwt>
<rscale>  0 0.57755901E+03</rscale>
<asrwt>0</asrwt>
<pdfrwt beam="1">  1        1 0.15522336E+00 0.71133141E+03</pdfrwt>
<pdfrwt beam="2">  1       -1 0.19256240E+00 0.71133141E+03</pdfrwt>
<totfact> 0.26474352E+00</totfact>
</mgrwt>
</event>
<event>
 4    5  0.7767175E-008  0.1151256E+04  0.7818608E-02  0.9206025E-01
         -1   -1    0    0    0  501 -0.00000000000E+00  0.00000000000E+00  0.59988912776E+03  0.59988912779E+03  0.50400000000E-02 0.  1.
          1   -1    0    0  501    0  0.00000000000E+00 -0.00000000000E+00 -0.23008325755E+04  0.23008325755E+04  0.50400000000E-02 0. -1.
    8880023    1    1    2    0    0 -0.75513109562E+01  0.94420543772E+03 -0.15524194499E+04  0.19327175907E+04  0.65864270000E+03 0.  1.
    8880022    1    1    2    0    0  0.75513109562E+01 -0.94420543772E+03 -0.14852399784E+03  0.96800411253E+03  0.15294330000E+03 0.  0.
<mgrwt>
<rscale>  0 0.10991451E+04</rscale>
<asrwt>0</asrwt>
<pdfrwt beam="1">  1        1 0.35397424E+00 0.11512563E+04</pdfrwt>
<pdfrwt beam="2">  1       -1 0.92290636E-01 0.11512563E+04</pdfrwt>
<totfact> 0.21127848E+00</totfact>
</mgrwt>
</event>
<event>
 4    5  0.7767175E-008  0.9781691E+03  0.7818608E-02  0.9410693E-01
         -1   -1    0    0    0  501 -0.00000000000E+00  0.00000000000E+00  0.39518269720E+03  0.39518269723E+03  0.50400000000E-02 0.  1.
          1   -1    0    0  501    0  0.00000000000E+00 -0.00000000000E+00 -0.39012354714E+04  0.39012354714E+04  0.50400000000E-02 0. -1.
    8880023    1    1    2    0    0 -0.53527191338E+03 -0.48630091508E+03 -0.32520599551E+03  0.10308121784E+04  0.65864270000E+03 0.  0.
    8880022    1    1    2    0    0  0.53527191338E+03  0.48630091508E+03 -0.31808467787E+04  0.32656059902E+04  0.15294330000E+03 0.  0.
<mgrwt>
<rscale>  0 0.91200858E+03</rscale>
<asrwt>0</asrwt>
<pdfrwt beam="1">  1        1 0.60019005E+00 0.97816911E+03</pdfrwt>
<pdfrwt beam="2">  1       -1 0.60797341E-01 0.97816911E+03</pdfrwt>
<totfact> 0.33872917E-01</totfact>
</mgrwt>
</event>
<event>
 4    5  0.7767175E-008  0.6759686E+03  0.7818608E-02  0.1011703E+00
          1   -1    0    0  501    0  0.00000000000E+00  0.00000000000E+00  0.32493183360E+03  0.32493183363E+03  0.50400000000E-02 0. -1.
         -1   -1    0    0    0  501 -0.00000000000E+00 -0.00000000000E+00 -0.12730994315E+04  0.12730994315E+04  0.50400000000E-02 0.  1.
    8880023    1    1    2    0    0 -0.35052813071E+02 -0.14796823896E+03 -0.11294570809E+04  0.13162852287E+04  0.65864270000E+03 0.  1.
    8880022    1    1    2    0    0  0.35052813071E+02  0.14796823896E+03  0.18128948293E+03  0.28174603650E+03  0.15294330000E+03 0.  0.
<mgrwt>
<rscale>  0 0.50803537E+03</rscale>
<asrwt>0</asrwt>
<pdfrwt beam="1">  1        1 0.49989513E-01 0.67596857E+03</pdfrwt>
<pdfrwt beam="2">  1       -1 0.19586145E+00 0.67596857E+03</pdfrwt>
<totfact> 0.13186046E+01</totfact>
</mgrwt>
</event>
<event>
 4    5  0.7767175E-008  0.9827945E+03  0.7818608E-02  0.9404422E-01
         -1   -1    0    0    0  501 -0.00000000000E+00  0.00000000000E+00  0.11807352923E+04  0.11807352924E+04  0.50400000000E-02 0.  1.
          1   -1    0    0  501    0  0.00000000000E+00 -0.00000000000E+00 -0.19892632360E+04  0.19892632361E+04  0.50400000000E-02 0. -1.
    8880023    1    1    2    0    0 -0.49815610027E+03 -0.53283707335E+03  0.88322482586E+03  0.13213520145E+04  0.65864270000E+03 0.  1.
    8880022    1    1    2    0    0  0.49815610027E+03  0.53283707335E+03 -0.16917527696E+04  0.18486465139E+04  0.15294330000E+03 0.  0.
<mgrwt>
<rscale>  0 0.91712657E+03</rscale>
<asrwt>0</asrwt>
<pdfrwt beam="1">  1        1 0.30604050E+00 0.98279451E+03</pdfrwt>
<pdfrwt beam="2">  1       -1 0.18165158E+00 0.98279451E+03</pdfrwt>
<totfact> 0.62269843E-01</totfact>
</mgrwt>
</event>
<event>
 4    5  0.7767175E-008  0.1167642E+04  0.7818608E-02  0.9189237E-01
         -1   -1    0    0    0  501 -0.00000000000E+00  0.00000000000E+00  0.42853086929E+03  0.42853086932E+03  0.50400000000E-02 0.  1.
          1   -1    0    0  501    0  0.00000000000E+00 -0.00000000000E+00 -0.29239967476E+04  0.29239967476E+04  0.50400000000E-02 0. -1.
    8880023    1    1    2    0    0 -0.10616144742E+03  0.95828338060E+03 -0.18310766188E+04  0.21716880717E+04  0.65864270000E+03 0.  1.
    8880022    1    1    2    0    0  0.10616144742E+03 -0.95828338060E+03 -0.66438925950E+03  0.11808395452E+04  0.15294330000E+03 0. -1.
<mgrwt>
<rscale>  0 0.11165215E+04</rscale>
<asrwt>0</asrwt>
<pdfrwt beam="1">  1        1 0.44984564E+00 0.11676419E+04</pdfrwt>
<pdfrwt beam="2">  1       -1 0.65927828E-01 0.11676419E+04</pdfrwt>
<totfact> 0.15868115E+00</totfact>
</mgrwt>
</event>
<event>
 4    5  0.7767175E-008  0.1049130E+04  0.7818608E-02  0.9319928E-01
          1   -1    0    0  501    0  0.00000000000E+00  0.00000000000E+00  0.14678280354E+04  0.14678280354E+04  0.50400000000E-02 0. -1.
         -1   -1    0    0    0  501 -0.00000000000E+00 -0.00000000000E+00 -0.17575988179E+04  0.17575988179E+04  0.50400000000E-02 0.  1.
    8880023    1    1    2    0    0 -0.13785121566E+03  0.80489830428E+03 -0.14553343090E+04  0.17940658837E+04  0.65864270000E+03 0.  0.
    8880022    1    1    2    0    0  0.13785121566E+03 -0.80489830428E+03  0.11655635266E+04  0.14313609696E+04  0.15294330000E+03 0.  0.
<mgrwt>
<rscale>  0 0.98968810E+03</rscale>
<asrwt>0</asrwt>
<pdfrwt beam="1">  1        1 0.22581970E+00 0.10491303E+04</pdfrwt>
<pdfrwt beam="2">  1       -1 0.27039982E+00 0.10491303E+04</pdfrwt>
<totfact> 0.35542425E-01</totfact>
</mgrwt>
</event>
<event>
 4    5  0.7767175E-008  0.6936280E+03  0.7818608E-02  0.1002474E+00
         -1   -1    0    0    0  501 -0.00000000000E+00  0.00000000000E+00  0.31701037512E+03  0.31701037516E+03  0.50400000000E-02 0.  1.
          1   -1    0    0  501    0  0.00000000000E+00 -0.00000000000E+00 -0.12239336897E+04  0.12239336897E+04  0.50400000000E-02 0. -1.
    8880023    1    1    2    0    0  0.15137284377E+03  0.15619163961E+03 -0.11185170626E+03  0.70258848309E+03  0.65864270000E+03 0.  1.
    8880022    1    1    2    0    0 -0.15137284377E+03 -0.15619163961E+03 -0.79507160834E+03  0.83835558179E+03  0.15294330000E+03 0.  0.
<mgrwt>
<rscale>  0 0.54578716E+03</rscale>
<asrwt>0</asrwt>
<pdfrwt beam="1">  1        1 0.18829749E+00 0.69362798E+03</pdfrwt>
<pdfrwt beam="2">  1       -1 0.48770827E-01 0.69362798E+03</pdfrwt>
<totfact> 0.44621046E+01</totfact>
</mgrwt>
</event>
<event>
 4    5  0.7767175E-008  0.1030229E+04  0.7818608E-02  0.9343035E-01
         -1   -1    0    0    0  501 -0.00000000000E+00  0.00000000000E+00  0.13070326985E+04  0.13070326985E+04  0.50400000000E-02 0.  1.
          1   -1    0    0  501    0  0.00000000000E+00 -0.00000000000E+00 -0.15073317279E+04  0.15073317279E+04  0.50400000000E-02 0. -1.
    8880023    1    1    2    0    0 -0.49450014261E+03 -0.61889492768E+03  0.95530036618E+03  0.14049805402E+04  0.65864270000E+03 0.  0.
    8880022    1    1    2    0    0  0.49450014261E+03  0.61889492768E+03 -0.11555993955E+04  0.14093838862E+04  0.15294330000E+03 0.  0.
<mgrwt>
<rscale>  0 0.96915667E+03</rscale>
<asrwt>0</asrwt>
<pdfrwt beam="1">  1        1 0.23189719E+00 0.10302289E+04</pdfrwt>
<pdfrwt beam="2">  1       -1 0.20108195E+00 0.10302289E+04</pdfrwt>
<totfact> 0.95913606E-01</totfact>
</mgrwt>
</event>
<event>
 4    5  0.7767175E-008  0.6664101E+03  0.7818608E-02  0.1018379E+00
         -1   -1    0    0    0  501 -0.00000000000E+00  0.00000000000E+00  0.18174206763E+04  0.18174206764E+04  0.50400000000E-02 0.  1.
          1   -1    0    0  501    0  0.00000000000E+00 -0.00000000000E+00 -0.13793566309E+04  0.13793566310E+04  0.50400000000E-02 0. -1.
    8880023    1    1    2    0    0 -0.54963180334E+02 -0.85271717615E+02  0.17497265554E+04  0.18723368933E+04  0.65864270000E+03 0.  1.
    8880022    1    1    2    0    0  0.54963180334E+02  0.85271717615E+02 -0.13116625100E+04  0.13244404140E+04  0.15294330000E+03 0.  0.
<mgrwt>
<rscale>  0 0.48276294E+03</rscale>
<asrwt>0</asrwt>
<pdfrwt beam="1">  1        1 0.21220871E+00 0.66641010E+03</pdfrwt>
<pdfrwt beam="2">  1       -1 0.27960318E+00 0.66641010E+03</pdfrwt>
<totfact> 0.38681952E-01</totfact>
</mgrwt>
</event>
<event>
 4    5  0.1813518E-007  0.1039115E+04  0.7818608E-02  0.9332083E-01
          1   -1    0    0  501    0  0.00000000000E+00  0.00000000000E+00  0.20060054665E+04  0.20060054665E+04  0.50400000000E-02 0. -1.
         -1   -1    0    0    0  501 -0.00000000000E+00 -0.00000000000E+00 -0.21428494742E+04  0.21428494742E+04  0.50400000000E-02 0.  1.
    8880023    1    1    2    0    0 -0.52967224434E+03 -0.60448037143E+03 -0.19221347121E+04  0.21850311813E+04  0.65864270000E+03 0.  0.
    8880022    1    1    2    0    0  0.52967224434E+03  0.60448037143E+03  0.17852907044E+04  0.19638237594E+04  0.15294330000E+03 0.  0.
<mgrwt>
<rscale>  0 0.97882159E+03</rscale>
<asrwt>0</asrwt>
<pdfrwt beam="1">  1        1 0.30861622E+00 0.10391147E+04</pdfrwt>
<pdfrwt beam="2">  1       -1 0.32966915E+00 0.10391147E+04</pdfrwt>
<totfact> 0.63602307E-02</totfact>
</mgrwt>
</event>
<event>
 4    5  0.8047841E-008  0.7578013E+03  0.7818608E-02  0.9810833E-01
         -1   -1    0    0    0  501 -0.00000000000E+00  0.00000000000E+00  0.15662986108E+04  0.15662986108E+04  0.50400000000E-02 0.  1.
          1   -1    0    0  501    0  0.00000000000E+00 -0.00000000000E+00 -0.22090145454E+04  0.22090145454E+04  0.50400000000E-02 0. -1.
    8880023    1    1    2    0    0 -0.35342965283E+03  0.12465993502E+03  0.14541366453E+04  0.16397488248E+04  0.65864270000E+03 0.  1.
    8880022    1    1    2    0    0  0.35342965283E+03 -0.12465993502E+03 -0.20968525799E+04  0.21355643314E+04  0.15294330000E+03 0.  0.
<mgrwt>
<rscale>  0 0.64784397E+03</rscale>
<asrwt>0</asrwt>
<pdfrwt beam="1">  1        1 0.33984839E+00 0.75780131E+03</pdfrwt>
<pdfrwt beam="2">  1       -1 0.24096902E+00 0.75780131E+03</pdfrwt>
<totfact> 0.18452426E-01</totfact>
</mgrwt>
</event>
<event>
 4    5  0.7767175E-008  0.7167873E+03  0.7818608E-02  0.9933610E-01
          1   -1    0    0  501    0  0.00000000000E+00  0.00000000000E+00  0.15652024790E+04  0.15652024790E+04  0.50400000000E-02 0. -1.
         -1   -1    0    0    0  501 -0.00000000000E+00 -0.00000000000E+00 -0.47365973295E+03  0.47365973298E+03  0.50400000000E-02 0.  1.
    8880023    1    1    2    0    0 -0.23021456030E+03  0.16424107574E+03 -0.17027088693E+03  0.73673350401E+03  0.65864270000E+03 0.  1.
    8880022    1    1    2    0    0  0.23021456030E+03 -0.16424107574E+03  0.12618136330E+04  0.13021287080E+04  0.15294330000E+03 0.  0.
<mgrwt>
<rscale>  0 0.58659682E+03</rscale>
<asrwt>0</asrwt>
<pdfrwt beam="1">  1        1 0.24080038E+00 0.71678733E+03</pdfrwt>
<pdfrwt beam="2">  1       -1 0.72870728E-01 0.71678733E+03</pdfrwt>
<totfact> 0.11684996E+01</totfact>
</mgrwt>
</event>
<event>
 4    5  0.7767175E-008  0.7672248E+03  0.7818608E-02  0.9786750E-01
          1   -1    0    0  501    0  0.00000000000E+00  0.00000000000E+00  0.17237525911E+04  0.17237525911E+04  0.50400000000E-02 0. -1.
         -1   -1    0    0    0  501 -0.00000000000E+00 -0.00000000000E+00 -0.20668396397E+03  0.20668396403E+03  0.50400000000E-02 0.  1.
    8880023    1    1    2    0    0  0.37541867241E+03  0.11783234354E+03  0.10561615812E+04  0.13054160764E+04  0.65864270000E+03 0. -1.
    8880022    1    1    2    0    0 -0.37541867241E+03 -0.11783234354E+03  0.46090704594E+03  0.62502047870E+03  0.15294330000E+03 0. -1.
<mgrwt>
<rscale>  0 0.66078486E+03</rscale>
<asrwt>0</asrwt>
<pdfrwt beam="1">  1        1 0.26519269E+00 0.76722477E+03</pdfrwt>
<pdfrwt beam="2">  1       -1 0.31797534E-01 0.76722477E+03</pdfrwt>
<totfact> 0.43512922E+01</totfact>
</mgrwt>
</event>
<event>
 4    5  0.7767175E-008  0.1107350E+04  0.7818608E-02  0.9252917E-01
          1   -1    0    0  501    0  0.00000000000E+00  0.00000000000E+00  0.26870961120E+04  0.26870961120E+04  0.50400000000E-02 0. -1.
         -1   -1    0    0    0  501 -0.00000000000E+00 -0.00000000000E+00 -0.44489083294E+03  0.44489083297E+03  0.50400000000E-02 0.  1.
    8880023    1    1    2    0    0 -0.86938047841E+03 -0.19128809716E+03  0.60419699977E+03  0.12614585896E+04  0.65864270000E+03 0.  0.
    8880022    1    1    2    0    0  0.86938047841E+03  0.19128809716E+03  0.16380082792E+04  0.18705283554E+04  0.15294330000E+03 0.  0.
<mgrwt>
<rscale>  0 0.10523542E+04</rscale>
<asrwt>0</asrwt>
<pdfrwt beam="1">  1        1 0.41339940E+00 0.11073499E+04</pdfrwt>
<pdfrwt beam="2">  1       -1 0.68444743E-01 0.11073499E+04</pdfrwt>
<totfact> 0.21801721E+00</totfact>
</mgrwt>
</event>
<event>
 4    5  0.7767175E-008  0.6693988E+03  0.7818608E-02  0.1016098E+00
         -1   -1    0    0    0  501 -0.00000000000E+00  0.00000000000E+00  0.55751946661E+03  0.55751946664E+03  0.50400000000E-02 0.  1.
          1   -1    0    0  501    0  0.00000000000E+00 -0.00000000000E+00 -0.85162014520E+03  0.85162014522E+03  0.50400000000E-02 0. -1.
    8880023    1    1    2    0    0 -0.95698882522E+02 -0.71597720841E+02  0.33658830257E+03  0.74925723316E+03  0.65864270000E+03 0.  1.
    8880022    1    1    2    0    0  0.95698882522E+02  0.71597720841E+02 -0.63068898116E+03  0.65988237870E+03  0.15294330000E+03 0.  0.
<mgrwt>
<rscale>  0 0.49121545E+03</rscale>
<asrwt>0</asrwt>
<pdfrwt beam="1">  1        1 0.13101848E+00 0.66939877E+03</pdfrwt>
<pdfrwt beam="2">  1       -1 0.85772225E-01 0.66939877E+03</pdfrwt>
<totfact> 0.27764208E+01</totfact>
</mgrwt>
</event>
<event>
 4    5  0.9591302E-008  0.1089905E+04  0.7818608E-02  0.9272380E-01
          1   -1    0    0  501    0  0.00000000000E+00  0.00000000000E+00  0.17220739990E+04  0.17220739990E+04  0.50400000000E-02 0. -1.
         -1   -1    0    0    0  501 -0.00000000000E+00 -0.00000000000E+00 -0.19090948043E+04  0.19090948043E+04  0.50400000000E-02 0.  1.
    8880023    1    1    2    0    0  0.13938877591E+03  0.85711901101E+03 -0.16176982365E+04  0.19505999130E+04  0.65864270000E+03 0.  1.
    8880022    1    1    2    0    0 -0.13938877591E+03 -0.85711901101E+03  0.14306774313E+04  0.16805688903E+04  0.15294330000E+03 0.  0.
<mgrwt>
<rscale>  0 0.10336587E+04</rscale>
<asrwt>0</asrwt>
<pdfrwt beam="1">  1        1 0.26493446E+00 0.10899048E+04</pdfrwt>
<pdfrwt beam="2">  1       -1 0.29370689E+00 0.10899048E+04</pdfrwt>
<totfact> 0.16734275E-01</totfact>
</mgrwt>
</event>
<event>
 4    5  0.7767175E-008  0.9433538E+03  0.7818608E-02  0.9459742E-01
         -1   -1    0    0    0  501 -0.00000000000E+00  0.00000000000E+00  0.77849353912E+03  0.77849353914E+03  0.50400000000E-02 0.  1.
          1   -1    0    0  501    0  0.00000000000E+00 -0.00000000000E+00 -0.14701175734E+04  0.14701175734E+04  0.50400000000E-02 0. -1.
    8880023    1    1    2    0    0  0.21829728071E+03  0.63910294556E+03  0.34288718096E+03  0.10037370686E+04  0.65864270000E+03 0.  1.
    8880022    1    1    2    0    0 -0.21829728071E+03 -0.63910294556E+03 -0.10345112152E+04  0.12448740439E+04  0.15294330000E+03 0.  0.
<mgrwt>
<rscale>  0 0.87318107E+03</rscale>
<asrwt>0</asrwt>
<pdfrwt beam="1">  1        1 0.22617193E+00 0.94335385E+03</pdfrwt>
<pdfrwt beam="2">  1       -1 0.11976824E+00 0.94335385E+03</pdfrwt>
<totfact> 0.43219219E+00</totfact>
</mgrwt>
</event>
<event>
 4    5  0.7767175E-008  0.7333517E+03  0.7818608E-02  0.9879754E-01
         -1   -1    0    0    0  501 -0.00000000000E+00  0.00000000000E+00  0.11039592991E+03  0.11039593003E+03  0.50400000000E-02 0.  1.
          1   -1    0    0  501    0  0.00000000000E+00 -0.00000000000E+00 -0.26919723834E+04  0.26919723834E+04  0.50400000000E-02 0. -1.
    8880023    1    1    2    0    0  0.17562607065E+02 -0.32200321138E+03 -0.17273955269E+04  0.18766193077E+04  0.65864270000E+03 0. -1.
    8880022    1    1    2    0    0 -0.17562607065E+02  0.32200321138E+03 -0.85418092659E+03  0.92574900576E+03  0.15294330000E+03 0.  1.
<mgrwt>
<rscale>  0 0.61252598E+03</rscale>
<asrwt>0</asrwt>
<pdfrwt beam="1">  1        1 0.41414955E+00 0.73335170E+03</pdfrwt>
<pdfrwt beam="2">  1       -1 0.16983991E-01 0.73335170E+03</pdfrwt>
<totfact> 0.28066003E+01</totfact>
</mgrwt>
</event>
<event>
 4    5  0.7767175E-008  0.7154826E+03  0.7818608E-02  0.9938179E-01
          1   -1    0    0  501    0  0.00000000000E+00  0.00000000000E+00  0.65220838350E+03  0.65220838352E+03  0.50400000000E-02 0. -1.
         -1   -1    0    0    0  501 -0.00000000000E+00 -0.00000000000E+00 -0.77405828203E+03  0.77405828205E+03  0.50400000000E-02 0.  1.
    8880023    1    1    2    0    0 -0.27934606769E+03  0.84221674267E+01 -0.54299292437E+03  0.89819634859E+03  0.65864270000E+03 0.  1.
    8880022    1    1    2    0    0  0.27934606769E+03 -0.84221674267E+01  0.42114302584E+03  0.52807031697E+03  0.15294330000E+03 0.  0.
<mgrwt>
<rscale>  0 0.58446144E+03</rscale>
<asrwt>0</asrwt>
<pdfrwt beam="1">  1        1 0.10033975E+00 0.71548261E+03</pdfrwt>
<pdfrwt beam="2">  1       -1 0.11908589E+00 0.71548261E+03</pdfrwt>
<totfact> 0.19703579E+01</totfact>
</mgrwt>
</event>
<event>
 4    5  0.7767175E-008  0.6781498E+03  0.7818608E-02  0.1010390E+00
         -1   -1    0    0    0  501 -0.00000000000E+00  0.00000000000E+00  0.77740457247E+03  0.77740457249E+03  0.50400000000E-02 0.  1.
          1   -1    0    0  501    0  0.00000000000E+00 -0.00000000000E+00 -0.41809705254E+03  0.41809705257E+03  0.50400000000E-02 0. -1.
    8880023    1    1    2    0    0 -0.59097053074E+02  0.15028121724E+03  0.57243915522E+03  0.88745349097E+03  0.65864270000E+03 0.  1.
    8880022    1    1    2    0    0  0.59097053074E+02 -0.15028121724E+03 -0.21313163529E+03  0.30804813409E+03  0.15294330000E+03 0.  0.
<mgrwt>
<rscale>  0 0.51319849E+03</rscale>
<asrwt>0</asrwt>
<pdfrwt beam="1">  1        1 0.64322624E-01 0.67814977E+03</pdfrwt>
<pdfrwt beam="2">  1       -1 0.11960070E+00 0.67814977E+03</pdfrwt>
<totfact> 0.36334063E+01</totfact>
</mgrwt>
</event>
<event>
 4    5  0.7767175E-008  0.1084260E+04  0.7818608E-02  0.9278787E-01
          1   -1    0    0  501    0  0.00000000000E+00  0.00000000000E+00  0.12235752951E+04  0.12235752951E+04  0.50400000000E-02 0. -1.
         -1   -1    0    0    0  501 -0.00000000000E+00 -0.00000000000E+00 -0.93425251559E+03  0.93425251560E+03  0.50400000000E-02 0.  1.
    8880023    1    1    2    0    0  0.21826062191E+02  0.86100658785E+03 -0.27277103728E+03  0.11180442596E+04  0.65864270000E+03 0.  0.
    8880022    1    1    2    0    0 -0.21826062191E+02 -0.86100658785E+03  0.56209381677E+03  0.10397835511E+04  0.15294330000E+03 0.  0.
<mgrwt>
<rscale>  0 0.10275947E+04</rscale>
<asrwt>0</asrwt>
<pdfrwt beam="1">  1        1 0.18824235E+00 0.10842596E+04</pdfrwt>
<pdfrwt beam="2">  1       -1 0.14373116E+00 0.10842596E+04</pdfrwt>
<totfact> 0.39912922E+00</totfact>
</mgrwt>
</event>
<event>
 4    5  0.1340998E-007  0.6842072E+03  0.7818608E-02  0.1007037E+00
         -1   -1    0    0    0  501 -0.00000000000E+00  0.00000000000E+00  0.15636023476E+04  0.15636023476E+04  0.50400000000E-02 0.  1.
          1   -1    0    0  501    0  0.00000000000E+00 -0.00000000000E+00 -0.19415306698E+04  0.19415306698E+04  0.50400000000E-02 0. -1.
    8880023    1    1    2    0    0  0.13863787029E+03  0.12291787085E+03  0.14806489112E+04  0.16310918633E+04  0.65864270000E+03 0.  1.
    8880022    1    1    2    0    0 -0.13863787029E+03 -0.12291787085E+03 -0.18585772334E+04  0.18740411542E+04  0.15294330000E+03 0.  0.
<mgrwt>
<rscale>  0 0.52669279E+03</rscale>
<asrwt>0</asrwt>
<pdfrwt beam="1">  1        1 0.29869703E+00 0.68420718E+03</pdfrwt>
<pdfrwt beam="2">  1       -1 0.24055421E+00 0.68420718E+03</pdfrwt>
<totfact> 0.28584652E-01</totfact>
</mgrwt>
</event>
<event>
 4    5  0.7767175E-008  0.7065346E+03  0.7818608E-02  0.9971102E-01
         -1   -1    0    0    0  501 -0.00000000000E+00  0.00000000000E+00  0.94021266461E+03  0.94021266462E+03  0.50400000000E-02 0.  1.
          1   -1    0    0  501    0  0.00000000000E+00 -0.00000000000E+00 -0.89402517481E+03  0.89402517483E+03  0.50400000000E-02 0. -1.
    8880023    1    1    2    0    0 -0.20179831451E+03  0.15702985242E+03  0.77389069516E+03  0.10479016884E+04  0.65864270000E+03 0.  1.
    8880022    1    1    2    0    0  0.20179831451E+03 -0.15702985242E+03 -0.72770320537E+03  0.78633615102E+03  0.15294330000E+03 0.  0.
<mgrwt>
<rscale>  0 0.56935736E+03</rscale>
<asrwt>0</asrwt>
<pdfrwt beam="1">  1        1 0.13754234E+00 0.70653460E+03</pdfrwt>
<pdfrwt beam="2">  1       -1 0.14464810E+00 0.70653460E+03</pdfrwt>
<totfact> 0.73616802E+00</totfact>
</mgrwt>
</event>
<event>
 4    5  0.7767175E-008  0.1346382E+04  0.7818608E-02  0.9026506E-01
         -1   -1    0    0    0  501 -0.00000000000E+00  0.00000000000E+00  0.26819099039E+04  0.26819099039E+04  0.50400000000E-02 0.  1.
          1   -1    0    0  501    0  0.00000000000E+00 -0.00000000000E+00 -0.72328351641E+03  0.72328351643E+03  0.50400000000E-02 0. -1.
    8880023    1    1    2    0    0 -0.10196075554E+04 -0.58252486589E+03  0.17414820011E+04  0.22012506792E+04  0.65864270000E+03 0.  1.
    8880022    1    1    2    0    0  0.10196075554E+04  0.58252486589E+03  0.21714438641E+03  0.12039427411E+04  0.15294330000E+03 0.  0.
<mgrwt>
<rscale>  0 0.13038643E+04</rscale>
<asrwt>0</asrwt>
<pdfrwt beam="1">  1        1 0.11127439E+00 0.13463822E+04</pdfrwt>
<pdfrwt beam="2">  1       -1 0.41260152E+00 0.13463822E+04</pdfrwt>
<totfact> 0.14822064E-01</totfact>
</mgrwt>
</event>
<event>
 4    5  0.7767175E-008  0.7097052E+03  0.7818608E-02  0.9959097E-01
         -1   -1    0    0    0  501 -0.00000000000E+00  0.00000000000E+00  0.88181961248E+03  0.88181961250E+03  0.50400000000E-02 0.  1.
          1   -1    0    0  501    0  0.00000000000E+00 -0.00000000000E+00 -0.23321326788E+04  0.23321326788E+04  0.50400000000E-02 0. -1.
    8880023    1    1    2    0    0  0.12856728562E+03  0.23095817148E+03  0.72661835383E+03  0.10157045152E+04  0.65864270000E+03 0.  1.
    8880022    1    1    2    0    0 -0.12856728562E+03 -0.23095817148E+03 -0.21769314202E+04  0.21982477761E+04  0.15294330000E+03 0.  0.
<mgrwt>
<rscale>  0 0.57480704E+03</rscale>
<asrwt>0</asrwt>
<pdfrwt beam="1">  1        1 0.35878964E+00 0.70970517E+03</pdfrwt>
<pdfrwt beam="2">  1       -1 0.13566456E+00 0.70970517E+03</pdfrwt>
<totfact> 0.86506179E-01</totfact>
</mgrwt>
</event>
<event>
 4    5  0.7767175E-008  0.7578599E+03  0.7818608E-02  0.9810680E-01
         -1   -1    0    0    0  501 -0.00000000000E+00  0.00000000000E+00  0.14988344623E+04  0.14988344623E+04  0.50400000000E-02 0.  1.
          1   -1    0    0  501    0  0.00000000000E+00 -0.00000000000E+00 -0.52740909660E+03  0.52740909662E+03  0.50400000000E-02 0. -1.
    8880023    1    1    2    0    0  0.25271207277E+03  0.27690796523E+03  0.13000216783E+04  0.15047949971E+04  0.65864270000E+03 0.  1.
    8880022    1    1    2    0    0 -0.25271207277E+03 -0.27690796523E+03 -0.32859631263E+03  0.52144856182E+03  0.15294330000E+03 0.  0.
<mgrwt>
<rscale>  0 0.64792541E+03</rscale>
<asrwt>0</asrwt>
<pdfrwt beam="1">  1        1 0.81139862E-01 0.75785989E+03</pdfrwt>
<pdfrwt beam="2">  1       -1 0.23058991E+00 0.75785989E+03</pdfrwt>
<totfact> 0.39967915E+00</totfact>
</mgrwt>
</event>
<event>
 4    5  0.7767175E-008  0.8131015E+03  0.7818608E-02  0.9683152E-01
          1   -1    0    0  501    0  0.00000000000E+00  0.00000000000E+00  0.80244151938E+03  0.80244151940E+03  0.50400000000E-02 0. -1.
         -1   -1    0    0    0  501 -0.00000000000E+00 -0.00000000000E+00 -0.57398710864E+03  0.57398710866E+03  0.50400000000E-02 0.  1.
    8880023    1    1    2    0    0 -0.44551447664E+03 -0.16982533406E+03 -0.28561718051E+02  0.81360295660E+03  0.65864270000E+03 0.  0.
    8880022    1    1    2    0    0  0.44551447664E+03  0.16982533406E+03  0.25701612879E+03  0.56282567146E+03  0.15294330000E+03 0.  0.
<mgrwt>
<rscale>  0 0.72028803E+03</rscale>
<asrwt>0</asrwt>
<pdfrwt beam="1">  1        1 0.12345254E+00 0.81310147E+03</pdfrwt>
<pdfrwt beam="2">  1       -1 0.88305709E-01 0.81310147E+03</pdfrwt>
<totfact> 0.28245561E+01</totfact>
</mgrwt>
</event>
<event>
 4    5  0.7767175E-008  0.8394926E+03  0.7818608E-02  0.9631138E-01
         -1   -1    0    0    0  501 -0.00000000000E+00  0.00000000000E+00  0.27975272183E+04  0.27975272184E+04  0.50400000000E-02 0.  1.
          1   -1    0    0  501    0  0.00000000000E+00 -0.00000000000E+00 -0.93709272207E+03  0.93709272208E+03  0.50400000000E-02 0. -1.
    8880023    1    1    2    0    0  0.23248625690E+03 -0.46571208580E+03  0.26482208615E+04  0.27780967485E+04  0.65864270000E+03 0.  1.
    8880022    1    1    2    0    0 -0.23248625690E+03  0.46571208580E+03 -0.78778636521E+03  0.95652319194E+03  0.15294330000E+03 0.  0.
<mgrwt>
<rscale>  0 0.75269119E+03</rscale>
<asrwt>0</asrwt>
<pdfrwt beam="1">  1        1 0.14416811E+00 0.83949259E+03</pdfrwt>
<pdfrwt beam="2">  1       -1 0.43038880E+00 0.83949259E+03</pdfrwt>
<totfact> 0.79633607E-02</totfact>
</mgrwt>
</event>
<event>
 4    5  0.7767175E-008  0.1125570E+04  0.7818608E-02  0.9233107E-01
          1   -1    0    0  501    0  0.00000000000E+00  0.00000000000E+00  0.13682053906E+04  0.13682053906E+04  0.50400000000E-02 0. -1.
         -1   -1    0    0    0  501 -0.00000000000E+00 -0.00000000000E+00 -0.14025992633E+04  0.14025992634E+04  0.50400000000E-02 0.  1.
    8880023    1    1    2    0    0  0.83288326641E+03 -0.37336706864E+03 -0.94707512697E+03  0.14710061202E+04  0.65864270000E+03 0.  0.
    8880022    1    1    2    0    0 -0.83288326641E+03  0.37336706864E+03  0.91268125422E+03  0.12997985337E+04  0.15294330000E+03 0.  0.
<mgrwt>
<rscale>  0 0.10718144E+04</rscale>
<asrwt>0</asrwt>
<pdfrwt beam="1">  1        1 0.21049314E+00 0.11255699E+04</pdfrwt>
<pdfrwt beam="2">  1       -1 0.21578450E+00 0.11255699E+04</pdfrwt>
<totfact> 0.94027162E-01</totfact>
</mgrwt>
</event>
<event>
 4    5  0.7767175E-008  0.6949910E+03  0.7818608E-02  0.1001865E+00
          1   -1    0    0  501    0  0.00000000000E+00  0.00000000000E+00  0.82160426904E+03  0.82160426906E+03  0.50400000000E-02 0. -1.
         -1   -1    0    0    0  501 -0.00000000000E+00 -0.00000000000E+00 -0.50848637528E+03  0.50848637531E+03  0.50400000000E-02 0.  1.
    8880023    1    1    2    0    0 -0.20483061360E+03  0.85127918092E+02 -0.22315470952E+03  0.72993874630E+03  0.65864270000E+03 0.  1.
    8880022    1    1    2    0    0  0.20483061360E+03 -0.85127918092E+02  0.53627260328E+03  0.60015189806E+03  0.15294330000E+03 0.  0.
<mgrwt>
<rscale>  0 0.54839943E+03</rscale>
<asrwt>0</asrwt>
<pdfrwt beam="1">  1        1 0.12640066E+00 0.69499104E+03</pdfrwt>
<pdfrwt beam="2">  1       -1 0.78228674E-01 0.69499104E+03</pdfrwt>
<totfact> 0.35710520E+01</totfact>
</mgrwt>
</event>
<event>
 4    5  0.7767175E-008  0.1308191E+04  0.7818608E-02  0.9058519E-01
         -1   -1    0    0    0  501 -0.00000000000E+00  0.00000000000E+00  0.12395481273E+04  0.12395481273E+04  0.50400000000E-02 0.  1.
          1   -1    0    0  501    0  0.00000000000E+00 -0.00000000000E+00 -0.27596083523E+04  0.27596083523E+04  0.50400000000E-02 0. -1.
    8880023    1    1    2    0    0 -0.38653472990E+03 -0.10621410849E+04 -0.22799627542E+04  0.26286104977E+04  0.65864270000E+03 0.  0.
    8880022    1    1    2    0    0  0.38653472990E+03  0.10621410849E+04  0.75990252919E+03  0.13705459819E+04  0.15294330000E+03 0.  0.
<mgrwt>
<rscale>  0 0.12641123E+04</rscale>
<asrwt>0</asrwt>
<pdfrwt beam="1">  1        1 0.42455513E+00 0.13081907E+04</pdfrwt>
<pdfrwt beam="2">  1       -1 0.19069971E+00 0.13081907E+04</pdfrwt>
<totfact> 0.15124150E-01</totfact>
</mgrwt>
</event>
<event>
 4    5  0.7767175E-008  0.1516688E+04  0.7818608E-02  0.8897941E-01
          1   -1    0    0  501    0  0.00000000000E+00  0.00000000000E+00  0.22631700171E+04  0.22631700171E+04  0.50400000000E-02 0. -1.
         -1   -1    0    0    0  501 -0.00000000000E+00 -0.00000000000E+00 -0.12386327129E+04  0.12386327129E+04  0.50400000000E-02 0.  1.
    8880023    1    1    2    0    0  0.95497967054E+03 -0.97700925731E+03 -0.35130588530E+03  0.15568427317E+04  0.65864270000E+03 0.  0.
    8880022    1    1    2    0    0 -0.95497967054E+03  0.97700925731E+03  0.13758431894E+04  0.19449599983E+04  0.15294330000E+03 0.  0.
<mgrwt>
<rscale>  0 0.14798845E+04</rscale>
<asrwt>0</asrwt>
<pdfrwt beam="1">  1        1 0.34818000E+00 0.15166883E+04</pdfrwt>
<pdfrwt beam="2">  1       -1 0.19055888E+00 0.15166883E+04</pdfrwt>
<totfact> 0.32606231E-01</totfact>
</mgrwt>
</event>
<event>
 4    5  0.7767175E-008  0.7706209E+03  0.7818608E-02  0.9778348E-01
          1   -1    0    0  501    0  0.00000000000E+00  0.00000000000E+00  0.39809998955E+04  0.39809998955E+04  0.50400000000E-02 0. -1.
         -1   -1    0    0    0  501 -0.00000000000E+00 -0.00000000000E+00 -0.31393108680E+03  0.31393108684E+03  0.50400000000E-02 0.  1.
    8880023    1    1    2    0    0 -0.35216139653E+03 -0.18981243371E+03  0.19281440125E+03  0.79437649058E+03  0.65864270000E+03 0.  1.
    8880022    1    1    2    0    0  0.35216139653E+03  0.18981243371E+03  0.34742544074E+04  0.35005544917E+04  0.15294330000E+03 0.  0.
<mgrwt>
<rscale>  0 0.66537546E+03</rscale>
<asrwt>0</asrwt>
<pdfrwt beam="1">  1        1 0.61246150E+00 0.77062093E+03</pdfrwt>
<pdfrwt beam="2">  1       -1 0.48297092E-01 0.77062093E+03</pdfrwt>
<totfact> 0.47252257E-01</totfact>
</mgrwt>
</event>
<event>
 4    5  0.7767175E-008  0.6682739E+03  0.7818608E-02  0.1016932E+00
          1   -1    0    0  501    0  0.00000000000E+00  0.00000000000E+00  0.44725114268E+03  0.44725114271E+03  0.50400000000E-02 0. -1.
         -1   -1    0    0    0  501 -0.00000000000E+00 -0.00000000000E+00 -0.57109014713E+03  0.57109014715E+03  0.50400000000E-02 0.  1.
    8880023    1    1    2    0    0  0.11090862212E+03 -0.21888365345E+02 -0.32361908061E+03  0.74250881382E+03  0.65864270000E+03 0.  1.
    8880022    1    1    2    0    0 -0.11090862212E+03  0.21888365345E+02  0.19978007616E+03  0.27583247604E+03  0.15294330000E+03 0.  0.
<mgrwt>
<rscale>  0 0.48810321E+03</rscale>
<asrwt>0</asrwt>
<pdfrwt beam="1">  1        1 0.68807868E-01 0.66827392E+03</pdfrwt>
<pdfrwt beam="2">  1       -1 0.87860023E-01 0.66827392E+03</pdfrwt>
<totfact> 0.67489596E+01</totfact>
</mgrwt>
</event>
<event>
 4    5  0.7767175E-008  0.7259759E+03  0.7818608E-02  0.9902861E-01
         -1   -1    0    0    0  501 -0.00000000000E+00  0.00000000000E+00  0.19418059325E+03  0.19418059332E+03  0.50400000000E-02 0.  1.
          1   -1    0    0  501    0  0.00000000000E+00 -0.00000000000E+00 -0.21917872074E+04  0.21917872074E+04  0.50400000000E-02 0. -1.
    8880023    1    1    2    0    0 -0.25849992658E+03 -0.16250720626E+03 -0.58406116665E+03  0.93175557781E+03  0.65864270000E+03 0.  1.
    8880022    1    1    2    0    0  0.25849992658E+03  0.16250720626E+03 -0.14135454475E+04  0.14542122229E+04  0.15294330000E+03 0.  0.
<mgrwt>
<rscale>  0 0.60122832E+03</rscale>
<asrwt>0</asrwt>
<pdfrwt beam="1">  1        1 0.33719801E+00 0.72597590E+03</pdfrwt>
<pdfrwt beam="2">  1       -1 0.29873939E-01 0.72597590E+03</pdfrwt>
<totfact> 0.23715361E+01</totfact>
</mgrwt>
</event>
<event>
 4    5  0.7767175E-008  0.6720688E+03  0.7818608E-02  0.1014221E+00
         -1   -1    0    0    0  501 -0.00000000000E+00  0.00000000000E+00  0.55603356680E+03  0.55603356682E+03  0.50400000000E-02 0.  1.
          1   -1    0    0  501    0  0.00000000000E+00 -0.00000000000E+00 -0.85038016692E+03  0.85038016693E+03  0.50400000000E-02 0. -1.
    8880023    1    1    2    0    0 -0.47179387687E+02 -0.12506172402E+03  0.33081918994E+03  0.74907801472E+03  0.65864270000E+03 0.  1.
    8880022    1    1    2    0    0  0.47179387687E+02  0.12506172402E+03 -0.62516579006E+03  0.65733571903E+03  0.15294330000E+03 0.  0.
<mgrwt>
<rscale>  0 0.49830910E+03</rscale>
<asrwt>0</asrwt>
<pdfrwt beam="1">  1        1 0.13082772E+00 0.67206885E+03</pdfrwt>
<pdfrwt beam="2">  1       -1 0.85543626E-01 0.67206885E+03</pdfrwt>
<totfact> 0.27982338E+01</totfact>
</mgrwt>
</event>
<event>
 4    5  0.7767175E-008  0.8377977E+03  0.7818608E-02  0.9634347E-01
          1   -1    0    0  501    0  0.00000000000E+00  0.00000000000E+00  0.30151716439E+03  0.30151716443E+03  0.50400000000E-02 0. -1.
         -1   -1    0    0    0  501 -0.00000000000E+00 -0.00000000000E+00 -0.28411426042E+04  0.28411426042E+04  0.50400000000E-02 0.  1.
    8880023    1    1    2    0    0 -0.51386838063E+03 -0.63514329880E+02 -0.24577137121E+04  0.25965865438E+04  0.65864270000E+03 0.  0.
    8880022    1    1    2    0    0  0.51386838063E+03  0.63514329880E+02 -0.81911727724E+02  0.54607322482E+03  0.15294330000E+03 0.  0.
<mgrwt>
<rscale>  0 0.75063994E+03</rscale>
<asrwt>0</asrwt>
<pdfrwt beam="1">  1        1 0.46387258E-01 0.83779770E+03</pdfrwt>
<pdfrwt beam="2">  1       -1 0.43709884E+00 0.83779770E+03</pdfrwt>
<totfact> 0.36484831E-01</totfact>
</mgrwt>
</event>
<event>
 4    5  0.7767175E-008  0.1753623E+04  0.7818608E-02  0.8748634E-01
          1   -1    0    0  501    0  0.00000000000E+00  0.00000000000E+00  0.33096580434E+04  0.33096580434E+04  0.50400000000E-02 0. -1.
         -1   -1    0    0    0  501 -0.00000000000E+00 -0.00000000000E+00 -0.14543961312E+04  0.14543961312E+04  0.50400000000E-02 0.  1.
    8880023    1    1    2    0    0  0.33687424841E+02 -0.16248837316E+04 -0.56705722149E+03  0.18430263380E+04  0.65864270000E+03 0.  1.
    8880022    1    1    2    0    0 -0.33687424841E+02  0.16248837316E+04  0.24223191337E+04  0.29210278366E+04  0.15294330000E+03 0.  0.
<mgrwt>
<rscale>  0 0.17225016E+04</rscale>
<asrwt>0</asrwt>
<pdfrwt beam="1">  1        1 0.50917815E+00 0.17536226E+04</pdfrwt>
<pdfrwt beam="2">  1       -1 0.22375326E+00 0.17536226E+04</pdfrwt>
<totfact> 0.33445235E-02</totfact>
</mgrwt>
</event>
<event>
 4    5  0.7767175E-008  0.1395712E+04  0.7818608E-02  0.8987022E-01
          1   -1    0    0  501    0  0.00000000000E+00  0.00000000000E+00  0.44374895316E+04  0.44374895316E+04  0.50400000000E-02 0. -1.
         -1   -1    0    0    0  501 -0.00000000000E+00 -0.00000000000E+00 -0.69753537446E+03  0.69753537448E+03  0.50400000000E-02 0.  1.
    8880023    1    1    2    0    0  0.11991645908E+04 -0.27605583273E+03  0.36312840016E+04  0.38902745719E+04  0.65864270000E+03 0.  0.
    8880022    1    1    2    0    0 -0.11991645908E+04  0.27605583273E+03  0.10867015556E+03  0.12447503342E+04  0.15294330000E+03 0.  0.
<mgrwt>
<rscale>  0 0.13550401E+04</rscale>
<asrwt>0</asrwt>
<pdfrwt beam="1">  1        1 0.68269068E+00 0.13957123E+04</pdfrwt>
<pdfrwt beam="2">  1       -1 0.10731314E+00 0.13957123E+04</pdfrwt>
<totfact> 0.29926197E-02</totfact>
</mgrwt>
</event>
<event>
 4    5  0.7767175E-008  0.1283725E+04  0.7818608E-02  0.9079743E-01
         -1   -1    0    0    0  501 -0.00000000000E+00  0.00000000000E+00  0.20885658165E+04  0.20885658165E+04  0.50400000000E-02 0.  1.
          1   -1    0    0  501    0  0.00000000000E+00 -0.00000000000E+00 -0.11347346476E+04  0.11347346476E+04  0.50400000000E-02 0. -1.
    8880023    1    1    2    0    0  0.95453321981E+03  0.55046069417E+03  0.15080489515E+04  0.19804450232E+04  0.65864270000E+03 0.  1.
    8880022    1    1    2    0    0 -0.95453321981E+03 -0.55046069417E+03 -0.55421778254E+03  0.12428554409E+04  0.15294330000E+03 0.  0.
<mgrwt>
<rscale>  0 0.12385789E+04</rscale>
<asrwt>0</asrwt>
<pdfrwt beam="1">  1        1 0.17457456E+00 0.12837254E+04</pdfrwt>
<pdfrwt beam="2">  1       -1 0.32131782E+00 0.12837254E+04</pdfrwt>
<totfact> 0.27934839E-01</totfact>
</mgrwt>
</event>
<event>
 4    5  0.7767175E-008  0.9089793E+03  0.7818608E-02  0.9511768E-01
         -1   -1    0    0    0  501 -0.00000000000E+00  0.00000000000E+00  0.14068310313E+04  0.14068310313E+04  0.50400000000E-02 0.  1.
          1   -1    0    0  501    0  0.00000000000E+00 -0.00000000000E+00 -0.17367762909E+04  0.17367762909E+04  0.50400000000E-02 0. -1.
    8880023    1    1    2    0    0  0.30333910009E+03  0.54810457903E+03  0.11871329852E+04  0.14951682748E+04  0.65864270000E+03 0.  1.
    8880022    1    1    2    0    0 -0.30333910009E+03 -0.54810457903E+03 -0.15170782448E+04  0.16484390474E+04  0.15294330000E+03 0.  0.
<mgrwt>
<rscale>  0 0.83421755E+03</rscale>
<asrwt>0</asrwt>
<pdfrwt beam="1">  1        1 0.26719635E+00 0.90897934E+03</pdfrwt>
<pdfrwt beam="2">  1       -1 0.21643554E+00 0.90897934E+03</pdfrwt>
<totfact> 0.53721266E-01</totfact>
</mgrwt>
</event>
<event>
 4    5  0.7767175E-008  0.1217702E+04  0.7818608E-02  0.9140104E-01
          1   -1    0    0  501    0  0.00000000000E+00  0.00000000000E+00  0.23744784177E+04  0.23744784177E+04  0.50400000000E-02 0. -1.
         -1   -1    0    0    0  501 -0.00000000000E+00 -0.00000000000E+00 -0.53873139702E+03  0.53873139705E+03  0.50400000000E-02 0.  1.
    8880023    1    1    2    0    0 -0.55547074116E+03  0.86048849957E+03  0.11192924806E+04  0.16539691852E+04  0.65864270000E+03 0.  0.
    8880022    1    1    2    0    0  0.55547074116E+03 -0.86048849957E+03  0.71645454013E+03  0.12592406296E+04  0.15294330000E+03 0.  0.
<mgrwt>
<rscale>  0 0.11693631E+04</rscale>
<asrwt>0</asrwt>
<pdfrwt beam="1">  1        1 0.36530437E+00 0.12177021E+04</pdfrwt>
<pdfrwt beam="2">  1       -1 0.82881755E-01 0.12177021E+04</pdfrwt>
<totfact> 0.23644369E+00</totfact>
</mgrwt>
</event>
<event>
 4    5  0.7767175E-008  0.7316935E+03  0.7818608E-02  0.9884839E-01
          1   -1    0    0  501    0  0.00000000000E+00  0.00000000000E+00  0.61964631681E+03  0.61964631683E+03  0.50400000000E-02 0. -1.
         -1   -1    0    0    0  501 -0.00000000000E+00 -0.00000000000E+00 -0.63051399287E+03  0.63051399289E+03  0.50400000000E-02 0.  1.
    8880023    1    1    2    0    0  0.20331187759E+03 -0.24541695411E+03 -0.30263480979E+03  0.79181010053E+03  0.65864270000E+03 0.  1.
    8880022    1    1    2    0    0 -0.20331187759E+03  0.24541695411E+03  0.29176713372E+03  0.45835020920E+03  0.15294330000E+03 0.  0.
<mgrwt>
<rscale>  0 0.61001697E+03</rscale>
<asrwt>0</asrwt>
<pdfrwt beam="1">  1        1 0.95330203E-01 0.73169352E+03</pdfrwt>
<pdfrwt beam="2">  1       -1 0.97002152E-01 0.73169352E+03</pdfrwt>
<totfact> 0.34239115E+01</totfact>
</mgrwt>
</event>
<event>
 4    5  0.7767175E-008  0.1663605E+04  0.7818608E-02  0.8801992E-01
          1   -1    0    0  501    0  0.00000000000E+00  0.00000000000E+00  0.23378250510E+04  0.23378250510E+04  0.50400000000E-02 0. -1.
         -1   -1    0    0    0  501 -0.00000000000E+00 -0.00000000000E+00 -0.14052603776E+04  0.14052603777E+04  0.50400000000E-02 0.  1.
    8880023    1    1    2    0    0 -0.15063144382E+04 -0.25453663822E+03 -0.39900532149E+03  0.17107856498E+04  0.65864270000E+03 0.  0.
    8880022    1    1    2    0    0  0.15063144382E+04  0.25453663822E+03  0.13315699949E+04  0.20322997789E+04  0.15294330000E+03 0.  0.
<mgrwt>
<rscale>  0 0.16305586E+04</rscale>
<asrwt>0</asrwt>
<pdfrwt beam="1">  1        1 0.35966539E+00 0.16636052E+04</pdfrwt>
<pdfrwt beam="2">  1       -1 0.21619391E+00 0.16636052E+04</pdfrwt>
<totfact> 0.18965392E-01</totfact>
</mgrwt>
</event>
<event>
 4    5  0.7767175E-008  0.8102695E+03  0.7818608E-02  0.9689016E-01
          1   -1    0    0  501    0  0.00000000000E+00  0.00000000000E+00  0.26345873979E+04  0.26345873979E+04  0.50400000000E-02 0. -1.
         -1   -1    0    0    0  501 -0.00000000000E+00 -0.00000000000E+00 -0.29838323577E+03  0.29838323581E+03  0.50400000000E-02 0.  1.
    8880023    1    1    2    0    0  0.33258931659E+03  0.33482944850E+03  0.34459259118E+03  0.88050024035E+03  0.65864270000E+03 0.  1.
    8880022    1    1    2    0    0 -0.33258931659E+03 -0.33482944850E+03  0.19916115710E+04  0.20524703934E+04  0.15294330000E+03 0.  0.
<mgrwt>
<rscale>  0 0.71674562E+03</rscale>
<asrwt>0</asrwt>
<pdfrwt beam="1">  1        1 0.40532115E+00 0.81026947E+03</pdfrwt>
<pdfrwt beam="2">  1       -1 0.45905111E-01 0.81026947E+03</pdfrwt>
<totfact> 0.54033631E+00</totfact>
</mgrwt>
</event>
<event>
 4    5  0.7767175E-008  0.2154322E+04  0.7818608E-02  0.8548345E-01
         -1   -1    0    0    0  501 -0.00000000000E+00  0.00000000000E+00  0.20604350010E+04  0.20604350010E+04  0.50400000000E-02 0.  1.
          1   -1    0    0  501    0  0.00000000000E+00 -0.00000000000E+00 -0.38123920884E+04  0.38123920884E+04  0.50400000000E-02 0. -1.
    8880023    1    1    2    0    0 -0.19172155894E+04  0.72909262421E+03  0.10503049531E+04  0.23967149124E+04  0.65864270000E+03 0.  0.
    8880022    1    1    2    0    0  0.19172155894E+04 -0.72909262421E+03 -0.28022620405E+04  0.34761121770E+04  0.15294330000E+03 0.  0.
<mgrwt>
<rscale>  0 0.21295323E+04</rscale>
<asrwt>0</asrwt>
<pdfrwt beam="1">  1        1 0.58652186E+00 0.21543217E+04</pdfrwt>
<pdfrwt beam="2">  1       -1 0.31699000E+00 0.21543217E+04</pdfrwt>
<totfact> 0.30935637E-03</totfact>
</mgrwt>
</event>
<event>
 4    5  0.7767175E-008  0.7425392E+03  0.7818608E-02  0.9852612E-01
          1   -1    0    0  501    0  0.00000000000E+00  0.00000000000E+00  0.10118693013E+04  0.10118693013E+04  0.50400000000E-02 0. -1.
         -1   -1    0    0    0  501 -0.00000000000E+00 -0.00000000000E+00 -0.67128438788E+03  0.67128438790E+03  0.50400000000E-02 0.  1.
    8880023    1    1    2    0    0 -0.15081290660E+03  0.30791176774E+03 -0.40687585633E+03  0.84670677228E+03  0.65864270000E+03 0.  0.
    8880022    1    1    2    0    0  0.15081290660E+03 -0.30791176774E+03  0.74746076978E+03  0.83644691695E+03  0.15294330000E+03 0.  0.
<mgrwt>
<rscale>  0 0.62613943E+03</rscale>
<asrwt>0</asrwt>
<pdfrwt beam="1">  1        1 0.15567220E+00 0.74253915E+03</pdfrwt>
<pdfrwt beam="2">  1       -1 0.10327452E+00 0.74253915E+03</pdfrwt>
<totfact> 0.13527548E+01</totfact>
</mgrwt>
</event>
<event>
 4    5  0.7767175E-008  0.6937889E+03  0.7818608E-02  0.1002401E+00
          1   -1    0    0  501    0  0.00000000000E+00  0.00000000000E+00  0.12033841011E+04  0.12033841011E+04  0.50400000000E-02 0. -1.
         -1   -1    0    0    0  501 -0.00000000000E+00 -0.00000000000E+00 -0.30340962770E+03  0.30340962774E+03  0.50400000000E-02 0.  1.
    8880023    1    1    2    0    0 -0.14687017942E+03 -0.16112713844E+03  0.14847150509E+03  0.70949756760E+03  0.65864270000E+03 0.  1.
    8880022    1    1    2    0    0  0.14687017942E+03  0.16112713844E+03  0.75150296828E+03  0.79729616122E+03  0.15294330000E+03 0.  0.
<mgrwt>
<rscale>  0 0.54609727E+03</rscale>
<asrwt>0</asrwt>
<pdfrwt beam="1">  1        1 0.18513602E+00 0.69378888E+03</pdfrwt>
<pdfrwt beam="2">  1       -1 0.46678404E-01 0.69378888E+03</pdfrwt>
<totfact> 0.50121381E+01</totfact>
</mgrwt>
</event>
<event>
 4    5  0.7767175E-008  0.1446873E+04  0.7818608E-02  0.8948091E-01
         -1   -1    0    0    0  501 -0.00000000000E+00  0.00000000000E+00  0.23901211092E+04  0.23901211092E+04  0.50400000000E-02 0.  1.
          1   -1    0    0  501    0  0.00000000000E+00 -0.00000000000E+00 -0.95992188380E+03  0.95992188381E+03  0.50400000000E-02 0. -1.
    8880023    1    1    2    0    0  0.42802990011E+03  0.12150808100E+04  0.14557552885E+04  0.20524776823E+04  0.65864270000E+03 0.  1.
    8880022    1    1    2    0    0 -0.42802990011E+03 -0.12150808100E+04 -0.25556063093E+02  0.12975653107E+04  0.15294330000E+03 0.  0.
<mgrwt>
<rscale>  0 0.14079396E+04</rscale>
<asrwt>0</asrwt>
<pdfrwt beam="1">  1        1 0.14768029E+00 0.14468729E+04</pdfrwt>
<pdfrwt beam="2">  1       -1 0.36771094E+00 0.14468729E+04</pdfrwt>
<totfact> 0.18481283E-01</totfact>
</mgrwt>
</event>
<event>
 4    5  0.7767175E-008  0.7654357E+03  0.7818608E-02  0.9791233E-01
          1   -1    0    0  501    0  0.00000000000E+00  0.00000000000E+00  0.39830456371E+03  0.39830456374E+03  0.50400000000E-02 0. -1.
         -1   -1    0    0    0  501 -0.00000000000E+00 -0.00000000000E+00 -0.11657794698E+04  0.11657794698E+04  0.50400000000E-02 0.  1.
    8880023    1    1    2    0    0  0.26333155790E+03 -0.28764217498E+03 -0.84275740317E+03  0.11384778334E+04  0.65864270000E+03 0.  0.
    8880022    1    1    2    0    0 -0.26333155790E+03  0.28764217498E+03  0.75282497115E+02  0.42560620014E+03  0.15294330000E+03 0.  0.
<mgrwt>
<rscale>  0 0.65835154E+03</rscale>
<asrwt>0</asrwt>
<pdfrwt beam="1">  1        1 0.61277626E-01 0.76543565E+03</pdfrwt>
<pdfrwt beam="2">  1       -1 0.17935069E+00 0.76543565E+03</pdfrwt>
<totfact> 0.13037170E+01</totfact>
</mgrwt>
</event>
<event>
 4    5  0.7767175E-008  0.8339316E+03  0.7818608E-02  0.9641731E-01
         -1   -1    0    0    0  501 -0.00000000000E+00  0.00000000000E+00  0.48018249276E+03  0.48018249279E+03  0.50400000000E-02 0.  1.
          1   -1    0    0  501    0  0.00000000000E+00 -0.00000000000E+00 -0.25472176929E+04  0.25472176929E+04  0.50400000000E-02 0. -1.
    8880023    1    1    2    0    0 -0.12147629146E+03 -0.49686543622E+03  0.58367206648E+02  0.83597170297E+03  0.65864270000E+03 0.  0.
    8880022    1    1    2    0    0  0.12147629146E+03  0.49686543622E+03 -0.21254024068E+04  0.21914284828E+04  0.15294330000E+03 0.  0.
<mgrwt>
<rscale>  0 0.74594687E+03</rscale>
<asrwt>0</asrwt>
<pdfrwt beam="1">  1        1 0.39187964E+00 0.83393163E+03</pdfrwt>
<pdfrwt beam="2">  1       -1 0.73874231E-01 0.83393163E+03</pdfrwt>
<totfact> 0.24274140E+00</totfact>
</mgrwt>
</event>
<event>
 4    5  0.7767175E-008  0.1243890E+04  0.7818608E-02  0.9115595E-01
         -1   -1    0    0    0  501 -0.00000000000E+00  0.00000000000E+00  0.12238090171E+04  0.12238090171E+04  0.50400000000E-02 0.  1.
          1   -1    0    0  501    0  0.00000000000E+00 -0.00000000000E+00 -0.18316676630E+04  0.18316676630E+04  0.50400000000E-02 0. -1.
    8880023    1    1    2    0    0 -0.31378390212E+03  0.10074684550E+04  0.65247685367E+03  0.14046313665E+04  0.65864270000E+03 0.  0.
    8880022    1    1    2    0    0  0.31378390212E+03 -0.10074684550E+04 -0.12603354996E+04  0.16508453136E+04  0.15294330000E+03 0.  0.
<mgrwt>
<rscale>  0 0.11968762E+04</rscale>
<asrwt>0</asrwt>
<pdfrwt beam="1">  1        1 0.28179502E+00 0.12438904E+04</pdfrwt>
<pdfrwt beam="2">  1       -1 0.18827831E+00 0.12438904E+04</pdfrwt>
<totfact> 0.68698924E-01</totfact>
</mgrwt>
</event>
<event>
 4    5  0.7767175E-008  0.1461996E+04  0.7818608E-02  0.8936949E-01
          1   -1    0    0  501    0  0.00000000000E+00  0.00000000000E+00  0.20599029221E+04  0.20599029221E+04  0.50400000000E-02 0. -1.
         -1   -1    0    0    0  501 -0.00000000000E+00 -0.00000000000E+00 -0.14334099156E+04  0.14334099156E+04  0.50400000000E-02 0.  1.
    8880023    1    1    2    0    0  0.96960300350E+03 -0.87378012651E+03 -0.70448802675E+03  0.16228787016E+04  0.65864270000E+03 0.  0.
    8880022    1    1    2    0    0 -0.96960300350E+03  0.87378012651E+03  0.13309810332E+04  0.18704341361E+04  0.15294330000E+03 0.  0.
<mgrwt>
<rscale>  0 0.14235462E+04</rscale>
<asrwt>0</asrwt>
<pdfrwt beam="1">  1        1 0.31690814E+00 0.14619959E+04</pdfrwt>
<pdfrwt beam="2">  1       -1 0.22052460E+00 0.14619959E+04</pdfrwt>
<totfact> 0.28097592E-01</totfact>
</mgrwt>
</event>
<event>
 4    5  0.7767175E-008  0.1508187E+04  0.7818608E-02  0.8903876E-01
          1   -1    0    0  501    0  0.00000000000E+00  0.00000000000E+00  0.35086928749E+04  0.35086928749E+04  0.50400000000E-02 0. -1.
         -1   -1    0    0    0  501 -0.00000000000E+00 -0.00000000000E+00 -0.74477568522E+03  0.74477568523E+03  0.50400000000E-02 0.  1.
    8880023    1    1    2    0    0  0.10641101470E+04 -0.84171671185E+03  0.46248988185E+03  0.15775057924E+04  0.65864270000E+03 0.  0.
    8880022    1    1    2    0    0 -0.10641101470E+04  0.84171671185E+03  0.23014273078E+04  0.26759627677E+04  0.15294330000E+03 0.  0.
<mgrwt>
<rscale>  0 0.14711373E+04</rscale>
<asrwt>0</asrwt>
<pdfrwt beam="1">  1        1 0.53979891E+00 0.15081869E+04</pdfrwt>
<pdfrwt beam="2">  1       -1 0.11458087E+00 0.15081869E+04</pdfrwt>
<totfact> 0.16349244E-01</totfact>
</mgrwt>
</event>
<event>
 4    5  0.7767175E-008  0.8172957E+03  0.7818608E-02  0.9674576E-01
          1   -1    0    0  501    0  0.00000000000E+00  0.00000000000E+00  0.72381895079E+03  0.72381895081E+03  0.50400000000E-02 0. -1.
         -1   -1    0    0    0  501 -0.00000000000E+00 -0.00000000000E+00 -0.12552692914E+04  0.12552692914E+04  0.50400000000E-02 0.  1.
    8880023    1    1    2    0    0 -0.21890174278E+03 -0.43155996526E+03 -0.99784321527E+03  0.12898307118E+04  0.65864270000E+03 0.  1.
    8880022    1    1    2    0    0  0.21890174278E+03  0.43155996526E+03  0.46639287469E+03  0.68925753038E+03  0.15294330000E+03 0.  0.
<mgrwt>
<rscale>  0 0.72550908E+03</rscale>
<asrwt>0</asrwt>
<pdfrwt beam="1">  1        1 0.11135676E+00 0.81729565E+03</pdfrwt>
<pdfrwt beam="2">  1       -1 0.19311835E+00 0.81729565E+03</pdfrwt>
<totfact> 0.44651804E+00</totfact>
</mgrwt>
</event>
<event>
 4    5  0.7767175E-008  0.8101004E+03  0.7818608E-02  0.9689368E-01
         -1   -1    0    0    0  501 -0.00000000000E+00  0.00000000000E+00  0.13777154024E+04  0.13777154024E+04  0.50400000000E-02 0.  1.
          1   -1    0    0  501    0  0.00000000000E+00 -0.00000000000E+00 -0.38379347477E+03  0.38379347480E+03  0.50400000000E-02 0. -1.
    8880023    1    1    2    0    0 -0.47034092940E+03  0.35096913452E+02  0.97182478998E+03  0.12651901090E+04  0.65864270000E+03 0.  0.
    8880022    1    1    2    0    0  0.47034092940E+03 -0.35096913452E+02  0.22097137671E+02  0.49631876824E+03  0.15294330000E+03 0.  0.
<mgrwt>
<rscale>  0 0.71653363E+03</rscale>
<asrwt>0</asrwt>
<pdfrwt beam="1">  1        1 0.59045150E-01 0.81010036E+03</pdfrwt>
<pdfrwt beam="2">  1       -1 0.21195622E+00 0.81010036E+03</pdfrwt>
<totfact> 0.81085913E+00</totfact>
</mgrwt>
</event>
<event>
 4    5  0.9675881E-008  0.9516137E+03  0.7818608E-02  0.9447796E-01
          1   -1    0    0  501    0  0.00000000000E+00  0.00000000000E+00  0.27070801020E+04  0.27070801020E+04  0.50400000000E-02 0. -1.
         -1   -1    0    0    0  501 -0.00000000000E+00 -0.00000000000E+00 -0.12041623770E+04  0.12041623770E+04  0.50400000000E-02 0.  1.
    8880023    1    1    2    0    0 -0.57145641429E+03 -0.38104602237E+03 -0.95883176496E+03  0.13508986136E+04  0.65864270000E+03 0.  1.
    8880022    1    1    2    0    0  0.57145641429E+03  0.38104602237E+03  0.24617494899E+04  0.25603438653E+04  0.15294330000E+03 0.  0.
<mgrwt>
<rscale>  0 0.88244499E+03</rscale>
<asrwt>0</asrwt>
<pdfrwt beam="1">  1        1 0.41647385E+00 0.95161374E+03</pdfrwt>
<pdfrwt beam="2">  1       -1 0.18525575E+00 0.95161374E+03</pdfrwt>
<totfact> 0.19129378E-01</totfact>
</mgrwt>
</event>
<event>
 4    5  0.1351884E-007  0.1045637E+04  0.7818608E-02  0.9324145E-01
          1   -1    0    0  501    0  0.00000000000E+00  0.00000000000E+00  0.22255932835E+04  0.22255932835E+04  0.50400000000E-02 0. -1.
         -1   -1    0    0    0  501 -0.00000000000E+00 -0.00000000000E+00 -0.13857346321E+04  0.13857346321E+04  0.50400000000E-02 0.  1.
    8880023    1    1    2    0    0  0.71540527488E+03  0.38437226532E+03 -0.10909282451E+04  0.15111192501E+04  0.65864270000E+03 0.  1.
    8880022    1    1    2    0    0 -0.71540527488E+03 -0.38437226532E+03  0.19307868965E+04  0.21002086655E+04  0.15294330000E+03 0.  0.
<mgrwt>
<rscale>  0 0.98590128E+03</rscale>
<asrwt>0</asrwt>
<pdfrwt beam="1">  1        1 0.34239896E+00 0.10456371E+04</pdfrwt>
<pdfrwt beam="2">  1       -1 0.21318995E+00 0.10456371E+04</pdfrwt>
<totfact> 0.25808171E-01</totfact>
</mgrwt>
</event>
<event>
 4    5  0.7767175E-008  0.6822045E+03  0.7818608E-02  0.1008103E+00
          1   -1    0    0  501    0  0.00000000000E+00  0.00000000000E+00  0.27633246364E+03  0.27633246368E+03  0.50400000000E-02 0. -1.
         -1   -1    0    0    0  501 -0.00000000000E+00 -0.00000000000E+00 -0.32872003786E+04  0.32872003786E+04  0.50400000000E-02 0.  1.
    8880023    1    1    2    0    0  0.12598554419E+03 -0.12538100643E+03 -0.31939770586E+04  0.32660208835E+04  0.65864270000E+03 0.  1.
    8880022    1    1    2    0    0 -0.12598554419E+03  0.12538100643E+03  0.18310914366E+03  0.29751195879E+03  0.15294330000E+03 0.  0.
<mgrwt>
<rscale>  0 0.52235514E+03</rscale>
<asrwt>0</asrwt>
<pdfrwt beam="1">  1        1 0.42512689E-01 0.68220449E+03</pdfrwt>
<pdfrwt beam="2">  1       -1 0.50572311E+00 0.68220449E+03</pdfrwt>
<totfact> 0.14376404E-01</totfact>
</mgrwt>
</event>
<event>
 4    5  0.7767175E-008  0.9749854E+03  0.7818608E-02  0.9415042E-01
          1   -1    0    0  501    0  0.00000000000E+00  0.00000000000E+00  0.35521910434E+04  0.35521910434E+04  0.50400000000E-02 0. -1.
         -1   -1    0    0    0  501 -0.00000000000E+00 -0.00000000000E+00 -0.30498308904E+03  0.30498308908E+03  0.50400000000E-02 0.  1.
    8880023    1    1    2    0    0 -0.20692168306E+03  0.68845457756E+03  0.28699431598E+04  0.30310345157E+04  0.65864270000E+03 0. -1.
    8880022    1    1    2    0    0  0.20692168306E+03 -0.68845457756E+03  0.37726479457E+03  0.82613961685E+03  0.15294330000E+03 0.  0.
<mgrwt>
<rscale>  0 0.90848065E+03</rscale>
<asrwt>0</asrwt>
<pdfrwt beam="1">  1        1 0.54649097E+00 0.97498538E+03</pdfrwt>
<pdfrwt beam="2">  1       -1 0.46920471E-01 0.97498538E+03</pdfrwt>
<totfact> 0.10750330E+00</totfact>
</mgrwt>
</event>
<event>
 4    5  0.7767175E-008  0.7796754E+03  0.7818608E-02  0.9756600E-01
         -1   -1    0    0    0  501 -0.00000000000E+00  0.00000000000E+00  0.50019252340E+03  0.50019252342E+03  0.50400000000E-02 0.  1.
          1   -1    0    0  501    0  0.00000000000E+00 -0.00000000000E+00 -0.18022012396E+04  0.18022012396E+04  0.50400000000E-02 0. -1.
    8880023    1    1    2    0    0  0.17497413535E+03 -0.37877110067E+03  0.14116541749E+03  0.79235180072E+03  0.65864270000E+03 0.  1.
    8880022    1    1    2    0    0 -0.17497413535E+03  0.37877110067E+03 -0.14431741337E+04  0.15100419623E+04  0.15294330000E+03 0.  0.
<mgrwt>
<rscale>  0 0.67744559E+03</rscale>
<asrwt>0</asrwt>
<pdfrwt beam="1">  1        1 0.27726173E+00 0.77967538E+03</pdfrwt>
<pdfrwt beam="2">  1       -1 0.76952697E-01 0.77967538E+03</pdfrwt>
<totfact> 0.71505727E+00</totfact>
</mgrwt>
</event>
<event>
 4    5  0.7767175E-008  0.1172694E+04  0.7818608E-02  0.9184134E-01
          1   -1    0    0  501    0  0.00000000000E+00  0.00000000000E+00  0.12340108248E+04  0.12340108248E+04  0.50400000000E-02 0. -1.
         -1   -1    0    0    0  501 -0.00000000000E+00 -0.00000000000E+00 -0.11652072762E+04  0.11652072762E+04  0.50400000000E-02 0.  1.
    8880023    1    1    2    0    0 -0.71615192549E+03  0.65461975138E+03 -0.48795292802E+03  0.12701609605E+04  0.65864270000E+03 0.  1.
    8880022    1    1    2    0    0  0.71615192549E+03 -0.65461975138E+03  0.55675647670E+03  0.11290571406E+04  0.15294330000E+03 0.  0.
<mgrwt>
<rscale>  0 0.11218704E+04</rscale>
<asrwt>0</asrwt>
<pdfrwt beam="1">  1        1 0.18984782E+00 0.11726938E+04</pdfrwt>
<pdfrwt beam="2">  1       -1 0.17926266E+00 0.11726938E+04</pdfrwt>
<totfact> 0.20906278E+00</totfact>
</mgrwt>
</event>
<event>
 4    5  0.7767175E-008  0.1234652E+04  0.7818608E-02  0.9124152E-01
          1   -1    0    0  501    0  0.00000000000E+00  0.00000000000E+00  0.19307474811E+04  0.19307474811E+04  0.50400000000E-02 0. -1.
         -1   -1    0    0    0  501 -0.00000000000E+00 -0.00000000000E+00 -0.89957876059E+03  0.89957876060E+03  0.50400000000E-02 0.  1.
    8880023    1    1    2    0    0 -0.74216167300E+03 -0.73467855811E+03 -0.15297154583E+03  0.12440928553E+04  0.65864270000E+03 0.  0.
    8880022    1    1    2    0    0  0.74216167300E+03  0.73467855811E+03  0.11841402663E+04  0.15862333863E+04  0.15294330000E+03 0.  0.
<mgrwt>
<rscale>  0 0.11871803E+04</rscale>
<asrwt>0</asrwt>
<pdfrwt beam="1">  1        1 0.29703807E+00 0.12346525E+04</pdfrwt>
<pdfrwt beam="2">  1       -1 0.13839673E+00 0.12346525E+04</pdfrwt>
<totfact> 0.14041471E+00</totfact>
</mgrwt>
</event>
<event>
 4    5  0.7767175E-008  0.1190993E+04  0.7818608E-02  0.9165928E-01
         -1   -1    0    0    0  501 -0.00000000000E+00  0.00000000000E+00  0.13537075434E+04  0.13537075434E+04  0.50400000000E-02 0.  1.
          1   -1    0    0  501    0  0.00000000000E+00 -0.00000000000E+00 -0.28222993969E+04  0.28222993969E+04  0.50400000000E-02 0. -1.
    8880023    1    1    2    0    0 -0.86529764697E+03 -0.48571035537E+03  0.97179464774E+03  0.15371563391E+04  0.65864270000E+03 0.  0.
    8880022    1    1    2    0    0  0.86529764697E+03  0.48571035537E+03 -0.24403865012E+04  0.26388506012E+04  0.15294330000E+03 0.  0.
<mgrwt>
<rscale>  0 0.11412138E+04</rscale>
<asrwt>0</asrwt>
<pdfrwt beam="1">  1        1 0.43419991E+00 0.11909932E+04</pdfrwt>
<pdfrwt beam="2">  1       -1 0.20826270E+00 0.11909932E+04</pdfrwt>
<totfact> 0.10515381E-01</totfact>
</mgrwt>
</event>
<event>
 4    5  0.7767175E-008  0.7517121E+03  0.7818608E-02  0.9827057E-01
         -1   -1    0    0    0  501 -0.00000000000E+00  0.00000000000E+00  0.10019170441E+04  0.10019170441E+04  0.50400000000E-02 0.  1.
          1   -1    0    0  501    0  0.00000000000E+00 -0.00000000000E+00 -0.60150273942E+03  0.60150273944E+03  0.50400000000E-02 0. -1.
    8880023    1    1    2    0    0  0.36229297359E+03  0.21695414538E+01  0.76114528298E+03  0.10697725243E+04  0.65864270000E+03 0.  1.
    8880022    1    1    2    0    0 -0.36229297359E+03 -0.21695414538E+01 -0.36073097830E+03  0.53364725929E+03  0.15294330000E+03 0.  0.
<mgrwt>
<rscale>  0 0.63930530E+03</rscale>
<asrwt>0</asrwt>
<pdfrwt beam="1">  1        1 0.92538884E-01 0.75171212E+03</pdfrwt>
<pdfrwt beam="2">  1       -1 0.15414108E+00 0.75171212E+03</pdfrwt>
<totfact> 0.11382896E+01</totfact>
</mgrwt>
</event>
<event>
 4    5  0.7767175E-008  0.8493423E+03  0.7818608E-02  0.9612810E-01
          1   -1    0    0  501    0  0.00000000000E+00  0.00000000000E+00  0.84623792171E+03  0.84623792172E+03  0.50400000000E-02 0. -1.
         -1   -1    0    0    0  501 -0.00000000000E+00 -0.00000000000E+00 -0.12367833699E+04  0.12367833700E+04  0.50400000000E-02 0.  1.
    8880023    1    1    2    0    0  0.47300415389E+03  0.25266431112E+03 -0.96287522349E+03  0.12839435681E+04  0.65864270000E+03 0.  1.
    8880022    1    1    2    0    0 -0.47300415389E+03 -0.25266431112E+03  0.57232977525E+03  0.79907772361E+03  0.15294330000E+03 0.  0.
<mgrwt>
<rscale>  0 0.76454106E+03</rscale>
<asrwt>0</asrwt>
<pdfrwt beam="1">  1        1 0.13019045E+00 0.84934233E+03</pdfrwt>
<pdfrwt beam="2">  1       -1 0.19027437E+00 0.84934233E+03</pdfrwt>
<totfact> 0.36311699E+00</totfact>
</mgrwt>
</event>
<event>
 4    5  0.7767175E-008  0.1331500E+04  0.7818608E-02  0.9038824E-01
          1   -1    0    0  501    0  0.00000000000E+00  0.00000000000E+00  0.28314876337E+04  0.28314876337E+04  0.50400000000E-02 0. -1.
         -1   -1    0    0    0  501 -0.00000000000E+00 -0.00000000000E+00 -0.66272187275E+03  0.66272187277E+03  0.50400000000E-02 0.  1.
    8880023    1    1    2    0    0  0.11399726046E+04 -0.19886081926E+03  0.18588266657E+04  0.22865104295E+04  0.65864270000E+03 0.  0.
    8880022    1    1    2    0    0 -0.11399726046E+04  0.19886081926E+03  0.30993909519E+03  0.12076990769E+04  0.15294330000E+03 0.  0.
<mgrwt>
<rscale>  0 0.12883891E+04</rscale>
<asrwt>0</asrwt>
<pdfrwt beam="1">  1        1 0.43561348E+00 0.13315004E+04</pdfrwt>
<pdfrwt beam="2">  1       -1 0.10195721E+00 0.13315004E+04</pdfrwt>
<totfact> 0.70453287E-01</totfact>
</mgrwt>
</event>
<event>
 4    5  0.7767175E-008  0.1401965E+04  0.7818608E-02  0.8982157E-01
          1   -1    0    0  501    0  0.00000000000E+00  0.00000000000E+00  0.12026545386E+04  0.12026545386E+04  0.50400000000E-02 0. -1.
         -1   -1    0    0    0  501 -0.00000000000E+00 -0.00000000000E+00 -0.18439339391E+04  0.18439339391E+04  0.50400000000E-02 0.  1.
    8880023    1    1    2    0    0 -0.11770465528E+04 -0.38243553545E+03  0.35985796669E+03  0.14474126877E+04  0.65864270000E+03 0.  0.
    8880022    1    1    2    0    0  0.11770465528E+04  0.38243553545E+03 -0.10011373673E+04  0.15991757900E+04  0.15294330000E+03 0.  0.
<mgrwt>
<rscale>  0 0.13615143E+04</rscale>
<asrwt>0</asrwt>
<pdfrwt beam="1">  1        1 0.18502378E+00 0.14019650E+04</pdfrwt>
<pdfrwt beam="2">  1       -1 0.28368214E+00 0.14019650E+04</pdfrwt>
<totfact> 0.42975787E-01</totfact>
</mgrwt>
</event>
<event>
 4    5  0.7767175E-008  0.7854976E+03  0.7818608E-02  0.9743078E-01
         -1   -1    0    0    0  501 -0.00000000000E+00  0.00000000000E+00  0.49098607993E+03  0.49098607995E+03  0.50400000000E-02 0.  1.
          1   -1    0    0  501    0  0.00000000000E+00 -0.00000000000E+00 -0.12837272066E+04  0.12837272066E+04  0.50400000000E-02 0. -1.
    8880023    1    1    2    0    0  0.26724650370E+03  0.33432851608E+03  0.81160443684E+02  0.78967934903E+03  0.65864270000E+03 0.  1.
    8880022    1    1    2    0    0 -0.26724650370E+03 -0.33432851608E+03 -0.87390157037E+03  0.98503393754E+03  0.15294330000E+03 0. -1.
<mgrwt>
<rscale>  0 0.68508862E+03</rscale>
<asrwt>0</asrwt>
<pdfrwt beam="1">  1        1 0.19749649E+00 0.78549759E+03</pdfrwt>
<pdfrwt beam="2">  1       -1 0.75536320E-01 0.78549759E+03</pdfrwt>
<totfact> 0.16829365E+01</totfact>
</mgrwt>
</event>
<event>
 4    5  0.7767175E-008  0.1046679E+04  0.7818608E-02  0.9322884E-01
          1   -1    0    0  501    0  0.00000000000E+00  0.00000000000E+00  0.14435264244E+04  0.14435264244E+04  0.50400000000E-02 0. -1.
         -1   -1    0    0    0  501 -0.00000000000E+00 -0.00000000000E+00 -0.69415254110E+03  0.69415254112E+03  0.50400000000E-02 0.  1.
    8880023    1    1    2    0    0 -0.57587652940E+03  0.57453731830E+03  0.39787181175E+02  0.10474350258E+04  0.65864270000E+03 0.  0.
    8880022    1    1    2    0    0  0.57587652940E+03 -0.57453731830E+03  0.70958670208E+03  0.10902439397E+04  0.15294330000E+03 0.  0.
<mgrwt>
<rscale>  0 0.98703119E+03</rscale>
<asrwt>0</asrwt>
<pdfrwt beam="1">  1        1 0.22208099E+00 0.10466791E+04</pdfrwt>
<pdfrwt beam="2">  1       -1 0.10679270E+00 0.10466791E+04</pdfrwt>
<totfact> 0.58583203E+00</totfact>
</mgrwt>
</event>
<event>
 4    5  0.7767175E-008  0.8435088E+03  0.7818608E-02  0.9623599E-01
          1   -1    0    0  501    0  0.00000000000E+00  0.00000000000E+00  0.81967759639E+03  0.81967759641E+03  0.50400000000E-02 0. -1.
         -1   -1    0    0    0  501 -0.00000000000E+00 -0.00000000000E+00 -0.90420891215E+03  0.90420891216E+03  0.50400000000E-02 0.  1.
    8880023    1    1    2    0    0  0.51651890477E+03  0.10442771236E+03 -0.54778333877E+03  0.10057702116E+04  0.65864270000E+03 0.  0.
    8880022    1    1    2    0    0 -0.51651890477E+03 -0.10442771236E+03  0.46325202301E+03  0.71811629694E+03  0.15294330000E+03 0.  0.
<mgrwt>
<rscale>  0 0.75753727E+03</rscale>
<asrwt>0</asrwt>
<pdfrwt beam="1">  1        1 0.12610425E+00 0.84350882E+03</pdfrwt>
<pdfrwt beam="2">  1       -1 0.13910906E+00 0.84350882E+03</pdfrwt>
<totfact> 0.92367317E+00</totfact>
</mgrwt>
</event>
<event>
 4    5  0.7767175E-008  0.7125447E+03  0.7818608E-02  0.9948670E-01
         -1   -1    0    0    0  501 -0.00000000000E+00  0.00000000000E+00  0.39496043066E+03  0.39496043069E+03  0.50400000000E-02 0.  1.
          1   -1    0    0  501    0  0.00000000000E+00 -0.00000000000E+00 -0.70539503758E+03  0.70539503760E+03  0.50400000000E-02 0. -1.
    8880023    1    1    2    0    0  0.16899206876E+03  0.21295860765E+03 -0.89579321214E+02  0.71815342994E+03  0.65864270000E+03 0.  1.
    8880022    1    1    2    0    0 -0.16899206876E+03 -0.21295860765E+03 -0.22085528571E+03  0.38220203835E+03  0.15294330000E+03 0. -1.
<mgrwt>
<rscale>  0 0.57959405E+03</rscale>
<asrwt>0</asrwt>
<pdfrwt beam="1">  1        1 0.10852231E+00 0.71254466E+03</pdfrwt>
<pdfrwt beam="2">  1       -1 0.60763143E-01 0.71254466E+03</pdfrwt>
<totfact> 0.75675887E+01</totfact>
</mgrwt>
</event>
<event>
 4    5  0.7767175E-008  0.8025016E+03  0.7818608E-02  0.9705413E-01
          1   -1    0    0  501    0  0.00000000000E+00  0.00000000000E+00  0.10071457986E+04  0.10071457986E+04  0.50400000000E-02 0. -1.
         -1   -1    0    0    0  501 -0.00000000000E+00 -0.00000000000E+00 -0.10020968911E+04  0.10020968911E+04  0.50400000000E-02 0.  1.
    8880023    1    1    2    0    0  0.38665465988E+03 -0.24636715834E+03 -0.75938223903E+03  0.11048394426E+04  0.65864270000E+03 0.  1.
    8880022    1    1    2    0    0 -0.38665465988E+03  0.24636715834E+03  0.76443114649E+03  0.90440324715E+03  0.15294330000E+03 0.  0.
<mgrwt>
<rscale>  0 0.70695418E+03</rscale>
<asrwt>0</asrwt>
<pdfrwt beam="1">  1        1 0.15494551E+00 0.80250159E+03</pdfrwt>
<pdfrwt beam="2">  1       -1 0.15416875E+00 0.80250159E+03</pdfrwt>
<totfact> 0.49756121E+00</totfact>
</mgrwt>
</event>
<event>
 4    5  0.7767175E-008  0.9617394E+03  0.7818608E-02  0.9433421E-01
          1   -1    0    0  501    0  0.00000000000E+00  0.00000000000E+00  0.16971932028E+04  0.16971932028E+04  0.50400000000E-02 0. -1.
         -1   -1    0    0    0  501 -0.00000000000E+00 -0.00000000000E+00 -0.12107025491E+04  0.12107025491E+04  0.50400000000E-02 0.  1.
    8880023    1    1    2    0    0 -0.69974235125E+03 -0.38641692335E+02 -0.91882180192E+03  0.13301038488E+04  0.65864270000E+03 0.  0.
    8880022    1    1    2    0    0  0.69974235125E+03  0.38641692335E+02  0.14053124557E+04  0.15777919031E+04  0.15294330000E+03 0.  0.
<mgrwt>
<rscale>  0 0.89375564E+03</rscale>
<asrwt>0</asrwt>
<pdfrwt beam="1">  1        1 0.26110665E+00 0.96173944E+03</pdfrwt>
<pdfrwt beam="2">  1       -1 0.18626193E+00 0.96173944E+03</pdfrwt>
<totfact> 0.91199567E-01</totfact>
</mgrwt>
</event>
<event>
 4    5  0.7767175E-008  0.1491284E+04  0.7818608E-02  0.8915815E-01
          1   -1    0    0  501    0  0.00000000000E+00  0.00000000000E+00  0.12731960852E+04  0.12731960852E+04  0.50400000000E-02 0. -1.
         -1   -1    0    0    0  501 -0.00000000000E+00 -0.00000000000E+00 -0.25427671466E+04  0.25427671466E+04  0.50400000000E-02 0.  1.
    8880023    1    1    2    0    0  0.12395160353E+04 -0.50370328802E+03 -0.18271111703E+04  0.23584449196E+04  0.65864270000E+03 0.  0.
    8880022    1    1    2    0    0 -0.12395160353E+04  0.50370328802E+03  0.55754010890E+03  0.14575183121E+04  0.15294330000E+03 0.  0.
<mgrwt>
<rscale>  0 0.14537347E+04</rscale>
<asrwt>0</asrwt>
<pdfrwt beam="1">  1        1 0.19587632E+00 0.14912837E+04</pdfrwt>
<pdfrwt beam="2">  1       -1 0.39119494E+00 0.14912837E+04</pdfrwt>
<totfact> 0.73797808E-02</totfact>
</mgrwt>
</event>
<event>
 4    5  0.7767175E-008  0.9486912E+03  0.7818608E-02  0.9452000E-01
         -1   -1    0    0    0  501 -0.00000000000E+00  0.00000000000E+00  0.81620121110E+03  0.81620121111E+03  0.50400000000E-02 0.  1.
          1   -1    0    0  501    0  0.00000000000E+00 -0.00000000000E+00 -0.30869178537E+04  0.30869178537E+04  0.50400000000E-02 0. -1.
    8880023    1    1    2    0    0 -0.45693217386E+03  0.50736358673E+03  0.48112112033E+03  0.10637163905E+04  0.65864270000E+03 0.  1.
    8880022    1    1    2    0    0  0.45693217386E+03 -0.50736358673E+03 -0.27518377629E+04  0.28394026744E+04  0.15294330000E+03 0.  0.
<mgrwt>
<rscale>  0 0.87917118E+03</rscale>
<asrwt>0</asrwt>
<pdfrwt beam="1">  1        1 0.47491043E+00 0.94869122E+03</pdfrwt>
<pdfrwt beam="2">  1       -1 0.12556942E+00 0.94869122E+03</pdfrwt>
<totfact> 0.29690936E-01</totfact>
</mgrwt>
</event>
<event>
 4    5  0.7767175E-008  0.7257520E+03  0.7818608E-02  0.9903583E-01
          1   -1    0    0  501    0  0.00000000000E+00  0.00000000000E+00  0.19656348063E+04  0.19656348063E+04  0.50400000000E-02 0. -1.
         -1   -1    0    0    0  501 -0.00000000000E+00 -0.00000000000E+00 -0.80852349136E+03  0.80852349138E+03  0.50400000000E-02 0.  1.
    8880023    1    1    2    0    0  0.30256989014E+03  0.36841380032E+02 -0.62618157988E+03  0.95855067834E+03  0.65864270000E+03 0.  1.
    8880022    1    1    2    0    0 -0.30256989014E+03 -0.36841380032E+02  0.17832928948E+04  0.18156076194E+04  0.15294330000E+03 0.  0.
<mgrwt>
<rscale>  0 0.60087964E+03</rscale>
<asrwt>0</asrwt>
<pdfrwt beam="1">  1        1 0.30240535E+00 0.72575205E+03</pdfrwt>
<pdfrwt beam="2">  1       -1 0.12438823E+00 0.72575205E+03</pdfrwt>
<totfact> 0.18872184E+00</totfact>
</mgrwt>
</event>
<event>
 4    5  0.7767175E-008  0.1347107E+04  0.7818608E-02  0.9025911E-01
          1   -1    0    0  501    0  0.00000000000E+00  0.00000000000E+00  0.32136239857E+04  0.32136239857E+04  0.50400000000E-02 0. -1.
         -1   -1    0    0    0  501 -0.00000000000E+00 -0.00000000000E+00 -0.84383747097E+03  0.84383747099E+03  0.50400000000E-02 0.  1.
    8880023    1    1    2    0    0 -0.14745619908E+03  0.11658234585E+04  0.25254374660E+04  0.28622599930E+04  0.65864270000E+03 0. -1.
    8880022    1    1    2    0    0  0.14745619908E+03 -0.11658234585E+04 -0.15565095129E+03  0.11952014636E+04  0.15294330000E+03 0.  0.
<mgrwt>
<rscale>  0 0.13046178E+04</rscale>
<asrwt>0</asrwt>
<pdfrwt beam="1">  1        1 0.49440369E+00 0.13471072E+04</pdfrwt>
<pdfrwt beam="2">  1       -1 0.12982115E+00 0.13471072E+04</pdfrwt>
<totfact> 0.20611903E-01</totfact>
</mgrwt>
</event>
<event>
 4    5  0.7767175E-008  0.7321966E+03  0.7818608E-02  0.9883290E-01
         -1   -1    0    0    0  501 -0.00000000000E+00  0.00000000000E+00  0.23307826209E+03  0.23307826214E+03  0.50400000000E-02 0.  1.
          1   -1    0    0  501    0  0.00000000000E+00 -0.00000000000E+00 -0.24042964294E+04  0.24042964294E+04  0.50400000000E-02 0. -1.
    8880023    1    1    2    0    0 -0.26746737387E+03 -0.17539338481E+03 -0.40664732406E+03  0.83754037989E+03  0.65864270000E+03 0.  1.
    8880022    1    1    2    0    0  0.26746737387E+03  0.17539338481E+03 -0.17645708433E+04  0.17998343117E+04  0.15294330000E+03 0.  0.
<mgrwt>
<rscale>  0 0.61077997E+03</rscale>
<asrwt>0</asrwt>
<pdfrwt beam="1">  1        1 0.36989174E+00 0.73219659E+03</pdfrwt>
<pdfrwt beam="2">  1       -1 0.35858196E-01 0.73219659E+03</pdfrwt>
<totfact> 0.12346838E+01</totfact>
</mgrwt>
</event>
<event>
 4    5  0.1116176E-007  0.1312981E+04  0.7818608E-02  0.9054430E-01
          1   -1    0    0  501    0  0.00000000000E+00  0.00000000000E+00  0.18756777966E+04  0.18756777966E+04  0.50400000000E-02 0. -1.
         -1   -1    0    0    0  501 -0.00000000000E+00 -0.00000000000E+00 -0.17097832770E+04  0.17097832770E+04  0.50400000000E-02 0.  1.
    8880023    1    1    2    0    0 -0.10709761027E+04  0.37831249175E+03 -0.12163986414E+04  0.17898452489E+04  0.65864270000E+03 0.  1.
    8880022    1    1    2    0    0  0.10709761027E+04 -0.37831249175E+03  0.13822931610E+04  0.17956158247E+04  0.15294330000E+03 0.  0.
<mgrwt>
<rscale>  0 0.12691057E+04</rscale>
<asrwt>0</asrwt>
<pdfrwt beam="1">  1        1 0.28856582E+00 0.13129815E+04</pdfrwt>
<pdfrwt beam="2">  1       -1 0.26304358E+00 0.13129815E+04</pdfrwt>
<totfact> 0.20058227E-01</totfact>
</mgrwt>
</event>
<event>
 4    5  0.7767175E-008  0.1351249E+04  0.7818608E-02  0.9022520E-01
          1   -1    0    0  501    0  0.00000000000E+00  0.00000000000E+00  0.13847013072E+04  0.13847013072E+04  0.50400000000E-02 0. -1.
         -1   -1    0    0    0  501 -0.00000000000E+00 -0.00000000000E+00 -0.14633314526E+04  0.14633314526E+04  0.50400000000E-02 0.  1.
    8880023    1    1    2    0    0  0.11630907944E+04  0.19820162946E+03  0.59988125256E+03  0.14784220661E+04  0.65864270000E+03 0.  0.
    8880022    1    1    2    0    0 -0.11630907944E+04 -0.19820162946E+03 -0.67851139801E+03  0.13696106937E+04  0.15294330000E+03 0.  0.
<mgrwt>
<rscale>  0 0.13089215E+04</rscale>
<asrwt>0</asrwt>
<pdfrwt beam="1">  1        1 0.21303097E+00 0.13512492E+04</pdfrwt>
<pdfrwt beam="2">  1       -1 0.22512792E+00 0.13512492E+04</pdfrwt>
<totfact> 0.77101891E-01</totfact>
</mgrwt>
</event>
<event>
 4    5  0.7767175E-008  0.1202032E+04  0.7818608E-02  0.9155149E-01
          1   -1    0    0  501    0  0.00000000000E+00  0.00000000000E+00  0.27895436460E+04  0.27895436460E+04  0.50400000000E-02 0. -1.
         -1   -1    0    0    0  501 -0.00000000000E+00 -0.00000000000E+00 -0.73591008970E+03  0.73591008971E+03  0.50400000000E-02 0.  1.
    8880023    1    1    2    0    0 -0.38112803488E+03  0.93049091234E+03 -0.34783270979E+02  0.12025356540E+04  0.65864270000E+03 0.  0.
    8880022    1    1    2    0    0  0.38112803488E+03 -0.93049091234E+03  0.20884168273E+04  0.23229180817E+04  0.15294330000E+03 0.  0.
<mgrwt>
<rscale>  0 0.11528600E+04</rscale>
<asrwt>0</asrwt>
<pdfrwt beam="1">  1        1 0.42916056E+00 0.12020325E+04</pdfrwt>
<pdfrwt beam="2">  1       -1 0.11321694E+00 0.12020325E+04</pdfrwt>
<totfact> 0.59935628E-01</totfact>
</mgrwt>
</event>
<event>
 4    5  0.7767175E-008  0.8343797E+03  0.7818608E-02  0.9640870E-01
         -1   -1    0    0    0  501 -0.00000000000E+00  0.00000000000E+00  0.27836067222E+03  0.27836067227E+03  0.50400000000E-02 0.  1.
          1   -1    0    0  501    0  0.00000000000E+00 -0.00000000000E+00 -0.27037602666E+04  0.27037602666E+04  0.50400000000E-02 0. -1.
    8880023    1    1    2    0    0  0.13642334708E+03  0.49372861921E+03 -0.47568906365E+03  0.96045279457E+03  0.65864270000E+03 0.  0.
    8880022    1    1    2    0    0 -0.13642334708E+03 -0.49372861921E+03 -0.19497105307E+04  0.20216681443E+04  0.15294330000E+03 0.  0.
<mgrwt>
<rscale>  0 0.74649182E+03</rscale>
<asrwt>0</asrwt>
<pdfrwt beam="1">  1        1 0.41596310E+00 0.83437970E+03</pdfrwt>
<pdfrwt beam="2">  1       -1 0.42824721E-01 0.83437970E+03</pdfrwt>
<totfact> 0.54819628E+00</totfact>
</mgrwt>
</event>
<event>
 4    5  0.7767175E-008  0.7434132E+03  0.7818608E-02  0.9850114E-01
          1   -1    0    0  501    0  0.00000000000E+00  0.00000000000E+00  0.86633910985E+03  0.86633910987E+03  0.50400000000E-02 0. -1.
         -1   -1    0    0    0  501 -0.00000000000E+00 -0.00000000000E+00 -0.48969097710E+03  0.48969097712E+03  0.50400000000E-02 0.  1.
    8880023    1    1    2    0    0 -0.27910530205E+03  0.20236892191E+03 -0.97932471492E+02  0.74983593234E+03  0.65864270000E+03 0.  1.
    8880022    1    1    2    0    0  0.27910530205E+03 -0.20236892191E+03  0.47458060425E+03  0.60619415465E+03  0.15294330000E+03 0.  1.
<mgrwt>
<rscale>  0 0.62741106E+03</rscale>
<asrwt>0</asrwt>
<pdfrwt beam="1">  1        1 0.13328294E+00 0.74341318E+03</pdfrwt>
<pdfrwt beam="2">  1       -1 0.75337074E-01 0.74341318E+03</pdfrwt>
<totfact> 0.35256958E+01</totfact>
</mgrwt>
</event>
<event>
 4    5  0.7767175E-008  0.9517287E+03  0.7818608E-02  0.9447631E-01
          1   -1    0    0  501    0  0.00000000000E+00  0.00000000000E+00  0.16091005673E+04  0.16091005673E+04  0.50400000000E-02 0. -1.
         -1   -1    0    0    0  501 -0.00000000000E+00 -0.00000000000E+00 -0.90614890069E+03  0.90614890071E+03  0.50400000000E-02 0.  1.
    8880023    1    1    2    0    0  0.45888526402E+03  0.51127449454E+03 -0.53456961537E+03  0.10915824175E+04  0.65864270000E+03 0.  0.
    8880022    1    1    2    0    0 -0.45888526402E+03 -0.51127449454E+03  0.12375212820E+04  0.14236670505E+04  0.15294330000E+03 0.  0.
<mgrwt>
<rscale>  0 0.88257367E+03</rscale>
<asrwt>0</asrwt>
<pdfrwt beam="1">  1        1 0.24755393E+00 0.95172869E+03</pdfrwt>
<pdfrwt beam="2">  1       -1 0.13940752E+00 0.95172869E+03</pdfrwt>
<totfact> 0.23623429E+00</totfact>
</mgrwt>
</event>
<event>
 4    5  0.7767175E-008  0.7227677E+03  0.7818608E-02  0.9913330E-01
         -1   -1    0    0    0  501 -0.00000000000E+00  0.00000000000E+00  0.52256032126E+03  0.52256032129E+03  0.50400000000E-02 0.  1.
          1   -1    0    0  501    0  0.00000000000E+00 -0.00000000000E+00 -0.64686855678E+03  0.64686855680E+03  0.50400000000E-02 0. -1.
    8880023    1    1    2    0    0  0.27026014242E+03 -0.12466914237E+03  0.14828871056E+03  0.73782293783E+03  0.65864270000E+03 0.  0.
    8880022    1    1    2    0    0 -0.27026014242E+03  0.12466914237E+03 -0.27259694607E+03  0.43160594026E+03  0.15294330000E+03 0.  0.
<mgrwt>
<rscale>  0 0.59619590E+03</rscale>
<asrwt>0</asrwt>
<pdfrwt beam="1">  1        1 0.99518239E-01 0.72276770E+03</pdfrwt>
<pdfrwt beam="2">  1       -1 0.80393896E-01 0.72276770E+03</pdfrwt>
<totfact> 0.48523620E+01</totfact>
</mgrwt>
</event>
<event>
 4    5  0.7767175E-008  0.6885483E+03  0.7818608E-02  0.1004850E+00
          1   -1    0    0  501    0  0.00000000000E+00  0.00000000000E+00  0.22791191173E+04  0.22791191173E+04  0.50400000000E-02 0. -1.
         -1   -1    0    0    0  501 -0.00000000000E+00 -0.00000000000E+00 -0.50926928929E+03  0.50926928932E+03  0.50400000000E-02 0.  1.
    8880023    1    1    2    0    0 -0.75055141547E+02  0.18615928041E+03 -0.26512420580E+03  0.73782762399E+03  0.65864270000E+03 0.  1.
    8880022    1    1    2    0    0  0.75055141547E+02 -0.18615928041E+03  0.20349740338E+04  0.20505607826E+04  0.15294330000E+03 0.  0.
<mgrwt>
<rscale>  0 0.53573666E+03</rscale>
<asrwt>0</asrwt>
<pdfrwt beam="1">  1        1 0.35063371E+00 0.68854830E+03</pdfrwt>
<pdfrwt beam="2">  1       -1 0.78349121E-01 0.68854830E+03</pdfrwt>
<totfact> 0.33559869E+00</totfact>
</mgrwt>
</event>
<event>
 4    5  0.7767175E-008  0.1436744E+04  0.7818608E-02  0.8955645E-01
          1   -1    0    0  501    0  0.00000000000E+00  0.00000000000E+00  0.17896373017E+04  0.17896373017E+04  0.50400000000E-02 0. -1.
         -1   -1    0    0    0  501 -0.00000000000E+00 -0.00000000000E+00 -0.18256755601E+04  0.18256755601E+04  0.50400000000E-02 0.  1.
    8880023    1    1    2    0    0 -0.12480855575E+04  0.26964189182E+03 -0.12067071503E+04  0.18762666819E+04  0.65864270000E+03 0.  0.
    8880022    1    1    2    0    0  0.12480855575E+04 -0.26964189182E+03  0.11706688919E+04  0.17390461800E+04  0.15294330000E+03 0.  0.
<mgrwt>
<rscale>  0 0.13974798E+04</rscale>
<asrwt>0</asrwt>
<pdfrwt beam="1">  1        1 0.27532881E+00 0.14367444E+04</pdfrwt>
<pdfrwt beam="2">  1       -1 0.28087317E+00 0.14367444E+04</pdfrwt>
<totfact> 0.17306055E-01</totfact>
</mgrwt>
</event>
<event>
 4    5  0.7767175E-008  0.7212374E+03  0.7818608E-02  0.9918421E-01
         -1   -1    0    0    0  501 -0.00000000000E+00  0.00000000000E+00  0.37624383697E+03  0.37624383700E+03  0.50400000000E-02 0.  1.
          1   -1    0    0  501    0  0.00000000000E+00 -0.00000000000E+00 -0.86404286039E+03  0.86404286040E+03  0.50400000000E-02 0. -1.
    8880023    1    1    2    0    0 -0.22618573279E+03  0.18765197610E+03 -0.96652184268E+02  0.72768475375E+03  0.65864270000E+03 0.  0.
    8880022    1    1    2    0    0  0.22618573279E+03 -0.18765197610E+03 -0.39114683915E+03  0.51260194366E+03  0.15294330000E+03 0.  0.
<mgrwt>
<rscale>  0 0.59376779E+03</rscale>
<asrwt>0</asrwt>
<pdfrwt beam="1">  1        1 0.13292967E+00 0.72123745E+03</pdfrwt>
<pdfrwt beam="2">  1       -1 0.57883667E-01 0.72123745E+03</pdfrwt>
<totfact> 0.60389848E+01</totfact>
</mgrwt>
</event>
<event>
 4    5  0.7767175E-008  0.1021555E+04  0.7818608E-02  0.9353885E-01
         -1   -1    0    0    0  501 -0.00000000000E+00  0.00000000000E+00  0.14016192866E+04  0.14016192867E+04  0.50400000000E-02 0.  1.
          1   -1    0    0  501    0  0.00000000000E+00 -0.00000000000E+00 -0.97490020794E+03  0.97490020795E+03  0.50400000000E-02 0. -1.
    8880023    1    1    2    0    0  0.21592251023E+03  0.75042778585E+03  0.97344186795E+03  0.14110859891E+04  0.65864270000E+03 0.  1.
    8880022    1    1    2    0    0 -0.21592251023E+03 -0.75042778585E+03 -0.54672278924E+03  0.96543350547E+03  0.15294330000E+03 0.  0.
<mgrwt>
<rscale>  0 0.95969925E+03</rscale>
<asrwt>0</asrwt>
<pdfrwt beam="1">  1        1 0.14998465E+00 0.10215550E+04</pdfrwt>
<pdfrwt beam="2">  1       -1 0.21563374E+00 0.10215550E+04</pdfrwt>
<totfact> 0.18689791E+00</totfact>
</mgrwt>
</event>
<event>
 4    5  0.7767175E-008  0.8316164E+03  0.7818608E-02  0.9646196E-01
          1   -1    0    0  501    0  0.00000000000E+00  0.00000000000E+00  0.17234219871E+04  0.17234219871E+04  0.50400000000E-02 0. -1.
         -1   -1    0    0    0  501 -0.00000000000E+00 -0.00000000000E+00 -0.50753558680E+03  0.50753558683E+03  0.50400000000E-02 0.  1.
    8880023    1    1    2    0    0  0.45041828993E+03  0.23430530576E+03 -0.75411588668E+02  0.83502857806E+03  0.65864270000E+03 0.  1.
    8880022    1    1    2    0    0 -0.45041828993E+03 -0.23430530576E+03  0.12912979890E+04  0.13959289959E+04  0.15294330000E+03 0.  0.
<mgrwt>
<rscale>  0 0.74312672E+03</rscale>
<asrwt>0</asrwt>
<pdfrwt beam="1">  1        1 0.26514185E+00 0.83161639E+03</pdfrwt>
<pdfrwt beam="2">  1       -1 0.78082397E-01 0.83161639E+03</pdfrwt>
<totfact> 0.77731367E+00</totfact>
</mgrwt>
</event>
<event>
 4    5  0.7767175E-008  0.7547311E+03  0.7818608E-02  0.9818944E-01
          1   -1    0    0  501    0  0.00000000000E+00  0.00000000000E+00  0.14712594818E+04  0.14712594818E+04  0.50400000000E-02 0. -1.
         -1   -1    0    0    0  501 -0.00000000000E+00 -0.00000000000E+00 -0.36799605560E+03  0.36799605564E+03  0.50400000000E-02 0.  1.
    8880023    1    1    2    0    0  0.27569819115E+03 -0.24453888471E+03  0.12101275125E+04  0.14261933815E+04  0.65864270000E+03 0. -1.
    8880022    1    1    2    0    0 -0.27569819115E+03  0.24453888471E+03 -0.10686408626E+03  0.41306215596E+03  0.15294330000E+03 0.  0.
<mgrwt>
<rscale>  0 0.64355725E+03</rscale>
<asrwt>0</asrwt>
<pdfrwt beam="1">  1        1 0.22634762E+00 0.75473105E+03</pdfrwt>
<pdfrwt beam="2">  1       -1 0.56614777E-01 0.75473105E+03</pdfrwt>
<totfact> 0.22341989E+01</totfact>
</mgrwt>
</event>
<event>
 4    5  0.7767175E-008  0.8614919E+03  0.7818608E-02  0.9590915E-01
         -1   -1    0    0    0  501 -0.00000000000E+00  0.00000000000E+00  0.90457991392E+03  0.90457991394E+03  0.50400000000E-02 0.  1.
          1   -1    0    0  501    0  0.00000000000E+00 -0.00000000000E+00 -0.13799180405E+04  0.13799180405E+04  0.50400000000E-02 0. -1.
    8880023    1    1    2    0    0 -0.29172974039E+03  0.47249533814E+03  0.61014158225E+03  0.10556708969E+04  0.65864270000E+03 0.  0.
    8880022    1    1    2    0    0  0.29172974039E+03 -0.47249533814E+03 -0.10854797088E+04  0.12288270575E+04  0.15294330000E+03 0.  0.
<mgrwt>
<rscale>  0 0.77900406E+03</rscale>
<asrwt>0</asrwt>
<pdfrwt beam="1">  1        1 0.21229508E+00 0.86149190E+03</pdfrwt>
<pdfrwt beam="2">  1       -1 0.13916614E+00 0.86149190E+03</pdfrwt>
<totfact> 0.34596195E+00</totfact>
</mgrwt>
</event>
<event>
 4    5  0.7767175E-008  0.6999095E+03  0.7818608E-02  0.9997577E-01
          1   -1    0    0  501    0  0.00000000000E+00  0.00000000000E+00  0.81528238370E+03  0.81528238371E+03  0.50400000000E-02 0. -1.
         -1   -1    0    0    0  501 -0.00000000000E+00 -0.00000000000E+00 -0.54634109987E+03  0.54634109990E+03  0.50400000000E-02 0.  1.
    8880023    1    1    2    0    0 -0.23624379552E+03  0.15875293769E+02 -0.27259371097E+03  0.75111962656E+03  0.65864270000E+03 0.  1.
    8880022    1    1    2    0    0  0.23624379552E+03 -0.15875293769E+02  0.54153499480E+03  0.61050385705E+03  0.15294330000E+03 0.  0.
<mgrwt>
<rscale>  0 0.55756622E+03</rscale>
<asrwt>0</asrwt>
<pdfrwt beam="1">  1        1 0.12542806E+00 0.69990954E+03</pdfrwt>
<pdfrwt beam="2">  1       -1 0.84052477E-01 0.69990954E+03</pdfrwt>
<totfact> 0.31016220E+01</totfact>
</mgrwt>
</event>
<event>
 4    5  0.7767175E-008  0.6803775E+03  0.7818608E-02  0.1009111E+00
         -1   -1    0    0    0  501 -0.00000000000E+00  0.00000000000E+00  0.37673098100E+03  0.37673098103E+03  0.50400000000E-02 0.  1.
          1   -1    0    0  501    0  0.00000000000E+00 -0.00000000000E+00 -0.12739193646E+04  0.12739193646E+04  0.50400000000E-02 0. -1.
    8880023    1    1    2    0    0  0.77453137820E+02 -0.15200129486E+03  0.44170696253E+02  0.68180982603E+03  0.65864270000E+03 0.  1.
    8880022    1    1    2    0    0 -0.77453137820E+02  0.15200129486E+03 -0.94135907981E+03  0.96884051956E+03  0.15294330000E+03 0.  0.
<mgrwt>
<rscale>  0 0.51829528E+03</rscale>
<asrwt>0</asrwt>
<pdfrwt beam="1">  1        1 0.19598759E+00 0.68037753E+03</pdfrwt>
<pdfrwt beam="2">  1       -1 0.57958613E-01 0.68037753E+03</pdfrwt>
<totfact> 0.29581327E+01</totfact>
</mgrwt>
</event>
<event>
 4    5  0.7767175E-008  0.9801988E+03  0.7818608E-02  0.9407935E-01
         -1   -1    0    0    0  501 -0.00000000000E+00  0.00000000000E+00  0.80427547004E+03  0.80427547006E+03  0.50400000000E-02 0.  1.
          1   -1    0    0  501    0  0.00000000000E+00 -0.00000000000E+00 -0.12163764082E+04  0.12163764082E+04  0.50400000000E-02 0. -1.
    8880023    1    1    2    0    0  0.10238271456E+03 -0.71867748723E+03  0.26591280738E+03  0.10156275785E+04  0.65864270000E+03 0.  0.
    8880022    1    1    2    0    0 -0.10238271456E+03  0.71867748723E+03 -0.67801374553E+03  0.10050242997E+04  0.15294330000E+03 0.  0.
<mgrwt>
<rscale>  0 0.91425554E+03</rscale>
<asrwt>0</asrwt>
<pdfrwt beam="1">  1        1 0.18713483E+00 0.98019884E+03</pdfrwt>
<pdfrwt beam="2">  1       -1 0.12373469E+00 0.98019884E+03</pdfrwt>
<totfact> 0.60006378E+00</totfact>
</mgrwt>
</event>
<event>
 4    5  0.7767175E-008  0.1023804E+04  0.7818608E-02  0.9351057E-01
          1   -1    0    0  501    0  0.00000000000E+00  0.00000000000E+00  0.92289255936E+03  0.92289255938E+03  0.50400000000E-02 0. -1.
         -1   -1    0    0    0  501 -0.00000000000E+00 -0.00000000000E+00 -0.51249163381E+04  0.51249163381E+04  0.50400000000E-02 0.  1.
    8880023    1    1    2    0    0 -0.78266857488E+03 -0.42358373610E+02 -0.48885967950E+04  0.49946524564E+04  0.65864270000E+03 0.  1.
    8880022    1    1    2    0    0  0.78266857488E+03  0.42358373610E+02  0.68657301620E+03  0.10531564411E+04  0.15294330000E+03 0.  0.
<mgrwt>
<rscale>  0 0.96215362E+03</rscale>
<asrwt>0</asrwt>
<pdfrwt beam="1">  1        1 0.14198347E+00 0.10238040E+04</pdfrwt>
<pdfrwt beam="2">  1       -1 0.78844865E+00 0.10238040E+04</pdfrwt>
<totfact> 0.15142375E-03</totfact>
</mgrwt>
</event>
<event>
 4    5  0.7767175E-008  0.1611230E+04  0.7818608E-02  0.8834840E-01
          1   -1    0    0  501    0  0.00000000000E+00  0.00000000000E+00  0.17509715355E+04  0.17509715355E+04  0.50400000000E-02 0. -1.
         -1   -1    0    0    0  501 -0.00000000000E+00 -0.00000000000E+00 -0.18949776125E+04  0.18949776125E+04  0.50400000000E-02 0.  1.
    8880023    1    1    2    0    0  0.14701794820E+04 -0.28709213014E+02  0.89108152232E+03  0.18412192737E+04  0.65864270000E+03 0.  0.
    8880022    1    1    2    0    0 -0.14701794820E+04  0.28709213014E+02 -0.10350875993E+04  0.18047298744E+04  0.15294330000E+03 0.  0.
<mgrwt>
<rscale>  0 0.15769415E+04</rscale>
<asrwt>0</asrwt>
<pdfrwt beam="1">  1        1 0.26938024E+00 0.16112300E+04</pdfrwt>
<pdfrwt beam="2">  1       -1 0.29153502E+00 0.16112300E+04</pdfrwt>
<totfact> 0.15361181E-01</totfact>
</mgrwt>
</event>
<event>
 4    5  0.7767175E-008  0.1197807E+04  0.7818608E-02  0.9159257E-01
         -1   -1    0    0    0  501 -0.00000000000E+00  0.00000000000E+00  0.14783229882E+04  0.14783229882E+04  0.50400000000E-02 0.  1.
          1   -1    0    0  501    0  0.00000000000E+00 -0.00000000000E+00 -0.97409269896E+03  0.97409269897E+03  0.50400000000E-02 0. -1.
    8880023    1    1    2    0    0 -0.43922216314E+03  0.89889621052E+03  0.74696115604E+03  0.14116273165E+04  0.65864270000E+03 0.  0.
    8880022    1    1    2    0    0  0.43922216314E+03 -0.89889621052E+03 -0.24273086676E+03  0.10407883707E+04  0.15294330000E+03 0.  0.
<mgrwt>
<rscale>  0 0.11484038E+04</rscale>
<asrwt>0</asrwt>
<pdfrwt beam="1">  1        1 0.14986041E+00 0.11978066E+04</pdfrwt>
<pdfrwt beam="2">  1       -1 0.22743431E+00 0.11978066E+04</pdfrwt>
<totfact> 0.15285814E+00</totfact>
</mgrwt>
</event>
<event>
 4    5  0.7767175E-008  0.1754599E+04  0.7818608E-02  0.8748075E-01
          1   -1    0    0  501    0  0.00000000000E+00  0.00000000000E+00  0.26981729650E+04  0.26981729650E+04  0.50400000000E-02 0. -1.
         -1   -1    0    0    0  501 -0.00000000000E+00 -0.00000000000E+00 -0.11421937743E+04  0.11421937743E+04  0.50400000000E-02 0.  1.
    8880023    1    1    2    0    0  0.94632633221E+03 -0.13226010224E+04  0.30045287638E+03  0.17801373904E+04  0.65864270000E+03 0.  0.
    8880022    1    1    2    0    0 -0.94632633221E+03  0.13226010224E+04  0.12555263143E+04  0.20602293490E+04  0.15294330000E+03 0.  0.
<mgrwt>
<rscale>  0 0.17234975E+04</rscale>
<asrwt>0</asrwt>
<pdfrwt beam="1">  1        1 0.41510353E+00 0.17545989E+04</pdfrwt>
<pdfrwt beam="2">  1       -1 0.17572212E+00 0.17545989E+04</pdfrwt>
<totfact> 0.20263323E-01</totfact>
</mgrwt>
</event>
<event>
 4    5  0.7767175E-008  0.6951525E+03  0.7818608E-02  0.1001794E+00
         -1   -1    0    0    0  501 -0.00000000000E+00  0.00000000000E+00  0.13968916695E+04  0.13968916695E+04  0.50400000000E-02 0.  1.
          1   -1    0    0  501    0  0.00000000000E+00 -0.00000000000E+00 -0.89521385889E+03  0.89521385890E+03  0.50400000000E-02 0. -1.
    8880023    1    1    2    0    0  0.47125157707E+02  0.21726946679E+03  0.12864386227E+04  0.14622453071E+04  0.65864270000E+03 0.  1.
    8880022    1    1    2    0    0 -0.47125157707E+02 -0.21726946679E+03 -0.78476081213E+03  0.82986022134E+03  0.15294330000E+03 0.  0.
<mgrwt>
<rscale>  0 0.54870669E+03</rscale>
<asrwt>0</asrwt>
<pdfrwt beam="1">  1        1 0.13772521E+00 0.69515251E+03</pdfrwt>
<pdfrwt beam="2">  1       -1 0.21490641E+00 0.69515251E+03</pdfrwt>
<totfact> 0.23036807E+00</totfact>
</mgrwt>
</event>
<event>
 4    5  0.7767175E-008  0.1231945E+04  0.7818608E-02  0.9126678E-01
          1   -1    0    0  501    0  0.00000000000E+00  0.00000000000E+00  0.13151884332E+04  0.13151884332E+04  0.50400000000E-02 0. -1.
         -1   -1    0    0    0  501 -0.00000000000E+00 -0.00000000000E+00 -0.21978161952E+04  0.21978161952E+04  0.50400000000E-02 0.  1.
    8880023    1    1    2    0    0 -0.10309087115E+04 -0.14527450550E+03 -0.17563165078E+04  0.21453054177E+04  0.65864270000E+03 0.  0.
    8880022    1    1    2    0    0  0.10309087115E+04  0.14527450550E+03  0.87368874581E+03  0.13676992107E+04  0.15294330000E+03 0.  0.
<mgrwt>
<rscale>  0 0.11843363E+04</rscale>
<asrwt>0</asrwt>
<pdfrwt beam="1">  1        1 0.20233668E+00 0.12319447E+04</pdfrwt>
<pdfrwt beam="2">  1       -1 0.33812557E+00 0.12319447E+04</pdfrwt>
<totfact> 0.16132978E-01</totfact>
</mgrwt>
</event>
<event>
 4    5  0.7767175E-008  0.9947003E+03  0.7818608E-02  0.9388524E-01
         -1   -1    0    0    0  501 -0.00000000000E+00  0.00000000000E+00  0.76918285562E+03  0.76918285564E+03  0.50400000000E-02 0.  1.
          1   -1    0    0  501    0  0.00000000000E+00 -0.00000000000E+00 -0.30776156131E+04  0.30776156131E+04  0.50400000000E-02 0. -1.
    8880023    1    1    2    0    0  0.71392215566E+03  0.21432117904E+03  0.37083074815E+03  0.10615762159E+04  0.65864270000E+03 0.  1.
    8880022    1    1    2    0    0 -0.71392215566E+03 -0.21432117904E+03 -0.26792635056E+04  0.27852222528E+04  0.15294330000E+03 0.  0.
<mgrwt>
<rscale>  0 0.93026127E+03</rscale>
<asrwt>0</asrwt>
<pdfrwt beam="1">  1        1 0.47347932E+00 0.99470027E+03</pdfrwt>
<pdfrwt beam="2">  1       -1 0.11833583E+00 0.99470027E+03</pdfrwt>
<totfact> 0.34606943E-01</totfact>
</mgrwt>
</event>
<event>
 4    5  0.7767175E-008  0.7666794E+03  0.7818608E-02  0.9788112E-01
          1   -1    0    0  501    0  0.00000000000E+00  0.00000000000E+00  0.22056068151E+04  0.22056068151E+04  0.50400000000E-02 0. -1.
         -1   -1    0    0    0  501 -0.00000000000E+00 -0.00000000000E+00 -0.38483543646E+03  0.38483543649E+03  0.50400000000E-02 0.  1.
    8880023    1    1    2    0    0  0.38824618425E+03  0.57026776333E+02  0.19930338756E+04  0.21354112926E+04  0.65864270000E+03 0. -1.
    8880022    1    1    2    0    0 -0.38824618425E+03 -0.57026776333E+02 -0.17226249697E+03  0.45503095903E+03  0.15294330000E+03 0.  0.
<mgrwt>
<rscale>  0 0.66004429E+03</rscale>
<asrwt>0</asrwt>
<pdfrwt beam="1">  1        1 0.33932412E+00 0.76667944E+03</pdfrwt>
<pdfrwt beam="2">  1       -1 0.59205453E-01 0.76667944E+03</pdfrwt>
<totfact> 0.65501295E+00</totfact>
</mgrwt>
</event>
<event>
 4    5  0.7767175E-008  0.1144387E+04  0.7818608E-02  0.9213175E-01
          1   -1    0    0  501    0  0.00000000000E+00  0.00000000000E+00  0.15728033720E+04  0.15728033720E+04  0.50400000000E-02 0. -1.
         -1   -1    0    0    0  501 -0.00000000000E+00 -0.00000000000E+00 -0.87575704557E+03  0.87575704559E+03  0.50400000000E-02 0.  1.
    8880023    1    1    2    0    0 -0.39745985977E+03 -0.84725204133E+03 -0.17812044495E+03  0.11581655585E+04  0.65864270000E+03 0.  0.
    8880022    1    1    2    0    0  0.39745985977E+03  0.84725204133E+03  0.87516677135E+03  0.12903948591E+04  0.15294330000E+03 0.  0.
<mgrwt>
<rscale>  0 0.10918468E+04</rscale>
<asrwt>0</asrwt>
<pdfrwt beam="1">  1        1 0.24196975E+00 0.11443865E+04</pdfrwt>
<pdfrwt beam="2">  1       -1 0.13473186E+00 0.11443865E+04</pdfrwt>
<totfact> 0.26654147E+00</totfact>
</mgrwt>
</event>
<event>
 4    5  0.7767175E-008  0.1486444E+04  0.7818608E-02  0.8919268E-01
         -1   -1    0    0    0  501 -0.00000000000E+00  0.00000000000E+00  0.19903197453E+04  0.19903197453E+04  0.50400000000E-02 0.  1.
          1   -1    0    0  501    0  0.00000000000E+00 -0.00000000000E+00 -0.21085576470E+04  0.21085576470E+04  0.50400000000E-02 0. -1.
    8880023    1    1    2    0    0  0.25683830024E+03  0.13075704889E+04  0.14215736393E+04  0.20567907804E+04  0.65864270000E+03 0.  0.
    8880022    1    1    2    0    0 -0.25683830024E+03 -0.13075704889E+04 -0.15398115411E+04  0.20420866120E+04  0.15294330000E+03 0.  0.
<mgrwt>
<rscale>  0 0.14487496E+04</rscale>
<asrwt>0</asrwt>
<pdfrwt beam="1">  1        1 0.32439348E+00 0.14864443E+04</pdfrwt>
<pdfrwt beam="2">  1       -1 0.30620304E+00 0.14864443E+04</pdfrwt>
<totfact> 0.71523782E-02</totfact>
</mgrwt>
</event>
<event>
 4    5  0.7767175E-008  0.9037638E+03  0.7818608E-02  0.9520016E-01
          1   -1    0    0  501    0  0.00000000000E+00  0.00000000000E+00  0.15356578619E+04  0.15356578619E+04  0.50400000000E-02 0. -1.
         -1   -1    0    0    0  501 -0.00000000000E+00 -0.00000000000E+00 -0.64742128079E+03  0.64742128081E+03  0.50400000000E-02 0.  1.
    8880023    1    1    2    0    0 -0.55806419188E+03  0.26747554295E+03 -0.19651610544E+03  0.92488247593E+03  0.65864270000E+03 0.  0.
    8880022    1    1    2    0    0  0.55806419188E+03 -0.26747554295E+03  0.10847526866E+04  0.12581966668E+04  0.15294330000E+03 0.  0.
<mgrwt>
<rscale>  0 0.82824052E+03</rscale>
<asrwt>0</asrwt>
<pdfrwt beam="1">  1        1 0.23625505E+00 0.90376380E+03</pdfrwt>
<pdfrwt beam="2">  1       -1 0.99603275E-01 0.90376380E+03</pdfrwt>
<totfact> 0.60523017E+00</totfact>
</mgrwt>
</event>
<event>
 4    5  0.7767175E-008  0.1655147E+04  0.7818608E-02  0.8807202E-01
          1   -1    0    0  501    0  0.00000000000E+00  0.00000000000E+00  0.32205039911E+04  0.32205039911E+04  0.50400000000E-02 0. -1.
         -1   -1    0    0    0  501 -0.00000000000E+00 -0.00000000000E+00 -0.10768012271E+04  0.10768012271E+04  0.50400000000E-02 0.  1.
    8880023    1    1    2    0    0 -0.13998365429E+04 -0.58835343792E+03 -0.13061659872E+02  0.16551987579E+04  0.65864270000E+03 0.  0.
    8880022    1    1    2    0    0  0.13998365429E+04  0.58835343792E+03  0.21567644238E+04  0.26421064604E+04  0.15294330000E+03 0.  0.
<mgrwt>
<rscale>  0 0.16219066E+04</rscale>
<asrwt>0</asrwt>
<pdfrwt beam="1">  1        1 0.49546215E+00 0.16551472E+04</pdfrwt>
<pdfrwt beam="2">  1       -1 0.16566173E+00 0.16551472E+04</pdfrwt>
<totfact> 0.10149027E-01</totfact>
</mgrwt>
</event>
<event>
 4    5  0.7767175E-008  0.7036824E+03  0.7818608E-02  0.9982255E-01
         -1   -1    0    0    0  501 -0.00000000000E+00  0.00000000000E+00  0.98675155709E+03  0.98675155711E+03  0.50400000000E-02 0.  1.
          1   -1    0    0  501    0  0.00000000000E+00 -0.00000000000E+00 -0.99646515087E+03  0.99646515088E+03  0.50400000000E-02 0. -1.
    8880023    1    1    2    0    0  0.24584772353E+03  0.30292701466E+02  0.83369994961E+03  0.10909741350E+04  0.65864270000E+03 0.  1.
    8880022    1    1    2    0    0 -0.24584772353E+03 -0.30292701466E+02 -0.84341354339E+03  0.89224257302E+03  0.15294330000E+03 0.  0.
<mgrwt>
<rscale>  0 0.56435224E+03</rscale>
<asrwt>0</asrwt>
<pdfrwt beam="1">  1        1 0.15330233E+00 0.70368243E+03</pdfrwt>
<pdfrwt beam="2">  1       -1 0.15180793E+00 0.70368243E+03</pdfrwt>
<totfact> 0.53687716E+00</totfact>
</mgrwt>
</event>
<event>
 4    5  0.7767175E-008  0.7232317E+03  0.7818608E-02  0.9911799E-01
          1   -1    0    0  501    0  0.00000000000E+00  0.00000000000E+00  0.17956409588E+04  0.17956409588E+04  0.50400000000E-02 0. -1.
         -1   -1    0    0    0  501 -0.00000000000E+00 -0.00000000000E+00 -0.47052165191E+03  0.47052165193E+03  0.50400000000E-02 0.  1.
    8880023    1    1    2    0    0 -0.22704170845E+03 -0.19418018196E+03 -0.16240753863E+03  0.74124239984E+03  0.65864270000E+03 0.  0.
    8880022    1    1    2    0    0  0.22704170845E+03  0.19418018196E+03  0.14875268456E+04  0.15249202109E+04  0.15294330000E+03 0.  0.
<mgrwt>
<rscale>  0 0.59692853E+03</rscale>
<asrwt>0</asrwt>
<pdfrwt beam="1">  1        1 0.27625246E+00 0.72323170E+03</pdfrwt>
<pdfrwt beam="2">  1       -1 0.72387945E-01 0.72323170E+03</pdfrwt>
<totfact> 0.82782054E+00</totfact>
</mgrwt>
</event>
<event>
 4    5  0.7767175E-008  0.8380481E+03  0.7818608E-02  0.9633872E-01
         -1   -1    0    0    0  501 -0.00000000000E+00  0.00000000000E+00  0.74568402627E+03  0.74568402628E+03  0.50400000000E-02 0.  1.
          1   -1    0    0  501    0  0.00000000000E+00 -0.00000000000E+00 -0.10092676083E+04  0.10092676083E+04  0.50400000000E-02 0. -1.
    8880023    1    1    2    0    0  0.44490685058E+03 -0.26565460098E+03  0.37529940116E+03  0.91824523929E+03  0.65864270000E+03 0.  1.
    8880022    1    1    2    0    0 -0.44490685058E+03  0.26565460098E+03 -0.63888298316E+03  0.83670639528E+03  0.15294330000E+03 0.  0.
<mgrwt>
<rscale>  0 0.75094326E+03</rscale>
<asrwt>0</asrwt>
<pdfrwt beam="1">  1        1 0.15527194E+00 0.83804814E+03</pdfrwt>
<pdfrwt beam="2">  1       -1 0.11472062E+00 0.83804814E+03</pdfrwt>
<totfact> 0.10486990E+01</totfact>
</mgrwt>
</event>
<event>
 4    5  0.7767175E-008  0.6807285E+03  0.7818608E-02  0.1008915E+00
          1   -1    0    0  501    0  0.00000000000E+00  0.00000000000E+00  0.88209266985E+03  0.88209266986E+03  0.50400000000E-02 0. -1.
         -1   -1    0    0    0  501 -0.00000000000E+00 -0.00000000000E+00 -0.54005176867E+03  0.54005176870E+03  0.50400000000E-02 0.  1.
    8880023    1    1    2    0    0 -0.57976167073E+02 -0.16192533924E+03 -0.29716552194E+03  0.74276416522E+03  0.65864270000E+03 0.  1.
    8880022    1    1    2    0    0  0.57976167073E+02  0.16192533924E+03  0.63920642312E+03  0.67938027334E+03  0.15294330000E+03 0.  0.
<mgrwt>
<rscale>  0 0.51908318E+03</rscale>
<asrwt>0</asrwt>
<pdfrwt beam="1">  1        1 0.13570656E+00 0.68072848E+03</pdfrwt>
<pdfrwt beam="2">  1       -1 0.83084887E-01 0.68072848E+03</pdfrwt>
<totfact> 0.28018607E+01</totfact>
</mgrwt>
</event>
<event>
 4    5  0.7767175E-008  0.1026970E+04  0.7818608E-02  0.9347093E-01
         -1   -1    0    0    0  501 -0.00000000000E+00  0.00000000000E+00  0.33070517600E+04  0.33070517600E+04  0.50400000000E-02 0.  1.
          1   -1    0    0  501    0  0.00000000000E+00 -0.00000000000E+00 -0.89016519855E+03  0.89016519856E+03  0.50400000000E-02 0. -1.
    8880023    1    1    2    0    0 -0.72687954954E+03 -0.30414251940E+03 -0.52106427810E+03  0.11515966046E+04  0.65864270000E+03 0. -1.
    8880022    1    1    2    0    0  0.72687954954E+03  0.30414251940E+03  0.29379508396E+04  0.30456203539E+04  0.15294330000E+03 0.  0.
<mgrwt>
<rscale>  0 0.96560582E+03</rscale>
<asrwt>0</asrwt>
<pdfrwt beam="1">  1        1 0.13694849E+00 0.10269697E+04</pdfrwt>
<pdfrwt beam="2">  1       -1 0.50877719E+00 0.10269697E+04</pdfrwt>
<totfact> 0.24549822E-02</totfact>
</mgrwt>
</event>
<event>
 4    5  0.7767175E-008  0.8188291E+03  0.7818608E-02  0.9671472E-01
         -1   -1    0    0    0  501 -0.00000000000E+00  0.00000000000E+00  0.45957257287E+03  0.45957257290E+03  0.50400000000E-02 0.  1.
          1   -1    0    0  501    0  0.00000000000E+00 -0.00000000000E+00 -0.14507554098E+04  0.14507554098E+04  0.50400000000E-02 0. -1.
    8880023    1    1    2    0    0 -0.29638855082E+03  0.38577798714E+03 -0.26629803040E+02  0.81926197342E+03  0.65864270000E+03 0.  1.
    8880022    1    1    2    0    0  0.29638855082E+03 -0.38577798714E+03 -0.96455303387E+03  0.10910660093E+04  0.15294330000E+03 0.  0.
<mgrwt>
<rscale>  0 0.72741064E+03</rscale>
<asrwt>0</asrwt>
<pdfrwt beam="1">  1        1 0.22319314E+00 0.81882906E+03</pdfrwt>
<pdfrwt beam="2">  1       -1 0.70703474E-01 0.81882906E+03</pdfrwt>
<totfact> 0.14684449E+01</totfact>
</mgrwt>
</event>
<event>
 4    5  0.7767175E-008  0.6848140E+03  0.7818608E-02  0.1006722E+00
         -1   -1    0    0    0  501 -0.00000000000E+00  0.00000000000E+00  0.35495545964E+03  0.35495545968E+03  0.50400000000E-02 0.  1.
          1   -1    0    0  501    0  0.00000000000E+00 -0.00000000000E+00 -0.12029661496E+04  0.12029661496E+04  0.50400000000E-02 0. -1.
    8880023    1    1    2    0    0  0.13064736143E+03  0.13450368666E+03 -0.91673353203E+01  0.68487533251E+03  0.65864270000E+03 0.  1.
    8880022    1    1    2    0    0 -0.13064736143E+03 -0.13450368666E+03 -0.83884335459E+03  0.87304627674E+03  0.15294330000E+03 0.  0.
<mgrwt>
<rscale>  0 0.52798530E+03</rscale>
<asrwt>0</asrwt>
<pdfrwt beam="1">  1        1 0.18507171E+00 0.68481398E+03</pdfrwt>
<pdfrwt beam="2">  1       -1 0.54608533E-01 0.68481398E+03</pdfrwt>
<totfact> 0.37293047E+01</totfact>
</mgrwt>
</event>
<event>
 4    5  0.7767175E-008  0.6982954E+03  0.7818608E-02  0.1000435E+00
         -1   -1    0    0    0  501 -0.00000000000E+00  0.00000000000E+00  0.17295601643E+03  0.17295601650E+03  0.50400000000E-02 0.  1.
          1   -1    0    0  501    0  0.00000000000E+00 -0.00000000000E+00 -0.30528152594E+04  0.30528152594E+04  0.50400000000E-02 0. -1.
    8880023    1    1    2    0    0  0.16426776501E+03 -0.16377547753E+03 -0.57595669616E+03  0.90517546795E+03  0.65864270000E+03 0.  1.
    8880022    1    1    2    0    0 -0.16426776501E+03  0.16377547753E+03 -0.23039025468E+04  0.23205958080E+04  0.15294330000E+03 0.  0.
<mgrwt>
<rscale>  0 0.55460034E+03</rscale>
<asrwt>0</asrwt>
<pdfrwt beam="1">  1        1 0.46966385E+00 0.69829543E+03</pdfrwt>
<pdfrwt beam="2">  1       -1 0.26608620E-01 0.69829543E+03</pdfrwt>
<totfact> 0.73969640E+00</totfact>
</mgrwt>
</event>
<event>
 4    5  0.7767175E-008  0.8030364E+03  0.7818608E-02  0.9704269E-01
         -1   -1    0    0    0  501 -0.00000000000E+00  0.00000000000E+00  0.11023187780E+04  0.11023187780E+04  0.50400000000E-02 0.  1.
          1   -1    0    0  501    0  0.00000000000E+00 -0.00000000000E+00 -0.13271151821E+04  0.13271151821E+04  0.50400000000E-02 0. -1.
    8880023    1    1    2    0    0  0.25840490654E+03  0.37984758910E+03  0.89919916224E+03  0.12055814474E+04  0.65864270000E+03 0.  1.
    8880022    1    1    2    0    0 -0.25840490654E+03 -0.37984758910E+03 -0.11239955663E+04  0.12238525127E+04  0.15294330000E+03 0.  0.
<mgrwt>
<rscale>  0 0.70763200E+03</rscale>
<asrwt>0</asrwt>
<pdfrwt beam="1">  1        1 0.20417157E+00 0.80303642E+03</pdfrwt>
<pdfrwt beam="2">  1       -1 0.16958750E+00 0.80303642E+03</pdfrwt>
<totfact> 0.22188066E+00</totfact>
</mgrwt>
</event>
<event>
 4    5  0.7767175E-008  0.1430666E+04  0.7818608E-02  0.8960213E-01
         -1   -1    0    0    0  501 -0.00000000000E+00  0.00000000000E+00  0.15204438902E+04  0.15204438902E+04  0.50400000000E-02 0.  1.
          1   -1    0    0  501    0  0.00000000000E+00 -0.00000000000E+00 -0.13914874052E+04  0.13914874052E+04  0.50400000000E-02 0. -1.
    8880023    1    1    2    0    0  0.92874231551E+03 -0.86627575976E+03  0.59638312074E+03  0.15499932302E+04  0.65864270000E+03 0.  0.
    8880022    1    1    2    0    0 -0.92874231551E+03  0.86627575976E+03 -0.46742663575E+03  0.13619380652E+04  0.15294330000E+03 0.  0.
<mgrwt>
<rscale>  0 0.13911999E+04</rscale>
<asrwt>0</asrwt>
<pdfrwt beam="1">  1        1 0.21407499E+00 0.14306663E+04</pdfrwt>
<pdfrwt beam="2">  1       -1 0.23391444E+00 0.14306663E+04</pdfrwt>
<totfact> 0.66084997E-01</totfact>
</mgrwt>
</event>
<event>
 4    5  0.7767175E-008  0.1407026E+04  0.7818608E-02  0.8978243E-01
         -1   -1    0    0    0  501 -0.00000000000E+00  0.00000000000E+00  0.15856505682E+04  0.15856505682E+04  0.50400000000E-02 0.  1.
          1   -1    0    0  501    0  0.00000000000E+00 -0.00000000000E+00 -0.14179215180E+04  0.14179215180E+04  0.50400000000E-02 0. -1.
    8880023    1    1    2    0    0  0.12307816994E+04 -0.17631551001E+03  0.78050897784E+03  0.16090106343E+04  0.65864270000E+03 0.  0.
    8880022    1    1    2    0    0 -0.12307816994E+04  0.17631551001E+03 -0.61277992765E+03  0.13945614520E+04  0.15294330000E+03 0.  0.
<mgrwt>
<rscale>  0 0.13667523E+04</rscale>
<asrwt>0</asrwt>
<pdfrwt beam="1">  1        1 0.21814177E+00 0.14070256E+04</pdfrwt>
<pdfrwt beam="2">  1       -1 0.24394624E+00 0.14070256E+04</pdfrwt>
<totfact> 0.54511573E-01</totfact>
</mgrwt>
</event>
<event>
 4    5  0.7767175E-008  0.7156015E+03  0.7818608E-02  0.9937760E-01
          1   -1    0    0  501    0  0.00000000000E+00  0.00000000000E+00  0.50829293093E+03  0.50829293096E+03  0.50400000000E-02 0. -1.
         -1   -1    0    0    0  501 -0.00000000000E+00 -0.00000000000E+00 -0.84763102875E+03  0.84763102877E+03  0.50400000000E-02 0.  1.
    8880023    1    1    2    0    0  0.25432367595E+03 -0.11659688767E+03 -0.60796905354E+03  0.93899517714E+03  0.65864270000E+03 0.  1.
    8880022    1    1    2    0    0 -0.25432367595E+03  0.11659688767E+03  0.26863095572E+03  0.41692878259E+03  0.15294330000E+03 0.  0.
<mgrwt>
<rscale>  0 0.58465674E+03</rscale>
<asrwt>0</asrwt>
<pdfrwt beam="1">  1        1 0.78198912E-01 0.71560155E+03</pdfrwt>
<pdfrwt beam="2">  1       -1 0.13040477E+00 0.71560155E+03</pdfrwt>
<totfact> 0.22435580E+01</totfact>
</mgrwt>
</event>
<event>
 4    5  0.7767175E-008  0.1381922E+04  0.7818608E-02  0.8997859E-01
          1   -1    0    0  501    0  0.00000000000E+00  0.00000000000E+00  0.15366647283E+04  0.15366647283E+04  0.50400000000E-02 0. -1.
         -1   -1    0    0    0  501 -0.00000000000E+00 -0.00000000000E+00 -0.17270262670E+04  0.17270262670E+04  0.50400000000E-02 0.  1.
    8880023    1    1    2    0    0  0.11529967369E+04  0.38274719974E+03 -0.10769117145E+04  0.17519834306E+04  0.65864270000E+03 0.  0.
    8880022    1    1    2    0    0 -0.11529967369E+04 -0.38274719974E+03  0.88655017573E+03  0.15117075647E+04  0.15294330000E+03 0.  0.
<mgrwt>
<rscale>  0 0.13407512E+04</rscale>
<asrwt>0</asrwt>
<pdfrwt beam="1">  1        1 0.23640996E+00 0.13819215E+04</pdfrwt>
<pdfrwt beam="2">  1       -1 0.26569635E+00 0.13819215E+04</pdfrwt>
<totfact> 0.32589738E-01</totfact>
</mgrwt>
</event>
<event>
 4    5  0.7767175E-008  0.7101953E+03  0.7818608E-02  0.9957276E-01
         -1   -1    0    0    0  501 -0.00000000000E+00  0.00000000000E+00  0.62322356427E+03  0.62322356429E+03  0.50400000000E-02 0.  1.
          1   -1    0    0  501    0  0.00000000000E+00 -0.00000000000E+00 -0.18338900633E+04  0.18338900633E+04  0.50400000000E-02 0. -1.
    8880023    1    1    2    0    0 -0.41020731076E+02 -0.26245851510E+03  0.40165912842E+03  0.81590896198E+03  0.65864270000E+03 0.  1.
    8880022    1    1    2    0    0  0.41020731076E+02  0.26245851510E+03 -0.16123256274E+04  0.16412046656E+04  0.15294330000E+03 0.  0.
<mgrwt>
<rscale>  0 0.57563945E+03</rscale>
<asrwt>0</asrwt>
<pdfrwt beam="1">  1        1 0.28213693E+00 0.71019531E+03</pdfrwt>
<pdfrwt beam="2">  1       -1 0.95880549E-01 0.71019531E+03</pdfrwt>
<totfact> 0.42765075E+00</totfact>
</mgrwt>
</event>
<event>
 4    5  0.7767175E-008  0.1350572E+04  0.7818608E-02  0.9023073E-01
         -1   -1    0    0    0  501 -0.00000000000E+00  0.00000000000E+00  0.85845189459E+03  0.85845189460E+03  0.50400000000E-02 0.  1.
          1   -1    0    0  501    0  0.00000000000E+00 -0.00000000000E+00 -0.22772982916E+04  0.22772982916E+04  0.50400000000E-02 0. -1.
    8880023    1    1    2    0    0 -0.57582570608E+03 -0.10289123426E+04 -0.91359449193E+02  0.13536589702E+04  0.65864270000E+03 0.  0.
    8880022    1    1    2    0    0  0.57582570608E+03  0.10289123426E+04 -0.13274869478E+04  0.17820912160E+04  0.15294330000E+03 0.  0.
<mgrwt>
<rscale>  0 0.13082185E+04</rscale>
<asrwt>0</asrwt>
<pdfrwt beam="1">  1        1 0.35035358E+00 0.13505725E+04</pdfrwt>
<pdfrwt beam="2">  1       -1 0.13206952E+00 0.13505725E+04</pdfrwt>
<totfact> 0.90943731E-01</totfact>
</mgrwt>
</event>
<event>
 4    5  0.7767175E-008  0.6755701E+03  0.7818608E-02  0.1011949E+00
          1   -1    0    0  501    0  0.00000000000E+00  0.00000000000E+00  0.79120214325E+03  0.79120214327E+03  0.50400000000E-02 0. -1.
         -1   -1    0    0    0  501 -0.00000000000E+00 -0.00000000000E+00 -0.62406683179E+03  0.62406683181E+03  0.50400000000E-02 0.  1.
    8880023    1    1    2    0    0 -0.12937754222E+03  0.76460326498E+02 -0.41639771309E+03  0.79358804911E+03  0.65864270000E+03 0.  1.
    8880022    1    1    2    0    0  0.12937754222E+03 -0.76460326498E+02  0.58353302455E+03  0.62168092597E+03  0.15294330000E+03 0.  0.
<mgrwt>
<rscale>  0 0.50707203E+03</rscale>
<asrwt>0</asrwt>
<pdfrwt beam="1">  1        1 0.12172341E+00 0.67557008E+03</pdfrwt>
<pdfrwt beam="2">  1       -1 0.96010282E-01 0.67557008E+03</pdfrwt>
<totfact> 0.24365364E+01</totfact>
</mgrwt>
</event>
<event>
 4    5  0.7767175E-008  0.8520256E+03  0.7818608E-02  0.9607909E-01
         -1   -1    0    0    0  501 -0.00000000000E+00  0.00000000000E+00  0.42915148076E+03  0.42915148079E+03  0.50400000000E-02 0.  1.
          1   -1    0    0  501    0  0.00000000000E+00 -0.00000000000E+00 -0.35757660366E+04  0.35757660366E+04  0.50400000000E-02 0. -1.
    8880023    1    1    2    0    0  0.29661703034E+02  0.53968289334E+03 -0.45392134441E+02  0.85323390352E+03  0.65864270000E+03 0.  0.
    8880022    1    1    2    0    0 -0.29661703034E+02 -0.53968289334E+03 -0.31012224214E+04  0.31516836138E+04  0.15294330000E+03 0. -1.
<mgrwt>
<rscale>  0 0.76774927E+03</rscale>
<asrwt>0</asrwt>
<pdfrwt beam="1">  1        1 0.55011783E+00 0.85202561E+03</pdfrwt>
<pdfrwt beam="2">  1       -1 0.66023307E-01 0.85202561E+03</pdfrwt>
<totfact> 0.54231732E-01</totfact>
</mgrwt>
</event>
<event>
 4    5  0.7767175E-008  0.7820078E+03  0.7818608E-02  0.9751142E-01
         -1   -1    0    0    0  501 -0.00000000000E+00  0.00000000000E+00  0.13096888170E+04  0.13096888170E+04  0.50400000000E-02 0.  1.
          1   -1    0    0  501    0  0.00000000000E+00 -0.00000000000E+00 -0.36094556441E+03  0.36094556445E+03  0.50400000000E-02 0. -1.
    8880023    1    1    2    0    0 -0.66473700604E+02  0.41630179922E+03  0.93910467899E+03  0.12220694519E+04  0.65864270000E+03 0.  0.
    8880022    1    1    2    0    0  0.66473700604E+02 -0.41630179922E+03  0.96385735910E+01  0.44856492955E+03  0.15294330000E+03 0.  0.
<mgrwt>
<rscale>  0 0.68051791E+03</rscale>
<asrwt>0</asrwt>
<pdfrwt beam="1">  1        1 0.55530087E-01 0.78200777E+03</pdfrwt>
<pdfrwt beam="2">  1       -1 0.20149059E+00 0.78200777E+03</pdfrwt>
<totfact> 0.10383489E+01</totfact>
</mgrwt>
</event>
<event>
 4    5  0.7767175E-008  0.8673003E+03  0.7818608E-02  0.9580707E-01
          1   -1    0    0  501    0  0.00000000000E+00  0.00000000000E+00  0.39057764737E+03  0.39057764740E+03  0.50400000000E-02 0. -1.
         -1   -1    0    0    0  501 -0.00000000000E+00 -0.00000000000E+00 -0.16908652026E+04  0.16908652026E+04  0.50400000000E-02 0.  1.
    8880023    1    1    2    0    0  0.37213464606E+03  0.42416435210E+03 -0.12117458672E+04  0.14901469208E+04  0.65864270000E+03 0.  0.
    8880022    1    1    2    0    0 -0.37213464606E+03 -0.42416435210E+03 -0.88541687953E+02  0.59129592922E+03  0.15294330000E+03 0.  0.
<mgrwt>
<rscale>  0 0.78586371E+03</rscale>
<asrwt>0</asrwt>
<pdfrwt beam="1">  1        1 0.60088870E-01 0.86730029E+03</pdfrwt>
<pdfrwt beam="2">  1       -1 0.26013310E+00 0.86730029E+03</pdfrwt>
<totfact> 0.38040992E+00</totfact>
</mgrwt>
</event>
<event>
 4    5  0.7767175E-008  0.9803058E+03  0.7818608E-02  0.9407790E-01
         -1   -1    0    0    0  501 -0.00000000000E+00  0.00000000000E+00  0.79146725631E+03  0.79146725632E+03  0.50400000000E-02 0.  1.
          1   -1    0    0  501    0  0.00000000000E+00 -0.00000000000E+00 -0.22593280462E+04  0.22593280462E+04  0.50400000000E-02 0. -1.
    8880023    1    1    2    0    0 -0.71072779270E+03 -0.14850992848E+03  0.38630074267E+03  0.10536734144E+04  0.65864270000E+03 0.  0.
    8880022    1    1    2    0    0  0.71072779270E+03  0.14850992848E+03 -0.18541615326E+04  0.19971218881E+04  0.15294330000E+03 0.  0.
<mgrwt>
<rscale>  0 0.91437387E+03</rscale>
<asrwt>0</asrwt>
<pdfrwt beam="1">  1        1 0.34758893E+00 0.98030577E+03</pdfrwt>
<pdfrwt beam="2">  1       -1 0.12176419E+00 0.98030577E+03</pdfrwt>
<totfact> 0.12062524E+00</totfact>
</mgrwt>
</event>
<event>
 4    5  0.7767175E-008  0.1162071E+04  0.7818608E-02  0.9194903E-01
          1   -1    0    0  501    0  0.00000000000E+00  0.00000000000E+00  0.28739184625E+04  0.28739184625E+04  0.50400000000E-02 0. -1.
         -1   -1    0    0    0  501 -0.00000000000E+00 -0.00000000000E+00 -0.82038519557E+03  0.82038519559E+03  0.50400000000E-02 0.  1.
    8880023    1    1    2    0    0 -0.92853352666E+03  0.23329243188E+03 -0.25563573710E+03  0.11898570104E+04  0.65864270000E+03 0.  0.
    8880022    1    1    2    0    0  0.92853352666E+03 -0.23329243188E+03  0.23091690041E+04  0.25044466477E+04  0.15294330000E+03 0.  0.
<mgrwt>
<rscale>  0 0.11106190E+04</rscale>
<asrwt>0</asrwt>
<pdfrwt beam="1">  1        1 0.44214132E+00 0.11620715E+04</pdfrwt>
<pdfrwt beam="2">  1       -1 0.12621310E+00 0.11620715E+04</pdfrwt>
<totfact> 0.40226694E-01</totfact>
</mgrwt>
</event>
<event>
 4    5  0.7767175E-008  0.1061805E+04  0.7818608E-02  0.9304822E-01
         -1   -1    0    0    0  501 -0.00000000000E+00  0.00000000000E+00  0.41753962804E+03  0.41753962807E+03  0.50400000000E-02 0.  1.
          1   -1    0    0  501    0  0.00000000000E+00 -0.00000000000E+00 -0.25059242824E+04  0.25059242824E+04  0.50400000000E-02 0. -1.
    8880023    1    1    2    0    0 -0.75725987748E+03 -0.34666722911E+03 -0.62316744706E+03  0.12311655303E+04  0.65864270000E+03 0. -1.
    8880022    1    1    2    0    0  0.75725987748E+03  0.34666722911E+03 -0.14652172073E+04  0.16922983801E+04  0.15294330000E+03 0.  0.
<mgrwt>
<rscale>  0 0.10034011E+04</rscale>
<asrwt>0</asrwt>
<pdfrwt beam="1">  1        1 0.38552680E+00 0.10618055E+04</pdfrwt>
<pdfrwt beam="2">  1       -1 0.64236867E-01 0.10618055E+04</pdfrwt>
<totfact> 0.33323053E+00</totfact>
</mgrwt>
</event>
<event>
 4    5  0.7767175E-008  0.9980405E+03  0.7818608E-02  0.9384126E-01
         -1   -1    0    0    0  501 -0.00000000000E+00  0.00000000000E+00  0.78283005673E+03  0.78283005674E+03  0.50400000000E-02 0.  1.
          1   -1    0    0  501    0  0.00000000000E+00 -0.00000000000E+00 -0.16889493928E+04  0.16889493928E+04  0.50400000000E-02 0. -1.
    8880023    1    1    2    0    0 -0.39225561210E+03 -0.63906977141E+03  0.30106217912E+03  0.10424602054E+04  0.65864270000E+03 0.  0.
    8880022    1    1    2    0    0  0.39225561210E+03  0.63906977141E+03 -0.12071815152E+04  0.14293192441E+04  0.15294330000E+03 0.  0.
<mgrwt>
<rscale>  0 0.93393662E+03</rscale>
<asrwt>0</asrwt>
<pdfrwt beam="1">  1        1 0.25983837E+00 0.99804050E+03</pdfrwt>
<pdfrwt beam="2">  1       -1 0.12043539E+00 0.99804050E+03</pdfrwt>
<totfact> 0.29980966E+00</totfact>
</mgrwt>
</event>
<event>
 4    5  0.7767175E-008  0.1417136E+04  0.7818608E-02  0.8970481E-01
          1   -1    0    0  501    0  0.00000000000E+00  0.00000000000E+00  0.31299164693E+04  0.31299164693E+04  0.50400000000E-02 0. -1.
         -1   -1    0    0    0  501 -0.00000000000E+00 -0.00000000000E+00 -0.11363074863E+04  0.11363074863E+04  0.50400000000E-02 0.  1.
    8880023    1    1    2    0    0 -0.12543688288E+04  0.31996079876E+02 -0.47348855869E+03  0.14941440791E+04  0.65864270000E+03 0.  0.
    8880022    1    1    2    0    0  0.12543688288E+04 -0.31996079876E+02  0.24670975417E+04  0.27720798764E+04  0.15294330000E+03 0.  0.
<mgrwt>
<rscale>  0 0.13772124E+04</rscale>
<asrwt>0</asrwt>
<pdfrwt beam="1">  1        1 0.48152561E+00 0.14171362E+04</pdfrwt>
<pdfrwt beam="2">  1       -1 0.17481654E+00 0.14171362E+04</pdfrwt>
<totfact> 0.10458144E-01</totfact>
</mgrwt>
</event>
<event>
 4    5  0.7767175E-008  0.6587824E+03  0.7818608E-02  0.1025440E+00
          1   -1    0    0  501    0  0.00000000000E+00  0.00000000000E+00  0.13703072635E+04  0.13703072635E+04  0.50400000000E-02 0. -1.
         -1   -1    0    0    0  501 -0.00000000000E+00 -0.00000000000E+00 -0.19494923000E+03  0.19494923006E+03  0.50400000000E-02 0.  1.
    8880023    1    1    2    0    0 -0.12598613079E+01  0.13507488485E+02  0.39114173426E+03  0.76615018243E+03  0.65864270000E+03 0.  1.
    8880022    1    1    2    0    0  0.12598613079E+01 -0.13507488485E+02  0.78421629928E+03  0.79910631118E+03  0.15294330000E+03 0.  0.
<mgrwt>
<rscale>  0 0.45773545E+03</rscale>
<asrwt>0</asrwt>
<pdfrwt beam="1">  1        1 0.21081651E+00 0.65878240E+03</pdfrwt>
<pdfrwt beam="2">  1       -1 0.29992189E-01 0.65878240E+03</pdfrwt>
<totfact> 0.84932011E+01</totfact>
</mgrwt>
</event>
<event>
 4    5  0.7767175E-008  0.1097938E+04  0.7818608E-02  0.9263355E-01
          1   -1    0    0  501    0  0.00000000000E+00  0.00000000000E+00  0.13676225489E+04  0.13676225489E+04  0.50400000000E-02 0. -1.
         -1   -1    0    0    0  501 -0.00000000000E+00 -0.00000000000E+00 -0.11991737431E+04  0.11991737432E+04  0.50400000000E-02 0.  1.
    8880023    1    1    2    0    0 -0.83307450417E+03  0.27864814812E+03 -0.71609451953E+03  0.13108239726E+04  0.65864270000E+03 0.  0.
    8880022    1    1    2    0    0  0.83307450417E+03 -0.27864814812E+03  0.88454332529E+03  0.12559723195E+04  0.15294330000E+03 0.  0.
<mgrwt>
<rscale>  0 0.10422759E+04</rscale>
<asrwt>0</asrwt>
<pdfrwt beam="1">  1        1 0.21040347E+00 0.10979381E+04</pdfrwt>
<pdfrwt beam="2">  1       -1 0.18448827E+00 0.10979381E+04</pdfrwt>
<totfact> 0.15529793E+00</totfact>
</mgrwt>
</event>
<event>
 4    5  0.7767175E-008  0.1862696E+04  0.7818608E-02  0.8688626E-01
         -1   -1    0    0    0  501 -0.00000000000E+00  0.00000000000E+00  0.26818731178E+04  0.26818731178E+04  0.50400000000E-02 0.  1.
          1   -1    0    0  501    0  0.00000000000E+00 -0.00000000000E+00 -0.18393342459E+04  0.18393342459E+04  0.50400000000E-02 0. -1.
    8880023    1    1    2    0    0  0.11972409531E+04  0.12658747672E+04  0.17455816502E+04  0.25527809012E+04  0.65864270000E+03 0.  0.
    8880022    1    1    2    0    0 -0.11972409531E+04 -0.12658747672E+04 -0.90304277833E+03  0.19684264625E+04  0.15294330000E+03 0.  0.
<mgrwt>
<rscale>  0 0.18336131E+04</rscale>
<asrwt>0</asrwt>
<pdfrwt beam="1">  1        1 0.28297450E+00 0.18626956E+04</pdfrwt>
<pdfrwt beam="2">  1       -1 0.41259586E+00 0.18626956E+04</pdfrwt>
<totfact> 0.20258658E-02</totfact>
</mgrwt>
</event>
<event>
 4    5  0.7767175E-008  0.6752055E+03  0.7818608E-02  0.1012177E+00
         -1   -1    0    0    0  501 -0.00000000000E+00  0.00000000000E+00  0.12677296013E+04  0.12677296013E+04  0.50400000000E-02 0.  1.
          1   -1    0    0  501    0  0.00000000000E+00 -0.00000000000E+00 -0.62526336156E+03  0.62526336158E+03  0.50400000000E-02 0. -1.
    8880023    1    1    2    0    0  0.13454250867E+03 -0.63171401959E+02  0.11549867215E+04  0.13378702649E+04  0.65864270000E+03 0.  1.
    8880022    1    1    2    0    0 -0.13454250867E+03  0.63171401959E+02 -0.51252048171E+03  0.55512269802E+03  0.15294330000E+03 0.  0.
<mgrwt>
<rscale>  0 0.50618502E+03</rscale>
<asrwt>0</asrwt>
<pdfrwt beam="1">  1        1 0.96194365E-01 0.67520554E+03</pdfrwt>
<pdfrwt beam="2">  1       -1 0.19503532E+00 0.67520554E+03</pdfrwt>
<totfact> 0.55028625E+00</totfact>
</mgrwt>
</event>
<event>
 4    5  0.7767175E-008  0.7736182E+03  0.7818608E-02  0.9771047E-01
         -1   -1    0    0    0  501 -0.00000000000E+00  0.00000000000E+00  0.46838271907E+03  0.46838271910E+03  0.50400000000E-02 0.  1.
          1   -1    0    0  501    0  0.00000000000E+00 -0.00000000000E+00 -0.16926716399E+04  0.16926716399E+04  0.50400000000E-02 0. -1.
    8880023    1    1    2    0    0  0.23707091393E+03  0.32935122853E+03  0.88337521767E+02  0.77864534544E+03  0.65864270000E+03 0.  1.
    8880022    1    1    2    0    0 -0.23707091393E+03 -0.32935122853E+03 -0.13126264426E+04  0.13824090135E+04  0.15294330000E+03 0.  0.
<mgrwt>
<rscale>  0 0.66939725E+03</rscale>
<asrwt>0</asrwt>
<pdfrwt beam="1">  1        1 0.26041102E+00 0.77361816E+03</pdfrwt>
<pdfrwt beam="2">  1       -1 0.72058881E-01 0.77361816E+03</pdfrwt>
<totfact> 0.97222272E+00</totfact>
</mgrwt>
</event>
<event>
 4    5  0.7767175E-008  0.9907085E+03  0.7818608E-02  0.9393816E-01
         -1   -1    0    0    0  501 -0.00000000000E+00  0.00000000000E+00  0.99809734681E+03  0.99809734682E+03  0.50400000000E-02 0.  1.
          1   -1    0    0  501    0  0.00000000000E+00 -0.00000000000E+00 -0.14866002111E+04  0.14866002111E+04  0.50400000000E-02 0. -1.
    8880023    1    1    2    0    0 -0.38526131760E+03 -0.63187573208E+03  0.60100908081E+03  0.11587559472E+04  0.65864270000E+03 0.  0.
    8880022    1    1    2    0    0  0.38526131760E+03  0.63187573208E+03 -0.10895119451E+04  0.13259416108E+04  0.15294330000E+03 0.  0.
<mgrwt>
<rscale>  0 0.92586361E+03</rscale>
<asrwt>0</asrwt>
<pdfrwt beam="1">  1        1 0.22870772E+00 0.99070855E+03</pdfrwt>
<pdfrwt beam="2">  1       -1 0.15355344E+00 0.99070855E+03</pdfrwt>
<totfact> 0.22030468E+00</totfact>
</mgrwt>
</event>
<event>
 4    5  0.7767175E-008  0.6785767E+03  0.7818608E-02  0.1010140E+00
          1   -1    0    0  501    0  0.00000000000E+00  0.00000000000E+00  0.19978997414E+04  0.19978997414E+04  0.50400000000E-02 0. -1.
         -1   -1    0    0    0  501 -0.00000000000E+00 -0.00000000000E+00 -0.28594648843E+03  0.28594648847E+03  0.50400000000E-02 0.  1.
    8880023    1    1    2    0    0  0.15160634649E+03  0.60594065464E+02  0.13597157783E+03  0.69206546028E+03  0.65864270000E+03 0.  1.
    8880022    1    1    2    0    0 -0.15160634649E+03 -0.60594065464E+02  0.15759816752E+04  0.15917807696E+04  0.15294330000E+03 0.  0.
<mgrwt>
<rscale>  0 0.51418844E+03</rscale>
<asrwt>0</asrwt>
<pdfrwt beam="1">  1        1 0.30736920E+00 0.67857670E+03</pdfrwt>
<pdfrwt beam="2">  1       -1 0.43991766E-01 0.67857670E+03</pdfrwt>
<totfact> 0.16101454E+01</totfact>
</mgrwt>
</event>
<event>
 4    5  0.7767175E-008  0.1431947E+04  0.7818608E-02  0.8959248E-01
         -1   -1    0    0    0  501 -0.00000000000E+00  0.00000000000E+00  0.99122567335E+03  0.99122567337E+03  0.50400000000E-02 0.  1.
          1   -1    0    0  501    0  0.00000000000E+00 -0.00000000000E+00 -0.22858451241E+04  0.22858451241E+04  0.50400000000E-02 0. -1.
    8880023    1    1    2    0    0  0.12706598431E+04 -0.45674022660E+02  0.33164421929E+02  0.14323311902E+04  0.65864270000E+03 0.  0.
    8880022    1    1    2    0    0 -0.12706598431E+04  0.45674022660E+02 -0.13277838727E+04  0.18447396073E+04  0.15294330000E+03 0.  0.
<mgrwt>
<rscale>  0 0.13925235E+04</rscale>
<asrwt>0</asrwt>
<pdfrwt beam="1">  1        1 0.35166848E+00 0.14319472E+04</pdfrwt>
<pdfrwt beam="2">  1       -1 0.15249626E+00 0.14319472E+04</pdfrwt>
<totfact> 0.60743973E-01</totfact>
</mgrwt>
</event>
<event>
 4    5  0.7767175E-008  0.7720630E+03  0.7818608E-02  0.9774823E-01
          1   -1    0    0  501    0  0.00000000000E+00  0.00000000000E+00  0.11030367486E+04  0.11030367486E+04  0.50400000000E-02 0. -1.
         -1   -1    0    0    0  501 -0.00000000000E+00 -0.00000000000E+00 -0.13000077932E+04  0.13000077933E+04  0.50400000000E-02 0.  1.
    8880023    1    1    2    0    0  0.53429833659E+02 -0.39926968089E+03 -0.11338959208E+04  0.13717875895E+04  0.65864270000E+03 0.  1.
    8880022    1    1    2    0    0 -0.53429833659E+02  0.39926968089E+03  0.93692487620E+03  0.10312569524E+04  0.15294330000E+03 0.  0.
<mgrwt>
<rscale>  0 0.66731382E+03</rscale>
<asrwt>0</asrwt>
<pdfrwt beam="1">  1        1 0.16969796E+00 0.77206297E+03</pdfrwt>
<pdfrwt beam="2">  1       -1 0.20000120E+00 0.77206297E+03</pdfrwt>
<totfact> 0.19748486E+00</totfact>
</mgrwt>
</event>
<event>
 4    5  0.7767175E-008  0.1514348E+04  0.7818608E-02  0.8899570E-01
         -1   -1    0    0    0  501 -0.00000000000E+00  0.00000000000E+00  0.17215498005E+04  0.17215498005E+04  0.50400000000E-02 0.  1.
          1   -1    0    0  501    0  0.00000000000E+00 -0.00000000000E+00 -0.37156173567E+04  0.37156173568E+04  0.50400000000E-02 0. -1.
    8880023    1    1    2    0    0 -0.56382792345E+03  0.12415864841E+04  0.12185789343E+04  0.19437550643E+04  0.65864270000E+03 0.  1.
    8880022    1    1    2    0    0  0.56382792345E+03 -0.12415864841E+04 -0.32126464905E+04  0.34934120929E+04  0.15294330000E+03 0.  0.
<mgrwt>
<rscale>  0 0.14774766E+04</rscale>
<asrwt>0</asrwt>
<pdfrwt beam="1">  1        1 0.57163344E+00 0.15143478E+04</pdfrwt>
<pdfrwt beam="2">  1       -1 0.26485382E+00 0.15143478E+04</pdfrwt>
<totfact> 0.88755949E-03</totfact>
</mgrwt>
</event>
<event>
 4    5  0.7767175E-008  0.8825212E+03  0.7818608E-02  0.9554694E-01
         -1   -1    0    0    0  501 -0.00000000000E+00  0.00000000000E+00  0.15027082762E+04  0.15027082762E+04  0.50400000000E-02 0.  1.
          1   -1    0    0  501    0  0.00000000000E+00 -0.00000000000E+00 -0.85271823309E+03  0.85271823310E+03  0.50400000000E-02 0. -1.
    8880023    1    1    2    0    0  0.56524331992E+03 -0.15979171381E+03  0.12313500913E+04  0.15149477404E+04  0.65864270000E+03 0.  0.
    8880022    1    1    2    0    0 -0.56524331992E+03  0.15979171381E+03 -0.58136004813E+03  0.84047876897E+03  0.15294330000E+03 0.  0.
<mgrwt>
<rscale>  0 0.80368802E+03</rscale>
<asrwt>0</asrwt>
<pdfrwt beam="1">  1        1 0.13118742E+00 0.88252117E+03</pdfrwt>
<pdfrwt beam="2">  1       -1 0.23118589E+00 0.88252117E+03</pdfrwt>
<totfact> 0.18889789E+00</totfact>
</mgrwt>
</event>
<event>
 4    5  0.7767175E-008  0.1121069E+04  0.7818608E-02  0.9237953E-01
          1   -1    0    0  501    0  0.00000000000E+00  0.00000000000E+00  0.29163799105E+04  0.29163799105E+04  0.50400000000E-02 0. -1.
         -1   -1    0    0    0  501 -0.00000000000E+00 -0.00000000000E+00 -0.73672043561E+03  0.73672043562E+03  0.50400000000E-02 0.  1.
    8880023    1    1    2    0    0 -0.54164688564E+03 -0.72773949223E+03 -0.16617209370E+03  0.11333179114E+04  0.65864270000E+03 0.  0.
    8880022    1    1    2    0    0  0.54164688564E+03  0.72773949223E+03  0.23458315686E+04  0.25197824348E+04  0.15294330000E+03 0.  0.
<mgrwt>
<rscale>  0 0.10670134E+04</rscale>
<asrwt>0</asrwt>
<pdfrwt beam="1">  1        1 0.44867383E+00 0.11210693E+04</pdfrwt>
<pdfrwt beam="2">  1       -1 0.11334161E+00 0.11210693E+04</pdfrwt>
<totfact> 0.49145782E-01</totfact>
</mgrwt>
</event>
<event>
 4    5  0.7767175E-008  0.1322694E+04  0.7818608E-02  0.9046206E-01
         -1   -1    0    0    0  501 -0.00000000000E+00  0.00000000000E+00  0.75251160715E+03  0.75251160717E+03  0.50400000000E-02 0.  1.
          1   -1    0    0  501    0  0.00000000000E+00 -0.00000000000E+00 -0.42728738194E+04  0.42728738194E+04  0.50400000000E-02 0. -1.
    8880023    1    1    2    0    0  0.47285571463E+03  0.10450441652E+04 -0.31484255206E+01  0.13226979825E+04  0.65864270000E+03 0.  1.
    8880022    1    1    2    0    0 -0.47285571463E+03 -0.10450441652E+04 -0.35172137868E+04  0.37026874441E+04  0.15294330000E+03 0.  0.
<mgrwt>
<rscale>  0 0.12792231E+04</rscale>
<asrwt>0</asrwt>
<pdfrwt beam="1">  1        1 0.65736519E+00 0.13226942E+04</pdfrwt>
<pdfrwt beam="2">  1       -1 0.11577102E+00 0.13226942E+04</pdfrwt>
<totfact> 0.36442905E-02</totfact>
</mgrwt>
</event>
<event>
 4    5  0.7767175E-008  0.1458676E+04  0.7818608E-02  0.8939381E-01
          1   -1    0    0  501    0  0.00000000000E+00  0.00000000000E+00  0.82607640251E+03  0.82607640252E+03  0.50400000000E-02 0. -1.
         -1   -1    0    0    0  501 -0.00000000000E+00 -0.00000000000E+00 -0.31139501170E+04  0.31139501170E+04  0.50400000000E-02 0.  1.
    8880023    1    1    2    0    0  0.12765820725E+04  0.25350394999E+03 -0.21828361959E+04  0.26253590431E+04  0.65864270000E+03 0.  1.
    8880022    1    1    2    0    0 -0.12765820725E+04 -0.25350394999E+03 -0.10503751858E+03  0.13146674765E+04  0.15294330000E+03 0.  0.
<mgrwt>
<rscale>  0 0.14201215E+04</rscale>
<asrwt>0</asrwt>
<pdfrwt beam="1">  1        1 0.12708868E+00 0.14586762E+04</pdfrwt>
<pdfrwt beam="2">  1       -1 0.47906924E+00 0.14586762E+04</pdfrwt>
<totfact> 0.41105662E-02</totfact>
</mgrwt>
</event>
<event>
 4    5  0.1030047E-007  0.7316603E+03  0.7818608E-02  0.9884942E-01
         -1   -1    0    0    0  501 -0.00000000000E+00  0.00000000000E+00  0.11082758961E+04  0.11082758961E+04  0.50400000000E-02 0.  1.
          1   -1    0    0  501    0  0.00000000000E+00 -0.00000000000E+00 -0.25011417300E+04  0.25011417300E+04  0.50400000000E-02 0. -1.
    8880023    1    1    2    0    0  0.49263871800E+02  0.31478519833E+03  0.97294534864E+03  0.12173534852E+04  0.65864270000E+03 0.  0.
    8880022    1    1    2    0    0 -0.49263871800E+02 -0.31478519833E+03 -0.23658111825E+04  0.23920641409E+04  0.15294330000E+03 0. -1.
<mgrwt>
<rscale>  0 0.60996659E+03</rscale>
<asrwt>0</asrwt>
<pdfrwt beam="1">  1        1 0.38479103E+00 0.73166034E+03</pdfrwt>
<pdfrwt beam="2">  1       -1 0.17050398E+00 0.73166034E+03</pdfrwt>
<totfact> 0.35599593E-01</totfact>
</mgrwt>
</event>
<event>
 4    5  0.7767175E-008  0.9154307E+03  0.7818608E-02  0.9501701E-01
          1   -1    0    0  501    0  0.00000000000E+00  0.00000000000E+00  0.28210572748E+04  0.28210572748E+04  0.50400000000E-02 0. -1.
         -1   -1    0    0    0  501 -0.00000000000E+00 -0.00000000000E+00 -0.31641771749E+03  0.31641771753E+03  0.50400000000E-02 0.  1.
    8880023    1    1    2    0    0  0.51413315494E+01  0.63574898323E+03  0.53090930326E+03  0.10582429294E+04  0.65864270000E+03 0.  1.
    8880022    1    1    2    0    0 -0.51413315494E+01 -0.63574898323E+03  0.19737302540E+04  0.20792320629E+04  0.15294330000E+03 0.  0.
<mgrwt>
<rscale>  0 0.84158536E+03</rscale>
<asrwt>0</asrwt>
<pdfrwt beam="1">  1        1 0.43400879E+00 0.91543072E+03</pdfrwt>
<pdfrwt beam="2">  1       -1 0.48679651E-01 0.91543072E+03</pdfrwt>
<totfact> 0.35258458E+00</totfact>
</mgrwt>
</event>
<event>
 4    5  0.7767175E-008  0.8072452E+03  0.7818608E-02  0.9695344E-01
         -1   -1    0    0    0  501 -0.00000000000E+00  0.00000000000E+00  0.46624453288E+03  0.46624453291E+03  0.50400000000E-02 0.  1.
          1   -1    0    0  501    0  0.00000000000E+00 -0.00000000000E+00 -0.19031612301E+04  0.19031612301E+04  0.50400000000E-02 0. -1.
    8880023    1    1    2    0    0  0.39897910696E+03 -0.24217836261E+03 -0.16477920842E+04  0.18349015358E+04  0.65864270000E+03 0. -1.
    8880022    1    1    2    0    0 -0.39897910696E+03  0.24217836261E+03  0.21087538694E+03  0.53450422724E+03  0.15294330000E+03 0.  0.
<mgrwt>
<rscale>  0 0.71294695E+03</rscale>
<asrwt>0</asrwt>
<pdfrwt beam="1">  1        1 0.29279403E+00 0.80724525E+03</pdfrwt>
<pdfrwt beam="2">  1       -1 0.71729929E-01 0.80724525E+03</pdfrwt>
<totfact> 0.70528496E+00</totfact>
</mgrwt>
</event>
<event>
 4    5  0.7767175E-008  0.9781306E+03  0.7818608E-02  0.9410746E-01
         -1   -1    0    0    0  501 -0.00000000000E+00  0.00000000000E+00  0.55434877535E+03  0.55434877537E+03  0.50400000000E-02 0.  1.
          1   -1    0    0  501    0  0.00000000000E+00 -0.00000000000E+00 -0.14642943981E+04  0.14642943982E+04  0.50400000000E-02 0. -1.
    8880023    1    1    2    0    0  0.49510155439E+03  0.52707093163E+03 -0.20945119035E+03  0.10003046154E+04  0.65864270000E+03 0.  1.
    8880022    1    1    2    0    0 -0.49510155439E+03 -0.52707093163E+03 -0.70049443245E+03  0.10183385582E+04  0.15294330000E+03 0.  0.
<mgrwt>
<rscale>  0 0.91196596E+03</rscale>
<asrwt>0</asrwt>
<pdfrwt beam="1">  1        1 0.22527606E+00 0.97813063E+03</pdfrwt>
<pdfrwt beam="2">  1       -1 0.85284427E-01 0.97813063E+03</pdfrwt>
<totfact> 0.94893735E+00</totfact>
</mgrwt>
</event>
<event>
 4    5  0.7767175E-008  0.7675673E+03  0.7818608E-02  0.9785896E-01
          1   -1    0    0  501    0  0.00000000000E+00  0.00000000000E+00  0.18644302959E+04  0.18644302959E+04  0.50400000000E-02 0. -1.
         -1   -1    0    0    0  501 -0.00000000000E+00 -0.00000000000E+00 -0.70165778309E+03  0.70165778310E+03  0.50400000000E-02 0.  1.
    8880023    1    1    2    0    0 -0.13241964117E+03  0.37123356601E+03 -0.45614567257E+03  0.89287647677E+03  0.65864270000E+03 0.  1.
    8880022    1    1    2    0    0  0.13241964117E+03 -0.37123356601E+03  0.16189181854E+04  0.16732116023E+04  0.15294330000E+03 0.  0.
<mgrwt>
<rscale>  0 0.66124950E+03</rscale>
<asrwt>0</asrwt>
<pdfrwt beam="1">  1        1 0.28683543E+00 0.76756728E+03</pdfrwt>
<pdfrwt beam="2">  1       -1 0.10794735E+00 0.76756728E+03</pdfrwt>
<totfact> 0.30760702E+00</totfact>
</mgrwt>
</event>
<event>
 4    5  0.7767175E-008  0.8371434E+03  0.7818608E-02  0.9635590E-01
          1   -1    0    0  501    0  0.00000000000E+00  0.00000000000E+00  0.97449374984E+03  0.97449374986E+03  0.50400000000E-02 0. -1.
         -1   -1    0    0    0  501 -0.00000000000E+00 -0.00000000000E+00 -0.23080955274E+04  0.23080955274E+04  0.50400000000E-02 0.  1.
    8880023    1    1    2    0    0 -0.23782920929E+03  0.45873319525E+03 -0.21483855316E+04  0.23057253687E+04  0.65864270000E+03 0.  1.
    8880022    1    1    2    0    0  0.23782920929E+03 -0.45873319525E+03  0.81478375398E+03  0.97686390863E+03  0.15294330000E+03 0.  0.
<mgrwt>
<rscale>  0 0.74984708E+03</rscale>
<asrwt>0</asrwt>
<pdfrwt beam="1">  1        1 0.14992212E+00 0.83714341E+03</pdfrwt>
<pdfrwt beam="2">  1       -1 0.35509162E+00 0.83714341E+03</pdfrwt>
<totfact> 0.23992886E-01</totfact>
</mgrwt>
</event>
<event>
 4    5  0.7767175E-008  0.7712369E+03  0.7818608E-02  0.9776839E-01
         -1   -1    0    0    0  501 -0.00000000000E+00  0.00000000000E+00  0.17959972294E+04  0.17959972294E+04  0.50400000000E-02 0.  1.
          1   -1    0    0  501    0  0.00000000000E+00 -0.00000000000E+00 -0.43396304279E+03  0.43396304281E+03  0.50400000000E-02 0. -1.
    8880023    1    1    2    0    0  0.19350828891E+03  0.35149780919E+03  0.15727283616E+04  0.17516508994E+04  0.65864270000E+03 0.  1.
    8880022    1    1    2    0    0 -0.19350828891E+03 -0.35149780919E+03 -0.21069417498E+03  0.47830937282E+03  0.15294330000E+03 0.  0.
<mgrwt>
<rscale>  0 0.66620423E+03</rscale>
<asrwt>0</asrwt>
<pdfrwt beam="1">  1        1 0.66763545E-01 0.77123691E+03</pdfrwt>
<pdfrwt beam="2">  1       -1 0.27630726E+00 0.77123691E+03</pdfrwt>
<totfact> 0.26386520E+00</totfact>
</mgrwt>
</event>
<event>
 4    5  0.7767175E-008  0.1006352E+04  0.7818608E-02  0.9373295E-01
         -1   -1    0    0    0  501 -0.00000000000E+00  0.00000000000E+00  0.83513050404E+03  0.83513050405E+03  0.50400000000E-02 0.  1.
          1   -1    0    0  501    0  0.00000000000E+00 -0.00000000000E+00 -0.14935566631E+04  0.14935566631E+04  0.50400000000E-02 0. -1.
    8880023    1    1    2    0    0 -0.76083686647E+03  0.77923874456E+01  0.34167940791E+03  0.10627739566E+04  0.65864270000E+03 0.  1.
    8880022    1    1    2    0    0  0.76083686647E+03 -0.77923874456E+01 -0.10001055670E+04  0.12659132106E+04  0.15294330000E+03 0.  0.
<mgrwt>
<rscale>  0 0.94306407E+03</rscale>
<asrwt>0</asrwt>
<pdfrwt beam="1">  1        1 0.22977795E+00 0.10063517E+04</pdfrwt>
<pdfrwt beam="2">  1       -1 0.12848162E+00 0.10063517E+04</pdfrwt>
<totfact> 0.34684871E+00</totfact>
</mgrwt>
</event>
<event>
 4    5  0.7767175E-008  0.7965035E+03  0.7818608E-02  0.9718408E-01
          1   -1    0    0  501    0  0.00000000000E+00  0.00000000000E+00  0.19330821607E+04  0.19330821607E+04  0.50400000000E-02 0. -1.
         -1   -1    0    0    0  501 -0.00000000000E+00 -0.00000000000E+00 -0.10819805931E+04  0.10819805931E+04  0.50400000000E-02 0.  1.
    8880023    1    1    2    0    0  0.35552574695E+03 -0.27241330104E+03 -0.89958556378E+03  0.12015290076E+04  0.65864270000E+03 0.  1.
    8880022    1    1    2    0    0 -0.35552574695E+03  0.27241330104E+03  0.17506871314E+04  0.18135337461E+04  0.15294330000E+03 0.  0.
<mgrwt>
<rscale>  0 0.69931294E+03</rscale>
<asrwt>0</asrwt>
<pdfrwt beam="1">  1        1 0.29739725E+00 0.79650346E+03</pdfrwt>
<pdfrwt beam="2">  1       -1 0.16645856E+00 0.79650346E+03</pdfrwt>
<totfact> 0.90632744E-01</totfact>
</mgrwt>
</event>
<event>
 4    5  0.7767175E-008  0.6813258E+03  0.7818608E-02  0.1008583E+00
         -1   -1    0    0    0  501 -0.00000000000E+00  0.00000000000E+00  0.32847167149E+03  0.32847167153E+03  0.50400000000E-02 0.  1.
          1   -1    0    0  501    0  0.00000000000E+00 -0.00000000000E+00 -0.10752432546E+04  0.10752432546E+04  0.50400000000E-02 0. -1.
    8880023    1    1    2    0    0 -0.12546356072E+03  0.12105189123E+03 -0.65990043076E+02  0.68451410321E+03  0.65864270000E+03 0.  1.
    8880022    1    1    2    0    0  0.12546356072E+03 -0.12105189123E+03 -0.68078154007E+03  0.71920082296E+03  0.15294330000E+03 0.  0.
<mgrwt>
<rscale>  0 0.52041537E+03</rscale>
<asrwt>0</asrwt>
<pdfrwt beam="1">  1        1 0.16542204E+00 0.68132582E+03</pdfrwt>
<pdfrwt beam="2">  1       -1 0.50534104E-01 0.68132582E+03</pdfrwt>
<totfact> 0.53706397E+01</totfact>
</mgrwt>
</event>
<event>
 4    5  0.7767175E-008  0.1457949E+04  0.7818608E-02  0.8939915E-01
         -1   -1    0    0    0  501 -0.00000000000E+00  0.00000000000E+00  0.14558450246E+04  0.14558450246E+04  0.50400000000E-02 0.  1.
          1   -1    0    0  501    0  0.00000000000E+00 -0.00000000000E+00 -0.14995208624E+04  0.14995208624E+04  0.50400000000E-02 0. -1.
    8880023    1    1    2    0    0  0.12812284029E+04 -0.22418671250E+03  0.49438227282E+03  0.15394901560E+04  0.65864270000E+03 0.  0.
    8880022    1    1    2    0    0 -0.12812284029E+04  0.22418671250E+03 -0.53805811064E+03  0.14158757311E+04  0.15294330000E+03 0.  0.
<mgrwt>
<rscale>  0 0.14193715E+04</rscale>
<asrwt>0</asrwt>
<pdfrwt beam="1">  1        1 0.23069552E+00 0.14579493E+04</pdfrwt>
<pdfrwt beam="2">  1       -1 0.22397616E+00 0.14579493E+04</pdfrwt>
<totfact> 0.64431605E-01</totfact>
</mgrwt>
</event>
<event>
 4    5  0.7767175E-008  0.1453164E+04  0.7818608E-02  0.8943437E-01
          1   -1    0    0  501    0  0.00000000000E+00  0.00000000000E+00  0.26363545632E+04  0.26363545632E+04  0.50400000000E-02 0. -1.
         -1   -1    0    0    0  501 -0.00000000000E+00 -0.00000000000E+00 -0.79705075069E+03  0.79705075070E+03  0.50400000000E-02 0.  1.
    8880023    1    1    2    0    0 -0.12900745076E+04  0.11654703146E+03  0.14939693722E+04  0.20841377443E+04  0.65864270000E+03 0.  0.
    8880022    1    1    2    0    0  0.12900745076E+04 -0.11654703146E+03  0.34533444026E+03  0.13492675696E+04  0.15294330000E+03 0.  0.
<mgrwt>
<rscale>  0 0.14144335E+04</rscale>
<asrwt>0</asrwt>
<pdfrwt beam="1">  1        1 0.40559301E+00 0.14531640E+04</pdfrwt>
<pdfrwt beam="2">  1       -1 0.12262319E+00 0.14531640E+04</pdfrwt>
<totfact> 0.61237697E-01</totfact>
</mgrwt>
</event>
<event>
 4    5  0.7767175E-008  0.1062308E+04  0.7818608E-02  0.9304230E-01
         -1   -1    0    0    0  501 -0.00000000000E+00  0.00000000000E+00  0.39981992907E+03  0.39981992910E+03  0.50400000000E-02 0.  1.
          1   -1    0    0  501    0  0.00000000000E+00 -0.00000000000E+00 -0.26166597271E+04  0.26166597271E+04  0.50400000000E-02 0. -1.
    8880023    1    1    2    0    0 -0.33374233983E+03  0.76374314178E+03 -0.67943156547E+03  0.12610015838E+04  0.65864270000E+03 0.  1.
    8880022    1    1    2    0    0  0.33374233983E+03 -0.76374314178E+03 -0.15374082325E+04  0.17554780723E+04  0.15294330000E+03 0.  0.
<mgrwt>
<rscale>  0 0.10039436E+04</rscale>
<asrwt>0</asrwt>
<pdfrwt beam="1">  1        1 0.40256302E+00 0.10623077E+04</pdfrwt>
<pdfrwt beam="2">  1       -1 0.61510760E-01 0.10623077E+04</pdfrwt>
<totfact> 0.30473986E+00</totfact>
</mgrwt>
</event>
<event>
 4    5  0.7767175E-008  0.6690843E+03  0.7818608E-02  0.1016328E+00
          1   -1    0    0  501    0  0.00000000000E+00  0.00000000000E+00  0.10262641597E+04  0.10262641597E+04  0.50400000000E-02 0. -1.
         -1   -1    0    0    0  501 -0.00000000000E+00 -0.00000000000E+00 -0.34607591110E+03  0.34607591114E+03  0.50400000000E-02 0.  1.
    8880023    1    1    2    0    0 -0.51535852107E+02  0.10586618631E+03  0.39508439024E+01  0.66909596388E+03  0.65864270000E+03 0.  1.
    8880022    1    1    2    0    0  0.51535852107E+02 -0.10586618631E+03  0.67623740472E+03  0.70324410698E+03  0.15294330000E+03 0.  0.
<mgrwt>
<rscale>  0 0.49035325E+03</rscale>
<asrwt>0</asrwt>
<pdfrwt beam="1">  1        1 0.15788679E+00 0.66908430E+03</pdfrwt>
<pdfrwt beam="2">  1       -1 0.53242449E-01 0.66908430E+03</pdfrwt>
<totfact> 0.53029703E+01</totfact>
</mgrwt>
</event>
<event>
 4    5  0.7767175E-008  0.1020423E+04  0.7818608E-02  0.9355312E-01
         -1   -1    0    0    0  501 -0.00000000000E+00  0.00000000000E+00  0.11258568923E+04  0.11258568923E+04  0.50400000000E-02 0.  1.
          1   -1    0    0  501    0  0.00000000000E+00 -0.00000000000E+00 -0.90713162158E+03  0.90713162159E+03  0.50400000000E-02 0. -1.
    8880023    1    1    2    0    0 -0.66667626804E+03 -0.40372800918E+03  0.56514645372E+03  0.11664708621E+04  0.65864270000E+03 0.  0.
    8880022    1    1    2    0    0  0.66667626804E+03  0.40372800918E+03 -0.34642118301E+03  0.86651765177E+03  0.15294330000E+03 0.  0.
<mgrwt>
<rscale>  0 0.95846362E+03</rscale>
<asrwt>0</asrwt>
<pdfrwt beam="1">  1        1 0.13955871E+00 0.10204233E+04</pdfrwt>
<pdfrwt beam="2">  1       -1 0.17320875E+00 0.10204233E+04</pdfrwt>
<totfact> 0.41872168E+00</totfact>
</mgrwt>
</event>
<event>
 4    5  0.7767175E-008  0.1289631E+04  0.7818608E-02  0.9074567E-01
          1   -1    0    0  501    0  0.00000000000E+00  0.00000000000E+00  0.22111873837E+04  0.22111873837E+04  0.50400000000E-02 0. -1.
         -1   -1    0    0    0  501 -0.00000000000E+00 -0.00000000000E+00 -0.10111090826E+04  0.10111090826E+04  0.50400000000E-02 0.  1.
    8880023    1    1    2    0    0 -0.43200244105E+03 -0.10211322398E+04 -0.32559724620E+03  0.13300980916E+04  0.65864270000E+03 0.  0.
    8880022    1    1    2    0    0  0.43200244105E+03  0.10211322398E+04  0.15256755474E+04  0.18921983747E+04  0.15294330000E+03 0.  0.
<mgrwt>
<rscale>  0 0.12447472E+04</rscale>
<asrwt>0</asrwt>
<pdfrwt beam="1">  1        1 0.34018267E+00 0.12896307E+04</pdfrwt>
<pdfrwt beam="2">  1       -1 0.15555525E+00 0.12896307E+04</pdfrwt>
<totfact> 0.65783496E-01</totfact>
</mgrwt>
</event>
<event>
 4    5  0.7767175E-008  0.1582092E+04  0.7818608E-02  0.8853743E-01
         -1   -1    0    0    0  501 -0.00000000000E+00  0.00000000000E+00  0.16800787485E+04  0.16800787485E+04  0.50400000000E-02 0.  1.
          1   -1    0    0  501    0  0.00000000000E+00 -0.00000000000E+00 -0.22925829950E+04  0.22925829950E+04  0.50400000000E-02 0. -1.
    8880023    1    1    2    0    0  0.13934708252E+04 -0.35699279482E+03  0.94834555020E+03  0.18445525976E+04  0.65864270000E+03 0.  1.
    8880022    1    1    2    0    0 -0.13934708252E+04  0.35699279482E+03 -0.15608497967E+04  0.21281091460E+04  0.15294330000E+03 0.  0.
<mgrwt>
<rscale>  0 0.15470683E+04</rscale>
<asrwt>0</asrwt>
<pdfrwt beam="1">  1        1 0.35270508E+00 0.15820920E+04</pdfrwt>
<pdfrwt beam="2">  1       -1 0.25847365E+00 0.15820920E+04</pdfrwt>
<totfact> 0.10790490E-01</totfact>
</mgrwt>
</event>
<event>
 4    5  0.7767175E-008  0.9027735E+03  0.7818608E-02  0.9521594E-01
         -1   -1    0    0    0  501 -0.00000000000E+00  0.00000000000E+00  0.12705101581E+04  0.12705101581E+04  0.50400000000E-02 0.  1.
          1   -1    0    0  501    0  0.00000000000E+00 -0.00000000000E+00 -0.10624356948E+04  0.10624356948E+04  0.50400000000E-02 0. -1.
    8880023    1    1    2    0    0 -0.50268345293E+03 -0.35846779379E+03 -0.75629449862E+03  0.11777017398E+04  0.65864270000E+03 0. -1.
    8880022    1    1    2    0    0  0.50268345293E+03  0.35846779379E+03  0.96436896195E+03  0.11552441131E+04  0.15294330000E+03 0.  0.
<mgrwt>
<rscale>  0 0.82710349E+03</rscale>
<asrwt>0</asrwt>
<pdfrwt beam="1">  1        1 0.16345165E+00 0.90277351E+03</pdfrwt>
<pdfrwt beam="2">  1       -1 0.19546310E+00 0.90277351E+03</pdfrwt>
<totfact> 0.22297425E+00</totfact>
</mgrwt>
</event>
<event>
 4    5  0.7767175E-008  0.9452759E+03  0.7818608E-02  0.9456944E-01
          1   -1    0    0  501    0  0.00000000000E+00  0.00000000000E+00  0.26787366241E+04  0.26787366241E+04  0.50400000000E-02 0. -1.
         -1   -1    0    0    0  501 -0.00000000000E+00 -0.00000000000E+00 -0.38010290466E+03  0.38010290469E+03  0.50400000000E-02 0.  1.
    8880023    1    1    2    0    0 -0.63175887717E+03  0.24620545069E+03  0.38108466969E+03  0.10192017144E+04  0.65864270000E+03 0.  0.
    8880022    1    1    2    0    0  0.63175887717E+03 -0.24620545069E+03  0.19175490498E+04  0.20396378144E+04  0.15294330000E+03 0.  0.
<mgrwt>
<rscale>  0 0.87533992E+03</rscale>
<asrwt>0</asrwt>
<pdfrwt beam="1">  1        1 0.41211333E+00 0.94527594E+03</pdfrwt>
<pdfrwt beam="2">  1       -1 0.58477369E-01 0.94527594E+03</pdfrwt>
<totfact> 0.31010948E+00</totfact>
</mgrwt>
</event>
<event>
 4    5  0.7767175E-008  0.7788728E+03  0.7818608E-02  0.9758491E-01
          1   -1    0    0  501    0  0.00000000000E+00  0.00000000000E+00  0.28775568340E+04  0.28775568340E+04  0.50400000000E-02 0. -1.
         -1   -1    0    0    0  501 -0.00000000000E+00 -0.00000000000E+00 -0.14733087006E+03  0.14733087014E+03  0.50400000000E-02 0.  1.
    8880023    1    1    2    0    0  0.52267498823E+02 -0.41243277630E+03  0.11900350344E+04  0.14222609731E+04  0.65864270000E+03 0.  0.
    8880022    1    1    2    0    0 -0.52267498823E+02  0.41243277630E+03  0.15401909296E+04  0.16026267311E+04  0.15294330000E+03 0.  1.
<mgrwt>
<rscale>  0 0.67638509E+03</rscale>
<asrwt>0</asrwt>
<pdfrwt beam="1">  1        1 0.44270106E+00 0.77887283E+03</pdfrwt>
<pdfrwt beam="2">  1       -1 0.22666287E-01 0.77887283E+03</pdfrwt>
<totfact> 0.12785376E+01</totfact>
</mgrwt>
</event>
<event>
 4    5  0.7767175E-008  0.6640853E+03  0.7818608E-02  0.1020313E+00
          1   -1    0    0  501    0  0.00000000000E+00  0.00000000000E+00  0.12821720813E+04  0.12821720813E+04  0.50400000000E-02 0. -1.
         -1   -1    0    0    0  501 -0.00000000000E+00 -0.00000000000E+00 -0.58440372861E+03  0.58440372863E+03  0.50400000000E-02 0.  1.
    8880023    1    1    2    0    0 -0.45443424704E+02 -0.71651820933E+02 -0.38644766788E+03  0.76834308389E+03  0.65864270000E+03 0.  1.
    8880022    1    1    2    0    0  0.45443424704E+02  0.71651820933E+02  0.10842160206E+04  0.10982327261E+04  0.15294330000E+03 0.  0.
<mgrwt>
<rscale>  0 0.47573670E+03</rscale>
<asrwt>0</asrwt>
<pdfrwt beam="1">  1        1 0.19725724E+00 0.66408531E+03</pdfrwt>
<pdfrwt beam="2">  1       -1 0.89908268E-01 0.66408531E+03</pdfrwt>
<totfact> 0.11822842E+01</totfact>
</mgrwt>
</event>
<event>
 4    5  0.7767175E-008  0.7417020E+03  0.7818608E-02  0.9855017E-01
          1   -1    0    0  501    0  0.00000000000E+00  0.00000000000E+00  0.12603855378E+04  0.12603855378E+04  0.50400000000E-02 0. -1.
         -1   -1    0    0    0  501 -0.00000000000E+00 -0.00000000000E+00 -0.44296169702E+03  0.44296169705E+03  0.50400000000E-02 0.  1.
    8880023    1    1    2    0    0 -0.33953599764E+03  0.32046086087E+02 -0.65479538764E+02  0.74458674551E+03  0.65864270000E+03 0.  1.
    8880022    1    1    2    0    0  0.33953599764E+03 -0.32046086087E+02  0.88290337951E+03  0.95876048932E+03  0.15294330000E+03 0.  0.
<mgrwt>
<rscale>  0 0.62491783E+03</rscale>
<asrwt>0</asrwt>
<pdfrwt beam="1">  1        1 0.19390547E+00 0.74170200E+03</pdfrwt>
<pdfrwt beam="2">  1       -1 0.68147954E-01 0.74170200E+03</pdfrwt>
<totfact> 0.21736240E+01</totfact>
</mgrwt>
</event>
<event>
 4    5  0.7767175E-008  0.7044481E+03  0.7818608E-02  0.9979226E-01
         -1   -1    0    0    0  501 -0.00000000000E+00  0.00000000000E+00  0.74427427625E+03  0.74427427627E+03  0.50400000000E-02 0.  1.
          1   -1    0    0  501    0  0.00000000000E+00 -0.00000000000E+00 -0.79243328436E+03  0.79243328438E+03  0.50400000000E-02 0. -1.
    8880023    1    1    2    0    0  0.25814036964E+01  0.24986045550E+03  0.53468000998E+03  0.88438104356E+03  0.65864270000E+03 0.  1.
    8880022    1    1    2    0    0 -0.25814036964E+01 -0.24986045550E+03 -0.58283901809E+03  0.65232651709E+03  0.15294330000E+03 0.  0.
<mgrwt>
<rscale>  0 0.56570593E+03</rscale>
<asrwt>0</asrwt>
<pdfrwt beam="1">  1        1 0.12191281E+00 0.70444809E+03</pdfrwt>
<pdfrwt beam="2">  1       -1 0.11450373E+00 0.70444809E+03</pdfrwt>
<totfact> 0.16106527E+01</totfact>
</mgrwt>
</event>
<event>
 4    5  0.7767175E-008  0.8122946E+03  0.7818608E-02  0.9684817E-01
          1   -1    0    0  501    0  0.00000000000E+00  0.00000000000E+00  0.26356952021E+04  0.26356952021E+04  0.50400000000E-02 0. -1.
         -1   -1    0    0    0  501 -0.00000000000E+00 -0.00000000000E+00 -0.49061745499E+03  0.49061745502E+03  0.50400000000E-02 0.  1.
    8880023    1    1    2    0    0 -0.47533663666E+03  0.82110776595E+01 -0.10719492446E+03  0.81933710891E+03  0.65864270000E+03 0.  1.
    8880022    1    1    2    0    0  0.47533663666E+03 -0.82110776595E+01  0.22522726715E+04  0.23069755482E+04  0.15294330000E+03 0.  0.
<mgrwt>
<rscale>  0 0.71928020E+03</rscale>
<asrwt>0</asrwt>
<pdfrwt beam="1">  1        1 0.40549158E+00 0.81229462E+03</pdfrwt>
<pdfrwt beam="2">  1       -1 0.75479607E-01 0.81229462E+03</pdfrwt>
<totfact> 0.20250482E+00</totfact>
</mgrwt>
</event>
<event>
 4    5  0.7767175E-008  0.8955156E+03  0.7818608E-02  0.9533269E-01
         -1   -1    0    0    0  501 -0.00000000000E+00  0.00000000000E+00  0.17819472116E+04  0.17819472116E+04  0.50400000000E-02 0.  1.
          1   -1    0    0  501    0  0.00000000000E+00 -0.00000000000E+00 -0.59631968335E+03  0.59631968337E+03  0.50400000000E-02 0. -1.
    8880023    1    1    2    0    0  0.35967367263E+03  0.48864386134E+03  0.14457493386E+04  0.17006290984E+04  0.65864270000E+03 0.  0.
    8880022    1    1    2    0    0 -0.35967367263E+03 -0.48864386134E+03 -0.26012181042E+03  0.67763779652E+03  0.15294330000E+03 0.  0.
<mgrwt>
<rscale>  0 0.81874836E+03</rscale>
<asrwt>0</asrwt>
<pdfrwt beam="1">  1        1 0.91741492E-01 0.89551559E+03</pdfrwt>
<pdfrwt beam="2">  1       -1 0.27414572E+00 0.89551559E+03</pdfrwt>
<totfact> 0.17208796E+00</totfact>
</mgrwt>
</event>
<event>
 4    5  0.7767175E-008  0.7463675E+03  0.7818608E-02  0.9841773E-01
          1   -1    0    0  501    0  0.00000000000E+00  0.00000000000E+00  0.13342920702E+04  0.13342920702E+04  0.50400000000E-02 0. -1.
         -1   -1    0    0    0  501 -0.00000000000E+00 -0.00000000000E+00 -0.17709886974E+04  0.17709886974E+04  0.50400000000E-02 0.  1.
    8880023    1    1    2    0    0 -0.31108414603E+03  0.16272953925E+03 -0.16618037989E+04  0.18217179588E+04  0.65864270000E+03 0.  1.
    8880022    1    1    2    0    0  0.31108414603E+03 -0.16272953925E+03  0.12251071718E+04  0.12835628088E+04  0.15294330000E+03 0.  0.
<mgrwt>
<rscale>  0 0.63168168E+03</rscale>
<asrwt>0</asrwt>
<pdfrwt beam="1">  1        1 0.20527570E+00 0.74636751E+03</pdfrwt>
<pdfrwt beam="2">  1       -1 0.27245980E+00 0.74636751E+03</pdfrwt>
<totfact> 0.45290486E-01</totfact>
</mgrwt>
</event>
<event>
 4    5  0.7767175E-008  0.7099958E+03  0.7818608E-02  0.9958017E-01
          1   -1    0    0  501    0  0.00000000000E+00  0.00000000000E+00  0.52419036247E+03  0.52419036250E+03  0.50400000000E-02 0. -1.
         -1   -1    0    0    0  501 -0.00000000000E+00 -0.00000000000E+00 -0.16617034581E+04  0.16617034581E+04  0.50400000000E-02 0.  1.
    8880023    1    1    2    0    0  0.23113904441E+03 -0.12984061740E+03 -0.15308646930E+04  0.16874954098E+04  0.65864270000E+03 0.  1.
    8880022    1    1    2    0    0 -0.23113904441E+03  0.12984061740E+03  0.39335159730E+03  0.49839841081E+03  0.15294330000E+03 0.  0.
<mgrwt>
<rscale>  0 0.57530095E+03</rscale>
<asrwt>0</asrwt>
<pdfrwt beam="1">  1        1 0.80644672E-01 0.70999581E+03</pdfrwt>
<pdfrwt beam="2">  1       -1 0.25564668E+00 0.70999581E+03</pdfrwt>
<totfact> 0.27940652E+00</totfact>
</mgrwt>
</event>
<event>
 4    5  0.7767175E-008  0.7035719E+03  0.7818608E-02  0.9982694E-01
          1   -1    0    0  501    0  0.00000000000E+00  0.00000000000E+00  0.60580256674E+03  0.60580256676E+03  0.50400000000E-02 0. -1.
         -1   -1    0    0    0  501 -0.00000000000E+00 -0.00000000000E+00 -0.98399439502E+03  0.98399439503E+03  0.50400000000E-02 0.  1.
    8880023    1    1    2    0    0  0.14786420268E+03 -0.19834158487E+03 -0.80764383824E+03  0.10711218336E+04  0.65864270000E+03 0.  1.
    8880022    1    1    2    0    0 -0.14786420268E+03  0.19834158487E+03  0.42945200996E+03  0.51867512818E+03  0.15294330000E+03 0.  0.
<mgrwt>
<rscale>  0 0.56415619E+03</rscale>
<asrwt>0</asrwt>
<pdfrwt beam="1">  1        1 0.93200395E-01 0.70357190E+03</pdfrwt>
<pdfrwt beam="2">  1       -1 0.15138375E+00 0.70357190E+03</pdfrwt>
<totfact> 0.11903138E+01</totfact>
</mgrwt>
</event>
<event>
 4    5  0.7767175E-008  0.9622514E+03  0.7818608E-02  0.9432702E-01
          1   -1    0    0  501    0  0.00000000000E+00  0.00000000000E+00  0.23240271124E+04  0.23240271124E+04  0.50400000000E-02 0. -1.
         -1   -1    0    0    0  501 -0.00000000000E+00 -0.00000000000E+00 -0.86480352521E+03  0.86480352523E+03  0.50400000000E-02 0.  1.
    8880023    1    1    2    0    0 -0.55193626153E+03 -0.43299421404E+03 -0.51266138411E+03  0.10902979076E+04  0.65864270000E+03 0.  1.
    8880022    1    1    2    0    0  0.55193626153E+03  0.43299421404E+03  0.19718849713E+04  0.20985327301E+04  0.15294330000E+03 0.  0.
<mgrwt>
<rscale>  0 0.89432627E+03</rscale>
<asrwt>0</asrwt>
<pdfrwt beam="1">  1        1 0.35754263E+00 0.96225144E+03</pdfrwt>
<pdfrwt beam="2">  1       -1 0.13304670E+00 0.96225144E+03</pdfrwt>
<totfact> 0.87561245E-01</totfact>
</mgrwt>
</event>
<event>
 4    5  0.7767175E-008  0.1092378E+04  0.7818608E-02  0.9269590E-01
         -1   -1    0    0    0  501 -0.00000000000E+00  0.00000000000E+00  0.37010989944E+03  0.37010989948E+03  0.50400000000E-02 0.  1.
          1   -1    0    0  501    0  0.00000000000E+00 -0.00000000000E+00 -0.28333099752E+04  0.28333099752E+04  0.50400000000E-02 0. -1.
    8880023    1    1    2    0    0 -0.23683565685E+03  0.83868237737E+03 -0.93652236230E+03  0.14388758111E+04  0.65864270000E+03 0.  1.
    8880022    1    1    2    0    0  0.23683565685E+03 -0.83868237737E+03 -0.15266777134E+04  0.17645440635E+04  0.15294330000E+03 0.  0.
<mgrwt>
<rscale>  0 0.10363130E+04</rscale>
<asrwt>0</asrwt>
<pdfrwt beam="1">  1        1 0.43589383E+00 0.10923779E+04</pdfrwt>
<pdfrwt beam="2">  1       -1 0.56939986E-01 0.10923779E+04</pdfrwt>
<totfact> 0.24920251E+00</totfact>
</mgrwt>
</event>
<event>
 4    5  0.7767175E-008  0.7004698E+03  0.7818608E-02  0.9995258E-01
         -1   -1    0    0    0  501 -0.00000000000E+00  0.00000000000E+00  0.48981182706E+03  0.48981182709E+03  0.50400000000E-02 0.  1.
          1   -1    0    0  501    0  0.00000000000E+00 -0.00000000000E+00 -0.12954913643E+04  0.12954913643E+04  0.50400000000E-02 0. -1.
    8880023    1    1    2    0    0 -0.23838284596E+03  0.46231611094E+01  0.20967319518E+03  0.73117768696E+03  0.65864270000E+03 0.  1.
    8880022    1    1    2    0    0  0.23838284596E+03 -0.46231611094E+01 -0.10153527324E+04  0.10541255044E+04  0.15294330000E+03 0.  0.
<mgrwt>
<rscale>  0 0.55858663E+03</rscale>
<asrwt>0</asrwt>
<pdfrwt beam="1">  1        1 0.19930636E+00 0.70046981E+03</pdfrwt>
<pdfrwt beam="2">  1       -1 0.75355666E-01 0.70046981E+03</pdfrwt>
<totfact> 0.16781061E+01</totfact>
</mgrwt>
</event>
<event>
 4    5  0.7767175E-008  0.7928215E+03  0.7818608E-02  0.9726538E-01
          1   -1    0    0  501    0  0.00000000000E+00  0.00000000000E+00  0.77626530565E+03  0.77626530567E+03  0.50400000000E-02 0. -1.
         -1   -1    0    0    0  501 -0.00000000000E+00 -0.00000000000E+00 -0.91687299242E+03  0.91687299244E+03  0.50400000000E-02 0.  1.
    8880023    1    1    2    0    0  0.46319612287E+01  0.44128698333E+03 -0.63295773972E+03  0.10144956201E+04  0.65864270000E+03 0.  0.
    8880022    1    1    2    0    0 -0.46319612287E+01 -0.44128698333E+03  0.49235005295E+03  0.67864267798E+03  0.15294330000E+03 0.  0.
<mgrwt>
<rscale>  0 0.69458481E+03</rscale>
<asrwt>0</asrwt>
<pdfrwt beam="1">  1        1 0.11942543E+00 0.79282146E+03</pdfrwt>
<pdfrwt beam="2">  1       -1 0.14105738E+00 0.79282146E+03</pdfrwt>
<totfact> 0.97773317E+00</totfact>
</mgrwt>
</event>
<event>
 4    5  0.7767175E-008  0.9660658E+03  0.7818608E-02  0.9427366E-01
         -1   -1    0    0    0  501 -0.00000000000E+00  0.00000000000E+00  0.12689439031E+04  0.12689439031E+04  0.50400000000E-02 0.  1.
          1   -1    0    0  501    0  0.00000000000E+00 -0.00000000000E+00 -0.32419906864E+04  0.32419906865E+04  0.50400000000E-02 0. -1.
    8880023    1    1    2    0    0  0.34611322578E+03  0.61618062050E+03  0.10358164684E+04  0.14164035035E+04  0.65864270000E+03 0.  1.
    8880022    1    1    2    0    0 -0.34611322578E+03 -0.61618062050E+03 -0.30088632517E+04  0.30945310861E+04  0.15294330000E+03 0.  0.
<mgrwt>
<rscale>  0 0.89857366E+03</rscale>
<asrwt>0</asrwt>
<pdfrwt beam="1">  1        1 0.49876779E+00 0.96606580E+03</pdfrwt>
<pdfrwt beam="2">  1       -1 0.19522214E+00 0.96606580E+03</pdfrwt>
<totfact> 0.66924987E-02</totfact>
</mgrwt>
</event>
<event>
 4    5  0.7767175E-008  0.1145580E+04  0.7818608E-02  0.9211928E-01
         -1   -1    0    0    0  501 -0.00000000000E+00  0.00000000000E+00  0.71667152869E+03  0.71667152870E+03  0.50400000000E-02 0.  1.
          1   -1    0    0  501    0  0.00000000000E+00 -0.00000000000E+00 -0.22496447134E+04  0.22496447134E+04  0.50400000000E-02 0. -1.
    8880023    1    1    2    0    0 -0.93300593746E+03  0.89688811262E+02  0.20246660595E+02  0.11457592660E+04  0.65864270000E+03 0.  1.
    8880022    1    1    2    0    0  0.93300593746E+03 -0.89688811262E+02 -0.15532198453E+04  0.18205569761E+04  0.15294330000E+03 0.  0.
<mgrwt>
<rscale>  0 0.10931157E+04</rscale>
<asrwt>0</asrwt>
<pdfrwt beam="1">  1        1 0.34609918E+00 0.11455804E+04</pdfrwt>
<pdfrwt beam="2">  1       -1 0.11025716E+00 0.11455804E+04</pdfrwt>
<totfact> 0.15201233E+00</totfact>
</mgrwt>
</event>
<event>
 4    5  0.7767175E-008  0.9871416E+03  0.7818608E-02  0.9398577E-01
         -1   -1    0    0    0  501 -0.00000000000E+00  0.00000000000E+00  0.11791786280E+04  0.11791786280E+04  0.50400000000E-02 0.  1.
          1   -1    0    0  501    0  0.00000000000E+00 -0.00000000000E+00 -0.89773587719E+03  0.89773587721E+03  0.50400000000E-02 0. -1.
    8880023    1    1    2    0    0 -0.55891192149E+03 -0.47776129484E+03 -0.39781249720E+03  0.10642853847E+04  0.65864270000E+03 0. -1.
    8880022    1    1    2    0    0  0.55891192149E+03  0.47776129484E+03  0.67925524805E+03  0.10126291206E+04  0.15294330000E+03 0.  0.
<mgrwt>
<rscale>  0 0.92192880E+03</rscale>
<asrwt>0</asrwt>
<pdfrwt beam="1">  1        1 0.13811321E+00 0.98714163E+03</pdfrwt>
<pdfrwt beam="2">  1       -1 0.18141210E+00 0.98714163E+03</pdfrwt>
<totfact> 0.37330731E+00</totfact>
</mgrwt>
</event>
<event>
 4    5  0.7767175E-008  0.7629512E+03  0.7818608E-02  0.9797526E-01
          1   -1    0    0  501    0  0.00000000000E+00  0.00000000000E+00  0.25765093549E+04  0.25765093549E+04  0.50400000000E-02 0. -1.
         -1   -1    0    0    0  501 -0.00000000000E+00 -0.00000000000E+00 -0.28319766247E+03  0.28319766252E+03  0.50400000000E-02 0.  1.
    8880023    1    1    2    0    0 -0.36596233001E+03  0.11981602058E+03  0.29355513986E+03  0.81747729765E+03  0.65864270000E+03 0.  1.
    8880022    1    1    2    0    0  0.36596233001E+03 -0.11981602058E+03  0.19997565525E+04  0.20422297198E+04  0.15294330000E+03 0.  0.
<mgrwt>
<rscale>  0 0.65495468E+03</rscale>
<asrwt>0</asrwt>
<pdfrwt beam="1">  1        1 0.39638605E+00 0.76295119E+03</pdfrwt>
<pdfrwt beam="2">  1       -1 0.43568872E-01 0.76295119E+03</pdfrwt>
<totfact> 0.65805298E+00</totfact>
</mgrwt>
</event>
<event>
 4    5  0.7767175E-008  0.8013600E+03  0.7818608E-02  0.9707863E-01
         -1   -1    0    0    0  501 -0.00000000000E+00  0.00000000000E+00  0.20795708220E+04  0.20795708220E+04  0.50400000000E-02 0.  1.
          1   -1    0    0  501    0  0.00000000000E+00 -0.00000000000E+00 -0.54409642217E+03  0.54409642219E+03  0.50400000000E-02 0. -1.
    8880023    1    1    2    0    0 -0.26481171053E+02 -0.45570429200E+03  0.18719878789E+04  0.20362997027E+04  0.65864270000E+03 0.  0.
    8880022    1    1    2    0    0  0.26481171053E+02  0.45570429200E+03 -0.33651347909E+03  0.58736754149E+03  0.15294330000E+03 0.  0.
<mgrwt>
<rscale>  0 0.70550549E+03</rscale>
<asrwt>0</asrwt>
<pdfrwt beam="1">  1        1 0.83707141E-01 0.80136001E+03</pdfrwt>
<pdfrwt beam="2">  1       -1 0.31993398E+00 0.80136001E+03</pdfrwt>
<totfact> 0.10120792E+00</totfact>
</mgrwt>
</event>
<event>
 4    5  0.7767175E-008  0.9794990E+03  0.7818608E-02  0.9408885E-01
          1   -1    0    0  501    0  0.00000000000E+00  0.00000000000E+00  0.18438838355E+04  0.18438838355E+04  0.50400000000E-02 0. -1.
         -1   -1    0    0    0  501 -0.00000000000E+00 -0.00000000000E+00 -0.12369831255E+04  0.12369831255E+04  0.50400000000E-02 0.  1.
    8880023    1    1    2    0    0 -0.47330700401E+02  0.72344169048E+03 -0.94507143037E+03  0.13610945189E+04  0.65864270000E+03 0.  0.
    8880022    1    1    2    0    0  0.47330700401E+02 -0.72344169048E+03  0.15519721404E+04  0.17197724420E+04  0.15294330000E+03 0.  0.
<mgrwt>
<rscale>  0 0.91348099E+03</rscale>
<asrwt>0</asrwt>
<pdfrwt beam="1">  1        1 0.28367444E+00 0.97949899E+03</pdfrwt>
<pdfrwt beam="2">  1       -1 0.19030510E+00 0.97949899E+03</pdfrwt>
<totfact> 0.67797434E-01</totfact>
</mgrwt>
</event>
<event>
 4    5  0.7767175E-008  0.1423027E+04  0.7818608E-02  0.8965994E-01
          1   -1    0    0  501    0  0.00000000000E+00  0.00000000000E+00  0.13518400357E+04  0.13518400357E+04  0.50400000000E-02 0. -1.
         -1   -1    0    0    0  501 -0.00000000000E+00 -0.00000000000E+00 -0.15825373058E+04  0.15825373058E+04  0.50400000000E-02 0.  1.
    8880023    1    1    2    0    0  0.43817705291E+03 -0.11828761686E+04 -0.69226528962E+03  0.15824779927E+04  0.65864270000E+03 0.  0.
    8880022    1    1    2    0    0 -0.43817705291E+03  0.11828761686E+04  0.46156801950E+03  0.13518993489E+04  0.15294330000E+03 0.  0.
<mgrwt>
<rscale>  0 0.13833036E+04</rscale>
<asrwt>0</asrwt>
<pdfrwt beam="1">  1        1 0.20797539E+00 0.14230268E+04</pdfrwt>
<pdfrwt beam="2">  1       -1 0.24346728E+00 0.14230268E+04</pdfrwt>
<totfact> 0.61046134E-01</totfact>
</mgrwt>
</event>
<event>
 4    5  0.7767175E-008  0.7900271E+03  0.7818608E-02  0.9732789E-01
          1   -1    0    0  501    0  0.00000000000E+00  0.00000000000E+00  0.29619315991E+04  0.29619315991E+04  0.50400000000E-02 0. -1.
         -1   -1    0    0    0  501 -0.00000000000E+00 -0.00000000000E+00 -0.17308052765E+03  0.17308052773E+03  0.50400000000E-02 0.  1.
    8880023    1    1    2    0    0  0.16711272790E+03  0.40299613151E+03  0.93350634369E+03  0.12229377931E+04  0.65864270000E+03 0.  0.
    8880022    1    1    2    0    0 -0.16711272790E+03 -0.40299613151E+03  0.18553447277E+04  0.19120743337E+04  0.15294330000E+03 0.  0.
<mgrwt>
<rscale>  0 0.69097636E+03</rscale>
<asrwt>0</asrwt>
<pdfrwt beam="1">  1        1 0.45568177E+00 0.79002706E+03</pdfrwt>
<pdfrwt beam="2">  1       -1 0.26627774E-01 0.79002706E+03</pdfrwt>
<totfact> 0.84487696E+00</totfact>
</mgrwt>
</event>
<event>
 4    5  0.7767175E-008  0.8813786E+03  0.7818608E-02  0.9556611E-01
          1   -1    0    0  501    0  0.00000000000E+00  0.00000000000E+00  0.84461815483E+03  0.84461815484E+03  0.50400000000E-02 0. -1.
         -1   -1    0    0    0  501 -0.00000000000E+00 -0.00000000000E+00 -0.11971491799E+04  0.11971491799E+04  0.50400000000E-02 0.  1.
    8880023    1    1    2    0    0 -0.38057289477E+03 -0.44517671086E+03 -0.87514530130E+03  0.12420577832E+04  0.65864270000E+03 0.  1.
    8880022    1    1    2    0    0  0.38057289477E+03  0.44517671086E+03  0.52261427623E+03  0.79970955156E+03  0.15294330000E+03 0.  0.
<mgrwt>
<rscale>  0 0.80235718E+03</rscale>
<asrwt>0</asrwt>
<pdfrwt beam="1">  1        1 0.12994125E+00 0.88137860E+03</pdfrwt>
<pdfrwt beam="2">  1       -1 0.18417680E+00 0.88137860E+03</pdfrwt>
<totfact> 0.40030104E+00</totfact>
</mgrwt>
</event>
<event>
 4    5  0.7767175E-008  0.9756656E+03  0.7818608E-02  0.9414111E-01
         -1   -1    0    0    0  501 -0.00000000000E+00  0.00000000000E+00  0.47001313190E+03  0.47001313193E+03  0.50400000000E-02 0.  1.
          1   -1    0    0  501    0  0.00000000000E+00 -0.00000000000E+00 -0.16899892274E+04  0.16899892274E+04  0.50400000000E-02 0. -1.
    8880023    1    1    2    0    0  0.64032051875E+03  0.32878977969E+03 -0.38984353957E+03  0.10506670631E+04  0.65864270000E+03 0.  0.
    8880022    1    1    2    0    0 -0.64032051875E+03 -0.32878977969E+03 -0.83013255593E+03  0.11093352962E+04  0.15294330000E+03 0.  0.
<mgrwt>
<rscale>  0 0.90923473E+03</rscale>
<asrwt>0</asrwt>
<pdfrwt beam="1">  1        1 0.25999834E+00 0.97566556E+03</pdfrwt>
<pdfrwt beam="2">  1       -1 0.72309713E-01 0.97566556E+03</pdfrwt>
<totfact> 0.94398793E+00</totfact>
</mgrwt>
</event>
<event>
 4    5  0.7767175E-008  0.8340765E+03  0.7818608E-02  0.9641452E-01
         -1   -1    0    0    0  501 -0.00000000000E+00  0.00000000000E+00  0.12504899304E+04  0.12504899304E+04  0.50400000000E-02 0.  1.
          1   -1    0    0  501    0  0.00000000000E+00 -0.00000000000E+00 -0.19035162368E+04  0.19035162368E+04  0.50400000000E-02 0. -1.
    8880023    1    1    2    0    0 -0.34699248563E+03 -0.37612436518E+03  0.10662236504E+04  0.13537046953E+04  0.65864270000E+03 0.  0.
    8880022    1    1    2    0    0  0.34699248563E+03  0.37612436518E+03 -0.17192499567E+04  0.18003014719E+04  0.15294330000E+03 0.  0.
<mgrwt>
<rscale>  0 0.74612304E+03</rscale>
<asrwt>0</asrwt>
<pdfrwt beam="1">  1        1 0.29284865E+00 0.83407645E+03</pdfrwt>
<pdfrwt beam="2">  1       -1 0.19238307E+00 0.83407645E+03</pdfrwt>
<totfact> 0.61404322E-01</totfact>
</mgrwt>
</event>
<event>
 4    5  0.7767175E-008  0.1014298E+04  0.7818608E-02  0.9363086E-01
          1   -1    0    0  501    0  0.00000000000E+00  0.00000000000E+00  0.28704368750E+04  0.28704368750E+04  0.50400000000E-02 0. -1.
         -1   -1    0    0    0  501 -0.00000000000E+00 -0.00000000000E+00 -0.69300375776E+03  0.69300375778E+03  0.50400000000E-02 0.  1.
    8880023    1    1    2    0    0  0.66448656439E+02  0.76848893454E+03 -0.22210714016E+03  0.10383315725E+04  0.65864270000E+03 0.  1.
    8880022    1    1    2    0    0 -0.66448656439E+02 -0.76848893454E+03  0.23995402574E+04  0.25251090602E+04  0.15294330000E+03 0.  0.
<mgrwt>
<rscale>  0 0.95176861E+03</rscale>
<asrwt>0</asrwt>
<pdfrwt beam="1">  1        1 0.44160567E+00 0.10142982E+04</pdfrwt>
<pdfrwt beam="2">  1       -1 0.10661596E+00 0.10142982E+04</pdfrwt>
<totfact> 0.62341711E-01</totfact>
</mgrwt>
</event>
<event>
 4    5  0.7767175E-008  0.8692115E+03  0.7818608E-02  0.9577383E-01
          1   -1    0    0  501    0  0.00000000000E+00  0.00000000000E+00  0.70558537717E+03  0.70558537719E+03  0.50400000000E-02 0. -1.
         -1   -1    0    0    0  501 -0.00000000000E+00 -0.00000000000E+00 -0.15059477535E+04  0.15059477535E+04  0.50400000000E-02 0.  1.
    8880023    1    1    2    0    0  0.51485202108E+03  0.23800382457E+03 -0.12139754753E+04  0.14930723643E+04  0.65864270000E+03 0.  0.
    8880022    1    1    2    0    0 -0.51485202108E+03 -0.23800382457E+03  0.41361309902E+03  0.71846076637E+03  0.15294330000E+03 0.  0.
<mgrwt>
<rscale>  0 0.78811356E+03</rscale>
<asrwt>0</asrwt>
<pdfrwt beam="1">  1        1 0.10855160E+00 0.86921150E+03</pdfrwt>
<pdfrwt beam="2">  1       -1 0.23168427E+00 0.86921150E+03</pdfrwt>
<totfact> 0.25351049E+00</totfact>
</mgrwt>
</event>
<event>
 4    5  0.7767175E-008  0.8949483E+03  0.7818608E-02  0.9534190E-01
          1   -1    0    0  501    0  0.00000000000E+00  0.00000000000E+00  0.55276866232E+03  0.55276866234E+03  0.50400000000E-02 0. -1.
         -1   -1    0    0    0  501 -0.00000000000E+00 -0.00000000000E+00 -0.17510594456E+04  0.17510594456E+04  0.50400000000E-02 0.  1.
    8880023    1    1    2    0    0  0.12218288415E+03  0.59345903972E+03 -0.13873350984E+04  0.16509485669E+04  0.65864270000E+03 0.  1.
    8880022    1    1    2    0    0 -0.12218288415E+03 -0.59345903972E+03  0.18904431514E+03  0.65287954104E+03  0.15294330000E+03 0.  0.
<mgrwt>
<rscale>  0 0.81809368E+03</rscale>
<asrwt>0</asrwt>
<pdfrwt beam="1">  1        1 0.85041334E-01 0.89494832E+03</pdfrwt>
<pdfrwt beam="2">  1       -1 0.26939376E+00 0.89494832E+03</pdfrwt>
<totfact> 0.20574702E+00</totfact>
</mgrwt>
</event>
<event>
 4    5  0.7767175E-008  0.7350401E+03  0.7818608E-02  0.9874638E-01
         -1   -1    0    0    0  501 -0.00000000000E+00  0.00000000000E+00  0.64537623776E+03  0.64537623778E+03  0.50400000000E-02 0.  1.
          1   -1    0    0  501    0  0.00000000000E+00 -0.00000000000E+00 -0.18520064762E+04  0.18520064762E+04  0.50400000000E-02 0. -1.
    8880023    1    1    2    0    0 -0.16300273977E+03  0.28267269928E+03  0.40960250225E+03  0.84146192083E+03  0.65864270000E+03 0.  0.
    8880022    1    1    2    0    0  0.16300273977E+03 -0.28267269928E+03 -0.16162327407E+04  0.16559207931E+04  0.15294330000E+03 0.  0.
<mgrwt>
<rscale>  0 0.61506351E+03</rscale>
<asrwt>0</asrwt>
<pdfrwt beam="1">  1        1 0.28492407E+00 0.73504010E+03</pdfrwt>
<pdfrwt beam="2">  1       -1 0.99288653E-01 0.73504010E+03</pdfrwt>
<totfact> 0.38260009E+00</totfact>
</mgrwt>
</event>
<event>
 4    5  0.7767175E-008  0.8265589E+03  0.7818608E-02  0.9656065E-01
         -1   -1    0    0    0  501 -0.00000000000E+00  0.00000000000E+00  0.13298721460E+04  0.13298721460E+04  0.50400000000E-02 0.  1.
          1   -1    0    0  501    0  0.00000000000E+00 -0.00000000000E+00 -0.40218258666E+03  0.40218258670E+03  0.50400000000E-02 0. -1.
    8880023    1    1    2    0    0  0.30927807080E+03  0.39209238809E+03  0.88044902093E+03  0.12076382118E+04  0.65864270000E+03 0.  0.
    8880022    1    1    2    0    0 -0.30927807080E+03 -0.39209238809E+03  0.47240538360E+02  0.52441652086E+03  0.15294330000E+03 0.  0.
<mgrwt>
<rscale>  0 0.73693997E+03</rscale>
<asrwt>0</asrwt>
<pdfrwt beam="1">  1        1 0.61874244E-01 0.82655887E+03</pdfrwt>
<pdfrwt beam="2">  1       -1 0.20459571E+00 0.82655887E+03</pdfrwt>
<totfact> 0.85286778E+00</totfact>
</mgrwt>
</event>
<event>
 4    5  0.7767175E-008  0.1087442E+04  0.7818608E-02  0.9275168E-01
          1   -1    0    0  501    0  0.00000000000E+00  0.00000000000E+00  0.26680734074E+04  0.26680734074E+04  0.50400000000E-02 0. -1.
         -1   -1    0    0    0  501 -0.00000000000E+00 -0.00000000000E+00 -0.54197002599E+03  0.54197002601E+03  0.50400000000E-02 0.  1.
    8880023    1    1    2    0    0 -0.36148631774E+03  0.78616020054E+03  0.21763742004E+03  0.11090069755E+04  0.65864270000E+03 0.  0.
    8880022    1    1    2    0    0  0.36148631774E+03 -0.78616020054E+03  0.19084659614E+04  0.21010364579E+04  0.15294330000E+03 0.  0.
<mgrwt>
<rscale>  0 0.10310142E+04</rscale>
<asrwt>0</asrwt>
<pdfrwt beam="1">  1        1 0.41047284E+00 0.10874421E+04</pdfrwt>
<pdfrwt beam="2">  1       -1 0.83380003E-01 0.10874421E+04</pdfrwt>
<totfact> 0.14879631E+00</totfact>
</mgrwt>
</event>
<event>
 4    5  0.7767175E-008  0.6687446E+03  0.7818608E-02  0.1016579E+00
          1   -1    0    0  501    0  0.00000000000E+00  0.00000000000E+00  0.24648240282E+04  0.24648240282E+04  0.50400000000E-02 0. -1.
         -1   -1    0    0    0  501 -0.00000000000E+00 -0.00000000000E+00 -0.50884195244E+03  0.50884195247E+03  0.50400000000E-02 0.  1.
    8880023    1    1    2    0    0  0.34060080669E+02  0.11067559975E+03 -0.28323135110E+03  0.72625021996E+03  0.65864270000E+03 0.  1.
    8880022    1    1    2    0    0 -0.34060080669E+02 -0.11067559975E+03  0.22392134269E+04  0.22474157608E+04  0.15294330000E+03 0.  0.
<mgrwt>
<rscale>  0 0.48941518E+03</rscale>
<asrwt>0</asrwt>
<pdfrwt beam="1">  1        1 0.37920369E+00 0.66874463E+03</pdfrwt>
<pdfrwt beam="2">  1       -1 0.78283378E-01 0.66874463E+03</pdfrwt>
<totfact> 0.25293955E+00</totfact>
</mgrwt>
</event>
<event>
 4    5  0.7767175E-008  0.1378342E+04  0.7818608E-02  0.9000697E-01
         -1   -1    0    0    0  501 -0.00000000000E+00  0.00000000000E+00  0.10954647094E+04  0.10954647094E+04  0.50400000000E-02 0.  1.
          1   -1    0    0  501    0  0.00000000000E+00 -0.00000000000E+00 -0.15818291755E+04  0.15818291755E+04  0.50400000000E-02 0. -1.
    8880023    1    1    2    0    0 -0.35488332944E+03 -0.11576162004E+04 -0.43556367721E+02  0.13790303870E+04  0.65864270000E+03 0.  1.
    8880022    1    1    2    0    0  0.35488332944E+03  0.11576162004E+04 -0.44280809836E+03  0.12982634979E+04  0.15294330000E+03 0.  0.
<mgrwt>
<rscale>  0 0.13370405E+04</rscale>
<asrwt>0</asrwt>
<pdfrwt beam="1">  1        1 0.24335833E+00 0.13783424E+04</pdfrwt>
<pdfrwt beam="2">  1       -1 0.16853303E+00 0.13783424E+04</pdfrwt>
<totfact> 0.13926271E+00</totfact>
</mgrwt>
</event>
<event>
 4    5  0.7767175E-008  0.7401653E+03  0.7818608E-02  0.9859466E-01
          1   -1    0    0  501    0  0.00000000000E+00  0.00000000000E+00  0.10454841972E+04  0.10454841972E+04  0.50400000000E-02 0. -1.
         -1   -1    0    0    0  501 -0.00000000000E+00 -0.00000000000E+00 -0.49410277422E+03  0.49410277425E+03  0.50400000000E-02 0.  1.
    8880023    1    1    2    0    0  0.29742967507E+03  0.15990652961E+03 -0.14168596313E+03  0.75360442424E+03  0.65864270000E+03 0.  1.
    8880022    1    1    2    0    0 -0.29742967507E+03 -0.15990652961E+03  0.69306738609E+03  0.78598254719E+03  0.15294330000E+03 0.  0.
<mgrwt>
<rscale>  0 0.62266611E+03</rscale>
<asrwt>0</asrwt>
<pdfrwt beam="1">  1        1 0.16084372E+00 0.74016533E+03</pdfrwt>
<pdfrwt beam="2">  1       -1 0.76015812E-01 0.74016533E+03</pdfrwt>
<totfact> 0.24965202E+01</totfact>
</mgrwt>
</event>
<event>
 4    5  0.7767175E-008  0.7411474E+03  0.7818608E-02  0.9856617E-01
          1   -1    0    0  501    0  0.00000000000E+00  0.00000000000E+00  0.47221375064E+03  0.47221375067E+03  0.50400000000E-02 0. -1.
         -1   -1    0    0    0  501 -0.00000000000E+00 -0.00000000000E+00 -0.70434008350E+03  0.70434008352E+03  0.50400000000E-02 0.  1.
    8880023    1    1    2    0    0  0.33599013365E+03  0.50988958937E+02 -0.29670688788E+03  0.79833227883E+03  0.65864270000E+03 0.  1.
    8880022    1    1    2    0    0 -0.33599013365E+03 -0.50988958937E+02  0.64580555012E+02  0.37822155536E+03  0.15294330000E+03 0.  1.
<mgrwt>
<rscale>  0 0.62410656E+03</rscale>
<asrwt>0</asrwt>
<pdfrwt beam="1">  1        1 0.72648270E-01 0.74114739E+03</pdfrwt>
<pdfrwt beam="2">  1       -1 0.10836001E+00 0.74114739E+03</pdfrwt>
<totfact> 0.38799045E+01</totfact>
</mgrwt>
</event>
<event>
 4    5  0.7767175E-008  0.8561847E+03  0.7818608E-02  0.9600386E-01
         -1   -1    0    0    0  501 -0.00000000000E+00  0.00000000000E+00  0.46055369247E+03  0.46055369249E+03  0.50400000000E-02 0.  1.
          1   -1    0    0  501    0  0.00000000000E+00 -0.00000000000E+00 -0.26355713585E+04  0.26355713586E+04  0.50400000000E-02 0. -1.
    8880023    1    1    2    0    0  0.14996046052E+03  0.52607404414E+03 -0.83341730225E+01  0.85622526495E+03  0.65864270000E+03 0.  0.
    8880022    1    1    2    0    0 -0.14996046052E+03 -0.52607404414E+03 -0.21666834931E+04  0.22398997861E+04  0.15294330000E+03 0. -1.
<mgrwt>
<rscale>  0 0.77270605E+03</rscale>
<asrwt>0</asrwt>
<pdfrwt beam="1">  1        1 0.40547251E+00 0.85618470E+03</pdfrwt>
<pdfrwt beam="2">  1       -1 0.70854416E-01 0.85618470E+03</pdfrwt>
<totfact> 0.22909192E+00</totfact>
</mgrwt>
</event>
<event>
 4    5  0.7767175E-008  0.6797646E+03  0.7818608E-02  0.1009457E+00
          1   -1    0    0  501    0  0.00000000000E+00  0.00000000000E+00  0.98618586464E+03  0.98618586465E+03  0.50400000000E-02 0. -1.
         -1   -1    0    0    0  501 -0.00000000000E+00 -0.00000000000E+00 -0.57527044648E+03  0.57527044650E+03  0.50400000000E-02 0.  1.
    8880023    1    1    2    0    0  0.71888548007E+02 -0.15199248309E+03 -0.35193435988E+03  0.76546566100E+03  0.65864270000E+03 0.  1.
    8880022    1    1    2    0    0 -0.71888548007E+02  0.15199248309E+03  0.76284977804E+03  0.79599065015E+03  0.15294330000E+03 0.  0.
<mgrwt>
<rscale>  0 0.51690960E+03</rscale>
<asrwt>0</asrwt>
<pdfrwt beam="1">  1        1 0.15172090E+00 0.67976458E+03</pdfrwt>
<pdfrwt beam="2">  1       -1 0.88503146E-01 0.67976458E+03</pdfrwt>
<totfact> 0.20188525E+01</totfact>
</mgrwt>
</event>
<event>
 4    5  0.7767175E-008  0.8004200E+03  0.7818608E-02  0.9709889E-01
          1   -1    0    0  501    0  0.00000000000E+00  0.00000000000E+00  0.69084558760E+03  0.69084558762E+03  0.50400000000E-02 0. -1.
         -1   -1    0    0    0  501 -0.00000000000E+00 -0.00000000000E+00 -0.22182847398E+04  0.22182847398E+04  0.50400000000E-02 0.  1.
    8880023    1    1    2    0    0  0.44586283497E+03  0.89823995633E+02 -0.20493743603E+04  0.22001380622E+04  0.65864270000E+03 0.  1.
    8880022    1    1    2    0    0 -0.44586283497E+03 -0.89823995633E+02  0.52193520805E+03  0.70899226528E+03  0.15294330000E+03 0.  0.
<mgrwt>
<rscale>  0 0.70431069E+03</rscale>
<asrwt>0</asrwt>
<pdfrwt beam="1">  1        1 0.10628394E+00 0.80042003E+03</pdfrwt>
<pdfrwt beam="2">  1       -1 0.34127457E+00 0.80042003E+03</pdfrwt>
<totfact> 0.52049793E-01</totfact>
</mgrwt>
</event>
<event>
 4    5  0.8583812E-008  0.7957543E+03  0.7818608E-02  0.9720052E-01
         -1   -1    0    0    0  501 -0.00000000000E+00  0.00000000000E+00  0.10308641229E+04  0.10308641229E+04  0.50400000000E-02 0.  1.
          1   -1    0    0  501    0  0.00000000000E+00 -0.00000000000E+00 -0.10475800476E+04  0.10475800476E+04  0.50400000000E-02 0. -1.
    8880023    1    1    2    0    0  0.44645927539E+03 -0.94262004851E+01  0.80429030050E+03  0.11314185042E+04  0.65864270000E+03 0.  1.
    8880022    1    1    2    0    0 -0.44645927539E+03  0.94262004851E+01 -0.82100622520E+03  0.94702566632E+03  0.15294330000E+03 0.  0.
<mgrwt>
<rscale>  0 0.69835333E+03</rscale>
<asrwt>0</asrwt>
<pdfrwt beam="1">  1        1 0.16116616E+00 0.79575432E+03</pdfrwt>
<pdfrwt beam="2">  1       -1 0.15859448E+00 0.79575432E+03</pdfrwt>
<totfact> 0.42901127E+00</totfact>
</mgrwt>
</event>
<event>
 4    5  0.7767175E-008  0.1427714E+04  0.7818608E-02  0.8962442E-01
         -1   -1    0    0    0  501 -0.00000000000E+00  0.00000000000E+00  0.10393990618E+04  0.10393990618E+04  0.50400000000E-02 0.  1.
          1   -1    0    0  501    0  0.00000000000E+00 -0.00000000000E+00 -0.30604961441E+04  0.30604961441E+04  0.50400000000E-02 0. -1.
    8880023    1    1    2    0    0 -0.11686459842E+04  0.48869527654E+03  0.29289861666E+03  0.14574485636E+04  0.65864270000E+03 0.  0.
    8880022    1    1    2    0    0  0.11686459842E+04 -0.48869527654E+03 -0.23139956990E+04  0.26424466423E+04  0.15294330000E+03 0.  0.
<mgrwt>
<rscale>  0 0.13881485E+04</rscale>
<asrwt>0</asrwt>
<pdfrwt beam="1">  1        1 0.47084556E+00 0.14277138E+04</pdfrwt>
<pdfrwt beam="2">  1       -1 0.15990755E+00 0.14277138E+04</pdfrwt>
<totfact> 0.15173109E-01</totfact>
</mgrwt>
</event>
<event>
 4    5  0.7767175E-008  0.7770581E+03  0.7818608E-02  0.9762794E-01
          1   -1    0    0  501    0  0.00000000000E+00  0.00000000000E+00  0.12698712368E+04  0.12698712368E+04  0.50400000000E-02 0. -1.
         -1   -1    0    0    0  501 -0.00000000000E+00 -0.00000000000E+00 -0.95088419415E+03  0.95088419416E+03  0.50400000000E-02 0.  1.
    8880023    1    1    2    0    0 -0.17879856676E+03  0.37153746523E+03 -0.74064614161E+03  0.10734877404E+04  0.65864270000E+03 0.  0.
    8880022    1    1    2    0    0  0.17879856676E+03 -0.37153746523E+03  0.10596331843E+04  0.11472676905E+04  0.15294330000E+03 0.  0.
<mgrwt>
<rscale>  0 0.67398052E+03</rscale>
<asrwt>0</asrwt>
<pdfrwt beam="1">  1        1 0.19536480E+00 0.77705806E+03</pdfrwt>
<pdfrwt beam="2">  1       -1 0.14628988E+00 0.77705806E+03</pdfrwt>
<totfact> 0.36761596E+00</totfact>
</mgrwt>
</event>
<event>
 4    5  0.7767175E-008  0.7180063E+03  0.7818608E-02  0.9929391E-01
          1   -1    0    0  501    0  0.00000000000E+00  0.00000000000E+00  0.19718492190E+04  0.19718492190E+04  0.50400000000E-02 0. -1.
         -1   -1    0    0    0  501 -0.00000000000E+00 -0.00000000000E+00 -0.33197381396E+03  0.33197381400E+03  0.50400000000E-02 0.  1.
    8880023    1    1    2    0    0  0.11582313389E+03  0.26135763313E+03  0.93785832090E+02  0.72410551669E+03  0.65864270000E+03 0.  1.
    8880022    1    1    2    0    0 -0.11582313389E+03 -0.26135763313E+03  0.15460895729E+04  0.15797175163E+04  0.15294330000E+03 0.  0.
<mgrwt>
<rscale>  0 0.58857795E+03</rscale>
<asrwt>0</asrwt>
<pdfrwt beam="1">  1        1 0.30336143E+00 0.71800628E+03</pdfrwt>
<pdfrwt beam="2">  1       -1 0.51072893E-01 0.71800628E+03</pdfrwt>
<totfact> 0.12591733E+01</totfact>
</mgrwt>
</event>
<event>
 4    5  0.7767175E-008  0.1251044E+04  0.7818608E-02  0.9109033E-01
         -1   -1    0    0    0  501 -0.00000000000E+00  0.00000000000E+00  0.88689537675E+03  0.88689537677E+03  0.50400000000E-02 0.  1.
          1   -1    0    0  501    0  0.00000000000E+00 -0.00000000000E+00 -0.28513266166E+04  0.28513266166E+04  0.50400000000E-02 0. -1.
    8880023    1    1    2    0    0 -0.52118373036E+03  0.92718365698E+03  0.25096833801E+03  0.12759691718E+04  0.65864270000E+03 0.  0.
    8880022    1    1    2    0    0  0.52118373036E+03 -0.92718365698E+03 -0.22153995779E+04  0.24622528215E+04  0.15294330000E+03 0.  0.
<mgrwt>
<rscale>  0 0.12043783E+04</rscale>
<asrwt>0</asrwt>
<pdfrwt beam="1">  1        1 0.43866563E+00 0.12510445E+04</pdfrwt>
<pdfrwt beam="2">  1       -1 0.13644544E+00 0.12510445E+04</pdfrwt>
<totfact> 0.33775784E-01</totfact>
</mgrwt>
</event>
<event>
 4    5  0.7767175E-008  0.9237706E+03  0.7818608E-02  0.9488902E-01
          1   -1    0    0  501    0  0.00000000000E+00  0.00000000000E+00  0.10233287679E+04  0.10233287679E+04  0.50400000000E-02 0. -1.
         -1   -1    0    0    0  501 -0.00000000000E+00 -0.00000000000E+00 -0.86180777722E+03  0.86180777724E+03  0.50400000000E-02 0.  1.
    8880023    1    1    2    0    0  0.62131785695E+03  0.18304666090E+03 -0.40736171419E+03  0.10096017690E+04  0.65864270000E+03 0.  0.
    8880022    1    1    2    0    0 -0.62131785695E+03 -0.18304666090E+03  0.56888270491E+03  0.87553477623E+03  0.15294330000E+03 0.  0.
<mgrwt>
<rscale>  0 0.85107031E+03</rscale>
<asrwt>0</asrwt>
<pdfrwt beam="1">  1        1 0.15743520E+00 0.92377062E+03</pdfrwt>
<pdfrwt beam="2">  1       -1 0.13258581E+00 0.92377062E+03</pdfrwt>
<totfact> 0.70786092E+00</totfact>
</mgrwt>
</event>
<event>
 4    5  0.7767175E-008  0.1045907E+04  0.7818608E-02  0.9323818E-01
         -1   -1    0    0    0  501 -0.00000000000E+00  0.00000000000E+00  0.59950105047E+03  0.59950105049E+03  0.50400000000E-02 0.  1.
          1   -1    0    0  501    0  0.00000000000E+00 -0.00000000000E+00 -0.28190761559E+04  0.28190761559E+04  0.50400000000E-02 0. -1.
    8880023    1    1    2    0    0  0.54090041597E+03  0.60624847372E+03  0.43897831483E+01  0.10459158419E+04  0.65864270000E+03 0.  0.
    8880022    1    1    2    0    0 -0.54090041597E+03 -0.60624847372E+03 -0.22239648886E+04  0.23726613645E+04  0.15294330000E+03 0.  0.
<mgrwt>
<rscale>  0 0.98619358E+03</rscale>
<asrwt>0</asrwt>
<pdfrwt beam="1">  1        1 0.43370402E+00 0.10459066E+04</pdfrwt>
<pdfrwt beam="2">  1       -1 0.92230933E-01 0.10459066E+04</pdfrwt>
<totfact> 0.93956842E-01</totfact>
</mgrwt>
</event>
<event>
 4    5  0.7767175E-008  0.8045583E+03  0.7818608E-02  0.9701025E-01
         -1   -1    0    0    0  501 -0.00000000000E+00  0.00000000000E+00  0.66388672826E+03  0.66388672828E+03  0.50400000000E-02 0.  1.
          1   -1    0    0  501    0  0.00000000000E+00 -0.00000000000E+00 -0.11314539415E+04  0.11314539415E+04  0.50400000000E-02 0. -1.
    8880023    1    1    2    0    0  0.44655591943E+03  0.11870842034E+03  0.32298834717E+03  0.86696917875E+03  0.65864270000E+03 0.  1.
    8880022    1    1    2    0    0 -0.44655591943E+03 -0.11870842034E+03 -0.79055556038E+03  0.92837149100E+03  0.15294330000E+03 0.  0.
<mgrwt>
<rscale>  0 0.70955776E+03</rscale>
<asrwt>0</asrwt>
<pdfrwt beam="1">  1        1 0.17406984E+00 0.80455832E+03</pdfrwt>
<pdfrwt beam="2">  1       -1 0.10213642E+00 0.80455832E+03</pdfrwt>
<totfact> 0.11182780E+01</totfact>
</mgrwt>
</event>
<event>
 4    5  0.7767175E-008  0.8943336E+03  0.7818608E-02  0.9535190E-01
         -1   -1    0    0    0  501 -0.00000000000E+00  0.00000000000E+00  0.13237639750E+04  0.13237639750E+04  0.50400000000E-02 0.  1.
          1   -1    0    0  501    0  0.00000000000E+00 -0.00000000000E+00 -0.90022525823E+03  0.90022525824E+03  0.50400000000E-02 0. -1.
    8880023    1    1    2    0    0  0.15427558095E+02  0.60480114187E+03  0.10229076940E+04  0.13587394112E+04  0.65864270000E+03 0.  1.
    8880022    1    1    2    0    0 -0.15427558095E+02 -0.60480114187E+03 -0.59936897722E+03  0.86524982209E+03  0.15294330000E+03 0.  0.
<mgrwt>
<rscale>  0 0.81738399E+03</rscale>
<asrwt>0</asrwt>
<pdfrwt beam="1">  1        1 0.13849619E+00 0.89433363E+03</pdfrwt>
<pdfrwt beam="2">  1       -1 0.20365600E+00 0.89433363E+03</pdfrwt>
<totfact> 0.26310563E+00</totfact>
</mgrwt>
</event>
<event>
 4    5  0.7767175E-008  0.6731928E+03  0.7818608E-02  0.1013470E+00
          1   -1    0    0  501    0  0.00000000000E+00  0.00000000000E+00  0.57763248653E+03  0.57763248655E+03  0.50400000000E-02 0. -1.
         -1   -1    0    0    0  501 -0.00000000000E+00 -0.00000000000E+00 -0.57179055894E+03  0.57179055896E+03  0.50400000000E-02 0.  1.
    8880023    1    1    2    0    0  0.13557322318E+03  0.31595378858E+02 -0.33408152837E+03  0.75153113087E+03  0.65864270000E+03 0.  1.
    8880022    1    1    2    0    0 -0.13557322318E+03 -0.31595378858E+02  0.33992345596E+03  0.39789191464E+03  0.15294330000E+03 0.  0.
<mgrwt>
<rscale>  0 0.50118382E+03</rscale>
<asrwt>0</asrwt>
<pdfrwt beam="1">  1        1 0.88866536E-01 0.67319282E+03</pdfrwt>
<pdfrwt beam="2">  1       -1 0.87967778E-01 0.67319282E+03</pdfrwt>
<totfact> 0.47300092E+01</totfact>
</mgrwt>
</event>
<event>
 4    5  0.7767175E-008  0.9325585E+03  0.7818608E-02  0.9475666E-01
         -1   -1    0    0    0  501 -0.00000000000E+00  0.00000000000E+00  0.54202338035E+03  0.54202338037E+03  0.50400000000E-02 0.  1.
          1   -1    0    0  501    0  0.00000000000E+00 -0.00000000000E+00 -0.22812388329E+04  0.22812388329E+04  0.50400000000E-02 0. -1.
    8880023    1    1    2    0    0  0.36457961033E+03  0.55039701794E+03  0.25493136526E+02  0.93290689562E+03  0.65864270000E+03 0.  0.
    8880022    1    1    2    0    0 -0.36457961033E+03 -0.55039701794E+03 -0.17647085891E+04  0.18903553177E+04  0.15294330000E+03 0.  0.
<mgrwt>
<rscale>  0 0.86101920E+03</rscale>
<asrwt>0</asrwt>
<pdfrwt beam="1">  1        1 0.35095981E+00 0.93255851E+03</pdfrwt>
<pdfrwt beam="2">  1       -1 0.83388214E-01 0.93255851E+03</pdfrwt>
<totfact> 0.28052795E+00</totfact>
</mgrwt>
</event>
<event>
 4    5  0.7767175E-008  0.8900191E+03  0.7818608E-02  0.9542248E-01
         -1   -1    0    0    0  501 -0.00000000000E+00  0.00000000000E+00  0.38931960647E+04  0.38931960648E+04  0.50400000000E-02 0.  1.
          1   -1    0    0  501    0  0.00000000000E+00 -0.00000000000E+00 -0.10125578972E+04  0.10125578973E+04  0.50400000000E-02 0. -1.
    8880023    1    1    2    0    0  0.33060140438E+03  0.49902560480E+03  0.37416292888E+04  0.38460270129E+04  0.65864270000E+03 0.  1.
    8880022    1    1    2    0    0 -0.33060140438E+03 -0.49902560480E+03 -0.86099112127E+03  0.10597269491E+04  0.15294330000E+03 0.  0.
<mgrwt>
<rscale>  0 0.81239451E+03</rscale>
<asrwt>0</asrwt>
<pdfrwt beam="1">  1        1 0.15577813E+00 0.89001913E+03</pdfrwt>
<pdfrwt beam="2">  1       -1 0.59895325E+00 0.89001913E+03</pdfrwt>
<totfact> 0.66347986E-03</totfact>
</mgrwt>
</event>
<event>
 4    5  0.7767175E-008  0.7115993E+03  0.7818608E-02  0.9952110E-01
          1   -1    0    0  501    0  0.00000000000E+00  0.00000000000E+00  0.27474185752E+04  0.27474185753E+04  0.50400000000E-02 0. -1.
         -1   -1    0    0    0  501 -0.00000000000E+00 -0.00000000000E+00 -0.83980080442E+03  0.83980080444E+03  0.50400000000E-02 0.  1.
    8880023    1    1    2    0    0 -0.22355426621E+03  0.15028908025E+03 -0.67813664704E+03  0.98297651849E+03  0.65864270000E+03 0.  1.
    8880022    1    1    2    0    0  0.22355426621E+03 -0.15028908025E+03  0.25857544179E+04  0.26042428612E+04  0.15294330000E+03 0.  0.
<mgrwt>
<rscale>  0 0.57800961E+03</rscale>
<asrwt>0</asrwt>
<pdfrwt beam="1">  1        1 0.42267978E+00 0.71159927E+03</pdfrwt>
<pdfrwt beam="2">  1       -1 0.12920012E+00 0.71159927E+03</pdfrwt>
<totfact> 0.50850923E-01</totfact>
</mgrwt>
</event>
<event>
 4    5  0.7767175E-008  0.1387187E+04  0.7818608E-02  0.8993704E-01
          1   -1    0    0  501    0  0.00000000000E+00  0.00000000000E+00  0.18964363083E+04  0.18964363083E+04  0.50400000000E-02 0. -1.
         -1   -1    0    0    0  501 -0.00000000000E+00 -0.00000000000E+00 -0.21869252400E+04  0.21869252400E+04  0.50400000000E-02 0.  1.
    8880023    1    1    2    0    0  0.15470691835E+03  0.12110086934E+04 -0.17119085471E+04  0.22033877021E+04  0.65864270000E+03 0.  0.
    8880022    1    1    2    0    0 -0.15470691835E+03 -0.12110086934E+04  0.14214196155E+04  0.18799738462E+04  0.15294330000E+03 0.  0.
<mgrwt>
<rscale>  0 0.13462079E+04</rscale>
<asrwt>0</asrwt>
<pdfrwt beam="1">  1        1 0.29175943E+00 0.13871865E+04</pdfrwt>
<pdfrwt beam="2">  1       -1 0.33645004E+00 0.13871865E+04</pdfrwt>
<totfact> 0.64179414E-02</totfact>
</mgrwt>
</event>
<event>
 4    5  0.7767175E-008  0.6966731E+03  0.7818608E-02  0.1001129E+00
          1   -1    0    0  501    0  0.00000000000E+00  0.00000000000E+00  0.35105699217E+04  0.35105699217E+04  0.50400000000E-02 0. -1.
         -1   -1    0    0    0  501 -0.00000000000E+00 -0.00000000000E+00 -0.67488872043E+02  0.67488872232E+02  0.50400000000E-02 0.  1.
    8880023    1    1    2    0    0  0.10190275185E+03 -0.20287702030E+03  0.25952079117E+04  0.26870909116E+04  0.65864270000E+03 0. -1.
    8880022    1    1    2    0    0 -0.10190275185E+03  0.20287702030E+03  0.84787313797E+03  0.89096788231E+03  0.15294330000E+03 0.  0.
<mgrwt>
<rscale>  0 0.55157849E+03</rscale>
<asrwt>0</asrwt>
<pdfrwt beam="1">  1        1 0.54008777E+00 0.69667314E+03</pdfrwt>
<pdfrwt beam="2">  1       -1 0.10382902E-01 0.69667314E+03</pdfrwt>
<totfact> 0.15811113E+01</totfact>
</mgrwt>
</event>
<event>
 4    5  0.7767175E-008  0.6678919E+03  0.7818608E-02  0.1017221E+00
         -1   -1    0    0    0  501 -0.00000000000E+00  0.00000000000E+00  0.75154493018E+03  0.75154493020E+03  0.50400000000E-02 0.  1.
          1   -1    0    0  501    0  0.00000000000E+00 -0.00000000000E+00 -0.12557775685E+04  0.12557775685E+04  0.50400000000E-02 0. -1.
    8880023    1    1    2    0    0 -0.10331651645E+03 -0.39938817691E+02  0.59348583927E+03  0.89347918801E+03  0.65864270000E+03 0.  1.
    8880022    1    1    2    0    0  0.10331651645E+03  0.39938817691E+02 -0.10977184776E+04  0.11138433107E+04  0.15294330000E+03 0.  0.
<mgrwt>
<rscale>  0 0.48702800E+03</rscale>
<asrwt>0</asrwt>
<pdfrwt beam="1">  1        1 0.19319655E+00 0.66789192E+03</pdfrwt>
<pdfrwt beam="2">  1       -1 0.11562230E+00 0.66789192E+03</pdfrwt>
<totfact> 0.69320485E+00</totfact>
</mgrwt>
</event>
<event>
 4    5  0.7767175E-008  0.8024935E+03  0.7818608E-02  0.9705430E-01
         -1   -1    0    0    0  501 -0.00000000000E+00  0.00000000000E+00  0.44502283483E+03  0.44502283486E+03  0.50400000000E-02 0.  1.
          1   -1    0    0  501    0  0.00000000000E+00 -0.00000000000E+00 -0.19307899897E+04  0.19307899897E+04  0.50400000000E-02 0. -1.
    8880023    1    1    2    0    0 -0.61421699398E+02 -0.45432692186E+03  0.11397457146E+02  0.80257441111E+03  0.65864270000E+03 0.  0.
    8880022    1    1    2    0    0  0.61421699398E+02  0.45432692186E+03 -0.14971646120E+04  0.15732384135E+04  0.15294330000E+03 0.  0.
<mgrwt>
<rscale>  0 0.70694389E+03</rscale>
<asrwt>0</asrwt>
<pdfrwt beam="1">  1        1 0.29704461E+00 0.80249348E+03</pdfrwt>
<pdfrwt beam="2">  1       -1 0.68465052E-01 0.80249348E+03</pdfrwt>
<totfact> 0.74412862E+00</totfact>
</mgrwt>
</event>
<event>
 4    5  0.7767175E-008  0.1698765E+04  0.7818608E-02  0.8780705E-01
          1   -1    0    0  501    0  0.00000000000E+00  0.00000000000E+00  0.46047353542E+04  0.46047353543E+04  0.50400000000E-02 0. -1.
         -1   -1    0    0    0  501 -0.00000000000E+00 -0.00000000000E+00 -0.14486064666E+04  0.14486064666E+04  0.50400000000E-02 0.  1.
    8880023    1    1    2    0    0 -0.35596281718E+03  0.15248876526E+04  0.39436118363E+04  0.42939348391E+04  0.65864270000E+03 0.  0.
    8880022    1    1    2    0    0  0.35596281718E+03 -0.15248876526E+04 -0.78748294871E+03  0.17594069818E+04  0.15294330000E+03 0.  0.
<mgrwt>
<rscale>  0 0.16664998E+04</rscale>
<asrwt>0</asrwt>
<pdfrwt beam="1">  1        1 0.70842081E+00 0.16987649E+04</pdfrwt>
<pdfrwt beam="2">  1       -1 0.22286254E+00 0.16987649E+04</pdfrwt>
<totfact> 0.24671819E-03</totfact>
</mgrwt>
</event>
<event>
 4    5  0.7767175E-008  0.1269250E+04  0.7818608E-02  0.9092580E-01
         -1   -1    0    0    0  501 -0.00000000000E+00  0.00000000000E+00  0.11189454111E+04  0.11189454112E+04  0.50400000000E-02 0.  1.
          1   -1    0    0  501    0  0.00000000000E+00 -0.00000000000E+00 -0.13726072048E+04  0.13726072049E+04  0.50400000000E-02 0. -1.
    8880023    1    1    2    0    0  0.70444833784E+03 -0.82519019091E+03  0.23668278835E+03  0.12911294515E+04  0.65864270000E+03 0.  0.
    8880022    1    1    2    0    0 -0.70444833784E+03  0.82519019091E+03 -0.49034458206E+03  0.12004231646E+04  0.15294330000E+03 0.  0.
<mgrwt>
<rscale>  0 0.12234445E+04</rscale>
<asrwt>0</asrwt>
<pdfrwt beam="1">  1        1 0.21117034E+00 0.12692504E+04</pdfrwt>
<pdfrwt beam="2">  1       -1 0.17214545E+00 0.12692504E+04</pdfrwt>
<totfact> 0.18540282E+00</totfact>
</mgrwt>
</event>
<event>
 4    5  0.7767175E-008  0.1181737E+04  0.7818608E-02  0.9175083E-01
          1   -1    0    0  501    0  0.00000000000E+00  0.00000000000E+00  0.11614854465E+04  0.11614854465E+04  0.50400000000E-02 0. -1.
         -1   -1    0    0    0  501 -0.00000000000E+00 -0.00000000000E+00 -0.10950237530E+04  0.10950237530E+04  0.50400000000E-02 0.  1.
    8880023    1    1    2    0    0  0.30417916575E+03  0.93282778349E+03 -0.26227478103E+03  0.12104920097E+04  0.65864270000E+03 0.  0.
    8880022    1    1    2    0    0 -0.30417916575E+03 -0.93282778349E+03  0.32873647454E+03  0.10460171897E+04  0.15294330000E+03 0.  0.
<mgrwt>
<rscale>  0 0.11314359E+04</rscale>
<asrwt>0</asrwt>
<pdfrwt beam="1">  1        1 0.17869007E+00 0.11817372E+04</pdfrwt>
<pdfrwt beam="2">  1       -1 0.16846519E+00 0.11817372E+04</pdfrwt>
<totfact> 0.28308989E+00</totfact>
</mgrwt>
</event>
<event>
 4    5  0.7767175E-008  0.1225209E+04  0.7818608E-02  0.9132998E-01
         -1   -1    0    0    0  501 -0.00000000000E+00  0.00000000000E+00  0.49260882498E+03  0.49260882500E+03  0.50400000000E-02 0.  1.
          1   -1    0    0  501    0  0.00000000000E+00 -0.00000000000E+00 -0.27694346471E+04  0.27694346471E+04  0.50400000000E-02 0. -1.
    8880023    1    1    2    0    0 -0.10331152555E+04  0.80983163058E+00 -0.83897737537E+03  0.14849313215E+04  0.65864270000E+03 0.  1.
    8880022    1    1    2    0    0  0.10331152555E+04 -0.80983163058E+00 -0.14378484467E+04  0.17771121506E+04  0.15294330000E+03 0.  1.
<mgrwt>
<rscale>  0 0.11772586E+04</rscale>
<asrwt>0</asrwt>
<pdfrwt beam="1">  1        1 0.42606686E+00 0.12252094E+04</pdfrwt>
<pdfrwt beam="2">  1       -1 0.75785974E-01 0.12252094E+04</pdfrwt>
<totfact> 0.15207433E+00</totfact>
</mgrwt>
</event>
<event>
 4    5  0.7767175E-008  0.1202489E+04  0.7818608E-02  0.9154706E-01
          1   -1    0    0  501    0  0.00000000000E+00  0.00000000000E+00  0.16406486597E+04  0.16406486597E+04  0.50400000000E-02 0. -1.
         -1   -1    0    0    0  501 -0.00000000000E+00 -0.00000000000E+00 -0.95626875337E+03  0.95626875339E+03  0.50400000000E-02 0.  1.
    8880023    1    1    2    0    0  0.75952577081E+03 -0.65976556860E+03 -0.23529027168E+03  0.12252925040E+04  0.65864270000E+03 0.  0.
    8880022    1    1    2    0    0 -0.75952577081E+03  0.65976556860E+03  0.91967017798E+03  0.13716249091E+04  0.15294330000E+03 0.  0.
<mgrwt>
<rscale>  0 0.11533414E+04</rscale>
<asrwt>0</asrwt>
<pdfrwt beam="1">  1        1 0.25240749E+00 0.12024892E+04</pdfrwt>
<pdfrwt beam="2">  1       -1 0.14711827E+00 0.12024892E+04</pdfrwt>
<totfact> 0.18872697E+00</totfact>
</mgrwt>
</event>
<event>
 4    5  0.7767175E-008  0.1108659E+04  0.7818608E-02  0.9251477E-01
         -1   -1    0    0    0  501 -0.00000000000E+00  0.00000000000E+00  0.13796873843E+04  0.13796873843E+04  0.50400000000E-02 0.  1.
          1   -1    0    0  501    0  0.00000000000E+00 -0.00000000000E+00 -0.92138325665E+03  0.92138325667E+03  0.50400000000E-02 0. -1.
    8880023    1    1    2    0    0  0.18061611226E+03 -0.87332214569E+03  0.76354052393E+03  0.13461493558E+04  0.65864270000E+03 0.  0.
    8880022    1    1    2    0    0 -0.18061611226E+03  0.87332214569E+03 -0.30523639632E+03  0.95492128514E+03  0.15294330000E+03 0.  0.
<mgrwt>
<rscale>  0 0.10537542E+04</rscale>
<asrwt>0</asrwt>
<pdfrwt beam="1">  1        1 0.14175127E+00 0.11086586E+04</pdfrwt>
<pdfrwt beam="2">  1       -1 0.21225960E+00 0.11086586E+04</pdfrwt>
<totfact> 0.21511008E+00</totfact>
</mgrwt>
</event>
<event>
 4    5  0.7767175E-008  0.8434051E+03  0.7818608E-02  0.9623793E-01
         -1   -1    0    0    0  501 -0.00000000000E+00  0.00000000000E+00  0.25538847134E+03  0.25538847139E+03  0.50400000000E-02 0.  1.
          1   -1    0    0  501    0  0.00000000000E+00 -0.00000000000E+00 -0.26528258234E+04  0.26528258234E+04  0.50400000000E-02 0. -1.
    8880023    1    1    2    0    0  0.41210619507E+03  0.32816219811E+03 -0.61648325077E+03  0.10446931363E+04  0.65864270000E+03 0.  0.
    8880022    1    1    2    0    0 -0.41210619507E+03 -0.32816219811E+03 -0.17809541013E+04  0.18635211585E+04  0.15294330000E+03 0.  0.
<mgrwt>
<rscale>  0 0.75741237E+03</rscale>
<asrwt>0</asrwt>
<pdfrwt beam="1">  1        1 0.40812703E+00 0.84340509E+03</pdfrwt>
<pdfrwt beam="2">  1       -1 0.39290536E-01 0.84340509E+03</pdfrwt>
<totfact> 0.69532640E+00</totfact>
</mgrwt>
</event>
<event>
 4    5  0.1114566E-007  0.1220454E+04  0.7818608E-02  0.9137492E-01
          1   -1    0    0  501    0  0.00000000000E+00  0.00000000000E+00  0.27089657955E+04  0.27089657955E+04  0.50400000000E-02 0. -1.
         -1   -1    0    0    0  501 -0.00000000000E+00 -0.00000000000E+00 -0.11541183876E+04  0.11541183876E+04  0.50400000000E-02 0.  1.
    8880023    1    1    2    0    0  0.13971431281E+03  0.10179280824E+04 -0.68107841767E+03  0.13976321717E+04  0.65864270000E+03 0.  0.
    8880022    1    1    2    0    0 -0.13971431281E+03 -0.10179280824E+04  0.22359258255E+04  0.24654520114E+04  0.15294330000E+03 0.  0.
<mgrwt>
<rscale>  0 0.11722581E+04</rscale>
<asrwt>0</asrwt>
<pdfrwt beam="1">  1        1 0.41676397E+00 0.12204540E+04</pdfrwt>
<pdfrwt beam="2">  1       -1 0.17755668E+00 0.12204540E+04</pdfrwt>
<totfact> 0.20646767E-01</totfact>
</mgrwt>
</event>
<event>
 4    5  0.7767175E-008  0.7599182E+03  0.7818608E-02  0.9805319E-01
          1   -1    0    0  501    0  0.00000000000E+00  0.00000000000E+00  0.26625647480E+04  0.26625647480E+04  0.50400000000E-02 0. -1.
         -1   -1    0    0    0  501 -0.00000000000E+00 -0.00000000000E+00 -0.21388457506E+03  0.21388457511E+03  0.50400000000E-02 0.  1.
    8880023    1    1    2    0    0 -0.19090428503E+03  0.32744629042E+03  0.55978867029E+03  0.94384272037E+03  0.65864270000E+03 0.  0.
    8880022    1    1    2    0    0  0.19090428503E+03 -0.32744629042E+03  0.18888915026E+04  0.19326066027E+04  0.15294330000E+03 0.  0.
<mgrwt>
<rscale>  0 0.65077864E+03</rscale>
<asrwt>0</asrwt>
<pdfrwt beam="1">  1        1 0.40962533E+00 0.75991824E+03</pdfrwt>
<pdfrwt beam="2">  1       -1 0.32905321E-01 0.75991824E+03</pdfrwt>
<totfact> 0.95306846E+00</totfact>
</mgrwt>
</event>
<event>
 4    5  0.7767175E-008  0.7596103E+03  0.7818608E-02  0.9806117E-01
          1   -1    0    0  501    0  0.00000000000E+00  0.00000000000E+00  0.34889169376E+03  0.34889169379E+03  0.50400000000E-02 0. -1.
         -1   -1    0    0    0  501 -0.00000000000E+00 -0.00000000000E+00 -0.13002584813E+04  0.13002584813E+04  0.50400000000E-02 0.  1.
    8880023    1    1    2    0    0  0.23946515375E+03  0.29300853549E+03 -0.98008268633E+03  0.12399878387E+04  0.65864270000E+03 0.  1.
    8880022    1    1    2    0    0 -0.23946515375E+03 -0.29300853549E+03  0.28715898749E+02  0.40916233647E+03  0.15294330000E+03 0.  0.
<mgrwt>
<rscale>  0 0.65035275E+03</rscale>
<asrwt>0</asrwt>
<pdfrwt beam="1">  1        1 0.53675646E-01 0.75961027E+03</pdfrwt>
<pdfrwt beam="2">  1       -1 0.20003976E+00 0.75961027E+03</pdfrwt>
<totfact> 0.11136138E+01</totfact>
</mgrwt>
</event>
<event>
 4    5  0.7767175E-008  0.1206829E+04  0.7818608E-02  0.9150512E-01
          1   -1    0    0  501    0  0.00000000000E+00  0.00000000000E+00  0.23166389138E+04  0.23166389138E+04  0.50400000000E-02 0. -1.
         -1   -1    0    0    0  501 -0.00000000000E+00 -0.00000000000E+00 -0.11063676523E+04  0.11063676524E+04  0.50400000000E-02 0.  1.
    8880023    1    1    2    0    0  0.93708611844E+03 -0.38012715697E+03 -0.59699349677E+03  0.13464169081E+04  0.65864270000E+03 0.  0.
    8880022    1    1    2    0    0 -0.93708611844E+03  0.38012715697E+03  0.18072647582E+04  0.20765896581E+04  0.15294330000E+03 0.  0.
<mgrwt>
<rscale>  0 0.11579154E+04</rscale>
<asrwt>0</asrwt>
<pdfrwt beam="1">  1        1 0.35640598E+00 0.12068294E+04</pdfrwt>
<pdfrwt beam="2">  1       -1 0.17021041E+00 0.12068294E+04</pdfrwt>
<totfact> 0.43714335E-01</totfact>
</mgrwt>
</event>
<event>
 4    5  0.7767175E-008  0.8258322E+03  0.7818608E-02  0.9657497E-01
          1   -1    0    0  501    0  0.00000000000E+00  0.00000000000E+00  0.25428873678E+04  0.25428873678E+04  0.50400000000E-02 0. -1.
         -1   -1    0    0    0  501 -0.00000000000E+00 -0.00000000000E+00 -0.51757954251E+03  0.51757954253E+03  0.50400000000E-02 0.  1.
    8880023    1    1    2    0    0 -0.42913971579E+03  0.25303713661E+03 -0.13623188634E+03  0.83699344160E+03  0.65864270000E+03 0.  1.
    8880022    1    1    2    0    0  0.42913971579E+03 -0.25303713661E+03  0.21615397116E+04  0.22234734687E+04  0.15294330000E+03 0.  0.
<mgrwt>
<rscale>  0 0.73604805E+03</rscale>
<asrwt>0</asrwt>
<pdfrwt beam="1">  1        1 0.39121345E+00 0.82583224E+03</pdfrwt>
<pdfrwt beam="2">  1       -1 0.79627620E-01 0.82583224E+03</pdfrwt>
<totfact> 0.20908016E+00</totfact>
</mgrwt>
</event>
<event>
 4    5  0.7767175E-008  0.7591698E+03  0.7818608E-02  0.9807262E-01
         -1   -1    0    0    0  501 -0.00000000000E+00  0.00000000000E+00  0.25787650321E+03  0.25787650326E+03  0.50400000000E-02 0.  1.
          1   -1    0    0  501    0  0.00000000000E+00 -0.00000000000E+00 -0.21362757696E+04  0.21362757696E+04  0.50400000000E-02 0. -1.
    8880023    1    1    2    0    0  0.50011183460E+02 -0.37420238163E+03 -0.39487855245E+03  0.85572648571E+03  0.65864270000E+03 0.  0.
    8880022    1    1    2    0    0 -0.50011183460E+02  0.37420238163E+03 -0.14835207139E+04  0.15384257871E+04  0.15294330000E+03 0.  0.
<mgrwt>
<rscale>  0 0.64974297E+03</rscale>
<asrwt>0</asrwt>
<pdfrwt beam="1">  1        1 0.32865780E+00 0.75916977E+03</pdfrwt>
<pdfrwt beam="2">  1       -1 0.39673310E-01 0.75916977E+03</pdfrwt>
<totfact> 0.15530779E+01</totfact>
</mgrwt>
</event>
<event>
 4    5  0.7767175E-008  0.6655553E+03  0.7818608E-02  0.1019072E+00
         -1   -1    0    0    0  501 -0.00000000000E+00  0.00000000000E+00  0.64982219121E+03  0.64982219123E+03  0.50400000000E-02 0.  1.
          1   -1    0    0  501    0  0.00000000000E+00 -0.00000000000E+00 -0.39483083679E+03  0.39483083682E+03  0.50400000000E-02 0. -1.
    8880023    1    1    2    0    0  0.66016862339E+02  0.69248711356E+02  0.43075114951E+03  0.79278645877E+03  0.65864270000E+03 0.  1.
    8880022    1    1    2    0    0 -0.66016862339E+02 -0.69248711356E+02 -0.17575979509E+03  0.25186656928E+03  0.15294330000E+03 0.  0.
<mgrwt>
<rscale>  0 0.48022976E+03</rscale>
<asrwt>0</asrwt>
<pdfrwt beam="1">  1        1 0.60743206E-01 0.66555527E+03</pdfrwt>
<pdfrwt beam="2">  1       -1 0.99972644E-01 0.66555527E+03</pdfrwt>
<totfact> 0.59789074E+01</totfact>
</mgrwt>
</event>
<event>
 4    5  0.7767175E-008  0.6788383E+03  0.7818608E-02  0.1009989E+00
         -1   -1    0    0    0  501 -0.00000000000E+00  0.00000000000E+00  0.75434486285E+03  0.75434486286E+03  0.50400000000E-02 0.  1.
          1   -1    0    0  501    0  0.00000000000E+00 -0.00000000000E+00 -0.94646150062E+03  0.94646150063E+03  0.50400000000E-02 0. -1.
    8880023    1    1    2    0    0 -0.57439101504E+02  0.15398674182E+03  0.58238402944E+03  0.89442301572E+03  0.65864270000E+03 0.  1.
    8880022    1    1    2    0    0  0.57439101504E+02 -0.15398674182E+03 -0.77450066722E+03  0.80638334778E+03  0.15294330000E+03 0.  0.
<mgrwt>
<rscale>  0 0.51479176E+03</rscale>
<asrwt>0</asrwt>
<pdfrwt beam="1">  1        1 0.14560946E+00 0.67883825E+03</pdfrwt>
<pdfrwt beam="2">  1       -1 0.11605306E+00 0.67883825E+03</pdfrwt>
<totfact> 0.11670593E+01</totfact>
</mgrwt>
</event>
<event>
 4    5  0.7767175E-008  0.6876594E+03  0.7818608E-02  0.1005285E+00
         -1   -1    0    0    0  501 -0.00000000000E+00  0.00000000000E+00  0.89865810360E+03  0.89865810361E+03  0.50400000000E-02 0.  1.
          1   -1    0    0  501    0  0.00000000000E+00 -0.00000000000E+00 -0.47157084525E+03  0.47157084528E+03  0.50400000000E-02 0. -1.
    8880023    1    1    2    0    0  0.60475494348E+02 -0.18816986167E+03  0.71293924769E+03  0.99053407787E+03  0.65864270000E+03 0.  1.
    8880022    1    1    2    0    0 -0.60475494348E+02  0.18816986167E+03 -0.28585198934E+03  0.37969487102E+03  0.15294330000E+03 0.  0.
<mgrwt>
<rscale>  0 0.53392163E+03</rscale>
<asrwt>0</asrwt>
<pdfrwt beam="1">  1        1 0.72549362E-01 0.68765936E+03</pdfrwt>
<pdfrwt beam="2">  1       -1 0.13825509E+00 0.68765936E+03</pdfrwt>
<totfact> 0.21484818E+01</totfact>
</mgrwt>
</event>
<event>
 4    5  0.7767175E-008  0.1030822E+04  0.7818608E-02  0.9342299E-01
         -1   -1    0    0    0  501 -0.00000000000E+00  0.00000000000E+00  0.78955980751E+03  0.78955980752E+03  0.50400000000E-02 0.  1.
          1   -1    0    0  501    0  0.00000000000E+00 -0.00000000000E+00 -0.10934247460E+04  0.10934247460E+04  0.50400000000E-02 0. -1.
    8880023    1    1    2    0    0  0.57428854975E+02 -0.79087702560E+03 -0.33541629601E+02  0.10313679218E+04  0.65864270000E+03 0.  0.
    8880022    1    1    2    0    0 -0.57428854975E+02  0.79087702560E+03 -0.27032330886E+03  0.85161663167E+03  0.15294330000E+03 0.  0.
<mgrwt>
<rscale>  0 0.96980293E+03</rscale>
<asrwt>0</asrwt>
<pdfrwt beam="1">  1        1 0.16821919E+00 0.10308224E+04</pdfrwt>
<pdfrwt beam="2">  1       -1 0.12147074E+00 0.10308224E+04</pdfrwt>
<totfact> 0.77013494E+00</totfact>
</mgrwt>
</event>
<event>
 4    5  0.1102186E-007  0.1674736E+04  0.7818608E-02  0.8795189E-01
          1   -1    0    0  501    0  0.00000000000E+00  0.00000000000E+00  0.27475892724E+04  0.27475892724E+04  0.50400000000E-02 0. -1.
         -1   -1    0    0    0  501 -0.00000000000E+00 -0.00000000000E+00 -0.18963371706E+04  0.18963371706E+04  0.50400000000E-02 0.  1.
    8880023    1    1    2    0    0 -0.14051083973E+04  0.62976148716E+03 -0.12102829141E+04  0.20662826712E+04  0.65864270000E+03 0.  1.
    8880022    1    1    2    0    0  0.14051083973E+04 -0.62976148716E+03  0.20615350160E+04  0.25776437717E+04  0.15294330000E+03 0.  0.
<mgrwt>
<rscale>  0 0.16419408E+04</rscale>
<asrwt>0</asrwt>
<pdfrwt beam="1">  1        1 0.42270604E+00 0.16747356E+04</pdfrwt>
<pdfrwt beam="2">  1       -1 0.29174418E+00 0.16747356E+04</pdfrwt>
<totfact> 0.31269811E-02</totfact>
</mgrwt>
</event>
<event>
 4    5  0.1124290E-007  0.1187288E+04  0.7818608E-02  0.9169580E-01
          1   -1    0    0  501    0  0.00000000000E+00  0.00000000000E+00  0.40435149810E+04  0.40435149810E+04  0.50400000000E-02 0. -1.
         -1   -1    0    0    0  501 -0.00000000000E+00 -0.00000000000E+00 -0.10858949440E+04  0.10858949440E+04  0.50400000000E-02 0.  1.
    8880023    1    1    2    0    0 -0.98634947597E+03 -0.54370337071E+02 -0.67226398486E+03  0.13644011485E+04  0.65864270000E+03 0.  1.
    8880022    1    1    2    0    0  0.98634947597E+03  0.54370337071E+02  0.36298840219E+04  0.37650087766E+04  0.15294330000E+03 0.  0.
<mgrwt>
<rscale>  0 0.11373006E+04</rscale>
<asrwt>0</asrwt>
<pdfrwt beam="1">  1        1 0.62207922E+00 0.11872875E+04</pdfrwt>
<pdfrwt beam="2">  1       -1 0.16706076E+00 0.11872875E+04</pdfrwt>
<totfact> 0.23042996E-02</totfact>
</mgrwt>
</event>
<event>
 4    5  0.7767175E-008  0.9100402E+03  0.7818608E-02  0.9510102E-01
          1   -1    0    0  501    0  0.00000000000E+00  0.00000000000E+00  0.14353732893E+04  0.14353732893E+04  0.50400000000E-02 0. -1.
         -1   -1    0    0    0  501 -0.00000000000E+00 -0.00000000000E+00 -0.96600647720E+03  0.96600647721E+03  0.50400000000E-02 0.  1.
    8880023    1    1    2    0    0  0.35069332269E+03 -0.52093878688E+03 -0.64340652824E+03  0.11145156765E+04  0.65864270000E+03 0.  0.
    8880022    1    1    2    0    0 -0.35069332269E+03  0.52093878688E+03  0.11127733403E+04  0.12868640900E+04  0.15294330000E+03 0.  0.
<mgrwt>
<rscale>  0 0.83543105E+03</rscale>
<asrwt>0</asrwt>
<pdfrwt beam="1">  1        1 0.22082666E+00 0.91004024E+03</pdfrwt>
<pdfrwt beam="2">  1       -1 0.14861638E+00 0.91004024E+03</pdfrwt>
<totfact> 0.26416466E+00</totfact>
</mgrwt>
</event>
<event>
 4    5  0.7767175E-008  0.6780990E+03  0.7818608E-02  0.1010420E+00
         -1   -1    0    0    0  501 -0.00000000000E+00  0.00000000000E+00  0.42939834891E+03  0.42939834894E+03  0.50400000000E-02 0.  1.
          1   -1    0    0  501    0  0.00000000000E+00 -0.00000000000E+00 -0.14707692850E+04  0.14707692850E+04  0.50400000000E-02 0. -1.
    8880023    1    1    2    0    0 -0.10545940301E+03 -0.12200973872E+03  0.14477172845E+03  0.69338093545E+03  0.65864270000E+03 0.  1.
    8880022    1    1    2    0    0  0.10545940301E+03  0.12200973872E+03 -0.11861426645E+04  0.12067866985E+04  0.15294330000E+03 0.  0.
<mgrwt>
<rscale>  0 0.51308036E+03</rscale>
<asrwt>0</asrwt>
<pdfrwt beam="1">  1        1 0.22627219E+00 0.67809901E+03</pdfrwt>
<pdfrwt beam="2">  1       -1 0.66061285E-01 0.67809901E+03</pdfrwt>
<totfact> 0.16653536E+01</totfact>
</mgrwt>
</event>
<event>
 4    5  0.7767175E-008  0.1033529E+04  0.7818608E-02  0.9338948E-01
         -1   -1    0    0    0  501 -0.00000000000E+00  0.00000000000E+00  0.24502781520E+04  0.24502781520E+04  0.50400000000E-02 0.  1.
          1   -1    0    0  501    0  0.00000000000E+00 -0.00000000000E+00 -0.11286670666E+04  0.11286670666E+04  0.50400000000E-02 0. -1.
    8880023    1    1    2    0    0 -0.28762255015E+03 -0.74272870976E+03  0.21710501722E+04  0.24045044654E+04  0.65864270000E+03 0.  1.
    8880022    1    1    2    0    0  0.28762255015E+03  0.74272870976E+03 -0.84943908675E+03  0.11744407532E+04  0.15294330000E+03 0.  0.
<mgrwt>
<rscale>  0 0.97274922E+03</rscale>
<asrwt>0</asrwt>
<pdfrwt beam="1">  1        1 0.17364109E+00 0.10335293E+04</pdfrwt>
<pdfrwt beam="2">  1       -1 0.37696587E+00 0.10335293E+04</pdfrwt>
<totfact> 0.12596844E-01</totfact>
</mgrwt>
</event>
<event>
 4    5  0.7767175E-008  0.9951353E+03  0.7818608E-02  0.9387950E-01
         -1   -1    0    0    0  501 -0.00000000000E+00  0.00000000000E+00  0.34531548066E+03  0.34531548070E+03  0.50400000000E-02 0.  1.
          1   -1    0    0  501    0  0.00000000000E+00 -0.00000000000E+00 -0.29599251095E+04  0.29599251095E+04  0.50400000000E-02 0. -1.
    8880023    1    1    2    0    0  0.56748237346E+03  0.48419818949E+03 -0.22514759784E+04  0.24615926589E+04  0.65864270000E+03 0.  0.
    8880022    1    1    2    0    0 -0.56748237346E+03 -0.48419818949E+03 -0.36313365049E+03  0.84364793133E+03  0.15294330000E+03 0.  0.
<mgrwt>
<rscale>  0 0.93074022E+03</rscale>
<asrwt>0</asrwt>
<pdfrwt beam="1">  1        1 0.45537308E+00 0.99513534E+03</pdfrwt>
<pdfrwt beam="2">  1       -1 0.53125460E-01 0.99513534E+03</pdfrwt>
<totfact> 0.23480249E+00</totfact>
</mgrwt>
</event>
<event>
 4    5  0.7767175E-008  0.7975451E+03  0.7818608E-02  0.9716129E-01
          1   -1    0    0  501    0  0.00000000000E+00  0.00000000000E+00  0.13617552476E+04  0.13617552476E+04  0.50400000000E-02 0. -1.
         -1   -1    0    0    0  501 -0.00000000000E+00 -0.00000000000E+00 -0.12330084100E+04  0.12330084100E+04  0.50400000000E-02 0.  1.
    8880023    1    1    2    0    0  0.34085369250E+03  0.29340551207E+03 -0.10530994093E+04  0.13210210469E+04  0.65864270000E+03 0.  1.
    8880022    1    1    2    0    0 -0.34085369250E+03 -0.29340551207E+03  0.11818462469E+04  0.12737426107E+04  0.15294330000E+03 0.  0.
<mgrwt>
<rscale>  0 0.70064528E+03</rscale>
<asrwt>0</asrwt>
<pdfrwt beam="1">  1        1 0.20950081E+00 0.79754513E+03</pdfrwt>
<pdfrwt beam="2">  1       -1 0.18969360E+00 0.79754513E+03</pdfrwt>
<totfact> 0.15081980E+00</totfact>
</mgrwt>
</event>
<event>
 4    5  0.7767175E-008  0.7372649E+03  0.7818608E-02  0.9867987E-01
          1   -1    0    0  501    0  0.00000000000E+00  0.00000000000E+00  0.14533008892E+04  0.14533008892E+04  0.50400000000E-02 0. -1.
         -1   -1    0    0    0  501 -0.00000000000E+00 -0.00000000000E+00 -0.42797143863E+03  0.42797143866E+03  0.50400000000E-02 0.  1.
    8880023    1    1    2    0    0 -0.19504838531E+03 -0.26777881853E+03 -0.56634910344E+02  0.73943700719E+03  0.65864270000E+03 0.  0.
    8880022    1    1    2    0    0  0.19504838531E+03  0.26777881853E+03  0.10819643609E+04  0.11418353207E+04  0.15294330000E+03 0.  0.
<mgrwt>
<rscale>  0 0.61838175E+03</rscale>
<asrwt>0</asrwt>
<pdfrwt beam="1">  1        1 0.22358475E+00 0.73726493E+03</pdfrwt>
<pdfrwt beam="2">  1       -1 0.65841759E-01 0.73726493E+03</pdfrwt>
<totfact> 0.17088481E+01</totfact>
</mgrwt>
</event>
<event>
 4    5  0.7767175E-008  0.7254820E+03  0.7818608E-02  0.9904455E-01
         -1   -1    0    0    0  501 -0.00000000000E+00  0.00000000000E+00  0.19899321141E+03  0.19899321148E+03  0.50400000000E-02 0.  1.
          1   -1    0    0  501    0  0.00000000000E+00 -0.00000000000E+00 -0.25683661022E+04  0.25683661022E+04  0.50400000000E-02 0. -1.
    8880023    1    1    2    0    0  0.30291986409E+03  0.27449924445E+02 -0.53436884676E+03  0.90104062786E+03  0.65864270000E+03 0.  1.
    8880022    1    1    2    0    0 -0.30291986409E+03 -0.27449924445E+02 -0.18350040440E+04  0.18663186858E+04  0.15294330000E+03 0.  0.
<mgrwt>
<rscale>  0 0.60045855E+03</rscale>
<asrwt>0</asrwt>
<pdfrwt beam="1">  1        1 0.39513322E+00 0.72548201E+03</pdfrwt>
<pdfrwt beam="2">  1       -1 0.30614342E-01 0.72548201E+03</pdfrwt>
<totfact> 0.12632257E+01</totfact>
</mgrwt>
</event>
<event>
 4    5  0.7767175E-008  0.8381147E+03  0.7818608E-02  0.9633745E-01
          1   -1    0    0  501    0  0.00000000000E+00  0.00000000000E+00  0.14910246272E+04  0.14910246272E+04  0.50400000000E-02 0. -1.
         -1   -1    0    0    0  501 -0.00000000000E+00 -0.00000000000E+00 -0.37878380274E+03  0.37878380277E+03  0.50400000000E-02 0.  1.
    8880023    1    1    2    0    0 -0.36675599209E+03  0.36621873134E+03  0.29193131414E+03  0.88750223400E+03  0.65864270000E+03 0. -1.
    8880022    1    1    2    0    0  0.36675599209E+03 -0.36621873134E+03  0.82030951031E+03  0.98230619597E+03  0.15294330000E+03 0.  0.
<mgrwt>
<rscale>  0 0.75102392E+03</rscale>
<asrwt>0</asrwt>
<pdfrwt beam="1">  1        1 0.22938840E+00 0.83811474E+03</pdfrwt>
<pdfrwt beam="2">  1       -1 0.58274432E-01 0.83811474E+03</pdfrwt>
<totfact> 0.20258304E+01</totfact>
</mgrwt>
</event>
<event>
 4    5  0.7767175E-008  0.9042542E+03  0.7818608E-02  0.9519236E-01
         -1   -1    0    0    0  501 -0.00000000000E+00  0.00000000000E+00  0.25715824629E+03  0.25715824634E+03  0.50400000000E-02 0.  1.
          1   -1    0    0  501    0  0.00000000000E+00 -0.00000000000E+00 -0.26180927854E+04  0.26180927854E+04  0.50400000000E-02 0. -1.
    8880023    1    1    2    0    0  0.35789936285E+03  0.50574054744E+03 -0.87597590216E+03  0.12589715814E+04  0.65864270000E+03 0.  0.
    8880022    1    1    2    0    0 -0.35789936285E+03 -0.50574054744E+03 -0.14849586370E+04  0.16162794504E+04  0.15294330000E+03 0.  0.
<mgrwt>
<rscale>  0 0.82880333E+03</rscale>
<asrwt>0</asrwt>
<pdfrwt beam="1">  1        1 0.40278349E+00 0.90425420E+03</pdfrwt>
<pdfrwt beam="2">  1       -1 0.39562809E-01 0.90425420E+03</pdfrwt>
<totfact> 0.71929374E+00</totfact>
</mgrwt>
</event>
<event>
 4    5  0.7767175E-008  0.8767948E+03  0.7818608E-02  0.9564360E-01
         -1   -1    0    0    0  501 -0.00000000000E+00  0.00000000000E+00  0.11147468121E+04  0.11147468121E+04  0.50400000000E-02 0.  1.
          1   -1    0    0  501    0  0.00000000000E+00 -0.00000000000E+00 -0.11372911851E+04  0.11372911851E+04  0.50400000000E-02 0. -1.
    8880023    1    1    2    0    0  0.30467933316E+03  0.49206640643E+03  0.83197626502E+03  0.12086991173E+04  0.65864270000E+03 0.  1.
    8880022    1    1    2    0    0 -0.30467933316E+03 -0.49206640643E+03 -0.85452063799E+03  0.10433388798E+04  0.15294330000E+03 0.  0.
<mgrwt>
<rscale>  0 0.79700668E+03</rscale>
<asrwt>0</asrwt>
<pdfrwt beam="1">  1        1 0.17496788E+00 0.87679476E+03</pdfrwt>
<pdfrwt beam="2">  1       -1 0.17149951E+00 0.87679476E+03</pdfrwt>
<totfact> 0.29104104E+00</totfact>
</mgrwt>
</event>
<event>
 4    5  0.7767175E-008  0.1119162E+04  0.7818608E-02  0.9240015E-01
          1   -1    0    0  501    0  0.00000000000E+00  0.00000000000E+00  0.18916514980E+04  0.18916514980E+04  0.50400000000E-02 0. -1.
         -1   -1    0    0    0  501 -0.00000000000E+00 -0.00000000000E+00 -0.80509803487E+03  0.80509803489E+03  0.50400000000E-02 0.  1.
    8880023    1    1    2    0    0  0.77994725248E+03  0.45869011437E+03 -0.17912283660E+03  0.11334061649E+04  0.65864270000E+03 0.  0.
    8880022    1    1    2    0    0 -0.77994725248E+03 -0.45869011437E+03  0.12656762997E+04  0.15633433680E+04  0.15294330000E+03 0.  0.
<mgrwt>
<rscale>  0 0.10649781E+04</rscale>
<asrwt>0</asrwt>
<pdfrwt beam="1">  1        1 0.29102331E+00 0.11191624E+04</pdfrwt>
<pdfrwt beam="2">  1       -1 0.12386124E+00 0.11191624E+04</pdfrwt>
<totfact> 0.20078431E+00</totfact>
</mgrwt>
</event>
<event>
 4    5  0.7767175E-008  0.7157981E+03  0.7818608E-02  0.9937069E-01
         -1   -1    0    0    0  501 -0.00000000000E+00  0.00000000000E+00  0.34730497165E+03  0.34730497169E+03  0.50400000000E-02 0.  1.
          1   -1    0    0  501    0  0.00000000000E+00 -0.00000000000E+00 -0.19864821866E+04  0.19864821866E+04  0.50400000000E-02 0. -1.
    8880023    1    1    2    0    0 -0.27128085490E+03  0.70451838697E+02 -0.55171418002E+02  0.71792120420E+03  0.65864270000E+03 0.  1.
    8880022    1    1    2    0    0  0.27128085490E+03 -0.70451838697E+02 -0.15840057969E+04  0.16158659541E+04  0.15294330000E+03 0.  0.
<mgrwt>
<rscale>  0 0.58497928E+03</rscale>
<asrwt>0</asrwt>
<pdfrwt beam="1">  1        1 0.30561264E+00 0.71579814E+03</pdfrwt>
<pdfrwt beam="2">  1       -1 0.53431535E-01 0.71579814E+03</pdfrwt>
<totfact> 0.11298892E+01</totfact>
</mgrwt>
</event>
<event>
 4    5  0.7767175E-008  0.1006390E+04  0.7818608E-02  0.9373245E-01
         -1   -1    0    0    0  501 -0.00000000000E+00  0.00000000000E+00  0.59443040814E+03  0.59443040816E+03  0.50400000000E-02 0.  1.
          1   -1    0    0  501    0  0.00000000000E+00 -0.00000000000E+00 -0.18824771117E+04  0.18824771117E+04  0.50400000000E-02 0. -1.
    8880023    1    1    2    0    0  0.73256163343E+03  0.20582489802E+03 -0.39973499234E+02  0.10071834601E+04  0.65864270000E+03 0.  0.
    8880022    1    1    2    0    0 -0.73256163343E+03 -0.20582489802E+03 -0.12480732043E+04  0.14697240597E+04  0.15294330000E+03 0.  0.
<mgrwt>
<rscale>  0 0.94310601E+03</rscale>
<asrwt>0</asrwt>
<pdfrwt beam="1">  1        1 0.28961186E+00 0.10063899E+04</pdfrwt>
<pdfrwt beam="2">  1       -1 0.91450833E-01 0.10063899E+04</pdfrwt>
<totfact> 0.42121113E+00</totfact>
</mgrwt>
</event>
<event>
 4    5  0.7767175E-008  0.1969559E+04  0.7818608E-02  0.8634122E-01
         -1   -1    0    0    0  501 -0.00000000000E+00  0.00000000000E+00  0.99230535847E+03  0.99230535848E+03  0.50400000000E-02 0.  1.
          1   -1    0    0  501    0  0.00000000000E+00 -0.00000000000E+00 -0.42435557014E+04  0.42435557014E+04  0.50400000000E-02 0. -1.
    8880023    1    1    2    0    0  0.17975098454E+04  0.46293672528E+03 -0.72822164764E+03  0.20998735749E+04  0.65864270000E+03 0.  0.
    8880022    1    1    2    0    0 -0.17975098454E+04 -0.46293672528E+03 -0.25230286953E+04  0.31359874851E+04  0.15294330000E+03 0.  0.
<mgrwt>
<rscale>  0 0.19422193E+04</rscale>
<asrwt>0</asrwt>
<pdfrwt beam="1">  1        1 0.65285472E+00 0.19695589E+04</pdfrwt>
<pdfrwt beam="2">  1       -1 0.15266236E+00 0.19695589E+04</pdfrwt>
<totfact> 0.17386800E-02</totfact>
</mgrwt>
</event>
<event>
 4    5  0.7767175E-008  0.7573129E+03  0.7818608E-02  0.9812115E-01
          1   -1    0    0  501    0  0.00000000000E+00  0.00000000000E+00  0.28523042008E+03  0.28523042013E+03  0.50400000000E-02 0. -1.
         -1   -1    0    0    0  501 -0.00000000000E+00 -0.00000000000E+00 -0.14963801461E+04  0.14963801461E+04  0.50400000000E-02 0.  1.
    8880023    1    1    2    0    0 -0.26577801786E+03  0.26282047803E+03 -0.11443732232E+04  0.13722655860E+04  0.65864270000E+03 0.  1.
    8880022    1    1    2    0    0  0.26577801786E+03 -0.26282047803E+03 -0.66776502824E+02  0.40934498018E+03  0.15294330000E+03 0.  0.
<mgrwt>
<rscale>  0 0.64716444E+03</rscale>
<asrwt>0</asrwt>
<pdfrwt beam="1">  1        1 0.43881604E-01 0.75731286E+03</pdfrwt>
<pdfrwt beam="2">  1       -1 0.23021233E+00 0.75731286E+03</pdfrwt>
<totfact> 0.90998588E+00</totfact>
</mgrwt>
</event>
<event>
 4    5  0.7767175E-008  0.7767834E+03  0.7818608E-02  0.9763448E-01
          1   -1    0    0  501    0  0.00000000000E+00  0.00000000000E+00  0.23071129901E+04  0.23071129901E+04  0.50400000000E-02 0. -1.
         -1   -1    0    0    0  501 -0.00000000000E+00 -0.00000000000E+00 -0.42577632424E+03  0.42577632427E+03  0.50400000000E-02 0.  1.
    8880023    1    1    2    0    0 -0.28929274471E+03  0.29307320483E+03 -0.24411604546E+02  0.77716685997E+03  0.65864270000E+03 0.  0.
    8880022    1    1    2    0    0  0.28929274471E+03 -0.29307320483E+03  0.19057482704E+04  0.19557224544E+04  0.15294330000E+03 0.  0.
<mgrwt>
<rscale>  0 0.67361577E+03</rscale>
<asrwt>0</asrwt>
<pdfrwt beam="1">  1        1 0.35494046E+00 0.77678337E+03</pdfrwt>
<pdfrwt beam="2">  1       -1 0.65504050E-01 0.77678337E+03</pdfrwt>
<totfact> 0.45687553E+00</totfact>
</mgrwt>
</event>
<event>
 4    5  0.7767175E-008  0.8576782E+03  0.7818608E-02  0.9597707E-01
          1   -1    0    0  501    0  0.00000000000E+00  0.00000000000E+00  0.12745940608E+04  0.12745940608E+04  0.50400000000E-02 0. -1.
         -1   -1    0    0    0  501 -0.00000000000E+00 -0.00000000000E+00 -0.86850903622E+03  0.86850903623E+03  0.50400000000E-02 0.  1.
    8880023    1    1    2    0    0  0.33260711290E+03 -0.43723477078E+03 -0.55783754097E+03  0.10231298377E+04  0.65864270000E+03 0.  1.
    8880022    1    1    2    0    0 -0.33260711290E+03  0.43723477078E+03  0.96392256554E+03  0.11199732594E+04  0.15294330000E+03 0.  0.
<mgrwt>
<rscale>  0 0.77448142E+03</rscale>
<asrwt>0</asrwt>
<pdfrwt beam="1">  1        1 0.19609139E+00 0.85767823E+03</pdfrwt>
<pdfrwt beam="2">  1       -1 0.13361678E+00 0.85767823E+03</pdfrwt>
<totfact> 0.45622019E+00</totfact>
</mgrwt>
</event>
<event>
 4    5  0.7767175E-008  0.1151612E+04  0.7818608E-02  0.9205657E-01
         -1   -1    0    0    0  501 -0.00000000000E+00  0.00000000000E+00  0.52497370901E+03  0.52497370903E+03  0.50400000000E-02 0.  1.
          1   -1    0    0  501    0  0.00000000000E+00 -0.00000000000E+00 -0.28901430657E+04  0.28901430657E+04  0.50400000000E-02 0. -1.
    8880023    1    1    2    0    0 -0.35275207352E+03  0.87633635503E+03 -0.38231846828E+03  0.12134154482E+04  0.65864270000E+03 0.  0.
    8880022    1    1    2    0    0  0.35275207352E+03 -0.87633635503E+03 -0.19828508885E+04  0.22017013266E+04  0.15294330000E+03 0.  0.
<mgrwt>
<rscale>  0 0.10995225E+04</rscale>
<asrwt>0</asrwt>
<pdfrwt beam="1">  1        1 0.44463738E+00 0.11516118E+04</pdfrwt>
<pdfrwt beam="2">  1       -1 0.80765188E-01 0.11516118E+04</pdfrwt>
<totfact> 0.11009631E+00</totfact>
</mgrwt>
</event>
<event>
 4    5  0.7767175E-008  0.1047333E+04  0.7818608E-02  0.9322094E-01
         -1   -1    0    0    0  501 -0.00000000000E+00  0.00000000000E+00  0.13418284950E+04  0.13418284950E+04  0.50400000000E-02 0.  1.
          1   -1    0    0  501    0  0.00000000000E+00 -0.00000000000E+00 -0.80801233630E+03  0.80801233631E+03  0.50400000000E-02 0. -1.
    8880023    1    1    2    0    0 -0.81123629736E+03  0.70655833018E+02  0.75640185808E+03  0.12919173944E+04  0.65864270000E+03 0.  0.
    8880022    1    1    2    0    0  0.81123629736E+03 -0.70655833018E+02 -0.22258569941E+03  0.85792343685E+03  0.15294330000E+03 0.  0.
<mgrwt>
<rscale>  0 0.98774032E+03</rscale>
<asrwt>0</asrwt>
<pdfrwt beam="1">  1        1 0.12430959E+00 0.10473332E+04</pdfrwt>
<pdfrwt beam="2">  1       -1 0.20643515E+00 0.10473332E+04</pdfrwt>
<totfact> 0.29541853E+00</totfact>
</mgrwt>
</event>
<event>
 4    5  0.7767175E-008  0.7607849E+03  0.7818608E-02  0.9803080E-01
          1   -1    0    0  501    0  0.00000000000E+00  0.00000000000E+00  0.73321752877E+03  0.73321752879E+03  0.50400000000E-02 0. -1.
         -1   -1    0    0    0  501 -0.00000000000E+00 -0.00000000000E+00 -0.47165705581E+03  0.47165705584E+03  0.50400000000E-02 0.  1.
    8880023    1    1    2    0    0 -0.26937681147E+03  0.26910879216E+03  0.11649902149E+03  0.76965293272E+03  0.65864270000E+03 0.  0.
    8880022    1    1    2    0    0  0.26937681147E+03 -0.26910879216E+03  0.14506145147E+03  0.43522165191E+03  0.15294330000E+03 0.  1.
<mgrwt>
<rscale>  0 0.65197527E+03</rscale>
<asrwt>0</asrwt>
<pdfrwt beam="1">  1        1 0.11280270E+00 0.76078487E+03</pdfrwt>
<pdfrwt beam="2">  1       -1 0.72562624E-01 0.76078487E+03</pdfrwt>
<totfact> 0.49643706E+01</totfact>
</mgrwt>
</event>
<event>
 4    5  0.7767175E-008  0.9377685E+03  0.7818608E-02  0.9467935E-01
          1   -1    0    0  501    0  0.00000000000E+00  0.00000000000E+00  0.72201189293E+03  0.72201189295E+03  0.50400000000E-02 0. -1.
         -1   -1    0    0    0  501 -0.00000000000E+00 -0.00000000000E+00 -0.12896235327E+04  0.12896235327E+04  0.50400000000E-02 0.  1.
    8880023    1    1    2    0    0 -0.55004980271E+03  0.37821259382E+03 -0.85492442290E+03  0.12689781427E+04  0.65864270000E+03 0.  1.
    8880022    1    1    2    0    0  0.55004980271E+03 -0.37821259382E+03  0.28731278310E+03  0.74265728296E+03  0.15294330000E+03 0.  0.
<mgrwt>
<rscale>  0 0.86689664E+03</rscale>
<asrwt>0</asrwt>
<pdfrwt beam="1">  1        1 0.11107875E+00 0.93776850E+03</pdfrwt>
<pdfrwt beam="2">  1       -1 0.19840362E+00 0.93776850E+03</pdfrwt>
<totfact> 0.40566134E+00</totfact>
</mgrwt>
</event>
<event>
 4    5  0.7767175E-008  0.9363974E+03  0.7818608E-02  0.9469961E-01
         -1   -1    0    0    0  501 -0.00000000000E+00  0.00000000000E+00  0.17559176654E+04  0.17559176654E+04  0.50400000000E-02 0.  1.
          1   -1    0    0  501    0  0.00000000000E+00 -0.00000000000E+00 -0.12464784118E+04  0.12464784118E+04  0.50400000000E-02 0. -1.
    8880023    1    1    2    0    0 -0.52608574901E+03  0.40775450438E+03  0.15184623119E+04  0.17839753222E+04  0.65864270000E+03 0.  1.
    8880022    1    1    2    0    0  0.52608574901E+03 -0.40775450438E+03 -0.10090230583E+04  0.12184207551E+04  0.15294330000E+03 0.  0.
<mgrwt>
<rscale>  0 0.86535139E+03</rscale>
<asrwt>0</asrwt>
<pdfrwt beam="1">  1        1 0.19176591E+00 0.93639744E+03</pdfrwt>
<pdfrwt beam="2">  1       -1 0.27014118E+00 0.93639744E+03</pdfrwt>
<totfact> 0.52107119E-01</totfact>
</mgrwt>
</event>
<event>
 4    5  0.7767175E-008  0.8902774E+03  0.7818608E-02  0.9541823E-01
          1   -1    0    0  501    0  0.00000000000E+00  0.00000000000E+00  0.22840366737E+04  0.22840366737E+04  0.50400000000E-02 0. -1.
         -1   -1    0    0    0  501 -0.00000000000E+00 -0.00000000000E+00 -0.41195444401E+03  0.41195444404E+03  0.50400000000E-02 0.  1.
    8880023    1    1    2    0    0 -0.24190946534E+03  0.54796294308E+03  0.19885853820E+03  0.91221625774E+03  0.65864270000E+03 0.  1.
    8880022    1    1    2    0    0  0.24190946534E+03 -0.54796294308E+03  0.16732236915E+04  0.17837748600E+04  0.15294330000E+03 0.  0.
<mgrwt>
<rscale>  0 0.81269355E+03</rscale>
<asrwt>0</asrwt>
<pdfrwt beam="1">  1        1 0.35139025E+00 0.89027736E+03</pdfrwt>
<pdfrwt beam="2">  1       -1 0.63377607E-01 0.89027736E+03</pdfrwt>
<totfact> 0.49686768E+00</totfact>
</mgrwt>
</event>
<event>
 4    5  0.7767175E-008  0.7414777E+03  0.7818608E-02  0.9855663E-01
         -1   -1    0    0    0  501 -0.00000000000E+00  0.00000000000E+00  0.11128730852E+04  0.11128730852E+04  0.50400000000E-02 0.  1.
          1   -1    0    0  501    0  0.00000000000E+00 -0.00000000000E+00 -0.58806326125E+03  0.58806326127E+03  0.50400000000E-02 0. -1.
    8880023    1    1    2    0    0  0.31075614320E+03 -0.13931831107E+03  0.90374590274E+03  0.11689935138E+04  0.65864270000E+03 0.  1.
    8880022    1    1    2    0    0 -0.31075614320E+03  0.13931831107E+03 -0.37893607883E+03  0.53194283263E+03  0.15294330000E+03 0.  0.
<mgrwt>
<rscale>  0 0.62458993E+03</rscale>
<asrwt>0</asrwt>
<pdfrwt beam="1">  1        1 0.90471272E-01 0.74147770E+03</pdfrwt>
<pdfrwt beam="2">  1       -1 0.17121124E+00 0.74147770E+03</pdfrwt>
<totfact> 0.87772705E+00</totfact>
</mgrwt>
</event>
<event>
 4    5  0.7767175E-008  0.7795740E+03  0.7818608E-02  0.9756839E-01
         -1   -1    0    0    0  501 -0.00000000000E+00  0.00000000000E+00  0.13343109794E+04  0.13343109795E+04  0.50400000000E-02 0.  1.
          1   -1    0    0  501    0  0.00000000000E+00 -0.00000000000E+00 -0.12476750336E+04  0.12476750336E+04  0.50400000000E-02 0. -1.
    8880023    1    1    2    0    0  0.27424290883E+02 -0.41614107182E+03  0.11729366117E+04  0.14083735246E+04  0.65864270000E+03 0.  0.
    8880022    1    1    2    0    0 -0.27424290883E+02  0.41614107182E+03 -0.10863006659E+04  0.11736124885E+04  0.15294330000E+03 0.  0.
<mgrwt>
<rscale>  0 0.67731178E+03</rscale>
<asrwt>0</asrwt>
<pdfrwt beam="1">  1        1 0.19195001E+00 0.77957404E+03</pdfrwt>
<pdfrwt beam="2">  1       -1 0.20527861E+00 0.77957404E+03</pdfrwt>
<totfact> 0.14235751E+00</totfact>
</mgrwt>
</event>
<event>
 4    5  0.7767175E-008  0.1048724E+04  0.7818608E-02  0.9320417E-01
         -1   -1    0    0    0  501 -0.00000000000E+00  0.00000000000E+00  0.90482997131E+03  0.90482997132E+03  0.50400000000E-02 0.  1.
          1   -1    0    0  501    0  0.00000000000E+00 -0.00000000000E+00 -0.17602126005E+04  0.17602126005E+04  0.50400000000E-02 0. -1.
    8880023    1    1    2    0    0  0.79035021505E+03  0.20336812463E+03 -0.13415980703E+04  0.17028527960E+04  0.65864270000E+03 0.  0.
    8880022    1    1    2    0    0 -0.79035021505E+03 -0.20336812463E+03  0.48621544106E+03  0.96218977581E+03  0.15294330000E+03 0.  0.
<mgrwt>
<rscale>  0 0.98924791E+03</rscale>
<asrwt>0</asrwt>
<pdfrwt beam="1">  1        1 0.27080194E+00 0.10487241E+04</pdfrwt>
<pdfrwt beam="2">  1       -1 0.13920461E+00 0.10487241E+04</pdfrwt>
<totfact> 0.18469096E+00</totfact>
</mgrwt>
</event>
<event>
 4    5  0.7767175E-008  0.7623007E+03  0.7818608E-02  0.9799187E-01
         -1   -1    0    0    0  501 -0.00000000000E+00  0.00000000000E+00  0.14684255357E+04  0.14684255357E+04  0.50400000000E-02 0.  1.
          1   -1    0    0  501    0  0.00000000000E+00 -0.00000000000E+00 -0.55258668676E+03  0.55258668678E+03  0.50400000000E-02 0. -1.
    8880023    1    1    2    0    0 -0.36363221172E+03 -0.12273482416E+03  0.12671005193E+04  0.14787312652E+04  0.65864270000E+03 0.  0.
    8880022    1    1    2    0    0  0.36363221172E+03  0.12273482416E+03 -0.35126167040E+03  0.54228095723E+03  0.15294330000E+03 0.  0.
<mgrwt>
<rscale>  0 0.65406185E+03</rscale>
<asrwt>0</asrwt>
<pdfrwt beam="1">  1        1 0.85013336E-01 0.76230075E+03</pdfrwt>
<pdfrwt beam="2">  1       -1 0.22591162E+00 0.76230075E+03</pdfrwt>
<totfact> 0.40162877E+00</totfact>
</mgrwt>
</event>
<event>
 4    5  0.7767175E-008  0.1768173E+04  0.7818608E-02  0.8740349E-01
         -1   -1    0    0    0  501 -0.00000000000E+00  0.00000000000E+00  0.28770624986E+04  0.28770624986E+04  0.50400000000E-02 0.  1.
          1   -1    0    0  501    0  0.00000000000E+00 -0.00000000000E+00 -0.14458086719E+04  0.14458086720E+04  0.50400000000E-02 0. -1.
    8880023    1    1    2    0    0 -0.13340602111E+04 -0.95546240100E+03  0.19138599872E+04  0.26056276218E+04  0.65864270000E+03 0.  0.
    8880022    1    1    2    0    0  0.13340602111E+04  0.95546240100E+03 -0.48260616051E+03  0.17172435488E+04  0.15294330000E+03 0.  0.
<mgrwt>
<rscale>  0 0.17373411E+04</rscale>
<asrwt>0</asrwt>
<pdfrwt beam="1">  1        1 0.22243211E+00 0.17681729E+04</pdfrwt>
<pdfrwt beam="2">  1       -1 0.44262500E+00 0.17681729E+04</pdfrwt>
<totfact> 0.23753144E-02</totfact>
</mgrwt>
</event>
<event>
 4    5  0.7767175E-008  0.1032290E+04  0.7818608E-02  0.9340480E-01
         -1   -1    0    0    0  501 -0.00000000000E+00  0.00000000000E+00  0.33382442858E+03  0.33382442862E+03  0.50400000000E-02 0.  1.
          1   -1    0    0  501    0  0.00000000000E+00 -0.00000000000E+00 -0.33263572702E+04  0.33263572702E+04  0.50400000000E-02 0. -1.
    8880023    1    1    2    0    0 -0.72126386698E+03  0.33405231768E+03 -0.74984297474E+03  0.12758868327E+04  0.65864270000E+03 0.  0.
    8880022    1    1    2    0    0  0.72126386698E+03 -0.33405231768E+03 -0.22426898669E+04  0.23842948662E+04  0.15294330000E+03 0.  0.
<mgrwt>
<rscale>  0 0.97140064E+03</rscale>
<asrwt>0</asrwt>
<pdfrwt beam="1">  1        1 0.51174725E+00 0.10322900E+04</pdfrwt>
<pdfrwt beam="2">  1       -1 0.51357607E-01 0.10322900E+04</pdfrwt>
<totfact> 0.13390242E+00</totfact>
</mgrwt>
</event>
<event>
 4    5  0.7767175E-008  0.8756033E+03  0.7818608E-02  0.9566389E-01
         -1   -1    0    0    0  501 -0.00000000000E+00  0.00000000000E+00  0.81916054706E+03  0.81916054707E+03  0.50400000000E-02 0.  1.
          1   -1    0    0  501    0  0.00000000000E+00 -0.00000000000E+00 -0.20730106637E+04  0.20730106637E+04  0.50400000000E-02 0. -1.
    8880023    1    1    2    0    0  0.20261299151E+03 -0.54020271453E+03  0.52152204505E+03  0.10191498648E+04  0.65864270000E+03 0.  1.
    8880022    1    1    2    0    0 -0.20261299151E+03  0.54020271453E+03 -0.17753721617E+04  0.18730213460E+04  0.15294330000E+03 0.  0.
<mgrwt>
<rscale>  0 0.79561295E+03</rscale>
<asrwt>0</asrwt>
<pdfrwt beam="1">  1        1 0.31892472E+00 0.87560334E+03</pdfrwt>
<pdfrwt beam="2">  1       -1 0.12602470E+00 0.87560334E+03</pdfrwt>
<totfact> 0.15049866E+00</totfact>
</mgrwt>
</event>
<event>
 4    5  0.7767175E-008  0.2294272E+04  0.7818608E-02  0.8489400E-01
          1   -1    0    0  501    0  0.00000000000E+00  0.00000000000E+00  0.36646335633E+04  0.36646335633E+04  0.50400000000E-02 0. -1.
         -1   -1    0    0    0  501 -0.00000000000E+00 -0.00000000000E+00 -0.18329485805E+04  0.18329485805E+04  0.50400000000E-02 0.  1.
    8880023    1    1    2    0    0  0.15619134424E+04  0.15460594976E+04 -0.43672752622E+03  0.23354688416E+04  0.65864270000E+03 0.  0.
    8880022    1    1    2    0    0 -0.15619134424E+04 -0.15460594976E+04  0.22684125091E+04  0.31621133022E+04  0.15294330000E+03 0.  0.
<mgrwt>
<rscale>  0 0.22711087E+04</rscale>
<asrwt>0</asrwt>
<pdfrwt beam="1">  1        1 0.56378977E+00 0.22942719E+04</pdfrwt>
<pdfrwt beam="2">  1       -1 0.28199209E+00 0.22942719E+04</pdfrwt>
<totfact> 0.68343600E-03</totfact>
</mgrwt>
</event>
<event>
 4    5  0.7767175E-008  0.1056904E+04  0.7818608E-02  0.9310628E-01
         -1   -1    0    0    0  501 -0.00000000000E+00  0.00000000000E+00  0.15154529061E+04  0.15154529061E+04  0.50400000000E-02 0.  1.
          1   -1    0    0  501    0  0.00000000000E+00 -0.00000000000E+00 -0.87879436354E+03  0.87879436356E+03  0.50400000000E-02 0. -1.
    8880023    1    1    2    0    0 -0.38788863805E+03  0.72991592482E+03  0.10213785492E+04  0.14697820246E+04  0.65864270000E+03 0.  0.
    8880022    1    1    2    0    0  0.38788863805E+03 -0.72991592482E+03 -0.38472000662E+03  0.92446524508E+03  0.15294330000E+03 0.  0.
<mgrwt>
<rscale>  0 0.99810274E+03</rscale>
<asrwt>0</asrwt>
<pdfrwt beam="1">  1        1 0.13519913E+00 0.10569035E+04</pdfrwt>
<pdfrwt beam="2">  1       -1 0.23314660E+00 0.10569035E+04</pdfrwt>
<totfact> 0.17028406E+00</totfact>
</mgrwt>
</event>
<event>
 4    5  0.7767175E-008  0.7503328E+03  0.7818608E-02  0.9830810E-01
         -1   -1    0    0    0  501 -0.00000000000E+00  0.00000000000E+00  0.62979053886E+03  0.62979053888E+03  0.50400000000E-02 0.  1.
          1   -1    0    0  501    0  0.00000000000E+00 -0.00000000000E+00 -0.78629250599E+03  0.78629250601E+03  0.50400000000E-02 0. -1.
    8880023    1    1    2    0    0 -0.19692927854E+02  0.35888894769E+03  0.30632357826E+03  0.81045260752E+03  0.65864270000E+03 0.  1.
    8880022    1    1    2    0    0  0.19692927854E+02 -0.35888894769E+03 -0.46282554539E+03  0.60563043737E+03  0.15294330000E+03 0.  0.
<mgrwt>
<rscale>  0 0.63734988E+03</rscale>
<asrwt>0</asrwt>
<pdfrwt beam="1">  1        1 0.12096808E+00 0.75033279E+03</pdfrwt>
<pdfrwt beam="2">  1       -1 0.96890852E-01 0.75033279E+03</pdfrwt>
<totfact> 0.23897527E+01</totfact>
</mgrwt>
</event>
<event>
 4    5  0.7767175E-008  0.7608541E+03  0.7818608E-02  0.9802901E-01
         -1   -1    0    0    0  501 -0.00000000000E+00  0.00000000000E+00  0.10564391556E+04  0.10564391556E+04  0.50400000000E-02 0.  1.
          1   -1    0    0  501    0  0.00000000000E+00 -0.00000000000E+00 -0.49433423918E+03  0.49433423921E+03  0.50400000000E-02 0. -1.
    8880023    1    1    2    0    0  0.13189283745E+03  0.35734159711E+03  0.77697619480E+03  0.10874699771E+04  0.65864270000E+03 0.  0.
    8880022    1    1    2    0    0 -0.13189283745E+03 -0.35734159711E+03 -0.21487127836E+03  0.46330341772E+03  0.15294330000E+03 0. -1.
<mgrwt>
<rscale>  0 0.65207073E+03</rscale>
<asrwt>0</asrwt>
<pdfrwt beam="1">  1        1 0.76051422E-01 0.76085409E+03</pdfrwt>
<pdfrwt beam="2">  1       -1 0.16252910E+00 0.76085409E+03</pdfrwt>
<totfact> 0.12938269E+01</totfact>
</mgrwt>
</event>
<event>
 4    5  0.7767175E-008  0.1202341E+04  0.7818608E-02  0.9154850E-01
          1   -1    0    0  501    0  0.00000000000E+00  0.00000000000E+00  0.14084946011E+04  0.14084946011E+04  0.50400000000E-02 0. -1.
         -1   -1    0    0    0  501 -0.00000000000E+00 -0.00000000000E+00 -0.24875931259E+04  0.24875931259E+04  0.50400000000E-02 0.  1.
    8880023    1    1    2    0    0  0.43343825326E+03 -0.90771391954E+03 -0.21220830455E+04  0.24390284823E+04  0.65864270000E+03 0.  0.
    8880022    1    1    2    0    0 -0.43343825326E+03  0.90771391954E+03  0.10429845207E+04  0.14570592447E+04  0.15294330000E+03 0.  0.
<mgrwt>
<rscale>  0 0.11531850E+04</rscale>
<asrwt>0</asrwt>
<pdfrwt beam="1">  1        1 0.21669148E+00 0.12023408E+04</pdfrwt>
<pdfrwt beam="2">  1       -1 0.38270663E+00 0.12023408E+04</pdfrwt>
<totfact> 0.70343103E-02</totfact>
</mgrwt>
</event>
<event>
 4    5  0.7767175E-008  0.8647183E+03  0.7818608E-02  0.9585225E-01
         -1   -1    0    0    0  501 -0.00000000000E+00  0.00000000000E+00  0.56051844665E+03  0.56051844667E+03  0.50400000000E-02 0.  1.
          1   -1    0    0  501    0  0.00000000000E+00 -0.00000000000E+00 -0.99650110389E+03  0.99650110390E+03  0.50400000000E-02 0. -1.
    8880023    1    1    2    0    0 -0.26466704259E+03 -0.49384096981E+03 -0.63500021379E+02  0.86704671493E+03  0.65864270000E+03 0.  0.
    8880022    1    1    2    0    0  0.26466704259E+03  0.49384096981E+03 -0.37248263586E+03  0.68997283564E+03  0.15294330000E+03 0.  0.
<mgrwt>
<rscale>  0 0.78281858E+03</rscale>
<asrwt>0</asrwt>
<pdfrwt beam="1">  1        1 0.15330786E+00 0.86471831E+03</pdfrwt>
<pdfrwt beam="2">  1       -1 0.86233607E-01 0.86471831E+03</pdfrwt>
<totfact> 0.20523862E+01</totfact>
</mgrwt>
</event>
<event>
 4    5  0.7767175E-008  0.6760855E+03  0.7818608E-02  0.1011631E+00
         -1   -1    0    0    0  501 -0.00000000000E+00  0.00000000000E+00  0.12333818085E+04  0.12333818085E+04  0.50400000000E-02 0.  1.
          1   -1    0    0  501    0  0.00000000000E+00 -0.00000000000E+00 -0.67320135520E+03  0.67320135522E+03  0.50400000000E-02 0. -1.
    8880023    1    1    2    0    0 -0.31520390000E+01  0.15254997445E+03  0.11190407771E+04  0.13074187918E+04  0.65864270000E+03 0.  0.
    8880022    1    1    2    0    0  0.31520390000E+01 -0.15254997445E+03 -0.55886032380E+03  0.59916437193E+03  0.15294330000E+03 0.  0.
<mgrwt>
<rscale>  0 0.50831689E+03</rscale>
<asrwt>0</asrwt>
<pdfrwt beam="1">  1        1 0.10356944E+00 0.67608552E+03</pdfrwt>
<pdfrwt beam="2">  1       -1 0.18975105E+00 0.67608552E+03</pdfrwt>
<totfact> 0.53701796E+00</totfact>
</mgrwt>
</event>
<event>
 4    5  0.7767175E-008  0.9415568E+03  0.7818608E-02  0.9462367E-01
          1   -1    0    0  501    0  0.00000000000E+00  0.00000000000E+00  0.89937954651E+03  0.89937954652E+03  0.50400000000E-02 0. -1.
         -1   -1    0    0    0  501 -0.00000000000E+00 -0.00000000000E+00 -0.79695761607E+03  0.79695761609E+03  0.50400000000E-02 0.  1.
    8880023    1    1    2    0    0  0.52354532700E+03  0.42263377159E+03  0.28285993861E+03  0.98312713595E+03  0.65864270000E+03 0.  0.
    8880022    1    1    2    0    0 -0.52354532700E+03 -0.42263377159E+03 -0.18043800817E+03  0.71321002665E+03  0.15294330000E+03 0.  0.
<mgrwt>
<rscale>  0 0.87116092E+03</rscale>
<asrwt>0</asrwt>
<pdfrwt beam="1">  1        1 0.13836608E+00 0.94155681E+03</pdfrwt>
<pdfrwt beam="2">  1       -1 0.12260886E+00 0.94155681E+03</pdfrwt>
<totfact> 0.10784681E+01</totfact>
</mgrwt>
</event>
<event>
 4    5  0.7767175E-008  0.1038731E+04  0.7818608E-02  0.9332552E-01
          1   -1    0    0  501    0  0.00000000000E+00  0.00000000000E+00  0.15277485716E+04  0.15277485716E+04  0.50400000000E-02 0. -1.
         -1   -1    0    0    0  501 -0.00000000000E+00 -0.00000000000E+00 -0.14293518072E+04  0.14293518072E+04  0.50400000000E-02 0.  1.
    8880023    1    1    2    0    0  0.69809277611E+02 -0.80017412796E+03 -0.10957543726E+04  0.15098476154E+04  0.65864270000E+03 0.  1.
    8880022    1    1    2    0    0 -0.69809277611E+02  0.80017412796E+03  0.11941511370E+04  0.14472527635E+04  0.15294330000E+03 0.  0.
<mgrwt>
<rscale>  0 0.97840475E+03</rscale>
<asrwt>0</asrwt>
<pdfrwt beam="1">  1        1 0.23503824E+00 0.10387310E+04</pdfrwt>
<pdfrwt beam="2">  1       -1 0.21990028E+00 0.10387310E+04</pdfrwt>
<totfact> 0.69162276E-01</totfact>
</mgrwt>
</event>
<event>
 4    5  0.7767175E-008  0.1284494E+04  0.7818608E-02  0.9079067E-01
          1   -1    0    0  501    0  0.00000000000E+00  0.00000000000E+00  0.43212634391E+04  0.43212634391E+04  0.50400000000E-02 0. -1.
         -1   -1    0    0    0  501 -0.00000000000E+00 -0.00000000000E+00 -0.43690985916E+03  0.43690985919E+03  0.50400000000E-02 0.  1.
    8880023    1    1    2    0    0 -0.92338953248E+03 -0.60288176385E+03  0.88770433789E+03  0.15613916381E+04  0.65864270000E+03 0.  1.
    8880022    1    1    2    0    0  0.92338953248E+03  0.60288176385E+03  0.29966492420E+04  0.31967816601E+04  0.15294330000E+03 0.  0.
<mgrwt>
<rscale>  0 0.12393819E+04</rscale>
<asrwt>0</asrwt>
<pdfrwt beam="1">  1        1 0.66480974E+00 0.12844940E+04</pdfrwt>
<pdfrwt beam="2">  1       -1 0.67216904E-01 0.12844940E+04</pdfrwt>
<totfact> 0.11016564E-01</totfact>
</mgrwt>
</event>
<event>
 4    5  0.7767175E-008  0.1297827E+04  0.7818608E-02  0.9067438E-01
         -1   -1    0    0    0  501 -0.00000000000E+00  0.00000000000E+00  0.11173128008E+04  0.11173128008E+04  0.50400000000E-02 0.  1.
          1   -1    0    0  501    0  0.00000000000E+00 -0.00000000000E+00 -0.19681996831E+04  0.19681996831E+04  0.50400000000E-02 0. -1.
    8880023    1    1    2    0    0  0.15010370745E+03  0.11081580078E+04  0.44036261517E+03  0.13705016353E+04  0.65864270000E+03 0.  0.
    8880022    1    1    2    0    0 -0.15010370745E+03 -0.11081580078E+04 -0.12912494975E+04  0.17150108486E+04  0.15294330000E+03 0.  0.
<mgrwt>
<rscale>  0 0.12533032E+04</rscale>
<asrwt>0</asrwt>
<pdfrwt beam="1">  1        1 0.30279995E+00 0.12978272E+04</pdfrwt>
<pdfrwt beam="2">  1       -1 0.17189428E+00 0.12978272E+04</pdfrwt>
<totfact> 0.72370198E-01</totfact>
</mgrwt>
</event>
<event>
 4    5  0.7767175E-008  0.1735972E+04  0.7818608E-02  0.8758806E-01
          1   -1    0    0  501    0  0.00000000000E+00  0.00000000000E+00  0.94105665523E+03  0.94105665524E+03  0.50400000000E-02 0. -1.
         -1   -1    0    0    0  501 -0.00000000000E+00 -0.00000000000E+00 -0.33031784941E+04  0.33031784941E+04  0.50400000000E-02 0.  1.
    8880023    1    1    2    0    0  0.10116469459E+04  0.12475409251E+04 -0.55697787148E+03  0.18231353375E+04  0.65864270000E+03 0.  0.
    8880022    1    1    2    0    0 -0.10116469459E+04 -0.12475409251E+04 -0.18051439674E+04  0.24210998119E+04  0.15294330000E+03 0.  0.
<mgrwt>
<rscale>  0 0.17044922E+04</rscale>
<asrwt>0</asrwt>
<pdfrwt beam="1">  1        1 0.14477795E+00 0.17359718E+04</pdfrwt>
<pdfrwt beam="2">  1       -1 0.50818130E+00 0.17359718E+04</pdfrwt>
<totfact> 0.20458820E-02</totfact>
</mgrwt>
</event>
<event>
 4    5  0.7767175E-008  0.1467735E+04  0.7818608E-02  0.8932762E-01
         -1   -1    0    0    0  501 -0.00000000000E+00  0.00000000000E+00  0.23238406380E+04  0.23238406380E+04  0.50400000000E-02 0.  1.
          1   -1    0    0  501    0  0.00000000000E+00 -0.00000000000E+00 -0.18556787443E+04  0.18556787443E+04  0.50400000000E-02 0. -1.
    8880023    1    1    2    0    0 -0.10619452400E+04  0.76987491534E+03  0.17874769710E+04  0.23128595301E+04  0.65864270000E+03 0.  0.
    8880022    1    1    2    0    0  0.10619452400E+04 -0.76987491534E+03 -0.13193150772E+04  0.18666598522E+04  0.15294330000E+03 0. -1.
<mgrwt>
<rscale>  0 0.14294652E+04</rscale>
<asrwt>0</asrwt>
<pdfrwt beam="1">  1        1 0.28548904E+00 0.14677347E+04</pdfrwt>
<pdfrwt beam="2">  1       -1 0.35751394E+00 0.14677347E+04</pdfrwt>
<totfact> 0.49076561E-02</totfact>
</mgrwt>
</event>
<event>
 4    5  0.7767175E-008  0.6715344E+03  0.7818608E-02  0.1014586E+00
         -1   -1    0    0    0  501 -0.00000000000E+00  0.00000000000E+00  0.29554723415E+03  0.29554723419E+03  0.50400000000E-02 0.  1.
          1   -1    0    0  501    0  0.00000000000E+00 -0.00000000000E+00 -0.11548006798E+04  0.11548006798E+04  0.50400000000E-02 0. -1.
    8880023    1    1    2    0    0 -0.11535927467E+03 -0.61971782532E+02 -0.11747920463E+03  0.68173296375E+03  0.65864270000E+03 0.  1.
    8880022    1    1    2    0    0  0.11535927467E+03  0.61971782532E+02 -0.74177424102E+03  0.76861495024E+03  0.15294330000E+03 0.  0.
<mgrwt>
<rscale>  0 0.49692010E+03</rscale>
<asrwt>0</asrwt>
<pdfrwt beam="1">  1        1 0.17766164E+00 0.67153441E+03</pdfrwt>
<pdfrwt beam="2">  1       -1 0.45468806E-01 0.67153441E+03</pdfrwt>
<totfact> 0.57228261E+01</totfact>
</mgrwt>
</event>
<event>
 4    5  0.7767175E-008  0.6900028E+03  0.7818608E-02  0.1004151E+00
          1   -1    0    0  501    0  0.00000000000E+00  0.00000000000E+00  0.77602967261E+03  0.77602967262E+03  0.50400000000E-02 0. -1.
         -1   -1    0    0    0  501 -0.00000000000E+00 -0.00000000000E+00 -0.85897254960E+03  0.85897254962E+03  0.50400000000E-02 0.  1.
    8880023    1    1    2    0    0  0.20135954596E+03 -0.41809351120E+02 -0.69015446009E+03  0.97591857941E+03  0.65864270000E+03 0.  0.
    8880022    1    1    2    0    0 -0.20135954596E+03  0.41809351120E+02  0.60721158309E+03  0.65908364283E+03  0.15294330000E+03 0.  0.
<mgrwt>
<rscale>  0 0.53866866E+03</rscale>
<asrwt>0</asrwt>
<pdfrwt beam="1">  1        1 0.11938918E+00 0.69000282E+03</pdfrwt>
<pdfrwt beam="2">  1       -1 0.13214962E+00 0.69000282E+03</pdfrwt>
<totfact> 0.11726126E+01</totfact>
</mgrwt>
</event>
<event>
 4    5  0.7767175E-008  0.7343494E+03  0.7818608E-02  0.9876723E-01
         -1   -1    0    0    0  501 -0.00000000000E+00  0.00000000000E+00  0.10779300581E+04  0.10779300581E+04  0.50400000000E-02 0.  1.
          1   -1    0    0  501    0  0.00000000000E+00 -0.00000000000E+00 -0.96004334086E+03  0.96004334088E+03  0.50400000000E-02 0. -1.
    8880023    1    1    2    0    0 -0.31953662867E+03 -0.57923389737E+02  0.90939384877E+03  0.11688738831E+04  0.65864270000E+03 0.  1.
    8880022    1    1    2    0    0  0.31953662867E+03  0.57923389737E+02 -0.79150713156E+03  0.86909951586E+03  0.15294330000E+03 0.  0.
<mgrwt>
<rscale>  0 0.61402743E+03</rscale>
<asrwt>0</asrwt>
<pdfrwt beam="1">  1        1 0.14769898E+00 0.73434936E+03</pdfrwt>
<pdfrwt beam="2">  1       -1 0.16583539E+00 0.73434936E+03</pdfrwt>
<totfact> 0.44692987E+00</totfact>
</mgrwt>
</event>
<event>
 4    5  0.7767175E-008  0.9161748E+03  0.7818608E-02  0.9500549E-01
         -1   -1    0    0    0  501 -0.00000000000E+00  0.00000000000E+00  0.63232507422E+03  0.63232507424E+03  0.50400000000E-02 0.  1.
          1   -1    0    0  501    0  0.00000000000E+00 -0.00000000000E+00 -0.15324505076E+04  0.15324505076E+04  0.50400000000E-02 0. -1.
    8880023    1    1    2    0    0 -0.63217529654E+03 -0.76944050956E+02  0.14878679139E+03  0.92817762745E+03  0.65864270000E+03 0.  0.
    8880022    1    1    2    0    0  0.63217529654E+03  0.76944050956E+02 -0.10489122248E+04  0.12365979544E+04  0.15294330000E+03 0.  0.
<mgrwt>
<rscale>  0 0.84243334E+03</rscale>
<asrwt>0</asrwt>
<pdfrwt beam="1">  1        1 0.23576162E+00 0.91617476E+03</pdfrwt>
<pdfrwt beam="2">  1       -1 0.97280781E-01 0.91617476E+03</pdfrwt>
<totfact> 0.64078685E+00</totfact>
</mgrwt>
</event>
<event>
 4    5  0.7767175E-008  0.1342149E+04  0.7818608E-02  0.9029990E-01
          1   -1    0    0  501    0  0.00000000000E+00  0.00000000000E+00  0.20951801967E+04  0.20951801967E+04  0.50400000000E-02 0. -1.
         -1   -1    0    0    0  501 -0.00000000000E+00 -0.00000000000E+00 -0.14006104739E+04  0.14006104739E+04  0.50400000000E-02 0.  1.
    8880023    1    1    2    0    0 -0.87331196026E+02  0.11661595084E+04  0.15414244620E+04  0.20438577042E+04  0.65864270000E+03 0.  0.
    8880022    1    1    2    0    0  0.87331196026E+02 -0.11661595084E+04 -0.84685473917E+03  0.14519329664E+04  0.15294330000E+03 0.  0.
<mgrwt>
<rscale>  0 0.12994646E+04</rscale>
<asrwt>0</asrwt>
<pdfrwt beam="1">  1        1 0.32233542E+00 0.13421494E+04</pdfrwt>
<pdfrwt beam="2">  1       -1 0.21547853E+00 0.13421494E+04</pdfrwt>
<totfact> 0.29190374E-01</totfact>
</mgrwt>
</event>
<event>
 4    5  0.7767175E-008  0.9548116E+03  0.7818608E-02  0.9443225E-01
          1   -1    0    0  501    0  0.00000000000E+00  0.00000000000E+00  0.10557578750E+04  0.10557578750E+04  0.50400000000E-02 0. -1.
         -1   -1    0    0    0  501 -0.00000000000E+00 -0.00000000000E+00 -0.21204843776E+04  0.21204843776E+04  0.50400000000E-02 0.  1.
    8880023    1    1    2    0    0 -0.58107016475E+03  0.37444952532E+03 -0.18726411957E+04  0.21020109984E+04  0.65864270000E+03 0.  1.
    8880022    1    1    2    0    0  0.58107016475E+03 -0.37444952532E+03  0.80791469301E+03  0.10742312542E+04  0.15294330000E+03 0.  0.
<mgrwt>
<rscale>  0 0.88602239E+03</rscale>
<asrwt>0</asrwt>
<pdfrwt beam="1">  1        1 0.16242429E+00 0.95481160E+03</pdfrwt>
<pdfrwt beam="2">  1       -1 0.32622836E+00 0.95481160E+03</pdfrwt>
<totfact> 0.31315175E-01</totfact>
</mgrwt>
</event>
<event>
 4    5  0.7767175E-008  0.1151133E+04  0.7818608E-02  0.9206154E-01
          1   -1    0    0  501    0  0.00000000000E+00  0.00000000000E+00  0.40450845657E+03  0.40450845660E+03  0.50400000000E-02 0. -1.
         -1   -1    0    0    0  501 -0.00000000000E+00 -0.00000000000E+00 -0.45480810413E+04  0.45480810413E+04  0.50400000000E-02 0.  1.
    8880023    1    1    2    0    0  0.56676451791E+03  0.75503248799E+03 -0.37424454048E+04  0.39154825872E+04  0.65864270000E+03 0.  0.
    8880022    1    1    2    0    0 -0.56676451791E+03 -0.75503248799E+03 -0.40112717993E+03  0.10371069107E+04  0.15294330000E+03 0.  0.
<mgrwt>
<rscale>  0 0.10990137E+04</rscale>
<asrwt>0</asrwt>
<pdfrwt beam="1">  1        1 0.62232073E-01 0.11511326E+04</pdfrwt>
<pdfrwt beam="2">  1       -1 0.69970474E+00 0.11511326E+04</pdfrwt>
<totfact> 0.11732866E-02</totfact>
</mgrwt>
</event>
<event>
 4    5  0.7767175E-008  0.9306276E+03  0.7818608E-02  0.9478552E-01
          1   -1    0    0  501    0  0.00000000000E+00  0.00000000000E+00  0.28222589345E+04  0.28222589345E+04  0.50400000000E-02 0. -1.
         -1   -1    0    0    0  501 -0.00000000000E+00 -0.00000000000E+00 -0.27969833960E+03  0.27969833964E+03  0.50400000000E-02 0.  1.
    8880023    1    1    2    0    0  0.65743601958E+03  0.59576232643E+01  0.77902948918E+03  0.12136534779E+04  0.65864270000E+03 0. -1.
    8880022    1    1    2    0    0 -0.65743601958E+03 -0.59576232643E+01  0.17635311057E+04  0.18883037963E+04  0.15294330000E+03 0.  0.
<mgrwt>
<rscale>  0 0.85883710E+03</rscale>
<asrwt>0</asrwt>
<pdfrwt beam="1">  1        1 0.43419365E+00 0.93062765E+03</pdfrwt>
<pdfrwt beam="2">  1       -1 0.43030517E-01 0.93062765E+03</pdfrwt>
<totfact> 0.44219221E+00</totfact>
</mgrwt>
</event>
<event>
 4    5  0.7767175E-008  0.6726388E+03  0.7818608E-02  0.1013838E+00
         -1   -1    0    0    0  501 -0.00000000000E+00  0.00000000000E+00  0.14234255179E+03  0.14234255187E+03  0.50400000000E-02 0.  1.
          1   -1    0    0  501    0  0.00000000000E+00 -0.00000000000E+00 -0.14259210196E+04  0.14259210196E+04  0.50400000000E-02 0. -1.
    8880023    1    1    2    0    0  0.58240930612E+02  0.12345351699E+03 -0.81445179037E+03  0.10563023724E+04  0.65864270000E+03 0.  1.
    8880022    1    1    2    0    0 -0.58240930612E+02 -0.12345351699E+03 -0.46912667747E+03  0.51196119910E+03  0.15294330000E+03 0.  0.
<mgrwt>
<rscale>  0 0.49977459E+03</rscale>
<asrwt>0</asrwt>
<pdfrwt beam="1">  1        1 0.21937245E+00 0.67263882E+03</pdfrwt>
<pdfrwt beam="2">  1       -1 0.21898855E-01 0.67263882E+03</pdfrwt>
<totfact> 0.13278191E+02</totfact>
</mgrwt>
</event>
<event>
 4    5  0.7767175E-008  0.8863070E+03  0.7818608E-02  0.9548381E-01
          1   -1    0    0  501    0  0.00000000000E+00  0.00000000000E+00  0.18192491550E+04  0.18192491550E+04  0.50400000000E-02 0. -1.
         -1   -1    0    0    0  501 -0.00000000000E+00 -0.00000000000E+00 -0.49130140324E+03  0.49130140327E+03  0.50400000000E-02 0.  1.
    8880023    1    1    2    0    0  0.19481373951E+03 -0.56015847283E+03  0.43292447670E+02  0.88736370789E+03  0.65864270000E+03 0.  1.
    8880022    1    1    2    0    0 -0.19481373951E+03  0.56015847283E+03  0.12846553041E+04  0.14231868504E+04  0.15294330000E+03 0.  0.
<mgrwt>
<rscale>  0 0.80808983E+03</rscale>
<asrwt>0</asrwt>
<pdfrwt beam="1">  1        1 0.27988448E+00 0.88630701E+03</pdfrwt>
<pdfrwt beam="2">  1       -1 0.75584832E-01 0.88630701E+03</pdfrwt>
<totfact> 0.71196611E+00</totfact>
</mgrwt>
</event>
<event>
 4    5  0.7767175E-008  0.7874918E+03  0.7818608E-02  0.9738524E-01
         -1   -1    0    0    0  501 -0.00000000000E+00  0.00000000000E+00  0.46681172321E+03  0.46681172324E+03  0.50400000000E-02 0.  1.
          1   -1    0    0  501    0  0.00000000000E+00 -0.00000000000E+00 -0.21900188424E+04  0.21900188424E+04  0.50400000000E-02 0. -1.
    8880023    1    1    2    0    0  0.41396453431E+03  0.12233749202E+03  0.84504290295E+02  0.79201280227E+03  0.65864270000E+03 0.  1.
    8880022    1    1    2    0    0 -0.41396453431E+03 -0.12233749202E+03 -0.18077114095E+04  0.18648177634E+04  0.15294330000E+03 0.  0.
<mgrwt>
<rscale>  0 0.68768687E+03</rscale>
<asrwt>0</asrwt>
<pdfrwt beam="1">  1        1 0.33692597E+00 0.78749178E+03</pdfrwt>
<pdfrwt beam="2">  1       -1 0.71817190E-01 0.78749178E+03</pdfrwt>
<totfact> 0.45334565E+00</totfact>
</mgrwt>
</event>
<event>
 4    5  0.7767175E-008  0.6886794E+03  0.7818608E-02  0.1004787E+00
         -1   -1    0    0    0  501 -0.00000000000E+00  0.00000000000E+00  0.67773233046E+03  0.67773233048E+03  0.50400000000E-02 0.  1.
          1   -1    0    0  501    0  0.00000000000E+00 -0.00000000000E+00 -0.46675440898E+03  0.46675440901E+03  0.50400000000E-02 0. -1.
    8880023    1    1    2    0    0  0.29518892987E+02  0.19899174054E+03  0.42845771482E+03  0.81108279324E+03  0.65864270000E+03 0.  1.
    8880022    1    1    2    0    0 -0.29518892987E+02 -0.19899174054E+03 -0.21747979334E+03  0.33340394624E+03  0.15294330000E+03 0.  0.
<mgrwt>
<rscale>  0 0.53600278E+03</rscale>
<asrwt>0</asrwt>
<pdfrwt beam="1">  1        1 0.71808371E-01 0.68867938E+03</pdfrwt>
<pdfrwt beam="2">  1       -1 0.10426651E+00 0.68867938E+03</pdfrwt>
<totfact> 0.43323409E+01</totfact>
</mgrwt>
</event>
<event>
 4    5  0.7767175E-008  0.9025082E+03  0.7818608E-02  0.9522017E-01
         -1   -1    0    0    0  501 -0.00000000000E+00  0.00000000000E+00  0.41543802350E+03  0.41543802353E+03  0.50400000000E-02 0.  1.
          1   -1    0    0  501    0  0.00000000000E+00 -0.00000000000E+00 -0.17466770792E+04  0.17466770792E+04  0.50400000000E-02 0. -1.
    8880023    1    1    2    0    0  0.55441593327E+03 -0.27080225966E+03 -0.12187743441E+04  0.15165526694E+04  0.65864270000E+03 0.  0.
    8880022    1    1    2    0    0 -0.55441593327E+03  0.27080225966E+03 -0.11246471150E+03  0.64556243327E+03  0.15294330000E+03 0.  0.
<mgrwt>
<rscale>  0 0.82679878E+03</rscale>
<asrwt>0</asrwt>
<pdfrwt beam="1">  1        1 0.26871955E+00 0.90250823E+03</pdfrwt>
<pdfrwt beam="2">  1       -1 0.63913543E-01 0.90250823E+03</pdfrwt>
<totfact> 0.11214212E+01</totfact>
</mgrwt>
</event>
<event>
 4    5  0.7767175E-008  0.7380590E+03  0.7818608E-02  0.9865638E-01
         -1   -1    0    0    0  501 -0.00000000000E+00  0.00000000000E+00  0.45036845379E+03  0.45036845382E+03  0.50400000000E-02 0.  1.
          1   -1    0    0  501    0  0.00000000000E+00 -0.00000000000E+00 -0.11585627429E+04  0.11585627429E+04  0.50400000000E-02 0. -1.
    8880023    1    1    2    0    0 -0.11124055086E+03 -0.31392101925E+03  0.77351144819E+02  0.74210125478E+03  0.65864270000E+03 0.  0.
    8880022    1    1    2    0    0  0.11124055086E+03  0.31392101925E+03 -0.78554543394E+03  0.86682994196E+03  0.15294330000E+03 0.  0.
<mgrwt>
<rscale>  0 0.61955928E+03</rscale>
<asrwt>0</asrwt>
<pdfrwt beam="1">  1        1 0.17824042E+00 0.73805899E+03</pdfrwt>
<pdfrwt beam="2">  1       -1 0.69287455E-01 0.73805899E+03</pdfrwt>
<totfact> 0.24902961E+01</totfact>
</mgrwt>
</event>
<event>
 4    5  0.7767175E-008  0.6911130E+03  0.7818608E-02  0.1003628E+00
         -1   -1    0    0    0  501 -0.00000000000E+00  0.00000000000E+00  0.30102966203E+03  0.30102966207E+03  0.50400000000E-02 0.  1.
          1   -1    0    0  501    0  0.00000000000E+00 -0.00000000000E+00 -0.17295433449E+04  0.17295433449E+04  0.50400000000E-02 0. -1.
    8880023    1    1    2    0    0 -0.41950543758E+02 -0.20510257486E+03 -0.12599790397E+03  0.70250451415E+03  0.65864270000E+03 0.  1.
    8880022    1    1    2    0    0  0.41950543758E+02  0.20510257486E+03 -0.13025157789E+04  0.13280684928E+04  0.15294330000E+03 0.  0.
<mgrwt>
<rscale>  0 0.54087628E+03</rscale>
<asrwt>0</asrwt>
<pdfrwt beam="1">  1        1 0.26608359E+00 0.69111296E+03</pdfrwt>
<pdfrwt beam="2">  1       -1 0.46312257E-01 0.69111296E+03</pdfrwt>
<totfact> 0.22070407E+01</totfact>
</mgrwt>
</event>
<event>
 4    5  0.7767175E-008  0.9834187E+03  0.7818608E-02  0.9403580E-01
         -1   -1    0    0    0  501 -0.00000000000E+00  0.00000000000E+00  0.80632286140E+03  0.80632286142E+03  0.50400000000E-02 0.  1.
          1   -1    0    0  501    0  0.00000000000E+00 -0.00000000000E+00 -0.16552043426E+04  0.16552043426E+04  0.50400000000E-02 0. -1.
    8880023    1    1    2    0    0 -0.27225712256E+03 -0.67762681911E+03  0.35470848816E+03  0.10454330991E+04  0.65864270000E+03 0.  1.
    8880022    1    1    2    0    0  0.27225712256E+03  0.67762681911E+03 -0.12035899694E+04  0.14160941050E+04  0.15294330000E+03 0.  0.
<mgrwt>
<rscale>  0 0.91781652E+03</rscale>
<asrwt>0</asrwt>
<pdfrwt beam="1">  1        1 0.25464682E+00 0.98341866E+03</pdfrwt>
<pdfrwt beam="2">  1       -1 0.12404967E+00 0.98341866E+03</pdfrwt>
<totfact> 0.29436946E+00</totfact>
</mgrwt>
</event>
<event>
 4    5  0.7767175E-008  0.1601908E+04  0.7818608E-02  0.8840837E-01
          1   -1    0    0  501    0  0.00000000000E+00  0.00000000000E+00  0.40907209015E+04  0.40907209015E+04  0.50400000000E-02 0. -1.
         -1   -1    0    0    0  501 -0.00000000000E+00 -0.00000000000E+00 -0.10897911323E+04  0.10897911323E+04  0.50400000000E-02 0.  1.
    8880023    1    1    2    0    0  0.14454044709E+04 -0.20761928496E+03  0.33125754187E+04  0.36795741551E+04  0.65864270000E+03 0. -1.
    8880022    1    1    2    0    0 -0.14454044709E+04  0.20761928496E+03 -0.31164564939E+03  0.15009378787E+04  0.15294330000E+03 0.  0.
<mgrwt>
<rscale>  0 0.15673881E+04</rscale>
<asrwt>0</asrwt>
<pdfrwt beam="1">  1        1 0.62934168E+00 0.16019083E+04</pdfrwt>
<pdfrwt beam="2">  1       -1 0.16766017E+00 0.16019083E+04</pdfrwt>
<totfact> 0.19326029E-02</totfact>
</mgrwt>
</event>
<event>
 4    5  0.7767175E-008  0.9030395E+03  0.7818608E-02  0.9521170E-01
          1   -1    0    0  501    0  0.00000000000E+00  0.00000000000E+00  0.14339129864E+04  0.14339129864E+04  0.50400000000E-02 0. -1.
         -1   -1    0    0    0  501 -0.00000000000E+00 -0.00000000000E+00 -0.15870814711E+04  0.15870814711E+04  0.50400000000E-02 0.  1.
    8880023    1    1    2    0    0 -0.74579682567E+02 -0.61327645519E+03 -0.13740216805E+04  0.16442067766E+04  0.65864270000E+03 0.  1.
    8880022    1    1    2    0    0  0.74579682567E+02  0.61327645519E+03  0.12208531958E+04  0.13767876809E+04  0.15294330000E+03 0.  0.
<mgrwt>
<rscale>  0 0.82740896E+03</rscale>
<asrwt>0</asrwt>
<pdfrwt beam="1">  1        1 0.22060200E+00 0.90303950E+03</pdfrwt>
<pdfrwt beam="2">  1       -1 0.24416638E+00 0.90303950E+03</pdfrwt>
<totfact> 0.56865425E-01</totfact>
</mgrwt>
</event>
<event>
 4    5  0.7767175E-008  0.8642954E+03  0.7818608E-02  0.9585968E-01
          1   -1    0    0  501    0  0.00000000000E+00  0.00000000000E+00  0.25620792526E+04  0.25620792526E+04  0.50400000000E-02 0. -1.
         -1   -1    0    0    0  501 -0.00000000000E+00 -0.00000000000E+00 -0.42352901894E+03  0.42352901897E+03  0.50400000000E-02 0.  1.
    8880023    1    1    2    0    0 -0.55647417232E+03 -0.59437544004E+02  0.10468137287E+03  0.87061169426E+03  0.65864270000E+03 0.  1.
    8880022    1    1    2    0    0  0.55647417232E+03  0.59437544004E+02  0.20338688608E+04  0.21149965773E+04  0.15294330000E+03 0.  0.
<mgrwt>
<rscale>  0 0.78231917E+03</rscale>
<asrwt>0</asrwt>
<pdfrwt beam="1">  1        1 0.39416603E+00 0.86429540E+03</pdfrwt>
<pdfrwt beam="2">  1       -1 0.65158312E-01 0.86429540E+03</pdfrwt>
<totfact> 0.30495646E+00</totfact>
</mgrwt>
</event>
<event>
 4    5  0.7767175E-008  0.8502198E+03  0.7818608E-02  0.9611203E-01
         -1   -1    0    0    0  501 -0.00000000000E+00  0.00000000000E+00  0.72552567983E+03  0.72552567985E+03  0.50400000000E-02 0.  1.
          1   -1    0    0  501    0  0.00000000000E+00 -0.00000000000E+00 -0.29253486622E+04  0.29253486622E+04  0.50400000000E-02 0. -1.
    8880023    1    1    2    0    0 -0.28565246564E+03  0.45548459459E+03  0.43665358232E+03  0.95579291913E+03  0.65864270000E+03 0.  1.
    8880022    1    1    2    0    0  0.28565246564E+03 -0.45548459459E+03 -0.26364765647E+04  0.26950814229E+04  0.15294330000E+03 0.  0.
<mgrwt>
<rscale>  0 0.76559113E+03</rscale>
<asrwt>0</asrwt>
<pdfrwt beam="1">  1        1 0.45005363E+00 0.85021983E+03</pdfrwt>
<pdfrwt beam="2">  1       -1 0.11161934E+00 0.85021983E+03</pdfrwt>
<totfact> 0.52733918E-01</totfact>
</mgrwt>
</event>
<event>
 4    5  0.7767175E-008  0.8646567E+03  0.7818608E-02  0.9585333E-01
         -1   -1    0    0    0  501 -0.00000000000E+00  0.00000000000E+00  0.57737264101E+03  0.57737264103E+03  0.50400000000E-02 0.  1.
          1   -1    0    0  501    0  0.00000000000E+00 -0.00000000000E+00 -0.11842919300E+04  0.11842919300E+04  0.50400000000E-02 0. -1.
    8880023    1    1    2    0    0 -0.53664405090E+02 -0.55762103670E+03  0.72742300625E+02  0.86771120628E+03  0.65864270000E+03 0.  1.
    8880022    1    1    2    0    0  0.53664405090E+02  0.55762103670E+03 -0.67966158957E+03  0.89395336472E+03  0.15294330000E+03 0.  0.
<mgrwt>
<rscale>  0 0.78274590E+03</rscale>
<asrwt>0</asrwt>
<pdfrwt beam="1">  1        1 0.18219876E+00 0.86465675E+03</pdfrwt>
<pdfrwt beam="2">  1       -1 0.88826560E-01 0.86465675E+03</pdfrwt>
<totfact> 0.13891517E+01</totfact>
</mgrwt>
</event>
<event>
 4    5  0.7767175E-008  0.6769937E+03  0.7818608E-02  0.1011078E+00
          1   -1    0    0  501    0  0.00000000000E+00  0.00000000000E+00  0.21247479263E+04  0.21247479263E+04  0.50400000000E-02 0. -1.
         -1   -1    0    0    0  501 -0.00000000000E+00 -0.00000000000E+00 -0.13147996769E+03  0.13147996779E+03  0.50400000000E-02 0.  1.
    8880023    1    1    2    0    0 -0.14751204753E+03  0.52444181371E+02  0.82299467755E+03  0.10656644133E+04  0.65864270000E+03 0.  1.
    8880022    1    1    2    0    0  0.14751204753E+03 -0.52444181371E+02  0.11702732811E+04  0.11905634808E+04  0.15294330000E+03 0.  0.
<mgrwt>
<rscale>  0 0.51048441E+03</rscale>
<asrwt>0</asrwt>
<pdfrwt beam="1">  1        1 0.32688430E+00 0.67699365E+03</pdfrwt>
<pdfrwt beam="2">  1       -1 0.20227687E-01 0.67699365E+03</pdfrwt>
<totfact> 0.51396185E+01</totfact>
</mgrwt>
</event>
<event>
 4    5  0.7767175E-008  0.6835581E+03  0.7818608E-02  0.1007379E+00
          1   -1    0    0  501    0  0.00000000000E+00  0.00000000000E+00  0.23084050062E+04  0.23084050062E+04  0.50400000000E-02 0. -1.
         -1   -1    0    0    0  501 -0.00000000000E+00 -0.00000000000E+00 -0.51885721519E+03  0.51885721522E+03  0.50400000000E-02 0.  1.
    8880023    1    1    2    0    0  0.33841197369E+02  0.17971137831E+03 -0.28388911147E+03  0.74016527884E+03  0.65864270000E+03 0.  1.
    8880022    1    1    2    0    0 -0.33841197369E+02 -0.17971137831E+03  0.20734369024E+04  0.20870969425E+04  0.15294330000E+03 0.  0.
<mgrwt>
<rscale>  0 0.52529913E+03</rscale>
<asrwt>0</asrwt>
<pdfrwt beam="1">  1        1 0.35513924E+00 0.68355805E+03</pdfrwt>
<pdfrwt beam="2">  1       -1 0.79824184E-01 0.68355805E+03</pdfrwt>
<totfact> 0.30865254E+00</totfact>
</mgrwt>
</event>
<event>
 4    5  0.7767175E-008  0.7192455E+03  0.7818608E-02  0.9925147E-01
          1   -1    0    0  501    0  0.00000000000E+00  0.00000000000E+00  0.25191025108E+04  0.25191025108E+04  0.50400000000E-02 0. -1.
         -1   -1    0    0    0  501 -0.00000000000E+00 -0.00000000000E+00 -0.28106627977E+03  0.28106627982E+03  0.50400000000E-02 0.  1.
    8880023    1    1    2    0    0  0.67911161370E+02  0.28087711362E+03  0.21472769882E+03  0.75061446142E+03  0.65864270000E+03 0.  1.
    8880022    1    1    2    0    0 -0.67911161370E+02 -0.28087711362E+03  0.20233085322E+04  0.20495543292E+04  0.15294330000E+03 0.  0.
<mgrwt>
<rscale>  0 0.59057874E+03</rscale>
<asrwt>0</asrwt>
<pdfrwt beam="1">  1        1 0.38755422E+00 0.71924550E+03</pdfrwt>
<pdfrwt beam="2">  1       -1 0.43240967E-01 0.71924550E+03</pdfrwt>
<totfact> 0.73607659E+00</totfact>
</mgrwt>
</event>
<event>
 4    5  0.7767175E-008  0.2218535E+04  0.7818608E-02  0.8520713E-01
          1   -1    0    0  501    0  0.00000000000E+00  0.00000000000E+00  0.24777305686E+04  0.24777305686E+04  0.50400000000E-02 0. -1.
         -1   -1    0    0    0  501 -0.00000000000E+00 -0.00000000000E+00 -0.21200634207E+04  0.21200634207E+04  0.50400000000E-02 0.  1.
    8880023    1    1    2    0    0  0.21110353131E+04 -0.17780845651E+03 -0.55356754757E+03  0.22865548707E+04  0.65864270000E+03 0.  0.
    8880022    1    1    2    0    0 -0.21110353131E+04  0.17780845651E+03  0.91123469548E+03  0.23112391187E+04  0.15294330000E+03 0.  0.
<mgrwt>
<rscale>  0 0.21945199E+04</rscale>
<asrwt>0</asrwt>
<pdfrwt beam="1">  1        1 0.38118932E+00 0.22185347E+04</pdfrwt>
<pdfrwt beam="2">  1       -1 0.32616360E+00 0.22185347E+04</pdfrwt>
<totfact> 0.27152903E-02</totfact>
</mgrwt>
</event>
<event>
 4    5  0.7767175E-008  0.8743431E+03  0.7818608E-02  0.9568542E-01
         -1   -1    0    0    0  501 -0.00000000000E+00  0.00000000000E+00  0.24038829789E+04  0.24038829789E+04  0.50400000000E-02 0.  1.
          1   -1    0    0  501    0  0.00000000000E+00 -0.00000000000E+00 -0.73840469052E+03  0.73840469054E+03  0.50400000000E-02 0. -1.
    8880023    1    1    2    0    0 -0.11305645429E+03 -0.56381194861E+03  0.21843263743E+04  0.23528190732E+04  0.65864270000E+03 0.  1.
    8880022    1    1    2    0    0  0.11305645429E+03  0.56381194861E+03 -0.51884808592E+03  0.78946859630E+03  0.15294330000E+03 0.  0.
<mgrwt>
<rscale>  0 0.79413734E+03</rscale>
<asrwt>0</asrwt>
<pdfrwt beam="1">  1        1 0.11360072E+00 0.87434311E+03</pdfrwt>
<pdfrwt beam="2">  1       -1 0.36982815E+00 0.87434311E+03</pdfrwt>
<totfact> 0.30059586E-01</totfact>
</mgrwt>
</event>
<event>
 4    5  0.7767175E-008  0.1187779E+04  0.7818608E-02  0.9169095E-01
         -1   -1    0    0    0  501 -0.00000000000E+00  0.00000000000E+00  0.11511971866E+04  0.11511971866E+04  0.50400000000E-02 0.  1.
          1   -1    0    0  501    0  0.00000000000E+00 -0.00000000000E+00 -0.13903172212E+04  0.13903172212E+04  0.50400000000E-02 0. -1.
    8880023    1    1    2    0    0  0.95092428947E+03  0.26972456704E+03  0.50923707708E+03  0.12923393337E+04  0.65864270000E+03 0.  0.
    8880022    1    1    2    0    0 -0.95092428947E+03 -0.26972456704E+03 -0.74835711166E+03  0.12491750742E+04  0.15294330000E+03 0.  0.
<mgrwt>
<rscale>  0 0.11378196E+04</rscale>
<asrwt>0</asrwt>
<pdfrwt beam="1">  1        1 0.21389496E+00 0.11877788E+04</pdfrwt>
<pdfrwt beam="2">  1       -1 0.17710726E+00 0.11877788E+04</pdfrwt>
<totfact> 0.16725883E+00</totfact>
</mgrwt>
</event>
<event>
 4    5  0.7767175E-008  0.1225999E+04  0.7818608E-02  0.9132255E-01
          1   -1    0    0  501    0  0.00000000000E+00  0.00000000000E+00  0.13542642119E+04  0.13542642119E+04  0.50400000000E-02 0. -1.
         -1   -1    0    0    0  501 -0.00000000000E+00 -0.00000000000E+00 -0.97419413174E+03  0.97419413175E+03  0.50400000000E-02 0.  1.
    8880023    1    1    2    0    0 -0.60096583257E+03 -0.84148866001E+03  0.37870367691E+03  0.12831561783E+04  0.65864270000E+03 0. -1.
    8880022    1    1    2    0    0  0.60096583257E+03  0.84148866001E+03  0.13664032857E+01  0.10453021654E+04  0.15294330000E+03 0.  0.
<mgrwt>
<rscale>  0 0.11780885E+04</rscale>
<asrwt>0</asrwt>
<pdfrwt beam="1">  1        1 0.20834834E+00 0.12259989E+04</pdfrwt>
<pdfrwt beam="2">  1       -1 0.14987602E+00 0.12259989E+04</pdfrwt>
<totfact> 0.28311316E+00</totfact>
</mgrwt>
</event>
<event>
 4    5  0.7767175E-008  0.1048411E+04  0.7818608E-02  0.9320794E-01
         -1   -1    0    0    0  501 -0.00000000000E+00  0.00000000000E+00  0.67358078632E+03  0.67358078634E+03  0.50400000000E-02 0.  1.
          1   -1    0    0  501    0  0.00000000000E+00 -0.00000000000E+00 -0.20773168905E+04  0.20773168905E+04  0.50400000000E-02 0. -1.
    8880023    1    1    2    0    0  0.67765570388E+02 -0.81287377260E+03  0.79339775252E+02  0.10514090303E+04  0.65864270000E+03 0.  0.
    8880022    1    1    2    0    0 -0.67765570388E+02  0.81287377260E+03 -0.14830758795E+04  0.16994886466E+04  0.15294330000E+03 0.  0.
<mgrwt>
<rscale>  0 0.98890886E+03</rscale>
<asrwt>0</asrwt>
<pdfrwt beam="1">  1        1 0.31958721E+00 0.10484112E+04</pdfrwt>
<pdfrwt beam="2">  1       -1 0.10362781E+00 0.10484112E+04</pdfrwt>
<totfact> 0.23302855E+00</totfact>
</mgrwt>
</event>
<event>
 4    5  0.7767175E-008  0.8007287E+03  0.7818608E-02  0.9709223E-01
         -1   -1    0    0    0  501 -0.00000000000E+00  0.00000000000E+00  0.27889102693E+03  0.27889102697E+03  0.50400000000E-02 0.  1.
          1   -1    0    0  501    0  0.00000000000E+00 -0.00000000000E+00 -0.20927209126E+04  0.20927209126E+04  0.50400000000E-02 0. -1.
    8880023    1    1    2    0    0  0.35749281948E+02  0.45395849071E+03 -0.43447732240E+03  0.91100882125E+03  0.65864270000E+03 0. -1.
    8880022    1    1    2    0    0 -0.35749281948E+02 -0.45395849071E+03 -0.13793525632E+04  0.14606031183E+04  0.15294330000E+03 0.  0.
<mgrwt>
<rscale>  0 0.70470330E+03</rscale>
<asrwt>0</asrwt>
<pdfrwt beam="1">  1        1 0.32195705E+00 0.80072875E+03</pdfrwt>
<pdfrwt beam="2">  1       -1 0.42906313E-01 0.80072875E+03</pdfrwt>
<totfact> 0.14306454E+01</totfact>
</mgrwt>
</event>
<event>
 4    5  0.7767175E-008  0.1704720E+04  0.7818608E-02  0.8777158E-01
         -1   -1    0    0    0  501 -0.00000000000E+00  0.00000000000E+00  0.12239749334E+04  0.12239749335E+04  0.50400000000E-02 0.  1.
          1   -1    0    0  501    0  0.00000000000E+00 -0.00000000000E+00 -0.31700447782E+04  0.31700447783E+04  0.50400000000E-02 0. -1.
    8880023    1    1    2    0    0  0.89037989182E+03  0.12959485947E+04  0.21379892130E+03  0.17180742990E+04  0.65864270000E+03 0.  0.
    8880022    1    1    2    0    0 -0.89037989182E+03 -0.12959485947E+04 -0.21598687661E+04  0.26759454127E+04  0.15294330000E+03 0.  0.
<mgrwt>
<rscale>  0 0.16725831E+04</rscale>
<asrwt>0</asrwt>
<pdfrwt beam="1">  1        1 0.48769920E+00 0.17047197E+04</pdfrwt>
<pdfrwt beam="2">  1       -1 0.18830384E+00 0.17047197E+04</pdfrwt>
<totfact> 0.75232137E-02</totfact>
</mgrwt>
</event>
<event>
 4    5  0.9192164E-008  0.1012923E+04  0.7818608E-02  0.9364843E-01
         -1   -1    0    0    0  501 -0.00000000000E+00  0.00000000000E+00  0.23068386582E+04  0.23068386582E+04  0.50400000000E-02 0.  1.
          1   -1    0    0  501    0  0.00000000000E+00 -0.00000000000E+00 -0.16381786232E+04  0.16381786232E+04  0.50400000000E-02 0. -1.
    8880023    1    1    2    0    0  0.75611020194E+03 -0.14317549999E+03  0.20894251896E+04  0.23220055320E+04  0.65864270000E+03 0.  0.
    8880022    1    1    2    0    0 -0.75611020194E+03  0.14317549999E+03 -0.14207651546E+04  0.16230117494E+04  0.15294330000E+03 0.  0.
<mgrwt>
<rscale>  0 0.95026324E+03</rscale>
<asrwt>0</asrwt>
<pdfrwt beam="1">  1        1 0.25202748E+00 0.10129225E+04</pdfrwt>
<pdfrwt beam="2">  1       -1 0.35489825E+00 0.10129225E+04</pdfrwt>
<totfact> 0.77466206E-02</totfact>
</mgrwt>
</event>
<event>
 4    5  0.7767175E-008  0.6811443E+03  0.7818608E-02  0.1008684E+00
         -1   -1    0    0    0  501 -0.00000000000E+00  0.00000000000E+00  0.24052061295E+03  0.24052061301E+03  0.50400000000E-02 0.  1.
          1   -1    0    0  501    0  0.00000000000E+00 -0.00000000000E+00 -0.87008289977E+03  0.87008289979E+03  0.50400000000E-02 0. -1.
    8880023    1    1    2    0    0 -0.14323023142E+03 -0.98145112847E+02 -0.50410215447E+03  0.84739397613E+03  0.65864270000E+03 0.  0.
    8880022    1    1    2    0    0  0.14323023142E+03  0.98145112847E+02 -0.12546013235E+03  0.26320953667E+03  0.15294330000E+03 0. -1.
<mgrwt>
<rscale>  0 0.52001174E+03</rscale>
<asrwt>0</asrwt>
<pdfrwt beam="1">  1        1 0.13385891E+00 0.68114431E+03</pdfrwt>
<pdfrwt beam="2">  1       -1 0.37003172E-01 0.68114431E+03</pdfrwt>
<totfact> 0.13810885E+02</totfact>
</mgrwt>
</event>
<event>
 4    5  0.7767175E-008  0.8294645E+03  0.7818608E-02  0.9650375E-01
          1   -1    0    0  501    0  0.00000000000E+00  0.00000000000E+00  0.13887046637E+04  0.13887046637E+04  0.50400000000E-02 0. -1.
         -1   -1    0    0    0  501 -0.00000000000E+00 -0.00000000000E+00 -0.41276871843E+03  0.41276871846E+03  0.50400000000E-02 0.  1.
    8880023    1    1    2    0    0  0.42851653766E+03 -0.26565911535E+03  0.18293109793E+03  0.84939695165E+03  0.65864270000E+03 0.  0.
    8880022    1    1    2    0    0 -0.42851653766E+03  0.26565911535E+03  0.79300484734E+03  0.95207643051E+03  0.15294330000E+03 0.  0.
<mgrwt>
<rscale>  0 0.74049886E+03</rscale>
<asrwt>0</asrwt>
<pdfrwt beam="1">  1        1 0.21364687E+00 0.82946452E+03</pdfrwt>
<pdfrwt beam="2">  1       -1 0.63502879E-01 0.82946452E+03</pdfrwt>
<totfact> 0.20134940E+01</totfact>
</mgrwt>
</event>
<event>
 4    5  0.7767175E-008  0.1248007E+04  0.7818608E-02  0.9111813E-01
         -1   -1    0    0    0  501 -0.00000000000E+00  0.00000000000E+00  0.20876887225E+04  0.20876887225E+04  0.50400000000E-02 0.  1.
          1   -1    0    0  501    0  0.00000000000E+00 -0.00000000000E+00 -0.92826747704E+03  0.92826747705E+03  0.50400000000E-02 0. -1.
    8880023    1    1    2    0    0 -0.84712727781E+03  0.63724849106E+03  0.14432012264E+04  0.19079701912E+04  0.65864270000E+03 0.  0.
    8880022    1    1    2    0    0  0.84712727781E+03 -0.63724849106E+03 -0.28377998096E+03  0.11079860084E+04  0.15294330000E+03 0.  0.
<mgrwt>
<rscale>  0 0.12011933E+04</rscale>
<asrwt>0</asrwt>
<pdfrwt beam="1">  1        1 0.14281038E+00 0.12480066E+04</pdfrwt>
<pdfrwt beam="2">  1       -1 0.32118288E+00 0.12480066E+04</pdfrwt>
<totfact> 0.40710803E-01</totfact>
</mgrwt>
</event>
<event>
 4    5  0.7767175E-008  0.7108150E+03  0.7818608E-02  0.9954987E-01
         -1   -1    0    0    0  501 -0.00000000000E+00  0.00000000000E+00  0.94149402805E+03  0.94149402806E+03  0.50400000000E-02 0.  1.
          1   -1    0    0  501    0  0.00000000000E+00 -0.00000000000E+00 -0.58933261903E+03  0.58933261905E+03  0.50400000000E-02 0. -1.
    8880023    1    1    2    0    0 -0.26309834763E+03 -0.47191816059E+02  0.74630038816E+03  0.10306416854E+04  0.65864270000E+03 0.  1.
    8880022    1    1    2    0    0  0.26309834763E+03  0.47191816059E+02 -0.39413897914E+03  0.50018496172E+03  0.15294330000E+03 0.  0.
<mgrwt>
<rscale>  0 0.57668823E+03</rscale>
<asrwt>0</asrwt>
<pdfrwt beam="1">  1        1 0.90666558E-01 0.71081504E+03</pdfrwt>
<pdfrwt beam="2">  1       -1 0.14484523E+00 0.71081504E+03</pdfrwt>
<totfact> 0.13916650E+01</totfact>
</mgrwt>
</event>
<event>
 4    5  0.7767175E-008  0.8189617E+03  0.7818608E-02  0.9671204E-01
          1   -1    0    0  501    0  0.00000000000E+00  0.00000000000E+00  0.10518739026E+04  0.10518739026E+04  0.50400000000E-02 0. -1.
         -1   -1    0    0    0  501 -0.00000000000E+00 -0.00000000000E+00 -0.98721409548E+03  0.98721409549E+03  0.50400000000E-02 0.  1.
    8880023    1    1    2    0    0  0.29656476775E+03 -0.38592409020E+03 -0.72845260446E+03  0.10960572376E+04  0.65864270000E+03 0.  1.
    8880022    1    1    2    0    0 -0.29656476775E+03  0.38592409020E+03  0.79311241161E+03  0.94303076055E+03  0.15294330000E+03 0.  0.
<mgrwt>
<rscale>  0 0.72757495E+03</rscale>
<asrwt>0</asrwt>
<pdfrwt beam="1">  1        1 0.16182676E+00 0.81896170E+03</pdfrwt>
<pdfrwt beam="2">  1       -1 0.15187909E+00 0.81896170E+03</pdfrwt>
<totfact> 0.47763353E+00</totfact>
</mgrwt>
</event>
<event>
 4    5  0.7767175E-008  0.1483637E+04  0.7818608E-02  0.8921277E-01
          1   -1    0    0  501    0  0.00000000000E+00  0.00000000000E+00  0.30576852251E+04  0.30576852251E+04  0.50400000000E-02 0. -1.
         -1   -1    0    0    0  501 -0.00000000000E+00 -0.00000000000E+00 -0.75906965750E+03  0.75906965752E+03  0.50400000000E-02 0.  1.
    8880023    1    1    2    0    0  0.68187372895E+03  0.11412350805E+04  0.48100521470E+03  0.15596619871E+04  0.65864270000E+03 0.  0.
    8880022    1    1    2    0    0 -0.68187372895E+03 -0.11412350805E+04  0.18176103529E+04  0.22570928955E+04  0.15294330000E+03 0.  0.
<mgrwt>
<rscale>  0 0.14458575E+04</rscale>
<asrwt>0</asrwt>
<pdfrwt beam="1">  1        1 0.47041312E+00 0.14836373E+04</pdfrwt>
<pdfrwt beam="2">  1       -1 0.11677995E+00 0.14836373E+04</pdfrwt>
<totfact> 0.34385818E-01</totfact>
</mgrwt>
</event>
<event>
 4    5  0.7767175E-008  0.6834857E+03  0.7818608E-02  0.1007417E+00
         -1   -1    0    0    0  501 -0.00000000000E+00  0.00000000000E+00  0.19117348176E+03  0.19117348183E+03  0.50400000000E-02 0.  1.
          1   -1    0    0  501    0  0.00000000000E+00 -0.00000000000E+00 -0.28416170341E+04  0.28416170341E+04  0.50400000000E-02 0. -1.
    8880023    1    1    2    0    0 -0.17371647281E+03  0.56259263037E+02 -0.44737355555E+03  0.81688176750E+03  0.65864270000E+03 0.  1.
    8880022    1    1    2    0    0  0.17371647281E+03 -0.56259263037E+02 -0.22030699968E+04  0.22159087484E+04  0.15294330000E+03 0.  0.
<mgrwt>
<rscale>  0 0.52514311E+03</rscale>
<asrwt>0</asrwt>
<pdfrwt beam="1">  1        1 0.43717182E+00 0.68348572E+03</pdfrwt>
<pdfrwt beam="2">  1       -1 0.29411307E-01 0.68348572E+03</pdfrwt>
<totfact> 0.88201181E+00</totfact>
</mgrwt>
</event>
<event>
 4    5  0.7767175E-008  0.6657657E+03  0.7818608E-02  0.1018899E+00
          1   -1    0    0  501    0  0.00000000000E+00  0.00000000000E+00  0.93816904594E+03  0.93816904595E+03  0.50400000000E-02 0. -1.
         -1   -1    0    0    0  501 -0.00000000000E+00 -0.00000000000E+00 -0.38674314978E+03  0.38674314981E+03  0.50400000000E-02 0.  1.
    8880023    1    1    2    0    0  0.91615795308E+02 -0.32253610112E+02 -0.77638072506E+02  0.67027727537E+03  0.65864270000E+03 0.  1.
    8880022    1    1    2    0    0 -0.91615795308E+02  0.32253610112E+02  0.62906396866E+03  0.65463492039E+03  0.15294330000E+03 0.  0.
<mgrwt>
<rscale>  0 0.48085852E+03</rscale>
<asrwt>0</asrwt>
<pdfrwt beam="1">  1        1 0.14433370E+00 0.66576569E+03</pdfrwt>
<pdfrwt beam="2">  1       -1 0.59498947E-01 0.66576569E+03</pdfrwt>
<totfact> 0.50096665E+01</totfact>
</mgrwt>
</event>
<event>
 4    5  0.7767175E-008  0.1158352E+04  0.7818608E-02  0.9198710E-01
          1   -1    0    0  501    0  0.00000000000E+00  0.00000000000E+00  0.31026871011E+04  0.31026871011E+04  0.50400000000E-02 0. -1.
         -1   -1    0    0    0  501 -0.00000000000E+00 -0.00000000000E+00 -0.11184898891E+04  0.11184898891E+04  0.50400000000E-02 0.  1.
    8880023    1    1    2    0    0 -0.71285093910E+03  0.63230830343E+03 -0.71048968917E+03  0.13588878013E+04  0.65864270000E+03 0.  1.
    8880022    1    1    2    0    0  0.71285093910E+03 -0.63230830343E+03  0.26946869013E+04  0.28622891889E+04  0.15294330000E+03 0.  1.
<mgrwt>
<rscale>  0 0.11066757E+04</rscale>
<asrwt>0</asrwt>
<pdfrwt beam="1">  1        1 0.47733647E+00 0.11583525E+04</pdfrwt>
<pdfrwt beam="2">  1       -1 0.17207537E+00 0.11583525E+04</pdfrwt>
<totfact> 0.11941388E-01</totfact>
</mgrwt>
</event>
<event>
 4    5  0.7767175E-008  0.1069220E+04  0.7818608E-02  0.9296125E-01
         -1   -1    0    0    0  501 -0.00000000000E+00  0.00000000000E+00  0.90980817143E+03  0.90980817144E+03  0.50400000000E-02 0.  1.
          1   -1    0    0  501    0  0.00000000000E+00 -0.00000000000E+00 -0.12448352146E+04  0.12448352147E+04  0.50400000000E-02 0. -1.
    8880023    1    1    2    0    0 -0.84093216698E+03 -0.47482810304E+02  0.27434945996E+03  0.11038565845E+04  0.65864270000E+03 0.  0.
    8880022    1    1    2    0    0  0.84093216698E+03  0.47482810304E+02 -0.60937650318E+03  0.10507868016E+04  0.15294330000E+03 0.  0.
<mgrwt>
<rscale>  0 0.10114036E+04</rscale>
<asrwt>0</asrwt>
<pdfrwt beam="1">  1        1 0.19151311E+00 0.10692202E+04</pdfrwt>
<pdfrwt beam="2">  1       -1 0.13997049E+00 0.10692202E+04</pdfrwt>
<totfact> 0.41379512E+00</totfact>
</mgrwt>
</event>
<event>
 4    5  0.8020769E-008  0.8916794E+03  0.7818608E-02  0.9539523E-01
         -1   -1    0    0    0  501 -0.00000000000E+00  0.00000000000E+00  0.13426626751E+04  0.13426626751E+04  0.50400000000E-02 0.  1.
          1   -1    0    0  501    0  0.00000000000E+00 -0.00000000000E+00 -0.28931328593E+04  0.28931328593E+04  0.50400000000E-02 0. -1.
    8880023    1    1    2    0    0 -0.59834454805E+03  0.57147083257E+02  0.11555629252E+04  0.14595951040E+04  0.65864270000E+03 0.  0.
    8880022    1    1    2    0    0  0.59834454805E+03 -0.57147083257E+02 -0.27060331095E+04  0.27762004304E+04  0.15294330000E+03 0.  0.
<mgrwt>
<rscale>  0 0.81431627E+03</rscale>
<asrwt>0</asrwt>
<pdfrwt beam="1">  1        1 0.44509736E+00 0.89167942E+03</pdfrwt>
<pdfrwt beam="2">  1       -1 0.20656349E+00 0.89167942E+03</pdfrwt>
<totfact> 0.10204059E-01</totfact>
</mgrwt>
</event>
<event>
 4    5  0.7767175E-008  0.8584875E+03  0.7818608E-02  0.9596260E-01
          1   -1    0    0  501    0  0.00000000000E+00  0.00000000000E+00  0.68783383759E+03  0.68783383761E+03  0.50400000000E-02 0. -1.
         -1   -1    0    0    0  501 -0.00000000000E+00 -0.00000000000E+00 -0.87140792216E+03  0.87140792218E+03  0.50400000000E-02 0.  1.
    8880023    1    1    2    0    0 -0.46664313640E+03  0.29229223577E+03 -0.40135918394E+03  0.94767608845E+03  0.65864270000E+03 0.  1.
    8880022    1    1    2    0    0  0.46664313640E+03 -0.29229223577E+03  0.21778509936E+03  0.61156567133E+03  0.15294330000E+03 0.  0.
<mgrwt>
<rscale>  0 0.77544240E+03</rscale>
<asrwt>0</asrwt>
<pdfrwt beam="1">  1        1 0.10582059E+00 0.85848749E+03</pdfrwt>
<pdfrwt beam="2">  1       -1 0.13406276E+00 0.85848749E+03</pdfrwt>
<totfact> 0.13334373E+01</totfact>
</mgrwt>
</event>
<event>
 4    5  0.7767175E-008  0.8647612E+03  0.7818608E-02  0.9585150E-01
          1   -1    0    0  501    0  0.00000000000E+00  0.00000000000E+00  0.14500459474E+04  0.14500459474E+04  0.50400000000E-02 0. -1.
         -1   -1    0    0    0  501 -0.00000000000E+00 -0.00000000000E+00 -0.42655521657E+03  0.42655521660E+03  0.50400000000E-02 0.  1.
    8880023    1    1    2    0    0 -0.55467497080E+03 -0.79607576794E+02  0.23291345647E+03  0.89557834609E+03  0.65864270000E+03 0.  0.
    8880022    1    1    2    0    0  0.55467497080E+03  0.79607576794E+02  0.79057727432E+03  0.98102281788E+03  0.15294330000E+03 0.  0.
<mgrwt>
<rscale>  0 0.78286919E+03</rscale>
<asrwt>0</asrwt>
<pdfrwt beam="1">  1        1 0.22308399E+00 0.86476118E+03</pdfrwt>
<pdfrwt beam="2">  1       -1 0.65623879E-01 0.86476118E+03</pdfrwt>
<totfact> 0.17016338E+01</totfact>
</mgrwt>
</event>
<event>
 4    5  0.7767175E-008  0.8179820E+03  0.7818608E-02  0.9673185E-01
          1   -1    0    0  501    0  0.00000000000E+00  0.00000000000E+00  0.27050134347E+04  0.27050134347E+04  0.50400000000E-02 0. -1.
         -1   -1    0    0    0  501 -0.00000000000E+00 -0.00000000000E+00 -0.31570660778E+03  0.31570660782E+03  0.50400000000E-02 0.  1.
    8880023    1    1    2    0    0 -0.48112691635E+03  0.61653630018E+02  0.30137396587E+03  0.87173433642E+03  0.65864270000E+03 0.  0.
    8880022    1    1    2    0    0  0.48112691635E+03 -0.61653630018E+02  0.20879328610E+04  0.21489857061E+04  0.15294330000E+03 0.  0.
<mgrwt>
<rscale>  0 0.72636063E+03</rscale>
<asrwt>0</asrwt>
<pdfrwt beam="1">  1        1 0.41615590E+00 0.81798196E+03</pdfrwt>
<pdfrwt beam="2">  1       -1 0.48570249E-01 0.81798196E+03</pdfrwt>
<totfact> 0.43377820E+00</totfact>
</mgrwt>
</event>
<event>
 4    5  0.7767175E-008  0.7062911E+03  0.7818608E-02  0.9972040E-01
         -1   -1    0    0    0  501 -0.00000000000E+00  0.00000000000E+00  0.29605058339E+03  0.29605058343E+03  0.50400000000E-02 0.  1.
          1   -1    0    0  501    0  0.00000000000E+00 -0.00000000000E+00 -0.13690393702E+04  0.13690393702E+04  0.50400000000E-02 0. -1.
    8880023    1    1    2    0    0 -0.19031049016E+03  0.16976105961E+03 -0.18714230407E+03  0.73066363551E+03  0.65864270000E+03 0.  1.
    8880022    1    1    2    0    0  0.19031049016E+03 -0.16976105961E+03 -0.88584648277E+03  0.93442631816E+03  0.15294330000E+03 0.  0.
<mgrwt>
<rscale>  0 0.56893396E+03</rscale>
<asrwt>0</asrwt>
<pdfrwt beam="1">  1        1 0.21062144E+00 0.70629109E+03</pdfrwt>
<pdfrwt beam="2">  1       -1 0.45546244E-01 0.70629109E+03</pdfrwt>
<totfact> 0.39987584E+01</totfact>
</mgrwt>
</event>
<event>
 4    5  0.7767175E-008  0.7389824E+03  0.7818608E-02  0.9862921E-01
         -1   -1    0    0    0  501 -0.00000000000E+00  0.00000000000E+00  0.24231309958E+03  0.24231309963E+03  0.50400000000E-02 0.  1.
          1   -1    0    0  501    0  0.00000000000E+00 -0.00000000000E+00 -0.28120423819E+04  0.28120423819E+04  0.50400000000E-02 0. -1.
    8880023    1    1    2    0    0 -0.32064385177E+03  0.97325734562E+02 -0.37454010126E+03  0.82847768346E+03  0.65864270000E+03 0.  0.
    8880022    1    1    2    0    0  0.32064385177E+03 -0.97325734562E+02 -0.21951891811E+04  0.22258777981E+04  0.15294330000E+03 0.  0.
<mgrwt>
<rscale>  0 0.62092425E+03</rscale>
<asrwt>0</asrwt>
<pdfrwt beam="1">  1        1 0.43262188E+00 0.73898240E+03</pdfrwt>
<pdfrwt beam="2">  1       -1 0.37278940E-01 0.73898240E+03</pdfrwt>
<totfact> 0.60254718E+00</totfact>
</mgrwt>
</event>
<event>
 4    5  0.7767175E-008  0.7404297E+03  0.7818608E-02  0.9858697E-01
          1   -1    0    0  501    0  0.00000000000E+00  0.00000000000E+00  0.20281434903E+04  0.20281434903E+04  0.50400000000E-02 0. -1.
         -1   -1    0    0    0  501 -0.00000000000E+00 -0.00000000000E+00 -0.21808643265E+03  0.21808643271E+03  0.50400000000E-02 0.  1.
    8880023    1    1    2    0    0 -0.36399133637E+02 -0.33630492001E+03  0.52250530605E+03  0.90622728786E+03  0.65864270000E+03 0.  1.
    8880022    1    1    2    0    0  0.36399133637E+02  0.33630492001E+03  0.12875517516E+04  0.13400026352E+04  0.15294330000E+03 0.  0.
<mgrwt>
<rscale>  0 0.62305434E+03</rscale>
<asrwt>0</asrwt>
<pdfrwt beam="1">  1        1 0.31202207E+00 0.74042967E+03</pdfrwt>
<pdfrwt beam="2">  1       -1 0.33551759E-01 0.74042967E+03</pdfrwt>
<totfact> 0.24840596E+01</totfact>
</mgrwt>
</event>
<event>
 4    5  0.7767175E-008  0.1123760E+04  0.7818608E-02  0.9235053E-01
         -1   -1    0    0    0  501 -0.00000000000E+00  0.00000000000E+00  0.98838781912E+03  0.98838781914E+03  0.50400000000E-02 0.  1.
          1   -1    0    0  501    0  0.00000000000E+00 -0.00000000000E+00 -0.15756160928E+04  0.15756160928E+04  0.50400000000E-02 0. -1.
    8880023    1    1    2    0    0 -0.89238136923E+03  0.18077875504E+03  0.41812885456E+03  0.11990276943E+04  0.65864270000E+03 0.  1.
    8880022    1    1    2    0    0  0.89238136923E+03 -0.18077875504E+03 -0.10053571283E+04  0.13649762177E+04  0.15294330000E+03 0.  0.
<mgrwt>
<rscale>  0 0.10698837E+04</rscale>
<asrwt>0</asrwt>
<pdfrwt beam="1">  1        1 0.24240248E+00 0.11237596E+04</pdfrwt>
<pdfrwt beam="2">  1       -1 0.15205966E+00 0.11237596E+04</pdfrwt>
<totfact> 0.19307757E+00</totfact>
</mgrwt>
</event>
<event>
 4    5  0.7767175E-008  0.1315634E+04  0.7818608E-02  0.9052175E-01
         -1   -1    0    0    0  501 -0.00000000000E+00  0.00000000000E+00  0.95855392705E+03  0.95855392706E+03  0.50400000000E-02 0.  1.
          1   -1    0    0  501    0  0.00000000000E+00 -0.00000000000E+00 -0.17762481856E+04  0.17762481856E+04  0.50400000000E-02 0. -1.
    8880023    1    1    2    0    0  0.31421166929E+03 -0.10946939439E+04  0.14964053198E+02  0.13157195495E+04  0.65864270000E+03 0.  0.
    8880022    1    1    2    0    0 -0.31421166929E+03  0.10946939439E+04 -0.83265831173E+03  0.14190825631E+04  0.15294330000E+03 0.  0.
<mgrwt>
<rscale>  0 0.12718700E+04</rscale>
<asrwt>0</asrwt>
<pdfrwt beam="1">  1        1 0.27326895E+00 0.13156345E+04</pdfrwt>
<pdfrwt beam="2">  1       -1 0.14746984E+00 0.13156345E+04</pdfrwt>
<totfact> 0.14963590E+00</totfact>
</mgrwt>
</event>
<event>
 4    5  0.7767175E-008  0.7972237E+03  0.7818608E-02  0.9716831E-01
         -1   -1    0    0    0  501 -0.00000000000E+00  0.00000000000E+00  0.11192434638E+04  0.11192434638E+04  0.50400000000E-02 0.  1.
          1   -1    0    0  501    0  0.00000000000E+00 -0.00000000000E+00 -0.16540646761E+04  0.16540646761E+04  0.50400000000E-02 0. -1.
    8880023    1    1    2    0    0  0.18406899831E+03 -0.40972428336E+03  0.93503471067E+03  0.12287617755E+04  0.65864270000E+03 0.  1.
    8880022    1    1    2    0    0 -0.18406899831E+03  0.40972428336E+03 -0.14698559229E+04  0.15445463644E+04  0.15294330000E+03 0.  0.
<mgrwt>
<rscale>  0 0.70023437E+03</rscale>
<asrwt>0</asrwt>
<pdfrwt beam="1">  1        1 0.25447149E+00 0.79722368E+03</pdfrwt>
<pdfrwt beam="2">  1       -1 0.17219130E+00 0.79722368E+03</pdfrwt>
<totfact> 0.12665911E+00</totfact>
</mgrwt>
</event>
<event>
 4    5  0.7767175E-008  0.7309052E+03  0.7818608E-02  0.9887278E-01
         -1   -1    0    0    0  501 -0.00000000000E+00  0.00000000000E+00  0.12813348602E+04  0.12813348602E+04  0.50400000000E-02 0.  1.
          1   -1    0    0  501    0  0.00000000000E+00 -0.00000000000E+00 -0.51805723163E+03  0.51805723166E+03  0.50400000000E-02 0. -1.
    8880023    1    1    2    0    0 -0.29688623891E+03 -0.11077342234E+03  0.10945319627E+04  0.13161392835E+04  0.65864270000E+03 0.  1.
    8880022    1    1    2    0    0  0.29688623891E+03  0.11077342234E+03 -0.33125433409E+03  0.48325280839E+03  0.15294330000E+03 0.  0.
<mgrwt>
<rscale>  0 0.60881809E+03</rscale>
<asrwt>0</asrwt>
<pdfrwt beam="1">  1        1 0.79701114E-01 0.73090519E+03</pdfrwt>
<pdfrwt beam="2">  1       -1 0.19712844E+00 0.73090519E+03</pdfrwt>
<totfact> 0.68902322E+00</totfact>
</mgrwt>
</event>
<event>
 4    5  0.7767175E-008  0.9271785E+03  0.7818608E-02  0.9483739E-01
         -1   -1    0    0    0  501 -0.00000000000E+00  0.00000000000E+00  0.10942919177E+04  0.10942919177E+04  0.50400000000E-02 0.  1.
          1   -1    0    0  501    0  0.00000000000E+00 -0.00000000000E+00 -0.80905788475E+03  0.80905788477E+03  0.50400000000E-02 0. -1.
    8880023    1    1    2    0    0 -0.84088760758E+02 -0.64713129725E+03  0.65750602075E+03  0.11366504340E+04  0.65864270000E+03 0.  0.
    8880022    1    1    2    0    0  0.84088760758E+02  0.64713129725E+03 -0.37227198785E+03  0.76669936841E+03  0.15294330000E+03 0.  0.
<mgrwt>
<rscale>  0 0.85493384E+03</rscale>
<asrwt>0</asrwt>
<pdfrwt beam="1">  1        1 0.12447044E+00 0.92717854E+03</pdfrwt>
<pdfrwt beam="2">  1       -1 0.16835260E+00 0.92717854E+03</pdfrwt>
<totfact> 0.55546742E+00</totfact>
</mgrwt>
</event>
<event>
 4    5  0.7767175E-008  0.8566054E+03  0.7818608E-02  0.9599630E-01
          1   -1    0    0  501    0  0.00000000000E+00  0.00000000000E+00  0.22222699199E+04  0.22222699199E+04  0.50400000000E-02 0. -1.
         -1   -1    0    0    0  501 -0.00000000000E+00 -0.00000000000E+00 -0.26226341146E+03  0.26226341150E+03  0.50400000000E-02 0.  1.
    8880023    1    1    2    0    0  0.29609285217E+03 -0.46075121196E+03  0.71493224340E+03  0.11157513053E+04  0.65864270000E+03 0.  1.
    8880022    1    1    2    0    0 -0.29609285217E+03  0.46075121196E+03  0.12450742650E+04  0.13687820261E+04  0.15294330000E+03 0.  0.
<mgrwt>
<rscale>  0 0.77320642E+03</rscale>
<asrwt>0</asrwt>
<pdfrwt beam="1">  1        1 0.34188767E+00 0.85660543E+03</pdfrwt>
<pdfrwt beam="2">  1       -1 0.40348219E-01 0.85660543E+03</pdfrwt>
<totfact> 0.13005266E+01</totfact>
</mgrwt>
</event>
<event>
 4    5  0.7767175E-008  0.7182775E+03  0.7818608E-02  0.9928458E-01
         -1   -1    0    0    0  501 -0.00000000000E+00  0.00000000000E+00  0.31586824754E+03  0.31586824758E+03  0.50400000000E-02 0.  1.
          1   -1    0    0  501    0  0.00000000000E+00 -0.00000000000E+00 -0.17470429841E+04  0.17470429841E+04  0.50400000000E-02 0. -1.
    8880023    1    1    2    0    0 -0.12718341661E+03  0.25678152096E+03 -0.14036840874E+03  0.73186465101E+03  0.65864270000E+03 0.  0.
    8880022    1    1    2    0    0  0.12718341661E+03 -0.25678152096E+03 -0.12908063278E+04  0.13310465807E+04  0.15294330000E+03 0.  0.
<mgrwt>
<rscale>  0 0.58901700E+03</rscale>
<asrwt>0</asrwt>
<pdfrwt beam="1">  1        1 0.26877584E+00 0.71827751E+03</pdfrwt>
<pdfrwt beam="2">  1       -1 0.48595116E-01 0.71827751E+03</pdfrwt>
<totfact> 0.19553023E+01</totfact>
</mgrwt>
</event>
<event>
 4    5  0.7767175E-008  0.6736783E+03  0.7818608E-02  0.1013153E+00
         -1   -1    0    0    0  501 -0.00000000000E+00  0.00000000000E+00  0.45843834924E+03  0.45843834927E+03  0.50400000000E-02 0.  1.
          1   -1    0    0  501    0  0.00000000000E+00 -0.00000000000E+00 -0.15270425016E+04  0.15270425016E+04  0.50400000000E-02 0. -1.
    8880023    1    1    2    0    0 -0.23843878498E+02  0.13951220708E+03  0.19774513560E+03  0.70210079859E+03  0.65864270000E+03 0.  1.
    8880022    1    1    2    0    0  0.23843878498E+02 -0.13951220708E+03 -0.12663492879E+04  0.12833800523E+04  0.15294330000E+03 0.  0.
<mgrwt>
<rscale>  0 0.50240670E+03</rscale>
<asrwt>0</asrwt>
<pdfrwt beam="1">  1        1 0.23492961E+00 0.67367826E+03</pdfrwt>
<pdfrwt beam="2">  1       -1 0.70528977E-01 0.67367826E+03</pdfrwt>
<totfact> 0.13356720E+01</totfact>
</mgrwt>
</event>
<event>
 4    5  0.7767175E-008  0.7530547E+03  0.7818608E-02  0.9823432E-01
          1   -1    0    0  501    0  0.00000000000E+00  0.00000000000E+00  0.14228614479E+04  0.14228614479E+04  0.50400000000E-02 0. -1.
         -1   -1    0    0    0  501 -0.00000000000E+00 -0.00000000000E+00 -0.58829518683E+03  0.58829518685E+03  0.50400000000E-02 0.  1.
    8880023    1    1    2    0    0 -0.34925066513E+03  0.10632570091E+03 -0.29917446271E+03  0.81030657604E+03  0.65864270000E+03 0.  1.
    8880022    1    1    2    0    0  0.34925066513E+03 -0.10632570091E+03  0.11337407238E+04  0.12008500587E+04  0.15294330000E+03 0.  0.
<mgrwt>
<rscale>  0 0.64120088E+03</rscale>
<asrwt>0</asrwt>
<pdfrwt beam="1">  1        1 0.21890176E+00 0.75305470E+03</pdfrwt>
<pdfrwt beam="2">  1       -1 0.90506953E-01 0.75305470E+03</pdfrwt>
<totfact> 0.91633561E+00</totfact>
</mgrwt>
</event>
<event>
 4    5  0.7767175E-008  0.7895591E+03  0.7818608E-02  0.9733843E-01
          1   -1    0    0  501    0  0.00000000000E+00  0.00000000000E+00  0.18233568757E+04  0.18233568757E+04  0.50400000000E-02 0. -1.
         -1   -1    0    0    0  501 -0.00000000000E+00 -0.00000000000E+00 -0.61829319343E+03  0.61829319345E+03  0.50400000000E-02 0.  1.
    8880023    1    1    2    0    0 -0.12971055903E+03 -0.41565443284E+03 -0.31725558214E+03  0.85091406577E+03  0.65864270000E+03 0.  1.
    8880022    1    1    2    0    0  0.12971055903E+03  0.41565443284E+03  0.15223192644E+04  0.15907360034E+04  0.15294330000E+03 0.  0.
<mgrwt>
<rscale>  0 0.69037038E+03</rscale>
<asrwt>0</asrwt>
<pdfrwt beam="1">  1        1 0.28051644E+00 0.78955914E+03</pdfrwt>
<pdfrwt beam="2">  1       -1 0.95122029E-01 0.78955914E+03</pdfrwt>
<totfact> 0.43634833E+00</totfact>
</mgrwt>
</event>
<event>
 4    5  0.7767175E-008  0.1278193E+04  0.7818608E-02  0.9084624E-01
         -1   -1    0    0    0  501 -0.00000000000E+00  0.00000000000E+00  0.77587056420E+03  0.77587056422E+03  0.50400000000E-02 0.  1.
          1   -1    0    0  501    0  0.00000000000E+00 -0.00000000000E+00 -0.31183449824E+04  0.31183449824E+04  0.50400000000E-02 0. -1.
    8880023    1    1    2    0    0  0.53580227229E+03 -0.95544915029E+03  0.27889163290E+02  0.12784972294E+04  0.65864270000E+03 0.  0.
    8880022    1    1    2    0    0 -0.53580227229E+03  0.95544915029E+03 -0.23703635815E+04  0.26157183173E+04  0.15294330000E+03 0.  0.
<mgrwt>
<rscale>  0 0.12327970E+04</rscale>
<asrwt>0</asrwt>
<pdfrwt beam="1">  1        1 0.47974538E+00 0.12781930E+04</pdfrwt>
<pdfrwt beam="2">  1       -1 0.11936470E+00 0.12781930E+04</pdfrwt>
<totfact> 0.30211009E-01</totfact>
</mgrwt>
</event>
<event>
 4    5  0.7767175E-008  0.9514971E+03  0.7818608E-02  0.9447963E-01
          1   -1    0    0  501    0  0.00000000000E+00  0.00000000000E+00  0.14404836734E+04  0.14404836734E+04  0.50400000000E-02 0. -1.
         -1   -1    0    0    0  501 -0.00000000000E+00 -0.00000000000E+00 -0.57022916959E+03  0.57022916961E+03  0.50400000000E-02 0.  1.
    8880023    1    1    2    0    0 -0.31955060651E+03  0.60780252742E+03  0.83288474375E+02  0.95513542427E+03  0.65864270000E+03 0.  1.
    8880022    1    1    2    0    0  0.31955060651E+03 -0.60780252742E+03  0.78696602939E+03  0.10555774187E+04  0.15294330000E+03 0. -1.
<mgrwt>
<rscale>  0 0.88231440E+03</rscale>
<asrwt>0</asrwt>
<pdfrwt beam="1">  1        1 0.22161287E+00 0.95149709E+03</pdfrwt>
<pdfrwt beam="2">  1       -1 0.87727566E-01 0.95149709E+03</pdfrwt>
<totfact> 0.92961847E+00</totfact>
</mgrwt>
</event>
<event>
 4    5  0.7767175E-008  0.1080145E+04  0.7818608E-02  0.9283490E-01
          1   -1    0    0  501    0  0.00000000000E+00  0.00000000000E+00  0.29392088083E+04  0.29392088083E+04  0.50400000000E-02 0. -1.
         -1   -1    0    0    0  501 -0.00000000000E+00 -0.00000000000E+00 -0.51776653400E+03  0.51776653403E+03  0.50400000000E-02 0.  1.
    8880023    1    1    2    0    0 -0.59333192432E+03  0.61713962849E+03  0.23707406883E+03  0.11058564165E+04  0.65864270000E+03 0.  0.
    8880022    1    1    2    0    0  0.59333192432E+03 -0.61713962849E+03  0.21843682055E+04  0.23511189259E+04  0.15294330000E+03 0.  0.
<mgrwt>
<rscale>  0 0.10231708E+04</rscale>
<asrwt>0</asrwt>
<pdfrwt beam="1">  1        1 0.45218597E+00 0.10801455E+04</pdfrwt>
<pdfrwt beam="2">  1       -1 0.79656390E-01 0.10801455E+04</pdfrwt>
<totfact> 0.10566616E+00</totfact>
</mgrwt>
</event>
<event>
 4    5  0.7767175E-008  0.7402530E+03  0.7818608E-02  0.9859211E-01
          1   -1    0    0  501    0  0.00000000000E+00  0.00000000000E+00  0.24105427442E+04  0.24105427442E+04  0.50400000000E-02 0. -1.
         -1   -1    0    0    0  501 -0.00000000000E+00 -0.00000000000E+00 -0.29203026512E+03  0.29203026516E+03  0.50400000000E-02 0.  1.
    8880023    1    1    2    0    0  0.20496112912E+03 -0.26861739386E+03  0.22588804510E+03  0.77395089245E+03  0.65864270000E+03 0.  1.
    8880022    1    1    2    0    0 -0.20496112912E+03  0.26861739386E+03  0.18926244340E+04  0.19286221170E+04  0.15294330000E+03 0.  0.
<mgrwt>
<rscale>  0 0.62279498E+03</rscale>
<asrwt>0</asrwt>
<pdfrwt beam="1">  1        1 0.37085274E+00 0.74025305E+03</pdfrwt>
<pdfrwt beam="2">  1       -1 0.44927732E-01 0.74025305E+03</pdfrwt>
<totfact> 0.81003111E+00</totfact>
</mgrwt>
</event>
<event>
 4    5  0.7767175E-008  0.6618031E+03  0.7818608E-02  0.1022381E+00
          1   -1    0    0  501    0  0.00000000000E+00  0.00000000000E+00  0.85280129861E+03  0.85280129862E+03  0.50400000000E-02 0. -1.
         -1   -1    0    0    0  501 -0.00000000000E+00 -0.00000000000E+00 -0.97679336367E+03  0.97679336368E+03  0.50400000000E-02 0.  1.
    8880023    1    1    2    0    0  0.64470592875E+02 -0.40847787354E+01 -0.85429942965E+03  0.10806529806E+04  0.65864270000E+03 0.  1.
    8880022    1    1    2    0    0 -0.64470592875E+02  0.40847787354E+01  0.73030736459E+03  0.74894168168E+03  0.15294330000E+03 0.  0.
<mgrwt>
<rscale>  0 0.46837202E+03</rscale>
<asrwt>0</asrwt>
<pdfrwt beam="1">  1        1 0.13120020E+00 0.66180310E+03</pdfrwt>
<pdfrwt beam="2">  1       -1 0.15027590E+00 0.66180310E+03</pdfrwt>
<totfact> 0.72435690E+00</totfact>
</mgrwt>
</event>
<event>
 4    5  0.8326410E-008  0.1030174E+04  0.7818608E-02  0.9343104E-01
         -1   -1    0    0    0  501 -0.00000000000E+00  0.00000000000E+00  0.14527575475E+04  0.14527575475E+04  0.50400000000E-02 0.  1.
          1   -1    0    0  501    0  0.00000000000E+00 -0.00000000000E+00 -0.24152260564E+04  0.24152260564E+04  0.50400000000E-02 0. -1.
    8880023    1    1    2    0    0  0.75993368253E+03 -0.22349235456E+03  0.11872425146E+04  0.15718788214E+04  0.65864270000E+03 0.  1.
    8880022    1    1    2    0    0 -0.75993368253E+03  0.22349235456E+03 -0.21497110235E+04  0.22961047825E+04  0.15294330000E+03 0.  0.
<mgrwt>
<rscale>  0 0.96909679E+03</rscale>
<asrwt>0</asrwt>
<pdfrwt beam="1">  1        1 0.37157324E+00 0.10301739E+04</pdfrwt>
<pdfrwt beam="2">  1       -1 0.22350116E+00 0.10301739E+04</pdfrwt>
<totfact> 0.16404454E-01</totfact>
</mgrwt>
</event>
<event>
 4    5  0.7767175E-008  0.8739200E+03  0.7818608E-02  0.9569266E-01
         -1   -1    0    0    0  501 -0.00000000000E+00  0.00000000000E+00  0.10047623307E+04  0.10047623307E+04  0.50400000000E-02 0.  1.
          1   -1    0    0  501    0  0.00000000000E+00 -0.00000000000E+00 -0.95005438849E+03  0.95005438850E+03  0.50400000000E-02 0. -1.
    8880023    1    1    2    0    0 -0.55061827194E+03 -0.16354047748E+03  0.66857285959E+03  0.11003298796E+04  0.65864270000E+03 0.  1.
    8880022    1    1    2    0    0  0.55061827194E+03  0.16354047748E+03 -0.61386491739E+03  0.85448683956E+03  0.15294330000E+03 0.  0.
<mgrwt>
<rscale>  0 0.79364160E+03</rscale>
<asrwt>0</asrwt>
<pdfrwt beam="1">  1        1 0.14616221E+00 0.87392001E+03</pdfrwt>
<pdfrwt beam="2">  1       -1 0.15457882E+00 0.87392001E+03</pdfrwt>
<totfact> 0.54234549E+00</totfact>
</mgrwt>
</event>
<event>
 4    5  0.7767175E-008  0.7243794E+03  0.7818608E-02  0.9908037E-01
         -1   -1    0    0    0  501 -0.00000000000E+00  0.00000000000E+00  0.43109733526E+03  0.43109733529E+03  0.50400000000E-02 0.  1.
          1   -1    0    0  501    0  0.00000000000E+00 -0.00000000000E+00 -0.13656865618E+04  0.13656865618E+04  0.50400000000E-02 0. -1.
    8880023    1    1    2    0    0 -0.28247618291E+03  0.10546313656E+03  0.78640251231E+02  0.72863554845E+03  0.65864270000E+03 0.  0.
    8880022    1    1    2    0    0  0.28247618291E+03 -0.10546313656E+03 -0.10132294777E+04  0.10681483486E+04  0.15294330000E+03 0.  0.
<mgrwt>
<rscale>  0 0.59873359E+03</rscale>
<asrwt>0</asrwt>
<pdfrwt beam="1">  1        1 0.21010562E+00 0.72437937E+03</pdfrwt>
<pdfrwt beam="2">  1       -1 0.66322668E-01 0.72437937E+03</pdfrwt>
<totfact> 0.19399689E+01</totfact>
</mgrwt>
</event>
<event>
 4    5  0.7767175E-008  0.9543638E+03  0.7818608E-02  0.9443863E-01
          1   -1    0    0  501    0  0.00000000000E+00  0.00000000000E+00  0.41271087806E+03  0.41271087809E+03  0.50400000000E-02 0. -1.
         -1   -1    0    0    0  501 -0.00000000000E+00 -0.00000000000E+00 -0.21967122483E+04  0.21967122483E+04  0.50400000000E-02 0.  1.
    8880023    1    1    2    0    0  0.50813813387E+03 -0.46775595630E+03 -0.16247896351E+04  0.18843438015E+04  0.65864270000E+03 0.  1.
    8880022    1    1    2    0    0 -0.50813813387E+03  0.46775595630E+03 -0.15921173515E+03  0.72507932488E+03  0.15294330000E+03 0.  0.
<mgrwt>
<rscale>  0 0.88552171E+03</rscale>
<asrwt>0</asrwt>
<pdfrwt beam="1">  1        1 0.63493982E-01 0.95436377E+03</pdfrwt>
<pdfrwt beam="2">  1       -1 0.33795573E+00 0.95436377E+03</pdfrwt>
<totfact> 0.11018306E+00</totfact>
</mgrwt>
</event>
<event>
 4    5  0.7767175E-008  0.1137473E+04  0.7818608E-02  0.9220438E-01
         -1   -1    0    0    0  501 -0.00000000000E+00  0.00000000000E+00  0.13674808157E+04  0.13674808157E+04  0.50400000000E-02 0.  1.
          1   -1    0    0  501    0  0.00000000000E+00 -0.00000000000E+00 -0.27308807117E+04  0.27308807117E+04  0.50400000000E-02 0. -1.
    8880023    1    1    2    0    0  0.66574896006E+03 -0.64561080891E+03  0.10253178202E+04  0.15313790625E+04  0.65864270000E+03 0.  1.
    8880022    1    1    2    0    0 -0.66574896006E+03  0.64561080891E+03 -0.23887177162E+04  0.25669824649E+04  0.15294330000E+03 0.  0.
<mgrwt>
<rscale>  0 0.10844941E+04</rscale>
<asrwt>0</asrwt>
<pdfrwt beam="1">  1        1 0.42013550E+00 0.11374732E+04</pdfrwt>
<pdfrwt beam="2">  1       -1 0.21038166E+00 0.11374732E+04</pdfrwt>
<totfact> 0.11912467E-01</totfact>
</mgrwt>
</event>
<event>
 4    5  0.7767175E-008  0.8107185E+03  0.7818608E-02  0.9688082E-01
          1   -1    0    0  501    0  0.00000000000E+00  0.00000000000E+00  0.45143772863E+03  0.45143772866E+03  0.50400000000E-02 0. -1.
         -1   -1    0    0    0  501 -0.00000000000E+00 -0.00000000000E+00 -0.12008026669E+04  0.12008026669E+04  0.50400000000E-02 0.  1.
    8880023    1    1    2    0    0 -0.41258602353E+03 -0.23070987971E+03 -0.81681363991E+03  0.11508470811E+04  0.65864270000E+03 0.  0.
    8880022    1    1    2    0    0  0.41258602353E+03  0.23070987971E+03  0.67448701684E+02  0.50139331445E+03  0.15294330000E+03 0.  0.
<mgrwt>
<rscale>  0 0.71730822E+03</rscale>
<asrwt>0</asrwt>
<pdfrwt beam="1">  1        1 0.69451959E-01 0.81071850E+03</pdfrwt>
<pdfrwt beam="2">  1       -1 0.18473887E+00 0.81071850E+03</pdfrwt>
<totfact> 0.10043936E+01</totfact>
</mgrwt>
</event>
<event>
 4    5  0.7767175E-008  0.1863208E+04  0.7818608E-02  0.8688355E-01
          1   -1    0    0  501    0  0.00000000000E+00  0.00000000000E+00  0.38137486492E+04  0.38137486492E+04  0.50400000000E-02 0. -1.
         -1   -1    0    0    0  501 -0.00000000000E+00 -0.00000000000E+00 -0.13571801460E+04  0.13571801460E+04  0.50400000000E-02 0.  1.
    8880023    1    1    2    0    0 -0.85451337911E+03 -0.15190590370E+04 -0.31862404741E+03  0.18902552640E+04  0.65864270000E+03 0.  0.
    8880022    1    1    2    0    0  0.85451337911E+03  0.15190590370E+04  0.27751925506E+04  0.32806735313E+04  0.15294330000E+03 0.  0.
<mgrwt>
<rscale>  0 0.18341343E+04</rscale>
<asrwt>0</asrwt>
<pdfrwt beam="1">  1        1 0.58673057E+00 0.18632079E+04</pdfrwt>
<pdfrwt beam="2">  1       -1 0.20879694E+00 0.18632079E+04</pdfrwt>
<totfact> 0.16514630E-02</totfact>
</mgrwt>
</event>
<event>
 4    5  0.7767175E-008  0.6830949E+03  0.7818608E-02  0.1007624E+00
         -1   -1    0    0    0  501 -0.00000000000E+00  0.00000000000E+00  0.20006274164E+03  0.20006274170E+03  0.50400000000E-02 0.  1.
          1   -1    0    0  501    0  0.00000000000E+00 -0.00000000000E+00 -0.20226652154E+04  0.20226652154E+04  0.50400000000E-02 0. -1.
    8880023    1    1    2    0    0 -0.18003104924E+03  0.19932523920E+02 -0.42358697467E+03  0.80376900635E+03  0.65864270000E+03 0.  1.
    8880022    1    1    2    0    0  0.18003104924E+03 -0.19932523920E+02 -0.13990154991E+04  0.14189589507E+04  0.15294330000E+03 0.  0.
<mgrwt>
<rscale>  0 0.52429772E+03</rscale>
<asrwt>0</asrwt>
<pdfrwt beam="1">  1        1 0.31117925E+00 0.68309494E+03</pdfrwt>
<pdfrwt beam="2">  1       -1 0.30778885E-01 0.68309494E+03</pdfrwt>
<totfact> 0.29389406E+01</totfact>
</mgrwt>
</event>
<event>
 4    5  0.7767175E-008  0.6804522E+03  0.7818608E-02  0.1009069E+00
         -1   -1    0    0    0  501 -0.00000000000E+00  0.00000000000E+00  0.29704560371E+03  0.29704560375E+03  0.50400000000E-02 0.  1.
          1   -1    0    0  501    0  0.00000000000E+00 -0.00000000000E+00 -0.16947275214E+04  0.16947275214E+04  0.50400000000E-02 0. -1.
    8880023    1    1    2    0    0 -0.17022917179E+03  0.15066765251E+02 -0.11665532939E+03  0.69037935259E+03  0.65864270000E+03 0.  1.
    8880022    1    1    2    0    0  0.17022917179E+03 -0.15066765251E+02 -0.12810265883E+04  0.13013937726E+04  0.15294330000E+03 0.  0.
<mgrwt>
<rscale>  0 0.51846322E+03</rscale>
<asrwt>0</asrwt>
<pdfrwt beam="1">  1        1 0.26072730E+00 0.68045219E+03</pdfrwt>
<pdfrwt beam="2">  1       -1 0.45699325E-01 0.68045219E+03</pdfrwt>
<totfact> 0.23912197E+01</totfact>
</mgrwt>
</event>
<event>
 4    5  0.7767175E-008  0.1643158E+04  0.7818608E-02  0.8814649E-01
          1   -1    0    0  501    0  0.00000000000E+00  0.00000000000E+00  0.18728698369E+04  0.18728698369E+04  0.50400000000E-02 0. -1.
         -1   -1    0    0    0  501 -0.00000000000E+00 -0.00000000000E+00 -0.16370726036E+04  0.16370726036E+04  0.50400000000E-02 0.  1.
    8880023    1    1    2    0    0  0.13823310878E+04 -0.59608714464E+03 -0.63796045440E+03  0.17626578987E+04  0.65864270000E+03 0.  1.
    8880022    1    1    2    0    0 -0.13823310878E+04  0.59608714464E+03  0.87375768776E+03  0.17472845418E+04  0.15294330000E+03 0.  0.
<mgrwt>
<rscale>  0 0.16096385E+04</rscale>
<asrwt>0</asrwt>
<pdfrwt beam="1">  1        1 0.28813382E+00 0.16431583E+04</pdfrwt>
<pdfrwt beam="2">  1       -1 0.25185733E+00 0.16431583E+04</pdfrwt>
<totfact> 0.22888128E-01</totfact>
</mgrwt>
</event>
<event>
 4    5  0.7767175E-008  0.7900364E+03  0.7818608E-02  0.9732768E-01
          1   -1    0    0  501    0  0.00000000000E+00  0.00000000000E+00  0.53519165671E+03  0.53519165674E+03  0.50400000000E-02 0. -1.
         -1   -1    0    0    0  501 -0.00000000000E+00 -0.00000000000E+00 -0.78518291389E+03  0.78518291391E+03  0.50400000000E-02 0.  1.
    8880023    1    1    2    0    0  0.68172693740E+02  0.43092901924E+03 -0.32076252181E+03  0.85267000502E+03  0.65864270000E+03 0.  1.
    8880022    1    1    2    0    0 -0.68172693740E+02 -0.43092901924E+03  0.70771264633E+02  0.46770456563E+03  0.15294330000E+03 0.  0.
<mgrwt>
<rscale>  0 0.69098847E+03</rscale>
<asrwt>0</asrwt>
<pdfrwt beam="1">  1        1 0.82337178E-01 0.79003642E+03</pdfrwt>
<pdfrwt beam="2">  1       -1 0.12079737E+00 0.79003642E+03</pdfrwt>
<totfact> 0.25066039E+01</totfact>
</mgrwt>
</event>
<event>
 4    5  0.7767175E-008  0.6809778E+03  0.7818608E-02  0.1008776E+00
         -1   -1    0    0    0  501 -0.00000000000E+00  0.00000000000E+00  0.53325335207E+03  0.53325335209E+03  0.50400000000E-02 0.  1.
          1   -1    0    0  501    0  0.00000000000E+00 -0.00000000000E+00 -0.70120242311E+03  0.70120242313E+03  0.50400000000E-02 0. -1.
    8880023    1    1    2    0    0  0.12768602342E+03 -0.11669104335E+03  0.27542133872E+03  0.73456629399E+03  0.65864270000E+03 0.  1.
    8880022    1    1    2    0    0 -0.12768602342E+03  0.11669104335E+03 -0.44337040976E+03  0.49988948123E+03  0.15294330000E+03 0.  0.
<mgrwt>
<rscale>  0 0.51964051E+03</rscale>
<asrwt>0</asrwt>
<pdfrwt beam="1">  1        1 0.10787730E+00 0.68097777E+03</pdfrwt>
<pdfrwt beam="2">  1       -1 0.82038977E-01 0.68097777E+03</pdfrwt>
<totfact> 0.41384762E+01</totfact>
</mgrwt>
</event>
<event>
 4    5  0.7767175E-008  0.6807699E+03  0.7818608E-02  0.1008891E+00
         -1   -1    0    0    0  501 -0.00000000000E+00  0.00000000000E+00  0.92277434831E+03  0.92277434832E+03  0.50400000000E-02 0.  1.
          1   -1    0    0  501    0  0.00000000000E+00 -0.00000000000E+00 -0.10734725443E+04  0.10734725443E+04  0.50400000000E-02 0. -1.
    8880023    1    1    2    0    0  0.66140505838E+02 -0.15894288012E+03  0.78126550009E+03  0.10362545023E+04  0.65864270000E+03 0.  1.
    8880022    1    1    2    0    0 -0.66140505838E+02  0.15894288012E+03 -0.93196369611E+03  0.95999239035E+03  0.15294330000E+03 0.  0.
<mgrwt>
<rscale>  0 0.51917585E+03</rscale>
<asrwt>0</asrwt>
<pdfrwt beam="1">  1        1 0.16514962E+00 0.68076987E+03</pdfrwt>
<pdfrwt beam="2">  1       -1 0.14196528E+00 0.68076987E+03</pdfrwt>
<totfact> 0.56246744E+00</totfact>
</mgrwt>
</event>
<event>
 4    5  0.7767175E-008  0.7033890E+03  0.7818608E-02  0.9983423E-01
          1   -1    0    0  501    0  0.00000000000E+00  0.00000000000E+00  0.13283523603E+04  0.13283523604E+04  0.50400000000E-02 0. -1.
         -1   -1    0    0    0  501 -0.00000000000E+00 -0.00000000000E+00 -0.31500638615E+03  0.31500638619E+03  0.50400000000E-02 0.  1.
    8880023    1    1    2    0    0 -0.87220649528E+02  0.23095102161E+03  0.13235022377E+03  0.71573221534E+03  0.65864270000E+03 0.  1.
    8880022    1    1    2    0    0  0.87220649528E+02 -0.23095102161E+03  0.88099575043E+03  0.92762653120E+03  0.15294330000E+03 0.  0.
<mgrwt>
<rscale>  0 0.56383136E+03</rscale>
<asrwt>0</asrwt>
<pdfrwt beam="1">  1        1 0.20436190E+00 0.70338896E+03</pdfrwt>
<pdfrwt beam="2">  1       -1 0.48462521E-01 0.70338896E+03</pdfrwt>
<totfact> 0.38030592E+01</totfact>
</mgrwt>
</event>
<event>
 4    5  0.7767175E-008  0.1307387E+04  0.7818608E-02  0.9059207E-01
         -1   -1    0    0    0  501 -0.00000000000E+00  0.00000000000E+00  0.77741989473E+03  0.77741989474E+03  0.50400000000E-02 0.  1.
          1   -1    0    0  501    0  0.00000000000E+00 -0.00000000000E+00 -0.27387153414E+04  0.27387153414E+04  0.50400000000E-02 0. -1.
    8880023    1    1    2    0    0 -0.11287185529E+04 -0.38020610036E+02 -0.19842473672E+04  0.23762363011E+04  0.65864270000E+03 0.  0.
    8880022    1    1    2    0    0  0.11287185529E+04  0.38020610036E+02  0.22951920508E+02  0.11398989350E+04  0.15294330000E+03 0.  0.
<mgrwt>
<rscale>  0 0.12632746E+04</rscale>
<asrwt>0</asrwt>
<pdfrwt beam="1">  1        1 0.42134082E+00 0.13073872E+04</pdfrwt>
<pdfrwt beam="2">  1       -1 0.11960306E+00 0.13073872E+04</pdfrwt>
<totfact> 0.56179857E-01</totfact>
</mgrwt>
</event>
<event>
 4    5  0.7767175E-008  0.6935049E+03  0.7818608E-02  0.1002529E+00
          1   -1    0    0  501    0  0.00000000000E+00  0.00000000000E+00  0.37483195462E+03  0.37483195466E+03  0.50400000000E-02 0. -1.
         -1   -1    0    0    0  501 -0.00000000000E+00 -0.00000000000E+00 -0.18233547100E+04  0.18233547100E+04  0.50400000000E-02 0.  1.
    8880023    1    1    2    0    0 -0.21694099207E+03  0.86823710977E+01 -0.16977818141E+04  0.18339607608E+04  0.65864270000E+03 0.  1.
    8880022    1    1    2    0    0  0.21694099207E+03 -0.86823710977E+01  0.24925905878E+03  0.36422590381E+03  0.15294330000E+03 0.  0.
<mgrwt>
<rscale>  0 0.54554954E+03</rscale>
<asrwt>0</asrwt>
<pdfrwt beam="1">  1        1 0.57666456E-01 0.69350485E+03</pdfrwt>
<pdfrwt beam="2">  1       -1 0.28051610E+00 0.69350485E+03</pdfrwt>
<totfact> 0.30504875E+00</totfact>
</mgrwt>
</event>
<event>
 4    5  0.7767175E-008  0.8152439E+03  0.7818608E-02  0.9678756E-01
         -1   -1    0    0    0  501 -0.00000000000E+00  0.00000000000E+00  0.82727288377E+03  0.82727288379E+03  0.50400000000E-02 0.  1.
          1   -1    0    0  501    0  0.00000000000E+00 -0.00000000000E+00 -0.19007122055E+04  0.19007122055E+04  0.50400000000E-02 0. -1.
    8880023    1    1    2    0    0 -0.46761574479E+03  0.11021792007E+03  0.57926536839E+03  0.10000855203E+04  0.65864270000E+03 0.  0.
    8880022    1    1    2    0    0  0.46761574479E+03 -0.11021792007E+03 -0.16527046901E+04  0.17278995690E+04  0.15294330000E+03 0.  0.
<mgrwt>
<rscale>  0 0.72295873E+03</rscale>
<asrwt>0</asrwt>
<pdfrwt beam="1">  1        1 0.29241726E+00 0.81524394E+03</pdfrwt>
<pdfrwt beam="2">  1       -1 0.12727275E+00 0.81524394E+03</pdfrwt>
<totfact> 0.19366233E+00</totfact>
</mgrwt>
</event>
<event>
 4    5  0.7767175E-008  0.1005218E+04  0.7818608E-02  0.9374763E-01
         -1   -1    0    0    0  501 -0.00000000000E+00  0.00000000000E+00  0.13340983868E+04  0.13340983868E+04  0.50400000000E-02 0.  1.
          1   -1    0    0  501    0  0.00000000000E+00 -0.00000000000E+00 -0.89472738476E+03  0.89472738478E+03  0.50400000000E-02 0. -1.
    8880023    1    1    2    0    0  0.73670552869E+03 -0.18416823584E+03  0.88143832320E+03  0.13369355628E+04  0.65864270000E+03 0.  0.
    8880022    1    1    2    0    0 -0.73670552869E+03  0.18416823584E+03 -0.44206732119E+03  0.89189020881E+03  0.15294330000E+03 0. -1.
<mgrwt>
<rscale>  0 0.94182048E+03</rscale>
<asrwt>0</asrwt>
<pdfrwt beam="1">  1        1 0.13765037E+00 0.10052180E+04</pdfrwt>
<pdfrwt beam="2">  1       -1 0.20524591E+00 0.10052180E+04</pdfrwt>
<totfact> 0.25553069E+00</totfact>
</mgrwt>
</event>
<event>
 4    5  0.7767175E-008  0.6819261E+03  0.7818608E-02  0.1008254E+00
         -1   -1    0    0    0  501 -0.00000000000E+00  0.00000000000E+00  0.77026664658E+03  0.77026664659E+03  0.50400000000E-02 0.  1.
          1   -1    0    0  501    0  0.00000000000E+00 -0.00000000000E+00 -0.98863406354E+03  0.98863406355E+03  0.50400000000E-02 0. -1.
    8880023    1    1    2    0    0  0.15247016195E+03 -0.89251738356E+02  0.59970227617E+03  0.90811125386E+03  0.65864270000E+03 0.  1.
    8880022    1    1    2    0    0 -0.15247016195E+03  0.89251738356E+02 -0.81806969313E+03  0.85078945628E+03  0.15294330000E+03 0.  0.
<mgrwt>
<rscale>  0 0.52174311E+03</rscale>
<asrwt>0</asrwt>
<pdfrwt beam="1">  1        1 0.15209755E+00 0.68192612E+03</pdfrwt>
<pdfrwt beam="2">  1       -1 0.11850256E+00 0.68192612E+03</pdfrwt>
<totfact> 0.10280116E+01</totfact>
</mgrwt>
</event>
<event>
 4    5  0.7767175E-008  0.7917666E+03  0.7818608E-02  0.9728889E-01
          1   -1    0    0  501    0  0.00000000000E+00  0.00000000000E+00  0.17476621896E+04  0.17476621896E+04  0.50400000000E-02 0. -1.
         -1   -1    0    0    0  501 -0.00000000000E+00 -0.00000000000E+00 -0.35558595423E+03  0.35558595427E+03  0.50400000000E-02 0.  1.
    8880023    1    1    2    0    0  0.30512815624E+03  0.31619761953E+03  0.18996284424E+03  0.81423596996E+03  0.65864270000E+03 0.  1.
    8880022    1    1    2    0    0 -0.30512815624E+03 -0.31619761953E+03  0.12021133911E+04  0.12890121739E+04  0.15294330000E+03 0.  0.
<mgrwt>
<rscale>  0 0.69322472E+03</rscale>
<asrwt>0</asrwt>
<pdfrwt beam="1">  1        1 0.26887111E+00 0.79176659E+03</pdfrwt>
<pdfrwt beam="2">  1       -1 0.54705531E-01 0.79176659E+03</pdfrwt>
<totfact> 0.15428747E+01</totfact>
</mgrwt>
</event>
<event>
 4    5  0.7767175E-008  0.1127069E+04  0.7818608E-02  0.9231500E-01
         -1   -1    0    0    0  501 -0.00000000000E+00  0.00000000000E+00  0.11720423857E+04  0.11720423857E+04  0.50400000000E-02 0.  1.
          1   -1    0    0  501    0  0.00000000000E+00 -0.00000000000E+00 -0.15940471616E+04  0.15940471617E+04  0.50400000000E-02 0. -1.
    8880023    1    1    2    0    0 -0.39353923144E+03  0.82559181374E+03  0.68742333853E+03  0.13201651496E+04  0.65864270000E+03 0.  0.
    8880022    1    1    2    0    0  0.39353923144E+03 -0.82559181374E+03 -0.11094281145E+04  0.14459243977E+04  0.15294330000E+03 0.  0.
<mgrwt>
<rscale>  0 0.10734130E+04</rscale>
<asrwt>0</asrwt>
<pdfrwt beam="1">  1        1 0.24523803E+00 0.11270693E+04</pdfrwt>
<pdfrwt beam="2">  1       -1 0.18031421E+00 0.11270693E+04</pdfrwt>
<totfact> 0.11538013E+00</totfact>
</mgrwt>
</event>
<event>
 4    5  0.7767175E-008  0.1344336E+04  0.7818608E-02  0.9028188E-01
          1   -1    0    0  501    0  0.00000000000E+00  0.00000000000E+00  0.38473205212E+03  0.38473205215E+03  0.50400000000E-02 0. -1.
         -1   -1    0    0    0  501 -0.00000000000E+00 -0.00000000000E+00 -0.48274959263E+04  0.48274959263E+04  0.50400000000E-02 0.  1.
    8880023    1    1    2    0    0  0.60046113584E+03 -0.10064170949E+04 -0.33209236448E+04  0.35827047053E+04  0.65864270000E+03 0.  0.
    8880022    1    1    2    0    0 -0.60046113584E+03  0.10064170949E+04 -0.11218402294E+04  0.16295232732E+04  0.15294330000E+03 0.  0.
<mgrwt>
<rscale>  0 0.13017376E+04</rscale>
<asrwt>0</asrwt>
<pdfrwt beam="1">  1        1 0.59189550E-01 0.13443360E+04</pdfrwt>
<pdfrwt beam="2">  1       -1 0.74269164E+00 0.13443360E+04</pdfrwt>
<totfact> 0.85144897E-03</totfact>
</mgrwt>
</event>
<event>
 4    5  0.7767175E-008  0.6873689E+03  0.7818608E-02  0.1005429E+00
          1   -1    0    0  501    0  0.00000000000E+00  0.00000000000E+00  0.12609694383E+04  0.12609694383E+04  0.50400000000E-02 0. -1.
         -1   -1    0    0    0  501 -0.00000000000E+00 -0.00000000000E+00 -0.19008548954E+03  0.19008548961E+03  0.50400000000E-02 0.  1.
    8880023    1    1    2    0    0 -0.19375744454E+03 -0.33522938777E+02  0.57517450772E+03  0.89627097205E+03  0.65864270000E+03 0.  1.
    8880022    1    1    2    0    0  0.19375744454E+03  0.33522938777E+02  0.49570944105E+03  0.55478395588E+03  0.15294330000E+03 0. -1.
<mgrwt>
<rscale>  0 0.53332455E+03</rscale>
<asrwt>0</asrwt>
<pdfrwt beam="1">  1        1 0.19399529E+00 0.68736885E+03</pdfrwt>
<pdfrwt beam="2">  1       -1 0.29243923E-01 0.68736885E+03</pdfrwt>
<totfact> 0.10562037E+02</totfact>
</mgrwt>
</event>
<event>
 4    5  0.7767175E-008  0.8432062E+03  0.7818608E-02  0.9624164E-01
         -1   -1    0    0    0  501 -0.00000000000E+00  0.00000000000E+00  0.44627983471E+03  0.44627983474E+03  0.50400000000E-02 0.  1.
          1   -1    0    0  501    0  0.00000000000E+00 -0.00000000000E+00 -0.12103945007E+04  0.12103945007E+04  0.50400000000E-02 0. -1.
    8880023    1    1    2    0    0 -0.46720099794E+03  0.24271332710E+03 -0.19302645744E+03  0.86501789066E+03  0.65864270000E+03 0.  0.
    8880022    1    1    2    0    0  0.46720099794E+03 -0.24271332710E+03 -0.57108820856E+03  0.79165644480E+03  0.15294330000E+03 0.  0.
<mgrwt>
<rscale>  0 0.75717285E+03</rscale>
<asrwt>0</asrwt>
<pdfrwt beam="1">  1        1 0.18621454E+00 0.84320623E+03</pdfrwt>
<pdfrwt beam="2">  1       -1 0.68658437E-01 0.84320623E+03</pdfrwt>
<totfact> 0.22980848E+01</totfact>
</mgrwt>
</event>
<event>
 4    5  0.7767175E-008  0.8876577E+03  0.7818608E-02  0.9546143E-01
          1   -1    0    0  501    0  0.00000000000E+00  0.00000000000E+00  0.10340256263E+04  0.10340256263E+04  0.50400000000E-02 0. -1.
         -1   -1    0    0    0  501 -0.00000000000E+00 -0.00000000000E+00 -0.97702336685E+03  0.97702336687E+03  0.50400000000E-02 0.  1.
    8880023    1    1    2    0    0 -0.43345878195E+02 -0.59350403592E+03 -0.63065652845E+03  0.10888818893E+04  0.65864270000E+03 0.  0.
    8880022    1    1    2    0    0  0.43345878195E+02  0.59350403592E+03  0.68765878791E+03  0.92216710384E+03  0.15294330000E+03 0.  0.
<mgrwt>
<rscale>  0 0.80965737E+03</rscale>
<asrwt>0</asrwt>
<pdfrwt beam="1">  1        1 0.15908087E+00 0.88765765E+03</pdfrwt>
<pdfrwt beam="2">  1       -1 0.15031129E+00 0.88765765E+03</pdfrwt>
<totfact> 0.50212806E+00</totfact>
</mgrwt>
</event>
<event>
 4    5  0.7767175E-008  0.8353720E+03  0.7818608E-02  0.9638969E-01
         -1   -1    0    0    0  501 -0.00000000000E+00  0.00000000000E+00  0.29330887425E+03  0.29330887430E+03  0.50400000000E-02 0.  1.
          1   -1    0    0  501    0  0.00000000000E+00 -0.00000000000E+00 -0.17597503053E+04  0.17597503053E+04  0.50400000000E-02 0. -1.
    8880023    1    1    2    0    0  0.14561898026E+03 -0.49277907082E+03 -0.57956741401E+03  0.10167323609E+04  0.65864270000E+03 0.  0.
    8880022    1    1    2    0    0 -0.14561898026E+03  0.49277907082E+03 -0.88687401701E+03  0.10363268187E+04  0.15294330000E+03 0.  0.
<mgrwt>
<rscale>  0 0.74769763E+03</rscale>
<asrwt>0</asrwt>
<pdfrwt beam="1">  1        1 0.27073081E+00 0.83537196E+03</pdfrwt>
<pdfrwt beam="2">  1       -1 0.45124443E-01 0.83537196E+03</pdfrwt>
<totfact> 0.21690648E+01</totfact>
</mgrwt>
</event>
<event>
 4    5  0.7767175E-008  0.8544052E+03  0.7818608E-02  0.9603594E-01
         -1   -1    0    0    0  501 -0.00000000000E+00  0.00000000000E+00  0.90609738746E+03  0.90609738747E+03  0.50400000000E-02 0.  1.
          1   -1    0    0  501    0  0.00000000000E+00 -0.00000000000E+00 -0.71729763164E+03  0.71729763166E+03  0.50400000000E-02 0. -1.
    8880023    1    1    2    0    0  0.53362683415E+03  0.10696022943E+03  0.48782381130E+03  0.98385993208E+03  0.65864270000E+03 0.  0.
    8880022    1    1    2    0    0 -0.53362683415E+03 -0.10696022943E+03 -0.29902405549E+03  0.63953508706E+03  0.15294330000E+03 0.  0.
<mgrwt>
<rscale>  0 0.77058762E+03</rscale>
<asrwt>0</asrwt>
<pdfrwt beam="1">  1        1 0.11035348E+00 0.85440523E+03</pdfrwt>
<pdfrwt beam="2">  1       -1 0.13939960E+00 0.85440523E+03</pdfrwt>
<totfact> 0.11317686E+01</totfact>
</mgrwt>
</event>
<event>
 4    5  0.7767175E-008  0.6993574E+03  0.7818608E-02  0.9999877E-01
         -1   -1    0    0    0  501 -0.00000000000E+00  0.00000000000E+00  0.23187833222E+03  0.23187833228E+03  0.50400000000E-02 0.  1.
          1   -1    0    0  501    0  0.00000000000E+00 -0.00000000000E+00 -0.10353750627E+04  0.10353750627E+04  0.50400000000E-02 0. -1.
    8880023    1    1    2    0    0  0.23209281011E+03 -0.37728828848E+02 -0.56524292764E+03  0.89922205852E+03  0.65864270000E+03 0.  0.
    8880022    1    1    2    0    0 -0.23209281011E+03  0.37728828848E+02 -0.23825380281E+03  0.36803133644E+03  0.15294330000E+03 0. -1.
<mgrwt>
<rscale>  0 0.55655607E+03</rscale>
<asrwt>0</asrwt>
<pdfrwt beam="1">  1        1 0.15928847E+00 0.69935738E+03</pdfrwt>
<pdfrwt beam="2">  1       -1 0.35673590E-01 0.69935738E+03</pdfrwt>
<totfact> 0.10893355E+02</totfact>
</mgrwt>
</event>
<event>
 4    5  0.7767175E-008  0.7204739E+03  0.7818608E-02  0.9920986E-01
          1   -1    0    0  501    0  0.00000000000E+00  0.00000000000E+00  0.25287441111E+03  0.25287441116E+03  0.50400000000E-02 0. -1.
         -1   -1    0    0    0  501 -0.00000000000E+00 -0.00000000000E+00 -0.30402404275E+04  0.30402404275E+04  0.50400000000E-02 0.  1.
    8880023    1    1    2    0    0  0.26433315465E+03  0.12409868067E+03 -0.28652103333E+04  0.29544056863E+04  0.65864270000E+03 0.  1.
    8880022    1    1    2    0    0 -0.26433315465E+03 -0.12409868067E+03  0.77844316894E+02  0.33870915234E+03  0.15294330000E+03 0.  0.
<mgrwt>
<rscale>  0 0.59254931E+03</rscale>
<asrwt>0</asrwt>
<pdfrwt beam="1">  1        1 0.38903758E-01 0.72047395E+03</pdfrwt>
<pdfrwt beam="2">  1       -1 0.46772927E+00 0.72047395E+03</pdfrwt>
<totfact> 0.28800867E-01</totfact>
</mgrwt>
</event>
<event>
 4    5  0.7767175E-008  0.7640738E+03  0.7818608E-02  0.9794673E-01
          1   -1    0    0  501    0  0.00000000000E+00  0.00000000000E+00  0.18210798792E+04  0.18210798792E+04  0.50400000000E-02 0. -1.
         -1   -1    0    0    0  501 -0.00000000000E+00 -0.00000000000E+00 -0.56278823615E+03  0.56278823617E+03  0.50400000000E-02 0.  1.
    8880023    1    1    2    0    0 -0.10359027552E+03 -0.37318584485E+03 -0.26187335557E+03  0.80770445127E+03  0.65864270000E+03 0.  1.
    8880022    1    1    2    0    0  0.10359027552E+03  0.37318584485E+03  0.15201649986E+04  0.15761636641E+04  0.15294330000E+03 0.  0.
<mgrwt>
<rscale>  0 0.65649223E+03</rscale>
<asrwt>0</asrwt>
<pdfrwt beam="1">  1        1 0.28016613E+00 0.76407384E+03</pdfrwt>
<pdfrwt beam="2">  1       -1 0.86582807E-01 0.76407384E+03</pdfrwt>
<totfact> 0.54120935E+00</totfact>
</mgrwt>
</event>
<event>
 4    5  0.7767175E-008  0.1135484E+04  0.7818608E-02  0.9222541E-01
         -1   -1    0    0    0  501 -0.00000000000E+00  0.00000000000E+00  0.16989979663E+04  0.16989979663E+04  0.50400000000E-02 0.  1.
          1   -1    0    0  501    0  0.00000000000E+00 -0.00000000000E+00 -0.92308220414E+03  0.92308220415E+03  0.50400000000E-02 0. -1.
    8880023    1    1    2    0    0 -0.24384519034E+03  0.89221798266E+03 -0.32016324558E+03  0.11797576512E+04  0.65864270000E+03 0. -1.
    8880022    1    1    2    0    0  0.24384519034E+03 -0.89221798266E+03  0.10960790078E+04  0.14423225193E+04  0.15294330000E+03 0.  0.
<mgrwt>
<rscale>  0 0.10823768E+04</rscale>
<asrwt>0</asrwt>
<pdfrwt beam="1">  1        1 0.14201265E+00 0.11354839E+04</pdfrwt>
<pdfrwt beam="2">  1       -1 0.26138430E+00 0.11354839E+04</pdfrwt>
<totfact> 0.10149276E+00</totfact>
</mgrwt>
</event>
<event>
 4    5  0.7767175E-008  0.1240316E+04  0.7818608E-02  0.9118895E-01
         -1   -1    0    0    0  501 -0.00000000000E+00  0.00000000000E+00  0.38231343837E+04  0.38231343837E+04  0.50400000000E-02 0.  1.
          1   -1    0    0  501    0  0.00000000000E+00 -0.00000000000E+00 -0.36009506748E+03  0.36009506751E+03  0.50400000000E-02 0. -1.
    8880023    1    1    2    0    0 -0.11744716216E+03 -0.10444042672E+04  0.22637924336E+04  0.25813059675E+04  0.65864270000E+03 0.  1.
    8880022    1    1    2    0    0  0.11744716216E+03  0.10444042672E+04  0.11992468826E+04  0.16019234837E+04  0.15294330000E+03 0.  0.
<mgrwt>
<rscale>  0 0.11931260E+04</rscale>
<asrwt>0</asrwt>
<pdfrwt beam="1">  1        1 0.55399242E-01 0.12403162E+04</pdfrwt>
<pdfrwt beam="2">  1       -1 0.58817451E+00 0.12403162E+04</pdfrwt>
<totfact> 0.32691988E-02</totfact>
</mgrwt>
</event>
<event>
 4    5  0.7767175E-008  0.7769193E+03  0.7818608E-02  0.9763124E-01
          1   -1    0    0  501    0  0.00000000000E+00  0.00000000000E+00  0.14657415525E+04  0.14657415525E+04  0.50400000000E-02 0. -1.
         -1   -1    0    0    0  501 -0.00000000000E+00 -0.00000000000E+00 -0.41677382720E+03  0.41677382723E+03  0.50400000000E-02 0.  1.
    8880023    1    1    2    0    0  0.30044948371E+03  0.28199919953E+03  0.35370799503E+02  0.77772407737E+03  0.65864270000E+03 0.  1.
    8880022    1    1    2    0    0 -0.30044948371E+03 -0.28199919953E+03  0.10135969258E+04  0.11047913024E+04  0.15294330000E+03 0.  0.
<mgrwt>
<rscale>  0 0.67379634E+03</rscale>
<asrwt>0</asrwt>
<pdfrwt beam="1">  1        1 0.22549870E+00 0.77691933E+03</pdfrwt>
<pdfrwt beam="2">  1       -1 0.64119051E-01 0.77691933E+03</pdfrwt>
<totfact> 0.17578610E+01</totfact>
</mgrwt>
</event>
<event>
 4    5  0.7767175E-008  0.8601259E+03  0.7818608E-02  0.9593340E-01
         -1   -1    0    0    0  501 -0.00000000000E+00  0.00000000000E+00  0.36811502741E+03  0.36811502744E+03  0.50400000000E-02 0.  1.
          1   -1    0    0  501    0  0.00000000000E+00 -0.00000000000E+00 -0.17933584743E+04  0.17933584743E+04  0.50400000000E-02 0. -1.
    8880023    1    1    2    0    0  0.21172925275E+03 -0.51105489760E+03 -0.32302743350E+03  0.91878360558E+03  0.65864270000E+03 0. -1.
    8880022    1    1    2    0    0 -0.21172925275E+03  0.51105489760E+03 -0.11022160133E+04  0.12426898961E+04  0.15294330000E+03 0.  0.
<mgrwt>
<rscale>  0 0.77738589E+03</rscale>
<asrwt>0</asrwt>
<pdfrwt beam="1">  1        1 0.27590130E+00 0.86012592E+03</pdfrwt>
<pdfrwt beam="2">  1       -1 0.56633082E-01 0.86012592E+03</pdfrwt>
<totfact> 0.13320454E+01</totfact>
</mgrwt>
</event>
<event>
 4    5  0.7767175E-008  0.7341986E+03  0.7818608E-02  0.9877180E-01
         -1   -1    0    0    0  501 -0.00000000000E+00  0.00000000000E+00  0.21650142141E+03  0.21650142147E+03  0.50400000000E-02 0.  1.
          1   -1    0    0  501    0  0.00000000000E+00 -0.00000000000E+00 -0.16531639929E+04  0.16531639929E+04  0.50400000000E-02 0. -1.
    8880023    1    1    2    0    0 -0.45048198313E+00  0.32440289816E+03 -0.56287045940E+03  0.92513285727E+03  0.65864270000E+03 0.  0.
    8880022    1    1    2    0    0  0.45048198313E+00 -0.32440289816E+03 -0.87379211205E+03  0.94453255707E+03  0.15294330000E+03 0.  0.
<mgrwt>
<rscale>  0 0.61380099E+03</rscale>
<asrwt>0</asrwt>
<pdfrwt beam="1">  1        1 0.25433291E+00 0.73419864E+03</pdfrwt>
<pdfrwt beam="2">  1       -1 0.33307912E-01 0.73419864E+03</pdfrwt>
<totfact> 0.44903484E+01</totfact>
</mgrwt>
</event>
<event>
 4    5  0.7767175E-008  0.8952684E+03  0.7818608E-02  0.9533670E-01
          1   -1    0    0  501    0  0.00000000000E+00  0.00000000000E+00  0.12214162704E+04  0.12214162704E+04  0.50400000000E-02 0. -1.
         -1   -1    0    0    0  501 -0.00000000000E+00 -0.00000000000E+00 -0.18209698430E+04  0.18209698430E+04  0.50400000000E-02 0.  1.
    8880023    1    1    2    0    0 -0.57851522941E+03  0.18170130989E+03 -0.16168956014E+04  0.18482036762E+04  0.65864270000E+03 0.  1.
    8880022    1    1    2    0    0  0.57851522941E+03 -0.18170130989E+03  0.10173420288E+04  0.11941824371E+04  0.15294330000E+03 0.  0.
<mgrwt>
<rscale>  0 0.81846306E+03</rscale>
<asrwt>0</asrwt>
<pdfrwt beam="1">  1        1 0.18791020E+00 0.89526836E+03</pdfrwt>
<pdfrwt beam="2">  1       -1 0.28014921E+00 0.89526836E+03</pdfrwt>
<totfact> 0.47199994E-01</totfact>
</mgrwt>
</event>
<event>
 4    5  0.7767175E-008  0.6917167E+03  0.7818608E-02  0.1003347E+00
          1   -1    0    0  501    0  0.00000000000E+00  0.00000000000E+00  0.78140595469E+03  0.78140595471E+03  0.50400000000E-02 0. -1.
         -1   -1    0    0    0  501 -0.00000000000E+00 -0.00000000000E+00 -0.32972867068E+03  0.32972867072E+03  0.50400000000E-02 0.  1.
    8880023    1    1    2    0    0 -0.13905007510E+03  0.15914429248E+03  0.14185590992E+03  0.70611269260E+03  0.65864270000E+03 0.  1.
    8880022    1    1    2    0    0  0.13905007510E+03 -0.15914429248E+03  0.30982137409E+03  0.40502193283E+03  0.15294330000E+03 0.  0.
<mgrwt>
<rscale>  0 0.54206642E+03</rscale>
<asrwt>0</asrwt>
<pdfrwt beam="1">  1        1 0.12021630E+00 0.69171673E+03</pdfrwt>
<pdfrwt beam="2">  1       -1 0.50727488E-01 0.69171673E+03</pdfrwt>
<totfact> 0.91781944E+01</totfact>
</mgrwt>
</event>
<event>
 4    5  0.7767175E-008  0.1585082E+04  0.7818608E-02  0.8851781E-01
         -1   -1    0    0    0  501 -0.00000000000E+00  0.00000000000E+00  0.26661488964E+04  0.26661488964E+04  0.50400000000E-02 0.  1.
          1   -1    0    0  501    0  0.00000000000E+00 -0.00000000000E+00 -0.12709328324E+04  0.12709328324E+04  0.50400000000E-02 0. -1.
    8880023    1    1    2    0    0  0.14270649237E+04 -0.20533256024E+03  0.18323105850E+04  0.24227769280E+04  0.65864270000E+03 0.  1.
    8880022    1    1    2    0    0 -0.14270649237E+04  0.20533256024E+03 -0.43709452093E+03  0.15143048008E+04  0.15294330000E+03 0.  0.
<mgrwt>
<rscale>  0 0.15501356E+04</rscale>
<asrwt>0</asrwt>
<pdfrwt beam="1">  1        1 0.19552813E+00 0.15850823E+04</pdfrwt>
<pdfrwt beam="2">  1       -1 0.41017675E+00 0.15850823E+04</pdfrwt>
<totfact> 0.54289135E-02</totfact>
</mgrwt>
</event>
<event>
 4    5  0.7767175E-008  0.7171363E+03  0.7818608E-02  0.9932398E-01
          1   -1    0    0  501    0  0.00000000000E+00  0.00000000000E+00  0.31604344112E+04  0.31604344112E+04  0.50400000000E-02 0. -1.
         -1   -1    0    0    0  501 -0.00000000000E+00 -0.00000000000E+00 -0.12747587750E+03  0.12747587759E+03  0.50400000000E-02 0.  1.
    8880023    1    1    2    0    0 -0.10895941069E+03 -0.26191999501E+03  0.10057281260E+04  0.12352220475E+04  0.65864270000E+03 0.  1.
    8880022    1    1    2    0    0  0.10895941069E+03  0.26191999501E+03  0.20272304077E+04  0.20526882413E+04  0.15294330000E+03 0.  0.
<mgrwt>
<rscale>  0 0.58716531E+03</rscale>
<asrwt>0</asrwt>
<pdfrwt beam="1">  1        1 0.48622067E+00 0.71713628E+03</pdfrwt>
<pdfrwt beam="2">  1       -1 0.19611674E-01 0.71713628E+03</pdfrwt>
<totfact> 0.10303588E+01</totfact>
</mgrwt>
</event>
<event>
 4    5  0.7767175E-008  0.9575896E+03  0.7818608E-02  0.9439277E-01
         -1   -1    0    0    0  501 -0.00000000000E+00  0.00000000000E+00  0.11888154175E+04  0.11888154175E+04  0.50400000000E-02 0.  1.
          1   -1    0    0  501    0  0.00000000000E+00 -0.00000000000E+00 -0.10083416427E+04  0.10083416427E+04  0.50400000000E-02 0. -1.
    8880023    1    1    2    0    0 -0.24615059121E+03 -0.65005955861E+03  0.80444028454E+03  0.12506406042E+04  0.65864270000E+03 0.  1.
    8880022    1    1    2    0    0  0.24615059121E+03  0.65005955861E+03 -0.62396650970E+03  0.94651645603E+03  0.15294330000E+03 0.  0.
<mgrwt>
<rscale>  0 0.88912603E+03</rscale>
<asrwt>0</asrwt>
<pdfrwt beam="1">  1        1 0.15512949E+00 0.95758955E+03</pdfrwt>
<pdfrwt beam="2">  1       -1 0.18289468E+00 0.95758955E+03</pdfrwt>
<totfact> 0.29837518E+00</totfact>
</mgrwt>
</event>
<event>
 4    5  0.7767175E-008  0.8740850E+03  0.7818608E-02  0.9568984E-01
          1   -1    0    0  501    0  0.00000000000E+00  0.00000000000E+00  0.10299201433E+04  0.10299201433E+04  0.50400000000E-02 0. -1.
         -1   -1    0    0    0  501 -0.00000000000E+00 -0.00000000000E+00 -0.72491191499E+03  0.72491191501E+03  0.50400000000E-02 0.  1.
    8880023    1    1    2    0    0  0.34008027728E+03 -0.46320603832E+03 -0.28280036112E+03  0.91869509602E+03  0.65864270000E+03 0.  0.
    8880022    1    1    2    0    0 -0.34008027728E+03  0.46320603832E+03  0.58780858945E+03  0.83613696233E+03  0.15294330000E+03 0.  0.
<mgrwt>
<rscale>  0 0.79383497E+03</rscale>
<asrwt>0</asrwt>
<pdfrwt beam="1">  1        1 0.15844925E+00 0.87408503E+03</pdfrwt>
<pdfrwt beam="2">  1       -1 0.11152491E+00 0.87408503E+03</pdfrwt>
<totfact> 0.10766820E+01</totfact>
</mgrwt>
</event>
<event>
 4    5  0.7767175E-008  0.8830808E+03  0.7818608E-02  0.9553757E-01
         -1   -1    0    0    0  501 -0.00000000000E+00  0.00000000000E+00  0.15936760352E+04  0.15936760352E+04  0.50400000000E-02 0.  1.
          1   -1    0    0  501    0  0.00000000000E+00 -0.00000000000E+00 -0.12925750815E+04  0.12925750815E+04  0.50400000000E-02 0. -1.
    8880023    1    1    2    0    0  0.40004403938E+03 -0.43126128819E+03  0.13855806836E+04  0.16430659053E+04  0.65864270000E+03 0.  1.
    8880022    1    1    2    0    0 -0.40004403938E+03  0.43126128819E+03 -0.10844797299E+04  0.12431852114E+04  0.15294330000E+03 0.  0.
<mgrwt>
<rscale>  0 0.80433949E+03</rscale>
<asrwt>0</asrwt>
<pdfrwt beam="1">  1        1 0.19885771E+00 0.88308082E+03</pdfrwt>
<pdfrwt beam="2">  1       -1 0.24518093E+00 0.88308082E+03</pdfrwt>
<totfact> 0.70644259E-01</totfact>
</mgrwt>
</event>
<event>
 4    5  0.7767175E-008  0.6799539E+03  0.7818608E-02  0.1009350E+00
         -1   -1    0    0    0  501 -0.00000000000E+00  0.00000000000E+00  0.19795648610E+03  0.19795648616E+03  0.50400000000E-02 0.  1.
          1   -1    0    0  501    0  0.00000000000E+00 -0.00000000000E+00 -0.12441318266E+04  0.12441318266E+04  0.50400000000E-02 0. -1.
    8880023    1    1    2    0    0 -0.16790973663E+03 -0.18258499731E+02 -0.48150173846E+03  0.83317536141E+03  0.65864270000E+03 0.  0.
    8880022    1    1    2    0    0  0.16790973663E+03  0.18258499731E+02 -0.56467360205E+03  0.60891295136E+03  0.15294330000E+03 0.  0.
<mgrwt>
<rscale>  0 0.51733882E+03</rscale>
<asrwt>0</asrwt>
<pdfrwt beam="1">  1        1 0.19140489E+00 0.67995387E+03</pdfrwt>
<pdfrwt beam="2">  1       -1 0.30454845E-01 0.67995387E+03</pdfrwt>
<totfact> 0.10125094E+02</totfact>
</mgrwt>
</event>
<event>
 4    5  0.7767175E-008  0.1044921E+04  0.7818608E-02  0.9325012E-01
         -1   -1    0    0    0  501 -0.00000000000E+00  0.00000000000E+00  0.60024447259E+03  0.60024447261E+03  0.50400000000E-02 0.  1.
          1   -1    0    0  501    0  0.00000000000E+00 -0.00000000000E+00 -0.25535306323E+04  0.25535306323E+04  0.50400000000E-02 0. -1.
    8880023    1    1    2    0    0 -0.39757082375E+03  0.70709745886E+03 -0.12797894871E+02  0.10449992194E+04  0.65864270000E+03 0.  1.
    8880022    1    1    2    0    0  0.39757082375E+03 -0.70709745886E+03 -0.19404882648E+04  0.21087758855E+04  0.15294330000E+03 0.  0.
<mgrwt>
<rscale>  0 0.98512441E+03</rscale>
<asrwt>0</asrwt>
<pdfrwt beam="1">  1        1 0.39285086E+00 0.10449208E+04</pdfrwt>
<pdfrwt beam="2">  1       -1 0.92345305E-01 0.10449208E+04</pdfrwt>
<totfact> 0.14365186E+00</totfact>
</mgrwt>
</event>
<event>
 4    5  0.7767175E-008  0.1977125E+04  0.7818608E-02  0.8630409E-01
         -1   -1    0    0    0  501 -0.00000000000E+00  0.00000000000E+00  0.14400019813E+04  0.14400019813E+04  0.50400000000E-02 0.  1.
          1   -1    0    0  501    0  0.00000000000E+00 -0.00000000000E+00 -0.26715156561E+04  0.26715156561E+04  0.50400000000E-02 0. -1.
    8880023    1    1    2    0    0  0.45840421720E+03  0.18069528899E+04 -0.23181614971E+03  0.19906687585E+04  0.65864270000E+03 0.  0.
    8880022    1    1    2    0    0 -0.45840421720E+03 -0.18069528899E+04 -0.99969752505E+03  0.21208488789E+04  0.15294330000E+03 0.  0.
<mgrwt>
<rscale>  0 0.19499006E+04</rscale>
<asrwt>0</asrwt>
<pdfrwt beam="1">  1        1 0.41100241E+00 0.19771250E+04</pdfrwt>
<pdfrwt beam="2">  1       -1 0.22153877E+00 0.19771250E+04</pdfrwt>
<totfact> 0.98924122E-02</totfact>
</mgrwt>
</event>
<event>
 4    5  0.7767175E-008  0.8809188E+03  0.7818608E-02  0.9557385E-01
          1   -1    0    0  501    0  0.00000000000E+00  0.00000000000E+00  0.22693803456E+04  0.22693803456E+04  0.50400000000E-02 0. -1.
         -1   -1    0    0    0  501 -0.00000000000E+00 -0.00000000000E+00 -0.69467946182E+03  0.69467946183E+03  0.50400000000E-02 0.  1.
    8880023    1    1    2    0    0  0.41292678365E+03 -0.41436604565E+03 -0.34902916105E+03  0.94754383010E+03  0.65864270000E+03 0.  1.
    8880022    1    1    2    0    0 -0.41292678365E+03  0.41436604565E+03  0.19237300448E+04  0.20165159773E+04  0.15294330000E+03 0.  0.
<mgrwt>
<rscale>  0 0.80182132E+03</rscale>
<asrwt>0</asrwt>
<pdfrwt beam="1">  1        1 0.34913543E+00 0.88091881E+03</pdfrwt>
<pdfrwt beam="2">  1       -1 0.10687377E+00 0.88091881E+03</pdfrwt>
<totfact> 0.16505711E+00</totfact>
</mgrwt>
</event>
<event>
 4    5  0.7767175E-008  0.7262432E+03  0.7818608E-02  0.9902001E-01
         -1   -1    0    0    0  501 -0.00000000000E+00  0.00000000000E+00  0.24499278967E+03  0.24499278972E+03  0.50400000000E-02 0.  1.
          1   -1    0    0  501    0  0.00000000000E+00 -0.00000000000E+00 -0.23039403413E+04  0.23039403413E+04  0.50400000000E-02 0. -1.
    8880023    1    1    2    0    0 -0.11214520369E+03  0.28467959248E+03 -0.35017355033E+03  0.80625724102E+03  0.65864270000E+03 0.  0.
    8880022    1    1    2    0    0  0.11214520369E+03 -0.28467959248E+03 -0.17087740013E+04  0.17426758900E+04  0.15294330000E+03 0. -1.
<mgrwt>
<rscale>  0 0.60164423E+03</rscale>
<asrwt>0</asrwt>
<pdfrwt beam="1">  1        1 0.35445234E+00 0.72624323E+03</pdfrwt>
<pdfrwt beam="2">  1       -1 0.37691200E-01 0.72624323E+03</pdfrwt>
<totfact> 0.13211812E+01</totfact>
</mgrwt>
</event>
<event>
 4    5  0.7767175E-008  0.2169329E+04  0.7818608E-02  0.8541793E-01
          1   -1    0    0  501    0  0.00000000000E+00  0.00000000000E+00  0.22204481336E+04  0.22204481336E+04  0.50400000000E-02 0. -1.
         -1   -1    0    0    0  501 -0.00000000000E+00 -0.00000000000E+00 -0.23150423302E+04  0.23150423302E+04  0.50400000000E-02 0.  1.
    8880023    1    1    2    0    0 -0.13724735989E+04 -0.15454756246E+04  0.75299480812E+03  0.22962992125E+04  0.65864270000E+03 0.  0.
    8880022    1    1    2    0    0  0.13724735989E+04  0.15454756246E+04 -0.84758900468E+03  0.22391912513E+04  0.15294330000E+03 0.  0.
<mgrwt>
<rscale>  0 0.21447254E+04</rscale>
<asrwt>0</asrwt>
<pdfrwt beam="1">  1        1 0.34160740E+00 0.21693291E+04</pdfrwt>
<pdfrwt beam="2">  1       -1 0.35616036E+00 0.21693291E+04</pdfrwt>
<totfact> 0.26012616E-02</totfact>
</mgrwt>
</event>
<event>
 4    5  0.7767175E-008  0.1555275E+04  0.7818608E-02  0.8871559E-01
         -1   -1    0    0    0  501 -0.00000000000E+00  0.00000000000E+00  0.12195848186E+04  0.12195848186E+04  0.50400000000E-02 0.  1.
          1   -1    0    0  501    0  0.00000000000E+00 -0.00000000000E+00 -0.19647207829E+04  0.19647207829E+04  0.50400000000E-02 0. -1.
    8880023    1    1    2    0    0  0.94272415623E+03 -0.10470637858E+04 -0.83314489875E+03  0.17643729863E+04  0.65864270000E+03 0. -1.
    8880022    1    1    2    0    0 -0.94272415623E+03  0.10470637858E+04  0.88008934392E+02  0.14199326152E+04  0.15294330000E+03 0.  0.
<mgrwt>
<rscale>  0 0.15195446E+04</rscale>
<asrwt>0</asrwt>
<pdfrwt beam="1">  1        1 0.30226474E+00 0.15552754E+04</pdfrwt>
<pdfrwt beam="2">  1       -1 0.18762843E+00 0.15552754E+04</pdfrwt>
<totfact> 0.54403679E-01</totfact>
</mgrwt>
</event>
<event>
 4    5  0.7767175E-008  0.1622646E+04  0.7818608E-02  0.8827559E-01
          1   -1    0    0  501    0  0.00000000000E+00  0.00000000000E+00  0.22023986360E+04  0.22023986360E+04  0.50400000000E-02 0. -1.
         -1   -1    0    0    0  501 -0.00000000000E+00 -0.00000000000E+00 -0.11406397700E+04  0.11406397700E+04  0.50400000000E-02 0.  1.
    8880023    1    1    2    0    0  0.49064444864E+03  0.13994422291E+04  0.23871776927E+03  0.16401118581E+04  0.65864270000E+03 0.  0.
    8880022    1    1    2    0    0 -0.49064444864E+03 -0.13994422291E+04  0.82304109679E+03  0.17029265479E+04  0.15294330000E+03 0.  0.
<mgrwt>
<rscale>  0 0.15886368E+04</rscale>
<asrwt>0</asrwt>
<pdfrwt beam="1">  1        1 0.33883056E+00 0.16226462E+04</pdfrwt>
<pdfrwt beam="2">  1       -1 0.17548304E+00 0.16226462E+04</pdfrwt>
<totfact> 0.45521384E-01</totfact>
</mgrwt>
</event>
<event>
 4    5  0.7767175E-008  0.9155134E+03  0.7818608E-02  0.9501573E-01
         -1   -1    0    0    0  501 -0.00000000000E+00  0.00000000000E+00  0.76936690092E+03  0.76936690094E+03  0.50400000000E-02 0.  1.
          1   -1    0    0  501    0  0.00000000000E+00 -0.00000000000E+00 -0.10565087900E+04  0.10565087901E+04  0.50400000000E-02 0. -1.
    8880023    1    1    2    0    0 -0.63000158792E+03  0.86327925098E+02  0.28297383322E+03  0.95824783223E+03  0.65864270000E+03 0.  0.
    8880022    1    1    2    0    0  0.63000158792E+03 -0.86327925098E+02 -0.57011572233E+03  0.86762785876E+03  0.15294330000E+03 0.  0.
<mgrwt>
<rscale>  0 0.84167956E+03</rscale>
<asrwt>0</asrwt>
<pdfrwt beam="1">  1        1 0.16253981E+00 0.91551336E+03</pdfrwt>
<pdfrwt beam="2">  1       -1 0.11836414E+00 0.91551336E+03</pdfrwt>
<totfact> 0.88645267E+00</totfact>
</mgrwt>
</event>
<event>
 4    5  0.7767175E-008  0.9931735E+03  0.7818608E-02  0.9390544E-01
          1   -1    0    0  501    0  0.00000000000E+00  0.00000000000E+00  0.62193656354E+03  0.62193656356E+03  0.50400000000E-02 0. -1.
         -1   -1    0    0    0  501 -0.00000000000E+00 -0.00000000000E+00 -0.30475394590E+04  0.30475394590E+04  0.50400000000E-02 0.  1.
    8880023    1    1    2    0    0  0.67251479039E+03  0.31671307716E+03 -0.26886732226E+04  0.28662444454E+04  0.65864270000E+03 0.  0.
    8880022    1    1    2    0    0 -0.67251479039E+03 -0.31671307716E+03  0.26307032713E+03  0.80323157717E+03  0.15294330000E+03 0.  0.
<mgrwt>
<rscale>  0 0.92857990E+03</rscale>
<asrwt>0</asrwt>
<pdfrwt beam="1">  1        1 0.95682550E-01 0.99317346E+03</pdfrwt>
<pdfrwt beam="2">  1       -1 0.46885222E+00 0.99317346E+03</pdfrwt>
<totfact> 0.80142983E-02</totfact>
</mgrwt>
</event>
<event>
 4    5  0.7767175E-008  0.1039938E+04  0.7818608E-02  0.9331076E-01
          1   -1    0    0  501    0  0.00000000000E+00  0.00000000000E+00  0.35086387987E+04  0.35086387987E+04  0.50400000000E-02 0. -1.
         -1   -1    0    0    0  501 -0.00000000000E+00 -0.00000000000E+00 -0.80690597983E+03  0.80690597984E+03  0.50400000000E-02 0.  1.
    8880023    1    1    2    0    0  0.15379643557E+03  0.78994144425E+03 -0.39489968181E+03  0.11123923741E+04  0.65864270000E+03 0.  1.
    8880022    1    1    2    0    0 -0.15379643557E+03 -0.78994144425E+03  0.30966325007E+04  0.32031524044E+04  0.15294330000E+03 0.  0.
<mgrwt>
<rscale>  0 0.97971588E+03</rscale>
<asrwt>0</asrwt>
<pdfrwt beam="1">  1        1 0.53979059E+00 0.10399380E+04</pdfrwt>
<pdfrwt beam="2">  1       -1 0.12413938E+00 0.10399380E+04</pdfrwt>
<totfact> 0.14446010E-01</totfact>
</mgrwt>
</event>
<event>
 4    5  0.7767175E-008  0.7026841E+03  0.7818608E-02  0.9986244E-01
         -1   -1    0    0    0  501 -0.00000000000E+00  0.00000000000E+00  0.26746926654E+03  0.26746926659E+03  0.50400000000E-02 0.  1.
          1   -1    0    0  501    0  0.00000000000E+00 -0.00000000000E+00 -0.17094239686E+04  0.17094239686E+04  0.50400000000E-02 0. -1.
    8880023    1    1    2    0    0  0.23945188980E+03  0.51161431289E+02 -0.24275869967E+03  0.74343573502E+03  0.65864270000E+03 0.  0.
    8880022    1    1    2    0    0 -0.23945188980E+03 -0.51161431289E+02 -0.11991960024E+04  0.12334575002E+04  0.15294330000E+03 0.  0.
<mgrwt>
<rscale>  0 0.56257562E+03</rscale>
<asrwt>0</asrwt>
<pdfrwt beam="1">  1        1 0.26298830E+00 0.70268407E+03</pdfrwt>
<pdfrwt beam="2">  1       -1 0.41149119E-01 0.70268407E+03</pdfrwt>
<totfact> 0.28267932E+01</totfact>
</mgrwt>
</event>
<event>
 4    5  0.7767175E-008  0.8571833E+03  0.7818608E-02  0.9598594E-01
         -1   -1    0    0    0  501 -0.00000000000E+00  0.00000000000E+00  0.16104215958E+04  0.16104215958E+04  0.50400000000E-02 0.  1.
          1   -1    0    0  501    0  0.00000000000E+00 -0.00000000000E+00 -0.67001444429E+03  0.67001444431E+03  0.50400000000E-02 0. -1.
    8880023    1    1    2    0    0  0.37212178703E+03  0.40308600672E+03  0.13357645602E+04  0.15871452736E+04  0.65864270000E+03 0.  1.
    8880022    1    1    2    0    0 -0.37212178703E+03 -0.40308600672E+03 -0.39535740869E+03  0.69329076644E+03  0.15294330000E+03 0.  0.
<mgrwt>
<rscale>  0 0.77389332E+03</rscale>
<asrwt>0</asrwt>
<pdfrwt beam="1">  1        1 0.10307915E+00 0.85718327E+03</pdfrwt>
<pdfrwt beam="2">  1       -1 0.24775717E+00 0.85718327E+03</pdfrwt>
<totfact> 0.21570882E+00</totfact>
</mgrwt>
</event>
<event>
 4    5  0.7767175E-008  0.7154616E+03  0.7818608E-02  0.9938253E-01
         -1   -1    0    0    0  501 -0.00000000000E+00  0.00000000000E+00  0.72677313326E+03  0.72677313328E+03  0.50400000000E-02 0.  1.
          1   -1    0    0  501    0  0.00000000000E+00 -0.00000000000E+00 -0.13668117739E+04  0.13668117740E+04  0.50400000000E-02 0. -1.
    8880023    1    1    2    0    0 -0.41123069702E+02  0.27637644055E+03  0.52395023745E+03  0.88679710269E+03  0.65864270000E+03 0.  1.
    8880022    1    1    2    0    0  0.41123069702E+02 -0.27637644055E+03 -0.11639888781E+04  0.12067878045E+04  0.15294330000E+03 0.  0.
<mgrwt>
<rscale>  0 0.58442686E+03</rscale>
<asrwt>0</asrwt>
<pdfrwt beam="1">  1        1 0.21027873E+00 0.71546156E+03</pdfrwt>
<pdfrwt beam="2">  1       -1 0.11181125E+00 0.71546156E+03</pdfrwt>
<totfact> 0.62198164E+00</totfact>
</mgrwt>
</event>
<event>
 4    5  0.7767175E-008  0.6828986E+03  0.7818608E-02  0.1007729E+00
          1   -1    0    0  501    0  0.00000000000E+00  0.00000000000E+00  0.13586216516E+04  0.13586216516E+04  0.50400000000E-02 0. -1.
         -1   -1    0    0    0  501 -0.00000000000E+00 -0.00000000000E+00 -0.19038050451E+03  0.19038050458E+03  0.50400000000E-02 0.  1.
    8880023    1    1    2    0    0  0.48901570853E+02  0.17363465304E+03  0.51813074982E+03  0.85721061387E+03  0.65864270000E+03 0.  0.
    8880022    1    1    2    0    0 -0.48901570853E+02 -0.17363465304E+03  0.65011039730E+03  0.69179154235E+03  0.15294330000E+03 0.  0.
<mgrwt>
<rscale>  0 0.52387146E+03</rscale>
<asrwt>0</asrwt>
<pdfrwt beam="1">  1        1 0.20901871E+00 0.68289865E+03</pdfrwt>
<pdfrwt beam="2">  1       -1 0.29289309E-01 0.68289865E+03</pdfrwt>
<totfact> 0.89952989E+01</totfact>
</mgrwt>
</event>
<event>
 4    5  0.7767175E-008  0.7161990E+03  0.7818608E-02  0.9935663E-01
          1   -1    0    0  501    0  0.00000000000E+00  0.00000000000E+00  0.15489999751E+04  0.15489999751E+04  0.50400000000E-02 0. -1.
         -1   -1    0    0    0  501 -0.00000000000E+00 -0.00000000000E+00 -0.26346845277E+03  0.26346845282E+03  0.50400000000E-02 0.  1.
    8880023    1    1    2    0    0 -0.16340535956E+03  0.22897493169E+03  0.30046965571E+03  0.77667435334E+03  0.65864270000E+03 0.  0.
    8880022    1    1    2    0    0  0.16340535956E+03 -0.22897493169E+03  0.98506186663E+03  0.10357940746E+04  0.15294330000E+03 0.  0.
<mgrwt>
<rscale>  0 0.58563589E+03</rscale>
<asrwt>0</asrwt>
<pdfrwt beam="1">  1        1 0.23830769E+00 0.71619902E+03</pdfrwt>
<pdfrwt beam="2">  1       -1 0.40533609E-01 0.71619902E+03</pdfrwt>
<totfact> 0.37224071E+01</totfact>
</mgrwt>
</event>
<event>
 4    5  0.7767175E-008  0.6674615E+03  0.7818608E-02  0.1017552E+00
         -1   -1    0    0    0  501 -0.00000000000E+00  0.00000000000E+00  0.18896347007E+03  0.18896347013E+03  0.50400000000E-02 0.  1.
          1   -1    0    0  501    0  0.00000000000E+00 -0.00000000000E+00 -0.18319284095E+04  0.18319284095E+04  0.50400000000E-02 0. -1.
    8880023    1    1    2    0    0  0.25429444544E+02  0.10510913153E+03 -0.43096622970E+03  0.79450404882E+03  0.65864270000E+03 0.  1.
    8880022    1    1    2    0    0 -0.25429444544E+02 -0.10510913153E+03 -0.12119987097E+04  0.12263878308E+04  0.15294330000E+03 0.  0.
<mgrwt>
<rscale>  0 0.48580474E+03</rscale>
<asrwt>0</asrwt>
<pdfrwt beam="1">  1        1 0.28183513E+00 0.66746145E+03</pdfrwt>
<pdfrwt beam="2">  1       -1 0.29071304E-01 0.66746145E+03</pdfrwt>
<totfact> 0.43595164E+01</totfact>
</mgrwt>
</event>
<event>
 4    5  0.7767175E-008  0.1437822E+04  0.7818608E-02  0.8954838E-01
         -1   -1    0    0    0  501 -0.00000000000E+00  0.00000000000E+00  0.35983271329E+04  0.35983271329E+04  0.50400000000E-02 0.  1.
          1   -1    0    0  501    0  0.00000000000E+00 -0.00000000000E+00 -0.62888610840E+03  0.62888610842E+03  0.50400000000E-02 0. -1.
    8880023    1    1    2    0    0 -0.21542088277E+03 -0.12598074984E+04  0.24467166125E+04  0.28379135783E+04  0.65864270000E+03 0.  0.
    8880022    1    1    2    0    0  0.21542088277E+03  0.12598074984E+04  0.52272441209E+03  0.13892996631E+04  0.15294330000E+03 0.  0.
<mgrwt>
<rscale>  0 0.13985926E+04</rscale>
<asrwt>0</asrwt>
<pdfrwt beam="1">  1        1 0.96751711E-01 0.14378217E+04</pdfrwt>
<pdfrwt beam="2">  1       -1 0.55358878E+00 0.14378217E+04</pdfrwt>
<totfact> 0.21705795E-02</totfact>
</mgrwt>
</event>
<event>
 4    5  0.7767175E-008  0.1160324E+04  0.7818608E-02  0.9196690E-01
         -1   -1    0    0    0  501 -0.00000000000E+00  0.00000000000E+00  0.16647826817E+04  0.16647826817E+04  0.50400000000E-02 0.  1.
          1   -1    0    0  501    0  0.00000000000E+00 -0.00000000000E+00 -0.16324788452E+04  0.16324788452E+04  0.50400000000E-02 0. -1.
    8880023    1    1    2    0    0  0.41584135647E+03 -0.86000955045E+03  0.12739834783E+04  0.17231902303E+04  0.65864270000E+03 0.  1.
    8880022    1    1    2    0    0 -0.41584135647E+03  0.86000955045E+03 -0.12416796419E+04  0.15740712966E+04  0.15294330000E+03 0.  0.
<mgrwt>
<rscale>  0 0.11087659E+04</rscale>
<asrwt>0</asrwt>
<pdfrwt beam="1">  1        1 0.25115059E+00 0.11603235E+04</pdfrwt>
<pdfrwt beam="2">  1       -1 0.25612041E+00 0.11603235E+04</pdfrwt>
<totfact> 0.33281500E-01</totfact>
</mgrwt>
</event>
<event>
 4    5  0.7767175E-008  0.9634502E+03  0.7818608E-02  0.9431021E-01
          1   -1    0    0  501    0  0.00000000000E+00  0.00000000000E+00  0.22215208945E+04  0.22215208945E+04  0.50400000000E-02 0. -1.
         -1   -1    0    0    0  501 -0.00000000000E+00 -0.00000000000E+00 -0.46765817011E+03  0.46765817013E+03  0.50400000000E-02 0.  1.
    8880023    1    1    2    0    0 -0.70301837266E+03  0.13826607853E+02  0.17167581121E+04  0.19686276004E+04  0.65864270000E+03 0.  0.
    8880022    1    1    2    0    0  0.70301837266E+03 -0.13826607853E+02  0.37104612338E+02  0.72055146427E+03  0.15294330000E+03 0.  0.
<mgrwt>
<rscale>  0 0.89566179E+03</rscale>
<asrwt>0</asrwt>
<pdfrwt beam="1">  1        1 0.34177245E+00 0.96345016E+03</pdfrwt>
<pdfrwt beam="2">  1       -1 0.71947410E-01 0.96345016E+03</pdfrwt>
<totfact> 0.41863533E+00</totfact>
</mgrwt>
</event>
<event>
 4    5  0.7767175E-008  0.7252194E+03  0.7818608E-02  0.9905305E-01
         -1   -1    0    0    0  501 -0.00000000000E+00  0.00000000000E+00  0.14554620037E+04  0.14554620037E+04  0.50400000000E-02 0.  1.
          1   -1    0    0  501    0  0.00000000000E+00 -0.00000000000E+00 -0.11103593055E+04  0.11103593055E+04  0.50400000000E-02 0. -1.
    8880023    1    1    2    0    0  0.25807513599E+03  0.15978180210E+03  0.13349626512E+04  0.15192328612E+04  0.65864270000E+03 0.  1.
    8880022    1    1    2    0    0 -0.25807513599E+03 -0.15978180210E+03 -0.98985995296E+03  0.10465884480E+04  0.15294330000E+03 0.  0.
<mgrwt>
<rscale>  0 0.60004857E+03</rscale>
<asrwt>0</asrwt>
<pdfrwt beam="1">  1        1 0.17082451E+00 0.72521942E+03</pdfrwt>
<pdfrwt beam="2">  1       -1 0.22391723E+00 0.72521942E+03</pdfrwt>
<totfact> 0.13594500E+00</totfact>
</mgrwt>
</event>
<event>
 4    5  0.7767175E-008  0.1273999E+04  0.7818608E-02  0.9088345E-01
         -1   -1    0    0    0  501 -0.00000000000E+00  0.00000000000E+00  0.11307084149E+04  0.11307084149E+04  0.50400000000E-02 0.  1.
          1   -1    0    0  501    0  0.00000000000E+00 -0.00000000000E+00 -0.17088200666E+04  0.17088200666E+04  0.50400000000E-02 0. -1.
    8880023    1    1    2    0    0 -0.59929373683E+03  0.91110432639E+03  0.43196177736E+03  0.13452379938E+04  0.65864270000E+03 0.  1.
    8880022    1    1    2    0    0  0.59929373683E+03 -0.91110432639E+03 -0.10100734290E+04  0.14942904877E+04  0.15294330000E+03 0.  0.
<mgrwt>
<rscale>  0 0.12284121E+04</rscale>
<asrwt>0</asrwt>
<pdfrwt beam="1">  1        1 0.26289540E+00 0.12739993E+04</pdfrwt>
<pdfrwt beam="2">  1       -1 0.17395514E+00 0.12739993E+04</pdfrwt>
<totfact> 0.10514743E+00</totfact>
</mgrwt>
</event>
<event>
 4    5  0.7767175E-008  0.8134545E+03  0.7818608E-02  0.9682426E-01
         -1   -1    0    0    0  501 -0.00000000000E+00  0.00000000000E+00  0.14761333090E+04  0.14761333090E+04  0.50400000000E-02 0.  1.
          1   -1    0    0  501    0  0.00000000000E+00 -0.00000000000E+00 -0.43742498836E+03  0.43742498839E+03  0.50400000000E-02 0. -1.
    8880023    1    1    2    0    0  0.47729415431E+03 -0.93971678814E+01  0.11416490877E+04  0.14018098523E+04  0.65864270000E+03 0.  1.
    8880022    1    1    2    0    0 -0.47729415431E+03  0.93971678814E+01 -0.10294076701E+03  0.51174844506E+03  0.15294330000E+03 0.  0.
<mgrwt>
<rscale>  0 0.72072864E+03</rscale>
<asrwt>0</asrwt>
<pdfrwt beam="1">  1        1 0.67296152E-01 0.81345450E+03</pdfrwt>
<pdfrwt beam="2">  1       -1 0.22709743E+00 0.81345450E+03</pdfrwt>
<totfact> 0.53994311E+00</totfact>
</mgrwt>
</event>
<event>
 4    5  0.7767175E-008  0.1155699E+04  0.7818608E-02  0.9201437E-01
          1   -1    0    0  501    0  0.00000000000E+00  0.00000000000E+00  0.21299690995E+04  0.21299690995E+04  0.50400000000E-02 0. -1.
         -1   -1    0    0    0  501 -0.00000000000E+00 -0.00000000000E+00 -0.11341726814E+04  0.11341726814E+04  0.50400000000E-02 0.  1.
    8880023    1    1    2    0    0  0.61319230389E+03  0.72513776400E+03 -0.67344186551E+03  0.13375962510E+04  0.65864270000E+03 0.  1.
    8880022    1    1    2    0    0 -0.61319230389E+03 -0.72513776400E+03  0.16692382836E+04  0.19265455299E+04  0.15294330000E+03 0.  0.
<mgrwt>
<rscale>  0 0.11038605E+04</rscale>
<asrwt>0</asrwt>
<pdfrwt beam="1">  1        1 0.32768755E+00 0.11556988E+04</pdfrwt>
<pdfrwt beam="2">  1       -1 0.17448811E+00 0.11556988E+04</pdfrwt>
<totfact> 0.54867004E-01</totfact>
</mgrwt>
</event>
<event>
 4    5  0.7767175E-008  0.8231524E+03  0.7818608E-02  0.9662805E-01
         -1   -1    0    0    0  501 -0.00000000000E+00  0.00000000000E+00  0.66781563156E+03  0.66781563158E+03  0.50400000000E-02 0.  1.
          1   -1    0    0  501    0  0.00000000000E+00 -0.00000000000E+00 -0.80540071822E+03  0.80540071824E+03  0.50400000000E-02 0. -1.
    8880023    1    1    2    0    0  0.81289397180E+02 -0.48699252925E+03  0.21101830567E+03  0.84976974601E+03  0.65864270000E+03 0.  0.
    8880022    1    1    2    0    0 -0.81289397180E+02  0.48699252925E+03 -0.34860339233E+03  0.62344660381E+03  0.15294330000E+03 0.  0.
<mgrwt>
<rscale>  0 0.73275180E+03</rscale>
<asrwt>0</asrwt>
<pdfrwt beam="1">  1        1 0.12390780E+00 0.82315241E+03</pdfrwt>
<pdfrwt beam="2">  1       -1 0.10274087E+00 0.82315241E+03</pdfrwt>
<totfact> 0.19964185E+01</totfact>
</mgrwt>
</event>
<event>
 4    5  0.7767175E-008  0.1063399E+04  0.7818608E-02  0.9302944E-01
          1   -1    0    0  501    0  0.00000000000E+00  0.00000000000E+00  0.23215281984E+04  0.23215281984E+04  0.50400000000E-02 0. -1.
         -1   -1    0    0    0  501 -0.00000000000E+00 -0.00000000000E+00 -0.76564602218E+03  0.76564602220E+03  0.50400000000E-02 0.  1.
    8880023    1    1    2    0    0  0.54316427554E+03 -0.63401957821E+03 -0.24945816402E+03  0.10922672922E+04  0.65864270000E+03 0.  0.
    8880022    1    1    2    0    0 -0.54316427554E+03  0.63401957821E+03  0.18053403402E+04  0.19949069284E+04  0.15294330000E+03 0.  0.
<mgrwt>
<rscale>  0 0.10051226E+04</rscale>
<asrwt>0</asrwt>
<pdfrwt beam="1">  1        1 0.35715818E+00 0.10633995E+04</pdfrwt>
<pdfrwt beam="2">  1       -1 0.11779170E+00 0.10633995E+04</pdfrwt>
<totfact> 0.11721222E+00</totfact>
</mgrwt>
</event>
<event>
 4    5  0.7767175E-008  0.9073074E+03  0.7818608E-02  0.9514401E-01
         -1   -1    0    0    0  501 -0.00000000000E+00  0.00000000000E+00  0.89594884211E+03  0.89594884212E+03  0.50400000000E-02 0.  1.
          1   -1    0    0  501    0  0.00000000000E+00 -0.00000000000E+00 -0.21706713951E+04  0.21706713951E+04  0.50400000000E-02 0. -1.
    8880023    1    1    2    0    0 -0.36051326868E+03  0.50933948603E+03  0.59806744874E+03  0.10866882756E+04  0.65864270000E+03 0.  0.
    8880022    1    1    2    0    0  0.36051326868E+03 -0.50933948603E+03 -0.18727900018E+04  0.19799319616E+04  0.15294330000E+03 0.  0.
<mgrwt>
<rscale>  0 0.83230356E+03</rscale>
<asrwt>0</asrwt>
<pdfrwt beam="1">  1        1 0.33394944E+00 0.90730741E+03</pdfrwt>
<pdfrwt beam="2">  1       -1 0.13783828E+00 0.90730741E+03</pdfrwt>
<totfact> 0.10248017E+00</totfact>
</mgrwt>
</event>
<event>
 4    5  0.7897145E-008  0.9041811E+03  0.7818608E-02  0.9519353E-01
         -1   -1    0    0    0  501 -0.00000000000E+00  0.00000000000E+00  0.15839682323E+04  0.15839682323E+04  0.50400000000E-02 0.  1.
          1   -1    0    0  501    0  0.00000000000E+00 -0.00000000000E+00 -0.16092044259E+04  0.16092044259E+04  0.50400000000E-02 0. -1.
    8880023    1    1    2    0    0  0.62068325989E+02  0.61634471314E+03  0.13800164480E+04  0.16498451096E+04  0.65864270000E+03 0.  0.
    8880022    1    1    2    0    0 -0.62068325989E+02 -0.61634471314E+03 -0.14052526416E+04  0.15433275486E+04  0.15294330000E+03 0.  0.
<mgrwt>
<rscale>  0 0.82871946E+03</rscale>
<asrwt>0</asrwt>
<pdfrwt beam="1">  1        1 0.24756991E+00 0.90418112E+03</pdfrwt>
<pdfrwt beam="2">  1       -1 0.24368742E+00 0.90418112E+03</pdfrwt>
<totfact> 0.43397033E-01</totfact>
</mgrwt>
</event>
<event>
 4    5  0.7767175E-008  0.1142422E+04  0.7818608E-02  0.9215232E-01
          1   -1    0    0  501    0  0.00000000000E+00  0.00000000000E+00  0.14170258131E+04  0.14170258131E+04  0.50400000000E-02 0. -1.
         -1   -1    0    0    0  501 -0.00000000000E+00 -0.00000000000E+00 -0.14621878159E+04  0.14621878159E+04  0.50400000000E-02 0.  1.
    8880023    1    1    2    0    0 -0.50932082534E+03  0.78224710760E+03 -0.10123145308E+04  0.15264039950E+04  0.65864270000E+03 0.  1.
    8880022    1    1    2    0    0  0.50932082534E+03 -0.78224710760E+03  0.96715252802E+03  0.13528096340E+04  0.15294330000E+03 0.  0.
<mgrwt>
<rscale>  0 0.10897585E+04</rscale>
<asrwt>0</asrwt>
<pdfrwt beam="1">  1        1 0.21800397E+00 0.11424222E+04</pdfrwt>
<pdfrwt beam="2">  1       -1 0.22495197E+00 0.11424222E+04</pdfrwt>
<totfact> 0.75274562E-01</totfact>
</mgrwt>
</event>
<event>
 4    5  0.7767175E-008  0.7971783E+03  0.7818608E-02  0.9716931E-01
         -1   -1    0    0    0  501 -0.00000000000E+00  0.00000000000E+00  0.80481686987E+03  0.80481686988E+03  0.50400000000E-02 0.  1.
          1   -1    0    0  501    0  0.00000000000E+00 -0.00000000000E+00 -0.10671372763E+04  0.10671372763E+04  0.50400000000E-02 0. -1.
    8880023    1    1    2    0    0 -0.43153915417E+03 -0.12432609943E+03  0.52373277575E+03  0.95382873056E+03  0.65864270000E+03 0.  0.
    8880022    1    1    2    0    0  0.43153915417E+03  0.12432609943E+03 -0.78605318218E+03  0.91812541562E+03  0.15294330000E+03 0.  0.
<mgrwt>
<rscale>  0 0.70017633E+03</rscale>
<asrwt>0</asrwt>
<pdfrwt beam="1">  1        1 0.16417496E+00 0.79717829E+03</pdfrwt>
<pdfrwt beam="2">  1       -1 0.12381798E+00 0.79717829E+03</pdfrwt>
<totfact> 0.79063886E+00</totfact>
</mgrwt>
</event>
<event>
 4    5  0.7767175E-008  0.9829161E+03  0.7818608E-02  0.9404258E-01
          1   -1    0    0  501    0  0.00000000000E+00  0.00000000000E+00  0.22397236320E+04  0.22397236321E+04  0.50400000000E-02 0. -1.
         -1   -1    0    0    0  501 -0.00000000000E+00 -0.00000000000E+00 -0.64110831542E+03  0.64110831544E+03  0.50400000000E-02 0.  1.
    8880023    1    1    2    0    0  0.52260526394E+03  0.50911460610E+03 -0.13650936030E+03  0.99235021830E+03  0.65864270000E+03 0.  1.
    8880022    1    1    2    0    0 -0.52260526394E+03 -0.50911460610E+03  0.17351246769E+04  0.18884817292E+04  0.15294330000E+03 0.  0.
<mgrwt>
<rscale>  0 0.91726104E+03</rscale>
<asrwt>0</asrwt>
<pdfrwt beam="1">  1        1 0.34457286E+00 0.98291615E+03</pdfrwt>
<pdfrwt beam="2">  1       -1 0.98632049E-01 0.98291615E+03</pdfrwt>
<totfact> 0.20474469E+00</totfact>
</mgrwt>
</event>
<event>
 4    5  0.7767175E-008  0.1054644E+04  0.7818608E-02  0.9313320E-01
          1   -1    0    0  501    0  0.00000000000E+00  0.00000000000E+00  0.32452817223E+04  0.32452817223E+04  0.50400000000E-02 0. -1.
         -1   -1    0    0    0  501 -0.00000000000E+00 -0.00000000000E+00 -0.73965080369E+03  0.73965080370E+03  0.50400000000E-02 0.  1.
    8880023    1    1    2    0    0  0.74124328452E+03  0.35919516423E+03 -0.26748301666E+03  0.10880349918E+04  0.65864270000E+03 0.  1.
    8880022    1    1    2    0    0 -0.74124328452E+03 -0.35919516423E+03  0.27731139353E+04  0.28968975343E+04  0.15294330000E+03 0.  0.
<mgrwt>
<rscale>  0 0.99565791E+03</rscale>
<asrwt>0</asrwt>
<pdfrwt beam="1">  1        1 0.49927410E+00 0.10546435E+04</pdfrwt>
<pdfrwt beam="2">  1       -1 0.11379243E+00 0.10546435E+04</pdfrwt>
<totfact> 0.28298534E-01</totfact>
</mgrwt>
</event>
<event>
 4    5  0.7767175E-008  0.8837574E+03  0.7818608E-02  0.9552626E-01
          1   -1    0    0  501    0  0.00000000000E+00  0.00000000000E+00  0.10727939020E+04  0.10727939021E+04  0.50400000000E-02 0. -1.
         -1   -1    0    0    0  501 -0.00000000000E+00 -0.00000000000E+00 -0.65246614945E+03  0.65246614947E+03  0.50400000000E-02 0.  1.
    8880023    1    1    2    0    0 -0.39451890786E+03  0.43768910338E+03 -0.14369387789E+03  0.89536308651E+03  0.65864270000E+03 0.  0.
    8880022    1    1    2    0    0  0.39451890786E+03 -0.43768910338E+03  0.56402163047E+03  0.82989696501E+03  0.15294330000E+03 0.  0.
<mgrwt>
<rscale>  0 0.80512670E+03</rscale>
<asrwt>0</asrwt>
<pdfrwt beam="1">  1        1 0.16504521E+00 0.88375739E+03</pdfrwt>
<pdfrwt beam="2">  1       -1 0.10037941E+00 0.88375739E+03</pdfrwt>
<totfact> 0.12753506E+01</totfact>
</mgrwt>
</event>
<event>
 4    5  0.7767175E-008  0.8069830E+03  0.7818608E-02  0.9695896E-01
         -1   -1    0    0    0  501 -0.00000000000E+00  0.00000000000E+00  0.11699571652E+04  0.11699571652E+04  0.50400000000E-02 0.  1.
          1   -1    0    0  501    0  0.00000000000E+00 -0.00000000000E+00 -0.14120312525E+04  0.14120312525E+04  0.50400000000E-02 0. -1.
    8880023    1    1    2    0    0  0.13181209031E+03  0.44725479152E+03  0.97739657881E+03  0.12674878912E+04  0.65864270000E+03 0.  1.
    8880022    1    1    2    0    0 -0.13181209031E+03 -0.44725479152E+03 -0.12194706661E+04  0.13145005265E+04  0.15294330000E+03 0.  0.
<mgrwt>
<rscale>  0 0.71261669E+03</rscale>
<asrwt>0</asrwt>
<pdfrwt beam="1">  1        1 0.21723558E+00 0.80698295E+03</pdfrwt>
<pdfrwt beam="2">  1       -1 0.17999341E+00 0.80698295E+03</pdfrwt>
<totfact> 0.16261233E+00</totfact>
</mgrwt>
</event>
<event>
 4    5  0.7767175E-008  0.6856461E+03  0.7818608E-02  0.1006295E+00
          1   -1    0    0  501    0  0.00000000000E+00  0.00000000000E+00  0.15927064433E+04  0.15927064433E+04  0.50400000000E-02 0. -1.
         -1   -1    0    0    0  501 -0.00000000000E+00 -0.00000000000E+00 -0.35909042652E+03  0.35909042656E+03  0.50400000000E-02 0.  1.
    8880023    1    1    2    0    0  0.56018145005E+02  0.18210528951E+03 -0.86828738039E+01  0.68570107744E+03  0.65864270000E+03 0.  1.
    8880022    1    1    2    0    0 -0.56018145005E+02 -0.18210528951E+03  0.12422988906E+04  0.12660957924E+04  0.15294330000E+03 0.  0.
<mgrwt>
<rscale>  0 0.52974217E+03</rscale>
<asrwt>0</asrwt>
<pdfrwt beam="1">  1        1 0.24503176E+00 0.68564610E+03</pdfrwt>
<pdfrwt beam="2">  1       -1 0.55244681E-01 0.68564610E+03</pdfrwt>
<totfact> 0.19546264E+01</totfact>
</mgrwt>
</event>
<event>
 4    5  0.7767175E-008  0.6633541E+03  0.7818608E-02  0.1020956E+00
         -1   -1    0    0    0  501 -0.00000000000E+00  0.00000000000E+00  0.13819462604E+04  0.13819462604E+04  0.50400000000E-02 0.  1.
          1   -1    0    0  501    0  0.00000000000E+00 -0.00000000000E+00 -0.81221566221E+03  0.81221566223E+03  0.50400000000E-02 0. -1.
    8880023    1    1    2    0    0 -0.75413709066E+02  0.23264685327E+02  0.12916385392E+04  0.14520223123E+04  0.65864270000E+03 0.  1.
    8880022    1    1    2    0    0  0.75413709066E+02 -0.23264685327E+02 -0.72190794097E+03  0.74213961042E+03  0.15294330000E+03 0.  0.
<mgrwt>
<rscale>  0 0.47343181E+03</rscale>
<asrwt>0</asrwt>
<pdfrwt beam="1">  1        1 0.12495626E+00 0.66335411E+03</pdfrwt>
<pdfrwt beam="2">  1       -1 0.21260711E+00 0.66335411E+03</pdfrwt>
<totfact> 0.28160129E+00</totfact>
</mgrwt>
</event>
<event>
 4    5  0.7767175E-008  0.1284021E+04  0.7818608E-02  0.9079483E-01
         -1   -1    0    0    0  501 -0.00000000000E+00  0.00000000000E+00  0.93537692409E+03  0.93537692410E+03  0.50400000000E-02 0.  1.
          1   -1    0    0  501    0  0.00000000000E+00 -0.00000000000E+00 -0.26846214444E+04  0.26846214445E+04  0.50400000000E-02 0. -1.
    8880023    1    1    2    0    0  0.71901738034E+03 -0.83541155211E+03  0.27215305982E+03  0.13125455988E+04  0.65864270000E+03 0.  0.
    8880022    1    1    2    0    0 -0.71901738034E+03  0.83541155211E+03 -0.20213975802E+04  0.23074527698E+04  0.15294330000E+03 0.  0.
<mgrwt>
<rscale>  0 0.12388872E+04</rscale>
<asrwt>0</asrwt>
<pdfrwt beam="1">  1        1 0.41301868E+00 0.12840205E+04</pdfrwt>
<pdfrwt beam="2">  1       -1 0.14390414E+00 0.12840205E+04</pdfrwt>
<totfact> 0.38339067E-01</totfact>
</mgrwt>
</event>
<event>
 4    5  0.7767175E-008  0.9507887E+03  0.7818608E-02  0.9448980E-01
         -1   -1    0    0    0  501 -0.00000000000E+00  0.00000000000E+00  0.21660493790E+04  0.21660493790E+04  0.50400000000E-02 0.  1.
          1   -1    0    0  501    0  0.00000000000E+00 -0.00000000000E+00 -0.46365512780E+03  0.46365512782E+03  0.50400000000E-02 0. -1.
    8880023    1    1    2    0    0  0.67932904980E+03  0.93278834984E+02  0.16756969070E+04  0.19266445519E+04  0.65864270000E+03 0.  0.
    8880022    1    1    2    0    0 -0.67932904980E+03 -0.93278834984E+02  0.26697344153E+02  0.70305995489E+03  0.15294330000E+03 0.  0.
<mgrwt>
<rscale>  0 0.88152119E+03</rscale>
<asrwt>0</asrwt>
<pdfrwt beam="1">  1        1 0.71331557E-01 0.95078868E+03</pdfrwt>
<pdfrwt beam="2">  1       -1 0.33323837E+00 0.95078868E+03</pdfrwt>
<totfact> 0.10110859E+00</totfact>
</mgrwt>
</event>
<event>
 4    5  0.7767175E-008  0.1067673E+04  0.7818608E-02  0.9297931E-01
          1   -1    0    0  501    0  0.00000000000E+00  0.00000000000E+00  0.26371525681E+04  0.26371525681E+04  0.50400000000E-02 0. -1.
         -1   -1    0    0    0  501 -0.00000000000E+00 -0.00000000000E+00 -0.47340050621E+03  0.47340050624E+03  0.50400000000E-02 0.  1.
    8880023    1    1    2    0    0 -0.62684351863E+02 -0.83796567892E+03  0.38074758259E+03  0.11335319735E+04  0.65864270000E+03 0.  0.
    8880022    1    1    2    0    0  0.62684351863E+02  0.83796567892E+03  0.17830044793E+04  0.19770211008E+04  0.15294330000E+03 0.  0.
<mgrwt>
<rscale>  0 0.10097351E+04</rscale>
<asrwt>0</asrwt>
<pdfrwt beam="1">  1        1 0.40571578E+00 0.10676732E+04</pdfrwt>
<pdfrwt beam="2">  1       -1 0.72830848E-01 0.10676732E+04</pdfrwt>
<totfact> 0.20889785E+00</totfact>
</mgrwt>
</event>
<event>
 4    5  0.7767175E-008  0.1814819E+04  0.7818608E-02  0.8714383E-01
         -1   -1    0    0    0  501 -0.00000000000E+00  0.00000000000E+00  0.16863091298E+04  0.16863091298E+04  0.50400000000E-02 0.  1.
          1   -1    0    0  501    0  0.00000000000E+00 -0.00000000000E+00 -0.30574622232E+04  0.30574622232E+04  0.50400000000E-02 0. -1.
    8880023    1    1    2    0    0 -0.14849400203E+04  0.80914129095E+03  0.80350138740E+03  0.19847370552E+04  0.65864270000E+03 0.  1.
    8880022    1    1    2    0    0  0.14849400203E+04 -0.80914129095E+03 -0.21746544808E+04  0.27590342978E+04  0.15294330000E+03 0.  0.
<mgrwt>
<rscale>  0 0.17848770E+04</rscale>
<asrwt>0</asrwt>
<pdfrwt beam="1">  1        1 0.47037880E+00 0.18148186E+04</pdfrwt>
<pdfrwt beam="2">  1       -1 0.25943218E+00 0.18148186E+04</pdfrwt>
<totfact> 0.29780904E-02</totfact>
</mgrwt>
</event>
<event>
 4    5  0.7767175E-008  0.9084735E+03  0.7818608E-02  0.9512564E-01
          1   -1    0    0  501    0  0.00000000000E+00  0.00000000000E+00  0.18520606959E+04  0.18520606959E+04  0.50400000000E-02 0. -1.
         -1   -1    0    0    0  501 -0.00000000000E+00 -0.00000000000E+00 -0.41592077466E+03  0.41592077469E+03  0.50400000000E-02 0.  1.
    8880023    1    1    2    0    0 -0.47737417932E+03 -0.40450928484E+03  0.29069841299E+03  0.95384990548E+03  0.65864270000E+03 0.  0.
    8880022    1    1    2    0    0  0.47737417932E+03  0.40450928484E+03  0.11454415082E+04  0.13141315651E+04  0.15294330000E+03 0.  0.
<mgrwt>
<rscale>  0 0.83363866E+03</rscale>
<asrwt>0</asrwt>
<pdfrwt beam="1">  1        1 0.28493241E+00 0.90847349E+03</pdfrwt>
<pdfrwt beam="2">  1       -1 0.63987812E-01 0.90847349E+03</pdfrwt>
<totfact> 0.94942548E+00</totfact>
</mgrwt>
</event>
<event>
 4    5  0.7767175E-008  0.6867519E+03  0.7818608E-02  0.1005736E+00
         -1   -1    0    0    0  501 -0.00000000000E+00  0.00000000000E+00  0.46670548406E+03  0.46670548409E+03  0.50400000000E-02 0.  1.
          1   -1    0    0  501    0  0.00000000000E+00 -0.00000000000E+00 -0.35689098361E+04  0.35689098361E+04  0.50400000000E-02 0. -1.
    8880023    1    1    2    0    0  0.15256198597E+03  0.12059362441E+03  0.20692596790E+03  0.71724929018E+03  0.65864270000E+03 0.  1.
    8880022    1    1    2    0    0 -0.15256198597E+03 -0.12059362441E+03 -0.33091303200E+04  0.33183660300E+04  0.15294330000E+03 0.  0.
<mgrwt>
<rscale>  0 0.53204992E+03</rscale>
<asrwt>0</asrwt>
<pdfrwt beam="1">  1        1 0.54906304E+00 0.68675191E+03</pdfrwt>
<pdfrwt beam="2">  1       -1 0.71800846E-01 0.68675191E+03</pdfrwt>
<totfact> 0.48146987E-01</totfact>
</mgrwt>
</event>
<event>
 4    5  0.7767175E-008  0.9999289E+03  0.7818608E-02  0.9381651E-01
          1   -1    0    0  501    0  0.00000000000E+00  0.00000000000E+00  0.24636581535E+04  0.24636581535E+04  0.50400000000E-02 0. -1.
         -1   -1    0    0    0  501 -0.00000000000E+00 -0.00000000000E+00 -0.66763380587E+03  0.66763380589E+03  0.50400000000E-02 0.  1.
    8880023    1    1    2    0    0 -0.14937078590E+03  0.73738452905E+03 -0.17580829042E+03  0.10152666333E+04  0.65864270000E+03 0.  0.
    8880022    1    1    2    0    0  0.14937078590E+03 -0.73738452905E+03  0.19718326380E+04  0.21160253261E+04  0.15294330000E+03 0.  0.
<mgrwt>
<rscale>  0 0.93601265E+03</rscale>
<asrwt>0</asrwt>
<pdfrwt beam="1">  1        1 0.37902433E+00 0.99992889E+03</pdfrwt>
<pdfrwt beam="2">  1       -1 0.10271289E+00 0.99992889E+03</pdfrwt>
<totfact> 0.13096354E+00</totfact>
</mgrwt>
</event>
<event>
 4    5  0.7767175E-008  0.1226150E+04  0.7818608E-02  0.9132113E-01
          1   -1    0    0  501    0  0.00000000000E+00  0.00000000000E+00  0.16496455293E+04  0.16496455293E+04  0.50400000000E-02 0. -1.
         -1   -1    0    0    0  501 -0.00000000000E+00 -0.00000000000E+00 -0.95576099418E+03  0.95576099419E+03  0.50400000000E-02 0.  1.
    8880023    1    1    2    0    0 -0.39003608137E+03  0.95786489847E+03 -0.18444388197E+03  0.12399447812E+04  0.65864270000E+03 0.  1.
    8880022    1    1    2    0    0  0.39003608137E+03 -0.95786489847E+03  0.87832841710E+03  0.13654617423E+04  0.15294330000E+03 0.  0.
<mgrwt>
<rscale>  0 0.11782472E+04</rscale>
<asrwt>0</asrwt>
<pdfrwt beam="1">  1        1 0.25379162E+00 0.12261499E+04</pdfrwt>
<pdfrwt beam="2">  1       -1 0.14704015E+00 0.12261499E+04</pdfrwt>
<totfact> 0.18582772E+00</totfact>
</mgrwt>
</event>
<event>
 4    5  0.7767175E-008  0.7118628E+03  0.7818608E-02  0.9951148E-01
         -1   -1    0    0    0  501 -0.00000000000E+00  0.00000000000E+00  0.44237681259E+03  0.44237681262E+03  0.50400000000E-02 0.  1.
          1   -1    0    0  501    0  0.00000000000E+00 -0.00000000000E+00 -0.99192225609E+03  0.99192225610E+03  0.50400000000E-02 0. -1.
    8880023    1    1    2    0    0  0.27000102249E+03  0.61529348619E+01  0.95720624899E+02  0.71826948637E+03  0.65864270000E+03 0.  1.
    8880022    1    1    2    0    0 -0.27000102249E+03 -0.61529348619E+01 -0.64526606840E+03  0.71602958235E+03  0.15294330000E+03 0.  0.
<mgrwt>
<rscale>  0 0.57845216E+03</rscale>
<asrwt>0</asrwt>
<pdfrwt beam="1">  1        1 0.15260342E+00 0.71186278E+03</pdfrwt>
<pdfrwt beam="2">  1       -1 0.68057971E-01 0.71186278E+03</pdfrwt>
<totfact> 0.34582771E+01</totfact>
</mgrwt>
</event>
<event>
 4    5  0.7767175E-008  0.1349142E+04  0.7818608E-02  0.9024243E-01
          1   -1    0    0  501    0  0.00000000000E+00  0.00000000000E+00  0.22755948324E+04  0.22755948324E+04  0.50400000000E-02 0. -1.
         -1   -1    0    0    0  501 -0.00000000000E+00 -0.00000000000E+00 -0.78674553648E+03  0.78674553649E+03  0.50400000000E-02 0.  1.
    8880023    1    1    2    0    0  0.64216384663E+03 -0.98691418780E+03  0.29993991063E+03  0.13820811034E+04  0.65864270000E+03 0.  0.
    8880022    1    1    2    0    0 -0.64216384663E+03  0.98691418780E+03  0.11889093853E+04  0.16802592655E+04  0.15294330000E+03 0.  0.
<mgrwt>
<rscale>  0 0.13067323E+04</rscale>
<asrwt>0</asrwt>
<pdfrwt beam="1">  1        1 0.35009151E+00 0.13491420E+04</pdfrwt>
<pdfrwt beam="2">  1       -1 0.12103778E+00 0.13491420E+04</pdfrwt>
<totfact> 0.11359316E+00</totfact>
</mgrwt>
</event>
<event>
 4    5  0.7767175E-008  0.7115198E+03  0.7818608E-02  0.9952400E-01
          1   -1    0    0  501    0  0.00000000000E+00  0.00000000000E+00  0.10771196463E+04  0.10771196463E+04  0.50400000000E-02 0. -1.
         -1   -1    0    0    0  501 -0.00000000000E+00 -0.00000000000E+00 -0.26038753504E+04  0.26038753504E+04  0.50400000000E-02 0.  1.
    8880023    1    1    2    0    0  0.14789798852E+03  0.22489202093E+03 -0.25315237563E+04  0.26296146051E+04  0.65864270000E+03 0.  1.
    8880022    1    1    2    0    0 -0.14789798852E+03 -0.22489202093E+03  0.10047680522E+04  0.10513803916E+04  0.15294330000E+03 0.  0.
<mgrwt>
<rscale>  0 0.57787601E+03</rscale>
<asrwt>0</asrwt>
<pdfrwt beam="1">  1        1 0.16571072E+00 0.71151981E+03</pdfrwt>
<pdfrwt beam="2">  1       -1 0.40059620E+00 0.71151981E+03</pdfrwt>
<totfact> 0.10239985E-01</totfact>
</mgrwt>
</event>
<event>
 4    5  0.7767175E-008  0.6638025E+03  0.7818608E-02  0.1020560E+00
         -1   -1    0    0    0  501 -0.00000000000E+00  0.00000000000E+00  0.88481997499E+03  0.88481997500E+03  0.50400000000E-02 0.  1.
          1   -1    0    0  501    0  0.00000000000E+00 -0.00000000000E+00 -0.87676704561E+03  0.87676704563E+03  0.50400000000E-02 0. -1.
    8880023    1    1    2    0    0  0.26980552335E+02  0.78074328161E+02  0.74882949237E+03  0.10006894452E+04  0.65864270000E+03 0.  1.
    8880022    1    1    2    0    0 -0.26980552335E+02 -0.78074328161E+02 -0.74077656299E+03  0.76089757538E+03  0.15294330000E+03 0.  0.
<mgrwt>
<rscale>  0 0.47485100E+03</rscale>
<asrwt>0</asrwt>
<pdfrwt beam="1">  1        1 0.13488724E+00 0.66380250E+03</pdfrwt>
<pdfrwt beam="2">  1       -1 0.13612615E+00 0.66380250E+03</pdfrwt>
<totfact> 0.89657710E+00</totfact>
</mgrwt>
</event>
<event>
 4    5  0.7767175E-008  0.1036424E+04  0.7818608E-02  0.9335383E-01
         -1   -1    0    0    0  501 -0.00000000000E+00  0.00000000000E+00  0.43177431578E+03  0.43177431581E+03  0.50400000000E-02 0.  1.
          1   -1    0    0  501    0  0.00000000000E+00 -0.00000000000E+00 -0.27386332965E+04  0.27386332965E+04  0.50400000000E-02 0. -1.
    8880023    1    1    2    0    0  0.45765652619E+03 -0.65644058995E+03 -0.42577399527E+03  0.11204719744E+04  0.65864270000E+03 0.  1.
    8880022    1    1    2    0    0 -0.45765652619E+03  0.65644058995E+03 -0.18810849854E+04  0.20499356379E+04  0.15294330000E+03 0.  0.
<mgrwt>
<rscale>  0 0.97589701E+03</rscale>
<asrwt>0</asrwt>
<pdfrwt beam="1">  1        1 0.42132819E+00 0.10364236E+04</pdfrwt>
<pdfrwt beam="2">  1       -1 0.66426819E-01 0.10364236E+04</pdfrwt>
<totfact> 0.21534093E+00</totfact>
</mgrwt>
</event>
<event>
 4    5  0.7767175E-008  0.8567680E+03  0.7818608E-02  0.9599339E-01
          1   -1    0    0  501    0  0.00000000000E+00  0.00000000000E+00  0.13155182471E+04  0.13155182471E+04  0.50400000000E-02 0. -1.
         -1   -1    0    0    0  501 -0.00000000000E+00 -0.00000000000E+00 -0.97840037593E+03  0.97840037594E+03  0.50400000000E-02 0.  1.
    8880023    1    1    2    0    0 -0.54752856003E+03 -0.21300010318E+02 -0.70307998703E+03  0.11083198496E+04  0.65864270000E+03 0.  1.
    8880022    1    1    2    0    0  0.54752856003E+03  0.21300010318E+02  0.10401978582E+04  0.11855987735E+04  0.15294330000E+03 0. -1.
<mgrwt>
<rscale>  0 0.77339972E+03</rscale>
<asrwt>0</asrwt>
<pdfrwt beam="1">  1        1 0.20238742E+00 0.85676801E+03</pdfrwt>
<pdfrwt beam="2">  1       -1 0.15052313E+00 0.85676801E+03</pdfrwt>
<totfact> 0.31216826E+00</totfact>
</mgrwt>
</event>
<event>
 4    5  0.7767175E-008  0.7586874E+03  0.7818608E-02  0.9808518E-01
         -1   -1    0    0    0  501 -0.00000000000E+00  0.00000000000E+00  0.22637407594E+03  0.22637407600E+03  0.50400000000E-02 0.  1.
          1   -1    0    0  501    0  0.00000000000E+00 -0.00000000000E+00 -0.21643241449E+04  0.21643241449E+04  0.50400000000E-02 0. -1.
    8880023    1    1    2    0    0 -0.32016874274E+02  0.37519493658E+03 -0.53055978440E+03  0.92579706834E+03  0.65864270000E+03 0.  1.
    8880022    1    1    2    0    0  0.32016874274E+02 -0.37519493658E+03 -0.14073902846E+04  0.14649011526E+04  0.15294330000E+03 0.  0.
<mgrwt>
<rscale>  0 0.64907435E+03</rscale>
<asrwt>0</asrwt>
<pdfrwt beam="1">  1        1 0.33297293E+00 0.75868737E+03</pdfrwt>
<pdfrwt beam="2">  1       -1 0.34826782E-01 0.75868737E+03</pdfrwt>
<totfact> 0.18799828E+01</totfact>
</mgrwt>
</event>
<event>
 4    5  0.7767175E-008  0.1100807E+04  0.7818608E-02  0.9260158E-01
          1   -1    0    0  501    0  0.00000000000E+00  0.00000000000E+00  0.11740913206E+04  0.11740913206E+04  0.50400000000E-02 0. -1.
         -1   -1    0    0    0  501 -0.00000000000E+00 -0.00000000000E+00 -0.12770956142E+04  0.12770956142E+04  0.50400000000E-02 0.  1.
    8880023    1    1    2    0    0  0.83888798556E+03  0.27245813068E+03 -0.76267384156E+03  0.13391968041E+04  0.65864270000E+03 0.  1.
    8880022    1    1    2    0    0 -0.83888798556E+03 -0.27245813068E+03  0.65966954792E+03  0.11119901307E+04  0.15294330000E+03 0.  0.
<mgrwt>
<rscale>  0 0.10453502E+04</rscale>
<asrwt>0</asrwt>
<pdfrwt beam="1">  1        1 0.18062943E+00 0.11008073E+04</pdfrwt>
<pdfrwt beam="2">  1       -1 0.19647625E+00 0.11008073E+04</pdfrwt>
<totfact> 0.17627826E+00</totfact>
</mgrwt>
</event>
<event>
 4    5  0.7767175E-008  0.7021892E+03  0.7818608E-02  0.9988238E-01
          1   -1    0    0  501    0  0.00000000000E+00  0.00000000000E+00  0.19535437962E+04  0.19535437962E+04  0.50400000000E-02 0. -1.
         -1   -1    0    0    0  501 -0.00000000000E+00 -0.00000000000E+00 -0.32454856153E+03  0.32454856157E+03  0.50400000000E-02 0.  1.
    8880023    1    1    2    0    0 -0.61313334590E+02  0.23558460875E+03  0.84716434481E+02  0.70728107101E+03  0.65864270000E+03 0.  1.
    8880022    1    1    2    0    0  0.61313334590E+02 -0.23558460875E+03  0.15442788002E+04  0.15708112867E+04  0.15294330000E+03 0.  0.
<mgrwt>
<rscale>  0 0.56168997E+03</rscale>
<asrwt>0</asrwt>
<pdfrwt beam="1">  1        1 0.30054520E+00 0.70218918E+03</pdfrwt>
<pdfrwt beam="2">  1       -1 0.49930548E-01 0.70218918E+03</pdfrwt>
<totfact> 0.13553050E+01</totfact>
</mgrwt>
</event>
<event>
 4    5  0.7767175E-008  0.7953947E+03  0.7818608E-02  0.9720843E-01
         -1   -1    0    0    0  501 -0.00000000000E+00  0.00000000000E+00  0.23135151762E+04  0.23135151762E+04  0.50400000000E-02 0.  1.
          1   -1    0    0  501    0  0.00000000000E+00 -0.00000000000E+00 -0.28176965611E+03  0.28176965615E+03  0.50400000000E-02 0. -1.
    8880023    1    1    2    0    0 -0.44585795112E+03 -0.72984704872E+01  0.19640953202E+04  0.21190382756E+04  0.65864270000E+03 0.  0.
    8880022    1    1    2    0    0  0.44585795112E+03  0.72984704872E+01  0.67650199849E+02  0.47624655674E+03  0.15294330000E+03 0.  0.
<mgrwt>
<rscale>  0 0.69789230E+03</rscale>
<asrwt>0</asrwt>
<pdfrwt beam="1">  1        1 0.43349181E-01 0.79539474E+03</pdfrwt>
<pdfrwt beam="2">  1       -1 0.35592539E+00 0.79539474E+03</pdfrwt>
<totfact> 0.14208359E+00</totfact>
</mgrwt>
</event>
<event>
 4    5  0.7767175E-008  0.1808977E+04  0.7818608E-02  0.8717587E-01
         -1   -1    0    0    0  501 -0.00000000000E+00  0.00000000000E+00  0.24976771653E+04  0.24976771653E+04  0.50400000000E-02 0.  1.
          1   -1    0    0  501    0  0.00000000000E+00 -0.00000000000E+00 -0.12508030720E+04  0.12508030720E+04  0.50400000000E-02 0. -1.
    8880023    1    1    2    0    0  0.75669315624E+03  0.15053250809E+04  0.90426410936E+03  0.20223975666E+04  0.65864270000E+03 0.  0.
    8880022    1    1    2    0    0 -0.75669315624E+03 -0.15053250809E+04  0.34260998391E+03  0.17260826706E+04  0.15294330000E+03 0.  0.
<mgrwt>
<rscale>  0 0.17789270E+04</rscale>
<asrwt>0</asrwt>
<pdfrwt beam="1">  1        1 0.19243124E+00 0.18089772E+04</pdfrwt>
<pdfrwt beam="2">  1       -1 0.38425802E+00 0.18089772E+04</pdfrwt>
<totfact> 0.82376903E-02</totfact>
</mgrwt>
</event>
<event>
 4    5  0.7767175E-008  0.1934165E+04  0.7818608E-02  0.8651740E-01
          1   -1    0    0  501    0  0.00000000000E+00  0.00000000000E+00  0.25451433003E+04  0.25451433003E+04  0.50400000000E-02 0. -1.
         -1   -1    0    0    0  501 -0.00000000000E+00 -0.00000000000E+00 -0.30569105469E+04  0.30569105469E+04  0.50400000000E-02 0.  1.
    8880023    1    1    2    0    0 -0.43949445303E+03  0.17646611820E+04 -0.23284548326E+04  0.30269946440E+04  0.65864270000E+03 0.  1.
    8880022    1    1    2    0    0  0.43949445303E+03 -0.17646611820E+04  0.18166875861E+04  0.25750592032E+04  0.15294330000E+03 0.  0.
<mgrwt>
<rscale>  0 0.19062729E+04</rscale>
<asrwt>0</asrwt>
<pdfrwt beam="1">  1        1 0.39156051E+00 0.19341651E+04</pdfrwt>
<pdfrwt beam="2">  1       -1 0.47029393E+00 0.19341651E+04</pdfrwt>
<totfact> 0.26187500E-03</totfact>
</mgrwt>
</event>
<event>
 4    5  0.7767175E-008  0.7472511E+03  0.7818608E-02  0.9839307E-01
          1   -1    0    0  501    0  0.00000000000E+00  0.00000000000E+00  0.32893058619E+04  0.32893058619E+04  0.50400000000E-02 0. -1.
         -1   -1    0    0    0  501 -0.00000000000E+00 -0.00000000000E+00 -0.15333412718E+03  0.15333412726E+03  0.50400000000E-02 0.  1.
    8880023    1    1    2    0    0  0.35079369867E+03 -0.38958982055E+02  0.88158481088E+03  0.11556712363E+04  0.65864270000E+03 0.  1.
    8880022    1    1    2    0    0 -0.35079369867E+03  0.38958982055E+02  0.22543869239E+04  0.22869687529E+04  0.15294330000E+03 0.  0.
<mgrwt>
<rscale>  0 0.63295094E+03</rscale>
<asrwt>0</asrwt>
<pdfrwt beam="1">  1        1 0.50604702E+00 0.74725111E+03</pdfrwt>
<pdfrwt beam="2">  1       -1 0.23589867E-01 0.74725111E+03</pdfrwt>
<totfact> 0.60372289E+00</totfact>
</mgrwt>
</event>
<event>
 4    5  0.7767175E-008  0.7672328E+03  0.7818608E-02  0.9786730E-01
          1   -1    0    0  501    0  0.00000000000E+00  0.00000000000E+00  0.79186696498E+03  0.79186696500E+03  0.50400000000E-02 0. -1.
         -1   -1    0    0    0  501 -0.00000000000E+00 -0.00000000000E+00 -0.53584447326E+03  0.53584447328E+03  0.50400000000E-02 0.  1.
    8880023    1    1    2    0    0 -0.83048058018E+02 -0.38462840527E+03  0.42017164985E+03  0.87475162857E+03  0.65864270000E+03 0. -1.
    8880022    1    1    2    0    0  0.83048058018E+02  0.38462840527E+03 -0.16414915813E+03  0.45295980971E+03  0.15294330000E+03 0.  0.
<mgrwt>
<rscale>  0 0.66079578E+03</rscale>
<asrwt>0</asrwt>
<pdfrwt beam="1">  1        1 0.12182569E+00 0.76723282E+03</pdfrwt>
<pdfrwt beam="2">  1       -1 0.82437611E-01 0.76723282E+03</pdfrwt>
<totfact> 0.33635478E+01</totfact>
</mgrwt>
</event>
<event>
 4    5  0.7767175E-008  0.6714892E+03  0.7818608E-02  0.1014617E+00
          1   -1    0    0  501    0  0.00000000000E+00  0.00000000000E+00  0.17673362496E+04  0.17673362496E+04  0.50400000000E-02 0. -1.
         -1   -1    0    0    0  501 -0.00000000000E+00 -0.00000000000E+00 -0.34777215491E+03  0.34777215495E+03  0.50400000000E-02 0.  1.
    8880023    1    1    2    0    0  0.13025886726E+03  0.10960076179E+02 -0.98927837192E+01  0.67156203675E+03  0.65864270000E+03 0.  0.
    8880022    1    1    2    0    0 -0.13025886726E+03 -0.10960076179E+02  0.14294568784E+04  0.14435463678E+04  0.15294330000E+03 0. -1.
<mgrwt>
<rscale>  0 0.49680182E+03</rscale>
<asrwt>0</asrwt>
<pdfrwt beam="1">  1        1 0.27189788E+00 0.67148917E+03</pdfrwt>
<pdfrwt beam="2">  1       -1 0.53503409E-01 0.67148917E+03</pdfrwt>
<totfact> 0.15898925E+01</totfact>
</mgrwt>
</event>
<event>
 4    5  0.7767175E-008  0.8927485E+03  0.7818608E-02  0.9537774E-01
         -1   -1    0    0    0  501 -0.00000000000E+00  0.00000000000E+00  0.27542056863E+04  0.27542056863E+04  0.50400000000E-02 0.  1.
          1   -1    0    0  501    0  0.00000000000E+00 -0.00000000000E+00 -0.90210911163E+03  0.90210911164E+03  0.50400000000E-02 0. -1.
    8880023    1    1    2    0    0  0.57196621056E+03  0.18985357303E+03  0.25617292964E+04  0.27128319004E+04  0.65864270000E+03 0.  1.
    8880022    1    1    2    0    0 -0.57196621056E+03 -0.18985357303E+03 -0.70963272175E+03  0.94348289757E+03  0.15294330000E+03 0.  0.
<mgrwt>
<rscale>  0 0.81555259E+03</rscale>
<asrwt>0</asrwt>
<pdfrwt beam="1">  1        1 0.13878602E+00 0.89274853E+03</pdfrwt>
<pdfrwt beam="2">  1       -1 0.42372394E+00 0.89274853E+03</pdfrwt>
<totfact> 0.93385756E-02</totfact>
</mgrwt>
</event>
<event>
 4    5  0.7767175E-008  0.8224563E+03  0.7818608E-02  0.9664192E-01
          1   -1    0    0  501    0  0.00000000000E+00  0.00000000000E+00  0.25284567228E+04  0.25284567228E+04  0.50400000000E-02 0. -1.
         -1   -1    0    0    0  501 -0.00000000000E+00 -0.00000000000E+00 -0.30803392838E+03  0.30803392842E+03  0.50400000000E-02 0.  1.
    8880023    1    1    2    0    0  0.29472888130E+03  0.39466321489E+03  0.34577371667E+03  0.89218486653E+03  0.65864270000E+03 0.  0.
    8880022    1    1    2    0    0 -0.29472888130E+03 -0.39466321489E+03  0.18746490778E+04  0.19443057847E+04  0.15294330000E+03 0. -1.
<mgrwt>
<rscale>  0 0.73189378E+03</rscale>
<asrwt>0</asrwt>
<pdfrwt beam="1">  1        1 0.38899336E+00 0.82245630E+03</pdfrwt>
<pdfrwt beam="2">  1       -1 0.47389833E-01 0.82245630E+03</pdfrwt>
<totfact> 0.60113406E+00</totfact>
</mgrwt>
</event>
<event>
 4    5  0.7767175E-008  0.1221181E+04  0.7818608E-02  0.9136803E-01
          1   -1    0    0  501    0  0.00000000000E+00  0.00000000000E+00  0.13735771059E+04  0.13735771059E+04  0.50400000000E-02 0. -1.
         -1   -1    0    0    0  501 -0.00000000000E+00 -0.00000000000E+00 -0.99643033602E+03  0.99643033604E+03  0.50400000000E-02 0.  1.
    8880023    1    1    2    0    0 -0.55834907348E+03 -0.86355090865E+03 -0.10165302828E+03  0.12254049960E+04  0.65864270000E+03 0.  1.
    8880022    1    1    2    0    0  0.55834907348E+03  0.86355090865E+03  0.47879979820E+03  0.11446024460E+04  0.15294330000E+03 0. -1.
<mgrwt>
<rscale>  0 0.11730232E+04</rscale>
<asrwt>0</asrwt>
<pdfrwt beam="1">  1        1 0.21131956E+00 0.12211814E+04</pdfrwt>
<pdfrwt beam="2">  1       -1 0.15329697E+00 0.12211814E+04</pdfrwt>
<totfact> 0.25813097E+00</totfact>
</mgrwt>
</event>
<event>
 4    5  0.7767175E-008  0.7018546E+03  0.7818608E-02  0.9989593E-01
          1   -1    0    0  501    0  0.00000000000E+00  0.00000000000E+00  0.86866147653E+03  0.86866147655E+03  0.50400000000E-02 0. -1.
         -1   -1    0    0    0  501 -0.00000000000E+00 -0.00000000000E+00 -0.32871436529E+03  0.32871436533E+03  0.50400000000E-02 0.  1.
    8880023    1    1    2    0    0  0.96952746951E+02 -0.22223815795E+03  0.15731938300E+03  0.71926992744E+03  0.65864270000E+03 0.  0.
    8880022    1    1    2    0    0 -0.96952746951E+02  0.22223815795E+03  0.38262772823E+03  0.47810591444E+03  0.15294330000E+03 0.  0.
<mgrwt>
<rscale>  0 0.56108927E+03</rscale>
<asrwt>0</asrwt>
<pdfrwt beam="1">  1        1 0.13364023E+00 0.70185457E+03</pdfrwt>
<pdfrwt beam="2">  1       -1 0.50571441E-01 0.70185457E+03</pdfrwt>
<totfact> 0.77753513E+01</totfact>
</mgrwt>
</event>
<event>
 4    5  0.7767175E-008  0.7588110E+03  0.7818608E-02  0.9808196E-01
         -1   -1    0    0    0  501 -0.00000000000E+00  0.00000000000E+00  0.85001578237E+03  0.85001578239E+03  0.50400000000E-02 0.  1.
          1   -1    0    0  501    0  0.00000000000E+00 -0.00000000000E+00 -0.45600590541E+03  0.45600590544E+03  0.50400000000E-02 0. -1.
    8880023    1    1    2    0    0  0.63735305849E+01 -0.37675355100E+03  0.46963599822E+03  0.89238558772E+03  0.65864270000E+03 0.  1.
    8880022    1    1    2    0    0 -0.63735305849E+01  0.37675355100E+03 -0.75626121261E+02  0.41363610011E+03  0.15294330000E+03 0.  0.
<mgrwt>
<rscale>  0 0.64924572E+03</rscale>
<asrwt>0</asrwt>
<pdfrwt beam="1">  1        1 0.70154756E-01 0.75881096E+03</pdfrwt>
<pdfrwt beam="2">  1       -1 0.13077166E+00 0.75881096E+03</pdfrwt>
<totfact> 0.25717932E+01</totfact>
</mgrwt>
</event>
<event>
 4    5  0.7767175E-008  0.7926458E+03  0.7818608E-02  0.9726929E-01
          1   -1    0    0  501    0  0.00000000000E+00  0.00000000000E+00  0.13749745070E+04  0.13749745070E+04  0.50400000000E-02 0. -1.
         -1   -1    0    0    0  501 -0.00000000000E+00 -0.00000000000E+00 -0.36452157761E+03  0.36452157764E+03  0.50400000000E-02 0.  1.
    8880023    1    1    2    0    0  0.28539164433E+03 -0.33619750995E+03  0.22184450472E+03  0.82310530729E+03  0.65864270000E+03 0.  0.
    8880022    1    1    2    0    0 -0.28539164433E+03  0.33619750995E+03  0.78860842470E+03  0.91639077738E+03  0.15294330000E+03 0.  1.
<mgrwt>
<rscale>  0 0.69435850E+03</rscale>
<asrwt>0</asrwt>
<pdfrwt beam="1">  1        1 0.21153454E+00 0.79264580E+03</pdfrwt>
<pdfrwt beam="2">  1       -1 0.56080244E-01 0.79264580E+03</pdfrwt>
<totfact> 0.26412881E+01</totfact>
</mgrwt>
</event>
<event>
 4    5  0.7767175E-008  0.9500872E+03  0.7818608E-02  0.9449989E-01
          1   -1    0    0  501    0  0.00000000000E+00  0.00000000000E+00  0.77275043769E+03  0.77275043771E+03  0.50400000000E-02 0. -1.
         -1   -1    0    0    0  501 -0.00000000000E+00 -0.00000000000E+00 -0.11273294299E+04  0.11273294299E+04  0.50400000000E-02 0.  1.
    8880023    1    1    2    0    0  0.90490676516E+01 -0.68467047122E+03 -0.63689131033E+03  0.11438078017E+04  0.65864270000E+03 0.  0.
    8880022    1    1    2    0    0 -0.90490676516E+01  0.68467047122E+03  0.28231231809E+03  0.75627206596E+03  0.15294330000E+03 0.  0.
<mgrwt>
<rscale>  0 0.88073553E+03</rscale>
<asrwt>0</asrwt>
<pdfrwt beam="1">  1        1 0.11888468E+00 0.95008723E+03</pdfrwt>
<pdfrwt beam="2">  1       -1 0.17343530E+00 0.95008723E+03</pdfrwt>
<totfact> 0.54721970E+00</totfact>
</mgrwt>
</event>
<event>
 4    5  0.7767175E-008  0.7620523E+03  0.7818608E-02  0.9799823E-01
          1   -1    0    0  501    0  0.00000000000E+00  0.00000000000E+00  0.33884732127E+03  0.33884732131E+03  0.50400000000E-02 0. -1.
         -1   -1    0    0    0  501 -0.00000000000E+00 -0.00000000000E+00 -0.15165575410E+04  0.15165575410E+04  0.50400000000E-02 0.  1.
    8880023    1    1    2    0    0 -0.11705497946E+03  0.36498166016E+03 -0.12222229683E+04  0.14403307505E+04  0.65864270000E+03 0.  1.
    8880022    1    1    2    0    0  0.11705497946E+03 -0.36498166016E+03  0.44512748565E+02  0.41507411178E+03  0.15294330000E+03 0.  0.
<mgrwt>
<rscale>  0 0.65372041E+03</rscale>
<asrwt>0</asrwt>
<pdfrwt beam="1">  1        1 0.52130358E-01 0.76205229E+03</pdfrwt>
<pdfrwt beam="2">  1       -1 0.23331654E+00 0.76205229E+03</pdfrwt>
<totfact> 0.69366378E+00</totfact>
</mgrwt>
</event>
<event>
 4    5  0.7767175E-008  0.9808114E+03  0.7818608E-02  0.9407104E-01
         -1   -1    0    0    0  501 -0.00000000000E+00  0.00000000000E+00  0.12942423889E+04  0.12942423889E+04  0.50400000000E-02 0.  1.
          1   -1    0    0  501    0  0.00000000000E+00 -0.00000000000E+00 -0.18598034482E+04  0.18598034482E+04  0.50400000000E-02 0. -1.
    8880023    1    1    2    0    0 -0.71422245565E+03 -0.13441364670E+03  0.10126811258E+04  0.14097921880E+04  0.65864270000E+03 0.  0.
    8880022    1    1    2    0    0  0.71422245565E+03  0.13441364670E+03 -0.15782421851E+04  0.17442536491E+04  0.15294330000E+03 0.  0.
<mgrwt>
<rscale>  0 0.91493330E+03</rscale>
<asrwt>0</asrwt>
<pdfrwt beam="1">  1        1 0.28612361E+00 0.98081137E+03</pdfrwt>
<pdfrwt beam="2">  1       -1 0.19911421E+00 0.98081137E+03</pdfrwt>
<totfact> 0.57436704E-01</totfact>
</mgrwt>
</event>
<event>
 4    5  0.7767175E-008  0.1395743E+04  0.7818608E-02  0.8986998E-01
         -1   -1    0    0    0  501 -0.00000000000E+00  0.00000000000E+00  0.93242142046E+03  0.93242142047E+03  0.50400000000E-02 0.  1.
          1   -1    0    0  501    0  0.00000000000E+00 -0.00000000000E+00 -0.31483718952E+04  0.31483718952E+04  0.50400000000E-02 0. -1.
    8880023    1    1    2    0    0  0.79063264687E+03  0.94296758399E+03  0.15582618296E+03  0.14044144162E+04  0.65864270000E+03 0.  1.
    8880022    1    1    2    0    0 -0.79063264687E+03 -0.94296758399E+03 -0.23717766577E+04  0.26763788995E+04  0.15294330000E+03 0.  0.
<mgrwt>
<rscale>  0 0.13550717E+04</rscale>
<asrwt>0</asrwt>
<pdfrwt beam="1">  1        1 0.48436490E+00 0.13957428E+04</pdfrwt>
<pdfrwt beam="2">  1       -1 0.14344945E+00 0.13957428E+04</pdfrwt>
<totfact> 0.17662063E-01</totfact>
</mgrwt>
</event>
<event>
 4    5  0.7767175E-008  0.7528196E+03  0.7818608E-02  0.9824064E-01
          1   -1    0    0  501    0  0.00000000000E+00  0.00000000000E+00  0.16131784788E+04  0.16131784788E+04  0.50400000000E-02 0. -1.
         -1   -1    0    0    0  501 -0.00000000000E+00 -0.00000000000E+00 -0.93104892737E+03  0.93104892739E+03  0.50400000000E-02 0.  1.
    8880023    1    1    2    0    0  0.34199580973E+03 -0.12635663136E+03 -0.74752465600E+03  0.10609101987E+04  0.65864270000E+03 0.  0.
    8880022    1    1    2    0    0 -0.34199580973E+03  0.12635663136E+03  0.14296542074E+04  0.14833172074E+04  0.15294330000E+03 0.  0.
<mgrwt>
<rscale>  0 0.64086947E+03</rscale>
<asrwt>0</asrwt>
<pdfrwt beam="1">  1        1 0.24818130E+00 0.75281959E+03</pdfrwt>
<pdfrwt beam="2">  1       -1 0.14323830E+00 0.75281959E+03</pdfrwt>
<totfact> 0.22589521E+00</totfact>
</mgrwt>
</event>
<event>
 4    5  0.7767175E-008  0.9766810E+03  0.7818608E-02  0.9412723E-01
         -1   -1    0    0    0  501 -0.00000000000E+00  0.00000000000E+00  0.44488356903E+03  0.44488356905E+03  0.50400000000E-02 0.  1.
          1   -1    0    0  501    0  0.00000000000E+00 -0.00000000000E+00 -0.32144355567E+04  0.32144355567E+04  0.50400000000E-02 0. -1.
    8880023    1    1    2    0    0 -0.36336621906E+02 -0.72026053788E+03 -0.21439329633E+03  0.99993514004E+03  0.65864270000E+03 0.  0.
    8880022    1    1    2    0    0  0.36336621906E+02  0.72026053788E+03 -0.25551586913E+04  0.26593839857E+04  0.15294330000E+03 0.  0.
<mgrwt>
<rscale>  0 0.91036013E+03</rscale>
<asrwt>0</asrwt>
<pdfrwt beam="1">  1        1 0.49452853E+00 0.97668101E+03</pdfrwt>
<pdfrwt beam="2">  1       -1 0.68443628E-01 0.97668101E+03</pdfrwt>
<totfact> 0.92894912E-01</totfact>
</mgrwt>
</event>
<event>
 4    5  0.7767175E-008  0.6706345E+03  0.7818608E-02  0.1015212E+00
         -1   -1    0    0    0  501 -0.00000000000E+00  0.00000000000E+00  0.50936499239E+03  0.50936499242E+03  0.50400000000E-02 0.  1.
          1   -1    0    0  501    0  0.00000000000E+00 -0.00000000000E+00 -0.45344198575E+03  0.45344198578E+03  0.50400000000E-02 0. -1.
    8880023    1    1    2    0    0  0.12466779450E+03 -0.19960248266E+02  0.21959063502E+03  0.70567040731E+03  0.65864270000E+03 0.  1.
    8880022    1    1    2    0    0 -0.12466779450E+03  0.19960248266E+02 -0.16366762838E+03  0.25713657089E+03  0.15294330000E+03 0.  0.
<mgrwt>
<rscale>  0 0.49454733E+03</rscale>
<asrwt>0</asrwt>
<pdfrwt beam="1">  1        1 0.69760305E-01 0.67063453E+03</pdfrwt>
<pdfrwt beam="2">  1       -1 0.78363845E-01 0.67063453E+03</pdfrwt>
<totfact> 0.84624519E+01</totfact>
</mgrwt>
</event>
<event>
 4    5  0.7767175E-008  0.9438582E+03  0.7818608E-02  0.9459006E-01
          1   -1    0    0  501    0  0.00000000000E+00  0.00000000000E+00  0.21288963471E+04  0.21288963471E+04  0.50400000000E-02 0. -1.
         -1   -1    0    0    0  501 -0.00000000000E+00 -0.00000000000E+00 -0.56709303931E+03  0.56709303933E+03  0.50400000000E-02 0.  1.
    8880023    1    1    2    0    0 -0.55217093207E+03  0.39008386537E+03 -0.46164720149E+02  0.94498653318E+03  0.65864270000E+03 0.  0.
    8880022    1    1    2    0    0  0.55217093207E+03 -0.39008386537E+03  0.16079680280E+04  0.17510028533E+04  0.15294330000E+03 0.  0.
<mgrwt>
<rscale>  0 0.87374777E+03</rscale>
<asrwt>0</asrwt>
<pdfrwt beam="1">  1        1 0.32752251E+00 0.94385823E+03</pdfrwt>
<pdfrwt beam="2">  1       -1 0.87245084E-01 0.94385823E+03</pdfrwt>
<totfact> 0.32170390E+00</totfact>
</mgrwt>
</event>
<event>
 4    5  0.7767175E-008  0.8057156E+03  0.7818608E-02  0.9698571E-01
         -1   -1    0    0    0  501 -0.00000000000E+00  0.00000000000E+00  0.34540950495E+03  0.34540950499E+03  0.50400000000E-02 0.  1.
          1   -1    0    0  501    0  0.00000000000E+00 -0.00000000000E+00 -0.27674349217E+04  0.27674349217E+04  0.50400000000E-02 0. -1.
    8880023    1    1    2    0    0  0.44933926763E+03  0.11602439750E+03 -0.18980590019E+03  0.82777045385E+03  0.65864270000E+03 0.  1.
    8880022    1    1    2    0    0 -0.44933926763E+03 -0.11602439750E+03 -0.22322195166E+04  0.22850739729E+04  0.15294330000E+03 0.  0.
<mgrwt>
<rscale>  0 0.71101919E+03</rscale>
<asrwt>0</asrwt>
<pdfrwt beam="1">  1        1 0.42575921E+00 0.80571561E+03</pdfrwt>
<pdfrwt beam="2">  1       -1 0.53139926E-01 0.80571561E+03</pdfrwt>
<totfact> 0.33137685E+00</totfact>
</mgrwt>
</event>
<event>
 4    5  0.7767175E-008  0.1453501E+04  0.7818608E-02  0.8943188E-01
         -1   -1    0    0    0  501 -0.00000000000E+00  0.00000000000E+00  0.29746404506E+04  0.29746404507E+04  0.50400000000E-02 0.  1.
          1   -1    0    0  501    0  0.00000000000E+00 -0.00000000000E+00 -0.14806526497E+04  0.14806526497E+04  0.50400000000E-02 0. -1.
    8880023    1    1    2    0    0 -0.40271686840E+03 -0.12315328773E+04  0.24424868018E+04  0.28422536986E+04  0.65864270000E+03 0.  0.
    8880022    1    1    2    0    0  0.40271686840E+03  0.12315328773E+04 -0.94849900088E+03  0.16130394018E+04  0.15294330000E+03 0.  0.
<mgrwt>
<rscale>  0 0.14147810E+04</rscale>
<asrwt>0</asrwt>
<pdfrwt beam="1">  1        1 0.22779271E+00 0.14535007E+04</pdfrwt>
<pdfrwt beam="2">  1       -1 0.45763699E+00 0.14535007E+04</pdfrwt>
<totfact> 0.18394072E-02</totfact>
</mgrwt>
</event>
<event>
 4    5  0.7767175E-008  0.7116510E+03  0.7818608E-02  0.9951920E-01
          1   -1    0    0  501    0  0.00000000000E+00  0.00000000000E+00  0.18616469368E+04  0.18616469368E+04  0.50400000000E-02 0. -1.
         -1   -1    0    0    0  501 -0.00000000000E+00 -0.00000000000E+00 -0.18491786842E+03  0.18491786849E+03  0.50400000000E-02 0.  1.
    8880023    1    1    2    0    0 -0.17748429704E+03 -0.20282090791E+03  0.61510794949E+03  0.94064073491E+03  0.65864270000E+03 0.  0.
    8880022    1    1    2    0    0  0.17748429704E+03  0.20282090791E+03  0.10616211189E+04  0.11059240704E+04  0.15294330000E+03 0.  0.
<mgrwt>
<rscale>  0 0.57809660E+03</rscale>
<asrwt>0</asrwt>
<pdfrwt beam="1">  1        1 0.28640722E+00 0.71165104E+03</pdfrwt>
<pdfrwt beam="2">  1       -1 0.28448903E-01 0.71165104E+03</pdfrwt>
<totfact> 0.42990125E+01</totfact>
</mgrwt>
</event>
<event>
 4    5  0.7767175E-008  0.9199373E+03  0.7818608E-02  0.9494755E-01
          1   -1    0    0  501    0  0.00000000000E+00  0.00000000000E+00  0.15421473398E+04  0.15421473398E+04  0.50400000000E-02 0. -1.
         -1   -1    0    0    0  501 -0.00000000000E+00 -0.00000000000E+00 -0.63452373414E+03  0.63452373416E+03  0.50400000000E-02 0.  1.
    8880023    1    1    2    0    0  0.98528321212E+01 -0.64216620749E+03 -0.14783248480E+03  0.93173985971E+03  0.65864270000E+03 0.  1.
    8880022    1    1    2    0    0 -0.98528321212E+01  0.64216620749E+03  0.10554560904E+04  0.12449312142E+04  0.15294330000E+03 0.  0.
<mgrwt>
<rscale>  0 0.84671613E+03</rscale>
<asrwt>0</asrwt>
<pdfrwt beam="1">  1        1 0.23725344E+00 0.91993735E+03</pdfrwt>
<pdfrwt beam="2">  1       -1 0.97619037E-01 0.91993735E+03</pdfrwt>
<totfact> 0.62580282E+00</totfact>
</mgrwt>
</event>
<event>
 4    5  0.7767175E-008  0.1076833E+04  0.7818608E-02  0.9287298E-01
         -1   -1    0    0    0  501 -0.00000000000E+00  0.00000000000E+00  0.73072744568E+03  0.73072744569E+03  0.50400000000E-02 0.  1.
          1   -1    0    0  501    0  0.00000000000E+00 -0.00000000000E+00 -0.18690059086E+04  0.18690059086E+04  0.50400000000E-02 0. -1.
    8880023    1    1    2    0    0  0.84758144470E+03 -0.85822612706E+02  0.10815657531E+03  0.10822513004E+04  0.65864270000E+03 0.  0.
    8880022    1    1    2    0    0 -0.84758144470E+03  0.85822612706E+02 -0.12464350382E+04  0.15174820538E+04  0.15294330000E+03 0.  0.
<mgrwt>
<rscale>  0 0.10196064E+04</rscale>
<asrwt>0</asrwt>
<pdfrwt beam="1">  1        1 0.28753937E+00 0.10768333E+04</pdfrwt>
<pdfrwt beam="2">  1       -1 0.11241961E+00 0.10768333E+04</pdfrwt>
<totfact> 0.26480751E+00</totfact>
</mgrwt>
</event>
<event>
 4    5  0.7767175E-008  0.8625811E+03  0.7818608E-02  0.9588989E-01
          1   -1    0    0  501    0  0.00000000000E+00  0.00000000000E+00  0.53395435322E+03  0.53395435324E+03  0.50400000000E-02 0. -1.
         -1   -1    0    0    0  501 -0.00000000000E+00 -0.00000000000E+00 -0.22740090935E+04  0.22740090935E+04  0.50400000000E-02 0.  1.
    8880023    1    1    2    0    0  0.45037362939E+03 -0.32771861474E+03 -0.19973451275E+04  0.21756455734E+04  0.65864270000E+03 0.  0.
    8880022    1    1    2    0    0 -0.45037362939E+03  0.32771861474E+03  0.25729038726E+03  0.63231787330E+03  0.15294330000E+03 0. -1.
<mgrwt>
<rscale>  0 0.78029295E+03</rscale>
<asrwt>0</asrwt>
<pdfrwt beam="1">  1        1 0.82146825E-01 0.86258107E+03</pdfrwt>
<pdfrwt beam="2">  1       -1 0.34984755E+00 0.86258107E+03</pdfrwt>
<totfact> 0.65703886E-01</totfact>
</mgrwt>
</event>
<event>
 4    5  0.7767175E-008  0.7411709E+03  0.7818608E-02  0.9856549E-01
         -1   -1    0    0    0  501 -0.00000000000E+00  0.00000000000E+00  0.25502278772E+03  0.25502278777E+03  0.50400000000E-02 0.  1.
          1   -1    0    0  501    0  0.00000000000E+00 -0.00000000000E+00 -0.24178143007E+04  0.24178143008E+04  0.50400000000E-02 0. -1.
    8880023    1    1    2    0    0 -0.30195196815E+03  0.15604189580E+03 -0.34554457890E+03  0.81776239005E+03  0.65864270000E+03 0.  1.
    8880022    1    1    2    0    0  0.30195196815E+03 -0.15604189580E+03 -0.18172469341E+04  0.18550746985E+04  0.15294330000E+03 0.  0.
<mgrwt>
<rscale>  0 0.62414096E+03</rscale>
<asrwt>0</asrwt>
<pdfrwt beam="1">  1        1 0.37197142E+00 0.74117088E+03</pdfrwt>
<pdfrwt beam="2">  1       -1 0.39234277E-01 0.74117088E+03</pdfrwt>
<totfact> 0.10267148E+01</totfact>
</mgrwt>
</event>
<event>
 4    5  0.7767175E-008  0.9085904E+03  0.7818608E-02  0.9512380E-01
          1   -1    0    0  501    0  0.00000000000E+00  0.00000000000E+00  0.17073096576E+04  0.17073096576E+04  0.50400000000E-02 0. -1.
         -1   -1    0    0    0  501 -0.00000000000E+00 -0.00000000000E+00 -0.88016399089E+03  0.88016399091E+03  0.50400000000E-02 0.  1.
    8880023    1    1    2    0    0 -0.62491834646E+03  0.34689648875E+02 -0.55348940801E+03  0.10639018012E+04  0.65864270000E+03 0.  0.
    8880022    1    1    2    0    0  0.62491834646E+03 -0.34689648875E+02  0.13806350747E+04  0.15235718473E+04  0.15294330000E+03 0.  0.
<mgrwt>
<rscale>  0 0.83377247E+03</rscale>
<asrwt>0</asrwt>
<pdfrwt beam="1">  1        1 0.26266302E+00 0.90859040E+03</pdfrwt>
<pdfrwt beam="2">  1       -1 0.13540985E+00 0.90859040E+03</pdfrwt>
<totfact> 0.21988702E+00</totfact>
</mgrwt>
</event>
<event>
 4    5  0.7767175E-008  0.6844546E+03  0.7818608E-02  0.1006908E+00
         -1   -1    0    0    0  501 -0.00000000000E+00  0.00000000000E+00  0.38336084487E+03  0.38336084490E+03  0.50400000000E-02 0.  1.
          1   -1    0    0  501    0  0.00000000000E+00 -0.00000000000E+00 -0.14439136366E+04  0.14439136366E+04  0.50400000000E-02 0. -1.
    8880023    1    1    2    0    0  0.17991645866E+03  0.47936649720E+02  0.54370697965E+02  0.68661068557E+03  0.65864270000E+03 0.  1.
    8880022    1    1    2    0    0 -0.17991645866E+03 -0.47936649720E+02 -0.11149234897E+04  0.11406637960E+04  0.15294330000E+03 0.  0.
<mgrwt>
<rscale>  0 0.52722093E+03</rscale>
<asrwt>0</asrwt>
<pdfrwt beam="1">  1        1 0.22214056E+00 0.68445457E+03</pdfrwt>
<pdfrwt beam="2">  1       -1 0.58978592E-01 0.68445457E+03</pdfrwt>
<totfact> 0.21744642E+01</totfact>
</mgrwt>
</event>
<event>
 4    5  0.7767175E-008  0.7484066E+03  0.7818608E-02  0.9836103E-01
         -1   -1    0    0    0  501 -0.00000000000E+00  0.00000000000E+00  0.62188323942E+03  0.62188323944E+03  0.50400000000E-02 0.  1.
          1   -1    0    0  501    0  0.00000000000E+00 -0.00000000000E+00 -0.10210144260E+04  0.10210144260E+04  0.50400000000E-02 0. -1.
    8880023    1    1    2    0    0  0.34693732877E+03  0.77050604458E+02  0.32964317970E+03  0.81778795413E+03  0.65864270000E+03 0.  0.
    8880022    1    1    2    0    0 -0.34693732877E+03 -0.77050604458E+02 -0.72877436628E+03  0.82510971131E+03  0.15294330000E+03 0. -1.
<mgrwt>
<rscale>  0 0.63460540E+03</rscale>
<asrwt>0</asrwt>
<pdfrwt beam="1">  1        1 0.15707914E+00 0.74840665E+03</pdfrwt>
<pdfrwt beam="2">  1       -1 0.95674345E-01 0.74840665E+03</pdfrwt>
<totfact> 0.15826772E+01</totfact>
</mgrwt>
</event>
<event>
 4    5  0.7767175E-008  0.1736084E+04  0.7818608E-02  0.8758741E-01
          1   -1    0    0  501    0  0.00000000000E+00  0.00000000000E+00  0.20705376734E+04  0.20705376734E+04  0.50400000000E-02 0. -1.
         -1   -1    0    0    0  501 -0.00000000000E+00 -0.00000000000E+00 -0.15056536112E+04  0.15056536113E+04  0.50400000000E-02 0.  1.
    8880023    1    1    2    0    0 -0.10615515754E+04 -0.12055236652E+04 -0.27403242673E+03  0.17575787413E+04  0.65864270000E+03 0.  0.
    8880022    1    1    2    0    0  0.10615515754E+04  0.12055236652E+04  0.83891648890E+03  0.18186125434E+04  0.15294330000E+03 0.  0.
<mgrwt>
<rscale>  0 0.17046072E+04</rscale>
<asrwt>0</asrwt>
<pdfrwt beam="1">  1        1 0.31854426E+00 0.17360845E+04</pdfrwt>
<pdfrwt beam="2">  1       -1 0.23163902E+00 0.17360845E+04</pdfrwt>
<totfact> 0.22594069E-01</totfact>
</mgrwt>
</event>
<event>
 4    5  0.7767175E-008  0.7389958E+03  0.7818608E-02  0.9862882E-01
         -1   -1    0    0    0  501 -0.00000000000E+00  0.00000000000E+00  0.10717216926E+04  0.10717216926E+04  0.50400000000E-02 0.  1.
          1   -1    0    0  501    0  0.00000000000E+00 -0.00000000000E+00 -0.56345261785E+03  0.56345261787E+03  0.50400000000E-02 0. -1.
    8880023    1    1    2    0    0 -0.19390942403E+03  0.27331991984E+03  0.85443406940E+03  0.11296780198E+04  0.65864270000E+03 0.  1.
    8880022    1    1    2    0    0  0.19390942403E+03 -0.27331991984E+03 -0.34616499465E+03  0.50549629064E+03  0.15294330000E+03 0.  0.
<mgrwt>
<rscale>  0 0.62094408E+03</rscale>
<asrwt>0</asrwt>
<pdfrwt beam="1">  1        1 0.86685019E-01 0.73899584E+03</pdfrwt>
<pdfrwt beam="2">  1       -1 0.16488026E+00 0.73899584E+03</pdfrwt>
<totfact> 0.10385136E+01</totfact>
</mgrwt>
</event>
<event>
 4    5  0.7767175E-008  0.6814707E+03  0.7818608E-02  0.1008504E+00
          1   -1    0    0  501    0  0.00000000000E+00  0.00000000000E+00  0.21582797671E+03  0.21582797677E+03  0.50400000000E-02 0. -1.
         -1   -1    0    0    0  501 -0.00000000000E+00 -0.00000000000E+00 -0.12428151005E+04  0.12428151005E+04  0.50400000000E-02 0.  1.
    8880023    1    1    2    0    0 -0.17455072321E+03 -0.11145310971E+02 -0.10193624610E+04  0.12261738074E+04  0.65864270000E+03 0.  1.
    8880022    1    1    2    0    0  0.17455072321E+03  0.11145310971E+02 -0.76246628289E+01  0.23246926986E+03  0.15294330000E+03 0. -1.
<mgrwt>
<rscale>  0 0.52073692E+03</rscale>
<asrwt>0</asrwt>
<pdfrwt beam="1">  1        1 0.33204305E-01 0.68147075E+03</pdfrwt>
<pdfrwt beam="2">  1       -1 0.19120232E+00 0.68147075E+03</pdfrwt>
<totfact> 0.24087002E+01</totfact>
</mgrwt>
</event>
<event>
 4    5  0.7767175E-008  0.7994013E+03  0.7818608E-02  0.9712092E-01
         -1   -1    0    0    0  501 -0.00000000000E+00  0.00000000000E+00  0.54396177113E+03  0.54396177115E+03  0.50400000000E-02 0.  1.
          1   -1    0    0  501    0  0.00000000000E+00 -0.00000000000E+00 -0.17247201529E+04  0.17247201529E+04  0.50400000000E-02 0. -1.
    8880023    1    1    2    0    0  0.62494064625E+02  0.44869438887E+03  0.18595303209E+03  0.82074411306E+03  0.65864270000E+03 0.  0.
    8880022    1    1    2    0    0 -0.62494064625E+02 -0.44869438887E+03 -0.13667114138E+04  0.14479378110E+04  0.15294330000E+03 0. -1.
<mgrwt>
<rscale>  0 0.70301372E+03</rscale>
<asrwt>0</asrwt>
<pdfrwt beam="1">  1        1 0.26534156E+00 0.79940126E+03</pdfrwt>
<pdfrwt beam="2">  1       -1 0.83686427E-01 0.79940126E+03</pdfrwt>
<totfact> 0.67236492E+00</totfact>
</mgrwt>
</event>
<event>
 4    5  0.7767175E-008  0.8503579E+03  0.7818608E-02  0.9610950E-01
         -1   -1    0    0    0  501 -0.00000000000E+00  0.00000000000E+00  0.12163194217E+04  0.12163194217E+04  0.50400000000E-02 0.  1.
          1   -1    0    0  501    0  0.00000000000E+00 -0.00000000000E+00 -0.10882798420E+04  0.10882798420E+04  0.50400000000E-02 0. -1.
    8880023    1    1    2    0    0 -0.44033247464E+03 -0.30887813574E+03  0.97245852121E+03  0.12918142950E+04  0.65864270000E+03 0.  1.
    8880022    1    1    2    0    0  0.44033247464E+03  0.30887813574E+03 -0.84441894150E+03  0.10127849687E+04  0.15294330000E+03 0.  0.
<mgrwt>
<rscale>  0 0.76575630E+03</rscale>
<asrwt>0</asrwt>
<pdfrwt beam="1">  1        1 0.16742767E+00 0.85035792E+03</pdfrwt>
<pdfrwt beam="2">  1       -1 0.18712607E+00 0.85035792E+03</pdfrwt>
<totfact> 0.24562447E+00</totfact>
</mgrwt>
</event>
<event>
 4    5  0.7767175E-008  0.7465899E+03  0.7818608E-02  0.9841151E-01
          1   -1    0    0  501    0  0.00000000000E+00  0.00000000000E+00  0.29497938715E+04  0.29497938715E+04  0.50400000000E-02 0. -1.
         -1   -1    0    0    0  501 -0.00000000000E+00 -0.00000000000E+00 -0.90558093127E+03  0.90558093128E+03  0.50400000000E-02 0.  1.
    8880023    1    1    2    0    0 -0.34791366141E+03 -0.50421467248E+02 -0.73628202261E+03  0.10485741096E+04  0.65864270000E+03 0.  0.
    8880022    1    1    2    0    0  0.34791366141E+03  0.50421467248E+02  0.27804949628E+04  0.28068006932E+04  0.15294330000E+03 0.  0.
<mgrwt>
<rscale>  0 0.63200145E+03</rscale>
<asrwt>0</asrwt>
<pdfrwt beam="1">  1        1 0.45381445E+00 0.74658988E+03</pdfrwt>
<pdfrwt beam="2">  1       -1 0.13932014E+00 0.74658988E+03</pdfrwt>
<totfact> 0.29951115E-01</totfact>
</mgrwt>
</event>
<event>
 4    5  0.7767175E-008  0.6719437E+03  0.7818608E-02  0.1014306E+00
         -1   -1    0    0    0  501 -0.00000000000E+00  0.00000000000E+00  0.43192460385E+03  0.43192460388E+03  0.50400000000E-02 0.  1.
          1   -1    0    0  501    0  0.00000000000E+00 -0.00000000000E+00 -0.14475475645E+04  0.14475475646E+04  0.50400000000E-02 0. -1.
    8880023    1    1    2    0    0  0.11142605112E+03  0.72679870462E+02  0.15651852195E+03  0.68993215783E+03  0.65864270000E+03 0.  0.
    8880022    1    1    2    0    0 -0.11142605112E+03 -0.72679870462E+02 -0.11721414827E+04  0.11895400106E+04  0.15294330000E+03 0.  0.
<mgrwt>
<rscale>  0 0.49798515E+03</rscale>
<asrwt>0</asrwt>
<pdfrwt beam="1">  1        1 0.22269962E+00 0.67194370E+03</pdfrwt>
<pdfrwt beam="2">  1       -1 0.66449940E-01 0.67194370E+03</pdfrwt>
<totfact> 0.17089065E+01</totfact>
</mgrwt>
</event>
<event>
 4    5  0.7767175E-008  0.8412532E+03  0.7818608E-02  0.9627822E-01
         -1   -1    0    0    0  501 -0.00000000000E+00  0.00000000000E+00  0.38966505659E+03  0.38966505662E+03  0.50400000000E-02 0.  1.
          1   -1    0    0  501    0  0.00000000000E+00 -0.00000000000E+00 -0.28202963235E+04  0.28202963235E+04  0.50400000000E-02 0. -1.
    8880023    1    1    2    0    0 -0.26847086027E+02 -0.52266233252E+03 -0.13690421111E+03  0.85232015648E+03  0.65864270000E+03 0.  1.
    8880022    1    1    2    0    0  0.26847086027E+02  0.52266233252E+03 -0.22937270558E+04  0.23576412236E+04  0.15294330000E+03 0.  0.
<mgrwt>
<rscale>  0 0.75481803E+03</rscale>
<asrwt>0</asrwt>
<pdfrwt beam="1">  1        1 0.43389173E+00 0.84125316E+03</pdfrwt>
<pdfrwt beam="2">  1       -1 0.59948472E-01 0.84125316E+03</pdfrwt>
<totfact> 0.23906222E+00</totfact>
</mgrwt>
</event>
<event>
 4    5  0.7767175E-008  0.1256886E+04  0.7818608E-02  0.9103716E-01
         -1   -1    0    0    0  501 -0.00000000000E+00  0.00000000000E+00  0.31598778201E+04  0.31598778201E+04  0.50400000000E-02 0.  1.
          1   -1    0    0  501    0  0.00000000000E+00 -0.00000000000E+00 -0.60955325774E+03  0.60955325776E+03  0.50400000000E-02 0. -1.
    8880023    1    1    2    0    0  0.22038345590E+03 -0.10475600791E+04  0.23566359892E+04  0.26708602320E+04  0.65864270000E+03 0.  1.
    8880022    1    1    2    0    0 -0.22038345590E+03  0.10475600791E+04  0.19368857317E+03  0.10985708459E+04  0.15294330000E+03 0.  0.
<mgrwt>
<rscale>  0 0.12104992E+04</rscale>
<asrwt>0</asrwt>
<pdfrwt beam="1">  1        1 0.93777422E-01 0.12568855E+04</pdfrwt>
<pdfrwt beam="2">  1       -1 0.48613506E+00 0.12568855E+04</pdfrwt>
<totfact> 0.60487558E-02</totfact>
</mgrwt>
</event>
<event>
 4    5  0.7767175E-008  0.7221101E+03  0.7818608E-02  0.9915510E-01
         -1   -1    0    0    0  501 -0.00000000000E+00  0.00000000000E+00  0.24247503448E+03  0.24247503454E+03  0.50400000000E-02 0.  1.
          1   -1    0    0  501    0  0.00000000000E+00 -0.00000000000E+00 -0.13158787724E+04  0.13158787724E+04  0.50400000000E-02 0. -1.
    8880023    1    1    2    0    0 -0.55787631545E+02  0.29072406268E+03 -0.97039665682E+03  0.12095919222E+04  0.65864270000E+03 0.  0.
    8880022    1    1    2    0    0  0.55787631545E+02 -0.29072406268E+03 -0.10300708107E+03  0.34876188470E+03  0.15294330000E+03 0.  0.
<mgrwt>
<rscale>  0 0.59515468E+03</rscale>
<asrwt>0</asrwt>
<pdfrwt beam="1">  1        1 0.20244288E+00 0.72211007E+03</pdfrwt>
<pdfrwt beam="2">  1       -1 0.37303852E-01 0.72211007E+03</pdfrwt>
<totfact> 0.62634244E+01</totfact>
</mgrwt>
</event>
<event>
 4    5  0.7767175E-008  0.8728865E+03  0.7818608E-02  0.9571039E-01
         -1   -1    0    0    0  501 -0.00000000000E+00  0.00000000000E+00  0.47860685246E+03  0.47860685249E+03  0.50400000000E-02 0.  1.
          1   -1    0    0  501    0  0.00000000000E+00 -0.00000000000E+00 -0.17125618625E+04  0.17125618625E+04  0.50400000000E-02 0. -1.
    8880023    1    1    2    0    0  0.29077091100E+03  0.49353113346E+03 -0.58728941824E+02  0.87485998723E+03  0.65864270000E+03 0.  1.
    8880022    1    1    2    0    0 -0.29077091100E+03 -0.49353113346E+03 -0.11752260682E+04  0.13163087277E+04  0.15294330000E+03 0.  0.
<mgrwt>
<rscale>  0 0.79243002E+03</rscale>
<asrwt>0</asrwt>
<pdfrwt beam="1">  1        1 0.26347105E+00 0.87288654E+03</pdfrwt>
<pdfrwt beam="2">  1       -1 0.73631824E-01 0.87288654E+03</pdfrwt>
<totfact> 0.88890507E+00</totfact>
</mgrwt>
</event>
<event>
 4    5  0.7767175E-008  0.1059902E+04  0.7818608E-02  0.9307072E-01
         -1   -1    0    0    0  501 -0.00000000000E+00  0.00000000000E+00  0.18324571003E+04  0.18324571003E+04  0.50400000000E-02 0.  1.
          1   -1    0    0  501    0  0.00000000000E+00 -0.00000000000E+00 -0.12001159701E+04  0.12001159701E+04  0.50400000000E-02 0. -1.
    8880023    1    1    2    0    0  0.77833892781E+03  0.28943044678E+03  0.14903229659E+04  0.18287849024E+04  0.65864270000E+03 0.  0.
    8880022    1    1    2    0    0 -0.77833892781E+03 -0.28943044678E+03 -0.85798183574E+03  0.12037881681E+04  0.15294330000E+03 0.  0.
<mgrwt>
<rscale>  0 0.10013441E+04</rscale>
<asrwt>0</asrwt>
<pdfrwt beam="1">  1        1 0.18463323E+00 0.10599017E+04</pdfrwt>
<pdfrwt beam="2">  1       -1 0.28191648E+00 0.10599017E+04</pdfrwt>
<totfact> 0.46349887E-01</totfact>
</mgrwt>
</event>
<event>
 4    5  0.7850189E-008  0.1111344E+04  0.7818608E-02  0.9248530E-01
         -1   -1    0    0    0  501 -0.00000000000E+00  0.00000000000E+00  0.24875834930E+04  0.24875834930E+04  0.50400000000E-02 0.  1.
          1   -1    0    0  501    0  0.00000000000E+00 -0.00000000000E+00 -0.14312840466E+04  0.14312840466E+04  0.50400000000E-02 0. -1.
    8880023    1    1    2    0    0  0.82576557418E+02 -0.89132251219E+03  0.21962486582E+04  0.24614209481E+04  0.65864270000E+03 0.  1.
    8880022    1    1    2    0    0 -0.82576557418E+02  0.89132251219E+03 -0.11399492118E+04  0.14574465915E+04  0.15294330000E+03 0.  0.
<mgrwt>
<rscale>  0 0.10566255E+04</rscale>
<asrwt>0</asrwt>
<pdfrwt beam="1">  1        1 0.22019755E+00 0.11113437E+04</pdfrwt>
<pdfrwt beam="2">  1       -1 0.38270515E+00 0.11113437E+04</pdfrwt>
<totfact> 0.68874002E-02</totfact>
</mgrwt>
</event>
<event>
 4    5  0.7767175E-008  0.1443082E+04  0.7818608E-02  0.8950910E-01
         -1   -1    0    0    0  501 -0.00000000000E+00  0.00000000000E+00  0.17471212738E+04  0.17471212738E+04  0.50400000000E-02 0.  1.
          1   -1    0    0  501    0  0.00000000000E+00 -0.00000000000E+00 -0.22708653041E+04  0.22708653041E+04  0.50400000000E-02 0. -1.
    8880023    1    1    2    0    0  0.33434140029E+03 -0.12397144252E+04 -0.17277633586E+04  0.22511446994E+04  0.65864270000E+03 0.  0.
    8880022    1    1    2    0    0 -0.33434140029E+03  0.12397144252E+04  0.12040193282E+04  0.17668418785E+04  0.15294330000E+03 0.  0.
<mgrwt>
<rscale>  0 0.14040256E+04</rscale>
<asrwt>0</asrwt>
<pdfrwt beam="1">  1        1 0.34936389E+00 0.14430822E+04</pdfrwt>
<pdfrwt beam="2">  1       -1 0.26878789E+00 0.14430822E+04</pdfrwt>
<totfact> 0.97428223E-02</totfact>
</mgrwt>
</event>
<event>
 4    5  0.7767175E-008  0.9148024E+03  0.7818608E-02  0.9502675E-01
         -1   -1    0    0    0  501 -0.00000000000E+00  0.00000000000E+00  0.91117687112E+03  0.91117687113E+03  0.50400000000E-02 0.  1.
          1   -1    0    0  501    0  0.00000000000E+00 -0.00000000000E+00 -0.11750720401E+04  0.11750720401E+04  0.50400000000E-02 0. -1.
    8880023    1    1    2    0    0 -0.37199291728E+03 -0.51446529399E+03  0.53081582083E+03  0.10576525475E+04  0.65864270000E+03 0.  0.
    8880022    1    1    2    0    0  0.37199291728E+03  0.51446529399E+03 -0.79471098980E+03  0.10285963638E+04  0.15294330000E+03 0.  0.
<mgrwt>
<rscale>  0 0.84086901E+03</rscale>
<asrwt>0</asrwt>
<pdfrwt beam="1">  1        1 0.18078031E+00 0.91480242E+03</pdfrwt>
<pdfrwt beam="2">  1       -1 0.14018106E+00 0.91480242E+03</pdfrwt>
<totfact> 0.47206067E+00</totfact>
</mgrwt>
</event>
<event>
 4    5  0.7767175E-008  0.1015357E+04  0.7818608E-02  0.9361736E-01
         -1   -1    0    0    0  501 -0.00000000000E+00  0.00000000000E+00  0.58232701023E+03  0.58232701025E+03  0.50400000000E-02 0.  1.
          1   -1    0    0  501    0  0.00000000000E+00 -0.00000000000E+00 -0.19144221952E+04  0.19144221952E+04  0.50400000000E-02 0. -1.
    8880023    1    1    2    0    0 -0.21303971492E+03 -0.74280124076E+03 -0.81350507653E+02  0.10186106787E+04  0.65864270000E+03 0.  1.
    8880022    1    1    2    0    0  0.21303971492E+03  0.74280124076E+03 -0.12507446773E+04  0.14781385268E+04  0.15294330000E+03 0.  0.
<mgrwt>
<rscale>  0 0.95292677E+03</rscale>
<asrwt>0</asrwt>
<pdfrwt beam="1">  1        1 0.29452649E+00 0.10153570E+04</pdfrwt>
<pdfrwt beam="2">  1       -1 0.89588772E-01 0.10153570E+04</pdfrwt>
<totfact> 0.41905417E+00</totfact>
</mgrwt>
</event>
<event>
 4    5  0.7767175E-008  0.9342458E+03  0.7818608E-02  0.9473153E-01
         -1   -1    0    0    0  501 -0.00000000000E+00  0.00000000000E+00  0.71897414745E+03  0.71897414747E+03  0.50400000000E-02 0.  1.
          1   -1    0    0  501    0  0.00000000000E+00 -0.00000000000E+00 -0.12863174072E+04  0.12863174072E+04  0.50400000000E-02 0. -1.
    8880023    1    1    2    0    0 -0.53754689173E+03 -0.38736066566E+03  0.22520648071E+03  0.96100630140E+03  0.65864270000E+03 0.  0.
    8880022    1    1    2    0    0  0.53754689173E+03  0.38736066566E+03 -0.79254974047E+03  0.10442852533E+04  0.15294330000E+03 0.  0.
<mgrwt>
<rscale>  0 0.86292427E+03</rscale>
<asrwt>0</asrwt>
<pdfrwt beam="1">  1        1 0.19789499E+00 0.93424577E+03</pdfrwt>
<pdfrwt beam="2">  1       -1 0.11061141E+00 0.93424577E+03</pdfrwt>
<totfact> 0.70502551E+00</totfact>
</mgrwt>
</event>
<event>
 4    5  0.7767175E-008  0.7641066E+03  0.7818608E-02  0.9794590E-01
          1   -1    0    0  501    0  0.00000000000E+00  0.00000000000E+00  0.48245104345E+03  0.48245104347E+03  0.50400000000E-02 0. -1.
         -1   -1    0    0    0  501 -0.00000000000E+00 -0.00000000000E+00 -0.75789089294E+03  0.75789089295E+03  0.50400000000E-02 0.  1.
    8880023    1    1    2    0    0 -0.38060755136E+03  0.72017442724E+02 -0.30523322547E+03  0.82281598696E+03  0.65864270000E+03 0. -1.
    8880022    1    1    2    0    0  0.38060755136E+03 -0.72017442724E+02  0.29793375984E+02  0.41752594946E+03  0.15294330000E+03 0.  0.
<mgrwt>
<rscale>  0 0.65653697E+03</rscale>
<asrwt>0</asrwt>
<pdfrwt beam="1">  1        1 0.74223238E-01 0.76410655E+03</pdfrwt>
<pdfrwt beam="2">  1       -1 0.11659860E+00 0.76410655E+03</pdfrwt>
<totfact> 0.31599060E+01</totfact>
</mgrwt>
</event>
<event>
 4    5  0.7767175E-008  0.2347034E+04  0.7818608E-02  0.8468351E-01
         -1   -1    0    0    0  501 -0.00000000000E+00  0.00000000000E+00  0.13858494923E+04  0.13858494923E+04  0.50400000000E-02 0.  1.
          1   -1    0    0  501    0  0.00000000000E+00 -0.00000000000E+00 -0.39286678962E+04  0.39286678962E+04  0.50400000000E-02 0. -1.
    8880023    1    1    2    0    0  0.21630008123E+04 -0.62943368388E+03 -0.86454831514E+03  0.25012023653E+04  0.65864270000E+03 0.  0.
    8880022    1    1    2    0    0 -0.21630008123E+04  0.62943368388E+03 -0.16782700888E+04  0.28133150233E+04  0.15294330000E+03 0.  0.
<mgrwt>
<rscale>  0 0.23244283E+04</rscale>
<asrwt>0</asrwt>
<pdfrwt beam="1">  1        1 0.60441044E+00 0.23470342E+04</pdfrwt>
<pdfrwt beam="2">  1       -1 0.21320762E+00 0.23470342E+04</pdfrwt>
<totfact> 0.11664955E-02</totfact>
</mgrwt>
</event>
<event>
 4    5  0.7767175E-008  0.1142989E+04  0.7818608E-02  0.9214637E-01
          1   -1    0    0  501    0  0.00000000000E+00  0.00000000000E+00  0.17804279996E+04  0.17804279996E+04  0.50400000000E-02 0. -1.
         -1   -1    0    0    0  501 -0.00000000000E+00 -0.00000000000E+00 -0.10589927234E+04  0.10589927234E+04  0.50400000000E-02 0.  1.
    8880023    1    1    2    0    0 -0.85795824929E+03 -0.36948934614E+03 -0.53852953305E+03  0.12635026706E+04  0.65864270000E+03 0.  0.
    8880022    1    1    2    0    0  0.85795824929E+03  0.36948934614E+03  0.12599648092E+04  0.15759180524E+04  0.15294330000E+03 0.  0.
<mgrwt>
<rscale>  0 0.10903616E+04</rscale>
<asrwt>0</asrwt>
<pdfrwt beam="1">  1        1 0.27391200E+00 0.11429895E+04</pdfrwt>
<pdfrwt beam="2">  1       -1 0.16292196E+00 0.11429895E+04</pdfrwt>
<totfact> 0.11533917E+00</totfact>
</mgrwt>
</event>
<event>
 4    5  0.7767175E-008  0.9069086E+03  0.7818608E-02  0.9515031E-01
         -1   -1    0    0    0  501 -0.00000000000E+00  0.00000000000E+00  0.40367754268E+03  0.40367754271E+03  0.50400000000E-02 0.  1.
          1   -1    0    0  501    0  0.00000000000E+00 -0.00000000000E+00 -0.18690505367E+04  0.18690505368E+04  0.50400000000E-02 0. -1.
    8880023    1    1    2    0    0  0.60514583174E+03 -0.14990505455E+03 -0.32366624711E+03  0.96293460257E+03  0.65864270000E+03 0.  1.
    8880022    1    1    2    0    0 -0.60514583174E+03  0.14990505455E+03 -0.11417067470E+04  0.13097934769E+04  0.15294330000E+03 0. -1.
<mgrwt>
<rscale>  0 0.83184672E+03</rscale>
<asrwt>0</asrwt>
<pdfrwt beam="1">  1        1 0.28754623E+00 0.90690860E+03</pdfrwt>
<pdfrwt beam="2">  1       -1 0.62104239E-01 0.90690860E+03</pdfrwt>
<totfact> 0.98195101E+00</totfact>
</mgrwt>
</event>
<event>
 4    5  0.7767175E-008  0.1157800E+04  0.7818608E-02  0.9199276E-01
          1   -1    0    0  501    0  0.00000000000E+00  0.00000000000E+00  0.28397600566E+04  0.28397600566E+04  0.50400000000E-02 0. -1.
         -1   -1    0    0    0  501 -0.00000000000E+00 -0.00000000000E+00 -0.45642867339E+03  0.45642867342E+03  0.50400000000E-02 0.  1.
    8880023    1    1    2    0    0 -0.81493801268E+03 -0.49251166325E+03  0.69092762076E+03  0.13482888735E+04  0.65864270000E+03 0.  0.
    8880022    1    1    2    0    0  0.81493801268E+03  0.49251166325E+03  0.16924037624E+04  0.19478998565E+04  0.15294330000E+03 0.  0.
<mgrwt>
<rscale>  0 0.11060901E+04</rscale>
<asrwt>0</asrwt>
<pdfrwt beam="1">  1        1 0.43688617E+00 0.11578005E+04</pdfrwt>
<pdfrwt beam="2">  1       -1 0.70219795E-01 0.11578005E+04</pdfrwt>
<totfact> 0.16037287E+00</totfact>
</mgrwt>
</event>
<event>
 4    5  0.7767175E-008  0.1061518E+04  0.7818608E-02  0.9305162E-01
          1   -1    0    0  501    0  0.00000000000E+00  0.00000000000E+00  0.14138575811E+04  0.14138575812E+04  0.50400000000E-02 0. -1.
         -1   -1    0    0    0  501 -0.00000000000E+00 -0.00000000000E+00 -0.13999196376E+04  0.13999196376E+04  0.50400000000E-02 0.  1.
    8880023    1    1    2    0    0 -0.29139804170E+03  0.77980612832E+03 -0.10236987005E+04  0.14747134135E+04  0.65864270000E+03 0.  0.
    8880022    1    1    2    0    0  0.29139804170E+03 -0.77980612832E+03  0.10376366440E+04  0.13390638052E+04  0.15294330000E+03 0.  0.
<mgrwt>
<rscale>  0 0.10030906E+04</rscale>
<asrwt>0</asrwt>
<pdfrwt beam="1">  1        1 0.21751655E+00 0.10615181E+04</pdfrwt>
<pdfrwt beam="2">  1       -1 0.21537225E+00 0.10615181E+04</pdfrwt>
<totfact> 0.88668001E-01</totfact>
</mgrwt>
</event>
<event>
 4    5  0.7767175E-008  0.1183464E+04  0.7818608E-02  0.9173367E-01
         -1   -1    0    0    0  501 -0.00000000000E+00  0.00000000000E+00  0.14330091454E+04  0.14330091454E+04  0.50400000000E-02 0.  1.
          1   -1    0    0  501    0  0.00000000000E+00 -0.00000000000E+00 -0.15896081594E+04  0.15896081594E+04  0.50400000000E-02 0. -1.
    8880023    1    1    2    0    0  0.77233085777E+03  0.60850708228E+03  0.96224926952E+03  0.15252900334E+04  0.65864270000E+03 0.  1.
    8880022    1    1    2    0    0 -0.77233085777E+03 -0.60850708228E+03 -0.11188482835E+04  0.14973272714E+04  0.15294330000E+03 0.  0.
<mgrwt>
<rscale>  0 0.11332605E+04</rscale>
<asrwt>0</asrwt>
<pdfrwt beam="1">  1        1 0.24455510E+00 0.11834636E+04</pdfrwt>
<pdfrwt beam="2">  1       -1 0.22046295E+00 0.11834636E+04</pdfrwt>
<totfact> 0.60892880E-01</totfact>
</mgrwt>
</event>
<event>
 4    5  0.7767175E-008  0.9908528E+03  0.7818608E-02  0.9393624E-01
          1   -1    0    0  501    0  0.00000000000E+00  0.00000000000E+00  0.69170090806E+03  0.69170090808E+03  0.50400000000E-02 0. -1.
         -1   -1    0    0    0  501 -0.00000000000E+00 -0.00000000000E+00 -0.15003384625E+04  0.15003384625E+04  0.50400000000E-02 0.  1.
    8880023    1    1    2    0    0 -0.57633275120E+03 -0.46456387452E+03 -0.10047336642E+04  0.14111268461E+04  0.65864270000E+03 0.  1.
    8880022    1    1    2    0    0  0.57633275120E+03  0.46456387452E+03  0.19609610973E+03  0.78091252448E+03  0.15294330000E+03 0.  0.
<mgrwt>
<rscale>  0 0.92602262E+03</rscale>
<asrwt>0</asrwt>
<pdfrwt beam="1">  1        1 0.10641552E+00 0.99085278E+03</pdfrwt>
<pdfrwt beam="2">  1       -1 0.23082130E+00 0.99085278E+03</pdfrwt>
<totfact> 0.26052442E+00</totfact>
</mgrwt>
</event>
<event>
 4    5  0.7767175E-008  0.1289832E+04  0.7818608E-02  0.9074391E-01
          1   -1    0    0  501    0  0.00000000000E+00  0.00000000000E+00  0.15036227045E+04  0.15036227045E+04  0.50400000000E-02 0. -1.
         -1   -1    0    0    0  501 -0.00000000000E+00 -0.00000000000E+00 -0.16182658518E+04  0.16182658518E+04  0.50400000000E-02 0.  1.
    8880023    1    1    2    0    0 -0.64432099934E+03 -0.90261095194E+03 -0.10499169623E+04  0.16631271493E+04  0.65864270000E+03 0. -1.
    8880022    1    1    2    0    0  0.64432099934E+03  0.90261095194E+03  0.93527381498E+03  0.14587614071E+04  0.15294330000E+03 0.  0.
<mgrwt>
<rscale>  0 0.12449573E+04</rscale>
<asrwt>0</asrwt>
<pdfrwt beam="1">  1        1 0.23132657E+00 0.12898319E+04</pdfrwt>
<pdfrwt beam="2">  1       -1 0.24896398E+00 0.12898319E+04</pdfrwt>
<totfact> 0.44646405E-01</totfact>
</mgrwt>
</event>
<event>
 4    5  0.7767175E-008  0.7820020E+03  0.7818608E-02  0.9751155E-01
          1   -1    0    0  501    0  0.00000000000E+00  0.00000000000E+00  0.41470295979E+03  0.41470295982E+03  0.50400000000E-02 0. -1.
         -1   -1    0    0    0  501 -0.00000000000E+00 -0.00000000000E+00 -0.10538036128E+04  0.10538036128E+04  0.50400000000E-02 0.  1.
    8880023    1    1    2    0    0 -0.41839583126E+03 -0.51593741044E+02 -0.65455509358E+03  0.10197889794E+04  0.65864270000E+03 0.  1.
    8880022    1    1    2    0    0  0.41839583126E+03  0.51593741044E+02  0.15454440546E+02  0.44871759324E+03  0.15294330000E+03 0.  0.
<mgrwt>
<rscale>  0 0.68051038E+03</rscale>
<asrwt>0</asrwt>
<pdfrwt beam="1">  1        1 0.63800456E-01 0.78200204E+03</pdfrwt>
<pdfrwt beam="2">  1       -1 0.16212363E+00 0.78200204E+03</pdfrwt>
<totfact> 0.16481028E+01</totfact>
</mgrwt>
</event>
<event>
 4    5  0.7767175E-008  0.6776165E+03  0.7818608E-02  0.1010705E+00
         -1   -1    0    0    0  501 -0.00000000000E+00  0.00000000000E+00  0.14537281576E+04  0.14537281576E+04  0.50400000000E-02 0.  1.
          1   -1    0    0  501    0  0.00000000000E+00 -0.00000000000E+00 -0.33298220516E+03  0.33298220520E+03  0.50400000000E-02 0. -1.
    8880023    1    1    2    0    0  0.14862913754E+03  0.57125694076E+02  0.13235453106E+04  0.14869217737E+04  0.65864270000E+03 0.  1.
    8880022    1    1    2    0    0 -0.14862913754E+03 -0.57125694076E+02 -0.20279935822E+03  0.29978858911E+03  0.15294330000E+03 0.  0.
<mgrwt>
<rscale>  0 0.51195283E+03</rscale>
<asrwt>0</asrwt>
<pdfrwt beam="1">  1        1 0.51228030E-01 0.67761654E+03</pdfrwt>
<pdfrwt beam="2">  1       -1 0.22365049E+00 0.67761654E+03</pdfrwt>
<totfact> 0.83061426E+00</totfact>
</mgrwt>
</event>
<event>
 4    5  0.7767175E-008  0.8026722E+03  0.7818608E-02  0.9705048E-01
         -1   -1    0    0    0  501 -0.00000000000E+00  0.00000000000E+00  0.34376135058E+03  0.34376135062E+03  0.50400000000E-02 0.  1.
          1   -1    0    0  501    0  0.00000000000E+00 -0.00000000000E+00 -0.25229137891E+04  0.25229137891E+04  0.50400000000E-02 0. -1.
    8880023    1    1    2    0    0  0.10453488763E+03  0.44670444594E+03 -0.19715093608E+03  0.82652955339E+03  0.65864270000E+03 0.  1.
    8880022    1    1    2    0    0 -0.10453488763E+03 -0.44670444594E+03 -0.19820015024E+04  0.20401455863E+04  0.15294330000E+03 0.  0.
<mgrwt>
<rscale>  0 0.70717042E+03</rscale>
<asrwt>0</asrwt>
<pdfrwt beam="1">  1        1 0.38814057E+00 0.80267217E+03</pdfrwt>
<pdfrwt beam="2">  1       -1 0.52886363E-01 0.80267217E+03</pdfrwt>
<totfact> 0.49401556E+00</totfact>
</mgrwt>
</event>
<event>
 4    5  0.7767175E-008  0.7916560E+03  0.7818608E-02  0.9729137E-01
         -1   -1    0    0    0  501 -0.00000000000E+00  0.00000000000E+00  0.72551414840E+03  0.72551414842E+03  0.50400000000E-02 0.  1.
          1   -1    0    0  501    0  0.00000000000E+00 -0.00000000000E+00 -0.16436567908E+04  0.16436567909E+04  0.50400000000E-02 0. -1.
    8880023    1    1    2    0    0  0.36959407153E+03  0.23729553058E+03  0.45935890895E+03  0.91527578360E+03  0.65864270000E+03 0.  0.
    8880022    1    1    2    0    0 -0.36959407153E+03 -0.23729553058E+03 -0.13775015514E+04  0.14538951557E+04  0.15294330000E+03 0.  0.
<mgrwt>
<rscale>  0 0.69308193E+03</rscale>
<asrwt>0</asrwt>
<pdfrwt beam="1">  1        1 0.25287027E+00 0.79165596E+03</pdfrwt>
<pdfrwt beam="2">  1       -1 0.11161756E+00 0.79165596E+03</pdfrwt>
<totfact> 0.39846608E+00</totfact>
</mgrwt>
</event>
<event>
 4    5  0.7767175E-008  0.8922193E+03  0.7818608E-02  0.9538639E-01
         -1   -1    0    0    0  501 -0.00000000000E+00  0.00000000000E+00  0.58225966046E+03  0.58225966048E+03  0.50400000000E-02 0.  1.
          1   -1    0    0  501    0  0.00000000000E+00 -0.00000000000E+00 -0.16179735861E+04  0.16179735861E+04  0.50400000000E-02 0. -1.
    8880023    1    1    2    0    0 -0.46550771100E+03 -0.38150700791E+03  0.10807200290E+03  0.89874066903E+03  0.65864270000E+03 0.  0.
    8880022    1    1    2    0    0  0.46550771100E+03  0.38150700791E+03 -0.11437859285E+04  0.13014925775E+04  0.15294330000E+03 0.  0.
<mgrwt>
<rscale>  0 0.81494067E+03</rscale>
<asrwt>0</asrwt>
<pdfrwt beam="1">  1        1 0.24891901E+00 0.89221927E+03</pdfrwt>
<pdfrwt beam="2">  1       -1 0.89578410E-01 0.89221927E+03</pdfrwt>
<totfact> 0.67559893E+00</totfact>
</mgrwt>
</event>
<event>
 4    5  0.7767175E-008  0.8256179E+03  0.7818608E-02  0.9657920E-01
          1   -1    0    0  501    0  0.00000000000E+00  0.00000000000E+00  0.12914714982E+04  0.12914714982E+04  0.50400000000E-02 0. -1.
         -1   -1    0    0    0  501 -0.00000000000E+00 -0.00000000000E+00 -0.12133344986E+04  0.12133344986E+04  0.50400000000E-02 0.  1.
    8880023    1    1    2    0    0  0.48176785389E+03 -0.12543677770E+03 -0.10063898429E+04  0.13017163180E+04  0.65864270000E+03 0.  0.
    8880022    1    1    2    0    0 -0.48176785389E+03  0.12543677770E+03  0.10845268425E+04  0.12030896788E+04  0.15294330000E+03 0.  0.
<mgrwt>
<rscale>  0 0.73578476E+03</rscale>
<asrwt>0</asrwt>
<pdfrwt beam="1">  1        1 0.19868792E+00 0.82561786E+03</pdfrwt>
<pdfrwt beam="2">  1       -1 0.18666684E+00 0.82561786E+03</pdfrwt>
<totfact> 0.17663028E+00</totfact>
</mgrwt>
</event>
<event>
 4    5  0.7767175E-008  0.1250587E+04  0.7818608E-02  0.9109451E-01
          1   -1    0    0  501    0  0.00000000000E+00  0.00000000000E+00  0.60910185810E+03  0.60910185812E+03  0.50400000000E-02 0. -1.
         -1   -1    0    0    0  501 -0.00000000000E+00 -0.00000000000E+00 -0.30297292936E+04  0.30297292936E+04  0.50400000000E-02 0.  1.
    8880023    1    1    2    0    0  0.10367505516E+04  0.23517149263E+03 -0.33782619184E+03  0.12954127062E+04  0.65864270000E+03 0.  0.
    8880022    1    1    2    0    0 -0.10367505516E+04 -0.23517149263E+03 -0.20828012436E+04  0.23434184455E+04  0.15294330000E+03 0.  0.
<mgrwt>
<rscale>  0 0.12038986E+04</rscale>
<asrwt>0</asrwt>
<pdfrwt beam="1">  1        1 0.93707979E-01 0.12505869E+04</pdfrwt>
<pdfrwt beam="2">  1       -1 0.46611219E+00 0.12505869E+04</pdfrwt>
<totfact> 0.82973611E-02</totfact>
</mgrwt>
</event>
<event>
 4    5  0.7767175E-008  0.7379488E+03  0.7818608E-02  0.9865963E-01
         -1   -1    0    0    0  501 -0.00000000000E+00  0.00000000000E+00  0.23623867673E+03  0.23623867678E+03  0.50400000000E-02 0.  1.
          1   -1    0    0  501    0  0.00000000000E+00 -0.00000000000E+00 -0.25950713631E+04  0.25950713632E+04  0.50400000000E-02 0. -1.
    8880023    1    1    2    0    0  0.24474620897E+03  0.22551602342E+03 -0.40169389029E+03  0.84019424622E+03  0.65864270000E+03 0. -1.
    8880022    1    1    2    0    0 -0.24474620897E+03 -0.22551602342E+03 -0.19571387961E+04  0.19911157937E+04  0.15294330000E+03 0. -1.
<mgrwt>
<rscale>  0 0.61939605E+03</rscale>
<asrwt>0</asrwt>
<pdfrwt beam="1">  1        1 0.39924173E+00 0.73794877E+03</pdfrwt>
<pdfrwt beam="2">  1       -1 0.36344414E-01 0.73794877E+03</pdfrwt>
<totfact> 0.89225384E+00</totfact>
</mgrwt>
</event>
<event>
 4    5  0.7767175E-008  0.6927413E+03  0.7818608E-02  0.1002876E+00
         -1   -1    0    0    0  501 -0.00000000000E+00  0.00000000000E+00  0.57659600375E+03  0.57659600377E+03  0.50400000000E-02 0.  1.
          1   -1    0    0  501    0  0.00000000000E+00 -0.00000000000E+00 -0.32553075475E+04  0.32553075475E+04  0.50400000000E-02 0. -1.
    8880023    1    1    2    0    0 -0.17542310557E+03  0.12372136229E+03  0.36074332711E+03  0.78104173754E+03  0.65864270000E+03 0.  1.
    8880022    1    1    2    0    0  0.17542310557E+03 -0.12372136229E+03 -0.30394548709E+04  0.30508618138E+04  0.15294330000E+03 0.  0.
<mgrwt>
<rscale>  0 0.54406956E+03</rscale>
<asrwt>0</asrwt>
<pdfrwt beam="1">  1        1 0.50081653E+00 0.69274126E+03</pdfrwt>
<pdfrwt beam="2">  1       -1 0.88707079E-01 0.69274126E+03</pdfrwt>
<totfact> 0.53195223E-01</totfact>
</mgrwt>
</event>
<event>
 4    5  0.7767175E-008  0.7615969E+03  0.7818608E-02  0.9800991E-01
          1   -1    0    0  501    0  0.00000000000E+00  0.00000000000E+00  0.17917561537E+04  0.17917561537E+04  0.50400000000E-02 0. -1.
         -1   -1    0    0    0  501 -0.00000000000E+00 -0.00000000000E+00 -0.80837451321E+03  0.80837451323E+03  0.50400000000E-02 0.  1.
    8880023    1    1    2    0    0  0.29057537714E+03 -0.24856700170E+03 -0.59654003434E+03  0.96741398737E+03  0.65864270000E+03 0.  1.
    8880022    1    1    2    0    0 -0.29057537714E+03  0.24856700170E+03  0.15799216748E+04  0.16327166795E+04  0.15294330000E+03 0.  0.
<mgrwt>
<rscale>  0 0.65309401E+03</rscale>
<asrwt>0</asrwt>
<pdfrwt beam="1">  1        1 0.27565479E+00 0.76159688E+03</pdfrwt>
<pdfrwt beam="2">  1       -1 0.12436531E+00 0.76159688E+03</pdfrwt>
<totfact> 0.24506997E+00</totfact>
</mgrwt>
</event>
<event>
 4    5  0.7767175E-008  0.1153006E+04  0.7818608E-02  0.9204215E-01
          1   -1    0    0  501    0  0.00000000000E+00  0.00000000000E+00  0.18251170849E+04  0.18251170849E+04  0.50400000000E-02 0. -1.
         -1   -1    0    0    0  501 -0.00000000000E+00 -0.00000000000E+00 -0.10165782716E+04  0.10165782716E+04  0.50400000000E-02 0.  1.
    8880023    1    1    2    0    0  0.10709306055E+03 -0.94028973005E+03 -0.46877284779E+03  0.12446573380E+04  0.65864270000E+03 0.  0.
    8880022    1    1    2    0    0 -0.10709306055E+03  0.94028973005E+03  0.12773116611E+04  0.15970380185E+04  0.15294330000E+03 0.  0.
<mgrwt>
<rscale>  0 0.11010032E+04</rscale>
<asrwt>0</asrwt>
<pdfrwt beam="1">  1        1 0.28078725E+00 0.11530065E+04</pdfrwt>
<pdfrwt beam="2">  1       -1 0.15639666E+00 0.11530065E+04</pdfrwt>
<totfact> 0.12043331E+00</totfact>
</mgrwt>
</event>
<event>
 4    5  0.7767175E-008  0.1810510E+04  0.7818608E-02  0.8716745E-01
         -1   -1    0    0    0  501 -0.00000000000E+00  0.00000000000E+00  0.14627569238E+04  0.14627569238E+04  0.50400000000E-02 0.  1.
          1   -1    0    0  501    0  0.00000000000E+00 -0.00000000000E+00 -0.43939982717E+04  0.43939982717E+04  0.50400000000E-02 0. -1.
    8880023    1    1    2    0    0  0.15420560518E+04  0.68278872383E+03  0.62709270579E+03  0.19160356928E+04  0.65864270000E+03 0.  0.
    8880022    1    1    2    0    0 -0.15420560518E+04 -0.68278872383E+03 -0.35583340537E+04  0.39407195027E+04  0.15294330000E+03 0.  0.
<mgrwt>
<rscale>  0 0.17804887E+04</rscale>
<asrwt>0</asrwt>
<pdfrwt beam="1">  1        1 0.67599973E+00 0.18105103E+04</pdfrwt>
<pdfrwt beam="2">  1       -1 0.22503953E+00 0.18105103E+04</pdfrwt>
<totfact> 0.38512093E-03</totfact>
</mgrwt>
</event>
<event>
 4    5  0.7767175E-008  0.1304219E+04  0.7818608E-02  0.9061925E-01
         -1   -1    0    0    0  501 -0.00000000000E+00  0.00000000000E+00  0.12517977157E+04  0.12517977157E+04  0.50400000000E-02 0.  1.
          1   -1    0    0  501    0  0.00000000000E+00 -0.00000000000E+00 -0.27733605440E+04  0.27733605441E+04  0.50400000000E-02 0. -1.
    8880023    1    1    2    0    0  0.63393111868E+03  0.93021915587E+03  0.73622868313E+03  0.14976712661E+04  0.65864270000E+03 0.  1.
    8880022    1    1    2    0    0 -0.63393111868E+03 -0.93021915587E+03 -0.22577915114E+04  0.25274869937E+04  0.15294330000E+03 0.  0.
<mgrwt>
<rscale>  0 0.12599707E+04</rscale>
<asrwt>0</asrwt>
<pdfrwt beam="1">  1        1 0.42667085E+00 0.13042187E+04</pdfrwt>
<pdfrwt beam="2">  1       -1 0.19258426E+00 0.13042187E+04</pdfrwt>
<totfact> 0.14353715E-01</totfact>
</mgrwt>
</event>
<event>
 4    5  0.7767175E-008  0.1115437E+04  0.7818608E-02  0.9244061E-01
          1   -1    0    0  501    0  0.00000000000E+00  0.00000000000E+00  0.27868627814E+04  0.27868627814E+04  0.50400000000E-02 0. -1.
         -1   -1    0    0    0  501 -0.00000000000E+00 -0.00000000000E+00 -0.99291790362E+03  0.99291790363E+03  0.50400000000E-02 0.  1.
    8880023    1    1    2    0    0  0.11940326418E+02 -0.90013692509E+03 -0.56493125565E+03  0.12503385882E+04  0.65864270000E+03 0.  0.
    8880022    1    1    2    0    0 -0.11940326418E+02  0.90013692509E+03  0.23588761334E+04  0.25294420968E+04  0.15294330000E+03 0.  0.
<mgrwt>
<rscale>  0 0.10609996E+04</rscale>
<asrwt>0</asrwt>
<pdfrwt beam="1">  1        1 0.42874812E+00 0.11154368E+04</pdfrwt>
<pdfrwt beam="2">  1       -1 0.15275660E+00 0.11154368E+04</pdfrwt>
<totfact> 0.28372053E-01</totfact>
</mgrwt>
</event>
<event>
 4    5  0.7767175E-008  0.7194075E+03  0.7818608E-02  0.9924596E-01
          1   -1    0    0  501    0  0.00000000000E+00  0.00000000000E+00  0.11797460306E+04  0.11797460306E+04  0.50400000000E-02 0. -1.
         -1   -1    0    0    0  501 -0.00000000000E+00 -0.00000000000E+00 -0.40053493762E+03  0.40053493765E+03  0.50400000000E-02 0.  1.
    8880023    1    1    2    0    0  0.24540356708E+03  0.15334293311E+03 -0.16801941084E+02  0.71960369465E+03  0.65864270000E+03 0.  1.
    8880022    1    1    2    0    0 -0.24540356708E+03 -0.15334293311E+03  0.79601303402E+03  0.86067727356E+03  0.15294330000E+03 0.  0.
<mgrwt>
<rscale>  0 0.59083936E+03</rscale>
<asrwt>0</asrwt>
<pdfrwt beam="1">  1        1 0.18149939E+00 0.71940751E+03</pdfrwt>
<pdfrwt beam="2">  1       -1 0.61620760E-01 0.71940751E+03</pdfrwt>
<totfact> 0.30489771E+01</totfact>
</mgrwt>
</event>
<event>
 4    5  0.7767175E-008  0.1313674E+04  0.7818608E-02  0.9053841E-01
         -1   -1    0    0    0  501 -0.00000000000E+00  0.00000000000E+00  0.62226322176E+03  0.62226322178E+03  0.50400000000E-02 0.  1.
          1   -1    0    0  501    0  0.00000000000E+00 -0.00000000000E+00 -0.43990925649E+04  0.43990925649E+04  0.50400000000E-02 0. -1.
    8880023    1    1    2    0    0 -0.32747826347E+03  0.10884329990E+04 -0.28260052683E+03  0.13437267842E+04  0.65864270000E+03 0.  0.
    8880022    1    1    2    0    0  0.32747826347E+03 -0.10884329990E+04 -0.34942288163E+04  0.36776290025E+04  0.15294330000E+03 0.  0.
<mgrwt>
<rscale>  0 0.12698270E+04</rscale>
<asrwt>0</asrwt>
<pdfrwt beam="1">  1        1 0.67678345E+00 0.13136737E+04</pdfrwt>
<pdfrwt beam="2">  1       -1 0.95732806E-01 0.13136737E+04</pdfrwt>
<totfact> 0.43118714E-02</totfact>
</mgrwt>
</event>
<event>
 4    5  0.7767175E-008  0.1210981E+04  0.7818608E-02  0.9146521E-01
          1   -1    0    0  501    0  0.00000000000E+00  0.00000000000E+00  0.93075272512E+03  0.93075272513E+03  0.50400000000E-02 0. -1.
         -1   -1    0    0    0  501 -0.00000000000E+00 -0.00000000000E+00 -0.23531721213E+04  0.23531721213E+04  0.50400000000E-02 0.  1.
    8880023    1    1    2    0    0  0.53596756940E+03  0.86336759455E+03 -0.18166326504E+04  0.21832611460E+04  0.65864270000E+03 0.  1.
    8880022    1    1    2    0    0 -0.53596756940E+03 -0.86336759455E+03  0.39421325420E+03  0.11006637005E+04  0.15294330000E+03 0.  0.
<mgrwt>
<rscale>  0 0.11622884E+04</rscale>
<asrwt>0</asrwt>
<pdfrwt beam="1">  1        1 0.14319273E+00 0.12109810E+04</pdfrwt>
<pdfrwt beam="2">  1       -1 0.36202648E+00 0.12109810E+04</pdfrwt>
<totfact> 0.21949353E-01</totfact>
</mgrwt>
</event>
<event>
 4    5  0.7767175E-008  0.1178574E+04  0.7818608E-02  0.9178237E-01
         -1   -1    0    0    0  501 -0.00000000000E+00  0.00000000000E+00  0.16174886301E+04  0.16174886301E+04  0.50400000000E-02 0.  1.
          1   -1    0    0  501    0  0.00000000000E+00 -0.00000000000E+00 -0.15035421572E+04  0.15035421572E+04  0.50400000000E-02 0. -1.
    8880023    1    1    2    0    0  0.84210503857E+03 -0.49606920662E+03  0.11792592677E+04  0.16672396890E+04  0.65864270000E+03 0.  0.
    8880022    1    1    2    0    0 -0.84210503857E+03  0.49606920662E+03 -0.10653127948E+04  0.14537910983E+04  0.15294330000E+03 0.  0.
<mgrwt>
<rscale>  0 0.11280910E+04</rscale>
<asrwt>0</asrwt>
<pdfrwt beam="1">  1        1 0.23131418E+00 0.11785736E+04</pdfrwt>
<pdfrwt beam="2">  1       -1 0.24884441E+00 0.11785736E+04</pdfrwt>
<totfact> 0.45404447E-01</totfact>
</mgrwt>
</event>
<event>
 4    5  0.7767175E-008  0.1122094E+04  0.7818608E-02  0.9236847E-01
         -1   -1    0    0    0  501 -0.00000000000E+00  0.00000000000E+00  0.12413369273E+04  0.12413369273E+04  0.50400000000E-02 0.  1.
          1   -1    0    0  501    0  0.00000000000E+00 -0.00000000000E+00 -0.11009597334E+04  0.11009597335E+04  0.50400000000E-02 0. -1.
    8880023    1    1    2    0    0  0.13867846655E+02 -0.90834547655E+03  0.64258747954E+03  0.12930632997E+04  0.65864270000E+03 0.  0.
    8880022    1    1    2    0    0 -0.13867846655E+02  0.90834547655E+03 -0.50221028567E+03  0.10492333611E+04  0.15294330000E+03 0.  0.
<mgrwt>
<rscale>  0 0.10681064E+04</rscale>
<asrwt>0</asrwt>
<pdfrwt beam="1">  1        1 0.16937842E+00 0.11220936E+04</pdfrwt>
<pdfrwt beam="2">  1       -1 0.19097491E+00 0.11220936E+04</pdfrwt>
<totfact> 0.21777865E+00</totfact>
</mgrwt>
</event>
<event>
 4    5  0.7767175E-008  0.8462380E+03  0.7818608E-02  0.9618528E-01
          1   -1    0    0  501    0  0.00000000000E+00  0.00000000000E+00  0.79370618999E+03  0.79370619001E+03  0.50400000000E-02 0. -1.
         -1   -1    0    0    0  501 -0.00000000000E+00 -0.00000000000E+00 -0.22052703862E+04  0.22052703862E+04  0.50400000000E-02 0.  1.
    8880023    1    1    2    0    0 -0.51276504845E+03  0.13921388395E+03 -0.20120195682E+04  0.21827371462E+04  0.65864270000E+03 0.  1.
    8880022    1    1    2    0    0  0.51276504845E+03 -0.13921388395E+03  0.60045537196E+03  0.81623943003E+03  0.15294330000E+03 0.  0.
<mgrwt>
<rscale>  0 0.76081898E+03</rscale>
<asrwt>0</asrwt>
<pdfrwt beam="1">  1        1 0.12210865E+00 0.84623797E+03</pdfrwt>
<pdfrwt beam="2">  1       -1 0.33927237E+00 0.84623797E+03</pdfrwt>
<totfact> 0.42874835E-01</totfact>
</mgrwt>
</event>
<event>
 4    5  0.7767175E-008  0.8150863E+03  0.7818608E-02  0.9679078E-01
         -1   -1    0    0    0  501 -0.00000000000E+00  0.00000000000E+00  0.33840907528E+03  0.33840907532E+03  0.50400000000E-02 0.  1.
          1   -1    0    0  501    0  0.00000000000E+00 -0.00000000000E+00 -0.24408802705E+04  0.24408802705E+04  0.50400000000E-02 0. -1.
    8880023    1    1    2    0    0 -0.47523579013E+03  0.68603575852E+02 -0.23976313155E+03  0.84961878060E+03  0.65864270000E+03 0.  1.
    8880022    1    1    2    0    0  0.47523579013E+03 -0.68603575852E+02 -0.18627080637E+04  0.19296705652E+04  0.15294330000E+03 0.  0.
<mgrwt>
<rscale>  0 0.72276252E+03</rscale>
<asrwt>0</asrwt>
<pdfrwt beam="1">  1        1 0.37552003E+00 0.81508632E+03</pdfrwt>
<pdfrwt beam="2">  1       -1 0.52062936E-01 0.81508632E+03</pdfrwt>
<totfact> 0.57800471E+00</totfact>
</mgrwt>
</event>
<event>
 4    5  0.7767175E-008  0.8445837E+03  0.7818608E-02  0.9621597E-01
         -1   -1    0    0    0  501 -0.00000000000E+00  0.00000000000E+00  0.20336809865E+04  0.20336809865E+04  0.50400000000E-02 0.  1.
          1   -1    0    0  501    0  0.00000000000E+00 -0.00000000000E+00 -0.84327409359E+03  0.84327409360E+03  0.50400000000E-02 0. -1.
    8880023    1    1    2    0    0  0.27155998177E+03 -0.45361498013E+03  0.18405862888E+04  0.20251122109E+04  0.65864270000E+03 0.  1.
    8880022    1    1    2    0    0 -0.27155998177E+03  0.45361498013E+03 -0.65017939592E+03  0.85184286919E+03  0.15294330000E+03 0.  0.
<mgrwt>
<rscale>  0 0.75883082E+03</rscale>
<asrwt>0</asrwt>
<pdfrwt beam="1">  1        1 0.12973448E+00 0.84458367E+03</pdfrwt>
<pdfrwt beam="2">  1       -1 0.31287400E+00 0.84458367E+03</pdfrwt>
<totfact> 0.57623959E-01</totfact>
</mgrwt>
</event>
<event>
 4    5  0.7767175E-008  0.9786998E+03  0.7818608E-02  0.9409971E-01
         -1   -1    0    0    0  501 -0.00000000000E+00  0.00000000000E+00  0.44527648219E+03  0.44527648221E+03  0.50400000000E-02 0.  1.
          1   -1    0    0  501    0  0.00000000000E+00 -0.00000000000E+00 -0.26421064972E+04  0.26421064972E+04  0.50400000000E-02 0. -1.
    8880023    1    1    2    0    0  0.11186082333E+03 -0.71521338925E+03 -0.25794407720E+03  0.10121207384E+04  0.65864270000E+03 0.  0.
    8880022    1    1    2    0    0 -0.11186082333E+03  0.71521338925E+03 -0.19388859378E+04  0.20752622410E+04  0.15294330000E+03 0.  0.
<mgrwt>
<rscale>  0 0.91259620E+03</rscale>
<asrwt>0</asrwt>
<pdfrwt beam="1">  1        1 0.40647791E+00 0.97869977E+03</pdfrwt>
<pdfrwt beam="2">  1       -1 0.68504076E-01 0.97869977E+03</pdfrwt>
<totfact> 0.23821320E+00</totfact>
</mgrwt>
</event>
<event>
 4    5  0.7767175E-008  0.7586096E+03  0.7818608E-02  0.9808720E-01
          1   -1    0    0  501    0  0.00000000000E+00  0.00000000000E+00  0.19256512037E+04  0.19256512037E+04  0.50400000000E-02 0. -1.
         -1   -1    0    0    0  501 -0.00000000000E+00 -0.00000000000E+00 -0.54562513237E+03  0.54562513239E+03  0.50400000000E-02 0.  1.
    8880023    1    1    2    0    0 -0.34934368076E+03 -0.14013315863E+03 -0.24424758282E+03  0.79696009775E+03  0.65864270000E+03 0.  1.
    8880022    1    1    2    0    0  0.34934368076E+03  0.14013315863E+03  0.16242736542E+04  0.16743162384E+04  0.15294330000E+03 0.  0.
<mgrwt>
<rscale>  0 0.64896646E+03</rscale>
<asrwt>0</asrwt>
<pdfrwt beam="1">  1        1 0.29625403E+00 0.75860959E+03</pdfrwt>
<pdfrwt beam="2">  1       -1 0.83942328E-01 0.75860959E+03</pdfrwt>
<totfact> 0.49305463E+00</totfact>
</mgrwt>
</event>
<event>
 4    5  0.9289889E-008  0.1309655E+04  0.7818608E-02  0.9057266E-01
          1   -1    0    0  501    0  0.00000000000E+00  0.00000000000E+00  0.39125138593E+04  0.39125138593E+04  0.50400000000E-02 0. -1.
         -1   -1    0    0    0  501 -0.00000000000E+00 -0.00000000000E+00 -0.31087698460E+04  0.31087698460E+04  0.50400000000E-02 0.  1.
    8880023    1    1    2    0    0 -0.74356378019E+03 -0.85352214188E+03 -0.28803802582E+04  0.31641409229E+04  0.65864270000E+03 0.  0.
    8880022    1    1    2    0    0  0.74356378019E+03  0.85352214188E+03  0.36841242716E+04  0.38571427823E+04  0.15294330000E+03 0.  0.
<mgrwt>
<rscale>  0 0.12656391E+04</rscale>
<asrwt>0</asrwt>
<pdfrwt beam="1">  1        1 0.60192521E+00 0.13096554E+04</pdfrwt>
<pdfrwt beam="2">  1       -1 0.47827228E+00 0.13096554E+04</pdfrwt>
<totfact> 0.23478326E-04</totfact>
</mgrwt>
</event>
<event>
 4    5  0.7767175E-008  0.8223604E+03  0.7818608E-02  0.9664384E-01
         -1   -1    0    0    0  501 -0.00000000000E+00  0.00000000000E+00  0.12968728447E+04  0.12968728447E+04  0.50400000000E-02 0.  1.
          1   -1    0    0  501    0  0.00000000000E+00 -0.00000000000E+00 -0.17151271783E+04  0.17151271783E+04  0.50400000000E-02 0. -1.
    8880023    1    1    2    0    0  0.45541582266E+03 -0.18725059143E+03  0.11200810331E+04  0.13895531953E+04  0.65864270000E+03 0.  1.
    8880022    1    1    2    0    0 -0.45541582266E+03  0.18725059143E+03 -0.15383353667E+04  0.16224468278E+04  0.15294330000E+03 0.  0.
<mgrwt>
<rscale>  0 0.73177547E+03</rscale>
<asrwt>0</asrwt>
<pdfrwt beam="1">  1        1 0.26386572E+00 0.82236036E+03</pdfrwt>
<pdfrwt beam="2">  1       -1 0.19951890E+00 0.82236036E+03</pdfrwt>
<totfact> 0.73533481E-01</totfact>
</mgrwt>
</event>
<event>
 4    5  0.7767175E-008  0.6967721E+03  0.7818608E-02  0.1001086E+00
          1   -1    0    0  501    0  0.00000000000E+00  0.00000000000E+00  0.50242013698E+03  0.50242013700E+03  0.50400000000E-02 0. -1.
         -1   -1    0    0    0  501 -0.00000000000E+00 -0.00000000000E+00 -0.84314693436E+03  0.84314693438E+03  0.50400000000E-02 0.  1.
    8880023    1    1    2    0    0  0.21841828581E+03  0.63043989305E+02 -0.63554636386E+03  0.94308561597E+03  0.65864270000E+03 0.  1.
    8880022    1    1    2    0    0 -0.21841828581E+03 -0.63043989305E+02  0.29481956647E+03  0.40248145542E+03  0.15294330000E+03 0.  0.
<mgrwt>
<rscale>  0 0.55176396E+03</rscale>
<asrwt>0</asrwt>
<pdfrwt beam="1">  1        1 0.77295406E-01 0.69677206E+03</pdfrwt>
<pdfrwt beam="2">  1       -1 0.12971491E+00 0.69677206E+03</pdfrwt>
<totfact> 0.23151487E+01</totfact>
</mgrwt>
</event>
<event>
 4    5  0.7767175E-008  0.9064828E+03  0.7818608E-02  0.9515704E-01
          1   -1    0    0  501    0  0.00000000000E+00  0.00000000000E+00  0.10669471037E+04  0.10669471037E+04  0.50400000000E-02 0. -1.
         -1   -1    0    0    0  501 -0.00000000000E+00 -0.00000000000E+00 -0.79332366154E+03  0.79332366156E+03  0.50400000000E-02 0.  1.
    8880023    1    1    2    0    0 -0.32324423571E+03 -0.53236652313E+03 -0.34432862955E+03  0.96967693706E+03  0.65864270000E+03 0.  0.
    8880022    1    1    2    0    0  0.32324423571E+03  0.53236652313E+03  0.61795207166E+03  0.89059382816E+03  0.15294330000E+03 0.  0.
<mgrwt>
<rscale>  0 0.83135891E+03</rscale>
<asrwt>0</asrwt>
<pdfrwt beam="1">  1        1 0.16414571E+00 0.90648285E+03</pdfrwt>
<pdfrwt beam="2">  1       -1 0.12204979E+00 0.90648285E+03</pdfrwt>
<totfact> 0.80819902E+00</totfact>
</mgrwt>
</event>
<event>
 4    5  0.7767175E-008  0.1033341E+04  0.7818608E-02  0.9339181E-01
         -1   -1    0    0    0  501 -0.00000000000E+00  0.00000000000E+00  0.11278637500E+04  0.11278637500E+04  0.50400000000E-02 0.  1.
          1   -1    0    0  501    0  0.00000000000E+00 -0.00000000000E+00 -0.18590611196E+04  0.18590611196E+04  0.50400000000E-02 0. -1.
    8880023    1    1    2    0    0 -0.50471310899E+03 -0.61583122813E+03  0.76463961074E+03  0.12854833194E+04  0.65864270000E+03 0.  1.
    8880022    1    1    2    0    0  0.50471310899E+03  0.61583122813E+03 -0.14958369803E+04  0.17014415502E+04  0.15294330000E+03 0.  0.
<mgrwt>
<rscale>  0 0.97254432E+03</rscale>
<asrwt>0</asrwt>
<pdfrwt beam="1">  1        1 0.28600940E+00 0.10333410E+04</pdfrwt>
<pdfrwt beam="2">  1       -1 0.17351750E+00 0.10333410E+04</pdfrwt>
<totfact> 0.86524135E-01</totfact>
</mgrwt>
</event>
<event>
 4    5  0.7767175E-008  0.8529408E+03  0.7818608E-02  0.9606246E-01
         -1   -1    0    0    0  501 -0.00000000000E+00  0.00000000000E+00  0.10148579637E+04  0.10148579637E+04  0.50400000000E-02 0.  1.
          1   -1    0    0  501    0  0.00000000000E+00 -0.00000000000E+00 -0.10161452157E+04  0.10161452157E+04  0.50400000000E-02 0. -1.
    8880023    1    1    2    0    0 -0.23665550976E+03  0.48753669714E+03  0.71981522986E+03  0.11160833449E+04  0.65864270000E+03 0.  1.
    8880022    1    1    2    0    0  0.23665550976E+03 -0.48753669714E+03 -0.72110248178E+03  0.91491983452E+03  0.15294330000E+03 0.  0.
<mgrwt>
<rscale>  0 0.76884167E+03</rscale>
<asrwt>0</asrwt>
<pdfrwt beam="1">  1        1 0.15633003E+00 0.85294083E+03</pdfrwt>
<pdfrwt beam="2">  1       -1 0.15613199E+00 0.85294083E+03</pdfrwt>
<totfact> 0.46962179E+00</totfact>
</mgrwt>
</event>
<event>
 4    5  0.7767175E-008  0.9452105E+03  0.7818608E-02  0.9457039E-01
          1   -1    0    0  501    0  0.00000000000E+00  0.00000000000E+00  0.50983946055E+03  0.50983946058E+03  0.50400000000E-02 0. -1.
         -1   -1    0    0    0  501 -0.00000000000E+00 -0.00000000000E+00 -0.19430765353E+04  0.19430765353E+04  0.50400000000E-02 0.  1.
    8880023    1    1    2    0    0  0.17852147907E+03 -0.65402046432E+03 -0.14803051090E+04  0.17563388364E+04  0.65864270000E+03 0.  0.
    8880022    1    1    2    0    0 -0.17852147907E+03  0.65402046432E+03  0.47068034264E+02  0.69657715948E+03  0.15294330000E+03 0.  0.
<mgrwt>
<rscale>  0 0.87526645E+03</rscale>
<asrwt>0</asrwt>
<pdfrwt beam="1">  1        1 0.78436841E-01 0.94521050E+03</pdfrwt>
<pdfrwt beam="2">  1       -1 0.29893485E+00 0.94521050E+03</pdfrwt>
<totfact> 0.14789951E+00</totfact>
</mgrwt>
</event>
<event>
 4    5  0.7767175E-008  0.9259866E+03  0.7818608E-02  0.9485540E-01
          1   -1    0    0  501    0  0.00000000000E+00  0.00000000000E+00  0.20998694462E+04  0.20998694462E+04  0.50400000000E-02 0. -1.
         -1   -1    0    0    0  501 -0.00000000000E+00 -0.00000000000E+00 -0.12603025476E+04  0.12603025476E+04  0.50400000000E-02 0.  1.
    8880023    1    1    2    0    0  0.53644203392E+03  0.36860684904E+03 -0.10238248195E+04  0.13804595366E+04  0.65864270000E+03 0.  1.
    8880022    1    1    2    0    0 -0.53644203392E+03 -0.36860684904E+03  0.18633917182E+04  0.19797124572E+04  0.15294330000E+03 0.  0.
<mgrwt>
<rscale>  0 0.85358339E+03</rscale>
<asrwt>0</asrwt>
<pdfrwt beam="1">  1        1 0.32305684E+00 0.92598665E+03</pdfrwt>
<pdfrwt beam="2">  1       -1 0.19389270E+00 0.92598665E+03</pdfrwt>
<totfact> 0.43461668E-01</totfact>
</mgrwt>
</event>
<event>
 4    5  0.7767175E-008  0.1008260E+04  0.7818608E-02  0.9370830E-01
         -1   -1    0    0    0  501 -0.00000000000E+00  0.00000000000E+00  0.83739847420E+03  0.83739847422E+03  0.50400000000E-02 0.  1.
          1   -1    0    0  501    0  0.00000000000E+00 -0.00000000000E+00 -0.12683262705E+04  0.12683262705E+04  0.50400000000E-02 0. -1.
    8880023    1    1    2    0    0  0.76136161476E+03  0.55729023802E+02  0.28527708998E+03  0.10478408547E+04  0.65864270000E+03 0.  0.
    8880022    1    1    2    0    0 -0.76136161476E+03 -0.55729023802E+02 -0.71620488626E+03  0.10578838900E+04  0.15294330000E+03 0.  0.
<mgrwt>
<rscale>  0 0.94515597E+03</rscale>
<asrwt>0</asrwt>
<pdfrwt beam="1">  1        1 0.19512712E+00 0.10082596E+04</pdfrwt>
<pdfrwt beam="2">  1       -1 0.12883053E+00 0.10082596E+04</pdfrwt>
<totfact> 0.49590498E+00</totfact>
</mgrwt>
</event>
<event>
 4    5  0.7767175E-008  0.9234045E+03  0.7818608E-02  0.9489459E-01
         -1   -1    0    0    0  501 -0.00000000000E+00  0.00000000000E+00  0.92421749123E+03  0.92421749124E+03  0.50400000000E-02 0.  1.
          1   -1    0    0  501    0  0.00000000000E+00 -0.00000000000E+00 -0.13586934547E+04  0.13586934547E+04  0.50400000000E-02 0. -1.
    8880023    1    1    2    0    0 -0.46418584877E+03  0.45099573253E+03  0.56489913885E+03  0.10824910606E+04  0.65864270000E+03 0.  0.
    8880022    1    1    2    0    0  0.46418584877E+03 -0.45099573253E+03 -0.99937510232E+03  0.12004198853E+04  0.15294330000E+03 0.  0.
<mgrwt>
<rscale>  0 0.85065482E+03</rscale>
<asrwt>0</asrwt>
<pdfrwt beam="1">  1        1 0.20902976E+00 0.92340449E+03</pdfrwt>
<pdfrwt beam="2">  1       -1 0.14218731E+00 0.92340449E+03</pdfrwt>
<totfact> 0.33546792E+00</totfact>
</mgrwt>
</event>
<event>
 4    5  0.7767175E-008  0.8745689E+03  0.7818608E-02  0.9568156E-01
         -1   -1    0    0    0  501 -0.00000000000E+00  0.00000000000E+00  0.69329321863E+03  0.69329321865E+03  0.50400000000E-02 0.  1.
          1   -1    0    0  501    0  0.00000000000E+00 -0.00000000000E+00 -0.18843908025E+04  0.18843908025E+04  0.50400000000E-02 0. -1.
    8880023    1    1    2    0    0 -0.21479087364E+02 -0.57497758491E+03 -0.16219944519E+04  0.18427525017E+04  0.65864270000E+03 0.  0.
    8880022    1    1    2    0    0  0.21479087364E+02  0.57497758491E+03  0.43089686805E+03  0.73493151943E+03  0.15294330000E+03 0.  0.
<mgrwt>
<rscale>  0 0.79440184E+03</rscale>
<asrwt>0</asrwt>
<pdfrwt beam="1">  1        1 0.28990628E+00 0.87456891E+03</pdfrwt>
<pdfrwt beam="2">  1       -1 0.10666050E+00 0.87456891E+03</pdfrwt>
<totfact> 0.30127630E+00</totfact>
</mgrwt>
</event>
<event>
 4    5  0.7767175E-008  0.7795410E+03  0.7818608E-02  0.9756916E-01
          1   -1    0    0  501    0  0.00000000000E+00  0.00000000000E+00  0.77297380148E+03  0.77297380150E+03  0.50400000000E-02 0. -1.
         -1   -1    0    0    0  501 -0.00000000000E+00 -0.00000000000E+00 -0.85333488348E+03  0.85333488349E+03  0.50400000000E-02 0.  1.
    8880023    1    1    2    0    0 -0.31338040429E+03 -0.27507577528E+03 -0.56965128277E+03  0.96549818755E+03  0.65864270000E+03 0.  1.
    8880022    1    1    2    0    0  0.31338040429E+03  0.27507577528E+03  0.48929020078E+03  0.66081049744E+03  0.15294330000E+03 0.  0.
<mgrwt>
<rscale>  0 0.67726814E+03</rscale>
<asrwt>0</asrwt>
<pdfrwt beam="1">  1        1 0.11891905E+00 0.77954100E+03</pdfrwt>
<pdfrwt beam="2">  1       -1 0.13128229E+00 0.77954100E+03</pdfrwt>
<totfact> 0.11857487E+01</totfact>
</mgrwt>
</event>
<event>
 4    5  0.7767175E-008  0.8355572E+03  0.7818608E-02  0.9638615E-01
          1   -1    0    0  501    0  0.00000000000E+00  0.00000000000E+00  0.63741620180E+03  0.63741620182E+03  0.50400000000E-02 0. -1.
         -1   -1    0    0    0  501 -0.00000000000E+00 -0.00000000000E+00 -0.11994158347E+04  0.11994158347E+04  0.50400000000E-02 0.  1.
    8880023    1    1    2    0    0  0.50392742636E+03  0.10199378730E+03 -0.87980190642E+03  0.12133454514E+04  0.65864270000E+03 0.  0.
    8880022    1    1    2    0    0 -0.50392742636E+03 -0.10199378730E+03  0.31780227355E+03  0.62348658508E+03  0.15294330000E+03 0. -1.
<mgrwt>
<rscale>  0 0.74792257E+03</rscale>
<asrwt>0</asrwt>
<pdfrwt beam="1">  1        1 0.98064031E-01 0.83555717E+03</pdfrwt>
<pdfrwt beam="2">  1       -1 0.18452551E+00 0.83555717E+03</pdfrwt>
<totfact> 0.61918450E+00</totfact>
</mgrwt>
</event>
<event>
 4    5  0.7767175E-008  0.6810409E+03  0.7818608E-02  0.1008741E+00
          1   -1    0    0  501    0  0.00000000000E+00  0.00000000000E+00  0.10995128051E+04  0.10995128051E+04  0.50400000000E-02 0. -1.
         -1   -1    0    0    0  501 -0.00000000000E+00 -0.00000000000E+00 -0.36003156255E+03  0.36003156258E+03  0.50400000000E-02 0.  1.
    8880023    1    1    2    0    0  0.13291918452E+03  0.11108123234E+03 -0.39242909228E+01  0.68105224184E+03  0.65864270000E+03 0.  1.
    8880022    1    1    2    0    0 -0.13291918452E+03 -0.11108123234E+03  0.74340553344E+03  0.77849212582E+03  0.15294330000E+03 0.  0.
<mgrwt>
<rscale>  0 0.51978141E+03</rscale>
<asrwt>0</asrwt>
<pdfrwt beam="1">  1        1 0.16915582E+00 0.68104094E+03</pdfrwt>
<pdfrwt beam="2">  1       -1 0.55389471E-01 0.68104094E+03</pdfrwt>
<totfact> 0.43221488E+01</totfact>
</mgrwt>
</event>
<event>
 4    5  0.7767175E-008  0.8716558E+03  0.7818608E-02  0.9573157E-01
         -1   -1    0    0    0  501 -0.00000000000E+00  0.00000000000E+00  0.89736226893E+03  0.89736226894E+03  0.50400000000E-02 0.  1.
          1   -1    0    0  501    0  0.00000000000E+00 -0.00000000000E+00 -0.10831933342E+04  0.10831933343E+04  0.50400000000E-02 0. -1.
    8880023    1    1    2    0    0 -0.34223216660E+03 -0.45700185793E+03  0.55460207693E+03  0.10331346592E+04  0.65864270000E+03 0.  0.
    8880022    1    1    2    0    0  0.34223216660E+03  0.45700185793E+03 -0.74043314225E+03  0.94742094402E+03  0.15294330000E+03 0.  0.
<mgrwt>
<rscale>  0 0.79098584E+03</rscale>
<asrwt>0</asrwt>
<pdfrwt beam="1">  1        1 0.16664513E+00 0.87165576E+03</pdfrwt>
<pdfrwt beam="2">  1       -1 0.13805573E+00 0.87165576E+03</pdfrwt>
<totfact> 0.57807754E+00</totfact>
</mgrwt>
</event>
<event>
 4    5  0.7767175E-008  0.9131904E+03  0.7818608E-02  0.9505180E-01
          1   -1    0    0  501    0  0.00000000000E+00  0.00000000000E+00  0.61408254128E+03  0.61408254130E+03  0.50400000000E-02 0. -1.
         -1   -1    0    0    0  501 -0.00000000000E+00 -0.00000000000E+00 -0.10852001735E+04  0.10852001735E+04  0.50400000000E-02 0.  1.
    8880023    1    1    2    0    0  0.46490624383E+03 -0.42891561770E+03 -0.51254925044E+03  0.10471978624E+04  0.65864270000E+03 0.  1.
    8880022    1    1    2    0    0 -0.46490624383E+03  0.42891561770E+03  0.41431618269E+02  0.65208485235E+03  0.15294330000E+03 0. -1.
<mgrwt>
<rscale>  0 0.83902986E+03</rscale>
<asrwt>0</asrwt>
<pdfrwt beam="1">  1        1 0.94474238E-01 0.91319036E+03</pdfrwt>
<pdfrwt beam="2">  1       -1 0.16695387E+00 0.91319036E+03</pdfrwt>
<totfact> 0.86827244E+00</totfact>
</mgrwt>
</event>
<event>
 4    5  0.7767175E-008  0.7368950E+03  0.7818608E-02  0.9869086E-01
         -1   -1    0    0    0  501 -0.00000000000E+00  0.00000000000E+00  0.55500317659E+03  0.55500317661E+03  0.50400000000E-02 0.  1.
          1   -1    0    0  501    0  0.00000000000E+00 -0.00000000000E+00 -0.20125198490E+04  0.20125198490E+04  0.50400000000E-02 0. -1.
    8880023    1    1    2    0    0 -0.76866113313E+02  0.32139632971E+03  0.28296599521E+03  0.78935667530E+03  0.65864270000E+03 0.  1.
    8880022    1    1    2    0    0  0.76866113313E+02 -0.32139632971E+03 -0.17404826676E+04  0.17781663503E+04  0.15294330000E+03 0.  0.
<mgrwt>
<rscale>  0 0.61783194E+03</rscale>
<asrwt>0</asrwt>
<pdfrwt beam="1">  1        1 0.30961843E+00 0.73689498E+03</pdfrwt>
<pdfrwt beam="2">  1       -1 0.85385105E-01 0.73689498E+03</pdfrwt>
<totfact> 0.41737151E+00</totfact>
</mgrwt>
</event>
<event>
 4    5  0.7767175E-008  0.1149199E+04  0.7818608E-02  0.9208160E-01
         -1   -1    0    0    0  501 -0.00000000000E+00  0.00000000000E+00  0.45955295613E+04  0.45955295613E+04  0.50400000000E-02 0.  1.
          1   -1    0    0  501    0  0.00000000000E+00 -0.00000000000E+00 -0.55093881994E+03  0.55093881996E+03  0.50400000000E-02 0. -1.
    8880023    1    1    2    0    0  0.64309458680E+03 -0.68795094174E+03  0.40317325894E+04  0.41923173812E+04  0.65864270000E+03 0.  0.
    8880022    1    1    2    0    0 -0.64309458680E+03  0.68795094174E+03  0.12858151930E+02  0.95415100005E+03  0.15294330000E+03 0.  0.
<mgrwt>
<rscale>  0 0.10969598E+04</rscale>
<asrwt>0</asrwt>
<pdfrwt beam="1">  1        1 0.84759816E-01 0.11491986E+04</pdfrwt>
<pdfrwt beam="2">  1       -1 0.70700457E+00 0.11491986E+04</pdfrwt>
<totfact> 0.72541383E-03</totfact>
</mgrwt>
</event>
<event>
 4    5  0.7767175E-008  0.1011077E+04  0.7818608E-02  0.9367207E-01
         -1   -1    0    0    0  501 -0.00000000000E+00  0.00000000000E+00  0.81792035965E+03  0.81792035967E+03  0.50400000000E-02 0.  1.
          1   -1    0    0  501    0  0.00000000000E+00 -0.00000000000E+00 -0.12782176104E+04  0.12782176104E+04  0.50400000000E-02 0. -1.
    8880023    1    1    2    0    0 -0.37259269652E+03  0.67055335887E+03  0.24782838300E+03  0.10410073190E+04  0.65864270000E+03 0.  1.
    8880022    1    1    2    0    0  0.37259269652E+03 -0.67055335887E+03 -0.70812563372E+03  0.10551306510E+04  0.15294330000E+03 0.  0.
<mgrwt>
<rscale>  0 0.94824306E+03</rscale>
<asrwt>0</asrwt>
<pdfrwt beam="1">  1        1 0.19664886E+00 0.10110773E+04</pdfrwt>
<pdfrwt beam="2">  1       -1 0.12583390E+00 0.10110773E+04</pdfrwt>
<totfact> 0.51739081E+00</totfact>
</mgrwt>
</event>
<event>
 4    5  0.7767175E-008  0.1099429E+04  0.7818608E-02  0.9261692E-01
          1   -1    0    0  501    0  0.00000000000E+00  0.00000000000E+00  0.18743117898E+04  0.18743117898E+04  0.50400000000E-02 0. -1.
         -1   -1    0    0    0  501 -0.00000000000E+00 -0.00000000000E+00 -0.11003141080E+04  0.11003141080E+04  0.50400000000E-02 0.  1.
    8880023    1    1    2    0    0  0.82008892074E+03 -0.31998194750E+03 -0.66199939592E+03  0.12833501826E+04  0.65864270000E+03 0.  0.
    8880022    1    1    2    0    0 -0.82008892074E+03  0.31998194750E+03  0.14359970777E+04  0.16912757152E+04  0.15294330000E+03 0.  0.
<mgrwt>
<rscale>  0 0.10438737E+04</rscale>
<asrwt>0</asrwt>
<pdfrwt beam="1">  1        1 0.28835566E+00 0.10994292E+04</pdfrwt>
<pdfrwt beam="2">  1       -1 0.16927909E+00 0.10994292E+04</pdfrwt>
<totfact> 0.89885626E-01</totfact>
</mgrwt>
</event>
<event>
 4    5  0.7767175E-008  0.8543380E+03  0.7818608E-02  0.9603716E-01
          1   -1    0    0  501    0  0.00000000000E+00  0.00000000000E+00  0.80385230605E+03  0.80385230606E+03  0.50400000000E-02 0. -1.
         -1   -1    0    0    0  501 -0.00000000000E+00 -0.00000000000E+00 -0.10865529569E+04  0.10865529569E+04  0.50400000000E-02 0.  1.
    8880023    1    1    2    0    0 -0.31549578293E+03 -0.44333460964E+03 -0.76545064744E+03  0.11470867731E+04  0.65864270000E+03 0.  1.
    8880022    1    1    2    0    0  0.31549578293E+03  0.44333460964E+03  0.48274999658E+03  0.74331848986E+03  0.15294330000E+03 0.  0.
<mgrwt>
<rscale>  0 0.77050748E+03</rscale>
<asrwt>0</asrwt>
<pdfrwt beam="1">  1        1 0.12366959E+00 0.85433797E+03</pdfrwt>
<pdfrwt beam="2">  1       -1 0.16716199E+00 0.85433797E+03</pdfrwt>
<totfact> 0.57786354E+00</totfact>
</mgrwt>
</event>
<event>
 4    5  0.7767175E-008  0.7074673E+03  0.7818608E-02  0.9967529E-01
          1   -1    0    0  501    0  0.00000000000E+00  0.00000000000E+00  0.60973051012E+03  0.60973051015E+03  0.50400000000E-02 0. -1.
         -1   -1    0    0    0  501 -0.00000000000E+00 -0.00000000000E+00 -0.10565644436E+04  0.10565644436E+04  0.50400000000E-02 0.  1.
    8880023    1    1    2    0    0 -0.23425658081E+03 -0.10873678126E+03 -0.88634538261E+03  0.11340715043E+04  0.65864270000E+03 0.  1.
    8880022    1    1    2    0    0  0.23425658081E+03  0.10873678126E+03  0.43951144914E+03  0.53222344949E+03  0.15294330000E+03 0.  0.
<mgrwt>
<rscale>  0 0.57097260E+03</rscale>
<asrwt>0</asrwt>
<pdfrwt beam="1">  1        1 0.93804694E-01 0.70746734E+03</pdfrwt>
<pdfrwt beam="2">  1       -1 0.16254838E+00 0.70746734E+03</pdfrwt>
<totfact> 0.96965877E+00</totfact>
</mgrwt>
</event>
<event>
 4    5  0.7767175E-008  0.7061312E+03  0.7818608E-02  0.9972658E-01
          1   -1    0    0  501    0  0.00000000000E+00  0.00000000000E+00  0.13810248373E+04  0.13810248373E+04  0.50400000000E-02 0. -1.
         -1   -1    0    0    0  501 -0.00000000000E+00 -0.00000000000E+00 -0.88705315796E+03  0.88705315797E+03  0.50400000000E-02 0.  1.
    8880023    1    1    2    0    0 -0.23121382051E+03 -0.10654195742E+03 -0.72582824340E+03  0.10126439970E+04  0.65864270000E+03 0.  0.
    8880022    1    1    2    0    0  0.23121382051E+03  0.10654195742E+03  0.12197999227E+04  0.12554339983E+04  0.15294330000E+03 0.  0.
<mgrwt>
<rscale>  0 0.56865551E+03</rscale>
<asrwt>0</asrwt>
<pdfrwt beam="1">  1        1 0.21246536E+00 0.70613117E+03</pdfrwt>
<pdfrwt beam="2">  1       -1 0.13646972E+00 0.70613117E+03</pdfrwt>
<totfact> 0.37271404E+00</totfact>
</mgrwt>
</event>
<event>
 4    5  0.8253680E-008  0.1252863E+04  0.7818608E-02  0.9107374E-01
         -1   -1    0    0    0  501 -0.00000000000E+00  0.00000000000E+00  0.23387040757E+04  0.23387040757E+04  0.50400000000E-02 0.  1.
          1   -1    0    0  501    0  0.00000000000E+00 -0.00000000000E+00 -0.16327804743E+04  0.16327804744E+04  0.50400000000E-02 0. -1.
    8880023    1    1    2    0    0 -0.79175609949E+03 -0.71342681785E+03  0.19552569142E+04  0.23222177659E+04  0.65864270000E+03 0.  0.
    8880022    1    1    2    0    0  0.79175609949E+03  0.71342681785E+03 -0.12493333129E+04  0.16492667841E+04  0.15294330000E+03 0.  0.
<mgrwt>
<rscale>  0 0.12062844E+04</rscale>
<asrwt>0</asrwt>
<pdfrwt beam="1">  1        1 0.25119700E+00 0.12528630E+04</pdfrwt>
<pdfrwt beam="2">  1       -1 0.35980063E+00 0.12528630E+04</pdfrwt>
<totfact> 0.69447971E-02</totfact>
</mgrwt>
</event>
<event>
 4    5  0.7767175E-008  0.1853896E+04  0.7818608E-02  0.8693295E-01
          1   -1    0    0  501    0  0.00000000000E+00  0.00000000000E+00  0.16810040477E+04  0.16810040477E+04  0.50400000000E-02 0. -1.
         -1   -1    0    0    0  501 -0.00000000000E+00 -0.00000000000E+00 -0.22651834907E+04  0.22651834907E+04  0.50400000000E-02 0.  1.
    8880023    1    1    2    0    0 -0.15432561346E+04  0.78833984160E+03 -0.10692433969E+04  0.21401427175E+04  0.65864270000E+03 0.  0.
    8880022    1    1    2    0    0  0.15432561346E+04 -0.78833984160E+03  0.48506395389E+03  0.18060448210E+04  0.15294330000E+03 0.  0.
<mgrwt>
<rscale>  0 0.18246592E+04</rscale>
<asrwt>0</asrwt>
<pdfrwt beam="1">  1        1 0.25861600E+00 0.18538957E+04</pdfrwt>
<pdfrwt beam="2">  1       -1 0.34848977E+00 0.18538957E+04</pdfrwt>
<totfact> 0.70816567E-02</totfact>
</mgrwt>
</event>
<event>
 4    5  0.7767175E-008  0.6789388E+03  0.7818608E-02  0.1009930E+00
          1   -1    0    0  501    0  0.00000000000E+00  0.00000000000E+00  0.87232611531E+03  0.87232611533E+03  0.50400000000E-02 0. -1.
         -1   -1    0    0    0  501 -0.00000000000E+00 -0.00000000000E+00 -0.34980819787E+03  0.34980819790E+03  0.50400000000E-02 0.  1.
    8880023    1    1    2    0    0 -0.91504974950E+02  0.13702030820E+03  0.28692060433E+02  0.67954482258E+03  0.65864270000E+03 0.  1.
    8880022    1    1    2    0    0  0.91504974950E+02 -0.13702030820E+03  0.49382585701E+03  0.54258949065E+03  0.15294330000E+03 0.  0.
<mgrwt>
<rscale>  0 0.51502312E+03</rscale>
<asrwt>0</asrwt>
<pdfrwt beam="1">  1        1 0.13420401E+00 0.67893883E+03</pdfrwt>
<pdfrwt beam="2">  1       -1 0.53816647E-01 0.67893883E+03</pdfrwt>
<totfact> 0.68721798E+01</totfact>
</mgrwt>
</event>
<event>
 4    5  0.7767175E-008  0.7236403E+03  0.7818608E-02  0.9910455E-01
         -1   -1    0    0    0  501 -0.00000000000E+00  0.00000000000E+00  0.32904794366E+03  0.32904794370E+03  0.50400000000E-02 0.  1.
          1   -1    0    0  501    0  0.00000000000E+00 -0.00000000000E+00 -0.13958213971E+04  0.13958213971E+04  0.50400000000E-02 0. -1.
    8880023    1    1    2    0    0  0.20216663772E+03  0.22130023661E+03 -0.13755744564E+03  0.73659853465E+03  0.65864270000E+03 0.  0.
    8880022    1    1    2    0    0 -0.20216663772E+03 -0.22130023661E+03 -0.92921600781E+03  0.98827080616E+03  0.15294330000E+03 0.  0.
<mgrwt>
<rscale>  0 0.59757239E+03</rscale>
<asrwt>0</asrwt>
<pdfrwt beam="1">  1        1 0.21474175E+00 0.72364035E+03</pdfrwt>
<pdfrwt beam="2">  1       -1 0.50622762E-01 0.72364035E+03</pdfrwt>
<totfact> 0.31347031E+01</totfact>
</mgrwt>
</event>
<event>
 4    5  0.7767175E-008  0.1197537E+04  0.7818608E-02  0.9159520E-01
          1   -1    0    0  501    0  0.00000000000E+00  0.00000000000E+00  0.60099030033E+03  0.60099030035E+03  0.50400000000E-02 0. -1.
         -1   -1    0    0    0  501 -0.00000000000E+00 -0.00000000000E+00 -0.34462572545E+04  0.34462572545E+04  0.50400000000E-02 0.  1.
    8880023    1    1    2    0    0 -0.56890283147E+03 -0.82257788311E+03 -0.27874767032E+04  0.30338294913E+04  0.65864270000E+03 0.  1.
    8880022    1    1    2    0    0  0.56890283147E+03  0.82257788311E+03 -0.57790251037E+02  0.10134180636E+04  0.15294330000E+03 0.  0.
<mgrwt>
<rscale>  0 0.11481194E+04</rscale>
<asrwt>0</asrwt>
<pdfrwt beam="1">  1        1 0.92460048E-01 0.11975371E+04</pdfrwt>
<pdfrwt beam="2">  1       -1 0.53019341E+00 0.11975371E+04</pdfrwt>
<totfact> 0.32461287E-02</totfact>
</mgrwt>
</event>
<event>
 4    5  0.7767175E-008  0.1186738E+04  0.7818608E-02  0.9170123E-01
          1   -1    0    0  501    0  0.00000000000E+00  0.00000000000E+00  0.16157031010E+04  0.16157031010E+04  0.50400000000E-02 0. -1.
         -1   -1    0    0    0  501 -0.00000000000E+00 -0.00000000000E+00 -0.12399198335E+04  0.12399198335E+04  0.50400000000E-02 0.  1.
    8880023    1    1    2    0    0 -0.62813293386E+03 -0.76156776976E+03 -0.70783260651E+03  0.13818008741E+04  0.65864270000E+03 0.  0.
    8880022    1    1    2    0    0  0.62813293386E+03  0.76156776976E+03  0.10836158740E+04  0.14738220604E+04  0.15294330000E+03 0.  0.
<mgrwt>
<rscale>  0 0.11367200E+04</rscale>
<asrwt>0</asrwt>
<pdfrwt beam="1">  1        1 0.24856971E+00 0.11867378E+04</pdfrwt>
<pdfrwt beam="2">  1       -1 0.19075690E+00 0.11867378E+04</pdfrwt>
<totfact> 0.93279614E-01</totfact>
</mgrwt>
</event>
<event>
 4    5  0.7767175E-008  0.7066577E+03  0.7818608E-02  0.9970628E-01
          1   -1    0    0  501    0  0.00000000000E+00  0.00000000000E+00  0.18544922117E+04  0.18544922117E+04  0.50400000000E-02 0. -1.
         -1   -1    0    0    0  501 -0.00000000000E+00 -0.00000000000E+00 -0.73256726943E+03  0.73256726945E+03  0.50400000000E-02 0.  1.
    8880023    1    1    2    0    0  0.67894042269E+02  0.24687091685E+03 -0.54578853176E+03  0.89288867068E+03  0.65864270000E+03 0.  1.
    8880022    1    1    2    0    0 -0.67894042269E+02 -0.24687091685E+03  0.16677134740E+04  0.16941708104E+04  0.15294330000E+03 0.  0.
<mgrwt>
<rscale>  0 0.56957106E+03</rscale>
<asrwt>0</asrwt>
<pdfrwt beam="1">  1        1 0.28530649E+00 0.70665767E+03</pdfrwt>
<pdfrwt beam="2">  1       -1 0.11270266E+00 0.70665767E+03</pdfrwt>
<totfact> 0.28541983E+00</totfact>
</mgrwt>
</event>
<event>
 4    5  0.1055228E-007  0.6922953E+03  0.7818608E-02  0.1003080E+00
          1   -1    0    0  501    0  0.00000000000E+00  0.00000000000E+00  0.18469204064E+04  0.18469204064E+04  0.50400000000E-02 0. -1.
         -1   -1    0    0    0  501 -0.00000000000E+00 -0.00000000000E+00 -0.17179088298E+04  0.17179088298E+04  0.50400000000E-02 0.  1.
    8880023    1    1    2    0    0  0.12307425224E+03 -0.17411288289E+03 -0.16380786571E+04  0.17783628597E+04  0.65864270000E+03 0.  1.
    8880022    1    1    2    0    0 -0.12307425224E+03  0.17411288289E+03  0.17670902336E+04  0.17864663765E+04  0.15294330000E+03 0.  0.
<mgrwt>
<rscale>  0 0.54320012E+03</rscale>
<asrwt>0</asrwt>
<pdfrwt beam="1">  1        1 0.28414160E+00 0.69229529E+03</pdfrwt>
<pdfrwt beam="2">  1       -1 0.26429367E+00 0.69229529E+03</pdfrwt>
<totfact> 0.23203125E-01</totfact>
</mgrwt>
</event>
<event>
 4    5  0.7767175E-008  0.9324485E+03  0.7818608E-02  0.9475830E-01
          1   -1    0    0  501    0  0.00000000000E+00  0.00000000000E+00  0.19768624686E+04  0.19768624686E+04  0.50400000000E-02 0. -1.
         -1   -1    0    0    0  501 -0.00000000000E+00 -0.00000000000E+00 -0.64701273389E+03  0.64701273391E+03  0.50400000000E-02 0.  1.
    8880023    1    1    2    0    0  0.41220768972E+03  0.51549477659E+03 -0.19737552272E+03  0.95310930506E+03  0.65864270000E+03 0.  0.
    8880022    1    1    2    0    0 -0.41220768972E+03 -0.51549477659E+03  0.15272252574E+04  0.16707658974E+04  0.15294330000E+03 0. -1.
<mgrwt>
<rscale>  0 0.86089496E+03</rscale>
<asrwt>0</asrwt>
<pdfrwt beam="1">  1        1 0.30413269E+00 0.93244852E+03</pdfrwt>
<pdfrwt beam="2">  1       -1 0.99540420E-01 0.93244852E+03</pdfrwt>
<totfact> 0.30374649E+00</totfact>
</mgrwt>
</event>
<event>
 4    5  0.7767175E-008  0.7291990E+03  0.7818608E-02  0.9892606E-01
          1   -1    0    0  501    0  0.00000000000E+00  0.00000000000E+00  0.44536063575E+03  0.44536063578E+03  0.50400000000E-02 0. -1.
         -1   -1    0    0    0  501 -0.00000000000E+00 -0.00000000000E+00 -0.20635233782E+04  0.20635233782E+04  0.50400000000E-02 0.  1.
    8880023    1    1    2    0    0  0.12582022165E+03  0.28651406023E+03 -0.19163375159E+04  0.20503855043E+04  0.65864270000E+03 0.  0.
    8880022    1    1    2    0    0 -0.12582022165E+03 -0.28651406023E+03  0.29817477346E+03  0.45849850974E+03  0.15294330000E+03 0.  0.
<mgrwt>
<rscale>  0 0.60620965E+03</rscale>
<asrwt>0</asrwt>
<pdfrwt beam="1">  1        1 0.68517022E-01 0.72919904E+03</pdfrwt>
<pdfrwt beam="2">  1       -1 0.31746513E+00 0.72919904E+03</pdfrwt>
<totfact> 0.13996229E+00</totfact>
</mgrwt>
</event>
<event>
 4    5  0.7767175E-008  0.7161908E+03  0.7818608E-02  0.9935692E-01
         -1   -1    0    0    0  501 -0.00000000000E+00  0.00000000000E+00  0.79687343810E+03  0.79687343812E+03  0.50400000000E-02 0.  1.
          1   -1    0    0  501    0  0.00000000000E+00 -0.00000000000E+00 -0.41446238341E+03  0.41446238344E+03  0.50400000000E-02 0. -1.
    8880023    1    1    2    0    0  0.15580419800E+03 -0.23418831187E+03  0.49648195630E+03  0.87144916819E+03  0.65864270000E+03 0.  0.
    8880022    1    1    2    0    0 -0.15580419800E+03  0.23418831187E+03 -0.11407090161E+03  0.33988665337E+03  0.15294330000E+03 0.  1.
<mgrwt>
<rscale>  0 0.58562250E+03</rscale>
<asrwt>0</asrwt>
<pdfrwt beam="1">  1        1 0.63763444E-01 0.71619084E+03</pdfrwt>
<pdfrwt beam="2">  1       -1 0.12259591E+00 0.71619084E+03</pdfrwt>
<totfact> 0.34472075E+01</totfact>
</mgrwt>
</event>
<event>
 4    5  0.7767175E-008  0.8920799E+03  0.7818608E-02  0.9538867E-01
         -1   -1    0    0    0  501 -0.00000000000E+00  0.00000000000E+00  0.27705155831E+03  0.27705155835E+03  0.50400000000E-02 0.  1.
          1   -1    0    0  501    0  0.00000000000E+00 -0.00000000000E+00 -0.30533819387E+04  0.30533819387E+04  0.50400000000E-02 0. -1.
    8880023    1    1    2    0    0 -0.44101422882E+03  0.40927104961E+03 -0.61962427376E+03  0.10861587310E+04  0.65864270000E+03 0.  0.
    8880022    1    1    2    0    0  0.44101422882E+03 -0.40927104961E+03 -0.21567061066E+04  0.22442747660E+04  0.15294330000E+03 0.  0.
<mgrwt>
<rscale>  0 0.81477949E+03</rscale>
<asrwt>0</asrwt>
<pdfrwt beam="1">  1        1 0.46975104E+00 0.89207990E+03</pdfrwt>
<pdfrwt beam="2">  1       -1 0.42623319E-01 0.89207990E+03</pdfrwt>
<totfact> 0.30943554E+00</totfact>
</mgrwt>
</event>
<event>
 4    5  0.7767175E-008  0.1001834E+04  0.7818608E-02  0.9379162E-01
         -1   -1    0    0    0  501 -0.00000000000E+00  0.00000000000E+00  0.51758133911E+03  0.51758133914E+03  0.50400000000E-02 0.  1.
          1   -1    0    0  501    0  0.00000000000E+00 -0.00000000000E+00 -0.17108043925E+04  0.17108043925E+04  0.50400000000E-02 0. -1.
    8880023    1    1    2    0    0 -0.35557550139E+03  0.66590343000E+03 -0.29336443440E+03  0.10439033542E+04  0.65864270000E+03 0.  0.
    8880022    1    1    2    0    0  0.35557550139E+03 -0.66590343000E+03 -0.89985861897E+03  0.11844823774E+04  0.15294330000E+03 0.  0.
<mgrwt>
<rscale>  0 0.93810584E+03</rscale>
<asrwt>0</asrwt>
<pdfrwt beam="1">  1        1 0.26320067E+00 0.10018341E+04</pdfrwt>
<pdfrwt beam="2">  1       -1 0.79627899E-01 0.10018341E+04</pdfrwt>
<totfact> 0.74390292E+00</totfact>
</mgrwt>
</event>
<event>
 4    5  0.7767175E-008  0.9262595E+03  0.7818608E-02  0.9485127E-01
         -1   -1    0    0    0  501 -0.00000000000E+00  0.00000000000E+00  0.61539345058E+03  0.61539345060E+03  0.50400000000E-02 0.  1.
          1   -1    0    0  501    0  0.00000000000E+00 -0.00000000000E+00 -0.13017186078E+04  0.13017186078E+04  0.50400000000E-02 0. -1.
    8880023    1    1    2    0    0  0.64907945839E+03  0.53312847015E+02  0.43231941546E+02  0.92726781999E+03  0.65864270000E+03 0. -1.
    8880022    1    1    2    0    0 -0.64907945839E+03 -0.53312847015E+02 -0.72955709873E+03  0.98984423840E+03  0.15294330000E+03 0.  0.
<mgrwt>
<rscale>  0 0.85389259E+03</rscale>
<asrwt>0</asrwt>
<pdfrwt beam="1">  1        1 0.20026440E+00 0.92625947E+03</pdfrwt>
<pdfrwt beam="2">  1       -1 0.94675916E-01 0.92625947E+03</pdfrwt>
<totfact> 0.98540255E+00</totfact>
</mgrwt>
</event>
<event>
 4    5  0.7767175E-008  0.6650552E+03  0.7818608E-02  0.1019487E+00
         -1   -1    0    0    0  501 -0.00000000000E+00  0.00000000000E+00  0.97766151015E+03  0.97766151017E+03  0.50400000000E-02 0.  1.
          1   -1    0    0  501    0  0.00000000000E+00 -0.00000000000E+00 -0.15671683885E+04  0.15671683885E+04  0.50400000000E-02 0. -1.
    8880023    1    1    2    0    0  0.48736570366E+02  0.78185013149E+02  0.85843892050E+03  0.10859170024E+04  0.65864270000E+03 0.  1.
    8880022    1    1    2    0    0 -0.48736570366E+02 -0.78185013149E+02 -0.14479457988E+04  0.14589128963E+04  0.15294330000E+03 0.  0.
<mgrwt>
<rscale>  0 0.47872124E+03</rscale>
<asrwt>0</asrwt>
<pdfrwt beam="1">  1        1 0.24110283E+00 0.66505515E+03</pdfrwt>
<pdfrwt beam="2">  1       -1 0.15040946E+00 0.66505515E+03</pdfrwt>
<totfact> 0.21697243E+00</totfact>
</mgrwt>
</event>
<event>
 4    5  0.7767175E-008  0.7668413E+03  0.7818608E-02  0.9787708E-01
          1   -1    0    0  501    0  0.00000000000E+00  0.00000000000E+00  0.75981401107E+03  0.75981401109E+03  0.50400000000E-02 0. -1.
         -1   -1    0    0    0  501 -0.00000000000E+00 -0.00000000000E+00 -0.20992575982E+04  0.20992575982E+04  0.50400000000E-02 0.  1.
    8880023    1    1    2    0    0 -0.81981590379E+02  0.38407593466E+03 -0.19624185778E+04  0.21069248172E+04  0.65864270000E+03 0.  0.
    8880022    1    1    2    0    0  0.81981590379E+02 -0.38407593466E+03  0.62297499068E+03  0.75214679204E+03  0.15294330000E+03 0.  0.
<mgrwt>
<rscale>  0 0.66026414E+03</rscale>
<asrwt>0</asrwt>
<pdfrwt beam="1">  1        1 0.11689446E+00 0.76684126E+03</pdfrwt>
<pdfrwt beam="2">  1       -1 0.32296270E+00 0.76684126E+03</pdfrwt>
<totfact> 0.59513688E-01</totfact>
</mgrwt>
</event>
<event>
 4    5  0.7767175E-008  0.1533667E+04  0.7818608E-02  0.8886221E-01
          1   -1    0    0  501    0  0.00000000000E+00  0.00000000000E+00  0.87196588523E+03  0.87196588524E+03  0.50400000000E-02 0. -1.
         -1   -1    0    0    0  501 -0.00000000000E+00 -0.00000000000E+00 -0.26657252851E+04  0.26657252851E+04  0.50400000000E-02 0.  1.
    8880023    1    1    2    0    0 -0.12424152943E+04  0.61214999894E+03 -0.14314634279E+04  0.20979087531E+04  0.65864270000E+03 0.  1.
    8880022    1    1    2    0    0  0.12424152943E+04 -0.61214999894E+03 -0.36229597197E+03  0.14397824172E+04  0.15294330000E+03 0.  0.
<mgrwt>
<rscale>  0 0.14973435E+04</rscale>
<asrwt>0</asrwt>
<pdfrwt beam="1">  1        1 0.13414860E+00 0.15336667E+04</pdfrwt>
<pdfrwt beam="2">  1       -1 0.41011158E+00 0.15336667E+04</pdfrwt>
<totfact> 0.11135416E-01</totfact>
</mgrwt>
</event>
<event>
 4    5  0.7767175E-008  0.8337390E+03  0.7818608E-02  0.9642101E-01
         -1   -1    0    0    0  501 -0.00000000000E+00  0.00000000000E+00  0.59821140676E+03  0.59821140678E+03  0.50400000000E-02 0.  1.
          1   -1    0    0  501    0  0.00000000000E+00 -0.00000000000E+00 -0.17986907379E+04  0.17986907379E+04  0.50400000000E-02 0. -1.
    8880023    1    1    2    0    0 -0.49223603464E+03  0.13789183233E+03  0.23437014355E+03  0.86605429488E+03  0.65864270000E+03 0.  0.
    8880022    1    1    2    0    0  0.49223603464E+03 -0.13789183233E+03 -0.14348494747E+04  0.15308478498E+04  0.15294330000E+03 0.  0.
<mgrwt>
<rscale>  0 0.74571249E+03</rscale>
<asrwt>0</asrwt>
<pdfrwt beam="1">  1        1 0.27672165E+00 0.83373897E+03</pdfrwt>
<pdfrwt beam="2">  1       -1 0.92032525E-01 0.83373897E+03</pdfrwt>
<totfact> 0.48450798E+00</totfact>
</mgrwt>
</event>
<event>
 4    5  0.7767175E-008  0.1065856E+04  0.7818608E-02  0.9300059E-01
         -1   -1    0    0    0  501 -0.00000000000E+00  0.00000000000E+00  0.11345523898E+04  0.11345523898E+04  0.50400000000E-02 0.  1.
          1   -1    0    0  501    0  0.00000000000E+00 -0.00000000000E+00 -0.84143819004E+03  0.84143819005E+03  0.50400000000E-02 0. -1.
    8880023    1    1    2    0    0  0.59294922552E+03  0.59215745224E+03 -0.26443037678E+02  0.10661841646E+04  0.65864270000E+03 0. -1.
    8880022    1    1    2    0    0 -0.59294922552E+03 -0.59215745224E+03  0.31955723744E+03  0.90980641529E+03  0.15294330000E+03 0.  0.
<mgrwt>
<rscale>  0 0.10077747E+04</rscale>
<asrwt>0</asrwt>
<pdfrwt beam="1">  1        1 0.12945203E+00 0.10658562E+04</pdfrwt>
<pdfrwt beam="2">  1       -1 0.17454652E+00 0.10658562E+04</pdfrwt>
<totfact> 0.46216484E+00</totfact>
</mgrwt>
</event>
<event>
 4    5  0.7767175E-008  0.8798813E+03  0.7818608E-02  0.9559132E-01
         -1   -1    0    0    0  501 -0.00000000000E+00  0.00000000000E+00  0.13553645848E+04  0.13553645848E+04  0.50400000000E-02 0.  1.
          1   -1    0    0  501    0  0.00000000000E+00 -0.00000000000E+00 -0.54887574950E+03  0.54887574952E+03  0.50400000000E-02 0. -1.
    8880023    1    1    2    0    0  0.38283724431E+03  0.44024597841E+03  0.93889114480E+03  0.12867430455E+04  0.65864270000E+03 0.  0.
    8880022    1    1    2    0    0 -0.38283724431E+03 -0.44024597841E+03 -0.13240230949E+03  0.61749728883E+03  0.15294330000E+03 0.  0.
<mgrwt>
<rscale>  0 0.80061145E+03</rscale>
<asrwt>0</asrwt>
<pdfrwt beam="1">  1        1 0.84442424E-01 0.87988129E+03</pdfrwt>
<pdfrwt beam="2">  1       -1 0.20851763E+00 0.87988129E+03</pdfrwt>
<totfact> 0.52140753E+00</totfact>
</mgrwt>
</event>
<event>
 4    5  0.7767175E-008  0.7445437E+03  0.7818608E-02  0.9846904E-01
         -1   -1    0    0    0  501 -0.00000000000E+00  0.00000000000E+00  0.24559286068E+03  0.24559286073E+03  0.50400000000E-02 0.  1.
          1   -1    0    0  501    0  0.00000000000E+00 -0.00000000000E+00 -0.17450410702E+04  0.17450410702E+04  0.50400000000E-02 0. -1.
    8880023    1    1    2    0    0  0.26956507085E+03  0.21879170361E+03 -0.43891467398E+03  0.86428666210E+03  0.65864270000E+03 0.  1.
    8880022    1    1    2    0    0 -0.26956507085E+03 -0.21879170361E+03 -0.10605335356E+04  0.11263472689E+04  0.15294330000E+03 0.  0.
<mgrwt>
<rscale>  0 0.62905027E+03</rscale>
<asrwt>0</asrwt>
<pdfrwt beam="1">  1        1 0.26846785E+00 0.74454371E+03</pdfrwt>
<pdfrwt beam="2">  1       -1 0.37783518E-01 0.74454371E+03</pdfrwt>
<totfact> 0.31060676E+01</totfact>
</mgrwt>
</event>
<event>
 4    5  0.7767175E-008  0.6972146E+03  0.7818608E-02  0.1000896E+00
         -1   -1    0    0    0  501 -0.00000000000E+00  0.00000000000E+00  0.44250454071E+03  0.44250454074E+03  0.50400000000E-02 0.  1.
          1   -1    0    0  501    0  0.00000000000E+00 -0.00000000000E+00 -0.12562165376E+04  0.12562165376E+04  0.50400000000E-02 0. -1.
    8880023    1    1    2    0    0 -0.87514947264E+02 -0.21127978493E+03  0.13565964048E+03  0.71028991111E+03  0.65864270000E+03 0.  0.
    8880022    1    1    2    0    0  0.87514947264E+02  0.21127978493E+03 -0.94937163732E+03  0.98843116719E+03  0.15294330000E+03 0.  0.
<mgrwt>
<rscale>  0 0.55259180E+03</rscale>
<asrwt>0</asrwt>
<pdfrwt beam="1">  1        1 0.19326408E+00 0.69721462E+03</pdfrwt>
<pdfrwt beam="2">  1       -1 0.68077622E-01 0.69721462E+03</pdfrwt>
<totfact> 0.22058922E+01</totfact>
</mgrwt>
</event>
<event>
 4    5  0.7767175E-008  0.8280683E+03  0.7818608E-02  0.9653103E-01
          1   -1    0    0  501    0  0.00000000000E+00  0.00000000000E+00  0.75404413178E+03  0.75404413179E+03  0.50400000000E-02 0. -1.
         -1   -1    0    0    0  501 -0.00000000000E+00 -0.00000000000E+00 -0.87312718524E+03  0.87312718525E+03  0.50400000000E-02 0.  1.
    8880023    1    1    2    0    0  0.48367468993E+03  0.13396156705E+03 -0.51032161979E+03  0.97268970850E+03  0.65864270000E+03 0.  0.
    8880022    1    1    2    0    0 -0.48367468993E+03 -0.13396156705E+03  0.39123856633E+03  0.65448160855E+03  0.15294330000E+03 0.  0.
<mgrwt>
<rscale>  0 0.73879027E+03</rscale>
<asrwt>0</asrwt>
<pdfrwt beam="1">  1        1 0.11600679E+00 0.82806830E+03</pdfrwt>
<pdfrwt beam="2">  1       -1 0.13432726E+00 0.82806830E+03</pdfrwt>
<totfact> 0.11562557E+01</totfact>
</mgrwt>
</event>
<event>
 4    5  0.7767175E-008  0.7608702E+03  0.7818608E-02  0.9802860E-01
         -1   -1    0    0    0  501 -0.00000000000E+00  0.00000000000E+00  0.12306440408E+04  0.12306440409E+04  0.50400000000E-02 0.  1.
          1   -1    0    0  501    0  0.00000000000E+00 -0.00000000000E+00 -0.34901929370E+03  0.34901929374E+03  0.50400000000E-02 0. -1.
    8880023    1    1    2    0    0 -0.28953527907E+03  0.24755326132E+03  0.88765474534E+03  0.11691255058E+04  0.65864270000E+03 0.  1.
    8880022    1    1    2    0    0  0.28953527907E+03 -0.24755326132E+03 -0.60299981945E+01  0.41053782884E+03  0.15294330000E+03 0. -1.
<mgrwt>
<rscale>  0 0.65209298E+03</rscale>
<asrwt>0</asrwt>
<pdfrwt beam="1">  1        1 0.53695276E-01 0.76087023E+03</pdfrwt>
<pdfrwt beam="2">  1       -1 0.18932985E+00 0.76087023E+03</pdfrwt>
<totfact> 0.13197684E+01</totfact>
</mgrwt>
</event>
<event>
 4    5  0.7767175E-008  0.7094524E+03  0.7818608E-02  0.9960040E-01
         -1   -1    0    0    0  501 -0.00000000000E+00  0.00000000000E+00  0.12363310521E+04  0.12363310521E+04  0.50400000000E-02 0.  1.
          1   -1    0    0  501    0  0.00000000000E+00 -0.00000000000E+00 -0.14367552416E+04  0.14367552416E+04  0.50400000000E-02 0. -1.
    8880023    1    1    2    0    0  0.23125511517E+03 -0.12662363334E+03  0.11156822266E+04  0.13221457975E+04  0.65864270000E+03 0.  1.
    8880022    1    1    2    0    0 -0.23125511517E+03  0.12662363334E+03 -0.13161064161E+04  0.13509404962E+04  0.15294330000E+03 0.  0.
<mgrwt>
<rscale>  0 0.57437670E+03</rscale>
<asrwt>0</asrwt>
<pdfrwt beam="1">  1        1 0.22103927E+00 0.70945238E+03</pdfrwt>
<pdfrwt beam="2">  1       -1 0.19020478E+00 0.70945238E+03</pdfrwt>
<totfact> 0.13498026E+00</totfact>
</mgrwt>
</event>
<event>
 4    5  0.7767175E-008  0.1243468E+04  0.7818608E-02  0.9115984E-01
         -1   -1    0    0    0  501 -0.00000000000E+00  0.00000000000E+00  0.78336828655E+03  0.78336828657E+03  0.50400000000E-02 0.  1.
          1   -1    0    0  501    0  0.00000000000E+00 -0.00000000000E+00 -0.28129271205E+04  0.28129271205E+04  0.50400000000E-02 0. -1.
    8880023    1    1    2    0    0  0.75822954773E+03 -0.73313774113E+03  0.66090299109E+02  0.12452233247E+04  0.65864270000E+03 0.  0.
    8880022    1    1    2    0    0 -0.75822954773E+03  0.73313774113E+03 -0.20956491330E+04  0.23510720823E+04  0.15294330000E+03 0.  0.
<mgrwt>
<rscale>  0 0.11964333E+04</rscale>
<asrwt>0</asrwt>
<pdfrwt beam="1">  1        1 0.43275801E+00 0.12434682E+04</pdfrwt>
<pdfrwt beam="2">  1       -1 0.12051820E+00 0.12434682E+04</pdfrwt>
<totfact> 0.49274439E-01</totfact>
</mgrwt>
</event>
<event>
 4    5  0.7767175E-008  0.8462961E+03  0.7818608E-02  0.9618421E-01
          1   -1    0    0  501    0  0.00000000000E+00  0.00000000000E+00  0.14774306819E+04  0.14774306819E+04  0.50400000000E-02 0. -1.
         -1   -1    0    0    0  501 -0.00000000000E+00 -0.00000000000E+00 -0.10800781191E+04  0.10800781191E+04  0.50400000000E-02 0.  1.
    8880023    1    1    2    0    0  0.27627882841E+03 -0.45395691679E+03 -0.84605802140E+03  0.11966750834E+04  0.65864270000E+03 0.  0.
    8880022    1    1    2    0    0 -0.27627882841E+03  0.45395691679E+03  0.12434105841E+04  0.13608337176E+04  0.15294330000E+03 0.  0.
<mgrwt>
<rscale>  0 0.76088877E+03</rscale>
<asrwt>0</asrwt>
<pdfrwt beam="1">  1        1 0.22729703E+00 0.84629609E+03</pdfrwt>
<pdfrwt beam="2">  1       -1 0.16616586E+00 0.84629609E+03</pdfrwt>
<totfact> 0.18343051E+00</totfact>
</mgrwt>
</event>
<event>
 4    5  0.7767175E-008  0.1193441E+04  0.7818608E-02  0.9163525E-01
         -1   -1    0    0    0  501 -0.00000000000E+00  0.00000000000E+00  0.10178324100E+04  0.10178324100E+04  0.50400000000E-02 0.  1.
          1   -1    0    0  501    0  0.00000000000E+00 -0.00000000000E+00 -0.34462265350E+04  0.34462265350E+04  0.50400000000E-02 0. -1.
    8880023    1    1    2    0    0  0.54588370599E+03 -0.83216705893E+03  0.55437668677E+03  0.13159159363E+04  0.65864270000E+03 0.  0.
    8880022    1    1    2    0    0 -0.54588370599E+03  0.83216705893E+03 -0.29827708118E+04  0.31481430087E+04  0.15294330000E+03 0.  0.
<mgrwt>
<rscale>  0 0.11437975E+04</rscale>
<asrwt>0</asrwt>
<pdfrwt beam="1">  1        1 0.53018869E+00 0.11934409E+04</pdfrwt>
<pdfrwt beam="2">  1       -1 0.15658960E+00 0.11934409E+04</pdfrwt>
<totfact> 0.85515850E-02</totfact>
</mgrwt>
</event>
<event>
 4    5  0.7767175E-008  0.1055946E+04  0.7818608E-02  0.9311767E-01
          1   -1    0    0  501    0  0.00000000000E+00  0.00000000000E+00  0.24704450874E+04  0.24704450874E+04  0.50400000000E-02 0. -1.
         -1   -1    0    0    0  501 -0.00000000000E+00 -0.00000000000E+00 -0.49182313236E+03  0.49182313239E+03  0.50400000000E-02 0.  1.
    8880023    1    1    2    0    0 -0.82112149828E+03  0.83497933634E+02  0.32005523787E+03  0.11033847839E+04  0.65864270000E+03 0.  0.
    8880022    1    1    2    0    0  0.82112149828E+03 -0.83497933634E+02  0.16585667172E+04  0.18588834359E+04  0.15294330000E+03 0. -1.
<mgrwt>
<rscale>  0 0.99706742E+03</rscale>
<asrwt>0</asrwt>
<pdfrwt beam="1">  1        1 0.38006849E+00 0.10559463E+04</pdfrwt>
<pdfrwt beam="2">  1       -1 0.75665095E-01 0.10559463E+04</pdfrwt>
<totfact> 0.25184385E+00</totfact>
</mgrwt>
</event>
<event>
 4    5  0.7767175E-008  0.7451756E+03  0.7818608E-02  0.9845119E-01
          1   -1    0    0  501    0  0.00000000000E+00  0.00000000000E+00  0.93413789054E+03  0.93413789055E+03  0.50400000000E-02 0. -1.
         -1   -1    0    0    0  501 -0.00000000000E+00 -0.00000000000E+00 -0.38866097649E+03  0.38866097652E+03  0.50400000000E-02 0.  1.
    8880023    1    1    2    0    0 -0.16844767472E+03 -0.30512607463E+03  0.12490779673E+03  0.75557177322E+03  0.65864270000E+03 0.  0.
    8880022    1    1    2    0    0  0.16844767472E+03  0.30512607463E+03  0.42056911732E+03  0.56722709385E+03  0.15294330000E+03 0.  0.
<mgrwt>
<rscale>  0 0.62996384E+03</rscale>
<asrwt>0</asrwt>
<pdfrwt beam="1">  1        1 0.14371352E+00 0.74517565E+03</pdfrwt>
<pdfrwt beam="2">  1       -1 0.59793997E-01 0.74517565E+03</pdfrwt>
<totfact> 0.49573734E+01</totfact>
</mgrwt>
</event>
<event>
 4    5  0.7767175E-008  0.7598455E+03  0.7818608E-02  0.9805508E-01
          1   -1    0    0  501    0  0.00000000000E+00  0.00000000000E+00  0.14212902731E+04  0.14212902731E+04  0.50400000000E-02 0. -1.
         -1   -1    0    0    0  501 -0.00000000000E+00 -0.00000000000E+00 -0.83655929468E+03  0.83655929469E+03  0.50400000000E-02 0.  1.
    8880023    1    1    2    0    0 -0.27378089052E+03  0.26191424083E+03 -0.62317647412E+03  0.98270757081E+03  0.65864270000E+03 0.  1.
    8880022    1    1    2    0    0  0.27378089052E+03 -0.26191424083E+03  0.12079074525E+04  0.12751419970E+04  0.15294330000E+03 0.  0.
<mgrwt>
<rscale>  0 0.65067815E+03</rscale>
<asrwt>0</asrwt>
<pdfrwt beam="1">  1        1 0.21866004E+00 0.75984554E+03</pdfrwt>
<pdfrwt beam="2">  1       -1 0.12870143E+00 0.75984554E+03</pdfrwt>
<totfact> 0.40167415E+00</totfact>
</mgrwt>
</event>
<event>
 4    5  0.7767175E-008  0.9863680E+03  0.7818608E-02  0.9399614E-01
         -1   -1    0    0    0  501 -0.00000000000E+00  0.00000000000E+00  0.80757203514E+03  0.80757203516E+03  0.50400000000E-02 0.  1.
          1   -1    0    0  501    0  0.00000000000E+00 -0.00000000000E+00 -0.27798409599E+04  0.27798409599E+04  0.50400000000E-02 0. -1.
    8880023    1    1    2    0    0 -0.39468702240E+03 -0.61913956051E+03  0.42613123344E+03  0.10744811192E+04  0.65864270000E+03 0.  0.
    8880022    1    1    2    0    0  0.39468702240E+03  0.61913956051E+03 -0.23984001582E+04  0.25129318759E+04  0.15294330000E+03 0.  0.
<mgrwt>
<rscale>  0 0.92107473E+03</rscale>
<asrwt>0</asrwt>
<pdfrwt beam="1">  1        1 0.42766784E+00 0.98636801E+03</pdfrwt>
<pdfrwt beam="2">  1       -1 0.12424185E+00 0.98636801E+03</pdfrwt>
<totfact> 0.50211145E-01</totfact>
</mgrwt>
</event>
<event>
 4    5  0.7767175E-008  0.1227985E+04  0.7818608E-02  0.9130388E-01
         -1   -1    0    0    0  501 -0.00000000000E+00  0.00000000000E+00  0.10486056728E+04  0.10486056728E+04  0.50400000000E-02 0.  1.
          1   -1    0    0  501    0  0.00000000000E+00 -0.00000000000E+00 -0.22801987741E+04  0.22801987741E+04  0.50400000000E-02 0. -1.
    8880023    1    1    2    0    0 -0.32915103872E+03 -0.98274958044E+03  0.48294048158E+03  0.13195373656E+04  0.65864270000E+03 0.  1.
    8880022    1    1    2    0    0  0.32915103872E+03  0.98274958044E+03 -0.17145335829E+04  0.20092670813E+04  0.15294330000E+03 0.  0.
<mgrwt>
<rscale>  0 0.11801761E+04</rscale>
<asrwt>0</asrwt>
<pdfrwt beam="1">  1        1 0.35079981E+00 0.12279851E+04</pdfrwt>
<pdfrwt beam="2">  1       -1 0.16132395E+00 0.12279851E+04</pdfrwt>
<totfact> 0.53770743E-01</totfact>
</mgrwt>
</event>
<event>
 4    5  0.7767175E-008  0.1064067E+04  0.7818608E-02  0.9302159E-01
          1   -1    0    0  501    0  0.00000000000E+00  0.00000000000E+00  0.19830420288E+04  0.19830420288E+04  0.50400000000E-02 0. -1.
         -1   -1    0    0    0  501 -0.00000000000E+00 -0.00000000000E+00 -0.79256641554E+03  0.79256641556E+03  0.50400000000E-02 0.  1.
    8880023    1    1    2    0    0 -0.71028471297E+03  0.44036852991E+03 -0.25932262504E+03  0.10952110508E+04  0.65864270000E+03 0.  0.
    8880022    1    1    2    0    0  0.71028471297E+03 -0.44036852991E+03  0.14497982383E+04  0.16803973936E+04  0.15294330000E+03 0.  0.
<mgrwt>
<rscale>  0 0.10058436E+04</rscale>
<asrwt>0</asrwt>
<pdfrwt beam="1">  1        1 0.30508339E+00 0.10640672E+04</pdfrwt>
<pdfrwt beam="2">  1       -1 0.12193330E+00 0.10640672E+04</pdfrwt>
<totfact> 0.18242506E+00</totfact>
</mgrwt>
</event>
<event>
 4    5  0.7767175E-008  0.7004915E+03  0.7818608E-02  0.9995169E-01
         -1   -1    0    0    0  501 -0.00000000000E+00  0.00000000000E+00  0.22169269045E+03  0.22169269051E+03  0.50400000000E-02 0.  1.
          1   -1    0    0  501    0  0.00000000000E+00 -0.00000000000E+00 -0.26172578856E+04  0.26172578856E+04  0.50400000000E-02 0. -1.
    8880023    1    1    2    0    0 -0.47067118298E+02  0.23380067210E+03 -0.36721266877E+03  0.79090670642E+03  0.65864270000E+03 0.  1.
    8880022    1    1    2    0    0  0.47067118298E+02 -0.23380067210E+03 -0.20283525264E+04  0.20480438697E+04  0.15294330000E+03 0.  0.
<mgrwt>
<rscale>  0 0.55862594E+03</rscale>
<asrwt>0</asrwt>
<pdfrwt beam="1">  1        1 0.40265504E+00 0.70049145E+03</pdfrwt>
<pdfrwt beam="2">  1       -1 0.34106570E-01 0.70049145E+03</pdfrwt>
<totfact> 0.97100842E+00</totfact>
</mgrwt>
</event>
<event>
 4    5  0.7767175E-008  0.8418261E+03  0.7818608E-02  0.9626746E-01
         -1   -1    0    0    0  501 -0.00000000000E+00  0.00000000000E+00  0.78631261975E+03  0.78631261976E+03  0.50400000000E-02 0.  1.
          1   -1    0    0  501    0  0.00000000000E+00 -0.00000000000E+00 -0.23540613914E+04  0.23540613914E+04  0.50400000000E-02 0. -1.
    8880023    1    1    2    0    0  0.32056801040E+03  0.41484597317E+03  0.51523693993E+03  0.98698548180E+03  0.65864270000E+03 0.  1.
    8880022    1    1    2    0    0 -0.32056801040E+03 -0.41484597317E+03 -0.20829857116E+04  0.21533885294E+04  0.15294330000E+03 0.  0.
<mgrwt>
<rscale>  0 0.75550936E+03</rscale>
<asrwt>0</asrwt>
<pdfrwt beam="1">  1        1 0.36216329E+00 0.84182613E+03</pdfrwt>
<pdfrwt beam="2">  1       -1 0.12097117E+00 0.84182613E+03</pdfrwt>
<totfact> 0.10831909E+00</totfact>
</mgrwt>
</event>
<event>
 4    5  0.7767175E-008  0.7227809E+03  0.7818608E-02  0.9913286E-01
          1   -1    0    0  501    0  0.00000000000E+00  0.00000000000E+00  0.11983735785E+04  0.11983735785E+04  0.50400000000E-02 0. -1.
         -1   -1    0    0    0  501 -0.00000000000E+00 -0.00000000000E+00 -0.47489880220E+03  0.47489880222E+03  0.50400000000E-02 0.  1.
    8880023    1    1    2    0    0 -0.48234999483E+01 -0.29762183275E+03 -0.14973792140E+03  0.73812849345E+03  0.65864270000E+03 0.  0.
    8880022    1    1    2    0    0  0.48234999483E+01  0.29762183275E+03  0.87321269771E+03  0.93514388729E+03  0.15294330000E+03 0.  0.
<mgrwt>
<rscale>  0 0.59621677E+03</rscale>
<asrwt>0</asrwt>
<pdfrwt beam="1">  1        1 0.18436517E+00 0.72278090E+03</pdfrwt>
<pdfrwt beam="2">  1       -1 0.73061354E-01 0.72278090E+03</pdfrwt>
<totfact> 0.20930709E+01</totfact>
</mgrwt>
</event>
<event>
 4    5  0.7767175E-008  0.7555024E+03  0.7818608E-02  0.9816894E-01
          1   -1    0    0  501    0  0.00000000000E+00  0.00000000000E+00  0.18251542653E+04  0.18251542653E+04  0.50400000000E-02 0. -1.
         -1   -1    0    0    0  501 -0.00000000000E+00 -0.00000000000E+00 -0.35377211062E+03  0.35377211066E+03  0.50400000000E-02 0.  1.
    8880023    1    1    2    0    0 -0.33146501392E+03  0.16463472389E+03  0.11443217049E+03  0.76411947735E+03  0.65864270000E+03 0.  1.
    8880022    1    1    2    0    0  0.33146501392E+03 -0.16463472389E+03  0.13569499842E+04  0.14148068986E+04  0.15294330000E+03 0.  0.
<mgrwt>
<rscale>  0 0.64463767E+03</rscale>
<asrwt>0</asrwt>
<pdfrwt beam="1">  1        1 0.28079296E+00 0.75550239E+03</pdfrwt>
<pdfrwt beam="2">  1       -1 0.54426479E-01 0.75550239E+03</pdfrwt>
<totfact> 0.13893787E+01</totfact>
</mgrwt>
</event>
<event>
 4    5  0.7767175E-008  0.7191697E+03  0.7818608E-02  0.9925405E-01
          1   -1    0    0  501    0  0.00000000000E+00  0.00000000000E+00  0.50517025996E+03  0.50517025999E+03  0.50400000000E-02 0. -1.
         -1   -1    0    0    0  501 -0.00000000000E+00 -0.00000000000E+00 -0.72455338384E+03  0.72455338385E+03  0.50400000000E-02 0.  1.
    8880023    1    1    2    0    0 -0.17587063893E+03 -0.22905101584E+03 -0.43286331149E+03  0.83939007749E+03  0.65864270000E+03 0.  1.
    8880022    1    1    2    0    0  0.17587063893E+03  0.22905101584E+03  0.21348018762E+03  0.39033356635E+03  0.15294330000E+03 0.  0.
<mgrwt>
<rscale>  0 0.59045674E+03</rscale>
<asrwt>0</asrwt>
<pdfrwt beam="1">  1        1 0.77718501E-01 0.71916970E+03</pdfrwt>
<pdfrwt beam="2">  1       -1 0.11146975E+00 0.71916970E+03</pdfrwt>
<totfact> 0.33167942E+01</totfact>
</mgrwt>
</event>
<event>
 4    5  0.7767175E-008  0.6934286E+03  0.7818608E-02  0.1002564E+00
          1   -1    0    0  501    0  0.00000000000E+00  0.00000000000E+00  0.69184338130E+03  0.69184338131E+03  0.50400000000E-02 0. -1.
         -1   -1    0    0    0  501 -0.00000000000E+00 -0.00000000000E+00 -0.64641782474E+03  0.64641782475E+03  0.50400000000E-02 0.  1.
    8880023    1    1    2    0    0 -0.81605026884E+02 -0.20093202480E+03 -0.41406195009E+03  0.80764507290E+03  0.65864270000E+03 0.  1.
    8880022    1    1    2    0    0  0.81605026884E+02  0.20093202480E+03  0.45948750665E+03  0.53061613317E+03  0.15294330000E+03 0.  0.
<mgrwt>
<rscale>  0 0.54540230E+03</rscale>
<asrwt>0</asrwt>
<pdfrwt beam="1">  1        1 0.10643744E+00 0.69342863E+03</pdfrwt>
<pdfrwt beam="2">  1       -1 0.99448896E-01 0.69342863E+03</pdfrwt>
<totfact> 0.27616583E+01</totfact>
</mgrwt>
</event>
<event>
 4    5  0.7767175E-008  0.7211395E+03  0.7818608E-02  0.9918749E-01
         -1   -1    0    0    0  501 -0.00000000000E+00  0.00000000000E+00  0.40449498076E+03  0.40449498079E+03  0.50400000000E-02 0.  1.
          1   -1    0    0  501    0  0.00000000000E+00 -0.00000000000E+00 -0.15870440494E+04  0.15870440494E+04  0.50400000000E-02 0. -1.
    8880023    1    1    2    0    0  0.26211334736E+03 -0.13239537668E+03  0.42641754049E+02  0.72239910581E+03  0.65864270000E+03 0.  1.
    8880022    1    1    2    0    0 -0.26211334736E+03  0.13239537668E+03 -0.12251908227E+04  0.12691399244E+04  0.15294330000E+03 0.  0.
<mgrwt>
<rscale>  0 0.59361171E+03</rscale>
<asrwt>0</asrwt>
<pdfrwt beam="1">  1        1 0.24416062E+00 0.72113948E+03</pdfrwt>
<pdfrwt beam="2">  1       -1 0.62229998E-01 0.72113948E+03</pdfrwt>
<totfact> 0.15537080E+01</totfact>
</mgrwt>
</event>
<event>
 4    5  0.7767175E-008  0.7376052E+03  0.7818608E-02  0.9866979E-01
          1   -1    0    0  501    0  0.00000000000E+00  0.00000000000E+00  0.22261810330E+04  0.22261810330E+04  0.50400000000E-02 0. -1.
         -1   -1    0    0    0  501 -0.00000000000E+00 -0.00000000000E+00 -0.30192193663E+03  0.30192193667E+03  0.50400000000E-02 0.  1.
    8880023    1    1    2    0    0  0.27974127436E+03  0.17887449497E+03  0.19822062929E+03  0.76377541835E+03  0.65864270000E+03 0.  1.
    8880022    1    1    2    0    0 -0.27974127436E+03 -0.17887449497E+03  0.17260384671E+04  0.17643275513E+04  0.15294330000E+03 0.  0.
<mgrwt>
<rscale>  0 0.61888682E+03</rscale>
<asrwt>0</asrwt>
<pdfrwt beam="1">  1        1 0.34248939E+00 0.73760523E+03</pdfrwt>
<pdfrwt beam="2">  1       -1 0.46449529E-01 0.73760523E+03</pdfrwt>
<totfact> 0.10143126E+01</totfact>
</mgrwt>
</event>
<event>
 4    5  0.7767175E-008  0.6678831E+03  0.7818608E-02  0.1017228E+00
         -1   -1    0    0    0  501 -0.00000000000E+00  0.00000000000E+00  0.88487027828E+03  0.88487027829E+03  0.50400000000E-02 0.  1.
          1   -1    0    0  501    0  0.00000000000E+00 -0.00000000000E+00 -0.28818650085E+03  0.28818650089E+03  0.50400000000E-02 0. -1.
    8880023    1    1    2    0    0  0.80187873065E+02  0.76337892799E+02  0.69184438516E+03  0.96162176993E+03  0.65864270000E+03 0.  1.
    8880022    1    1    2    0    0 -0.80187873065E+02 -0.76337892799E+02 -0.95160607727E+02  0.21143500926E+03  0.15294330000E+03 0.  0.
<mgrwt>
<rscale>  0 0.48700293E+03</rscale>
<asrwt>0</asrwt>
<pdfrwt beam="1">  1        1 0.44336385E-01 0.66788305E+03</pdfrwt>
<pdfrwt beam="2">  1       -1 0.13613389E+00 0.66788305E+03</pdfrwt>
<totfact> 0.42826370E+01</totfact>
</mgrwt>
</event>
<event>
 4    5  0.7767175E-008  0.8804365E+03  0.7818608E-02  0.9558197E-01
         -1   -1    0    0    0  501 -0.00000000000E+00  0.00000000000E+00  0.61788329983E+03  0.61788329985E+03  0.50400000000E-02 0.  1.
          1   -1    0    0  501    0  0.00000000000E+00 -0.00000000000E+00 -0.96838067322E+03  0.96838067324E+03  0.50400000000E-02 0. -1.
    8880023    1    1    2    0    0 -0.46446372192E+03 -0.35444551289E+03  0.14567738346E+02  0.88055698047E+03  0.65864270000E+03 0. -1.
    8880022    1    1    2    0    0  0.46446372192E+03  0.35444551289E+03 -0.36506511174E+03  0.70570699261E+03  0.15294330000E+03 0.  0.
<mgrwt>
<rscale>  0 0.80125897E+03</rscale>
<asrwt>0</asrwt>
<pdfrwt beam="1">  1        1 0.14898164E+00 0.88043647E+03</pdfrwt>
<pdfrwt beam="2">  1       -1 0.95058970E-01 0.88043647E+03</pdfrwt>
<totfact> 0.17381342E+01</totfact>
</mgrwt>
</event>
<event>
 4    5  0.7767175E-008  0.1084470E+04  0.7818608E-02  0.9278547E-01
         -1   -1    0    0    0  501 -0.00000000000E+00  0.00000000000E+00  0.71242538618E+03  0.71242538619E+03  0.50400000000E-02 0.  1.
          1   -1    0    0  501    0  0.00000000000E+00 -0.00000000000E+00 -0.24133973335E+04  0.24133973335E+04  0.50400000000E-02 0. -1.
    8880023    1    1    2    0    0 -0.44194170721E+03 -0.73956180276E+03  0.13417779111E+03  0.10927387696E+04  0.65864270000E+03 0.  1.
    8880022    1    1    2    0    0  0.44194170721E+03  0.73956180276E+03 -0.18351497384E+04  0.20330839501E+04  0.15294330000E+03 0.  0.
<mgrwt>
<rscale>  0 0.10278204E+04</rscale>
<asrwt>0</asrwt>
<pdfrwt beam="1">  1        1 0.37129189E+00 0.10844696E+04</pdfrwt>
<pdfrwt beam="2">  1       -1 0.10960391E+00 0.10844696E+04</pdfrwt>
<totfact> 0.12022061E+00</totfact>
</mgrwt>
</event>
<event>
 4    5  0.7767175E-008  0.1502107E+04  0.7818608E-02  0.8908149E-01
         -1   -1    0    0    0  501 -0.00000000000E+00  0.00000000000E+00  0.11733869904E+04  0.11733869905E+04  0.50400000000E-02 0.  1.
          1   -1    0    0  501    0  0.00000000000E+00 -0.00000000000E+00 -0.28956653767E+04  0.28956653767E+04  0.50400000000E-02 0. -1.
    8880023    1    1    2    0    0 -0.79732123504E+03  0.10894012417E+04  0.39515688622E+03  0.15532145339E+04  0.65864270000E+03 0.  0.
    8880022    1    1    2    0    0  0.79732123504E+03 -0.10894012417E+04 -0.21174352725E+04  0.25158378333E+04  0.15294330000E+03 0.  0.
<mgrwt>
<rscale>  0 0.14648798E+04</rscale>
<asrwt>0</asrwt>
<pdfrwt beam="1">  1        1 0.44548698E+00 0.15021073E+04</pdfrwt>
<pdfrwt beam="2">  1       -1 0.18052108E+00 0.15021073E+04</pdfrwt>
<totfact> 0.13920849E-01</totfact>
</mgrwt>
</event>
<event>
 4    5  0.7767175E-008  0.8255904E+03  0.7818608E-02  0.9657974E-01
         -1   -1    0    0    0  501 -0.00000000000E+00  0.00000000000E+00  0.49378391188E+03  0.49378391190E+03  0.50400000000E-02 0.  1.
          1   -1    0    0  501    0  0.00000000000E+00 -0.00000000000E+00 -0.12872894412E+04  0.12872894412E+04  0.50400000000E-02 0. -1.
    8880023    1    1    2    0    0  0.10372695755E+03 -0.48685730564E+03  0.75566409229E+01  0.82562499166E+03  0.65864270000E+03 0.  1.
    8880022    1    1    2    0    0 -0.10372695755E+03  0.48685730564E+03 -0.80106217021E+03  0.95544836141E+03  0.15294330000E+03 0.  0.
<mgrwt>
<rscale>  0 0.73575103E+03</rscale>
<asrwt>0</asrwt>
<pdfrwt beam="1">  1        1 0.19804453E+00 0.82559041E+03</pdfrwt>
<pdfrwt beam="2">  1       -1 0.75966756E-01 0.82559041E+03</pdfrwt>
<totfact> 0.16452658E+01</totfact>
</mgrwt>
</event>
<event>
 4    5  0.7767175E-008  0.9546351E+03  0.7818608E-02  0.9443476E-01
          1   -1    0    0  501    0  0.00000000000E+00  0.00000000000E+00  0.85809701117E+03  0.85809701119E+03  0.50400000000E-02 0. -1.
         -1   -1    0    0    0  501 -0.00000000000E+00 -0.00000000000E+00 -0.97616050493E+03  0.97616050494E+03  0.50400000000E-02 0.  1.
    8880023    1    1    2    0    0  0.20948916711E+03 -0.65850762967E+03 -0.44664303898E+03  0.10539536138E+04  0.65864270000E+03 0.  0.
    8880022    1    1    2    0    0 -0.20948916711E+03  0.65850762967E+03  0.32857954523E+03  0.78030390235E+03  0.15294330000E+03 0.  0.
<mgrwt>
<rscale>  0 0.88582510E+03</rscale>
<asrwt>0</asrwt>
<pdfrwt beam="1">  1        1 0.13201492E+00 0.95463512E+03</pdfrwt>
<pdfrwt beam="2">  1       -1 0.15017854E+00 0.95463512E+03</pdfrwt>
<totfact> 0.69068511E+00</totfact>
</mgrwt>
</event>
<event>
 4    5  0.7767175E-008  0.1220332E+04  0.7818608E-02  0.9137608E-01
          1   -1    0    0  501    0  0.00000000000E+00  0.00000000000E+00  0.18028440440E+04  0.18028440440E+04  0.50400000000E-02 0. -1.
         -1   -1    0    0    0  501 -0.00000000000E+00 -0.00000000000E+00 -0.11094724100E+04  0.11094724100E+04  0.50400000000E-02 0.  1.
    8880023    1    1    2    0    0  0.10270652945E+04  0.23145342510E+02 -0.51007119304E+03  0.13226419222E+04  0.65864270000E+03 0. -1.
    8880022    1    1    2    0    0 -0.10270652945E+04 -0.23145342510E+02  0.12034428271E+04  0.15896745318E+04  0.15294330000E+03 0.  0.
<mgrwt>
<rscale>  0 0.11721293E+04</rscale>
<asrwt>0</asrwt>
<pdfrwt beam="1">  1        1 0.27736062E+00 0.12203315E+04</pdfrwt>
<pdfrwt beam="2">  1       -1 0.17068806E+00 0.12203315E+04</pdfrwt>
<totfact> 0.96529635E-01</totfact>
</mgrwt>
</event>
<event>
 4    5  0.7767175E-008  0.6890862E+03  0.7818608E-02  0.1004590E+00
          1   -1    0    0  501    0  0.00000000000E+00  0.00000000000E+00  0.29887320018E+03  0.29887320023E+03  0.50400000000E-02 0. -1.
         -1   -1    0    0    0  501 -0.00000000000E+00 -0.00000000000E+00 -0.11869923669E+04  0.11869923669E+04  0.50400000000E-02 0.  1.
    8880023    1    1    2    0    0 -0.27732053162E+02 -0.20065024122E+03 -0.99512419019E+03  0.12104180874E+04  0.65864270000E+03 0.  1.
    8880022    1    1    2    0    0  0.27732053162E+02  0.20065024122E+03  0.10700502344E+03  0.27544747980E+03  0.15294330000E+03 0.  0.
<mgrwt>
<rscale>  0 0.53682632E+03</rscale>
<asrwt>0</asrwt>
<pdfrwt beam="1">  1        1 0.45980493E-01 0.68908620E+03</pdfrwt>
<pdfrwt beam="2">  1       -1 0.18261421E+00 0.68908620E+03</pdfrwt>
<totfact> 0.18150194E+01</totfact>
</mgrwt>
</event>
<event>
 4    5  0.7767175E-008  0.8169621E+03  0.7818608E-02  0.9675254E-01
          1   -1    0    0  501    0  0.00000000000E+00  0.00000000000E+00  0.24994604812E+04  0.24994604812E+04  0.50400000000E-02 0. -1.
         -1   -1    0    0    0  501 -0.00000000000E+00 -0.00000000000E+00 -0.51233326877E+03  0.51233326880E+03  0.50400000000E-02 0.  1.
    8880023    1    1    2    0    0 -0.46783017959E+03  0.12145667500E+03 -0.13668137486E+03  0.82831685081E+03  0.65864270000E+03 0.  1.
    8880022    1    1    2    0    0  0.46783017959E+03 -0.12145667500E+03  0.21238085872E+04  0.21834768992E+04  0.15294330000E+03 0.  0.
<mgrwt>
<rscale>  0 0.72509489E+03</rscale>
<asrwt>0</asrwt>
<pdfrwt beam="1">  1        1 0.38453238E+00 0.81696206E+03</pdfrwt>
<pdfrwt beam="2">  1       -1 0.78820502E-01 0.81696206E+03</pdfrwt>
<totfact> 0.22916936E+00</totfact>
</mgrwt>
</event>
<event>
 4    5  0.7767175E-008  0.1195657E+04  0.7818608E-02  0.9161355E-01
          1   -1    0    0  501    0  0.00000000000E+00  0.00000000000E+00  0.16746253251E+04  0.16746253251E+04  0.50400000000E-02 0. -1.
         -1   -1    0    0    0  501 -0.00000000000E+00 -0.00000000000E+00 -0.11051380065E+04  0.11051380065E+04  0.50400000000E-02 0.  1.
    8880023    1    1    2    0    0  0.47534514494E+03  0.87740130362E+03 -0.51167748731E+03  0.13005422376E+04  0.65864270000E+03 0.  0.
    8880022    1    1    2    0    0 -0.47534514494E+03 -0.87740130362E+03  0.10811648059E+04  0.14792210940E+04  0.15294330000E+03 0.  0.
<mgrwt>
<rscale>  0 0.11461363E+04</rscale>
<asrwt>0</asrwt>
<pdfrwt beam="1">  1        1 0.25763467E+00 0.11956573E+04</pdfrwt>
<pdfrwt beam="2">  1       -1 0.17002123E+00 0.11956573E+04</pdfrwt>
<totfact> 0.11970977E+00</totfact>
</mgrwt>
</event>
<event>
 4    5  0.7767175E-008  0.8121518E+03  0.7818608E-02  0.9685112E-01
         -1   -1    0    0    0  501 -0.00000000000E+00  0.00000000000E+00  0.21969242457E+03  0.21969242463E+03  0.50400000000E-02 0.  1.
          1   -1    0    0  501    0  0.00000000000E+00 -0.00000000000E+00 -0.32970459103E+04  0.32970459103E+04  0.50400000000E-02 0. -1.
    8880023    1    1    2    0    0  0.36532848603E+03 -0.30383462622E+03 -0.65465792447E+03  0.10431527152E+04  0.65864270000E+03 0.  0.
    8880022    1    1    2    0    0 -0.36532848603E+03  0.30383462622E+03 -0.24226955612E+04  0.24735856197E+04  0.15294330000E+03 0.  0.
<mgrwt>
<rscale>  0 0.71910173E+03</rscale>
<asrwt>0</asrwt>
<pdfrwt beam="1">  1        1 0.50723780E+00 0.81215183E+03</pdfrwt>
<pdfrwt beam="2">  1       -1 0.33798837E-01 0.81215183E+03</pdfrwt>
<totfact> 0.31576484E+00</totfact>
</mgrwt>
</event>
<event>
 4    5  0.7767175E-008  0.9282610E+03  0.7818608E-02  0.9482107E-01
         -1   -1    0    0    0  501 -0.00000000000E+00  0.00000000000E+00  0.45708677598E+03  0.45708677601E+03  0.50400000000E-02 0.  1.
          1   -1    0    0  501    0  0.00000000000E+00 -0.00000000000E+00 -0.22208748195E+04  0.22208748195E+04  0.50400000000E-02 0. -1.
    8880023    1    1    2    0    0  0.43813769053E+03 -0.48568876899E+03 -0.16369961775E+03  0.94258473746E+03  0.65864270000E+03 0.  0.
    8880022    1    1    2    0    0 -0.43813769053E+03  0.48568876899E+03 -0.16000884257E+04  0.17353768580E+04  0.15294330000E+03 0.  0.
<mgrwt>
<rscale>  0 0.85615954E+03</rscale>
<asrwt>0</asrwt>
<pdfrwt beam="1">  1        1 0.34167304E+00 0.92826097E+03</pdfrwt>
<pdfrwt beam="2">  1       -1 0.70321044E-01 0.92826097E+03</pdfrwt>
<totfact> 0.44148816E+00</totfact>
</mgrwt>
</event>
<event>
 4    5  0.7767175E-008  0.9293229E+03  0.7818608E-02  0.9480510E-01
          1   -1    0    0  501    0  0.00000000000E+00  0.00000000000E+00  0.17820751825E+04  0.17820751826E+04  0.50400000000E-02 0. -1.
         -1   -1    0    0    0  501 -0.00000000000E+00 -0.00000000000E+00 -0.72613293952E+03  0.72613293953E+03  0.50400000000E-02 0.  1.
    8880023    1    1    2    0    0  0.19777716222E+03 -0.62507203567E+03 -0.31469727650E+03  0.98116025081E+03  0.65864270000E+03 0.  0.
    8880022    1    1    2    0    0 -0.19777716222E+03  0.62507203567E+03  0.13706395195E+04  0.15270478713E+04  0.15294330000E+03 0.  0.
<mgrwt>
<rscale>  0 0.85736138E+03</rscale>
<asrwt>0</asrwt>
<pdfrwt beam="1">  1        1 0.27416541E+00 0.92932291E+03</pdfrwt>
<pdfrwt beam="2">  1       -1 0.11171276E+00 0.92932291E+03</pdfrwt>
<totfact> 0.31392120E+00</totfact>
</mgrwt>
</event>
<event>
 4    5  0.7767175E-008  0.8933012E+03  0.7818608E-02  0.9536872E-01
         -1   -1    0    0    0  501 -0.00000000000E+00  0.00000000000E+00  0.18661398563E+04  0.18661398563E+04  0.50400000000E-02 0.  1.
          1   -1    0    0  501    0  0.00000000000E+00 -0.00000000000E+00 -0.34414439332E+03  0.34414439336E+03  0.50400000000E-02 0. -1.
    8880023    1    1    2    0    0 -0.57128524426E+03  0.19444800768E+03  0.12364202079E+04  0.15253596280E+04  0.65864270000E+03 0.  0.
    8880022    1    1    2    0    0  0.57128524426E+03 -0.19444800768E+03  0.28557525505E+03  0.68492462163E+03  0.15294330000E+03 0.  0.
<mgrwt>
<rscale>  0 0.81619138E+03</rscale>
<asrwt>0</asrwt>
<pdfrwt beam="1">  1        1 0.52945291E-01 0.89330122E+03</pdfrwt>
<pdfrwt beam="2">  1       -1 0.28709844E+00 0.89330122E+03</pdfrwt>
<totfact> 0.30083796E+00</totfact>
</mgrwt>
</event>
<event>
 4    5  0.7767175E-008  0.7459147E+03  0.7818608E-02  0.9843041E-01
          1   -1    0    0  501    0  0.00000000000E+00  0.00000000000E+00  0.19759351449E+04  0.19759351449E+04  0.50400000000E-02 0. -1.
         -1   -1    0    0    0  501 -0.00000000000E+00 -0.00000000000E+00 -0.35631275608E+03  0.35631275612E+03  0.50400000000E-02 0.  1.
    8880023    1    1    2    0    0  0.32265234364E+03 -0.13591882545E+03  0.84954015630E+02  0.75073687335E+03  0.65864270000E+03 0.  0.
    8880022    1    1    2    0    0 -0.32265234364E+03  0.13591882545E+03  0.15346683731E+04  0.15815110276E+04  0.15294330000E+03 0.  0.
<mgrwt>
<rscale>  0 0.63102977E+03</rscale>
<asrwt>0</asrwt>
<pdfrwt beam="1">  1        1 0.30399001E+00 0.74591465E+03</pdfrwt>
<pdfrwt beam="2">  1       -1 0.54817349E-01 0.74591465E+03</pdfrwt>
<totfact> 0.10879775E+01</totfact>
</mgrwt>
</event>
<event>
 4    5  0.7767175E-008  0.8215245E+03  0.7818608E-02  0.9666054E-01
         -1   -1    0    0    0  501 -0.00000000000E+00  0.00000000000E+00  0.54308635097E+03  0.54308635099E+03  0.50400000000E-02 0.  1.
          1   -1    0    0  501    0  0.00000000000E+00 -0.00000000000E+00 -0.14413561647E+04  0.14413561647E+04  0.50400000000E-02 0. -1.
    8880023    1    1    2    0    0  0.39646514461E+03 -0.28966821586E+03  0.13284096336E+03  0.83219541814E+03  0.65864270000E+03 0.  1.
    8880022    1    1    2    0    0 -0.39646514461E+03  0.28966821586E+03 -0.10311107771E+04  0.11522470976E+04  0.15294330000E+03 0.  0.
<mgrwt>
<rscale>  0 0.73074407E+03</rscale>
<asrwt>0</asrwt>
<pdfrwt beam="1">  1        1 0.22174710E+00 0.82152449E+03</pdfrwt>
<pdfrwt beam="2">  1       -1 0.83551747E-01 0.82152449E+03</pdfrwt>
<totfact> 0.10488711E+01</totfact>
</mgrwt>
</event>
<event>
 4    5  0.7767175E-008  0.1638912E+04  0.7818608E-02  0.8817303E-01
         -1   -1    0    0    0  501 -0.00000000000E+00  0.00000000000E+00  0.15689021447E+04  0.15689021447E+04  0.50400000000E-02 0.  1.
          1   -1    0    0  501    0  0.00000000000E+00 -0.00000000000E+00 -0.17347918388E+04  0.17347918388E+04  0.50400000000E-02 0. -1.
    8880023    1    1    2    0    0  0.57588292652E+02  0.14996354152E+04 -0.58143186958E+03  0.17389928163E+04  0.65864270000E+03 0.  0.
    8880022    1    1    2    0    0 -0.57588292652E+02 -0.14996354152E+04  0.41554217547E+03  0.15647011672E+04  0.15294330000E+03 0.  0.
<mgrwt>
<rscale>  0 0.16052922E+04</rscale>
<asrwt>0</asrwt>
<pdfrwt beam="1">  1        1 0.26689105E+00 0.16389121E+04</pdfrwt>
<pdfrwt beam="2">  1       -1 0.24136956E+00 0.16389121E+04</pdfrwt>
<totfact> 0.33346634E-01</totfact>
</mgrwt>
</event>
<event>
 4    5  0.7767175E-008  0.1165534E+04  0.7818608E-02  0.9191376E-01
         -1   -1    0    0    0  501 -0.00000000000E+00  0.00000000000E+00  0.43818104231E+04  0.43818104231E+04  0.50400000000E-02 0.  1.
          1   -1    0    0  501    0  0.00000000000E+00 -0.00000000000E+00 -0.60906578349E+03  0.60906578352E+03  0.50400000000E-02 0. -1.
    8880023    1    1    2    0    0 -0.79501215499E+03 -0.54093866873E+03  0.38418404660E+04  0.40147487272E+04  0.65864270000E+03 0.  0.
    8880022    1    1    2    0    0  0.79501215499E+03  0.54093866873E+03 -0.69095826382E+02  0.97612747945E+03  0.15294330000E+03 0.  0.
<mgrwt>
<rscale>  0 0.11142884E+04</rscale>
<asrwt>0</asrwt>
<pdfrwt beam="1">  1        1 0.93702433E-01 0.11655339E+04</pdfrwt>
<pdfrwt beam="2">  1       -1 0.67412465E+00 0.11655339E+04</pdfrwt>
<totfact> 0.79777567E-03</totfact>
</mgrwt>
</event>
<event>
 4    5  0.7767175E-008  0.7156928E+03  0.7818608E-02  0.9937439E-01
          1   -1    0    0  501    0  0.00000000000E+00  0.00000000000E+00  0.12157163696E+04  0.12157163697E+04  0.50400000000E-02 0. -1.
         -1   -1    0    0    0  501 -0.00000000000E+00 -0.00000000000E+00 -0.10529892857E+04  0.10529892857E+04  0.50400000000E-02 0.  1.
    8880023    1    1    2    0    0 -0.92121508629E+02 -0.26442304593E+03 -0.90530601875E+03  0.11540342774E+04  0.65864270000E+03 0.  1.
    8880022    1    1    2    0    0  0.92121508629E+02  0.26442304593E+03  0.10680331026E+04  0.11146713780E+04  0.15294330000E+03 0.  0.
<mgrwt>
<rscale>  0 0.58480644E+03</rscale>
<asrwt>0</asrwt>
<pdfrwt beam="1">  1        1 0.18703329E+00 0.71569276E+03</pdfrwt>
<pdfrwt beam="2">  1       -1 0.16199835E+00 0.71569276E+03</pdfrwt>
<totfact> 0.30778592E+00</totfact>
</mgrwt>
</event>
<event>
 4    5  0.7767175E-008  0.7907172E+03  0.7818608E-02  0.9731239E-01
         -1   -1    0    0    0  501 -0.00000000000E+00  0.00000000000E+00  0.74353993790E+03  0.74353993792E+03  0.50400000000E-02 0.  1.
          1   -1    0    0  501    0  0.00000000000E+00 -0.00000000000E+00 -0.19517604730E+04  0.19517604730E+04  0.50400000000E-02 0. -1.
    8880023    1    1    2    0    0 -0.13411839251E+03 -0.41645613081E+03  0.49317230108E+03  0.93190803029E+03  0.65864270000E+03 0.  0.
    8880022    1    1    2    0    0  0.13411839251E+03  0.41645613081E+03 -0.17013928362E+04  0.17633923807E+04  0.15294330000E+03 0.  0.
<mgrwt>
<rscale>  0 0.69186918E+03</rscale>
<asrwt>0</asrwt>
<pdfrwt beam="1">  1        1 0.30027084E+00 0.79071718E+03</pdfrwt>
<pdfrwt beam="2">  1       -1 0.11439076E+00 0.79071718E+03</pdfrwt>
<totfact> 0.23342899E+00</totfact>
</mgrwt>
</event>
<event>
 4    5  0.7767175E-008  0.1144865E+04  0.7818608E-02  0.9212675E-01
         -1   -1    0    0    0  501 -0.00000000000E+00  0.00000000000E+00  0.83075331646E+03  0.83075331648E+03  0.50400000000E-02 0.  1.
          1   -1    0    0  501    0  0.00000000000E+00 -0.00000000000E+00 -0.17727263025E+04  0.17727263025E+04  0.50400000000E-02 0. -1.
    8880023    1    1    2    0    0  0.69790748879E+03  0.62436410230E+03  0.15249677063E+03  0.11549765653E+04  0.65864270000E+03 0.  1.
    8880022    1    1    2    0    0 -0.69790748879E+03 -0.62436410230E+03 -0.10944697566E+04  0.14485030536E+04  0.15294330000E+03 0.  0.
<mgrwt>
<rscale>  0 0.10923553E+04</rscale>
<asrwt>0</asrwt>
<pdfrwt beam="1">  1        1 0.27272712E+00 0.11448649E+04</pdfrwt>
<pdfrwt beam="2">  1       -1 0.12780820E+00 0.11448649E+04</pdfrwt>
<totfact> 0.22268990E+00</totfact>
</mgrwt>
</event>
<event>
 4    5  0.7767175E-008  0.9274163E+03  0.7818608E-02  0.9483380E-01
         -1   -1    0    0    0  501 -0.00000000000E+00  0.00000000000E+00  0.14425121837E+04  0.14425121837E+04  0.50400000000E-02 0.  1.
          1   -1    0    0  501    0  0.00000000000E+00 -0.00000000000E+00 -0.11495015743E+04  0.11495015743E+04  0.50400000000E-02 0. -1.
    8880023    1    1    2    0    0 -0.46110908218E+03  0.46224361908E+03  0.11668552417E+04  0.14905207514E+04  0.65864270000E+03 0.  1.
    8880022    1    1    2    0    0  0.46110908218E+03 -0.46224361908E+03 -0.87384463237E+03  0.11014930066E+04  0.15294330000E+03 0.  0.
<mgrwt>
<rscale>  0 0.85520311E+03</rscale>
<asrwt>0</asrwt>
<pdfrwt beam="1">  1        1 0.17684640E+00 0.92741628E+03</pdfrwt>
<pdfrwt beam="2">  1       -1 0.22192495E+00 0.92741628E+03</pdfrwt>
<totfact> 0.12652249E+00</totfact>
</mgrwt>
</event>
<event>
 4    5  0.7767175E-008  0.1965156E+04  0.7818608E-02  0.8636291E-01
         -1   -1    0    0    0  501 -0.00000000000E+00  0.00000000000E+00  0.20813736417E+04  0.20813736417E+04  0.50400000000E-02 0.  1.
          1   -1    0    0  501    0  0.00000000000E+00 -0.00000000000E+00 -0.18703788718E+04  0.18703788718E+04  0.50400000000E-02 0. -1.
    8880023    1    1    2    0    0  0.96068540492E+03  0.15827543049E+04  0.59788633227E+03  0.20540949125E+04  0.65864270000E+03 0.  0.
    8880022    1    1    2    0    0 -0.96068540492E+03 -0.15827543049E+04 -0.38689156232E+03  0.18976576010E+04  0.15294330000E+03 0.  0.
<mgrwt>
<rscale>  0 0.19377488E+04</rscale>
<asrwt>0</asrwt>
<pdfrwt beam="1">  1        1 0.28775059E+00 0.19651559E+04</pdfrwt>
<pdfrwt beam="2">  1       -1 0.32021133E+00 0.19651559E+04</pdfrwt>
<totfact> 0.79749640E-02</totfact>
</mgrwt>
</event>
<event>
 4    5  0.7767175E-008  0.1425672E+04  0.7818608E-02  0.8963987E-01
          1   -1    0    0  501    0  0.00000000000E+00  0.00000000000E+00  0.91650630191E+03  0.91650630192E+03  0.50400000000E-02 0. -1.
         -1   -1    0    0    0  501 -0.00000000000E+00 -0.00000000000E+00 -0.22338051732E+04  0.22338051732E+04  0.50400000000E-02 0.  1.
    8880023    1    1    2    0    0  0.12288111339E+04  0.29791514807E+03 -0.12139688964E+04  0.18725012486E+04  0.65864270000E+03 0.  0.
    8880022    1    1    2    0    0 -0.12288111339E+04 -0.29791514807E+03 -0.10332997480E+03  0.12778102265E+04  0.15294330000E+03 0.  0.
<mgrwt>
<rscale>  0 0.13860380E+04</rscale>
<asrwt>0</asrwt>
<pdfrwt beam="1">  1        1 0.14100097E+00 0.14256719E+04</pdfrwt>
<pdfrwt beam="2">  1       -1 0.34366233E+00 0.14256719E+04</pdfrwt>
<totfact> 0.29033188E-01</totfact>
</mgrwt>
</event>
<event>
 4    5  0.7767175E-008  0.1339609E+04  0.7818608E-02  0.9032088E-01
         -1   -1    0    0    0  501 -0.00000000000E+00  0.00000000000E+00  0.71972085205E+03  0.71972085207E+03  0.50400000000E-02 0.  1.
          1   -1    0    0  501    0  0.00000000000E+00 -0.00000000000E+00 -0.27762474573E+04  0.27762474573E+04  0.50400000000E-02 0. -1.
    8880023    1    1    2    0    0 -0.74170182880E+03  0.90034526993E+03 -0.28536098585E+03  0.13696657645E+04  0.65864270000E+03 0.  1.
    8880022    1    1    2    0    0  0.74170182880E+03 -0.90034526993E+03 -0.17711656194E+04  0.21263025448E+04  0.15294330000E+03 0.  0.
<mgrwt>
<rscale>  0 0.12968237E+04</rscale>
<asrwt>0</asrwt>
<pdfrwt beam="1">  1        1 0.42711499E+00 0.13396094E+04</pdfrwt>
<pdfrwt beam="2">  1       -1 0.11072629E+00 0.13396094E+04</pdfrwt>
<totfact> 0.63432466E-01</totfact>
</mgrwt>
</event>
<event>
 4    5  0.7767175E-008  0.8461571E+03  0.7818608E-02  0.9618678E-01
          1   -1    0    0  501    0  0.00000000000E+00  0.00000000000E+00  0.17660399415E+04  0.17660399415E+04  0.50400000000E-02 0. -1.
         -1   -1    0    0    0  501 -0.00000000000E+00 -0.00000000000E+00 -0.89926508151E+03  0.89926508152E+03  0.50400000000E-02 0.  1.
    8880023    1    1    2    0    0  0.34636349091E+03  0.40274544435E+03 -0.63961028267E+03  0.10606993357E+04  0.65864270000E+03 0.  1.
    8880022    1    1    2    0    0 -0.34636349091E+03 -0.40274544435E+03  0.15063851426E+04  0.16046056873E+04  0.15294330000E+03 0.  0.
<mgrwt>
<rscale>  0 0.76072181E+03</rscale>
<asrwt>0</asrwt>
<pdfrwt beam="1">  1        1 0.27169845E+00 0.84615706E+03</pdfrwt>
<pdfrwt beam="2">  1       -1 0.13834847E+00 0.84615706E+03</pdfrwt>
<totfact> 0.19182746E+00</totfact>
</mgrwt>
</event>
<event>
 4    5  0.7767175E-008  0.1187383E+04  0.7818608E-02  0.9169485E-01
         -1   -1    0    0    0  501 -0.00000000000E+00  0.00000000000E+00  0.78413192381E+03  0.78413192383E+03  0.50400000000E-02 0.  1.
          1   -1    0    0  501    0  0.00000000000E+00 -0.00000000000E+00 -0.16945122905E+04  0.16945122905E+04  0.50400000000E-02 0. -1.
    8880023    1    1    2    0    0  0.94389597075E+03  0.29176989481E+03 -0.99758680189E+02  0.11915667315E+04  0.65864270000E+03 0.  0.
    8880022    1    1    2    0    0 -0.94389597075E+03 -0.29176989481E+03 -0.81062168649E+03  0.12870774828E+04  0.15294330000E+03 0.  0.
<mgrwt>
<rscale>  0 0.11374020E+04</rscale>
<asrwt>0</asrwt>
<pdfrwt beam="1">  1        1 0.26069420E+00 0.11873835E+04</pdfrwt>
<pdfrwt beam="2">  1       -1 0.12063568E+00 0.11873835E+04</pdfrwt>
<totfact> 0.28923537E+00</totfact>
</mgrwt>
</event>
<event>
 4    5  0.7767175E-008  0.8639407E+03  0.7818608E-02  0.9586592E-01
          1   -1    0    0  501    0  0.00000000000E+00  0.00000000000E+00  0.21229482310E+04  0.21229482310E+04  0.50400000000E-02 0. -1.
         -1   -1    0    0    0  501 -0.00000000000E+00 -0.00000000000E+00 -0.73124710743E+03  0.73124710744E+03  0.50400000000E-02 0.  1.
    8880023    1    1    2    0    0  0.49504296393E+03 -0.25983816712E+03 -0.41380464899E+03  0.95792896554E+03  0.65864270000E+03 0.  1.
    8880022    1    1    2    0    0 -0.49504296393E+03  0.25983816712E+03  0.18055057725E+04  0.18962663729E+04  0.15294330000E+03 0.  0.
<mgrwt>
<rscale>  0 0.78190024E+03</rscale>
<asrwt>0</asrwt>
<pdfrwt beam="1">  1        1 0.32660742E+00 0.86394075E+03</pdfrwt>
<pdfrwt beam="2">  1       -1 0.11249955E+00 0.86394075E+03</pdfrwt>
<totfact> 0.18406683E+00</totfact>
</mgrwt>
</event>
<event>
 4    5  0.7767175E-008  0.7778864E+03  0.7818608E-02  0.9760826E-01
          1   -1    0    0  501    0  0.00000000000E+00  0.00000000000E+00  0.21970871778E+04  0.21970871778E+04  0.50400000000E-02 0. -1.
         -1   -1    0    0    0  501 -0.00000000000E+00 -0.00000000000E+00 -0.20031858625E+03  0.20031858631E+03  0.50400000000E-02 0.  1.
    8880023    1    1    2    0    0 -0.23325064451E+02 -0.41322262347E+03  0.16887427947E+04  0.18592900333E+04  0.65864270000E+03 0.  0.
    8880022    1    1    2    0    0  0.23325064451E+02  0.41322262347E+03  0.30802579689E+03  0.53811573081E+03  0.15294330000E+03 0.  0.
<mgrwt>
<rscale>  0 0.67507916E+03</rscale>
<asrwt>0</asrwt>
<pdfrwt beam="1">  1        1 0.33801342E+00 0.77788637E+03</pdfrwt>
<pdfrwt beam="2">  1       -1 0.30818244E-01 0.77788637E+03</pdfrwt>
<totfact> 0.22118803E+01</totfact>
</mgrwt>
</event>
<event>
 4    5  0.7767175E-008  0.8330283E+03  0.7818608E-02  0.9643469E-01
         -1   -1    0    0    0  501 -0.00000000000E+00  0.00000000000E+00  0.76394153962E+03  0.76394153964E+03  0.50400000000E-02 0.  1.
          1   -1    0    0  501    0  0.00000000000E+00 -0.00000000000E+00 -0.81006967106E+03  0.81006967107E+03  0.50400000000E-02 0. -1.
    8880023    1    1    2    0    0 -0.16700648195E+02 -0.50975193271E+03  0.35685312337E+03  0.90624516687E+03  0.65864270000E+03 0.  1.
    8880022    1    1    2    0    0  0.16700648195E+02  0.50975193271E+03 -0.40298125481E+03  0.66776604384E+03  0.15294330000E+03 0.  0.
<mgrwt>
<rscale>  0 0.74484742E+03</rscale>
<asrwt>0</asrwt>
<pdfrwt beam="1">  1        1 0.12462610E+00 0.83302830E+03</pdfrwt>
<pdfrwt beam="2">  1       -1 0.11752947E+00 0.83302830E+03</pdfrwt>
<totfact> 0.14384047E+01</totfact>
</mgrwt>
</event>
<event>
 4    5  0.7767175E-008  0.6950766E+03  0.7818608E-02  0.1001827E+00
         -1   -1    0    0    0  501 -0.00000000000E+00  0.00000000000E+00  0.12834165865E+04  0.12834165865E+04  0.50400000000E-02 0.  1.
          1   -1    0    0  501    0  0.00000000000E+00 -0.00000000000E+00 -0.42760033750E+03  0.42760033753E+03  0.50400000000E-02 0. -1.
    8880023    1    1    2    0    0  0.14577828787E+03 -0.16754104126E+03  0.11298663211E+04  0.13265479334E+04  0.65864270000E+03 0.  1.
    8880022    1    1    2    0    0 -0.14577828787E+03  0.16754104126E+03 -0.27405007211E+03  0.38446899064E+03  0.15294330000E+03 0.  0.
<mgrwt>
<rscale>  0 0.54856235E+03</rscale>
<asrwt>0</asrwt>
<pdfrwt beam="1">  1        1 0.65784667E-01 0.69507663E+03</pdfrwt>
<pdfrwt beam="2">  1       -1 0.19744871E+00 0.69507663E+03</pdfrwt>
<totfact> 0.89400978E+00</totfact>
</mgrwt>
</event>
<event>
 4    5  0.7767175E-008  0.6804286E+03  0.7818608E-02  0.1009082E+00
          1   -1    0    0  501    0  0.00000000000E+00  0.00000000000E+00  0.46107810700E+03  0.46107810703E+03  0.50400000000E-02 0. -1.
         -1   -1    0    0    0  501 -0.00000000000E+00 -0.00000000000E+00 -0.53373530106E+03  0.53373530109E+03  0.50400000000E-02 0.  1.
    8880023    1    1    2    0    0  0.17041377661E+03  0.11489856617E+02  0.12534654736E+03  0.69187776035E+03  0.65864270000E+03 0. -1.
    8880022    1    1    2    0    0 -0.17041377661E+03 -0.11489856617E+02 -0.19800374141E+03  0.30293564777E+03  0.15294330000E+03 0.  0.
<mgrwt>
<rscale>  0 0.51841017E+03</rscale>
<asrwt>0</asrwt>
<pdfrwt beam="1">  1        1 0.70935093E-01 0.68042860E+03</pdfrwt>
<pdfrwt beam="2">  1       -1 0.82113123E-01 0.68042860E+03</pdfrwt>
<totfact> 0.74877864E+01</totfact>
</mgrwt>
</event>
<event>
 4    5  0.7767175E-008  0.1001755E+04  0.7818608E-02  0.9379265E-01
          1   -1    0    0  501    0  0.00000000000E+00  0.00000000000E+00  0.74937501905E+03  0.74937501907E+03  0.50400000000E-02 0. -1.
         -1   -1    0    0    0  501 -0.00000000000E+00 -0.00000000000E+00 -0.17134758044E+04  0.17134758044E+04  0.50400000000E-02 0.  1.
    8880023    1    1    2    0    0  0.46211286127E+03  0.59678661579E+03  0.24318279671E+03  0.10308494751E+04  0.65864270000E+03 0.  0.
    8880022    1    1    2    0    0 -0.46211286127E+03 -0.59678661579E+03 -0.12072835820E+04  0.14320013484E+04  0.15294330000E+03 0.  0.
<mgrwt>
<rscale>  0 0.93801881E+03</rscale>
<asrwt>0</asrwt>
<pdfrwt beam="1">  1        1 0.11528846E+00 0.10017548E+04</pdfrwt>
<pdfrwt beam="2">  1       -1 0.26361166E+00 0.10017548E+04</pdfrwt>
<totfact> 0.14069622E+00</totfact>
</mgrwt>
</event>
<event>
 4    5  0.7767175E-008  0.1256994E+04  0.7818608E-02  0.9103618E-01
          1   -1    0    0  501    0  0.00000000000E+00  0.00000000000E+00  0.19252182986E+04  0.19252182986E+04  0.50400000000E-02 0. -1.
         -1   -1    0    0    0  501 -0.00000000000E+00 -0.00000000000E+00 -0.91514793315E+03  0.91514793316E+03  0.50400000000E-02 0.  1.
    8880023    1    1    2    0    0 -0.57190920440E+03 -0.90506497387E+03  0.12051974551E+04  0.17414171979E+04  0.65864270000E+03 0.  0.
    8880022    1    1    2    0    0  0.57190920440E+03  0.90506497387E+03 -0.19512708963E+03  0.10989490339E+04  0.15294330000E+03 0.  0.
<mgrwt>
<rscale>  0 0.12106125E+04</rscale>
<asrwt>0</asrwt>
<pdfrwt beam="1">  1        1 0.29618743E+00 0.12569936E+04</pdfrwt>
<pdfrwt beam="2">  1       -1 0.14079199E+00 0.12569936E+04</pdfrwt>
<totfact> 0.13502918E+00</totfact>
</mgrwt>
</event>
<event>
 4    5  0.7767175E-008  0.9309270E+03  0.7818608E-02  0.9478104E-01
          1   -1    0    0  501    0  0.00000000000E+00  0.00000000000E+00  0.15589382683E+04  0.15589382683E+04  0.50400000000E-02 0. -1.
         -1   -1    0    0    0  501 -0.00000000000E+00 -0.00000000000E+00 -0.59657060196E+03  0.59657060199E+03  0.50400000000E-02 0.  1.
    8880023    1    1    2    0    0 -0.34294307276E+03 -0.56143111818E+03 -0.57007770302E+02  0.93267086571E+03  0.65864270000E+03 0.  1.
    8880022    1    1    2    0    0  0.34294307276E+03  0.56143111818E+03  0.10193754366E+04  0.12228380046E+04  0.15294330000E+03 0.  0.
<mgrwt>
<rscale>  0 0.85917553E+03</rscale>
<asrwt>0</asrwt>
<pdfrwt beam="1">  1        1 0.23983665E+00 0.93092699E+03</pdfrwt>
<pdfrwt beam="2">  1       -1 0.91780095E-01 0.93092699E+03</pdfrwt>
<totfact> 0.69896654E+00</totfact>
</mgrwt>
</event>
<event>
 4    5  0.7767175E-008  0.6759854E+03  0.7818608E-02  0.1011692E+00
         -1   -1    0    0    0  501 -0.00000000000E+00  0.00000000000E+00  0.28445202153E+03  0.28445202158E+03  0.50400000000E-02 0.  1.
          1   -1    0    0  501    0  0.00000000000E+00 -0.00000000000E+00 -0.10770710387E+04  0.10770710387E+04  0.50400000000E-02 0. -1.
    8880023    1    1    2    0    0  0.41891456120E+02  0.14625715662E+03 -0.16214005294E+03  0.69515872503E+03  0.65864270000E+03 0.  1.
    8880022    1    1    2    0    0 -0.41891456120E+02 -0.14625715662E+03 -0.63047896422E+03  0.66636433525E+03  0.15294330000E+03 0.  0.
<mgrwt>
<rscale>  0 0.50807591E+03</rscale>
<asrwt>0</asrwt>
<pdfrwt beam="1">  1        1 0.16570323E+00 0.67598540E+03</pdfrwt>
<pdfrwt beam="2">  1       -1 0.43761850E-01 0.67598540E+03</pdfrwt>
<totfact> 0.70094499E+01</totfact>
</mgrwt>
</event>
<event>
 4    5  0.7767175E-008  0.1538470E+04  0.7818608E-02  0.8882938E-01
          1   -1    0    0  501    0  0.00000000000E+00  0.00000000000E+00  0.18112499434E+04  0.18112499434E+04  0.50400000000E-02 0. -1.
         -1   -1    0    0    0  501 -0.00000000000E+00 -0.00000000000E+00 -0.13152815386E+04  0.13152815386E+04  0.50400000000E-02 0.  1.
    8880023    1    1    2    0    0  0.25043958512E+03  0.13676109125E+04 -0.22180522022E+03  0.15543768384E+04  0.65864270000E+03 0.  0.
    8880022    1    1    2    0    0 -0.25043958512E+03 -0.13676109125E+04  0.71777362497E+03  0.15721546436E+04  0.15294330000E+03 0.  0.
<mgrwt>
<rscale>  0 0.15022802E+04</rscale>
<asrwt>0</asrwt>
<pdfrwt beam="1">  1        1 0.27865384E+00 0.15384700E+04</pdfrwt>
<pdfrwt beam="2">  1       -1 0.20235101E+00 0.15384700E+04</pdfrwt>
<totfact> 0.54673414E-01</totfact>
</mgrwt>
</event>
<event>
 4    5  0.7767175E-008  0.7719641E+03  0.7818608E-02  0.9775064E-01
         -1   -1    0    0    0  501 -0.00000000000E+00  0.00000000000E+00  0.65536261525E+03  0.65536261527E+03  0.50400000000E-02 0.  1.
          1   -1    0    0  501    0  0.00000000000E+00 -0.00000000000E+00 -0.71862834358E+03  0.71862834360E+03  0.50400000000E-02 0. -1.
    8880023    1    1    2    0    0 -0.35227141249E+03  0.19499556946E+03  0.28212240690E+03  0.82190125861E+03  0.65864270000E+03 0.  1.
    8880022    1    1    2    0    0  0.35227141249E+03 -0.19499556946E+03 -0.34538813522E+03  0.55208970026E+03  0.15294330000E+03 0. -1.
<mgrwt>
<rscale>  0 0.66718117E+03</rscale>
<asrwt>0</asrwt>
<pdfrwt beam="1">  1        1 0.11055821E+00 0.77196414E+03</pdfrwt>
<pdfrwt beam="2">  1       -1 0.10082502E+00 0.77196414E+03</pdfrwt>
<totfact> 0.25052688E+01</totfact>
</mgrwt>
</event>
<event>
 4    5  0.7767175E-008  0.9533848E+03  0.7818608E-02  0.9445261E-01
          1   -1    0    0  501    0  0.00000000000E+00  0.00000000000E+00  0.14030650455E+04  0.14030650455E+04  0.50400000000E-02 0. -1.
         -1   -1    0    0    0  501 -0.00000000000E+00 -0.00000000000E+00 -0.49758868151E+03  0.49758868154E+03  0.50400000000E-02 0.  1.
    8880023    1    1    2    0    0  0.68895669414E+03  0.21702267229E+02  0.40844547834E+03  0.10371934390E+04  0.65864270000E+03 0.  0.
    8880022    1    1    2    0    0 -0.68895669414E+03 -0.21702267229E+02  0.49703088568E+03  0.86346028811E+03  0.15294330000E+03 0.  0.
<mgrwt>
<rscale>  0 0.88442684E+03</rscale>
<asrwt>0</asrwt>
<pdfrwt beam="1">  1        1 0.21585616E+00 0.95338477E+03</pdfrwt>
<pdfrwt beam="2">  1       -1 0.76552106E-01 0.95338477E+03</pdfrwt>
<totfact> 0.13224094E+01</totfact>
</mgrwt>
</event>
<event>
 4    5  0.7918639E-008  0.1354525E+04  0.7818608E-02  0.9019849E-01
         -1   -1    0    0    0  501 -0.00000000000E+00  0.00000000000E+00  0.17258085930E+04  0.17258085930E+04  0.50400000000E-02 0.  1.
          1   -1    0    0  501    0  0.00000000000E+00 -0.00000000000E+00 -0.33460308306E+04  0.33460308306E+04  0.50400000000E-02 0. -1.
    8880023    1    1    2    0    0 -0.46660169809E+03 -0.10877545442E+04  0.13244935622E+04  0.18944710332E+04  0.65864270000E+03 0.  0.
    8880022    1    1    2    0    0  0.46660169809E+03  0.10877545442E+04 -0.29447157998E+04  0.31773683903E+04  0.15294330000E+03 0. -1.
<mgrwt>
<rscale>  0 0.13123241E+04</rscale>
<asrwt>0</asrwt>
<pdfrwt beam="1">  1        1 0.51477397E+00 0.13545248E+04</pdfrwt>
<pdfrwt beam="2">  1       -1 0.26550901E+00 0.13545248E+04</pdfrwt>
<totfact> 0.17666302E-02</totfact>
</mgrwt>
</event>
<event>
 4    5  0.7767175E-008  0.7732779E+03  0.7818608E-02  0.9771871E-01
          1   -1    0    0  501    0  0.00000000000E+00  0.00000000000E+00  0.10056695409E+04  0.10056695409E+04  0.50400000000E-02 0. -1.
         -1   -1    0    0    0  501 -0.00000000000E+00 -0.00000000000E+00 -0.81548370472E+03  0.81548370474E+03  0.50400000000E-02 0.  1.
    8880023    1    1    2    0    0 -0.16663962193E+03  0.36929620909E+03 -0.56012937359E+03  0.95483169987E+03  0.65864270000E+03 0.  0.
    8880022    1    1    2    0    0  0.16663962193E+03 -0.36929620909E+03  0.75031520972E+03  0.86632154573E+03  0.15294330000E+03 0.  0.
<mgrwt>
<rscale>  0 0.66894199E+03</rscale>
<asrwt>0</asrwt>
<pdfrwt beam="1">  1        1 0.15471839E+00 0.77327787E+03</pdfrwt>
<pdfrwt beam="2">  1       -1 0.12545903E+00 0.77327787E+03</pdfrwt>
<totfact> 0.85555394E+00</totfact>
</mgrwt>
</event>
<event>
 4    5  0.7767175E-008  0.9185195E+03  0.7818608E-02  0.9496933E-01
         -1   -1    0    0    0  501 -0.00000000000E+00  0.00000000000E+00  0.47689199302E+03  0.47689199305E+03  0.50400000000E-02 0.  1.
          1   -1    0    0  501    0  0.00000000000E+00 -0.00000000000E+00 -0.15827177551E+04  0.15827177551E+04  0.50400000000E-02 0. -1.
    8880023    1    1    2    0    0 -0.21402782034E+03  0.60337373821E+03 -0.20025970341E+03  0.94009676678E+03  0.65864270000E+03 0.  0.
    8880022    1    1    2    0    0  0.21402782034E+03 -0.60337373821E+03 -0.90556605863E+03  0.11195129813E+04  0.15294330000E+03 0.  0.
<mgrwt>
<rscale>  0 0.84510325E+03</rscale>
<asrwt>0</asrwt>
<pdfrwt beam="1">  1        1 0.24349504E+00 0.91851945E+03</pdfrwt>
<pdfrwt beam="2">  1       -1 0.73368000E-01 0.91851945E+03</pdfrwt>
<totfact> 0.10908116E+01</totfact>
</mgrwt>
</event>
<event>
 4    5  0.7767175E-008  0.9512192E+03  0.7818608E-02  0.9448362E-01
          1   -1    0    0  501    0  0.00000000000E+00  0.00000000000E+00  0.20392986807E+04  0.20392986808E+04  0.50400000000E-02 0. -1.
         -1   -1    0    0    0  501 -0.00000000000E+00 -0.00000000000E+00 -0.44737000325E+03  0.44737000328E+03  0.50400000000E-02 0.  1.
    8880023    1    1    2    0    0  0.38515675598E+03 -0.56803349252E+03  0.26905525284E+03  0.98853867433E+03  0.65864270000E+03 0.  0.
    8880022    1    1    2    0    0 -0.38515675598E+03  0.56803349252E+03  0.13228734246E+04  0.14981300097E+04  0.15294330000E+03 0.  0.
<mgrwt>
<rscale>  0 0.88200329E+03</rscale>
<asrwt>0</asrwt>
<pdfrwt beam="1">  1        1 0.31373827E+00 0.95121921E+03</pdfrwt>
<pdfrwt beam="2">  1       -1 0.68826152E-01 0.95121921E+03</pdfrwt>
<totfact> 0.60958208E+00</totfact>
</mgrwt>
</event>
<event>
 4    5  0.7767175E-008  0.1240804E+04  0.7818608E-02  0.9118444E-01
         -1   -1    0    0    0  501 -0.00000000000E+00  0.00000000000E+00  0.11608999664E+04  0.11608999664E+04  0.50400000000E-02 0.  1.
          1   -1    0    0  501    0  0.00000000000E+00 -0.00000000000E+00 -0.14297740281E+04  0.14297740281E+04  0.50400000000E-02 0. -1.
    8880023    1    1    2    0    0 -0.10040670687E+04 -0.31246337570E+03  0.43638550080E+03  0.13153047370E+04  0.65864270000E+03 0.  0.
    8880022    1    1    2    0    0  0.10040670687E+04  0.31246337570E+03 -0.70525956250E+03  0.12753692575E+04  0.15294330000E+03 0.  0.
<mgrwt>
<rscale>  0 0.11936377E+04</rscale>
<asrwt>0</asrwt>
<pdfrwt beam="1">  1        1 0.21996524E+00 0.12408039E+04</pdfrwt>
<pdfrwt beam="2">  1       -1 0.17859999E+00 0.12408039E+04</pdfrwt>
<totfact> 0.15212592E+00</totfact>
</mgrwt>
</event>
<event>
 4    5  0.7767175E-008  0.7337349E+03  0.7818608E-02  0.9878587E-01
         -1   -1    0    0    0  501 -0.00000000000E+00  0.00000000000E+00  0.33434262125E+03  0.33434262129E+03  0.50400000000E-02 0.  1.
          1   -1    0    0  501    0  0.00000000000E+00 -0.00000000000E+00 -0.22940472780E+04  0.22940472780E+04  0.50400000000E-02 0. -1.
    8880023    1    1    2    0    0  0.59174397496E+02 -0.31789170514E+03 -0.10702955782E+03  0.74150001890E+03  0.65864270000E+03 0.  0.
    8880022    1    1    2    0    0 -0.59174397496E+02  0.31789170514E+03 -0.18526750989E+04  0.18868898803E+04  0.15294330000E+03 0.  0.
<mgrwt>
<rscale>  0 0.61310344E+03</rscale>
<asrwt>0</asrwt>
<pdfrwt beam="1">  1        1 0.35293034E+00 0.73373493E+03</pdfrwt>
<pdfrwt beam="2">  1       -1 0.51437328E-01 0.73373493E+03</pdfrwt>
<totfact> 0.75383286E+00</totfact>
</mgrwt>
</event>
<event>
 4    5  0.7767175E-008  0.1368158E+04  0.7818608E-02  0.9008828E-01
          1   -1    0    0  501    0  0.00000000000E+00  0.00000000000E+00  0.10382109520E+04  0.10382109520E+04  0.50400000000E-02 0. -1.
         -1   -1    0    0    0  501 -0.00000000000E+00 -0.00000000000E+00 -0.22157080631E+04  0.22157080631E+04  0.50400000000E-02 0.  1.
    8880023    1    1    2    0    0 -0.70312747514E+03  0.97142022726E+03 -0.14720287514E+04  0.20096577707E+04  0.65864270000E+03 0.  1.
    8880022    1    1    2    0    0  0.70312747514E+03 -0.97142022726E+03  0.29453164032E+03  0.12442612444E+04  0.15294330000E+03 0. -1.
<mgrwt>
<rscale>  0 0.13264768E+04</rscale>
<asrwt>0</asrwt>
<pdfrwt beam="1">  1        1 0.15972476E+00 0.13681578E+04</pdfrwt>
<pdfrwt beam="2">  1       -1 0.34087816E+00 0.13681578E+04</pdfrwt>
<totfact> 0.24385674E-01</totfact>
</mgrwt>
</event>
<event>
 4    5  0.7767175E-008  0.7872081E+03  0.7818608E-02  0.9739170E-01
         -1   -1    0    0    0  501 -0.00000000000E+00  0.00000000000E+00  0.22892201826E+03  0.22892201831E+03  0.50400000000E-02 0.  1.
          1   -1    0    0  501    0  0.00000000000E+00 -0.00000000000E+00 -0.34459006656E+04  0.34459006656E+04  0.50400000000E-02 0. -1.
    8880023    1    1    2    0    0  0.40322635086E+03 -0.15262656267E+03 -0.52957527839E+03  0.94876052796E+03  0.65864270000E+03 0.  0.
    8880022    1    1    2    0    0 -0.40322635086E+03  0.15262656267E+03 -0.26874033689E+04  0.27260621559E+04  0.15294330000E+03 0.  0.
<mgrwt>
<rscale>  0 0.68731783E+03</rscale>
<asrwt>0</asrwt>
<pdfrwt beam="1">  1        1 0.53013853E+00 0.78720808E+03</pdfrwt>
<pdfrwt beam="2">  1       -1 0.35218774E-01 0.78720808E+03</pdfrwt>
<totfact> 0.22742047E+00</totfact>
</mgrwt>
</event>
<event>
 4    5  0.7767175E-008  0.8011396E+03  0.7818608E-02  0.9708337E-01
          1   -1    0    0  501    0  0.00000000000E+00  0.00000000000E+00  0.15284924477E+04  0.15284924477E+04  0.50400000000E-02 0. -1.
         -1   -1    0    0    0  501 -0.00000000000E+00 -0.00000000000E+00 -0.52907268366E+03  0.52907268368E+03  0.50400000000E-02 0.  1.
    8880023    1    1    2    0    0 -0.66606966041E+02  0.45119617488E+03 -0.14681421646E+03  0.81448087551E+03  0.65864270000E+03 0.  1.
    8880022    1    1    2    0    0  0.66606966041E+02 -0.45119617488E+03  0.11462339805E+04  0.12430842559E+04  0.15294330000E+03 0.  0.
<mgrwt>
<rscale>  0 0.70522551E+03</rscale>
<asrwt>0</asrwt>
<pdfrwt beam="1">  1        1 0.23515268E+00 0.80113961E+03</pdfrwt>
<pdfrwt beam="2">  1       -1 0.81395798E-01 0.80113961E+03</pdfrwt>
<totfact> 0.96909768E+00</totfact>
</mgrwt>
</event>
<event>
 4    5  0.7767175E-008  0.1243552E+04  0.7818608E-02  0.9115907E-01
         -1   -1    0    0    0  501 -0.00000000000E+00  0.00000000000E+00  0.22167136087E+04  0.22167136087E+04  0.50400000000E-02 0.  1.
          1   -1    0    0  501    0  0.00000000000E+00 -0.00000000000E+00 -0.11983038202E+04  0.11983038202E+04  0.50400000000E-02 0. -1.
    8880023    1    1    2    0    0  0.53238495575E+03  0.91059142719E+03  0.17321215387E+04  0.21322911901E+04  0.65864270000E+03 0.  1.
    8880022    1    1    2    0    0 -0.53238495575E+03 -0.91059142719E+03 -0.71371175021E+03  0.12827262388E+04  0.15294330000E+03 0.  0.
<mgrwt>
<rscale>  0 0.11965208E+04</rscale>
<asrwt>0</asrwt>
<pdfrwt beam="1">  1        1 0.18435444E+00 0.12435516E+04</pdfrwt>
<pdfrwt beam="2">  1       -1 0.34103286E+00 0.12435516E+04</pdfrwt>
<totfact> 0.18729991E-01</totfact>
</mgrwt>
</event>
<event>
 4    5  0.7767175E-008  0.7397051E+03  0.7818608E-02  0.9860807E-01
         -1   -1    0    0    0  501 -0.00000000000E+00  0.00000000000E+00  0.11037497413E+04  0.11037497413E+04  0.50400000000E-02 0.  1.
          1   -1    0    0  501    0  0.00000000000E+00 -0.00000000000E+00 -0.28518261600E+03  0.28518261604E+03  0.50400000000E-02 0. -1.
    8880023    1    1    2    0    0  0.26158130056E+03  0.21196379252E+03  0.64064459669E+03  0.97856483264E+03  0.65864270000E+03 0.  0.
    8880022    1    1    2    0    0 -0.26158130056E+03 -0.21196379252E+03  0.17792252862E+03  0.41036752473E+03  0.15294330000E+03 0.  0.
<mgrwt>
<rscale>  0 0.62198931E+03</rscale>
<asrwt>0</asrwt>
<pdfrwt beam="1">  1        1 0.43874249E-01 0.73970510E+03</pdfrwt>
<pdfrwt beam="2">  1       -1 0.16980765E+00 0.73970510E+03</pdfrwt>
<totfact> 0.23715958E+01</totfact>
</mgrwt>
</event>
<event>
 4    5  0.7767175E-008  0.9799636E+03  0.7818608E-02  0.9408254E-01
          1   -1    0    0  501    0  0.00000000000E+00  0.00000000000E+00  0.11045801539E+04  0.11045801539E+04  0.50400000000E-02 0. -1.
         -1   -1    0    0    0  501 -0.00000000000E+00 -0.00000000000E+00 -0.94508443846E+03  0.94508443847E+03  0.50400000000E-02 0.  1.
    8880023    1    1    2    0    0 -0.18706723685E+03  0.70108793102E+03 -0.46078220006E+03  0.10828891357E+04  0.65864270000E+03 0.  1.
    8880022    1    1    2    0    0  0.18706723685E+03 -0.70108793102E+03  0.62027791549E+03  0.96677545665E+03  0.15294330000E+03 0.  0.
<mgrwt>
<rscale>  0 0.91399520E+03</rscale>
<asrwt>0</asrwt>
<pdfrwt beam="1">  1        1 0.16993541E+00 0.97996359E+03</pdfrwt>
<pdfrwt beam="2">  1       -1 0.14539761E+00 0.97996359E+03</pdfrwt>
<totfact> 0.47963377E+00</totfact>
</mgrwt>
</event>
<event>
 4    5  0.7767175E-008  0.9085630E+03  0.7818608E-02  0.9512423E-01
          1   -1    0    0  501    0  0.00000000000E+00  0.00000000000E+00  0.17908769238E+04  0.17908769238E+04  0.50400000000E-02 0. -1.
         -1   -1    0    0    0  501 -0.00000000000E+00 -0.00000000000E+00 -0.40544249335E+03  0.40544249339E+03  0.50400000000E-02 0.  1.
    8880023    1    1    2    0    0  0.42850928843E+03 -0.45613197729E+03  0.34357627032E+03  0.97135547086E+03  0.65864270000E+03 0.  1.
    8880022    1    1    2    0    0 -0.42850928843E+03  0.45613197729E+03  0.10418581601E+04  0.12249639463E+04  0.15294330000E+03 0.  0.
<mgrwt>
<rscale>  0 0.83374115E+03</rscale>
<asrwt>0</asrwt>
<pdfrwt beam="1">  1        1 0.27551953E+00 0.90856304E+03</pdfrwt>
<pdfrwt beam="2">  1       -1 0.62375768E-01 0.90856304E+03</pdfrwt>
<totfact> 0.10985492E+01</totfact>
</mgrwt>
</event>
<event>
 4    5  0.7767175E-008  0.7869185E+03  0.7818608E-02  0.9739829E-01
          1   -1    0    0  501    0  0.00000000000E+00  0.00000000000E+00  0.89356551090E+03  0.89356551091E+03  0.50400000000E-02 0. -1.
         -1   -1    0    0    0  501 -0.00000000000E+00 -0.00000000000E+00 -0.11958295884E+04  0.11958295884E+04  0.50400000000E-02 0.  1.
    8880023    1    1    2    0    0  0.43033836579E+03 -0.15474673818E+02 -0.98940022742E+03  0.12641809961E+04  0.65864270000E+03 0.  0.
    8880022    1    1    2    0    0 -0.43033836579E+03  0.15474673818E+02  0.68713614993E+03  0.82521410322E+03  0.15294330000E+03 0.  0.
<mgrwt>
<rscale>  0 0.68694097E+03</rscale>
<asrwt>0</asrwt>
<pdfrwt beam="1">  1        1 0.13747162E+00 0.78691854E+03</pdfrwt>
<pdfrwt beam="2">  1       -1 0.18397378E+00 0.78691854E+03</pdfrwt>
<totfact> 0.37067952E+00</totfact>
</mgrwt>
</event>
<event>
 4    5  0.7767175E-008  0.8150382E+03  0.7818608E-02  0.9679176E-01
          1   -1    0    0  501    0  0.00000000000E+00  0.00000000000E+00  0.24020819840E+04  0.24020819840E+04  0.50400000000E-02 0. -1.
         -1   -1    0    0    0  501 -0.00000000000E+00 -0.00000000000E+00 -0.19325111866E+03  0.19325111872E+03  0.50400000000E-02 0.  1.
    8880023    1    1    2    0    0 -0.43948942369E+03 -0.19319971785E+03  0.10309297679E+04  0.13141930898E+04  0.65864270000E+03 0.  1.
    8880022    1    1    2    0    0  0.43948942369E+03  0.19319971785E+03  0.11779010974E+04  0.12811400130E+04  0.15294330000E+03 0.  0.
<mgrwt>
<rscale>  0 0.72270262E+03</rscale>
<asrwt>0</asrwt>
<pdfrwt beam="1">  1        1 0.36955109E+00 0.81503821E+03</pdfrwt>
<pdfrwt beam="2">  1       -1 0.29730940E-01 0.81503821E+03</pdfrwt>
<totfact> 0.17036422E+01</totfact>
</mgrwt>
</event>
<event>
 4    5  0.7767175E-008  0.9953656E+03  0.7818608E-02  0.9387646E-01
          1   -1    0    0  501    0  0.00000000000E+00  0.00000000000E+00  0.11406238917E+04  0.11406238917E+04  0.50400000000E-02 0. -1.
         -1   -1    0    0    0  501 -0.00000000000E+00 -0.00000000000E+00 -0.13600528019E+04  0.13600528019E+04  0.50400000000E-02 0.  1.
    8880023    1    1    2    0    0 -0.26206896161E+03  0.69875773336E+03 -0.99932368311E+03  0.14104611092E+04  0.65864270000E+03 0.  0.
    8880022    1    1    2    0    0  0.26206896161E+03 -0.69875773336E+03  0.77989477291E+03  0.10902155844E+04  0.15294330000E+03 0.  0.
<mgrwt>
<rscale>  0 0.93099370E+03</rscale>
<asrwt>0</asrwt>
<pdfrwt beam="1">  1        1 0.17548060E+00 0.99536562E+03</pdfrwt>
<pdfrwt beam="2">  1       -1 0.20923889E+00 0.99536562E+03</pdfrwt>
<totfact> 0.15470953E+00</totfact>
</mgrwt>
</event>
<event>
 4    5  0.7767175E-008  0.1016677E+04  0.7818608E-02  0.9360057E-01
          1   -1    0    0  501    0  0.00000000000E+00  0.00000000000E+00  0.22335460169E+04  0.22335460169E+04  0.50400000000E-02 0. -1.
         -1   -1    0    0    0  501 -0.00000000000E+00 -0.00000000000E+00 -0.12241083626E+04  0.12241083626E+04  0.50400000000E-02 0.  1.
    8880023    1    1    2    0    0  0.70054715914E+03 -0.33023645146E+03 -0.92113907225E+03  0.13719073703E+04  0.65864270000E+03 0.  1.
    8880022    1    1    2    0    0 -0.70054715914E+03  0.33023645146E+03  0.19305767265E+04  0.20857470091E+04  0.15294330000E+03 0.  0.
<mgrwt>
<rscale>  0 0.95437046E+03</rscale>
<asrwt>0</asrwt>
<pdfrwt beam="1">  1        1 0.34362246E+00 0.10166773E+04</pdfrwt>
<pdfrwt beam="2">  1       -1 0.18832436E+00 0.10166773E+04</pdfrwt>
<totfact> 0.37988910E-01</totfact>
</mgrwt>
</event>
<event>
 4    5  0.7767175E-008  0.6738188E+03  0.7818608E-02  0.1013061E+00
         -1   -1    0    0    0  501 -0.00000000000E+00  0.00000000000E+00  0.45200028655E+03  0.45200028657E+03  0.50400000000E-02 0.  1.
          1   -1    0    0  501    0  0.00000000000E+00 -0.00000000000E+00 -0.68974644602E+03  0.68974644604E+03  0.50400000000E-02 0. -1.
    8880023    1    1    2    0    0 -0.14157084175E+03  0.13390383796E+02  0.15995847005E+03  0.69254496173E+03  0.65864270000E+03 0.  1.
    8880022    1    1    2    0    0  0.14157084175E+03 -0.13390383796E+02 -0.39770462952E+03  0.44920177089E+03  0.15294330000E+03 0.  0.
<mgrwt>
<rscale>  0 0.50275879E+03</rscale>
<asrwt>0</asrwt>
<pdfrwt beam="1">  1        1 0.10611484E+00 0.67381883E+03</pdfrwt>
<pdfrwt beam="2">  1       -1 0.69538506E-01 0.67381883E+03</pdfrwt>
<totfact> 0.59925614E+01</totfact>
</mgrwt>
</event>
<event>
 4    5  0.7767175E-008  0.8466905E+03  0.7818608E-02  0.9617692E-01
         -1   -1    0    0    0  501 -0.00000000000E+00  0.00000000000E+00  0.77864961675E+03  0.77864961676E+03  0.50400000000E-02 0.  1.
          1   -1    0    0  501    0  0.00000000000E+00 -0.00000000000E+00 -0.92155435203E+03  0.92155435205E+03  0.50400000000E-02 0. -1.
    8880023    1    1    2    0    0  0.36043000271E+03 -0.39136268379E+03 -0.55297933867E+03  0.10112719181E+04  0.65864270000E+03 0.  0.
    8880022    1    1    2    0    0 -0.36043000271E+03  0.39136268379E+03  0.41007460338E+03  0.68893205069E+03  0.15294330000E+03 0.  0.
<mgrwt>
<rscale>  0 0.76136222E+03</rscale>
<asrwt>0</asrwt>
<pdfrwt beam="1">  1        1 0.14177759E+00 0.84669046E+03</pdfrwt>
<pdfrwt beam="2">  1       -1 0.11979225E+00 0.84669046E+03</pdfrwt>
<totfact> 0.11069671E+01</totfact>
</mgrwt>
</event>
<event>
 4    5  0.7767175E-008  0.1140704E+04  0.7818608E-02  0.9217036E-01
          1   -1    0    0  501    0  0.00000000000E+00  0.00000000000E+00  0.14445667963E+04  0.14445667963E+04  0.50400000000E-02 0. -1.
         -1   -1    0    0    0  501 -0.00000000000E+00 -0.00000000000E+00 -0.11995213421E+04  0.11995213421E+04  0.50400000000E-02 0.  1.
    8880023    1    1    2    0    0  0.89738161260E+03  0.24920051258E+03 -0.67547882259E+03  0.13256984952E+04  0.65864270000E+03 0.  0.
    8880022    1    1    2    0    0 -0.89738161260E+03 -0.24920051258E+03  0.92052427682E+03  0.13183896432E+04  0.15294330000E+03 0.  0.
<mgrwt>
<rscale>  0 0.10879309E+04</rscale>
<asrwt>0</asrwt>
<pdfrwt beam="1">  1        1 0.22224105E+00 0.11407037E+04</pdfrwt>
<pdfrwt beam="2">  1       -1 0.18454174E+00 0.11407037E+04</pdfrwt>
<totfact> 0.13629101E+00</totfact>
</mgrwt>
</event>
<event>
 4    5  0.7767175E-008  0.7910731E+03  0.7818608E-02  0.9730441E-01
          1   -1    0    0  501    0  0.00000000000E+00  0.00000000000E+00  0.50728351464E+03  0.50728351466E+03  0.50400000000E-02 0. -1.
         -1   -1    0    0    0  501 -0.00000000000E+00 -0.00000000000E+00 -0.12280163635E+04  0.12280163635E+04  0.50400000000E-02 0.  1.
    8880023    1    1    2    0    0 -0.29314786773E+03  0.32565425303E+03 -0.93447753341E+03  0.12243548634E+04  0.65864270000E+03 0.  1.
    8880022    1    1    2    0    0  0.29314786773E+03 -0.32565425303E+03  0.21374468457E+03  0.51094501472E+03  0.15294330000E+03 0.  0.
<mgrwt>
<rscale>  0 0.69232914E+03</rscale>
<asrwt>0</asrwt>
<pdfrwt beam="1">  1        1 0.78043618E-01 0.79107305E+03</pdfrwt>
<pdfrwt beam="2">  1       -1 0.18892559E+00 0.79107305E+03</pdfrwt>
<totfact> 0.80228134E+00</totfact>
</mgrwt>
</event>
<event>
 4    5  0.7767175E-008  0.8084301E+03  0.7818608E-02  0.9692856E-01
          1   -1    0    0  501    0  0.00000000000E+00  0.00000000000E+00  0.85115890815E+03  0.85115890817E+03  0.50400000000E-02 0. -1.
         -1   -1    0    0    0  501 -0.00000000000E+00 -0.00000000000E+00 -0.10646822872E+04  0.10646822872E+04  0.50400000000E-02 0.  1.
    8880023    1    1    2    0    0 -0.46493612944E+03 -0.59860983748E+02 -0.80833215260E+03  0.11432235202E+04  0.65864270000E+03 0.  1.
    8880022    1    1    2    0    0  0.46493612944E+03  0.59860983748E+02  0.59480877360E+03  0.77261767518E+03  0.15294330000E+03 0.  0.
<mgrwt>
<rscale>  0 0.71443714E+03</rscale>
<asrwt>0</asrwt>
<pdfrwt beam="1">  1        1 0.13094753E+00 0.80843005E+03</pdfrwt>
<pdfrwt beam="2">  1       -1 0.16379727E+00 0.80843005E+03</pdfrwt>
<totfact> 0.56117996E+00</totfact>
</mgrwt>
</event>
<event>
 4    5  0.7767175E-008  0.6635934E+03  0.7818608E-02  0.1020744E+00
         -1   -1    0    0    0  501 -0.00000000000E+00  0.00000000000E+00  0.17721846790E+03  0.17721846797E+03  0.50400000000E-02 0.  1.
          1   -1    0    0  501    0  0.00000000000E+00 -0.00000000000E+00 -0.10658284695E+04  0.10658284695E+04  0.50400000000E-02 0. -1.
    8880023    1    1    2    0    0  0.53704050890E+02  0.60513886633E+02 -0.54646363575E+03  0.85963874215E+03  0.65864270000E+03 0.  1.
    8880022    1    1    2    0    0 -0.53704050890E+02 -0.60513886633E+02 -0.34214636587E+03  0.38340819534E+03  0.15294330000E+03 0. -1.
<mgrwt>
<rscale>  0 0.47419163E+03</rscale>
<asrwt>0</asrwt>
<pdfrwt beam="1">  1        1 0.16397361E+00 0.66359345E+03</pdfrwt>
<pdfrwt beam="2">  1       -1 0.27264380E-01 0.66359345E+03</pdfrwt>
<totfact> 0.16584203E+02</totfact>
</mgrwt>
</event>
<event>
 4    5  0.7767175E-008  0.9281225E+03  0.7818608E-02  0.9482316E-01
          1   -1    0    0  501    0  0.00000000000E+00  0.00000000000E+00  0.15757192479E+04  0.15757192479E+04  0.50400000000E-02 0. -1.
         -1   -1    0    0    0  501 -0.00000000000E+00 -0.00000000000E+00 -0.11258205190E+04  0.11258205190E+04  0.50400000000E-02 0.  1.
    8880023    1    1    2    0    0  0.65260892375E+03  0.41263574124E+02 -0.83710406362E+03  0.12498617962E+04  0.65864270000E+03 0.  0.
    8880022    1    1    2    0    0 -0.65260892375E+03 -0.41263574124E+02  0.12870027925E+04  0.14516779707E+04  0.15294330000E+03 0.  0.
<mgrwt>
<rscale>  0 0.85600274E+03</rscale>
<asrwt>0</asrwt>
<pdfrwt beam="1">  1        1 0.24241835E+00 0.92812246E+03</pdfrwt>
<pdfrwt beam="2">  1       -1 0.17320316E+00 0.92812246E+03</pdfrwt>
<totfact> 0.13760077E+00</totfact>
</mgrwt>
</event>
<event>
 4    5  0.7767175E-008  0.1328178E+04  0.7818608E-02  0.9041601E-01
          1   -1    0    0  501    0  0.00000000000E+00  0.00000000000E+00  0.14167173239E+04  0.14167173239E+04  0.50400000000E-02 0. -1.
         -1   -1    0    0    0  501 -0.00000000000E+00 -0.00000000000E+00 -0.14457979813E+04  0.14457979813E+04  0.50400000000E-02 0.  1.
    8880023    1    1    2    0    0 -0.68096607835E+03 -0.93087666865E+03 -0.71856860276E+03  0.15100984124E+04  0.65864270000E+03 0.  0.
    8880022    1    1    2    0    0  0.68096607835E+03  0.93087666865E+03  0.68948794533E+03  0.13524168928E+04  0.15294330000E+03 0.  0.
<mgrwt>
<rscale>  0 0.12849315E+04</rscale>
<asrwt>0</asrwt>
<pdfrwt beam="1">  1        1 0.21795651E+00 0.13281778E+04</pdfrwt>
<pdfrwt beam="2">  1       -1 0.22243046E+00 0.13281778E+04</pdfrwt>
<totfact> 0.76493744E-01</totfact>
</mgrwt>
</event>
<event>
 4    5  0.9497016E-008  0.1217446E+04  0.7818608E-02  0.9140347E-01
         -1   -1    0    0    0  501 -0.00000000000E+00  0.00000000000E+00  0.17950873641E+04  0.17950873641E+04  0.50400000000E-02 0.  1.
          1   -1    0    0  501    0  0.00000000000E+00 -0.00000000000E+00 -0.23153953924E+04  0.23153953924E+04  0.50400000000E-02 0. -1.
    8880023    1    1    2    0    0  0.83342807974E+03  0.59477911270E+03  0.14448068736E+04  0.18893495350E+04  0.65864270000E+03 0.  0.
    8880022    1    1    2    0    0 -0.83342807974E+03 -0.59477911270E+03 -0.19651149019E+04  0.22211332215E+04  0.15294330000E+03 0.  0.
<mgrwt>
<rscale>  0 0.11690936E+04</rscale>
<asrwt>0</asrwt>
<pdfrwt beam="1">  1        1 0.35621468E+00 0.12174460E+04</pdfrwt>
<pdfrwt beam="2">  1       -1 0.27616729E+00 0.12174460E+04</pdfrwt>
<totfact> 0.84200252E-02</totfact>
</mgrwt>
</event>
<event>
 4    5  0.7767175E-008  0.8217821E+03  0.7818608E-02  0.9665538E-01
          1   -1    0    0  501    0  0.00000000000E+00  0.00000000000E+00  0.11082414453E+04  0.11082414453E+04  0.50400000000E-02 0. -1.
         -1   -1    0    0    0  501 -0.00000000000E+00 -0.00000000000E+00 -0.51717002141E+03  0.51717002143E+03  0.50400000000E-02 0.  1.
    8880023    1    1    2    0    0 -0.16920414803E+03 -0.46139532234E+03 -0.25591064645E+02  0.82218051305E+03  0.65864270000E+03 0.  0.
    8880022    1    1    2    0    0  0.16920414803E+03  0.46139532234E+03  0.61666248854E+03  0.80323095369E+03  0.15294330000E+03 0.  0.
<mgrwt>
<rscale>  0 0.73106211E+03</rscale>
<asrwt>0</asrwt>
<pdfrwt beam="1">  1        1 0.17049868E+00 0.82178214E+03</pdfrwt>
<pdfrwt beam="2">  1       -1 0.79564618E-01 0.82178214E+03</pdfrwt>
<totfact> 0.20148488E+01</totfact>
</mgrwt>
</event>
<event>
 4    5  0.7767175E-008  0.1083040E+04  0.7818608E-02  0.9280179E-01
          1   -1    0    0  501    0  0.00000000000E+00  0.00000000000E+00  0.21071155562E+04  0.21071155562E+04  0.50400000000E-02 0. -1.
         -1   -1    0    0    0  501 -0.00000000000E+00 -0.00000000000E+00 -0.99574787778E+03  0.99574787780E+03  0.50400000000E-02 0.  1.
    8880023    1    1    2    0    0  0.66736798958E+03  0.54201881703E+03 -0.55841558253E+03  0.12185247641E+04  0.65864270000E+03 0.  1.
    8880022    1    1    2    0    0 -0.66736798958E+03 -0.54201881703E+03  0.16697832609E+04  0.18843386699E+04  0.15294330000E+03 0.  0.
<mgrwt>
<rscale>  0 0.10262832E+04</rscale>
<asrwt>0</asrwt>
<pdfrwt beam="1">  1        1 0.32417162E+00 0.10830395E+04</pdfrwt>
<pdfrwt beam="2">  1       -1 0.15319198E+00 0.10830395E+04</pdfrwt>
<totfact> 0.83017314E-01</totfact>
</mgrwt>
</event>
<event>
 4    5  0.7767175E-008  0.8586355E+03  0.7818608E-02  0.9595995E-01
         -1   -1    0    0    0  501 -0.00000000000E+00  0.00000000000E+00  0.73126654692E+03  0.73126654694E+03  0.50400000000E-02 0.  1.
          1   -1    0    0  501    0  0.00000000000E+00 -0.00000000000E+00 -0.13761643526E+04  0.13761643526E+04  0.50400000000E-02 0. -1.
    8880023    1    1    2    0    0  0.40607794237E+03 -0.37221693331E+03 -0.10866546734E+04  0.13849452430E+04  0.65864270000E+03 0.  0.
    8880022    1    1    2    0    0 -0.40607794237E+03  0.37221693331E+03  0.44175686769E+03  0.72248565653E+03  0.15294330000E+03 0.  0.
<mgrwt>
<rscale>  0 0.77561810E+03</rscale>
<asrwt>0</asrwt>
<pdfrwt beam="1">  1        1 0.21171759E+00 0.85863551E+03</pdfrwt>
<pdfrwt beam="2">  1       -1 0.11250255E+00 0.85863551E+03</pdfrwt>
<totfact> 0.59084890E+00</totfact>
</mgrwt>
</event>
<event>
 4    5  0.7767175E-008  0.9846651E+03  0.7818608E-02  0.9401901E-01
         -1   -1    0    0    0  501 -0.00000000000E+00  0.00000000000E+00  0.60421352714E+03  0.60421352716E+03  0.50400000000E-02 0.  1.
          1   -1    0    0  501    0  0.00000000000E+00 -0.00000000000E+00 -0.28737242933E+04  0.28737242933E+04  0.50400000000E-02 0. -1.
    8880023    1    1    2    0    0  0.25250904771E+03  0.68701841151E+03  0.10332176703E+03  0.99007106347E+03  0.65864270000E+03 0.  1.
    8880022    1    1    2    0    0 -0.25250904771E+03 -0.68701841151E+03 -0.23728325331E+04  0.24878667569E+04  0.15294330000E+03 0.  0.
<mgrwt>
<rscale>  0 0.91919389E+03</rscale>
<asrwt>0</asrwt>
<pdfrwt beam="1">  1        1 0.44211142E+00 0.98466508E+03</pdfrwt>
<pdfrwt beam="2">  1       -1 0.92955928E-01 0.98466508E+03</pdfrwt>
<totfact> 0.85302422E-01</totfact>
</mgrwt>
</event>
<event>
 4    5  0.7767175E-008  0.1351609E+04  0.7818608E-02  0.9022227E-01
         -1   -1    0    0    0  501 -0.00000000000E+00  0.00000000000E+00  0.79472454956E+03  0.79472454958E+03  0.50400000000E-02 0.  1.
          1   -1    0    0  501    0  0.00000000000E+00 -0.00000000000E+00 -0.24888148668E+04  0.24888148668E+04  0.50400000000E-02 0. -1.
    8880023    1    1    2    0    0  0.10863432597E+04  0.46140422919E+03 -0.15929690725E+04  0.20891137386E+04  0.65864270000E+03 0. -1.
    8880022    1    1    2    0    0 -0.10863432597E+04 -0.46140422919E+03 -0.10112124477E+03  0.11944256778E+04  0.15294330000E+03 0.  0.
<mgrwt>
<rscale>  0 0.13092949E+04</rscale>
<asrwt>0</asrwt>
<pdfrwt beam="1">  1        1 0.38289459E+00 0.13516086E+04</pdfrwt>
<pdfrwt beam="2">  1       -1 0.12226532E+00 0.13516086E+04</pdfrwt>
<totfact> 0.79056553E-01</totfact>
</mgrwt>
</event>
<event>
 4    5  0.7767175E-008  0.8142585E+03  0.7818608E-02  0.9680774E-01
         -1   -1    0    0    0  501 -0.00000000000E+00  0.00000000000E+00  0.17773556902E+03  0.17773556909E+03  0.50400000000E-02 0.  1.
          1   -1    0    0  501    0  0.00000000000E+00 -0.00000000000E+00 -0.36758927222E+04  0.36758927222E+04  0.50400000000E-02 0. -1.
    8880023    1    1    2    0    0 -0.46214714547E+03  0.12500691831E+03 -0.92710323092E+03  0.12339113910E+04  0.65864270000E+03 0.  1.
    8880022    1    1    2    0    0  0.46214714547E+03 -0.12500691831E+03 -0.25710539223E+04  0.26197169003E+04  0.15294330000E+03 0. -1.
<mgrwt>
<rscale>  0 0.72173131E+03</rscale>
<asrwt>0</asrwt>
<pdfrwt beam="1">  1        1 0.56552190E+00 0.81425851E+03</pdfrwt>
<pdfrwt beam="2">  1       -1 0.27343936E-01 0.81425851E+03</pdfrwt>
<totfact> 0.23288161E+00</totfact>
</mgrwt>
</event>
<event>
 4    5  0.7767175E-008  0.1039170E+04  0.7818608E-02  0.9332015E-01
         -1   -1    0    0    0  501 -0.00000000000E+00  0.00000000000E+00  0.65401257969E+03  0.65401257971E+03  0.50400000000E-02 0.  1.
          1   -1    0    0  501    0  0.00000000000E+00 -0.00000000000E+00 -0.21881963957E+04  0.21881963958E+04  0.50400000000E-02 0. -1.
    8880023    1    1    2    0    0 -0.79860057970E+03  0.91109935018E+02  0.69884604248E+02  0.10415171484E+04  0.65864270000E+03 0.  0.
    8880022    1    1    2    0    0  0.79860057970E+03 -0.91109935018E+02 -0.16040684203E+04  0.18006918271E+04  0.15294330000E+03 0.  0.
<mgrwt>
<rscale>  0 0.97888155E+03</rscale>
<asrwt>0</asrwt>
<pdfrwt beam="1">  1        1 0.33664560E+00 0.10391699E+04</pdfrwt>
<pdfrwt beam="2">  1       -1 0.10061732E+00 0.10391699E+04</pdfrwt>
<totfact> 0.21023718E+00</totfact>
</mgrwt>
</event>
<event>
 4    5  0.7767175E-008  0.8315343E+03  0.7818608E-02  0.9646354E-01
          1   -1    0    0  501    0  0.00000000000E+00  0.00000000000E+00  0.75717753684E+03  0.75717753686E+03  0.50400000000E-02 0. -1.
         -1   -1    0    0    0  501 -0.00000000000E+00 -0.00000000000E+00 -0.12520923688E+04  0.12520923688E+04  0.50400000000E-02 0.  1.
    8880023    1    1    2    0    0 -0.22567136860E+03  0.45465540930E+03 -0.98379273827E+03  0.12881372077E+04  0.65864270000E+03 0.  0.
    8880022    1    1    2    0    0  0.22567136860E+03 -0.45465540930E+03  0.48887790628E+03  0.72113269797E+03  0.15294330000E+03 0.  0.
<mgrwt>
<rscale>  0 0.74302660E+03</rscale>
<asrwt>0</asrwt>
<pdfrwt beam="1">  1        1 0.11648885E+00 0.83153431E+03</pdfrwt>
<pdfrwt beam="2">  1       -1 0.19262959E+00 0.83153431E+03</pdfrwt>
<totfact> 0.41887387E+00</totfact>
</mgrwt>
</event>
<event>
 4    5  0.7767175E-008  0.6723670E+03  0.7818608E-02  0.1014020E+00
          1   -1    0    0  501    0  0.00000000000E+00  0.00000000000E+00  0.69934125852E+03  0.69934125854E+03  0.50400000000E-02 0. -1.
         -1   -1    0    0    0  501 -0.00000000000E+00 -0.00000000000E+00 -0.11610724511E+04  0.11610724511E+04  0.50400000000E-02 0.  1.
    8880023    1    1    2    0    0  0.11571505562E+03  0.69836496109E+02 -0.10449133431E+04  0.12425462611E+04  0.65864270000E+03 0.  1.
    8880022    1    1    2    0    0 -0.11571505562E+03 -0.69836496109E+02  0.58318215048E+03  0.61786744852E+03  0.15294330000E+03 0.  0.
<mgrwt>
<rscale>  0 0.49907759E+03</rscale>
<asrwt>0</asrwt>
<pdfrwt beam="1">  1        1 0.10759096E+00 0.67236695E+03</pdfrwt>
<pdfrwt beam="2">  1       -1 0.17862653E+00 0.67236695E+03</pdfrwt>
<totfact> 0.60796476E+00</totfact>
</mgrwt>
</event>
<event>
 4    5  0.7767175E-008  0.6986104E+03  0.7818608E-02  0.1000302E+00
          1   -1    0    0  501    0  0.00000000000E+00  0.00000000000E+00  0.70475508920E+03  0.70475508922E+03  0.50400000000E-02 0. -1.
         -1   -1    0    0    0  501 -0.00000000000E+00 -0.00000000000E+00 -0.59652640515E+03  0.59652640517E+03  0.50400000000E-02 0.  1.
    8880023    1    1    2    0    0  0.23192857305E+03  0.21339781275E+02 -0.33731688280E+03  0.77578291741E+03  0.65864270000E+03 0.  1.
    8880022    1    1    2    0    0 -0.23192857305E+03 -0.21339781275E+02  0.44554556685E+03  0.52549857698E+03  0.15294330000E+03 0.  0.
<mgrwt>
<rscale>  0 0.55518215E+03</rscale>
<asrwt>0</asrwt>
<pdfrwt beam="1">  1        1 0.10842386E+00 0.69861037E+03</pdfrwt>
<pdfrwt beam="2">  1       -1 0.91773293E-01 0.69861037E+03</pdfrwt>
<totfact> 0.32132685E+01</totfact>
</mgrwt>
</event>
<event>
 4    5  0.7767175E-008  0.7726099E+03  0.7818608E-02  0.9773492E-01
         -1   -1    0    0    0  501 -0.00000000000E+00  0.00000000000E+00  0.10373113274E+04  0.10373113274E+04  0.50400000000E-02 0.  1.
          1   -1    0    0  501    0  0.00000000000E+00 -0.00000000000E+00 -0.78240873535E+03  0.78240873536E+03  0.50400000000E-02 0. -1.
    8880023    1    1    2    0    0 -0.47517693968E+02  0.40107093291E+03  0.80803344197E+03  0.11179642544E+04  0.65864270000E+03 0.  1.
    8880022    1    1    2    0    0  0.47517693968E+02 -0.40107093291E+03 -0.55313084992E+03  0.70175580839E+03  0.15294330000E+03 0.  0.
<mgrwt>
<rscale>  0 0.66804732E+03</rscale>
<asrwt>0</asrwt>
<pdfrwt beam="1">  1        1 0.12037057E+00 0.77260988E+03</pdfrwt>
<pdfrwt beam="2">  1       -1 0.15958636E+00 0.77260988E+03</pdfrwt>
<totfact> 0.69471666E+00</totfact>
</mgrwt>
</event>
<event>
 4    5  0.7767175E-008  0.6599468E+03  0.7818608E-02  0.1024211E+00
         -1   -1    0    0    0  501 -0.00000000000E+00  0.00000000000E+00  0.71161530016E+03  0.71161530017E+03  0.50400000000E-02 0.  1.
          1   -1    0    0  501    0  0.00000000000E+00 -0.00000000000E+00 -0.86283439323E+03  0.86283439325E+03  0.50400000000E-02 0. -1.
    8880023    1    1    2    0    0 -0.34163291082E+02  0.23502847446E+02  0.54780876803E+03  0.85768535425E+03  0.65864270000E+03 0.  1.
    8880022    1    1    2    0    0  0.34163291082E+02 -0.23502847446E+02 -0.69902786111E+03  0.71676433918E+03  0.15294330000E+03 0.  0.
<mgrwt>
<rscale>  0 0.46197134E+03</rscale>
<asrwt>0</asrwt>
<pdfrwt beam="1">  1        1 0.13274375E+00 0.65994676E+03</pdfrwt>
<pdfrwt beam="2">  1       -1 0.10947928E+00 0.65994676E+03</pdfrwt>
<totfact> 0.15704433E+01</totfact>
</mgrwt>
</event>
<event>
 4    5  0.7767175E-008  0.7335288E+03  0.7818608E-02  0.9879215E-01
         -1   -1    0    0    0  501 -0.00000000000E+00  0.00000000000E+00  0.24536235439E+03  0.24536235444E+03  0.50400000000E-02 0.  1.
          1   -1    0    0  501    0  0.00000000000E+00 -0.00000000000E+00 -0.28917585618E+04  0.28917585618E+04  0.50400000000E-02 0. -1.
    8880023    1    1    2    0    0 -0.14375276090E+03 -0.28911837525E+03 -0.34937784798E+03  0.81248346327E+03  0.65864270000E+03 0.  1.
    8880022    1    1    2    0    0  0.14375276090E+03  0.28911837525E+03 -0.22970183594E+04  0.23246374529E+04  0.15294330000E+03 0.  0.
<mgrwt>
<rscale>  0 0.61279294E+03</rscale>
<asrwt>0</asrwt>
<pdfrwt beam="1">  1        1 0.44488591E+00 0.73352880E+03</pdfrwt>
<pdfrwt beam="2">  1       -1 0.37748057E-01 0.73352880E+03</pdfrwt>
<totfact> 0.51817971E+00</totfact>
</mgrwt>
</event>
<event>
 4    5  0.8314598E-008  0.1793780E+04  0.7818608E-02  0.8725985E-01
         -1   -1    0    0    0  501 -0.00000000000E+00  0.00000000000E+00  0.22014718542E+04  0.22014718542E+04  0.50400000000E-02 0.  1.
          1   -1    0    0  501    0  0.00000000000E+00 -0.00000000000E+00 -0.33489923619E+04  0.33489923619E+04  0.50400000000E-02 0. -1.
    8880023    1    1    2    0    0  0.15299517113E+04 -0.66564592792E+03  0.15528410145E+04  0.23725433953E+04  0.65864270000E+03 0.  0.
    8880022    1    1    2    0    0 -0.15299517113E+04  0.66564592792E+03 -0.27003615221E+04  0.31779208208E+04  0.15294330000E+03 0.  0.
<mgrwt>
<rscale>  0 0.17634438E+04</rscale>
<asrwt>0</asrwt>
<pdfrwt beam="1">  1        1 0.51522960E+00 0.17937801E+04</pdfrwt>
<pdfrwt beam="2">  1       -1 0.33868798E+00 0.17937801E+04</pdfrwt>
<totfact> 0.54854418E-03</totfact>
</mgrwt>
</event>
<event>
 4    5  0.7767175E-008  0.1143154E+04  0.7818608E-02  0.9214465E-01
          1   -1    0    0  501    0  0.00000000000E+00  0.00000000000E+00  0.23169553410E+04  0.23169553410E+04  0.50400000000E-02 0. -1.
         -1   -1    0    0    0  501 -0.00000000000E+00 -0.00000000000E+00 -0.86532981629E+03  0.86532981631E+03  0.50400000000E-02 0.  1.
    8880023    1    1    2    0    0  0.75063794184E+03  0.55635793344E+03 -0.30817539274E+03  0.11839652650E+04  0.65864270000E+03 0.  0.
    8880022    1    1    2    0    0 -0.75063794184E+03 -0.55635793344E+03  0.17598009174E+04  0.19983198922E+04  0.15294330000E+03 0.  0.
<mgrwt>
<rscale>  0 0.10905368E+04</rscale>
<asrwt>0</asrwt>
<pdfrwt beam="1">  1        1 0.35645466E+00 0.11431543E+04</pdfrwt>
<pdfrwt beam="2">  1       -1 0.13312767E+00 0.11431543E+04</pdfrwt>
<totfact> 0.85969982E-01</totfact>
</mgrwt>
</event>
<event>
 4    5  0.7767175E-008  0.7182278E+03  0.7818608E-02  0.9928629E-01
         -1   -1    0    0    0  501 -0.00000000000E+00  0.00000000000E+00  0.61853375214E+03  0.61853375216E+03  0.50400000000E-02 0.  1.
          1   -1    0    0  501    0  0.00000000000E+00 -0.00000000000E+00 -0.20775664959E+04  0.20775664959E+04  0.50400000000E-02 0. -1.
    8880023    1    1    2    0    0 -0.28615746861E+03 -0.12444600570E+02  0.39101939219E+03  0.81776973303E+03  0.65864270000E+03 0.  0.
    8880022    1    1    2    0    0  0.28615746861E+03  0.12444600570E+02 -0.18500521359E+04  0.18783305150E+04  0.15294330000E+03 0.  0.
<mgrwt>
<rscale>  0 0.58893658E+03</rscale>
<asrwt>0</asrwt>
<pdfrwt beam="1">  1        1 0.31962561E+00 0.71822780E+03</pdfrwt>
<pdfrwt beam="2">  1       -1 0.95159039E-01 0.71822780E+03</pdfrwt>
<totfact> 0.29856068E+00</totfact>
</mgrwt>
</event>
<event>
 4    5  0.7767175E-008  0.1468237E+04  0.7818608E-02  0.8932396E-01
         -1   -1    0    0    0  501 -0.00000000000E+00  0.00000000000E+00  0.20089219448E+04  0.20089219448E+04  0.50400000000E-02 0.  1.
          1   -1    0    0  501    0  0.00000000000E+00 -0.00000000000E+00 -0.16019134270E+04  0.16019134270E+04  0.50400000000E-02 0. -1.
    8880023    1    1    2    0    0  0.63464886009E+03  0.11485344860E+04  0.13445559331E+04  0.19908670233E+04  0.65864270000E+03 0.  0.
    8880022    1    1    2    0    0 -0.63464886009E+03 -0.11485344860E+04 -0.93754741527E+03  0.16199683484E+04  0.15294330000E+03 0.  0.
<mgrwt>
<rscale>  0 0.14299835E+04</rscale>
<asrwt>0</asrwt>
<pdfrwt beam="1">  1        1 0.24644822E+00 0.14682373E+04</pdfrwt>
<pdfrwt beam="2">  1       -1 0.30906491E+00 0.14682373E+04</pdfrwt>
<totfact> 0.15222175E-01</totfact>
</mgrwt>
</event>
<event>
 4    5  0.7767175E-008  0.8652218E+03  0.7818608E-02  0.9584342E-01
          1   -1    0    0  501    0  0.00000000000E+00  0.00000000000E+00  0.16822696283E+04  0.16822696283E+04  0.50400000000E-02 0. -1.
         -1   -1    0    0    0  501 -0.00000000000E+00 -0.00000000000E+00 -0.11511713915E+04  0.11511713915E+04  0.50400000000E-02 0.  1.
    8880023    1    1    2    0    0 -0.46113510003E+03  0.31961375593E+03 -0.92435198517E+03  0.12661103160E+04  0.65864270000E+03 0.  1.
    8880022    1    1    2    0    0  0.46113510003E+03 -0.31961375593E+03  0.14554502220E+04  0.15673307038E+04  0.15294330000E+03 0.  0.
<mgrwt>
<rscale>  0 0.78341288E+03</rscale>
<asrwt>0</asrwt>
<pdfrwt beam="1">  1        1 0.25881071E+00 0.86522179E+03</pdfrwt>
<pdfrwt beam="2">  1       -1 0.17710329E+00 0.86522179E+03</pdfrwt>
<totfact> 0.11028213E+00</totfact>
</mgrwt>
</event>
<event>
 4    5  0.7767175E-008  0.6756312E+03  0.7818608E-02  0.1011911E+00
          1   -1    0    0  501    0  0.00000000000E+00  0.00000000000E+00  0.20096937698E+04  0.20096937698E+04  0.50400000000E-02 0. -1.
         -1   -1    0    0    0  501 -0.00000000000E+00 -0.00000000000E+00 -0.10828628961E+03  0.10828628972E+03  0.50400000000E-02 0.  1.
    8880023    1    1    2    0    0  0.13577651896E+03 -0.65054525107E+02  0.11234285678E+04  0.13109421450E+04  0.65864270000E+03 0.  1.
    8880022    1    1    2    0    0 -0.13577651896E+03  0.65054525107E+02  0.77797891234E+03  0.80703791448E+03  0.15294330000E+03 0.  0.
<mgrwt>
<rscale>  0 0.50722028E+03</rscale>
<asrwt>0</asrwt>
<pdfrwt beam="1">  1        1 0.30918362E+00 0.67563123E+03</pdfrwt>
<pdfrwt beam="2">  1       -1 0.16659431E-01 0.67563123E+03</pdfrwt>
<totfact> 0.84508520E+01</totfact>
</mgrwt>
</event>
<event>
 4    5  0.7767175E-008  0.9855713E+03  0.7818608E-02  0.9400683E-01
         -1   -1    0    0    0  501 -0.00000000000E+00  0.00000000000E+00  0.92429370619E+03  0.92429370620E+03  0.50400000000E-02 0.  1.
          1   -1    0    0  501    0  0.00000000000E+00 -0.00000000000E+00 -0.88699370829E+03  0.88699370831E+03  0.50400000000E-02 0. -1.
    8880023    1    1    2    0    0 -0.71027143648E+02  0.72972301695E+03  0.27899687252E+03  0.10242997597E+04  0.65864270000E+03 0.  0.
    8880022    1    1    2    0    0  0.71027143648E+02 -0.72972301695E+03 -0.24169687462E+03  0.78698765481E+03  0.15294330000E+03 0.  0.
<mgrwt>
<rscale>  0 0.92019490E+03</rscale>
<asrwt>0</asrwt>
<pdfrwt beam="1">  1        1 0.13646057E+00 0.98557128E+03</pdfrwt>
<pdfrwt beam="2">  1       -1 0.14219903E+00 0.98557128E+03</pdfrwt>
<totfact> 0.75329846E+00</totfact>
</mgrwt>
</event>
<event>
 4    5  0.7767175E-008  0.9554886E+03  0.7818608E-02  0.9442261E-01
         -1   -1    0    0    0  501 -0.00000000000E+00  0.00000000000E+00  0.14522327303E+04  0.14522327303E+04  0.50400000000E-02 0.  1.
          1   -1    0    0  501    0  0.00000000000E+00 -0.00000000000E+00 -0.72704722528E+03  0.72704722530E+03  0.50400000000E-02 0. -1.
    8880023    1    1    2    0    0  0.40963751117E+02  0.69099216700E+03  0.10323756259E+04  0.14066832774E+04  0.65864270000E+03 0.  0.
    8880022    1    1    2    0    0 -0.40963751117E+02 -0.69099216700E+03 -0.30719012088E+03  0.77259667819E+03  0.15294330000E+03 0.  0.
<mgrwt>
<rscale>  0 0.88677907E+03</rscale>
<asrwt>0</asrwt>
<pdfrwt beam="1">  1        1 0.11185342E+00 0.95548857E+03</pdfrwt>
<pdfrwt beam="2">  1       -1 0.22342042E+00 0.95548857E+03</pdfrwt>
<totfact> 0.27138131E+00</totfact>
</mgrwt>
</event>
<event>
 4    5  0.7767175E-008  0.6863740E+03  0.7818608E-02  0.1005926E+00
         -1   -1    0    0    0  501 -0.00000000000E+00  0.00000000000E+00  0.15509673223E+03  0.15509673231E+03  0.50400000000E-02 0.  1.
          1   -1    0    0  501    0  0.00000000000E+00 -0.00000000000E+00 -0.35897115762E+04  0.35897115762E+04  0.50400000000E-02 0. -1.
    8880023    1    1    2    0    0  0.17494121388E+03  0.81820537453E+02 -0.63715899386E+03  0.93652593044E+03  0.65864270000E+03 0.  1.
    8880022    1    1    2    0    0 -0.17494121388E+03 -0.81820537453E+02 -0.27974558501E+04  0.28082823780E+04  0.15294330000E+03 0.  0.
<mgrwt>
<rscale>  0 0.53126458E+03</rscale>
<asrwt>0</asrwt>
<pdfrwt beam="1">  1        1 0.55226326E+00 0.68637398E+03</pdfrwt>
<pdfrwt beam="2">  1       -1 0.23861038E-01 0.68637398E+03</pdfrwt>
<totfact> 0.35308971E+00</totfact>
</mgrwt>
</event>
<event>
 4    5  0.7767175E-008  0.1068870E+04  0.7818608E-02  0.9296534E-01
         -1   -1    0    0    0  501 -0.00000000000E+00  0.00000000000E+00  0.85460435911E+03  0.85460435912E+03  0.50400000000E-02 0.  1.
          1   -1    0    0  501    0  0.00000000000E+00 -0.00000000000E+00 -0.19217364838E+04  0.19217364838E+04  0.50400000000E-02 0. -1.
    8880023    1    1    2    0    0 -0.78618593593E+02 -0.83814733067E+03  0.34676876693E+03  0.11237128704E+04  0.65864270000E+03 0.  0.
    8880022    1    1    2    0    0  0.78618593593E+02  0.83814733067E+03 -0.14139008916E+04  0.16526279725E+04  0.15294330000E+03 0.  0.
<mgrwt>
<rscale>  0 0.10110255E+04</rscale>
<asrwt>0</asrwt>
<pdfrwt beam="1">  1        1 0.29565177E+00 0.10688695E+04</pdfrwt>
<pdfrwt beam="2">  1       -1 0.13147759E+00 0.10688695E+04</pdfrwt>
<totfact> 0.16598375E+00</totfact>
</mgrwt>
</event>
<event>
 4    5  0.7767175E-008  0.7583879E+03  0.7818608E-02  0.9809299E-01
         -1   -1    0    0    0  501 -0.00000000000E+00  0.00000000000E+00  0.36937425609E+03  0.36937425613E+03  0.50400000000E-02 0.  1.
          1   -1    0    0  501    0  0.00000000000E+00 -0.00000000000E+00 -0.34575598115E+04  0.34575598115E+04  0.50400000000E-02 0. -1.
    8880023    1    1    2    0    0 -0.23283010944E+03  0.29518143357E+03 -0.48139956946E+02  0.75991420589E+03  0.65864270000E+03 0.  1.
    8880022    1    1    2    0    0  0.23283010944E+03 -0.29518143357E+03 -0.30400455985E+04  0.30670198617E+04  0.15294330000E+03 0.  0.
<mgrwt>
<rscale>  0 0.64865878E+03</rscale>
<asrwt>0</asrwt>
<pdfrwt beam="1">  1        1 0.53193226E+00 0.75838786E+03</pdfrwt>
<pdfrwt beam="2">  1       -1 0.56826811E-01 0.75838786E+03</pdfrwt>
<totfact> 0.92100714E-01</totfact>
</mgrwt>
</event>
<event>
 4    5  0.7767175E-008  0.8914355E+03  0.7818608E-02  0.9539923E-01
         -1   -1    0    0    0  501 -0.00000000000E+00  0.00000000000E+00  0.56685051283E+03  0.56685051285E+03  0.50400000000E-02 0.  1.
          1   -1    0    0  501    0  0.00000000000E+00 -0.00000000000E+00 -0.20056274147E+04  0.20056274147E+04  0.50400000000E-02 0. -1.
    8880023    1    1    2    0    0 -0.50329825064E+03 -0.32792983117E+03  0.11575193009E+03  0.89891925046E+03  0.65864270000E+03 0.  1.
    8880022    1    1    2    0    0  0.50329825064E+03  0.32792983117E+03 -0.15545288320E+04  0.16735586771E+04  0.15294330000E+03 0.  0.
<mgrwt>
<rscale>  0 0.81403411E+03</rscale>
<asrwt>0</asrwt>
<pdfrwt beam="1">  1        1 0.30855806E+00 0.89143553E+03</pdfrwt>
<pdfrwt beam="2">  1       -1 0.87207772E-01 0.89143553E+03</pdfrwt>
<totfact> 0.39273061E+00</totfact>
</mgrwt>
</event>
<event>
 4    5  0.7767175E-008  0.8300993E+03  0.7818608E-02  0.9649139E-01
          1   -1    0    0  501    0  0.00000000000E+00  0.00000000000E+00  0.84609690762E+03  0.84609690764E+03  0.50400000000E-02 0. -1.
         -1   -1    0    0    0  501 -0.00000000000E+00 -0.00000000000E+00 -0.11356838305E+04  0.11356838306E+04  0.50400000000E-02 0.  1.
    8880023    1    1    2    0    0  0.22777599293E+03 -0.45096861860E+03 -0.86640352519E+03  0.11998832746E+04  0.65864270000E+03 0.  1.
    8880022    1    1    2    0    0 -0.22777599293E+03  0.45096861860E+03  0.57681660227E+03  0.78189746360E+03  0.15294330000E+03 0.  0.
<mgrwt>
<rscale>  0 0.74127470E+03</rscale>
<asrwt>0</asrwt>
<pdfrwt beam="1">  1        1 0.13016875E+00 0.83009927E+03</pdfrwt>
<pdfrwt beam="2">  1       -1 0.17472059E+00 0.83009927E+03</pdfrwt>
<totfact> 0.46977502E+00</totfact>
</mgrwt>
</event>
<event>
 4    5  0.7767175E-008  0.1065365E+04  0.7818608E-02  0.9300635E-01
         -1   -1    0    0    0  501 -0.00000000000E+00  0.00000000000E+00  0.89534810027E+03  0.89534810029E+03  0.50400000000E-02 0.  1.
          1   -1    0    0  501    0  0.00000000000E+00 -0.00000000000E+00 -0.12486917605E+04  0.12486917605E+04  0.50400000000E-02 0. -1.
    8880023    1    1    2    0    0 -0.58646639451E+03 -0.59770321629E+03  0.25784149586E+03  0.10961224429E+04  0.65864270000E+03 0.  1.
    8880022    1    1    2    0    0  0.58646639451E+03  0.59770321629E+03 -0.61118515610E+03  0.10479174179E+04  0.15294330000E+03 0.  0.
<mgrwt>
<rscale>  0 0.10072443E+04</rscale>
<asrwt>0</asrwt>
<pdfrwt beam="1">  1        1 0.19210642E+00 0.10653648E+04</pdfrwt>
<pdfrwt beam="2">  1       -1 0.13774586E+00 0.10653648E+04</pdfrwt>
<totfact> 0.42890452E+00</totfact>
</mgrwt>
</event>
<event>
 4    5  0.7767175E-008  0.1852158E+04  0.7818608E-02  0.8694220E-01
          1   -1    0    0  501    0  0.00000000000E+00  0.00000000000E+00  0.20860876420E+04  0.20860876420E+04  0.50400000000E-02 0. -1.
         -1   -1    0    0    0  501 -0.00000000000E+00 -0.00000000000E+00 -0.29811656712E+04  0.29811656712E+04  0.50400000000E-02 0.  1.
    8880023    1    1    2    0    0 -0.64142175707E+03  0.16078729801E+04  0.13034452588E+04  0.22648304880E+04  0.65864270000E+03 0.  0.
    8880022    1    1    2    0    0  0.64142175707E+03 -0.16078729801E+04 -0.21985232880E+04  0.28024228252E+04  0.15294330000E+03 0.  0.
<mgrwt>
<rscale>  0 0.18228904E+04</rscale>
<asrwt>0</asrwt>
<pdfrwt beam="1">  1        1 0.32093656E+00 0.18521576E+04</pdfrwt>
<pdfrwt beam="2">  1       -1 0.45864087E+00 0.18521576E+04</pdfrwt>
<totfact> 0.65973276E-03</totfact>
</mgrwt>
</event>
<event>
 4    5  0.7767175E-008  0.1472839E+04  0.7818608E-02  0.8929057E-01
          1   -1    0    0  501    0  0.00000000000E+00  0.00000000000E+00  0.15867752291E+04  0.15867752291E+04  0.50400000000E-02 0. -1.
         -1   -1    0    0    0  501 -0.00000000000E+00 -0.00000000000E+00 -0.12822337315E+04  0.12822337315E+04  0.50400000000E-02 0.  1.
    8880023    1    1    2    0    0  0.11116880238E+04 -0.70681928031E+03 -0.11683459274E+03  0.14774654939E+04  0.65864270000E+03 0.  0.
    8880022    1    1    2    0    0 -0.11116880238E+04  0.70681928031E+03  0.42137609029E+03  0.13915434667E+04  0.15294330000E+03 0.  0.
<mgrwt>
<rscale>  0 0.14347279E+04</rscale>
<asrwt>0</asrwt>
<pdfrwt beam="1">  1        1 0.24411927E+00 0.14728387E+04</pdfrwt>
<pdfrwt beam="2">  1       -1 0.19726673E+00 0.14728387E+04</pdfrwt>
<totfact> 0.85099237E-01</totfact>
</mgrwt>
</event>
<event>
 4    5  0.7767175E-008  0.6873595E+03  0.7818608E-02  0.1005434E+00
          1   -1    0    0  501    0  0.00000000000E+00  0.00000000000E+00  0.14029791064E+04  0.14029791064E+04  0.50400000000E-02 0. -1.
         -1   -1    0    0    0  501 -0.00000000000E+00 -0.00000000000E+00 -0.94921136084E+03  0.94921136085E+03  0.50400000000E-02 0.  1.
    8880023    1    1    2    0    0  0.39998723396E+02  0.19249162568E+03 -0.81101537914E+03  0.10631129175E+04  0.65864270000E+03 0.  1.
    8880022    1    1    2    0    0 -0.39998723396E+02 -0.19249162568E+03  0.12647831247E+04  0.12890775498E+04  0.15294330000E+03 0.  0.
<mgrwt>
<rscale>  0 0.53330536E+03</rscale>
<asrwt>0</asrwt>
<pdfrwt beam="1">  1        1 0.21584294E+00 0.68735953E+03</pdfrwt>
<pdfrwt beam="2">  1       -1 0.14603252E+00 0.68735953E+03</pdfrwt>
<totfact> 0.30264836E+00</totfact>
</mgrwt>
</event>
<event>
 4    5  0.7767175E-008  0.8646152E+03  0.7818608E-02  0.9585406E-01
          1   -1    0    0  501    0  0.00000000000E+00  0.00000000000E+00  0.21572247263E+04  0.21572247263E+04  0.50400000000E-02 0. -1.
         -1   -1    0    0    0  501 -0.00000000000E+00 -0.00000000000E+00 -0.66654470698E+03  0.66654470700E+03  0.50400000000E-02 0.  1.
    8880023    1    1    2    0    0  0.38573951375E+03  0.40614554602E+03 -0.32025920522E+03  0.92202241936E+03  0.65864270000E+03 0.  1.
    8880022    1    1    2    0    0 -0.38573951375E+03 -0.40614554602E+03  0.18109392246E+04  0.19017470140E+04  0.15294330000E+03 0.  0.
<mgrwt>
<rscale>  0 0.78269679E+03</rscale>
<asrwt>0</asrwt>
<pdfrwt beam="1">  1        1 0.33188072E+00 0.86461516E+03</pdfrwt>
<pdfrwt beam="2">  1       -1 0.10254534E+00 0.86461516E+03</pdfrwt>
<totfact> 0.21687969E+00</totfact>
</mgrwt>
</event>
<event>
 4    5  0.7767175E-008  0.9855562E+03  0.7818608E-02  0.9400703E-01
          1   -1    0    0  501    0  0.00000000000E+00  0.00000000000E+00  0.17687512055E+04  0.17687512055E+04  0.50400000000E-02 0. -1.
         -1   -1    0    0    0  501 -0.00000000000E+00 -0.00000000000E+00 -0.66805956128E+03  0.66805956130E+03  0.50400000000E-02 0.  1.
    8880023    1    1    2    0    0 -0.26706681262E+03  0.68277820694E+03 -0.13208531809E+03  0.99436788956E+03  0.65864270000E+03 0.  1.
    8880022    1    1    2    0    0  0.26706681262E+03 -0.68277820694E+03  0.12327769623E+04  0.14424428772E+04  0.15294330000E+03 0.  0.
<mgrwt>
<rscale>  0 0.92017822E+03</rscale>
<asrwt>0</asrwt>
<pdfrwt beam="1">  1        1 0.27211556E+00 0.98555617E+03</pdfrwt>
<pdfrwt beam="2">  1       -1 0.10277840E+00 0.98555617E+03</pdfrwt>
<totfact> 0.38672876E+00</totfact>
</mgrwt>
</event>
<event>
 4    5  0.7767175E-008  0.8442510E+03  0.7818608E-02  0.9622216E-01
          1   -1    0    0  501    0  0.00000000000E+00  0.00000000000E+00  0.21979818516E+04  0.21979818516E+04  0.50400000000E-02 0. -1.
         -1   -1    0    0    0  501 -0.00000000000E+00 -0.00000000000E+00 -0.70161982559E+03  0.70161982560E+03  0.50400000000E-02 0.  1.
    8880023    1    1    2    0    0  0.52369515347E+03  0.68504771512E+02 -0.39344401654E+03  0.93142789195E+03  0.65864270000E+03 0.  1.
    8880022    1    1    2    0    0 -0.52369515347E+03 -0.68504771512E+02  0.18898060425E+04  0.19681737852E+04  0.15294330000E+03 0.  0.
<mgrwt>
<rscale>  0 0.75843059E+03</rscale>
<asrwt>0</asrwt>
<pdfrwt beam="1">  1        1 0.33815104E+00 0.84425098E+03</pdfrwt>
<pdfrwt beam="2">  1       -1 0.10794152E+00 0.84425098E+03</pdfrwt>
<totfact> 0.18133442E+00</totfact>
</mgrwt>
</event>
<event>
 4    5  0.7767175E-008  0.7797007E+03  0.7818608E-02  0.9756540E-01
         -1   -1    0    0    0  501 -0.00000000000E+00  0.00000000000E+00  0.17905340461E+03  0.17905340468E+03  0.50400000000E-02 0.  1.
          1   -1    0    0  501    0  0.00000000000E+00 -0.00000000000E+00 -0.28485875932E+04  0.28485875932E+04  0.50400000000E-02 0. -1.
    8880023    1    1    2    0    0  0.27222898633E+03 -0.31625052917E+03 -0.84502164642E+03  0.11497803301E+04  0.65864270000E+03 0.  1.
    8880022    1    1    2    0    0 -0.27222898633E+03  0.31625052917E+03 -0.18245125421E+04  0.18778606678E+04  0.15294330000E+03 0.  0.
<mgrwt>
<rscale>  0 0.67747906E+03</rscale>
<asrwt>0</asrwt>
<pdfrwt beam="1">  1        1 0.43824421E+00 0.77970073E+03</pdfrwt>
<pdfrwt beam="2">  1       -1 0.27546680E-01 0.77970073E+03</pdfrwt>
<totfact> 0.96070107E+00</totfact>
</mgrwt>
</event>
<event>
 4    5  0.7767175E-008  0.8688625E+03  0.7818608E-02  0.9577989E-01
          1   -1    0    0  501    0  0.00000000000E+00  0.00000000000E+00  0.16530769939E+04  0.16530769939E+04  0.50400000000E-02 0. -1.
         -1   -1    0    0    0  501 -0.00000000000E+00 -0.00000000000E+00 -0.77592485160E+03  0.77592485161E+03  0.50400000000E-02 0.  1.
    8880023    1    1    2    0    0 -0.21224153467E+03  0.52541930192E+03 -0.44954326366E+03  0.97826952525E+03  0.65864270000E+03 0.  0.
    8880022    1    1    2    0    0  0.21224153467E+03 -0.52541930192E+03  0.13266954060E+04  0.14507323203E+04  0.15294330000E+03 0.  0.
<mgrwt>
<rscale>  0 0.78770304E+03</rscale>
<asrwt>0</asrwt>
<pdfrwt beam="1">  1        1 0.25431953E+00 0.86886254E+03</pdfrwt>
<pdfrwt beam="2">  1       -1 0.11937306E+00 0.86886254E+03</pdfrwt>
<totfact> 0.33006863E+00</totfact>
</mgrwt>
</event>
<event>
 4    5  0.7767175E-008  0.1238373E+04  0.7818608E-02  0.9120695E-01
          1   -1    0    0  501    0  0.00000000000E+00  0.00000000000E+00  0.18382135425E+04  0.18382135425E+04  0.50400000000E-02 0. -1.
         -1   -1    0    0    0  501 -0.00000000000E+00 -0.00000000000E+00 -0.11049473155E+04  0.11049473155E+04  0.50400000000E-02 0.  1.
    8880023    1    1    2    0    0 -0.93748634319E+03 -0.46997428016E+03 -0.48364246982E+03  0.13294648219E+04  0.65864270000E+03 0.  0.
    8880022    1    1    2    0    0  0.93748634319E+03  0.46997428016E+03  0.12169086968E+04  0.16136960362E+04  0.15294330000E+03 0.  0.
<mgrwt>
<rscale>  0 0.11910860E+04</rscale>
<asrwt>0</asrwt>
<pdfrwt beam="1">  1        1 0.28280208E+00 0.12383726E+04</pdfrwt>
<pdfrwt beam="2">  1       -1 0.16999190E+00 0.12383726E+04</pdfrwt>
<totfact> 0.92217964E-01</totfact>
</mgrwt>
</event>
<event>
 4    5  0.8889006E-008  0.8209521E+03  0.7818608E-02  0.9667200E-01
         -1   -1    0    0    0  501 -0.00000000000E+00  0.00000000000E+00  0.12124384329E+04  0.12124384329E+04  0.50400000000E-02 0.  1.
          1   -1    0    0  501    0  0.00000000000E+00 -0.00000000000E+00 -0.22378853281E+04  0.22378853281E+04  0.50400000000E-02 0. -1.
    8880023    1    1    2    0    0  0.27764588508E+03  0.40381290414E+03  0.10383239315E+04  0.13236611696E+04  0.65864270000E+03 0.  1.
    8880022    1    1    2    0    0 -0.27764588508E+03 -0.40381290414E+03 -0.20637708267E+04  0.21266625913E+04  0.15294330000E+03 0.  0.
<mgrwt>
<rscale>  0 0.73003712E+03</rscale>
<asrwt>0</asrwt>
<pdfrwt beam="1">  1        1 0.34429005E+00 0.82095207E+03</pdfrwt>
<pdfrwt beam="2">  1       -1 0.18652899E+00 0.82095207E+03</pdfrwt>
<totfact> 0.40357633E-01</totfact>
</mgrwt>
</event>
<event>
 4    5  0.7767175E-008  0.8516374E+03  0.7818608E-02  0.9608615E-01
          1   -1    0    0  501    0  0.00000000000E+00  0.00000000000E+00  0.20760799202E+04  0.20760799202E+04  0.50400000000E-02 0. -1.
         -1   -1    0    0    0  501 -0.00000000000E+00 -0.00000000000E+00 -0.25703738157E+03  0.25703738162E+03  0.50400000000E-02 0.  1.
    8880023    1    1    2    0    0 -0.52117883344E+03 -0.14088545453E+03  0.79306875977E+03  0.11637200487E+04  0.65864270000E+03 0.  1.
    8880022    1    1    2    0    0  0.52117883344E+03  0.14088545453E+03  0.10259737789E+04  0.11693972531E+04  0.15294330000E+03 0. -1.
<mgrwt>
<rscale>  0 0.76728564E+03</rscale>
<asrwt>0</asrwt>
<pdfrwt beam="1">  1        1 0.31939690E+00 0.85163742E+03</pdfrwt>
<pdfrwt beam="2">  1       -1 0.39544214E-01 0.85163742E+03</pdfrwt>
<totfact> 0.16929995E+01</totfact>
</mgrwt>
</event>
<event>
 4    5  0.7767175E-008  0.9176754E+03  0.7818608E-02  0.9498232E-01
         -1   -1    0    0    0  501 -0.00000000000E+00  0.00000000000E+00  0.98760263236E+03  0.98760263238E+03  0.50400000000E-02 0.  1.
          1   -1    0    0  501    0  0.00000000000E+00 -0.00000000000E+00 -0.64773601527E+03  0.64773601529E+03  0.50400000000E-02 0. -1.
    8880023    1    1    2    0    0 -0.62947336718E+03 -0.10991498652E+03  0.33900860416E+03  0.97829191155E+03  0.65864270000E+03 0.  0.
    8880022    1    1    2    0    0  0.62947336718E+03  0.10991498652E+03  0.85801293170E+00  0.65704673612E+03  0.15294330000E+03 0.  0.
<mgrwt>
<rscale>  0 0.84414258E+03</rscale>
<asrwt>0</asrwt>
<pdfrwt beam="1">  1        1 0.99651695E-01 0.91767545E+03</pdfrwt>
<pdfrwt beam="2">  1       -1 0.15193887E+00 0.91767545E+03</pdfrwt>
<totfact> 0.10426718E+01</totfact>
</mgrwt>
</event>
<event>
 4    5  0.7767175E-008  0.8448793E+03  0.7818608E-02  0.9621048E-01
         -1   -1    0    0    0  501 -0.00000000000E+00  0.00000000000E+00  0.28676072984E+04  0.28676072984E+04  0.50400000000E-02 0.  1.
          1   -1    0    0  501    0  0.00000000000E+00 -0.00000000000E+00 -0.56467289862E+03  0.56467289864E+03  0.50400000000E-02 0. -1.
    8880023    1    1    2    0    0  0.37590459772E+03 -0.37243333695E+03  0.26498740514E+04  0.27813042897E+04  0.65864270000E+03 0.  1.
    8880022    1    1    2    0    0 -0.37590459772E+03  0.37243333695E+03 -0.34693965166E+03  0.65097590736E+03  0.15294330000E+03 0.  0.
<mgrwt>
<rscale>  0 0.75918638E+03</rscale>
<asrwt>0</asrwt>
<pdfrwt beam="1">  1        1 0.86872754E-01 0.84487932E+03</pdfrwt>
<pdfrwt beam="2">  1       -1 0.44117035E+00 0.84487932E+03</pdfrwt>
<totfact> 0.14698908E-01</totfact>
</mgrwt>
</event>
<event>
 4    5  0.7767175E-008  0.6976523E+03  0.7818608E-02  0.1000708E+00
         -1   -1    0    0    0  501 -0.00000000000E+00  0.00000000000E+00  0.23402832122E+03  0.23402832128E+03  0.50400000000E-02 0.  1.
          1   -1    0    0  501    0  0.00000000000E+00 -0.00000000000E+00 -0.24024284682E+04  0.24024284682E+04  0.50400000000E-02 0. -1.
    8880023    1    1    2    0    0 -0.10321795919E+03  0.20555913857E+03 -0.32001677939E+03  0.76754768706E+03  0.65864270000E+03 0.  1.
    8880022    1    1    2    0    0  0.10321795919E+03 -0.20555913857E+03 -0.18483833676E+04  0.18689091024E+04  0.15294330000E+03 0.  0.
<mgrwt>
<rscale>  0 0.55340738E+03</rscale>
<asrwt>0</asrwt>
<pdfrwt beam="1">  1        1 0.36960436E+00 0.69765229E+03</pdfrwt>
<pdfrwt beam="2">  1       -1 0.36004359E-01 0.69765229E+03</pdfrwt>
<totfact> 0.12363906E+01</totfact>
</mgrwt>
</event>
<event>
 4    5  0.7767175E-008  0.1234678E+04  0.7818608E-02  0.9124128E-01
         -1   -1    0    0    0  501 -0.00000000000E+00  0.00000000000E+00  0.94207277321E+03  0.94207277323E+03  0.50400000000E-02 0.  1.
          1   -1    0    0  501    0  0.00000000000E+00 -0.00000000000E+00 -0.19251522958E+04  0.19251522958E+04  0.50400000000E-02 0. -1.
    8880023    1    1    2    0    0  0.94666200559E+03 -0.44096594121E+03  0.23355036322E+03  0.12565730749E+04  0.65864270000E+03 0.  0.
    8880022    1    1    2    0    0 -0.94666200559E+03  0.44096594121E+03 -0.12166298858E+04  0.16106519941E+04  0.15294330000E+03 0.  0.
<mgrwt>
<rscale>  0 0.11872072E+04</rscale>
<asrwt>0</asrwt>
<pdfrwt beam="1">  1        1 0.29617728E+00 0.12346781E+04</pdfrwt>
<pdfrwt beam="2">  1       -1 0.14493427E+00 0.12346781E+04</pdfrwt>
<totfact> 0.12538582E+00</totfact>
</mgrwt>
</event>
<event>
 4    5  0.7767175E-008  0.7599153E+03  0.7818608E-02  0.9805327E-01
         -1   -1    0    0    0  501 -0.00000000000E+00  0.00000000000E+00  0.76772034578E+03  0.76772034579E+03  0.50400000000E-02 0.  1.
          1   -1    0    0  501    0  0.00000000000E+00 -0.00000000000E+00 -0.80393838016E+03  0.80393838017E+03  0.50400000000E-02 0. -1.
    8880023    1    1    2    0    0  0.36941503398E+03  0.84815414527E+02  0.49087095211E+03  0.90466879009E+03  0.65864270000E+03 0.  1.
    8880022    1    1    2    0    0 -0.36941503398E+03 -0.84815414527E+02 -0.52708898649E+03  0.66698993588E+03  0.15294330000E+03 0.  0.
<mgrwt>
<rscale>  0 0.65077464E+03</rscale>
<asrwt>0</asrwt>
<pdfrwt beam="1">  1        1 0.12368283E+00 0.75991534E+03</pdfrwt>
<pdfrwt beam="2">  1       -1 0.11811082E+00 0.75991534E+03</pdfrwt>
<totfact> 0.14510827E+01</totfact>
</mgrwt>
</event>
<event>
 4    5  0.7767175E-008  0.9289285E+03  0.7818608E-02  0.9481102E-01
         -1   -1    0    0    0  501 -0.00000000000E+00  0.00000000000E+00  0.27039082717E+03  0.27039082721E+03  0.50400000000E-02 0.  1.
          1   -1    0    0  501    0  0.00000000000E+00 -0.00000000000E+00 -0.28172424246E+04  0.28172424246E+04  0.50400000000E-02 0. -1.
    8880023    1    1    2    0    0  0.43246705341E+03  0.49200631983E+03 -0.83764882093E+03  0.12508252174E+04  0.65864270000E+03 0.  0.
    8880022    1    1    2    0    0 -0.43246705341E+03 -0.49200631983E+03 -0.17092027765E+04  0.18368080344E+04  0.15294330000E+03 0.  0.
<mgrwt>
<rscale>  0 0.85691510E+03</rscale>
<asrwt>0</asrwt>
<pdfrwt beam="1">  1        1 0.43342189E+00 0.92892851E+03</pdfrwt>
<pdfrwt beam="2">  1       -1 0.41598591E-01 0.92892851E+03</pdfrwt>
<totfact> 0.47464367E+00</totfact>
</mgrwt>
</event>
<event>
 4    5  0.7767175E-008  0.1051109E+04  0.7818608E-02  0.9317549E-01
         -1   -1    0    0    0  501 -0.00000000000E+00  0.00000000000E+00  0.38735351531E+03  0.38735351534E+03  0.50400000000E-02 0.  1.
          1   -1    0    0  501    0  0.00000000000E+00 -0.00000000000E+00 -0.29550723378E+04  0.29550723378E+04  0.50400000000E-02 0. -1.
    8880023    1    1    2    0    0 -0.12997552122E+03 -0.80878107275E+03 -0.61133330537E+03  0.12159601458E+04  0.65864270000E+03 0.  1.
    8880022    1    1    2    0    0  0.12997552122E+03  0.80878107275E+03 -0.19563855171E+04  0.21264657073E+04  0.15294330000E+03 0.  0.
<mgrwt>
<rscale>  0 0.99183186E+03</rscale>
<asrwt>0</asrwt>
<pdfrwt beam="1">  1        1 0.45462650E+00 0.10511093E+04</pdfrwt>
<pdfrwt beam="2">  1       -1 0.59592850E-01 0.10511093E+04</pdfrwt>
<totfact> 0.18755756E+00</totfact>
</mgrwt>
</event>
<event>
 4    5  0.7767175E-008  0.1129465E+04  0.7818608E-02  0.9228938E-01
          1   -1    0    0  501    0  0.00000000000E+00  0.00000000000E+00  0.17687428046E+04  0.17687428046E+04  0.50400000000E-02 0. -1.
         -1   -1    0    0    0  501 -0.00000000000E+00 -0.00000000000E+00 -0.93345508005E+03  0.93345508006E+03  0.50400000000E-02 0.  1.
    8880023    1    1    2    0    0  0.78974457285E+03 -0.46710309194E+03 -0.36197160385E+03  0.11860503518E+04  0.65864270000E+03 0.  1.
    8880022    1    1    2    0    0 -0.78974457285E+03  0.46710309194E+03  0.11972593284E+04  0.15161475328E+04  0.15294330000E+03 0.  0.
<mgrwt>
<rscale>  0 0.10759668E+04</rscale>
<asrwt>0</asrwt>
<pdfrwt beam="1">  1        1 0.27211427E+00 0.11294654E+04</pdfrwt>
<pdfrwt beam="2">  1       -1 0.14360848E+00 0.11294654E+04</pdfrwt>
<totfact> 0.16613717E+00</totfact>
</mgrwt>
</event>
<event>
 4    5  0.7767175E-008  0.6840672E+03  0.7818608E-02  0.1007111E+00
          1   -1    0    0  501    0  0.00000000000E+00  0.00000000000E+00  0.36896352445E+03  0.36896352449E+03  0.50400000000E-02 0. -1.
         -1   -1    0    0    0  501 -0.00000000000E+00 -0.00000000000E+00 -0.11481993583E+04  0.11481993583E+04  0.50400000000E-02 0.  1.
    8880023    1    1    2    0    0  0.12035582567E+03 -0.14018640440E+03 -0.98629251699E+03  0.12003003325E+04  0.65864270000E+03 0.  0.
    8880022    1    1    2    0    0 -0.12035582567E+03  0.14018640440E+03  0.20705668315E+03  0.31686255034E+03  0.15294330000E+03 0.  0.
<mgrwt>
<rscale>  0 0.52639326E+03</rscale>
<asrwt>0</asrwt>
<pdfrwt beam="1">  1        1 0.56763620E-01 0.68406722E+03</pdfrwt>
<pdfrwt beam="2">  1       -1 0.17664605E+00 0.68406722E+03</pdfrwt>
<totfact> 0.15223484E+01</totfact>
</mgrwt>
</event>
<event>
 4    5  0.8243878E-008  0.7814389E+03  0.7818608E-02  0.9752468E-01
          1   -1    0    0  501    0  0.00000000000E+00  0.00000000000E+00  0.18978963135E+04  0.18978963135E+04  0.50400000000E-02 0. -1.
         -1   -1    0    0    0  501 -0.00000000000E+00 -0.00000000000E+00 -0.13761620581E+04  0.13761620581E+04  0.50400000000E-02 0.  1.
    8880023    1    1    2    0    0  0.36421439032E+03 -0.21020102488E+03 -0.12348724835E+04  0.14613544573E+04  0.65864270000E+03 0.  1.
    8880022    1    1    2    0    0 -0.36421439032E+03  0.21020102488E+03  0.17566067389E+04  0.18127039144E+04  0.15294330000E+03 0.  0.
<mgrwt>
<rscale>  0 0.67976993E+03</rscale>
<asrwt>0</asrwt>
<pdfrwt beam="1">  1        1 0.29198405E+00 0.78143893E+03</pdfrwt>
<pdfrwt beam="2">  1       -1 0.21171724E+00 0.78143893E+03</pdfrwt>
<totfact> 0.46217674E-01</totfact>
</mgrwt>
</event>
<event>
 4    5  0.7767175E-008  0.1067409E+04  0.7818608E-02  0.9298241E-01
          1   -1    0    0  501    0  0.00000000000E+00  0.00000000000E+00  0.12843173733E+04  0.12843173733E+04  0.50400000000E-02 0. -1.
         -1   -1    0    0    0  501 -0.00000000000E+00 -0.00000000000E+00 -0.14132162883E+04  0.14132162883E+04  0.50400000000E-02 0.  1.
    8880023    1    1    2    0    0  0.76476527040E+03  0.34739832221E+03 -0.10107992082E+04  0.14700601208E+04  0.65864270000E+03 0.  1.
    8880022    1    1    2    0    0 -0.76476527040E+03 -0.34739832221E+03  0.88190029328E+03  0.12274735408E+04  0.15294330000E+03 0.  0.
<mgrwt>
<rscale>  0 0.10094500E+04</rscale>
<asrwt>0</asrwt>
<pdfrwt beam="1">  1        1 0.19758729E+00 0.10674089E+04</pdfrwt>
<pdfrwt beam="2">  1       -1 0.21741789E+00 0.10674089E+04</pdfrwt>
<totfact> 0.10600517E+00</totfact>
</mgrwt>
</event>
<event>
 4    5  0.7767175E-008  0.1040882E+04  0.7818608E-02  0.9329923E-01
          1   -1    0    0  501    0  0.00000000000E+00  0.00000000000E+00  0.15109096752E+04  0.15109096752E+04  0.50400000000E-02 0. -1.
         -1   -1    0    0    0  501 -0.00000000000E+00 -0.00000000000E+00 -0.81729953136E+03  0.81729953138E+03  0.50400000000E-02 0.  1.
    8880023    1    1    2    0    0  0.55633323840E+03 -0.58319709715E+03 -0.25741225209E+03  0.10722391525E+04  0.65864270000E+03 0.  1.
    8880022    1    1    2    0    0 -0.55633323840E+03  0.58319709715E+03  0.95102239589E+03  0.12559700541E+04  0.15294330000E+03 0.  0.
<mgrwt>
<rscale>  0 0.98074127E+03</rscale>
<asrwt>0</asrwt>
<pdfrwt beam="1">  1        1 0.23244764E+00 0.10408822E+04</pdfrwt>
<pdfrwt beam="2">  1       -1 0.12573839E+00 0.10408822E+04</pdfrwt>
<totfact> 0.35463726E+00</totfact>
</mgrwt>
</event>
<event>
 4    5  0.7767175E-008  0.6962749E+03  0.7818608E-02  0.1001302E+00
          1   -1    0    0  501    0  0.00000000000E+00  0.00000000000E+00  0.15576422487E+04  0.15576422487E+04  0.50400000000E-02 0. -1.
         -1   -1    0    0    0  501 -0.00000000000E+00 -0.00000000000E+00 -0.28160325361E+03  0.28160325366E+03  0.50400000000E-02 0.  1.
    8880023    1    1    2    0    0 -0.22022291875E+03  0.49904027075E+02  0.19318947441E+03  0.72257935561E+03  0.65864270000E+03 0.  1.
    8880022    1    1    2    0    0  0.22022291875E+03 -0.49904027075E+02  0.10828495207E+04  0.11166661467E+04  0.15294330000E+03 0.  0.
<mgrwt>
<rscale>  0 0.55083018E+03</rscale>
<asrwt>0</asrwt>
<pdfrwt beam="1">  1        1 0.23963727E+00 0.69627491E+03</pdfrwt>
<pdfrwt beam="2">  1       -1 0.43323578E-01 0.69627491E+03</pdfrwt>
<totfact> 0.32590899E+01</totfact>
</mgrwt>
</event>
<event>
 4    5  0.7767175E-008  0.7524267E+03  0.7818608E-02  0.9825124E-01
         -1   -1    0    0    0  501 -0.00000000000E+00  0.00000000000E+00  0.89844266301E+03  0.89844266302E+03  0.50400000000E-02 0.  1.
          1   -1    0    0  501    0  0.00000000000E+00 -0.00000000000E+00 -0.13006165868E+04  0.13006165868E+04  0.50400000000E-02 0. -1.
    8880023    1    1    2    0    0 -0.28954407192E+03 -0.22022714248E+03  0.70041889015E+03  0.10279749957E+04  0.65864270000E+03 0.  1.
    8880022    1    1    2    0    0  0.28954407192E+03  0.22022714248E+03 -0.11025928139E+04  0.11710842541E+04  0.15294330000E+03 0.  0.
<mgrwt>
<rscale>  0 0.64031517E+03</rscale>
<asrwt>0</asrwt>
<pdfrwt beam="1">  1        1 0.20009486E+00 0.75242672E+03</pdfrwt>
<pdfrwt beam="2">  1       -1 0.13822195E+00 0.75242672E+03</pdfrwt>
<totfact> 0.40733054E+00</totfact>
</mgrwt>
</event>
<event>
 4    5  0.7767175E-008  0.9509824E+03  0.7818608E-02  0.9448702E-01
         -1   -1    0    0    0  501 -0.00000000000E+00  0.00000000000E+00  0.10331120905E+04  0.10331120905E+04  0.50400000000E-02 0.  1.
          1   -1    0    0  501    0  0.00000000000E+00 -0.00000000000E+00 -0.14015871455E+04  0.14015871455E+04  0.50400000000E-02 0. -1.
    8880023    1    1    2    0    0 -0.19486881993E+03 -0.65771075392E+03  0.68238546170E+03  0.11704774314E+04  0.65864270000E+03 0.  0.
    8880022    1    1    2    0    0  0.19486881993E+03  0.65771075392E+03 -0.10508605167E+04  0.12642218046E+04  0.15294330000E+03 0.  0.
<mgrwt>
<rscale>  0 0.88173811E+03</rscale>
<asrwt>0</asrwt>
<pdfrwt beam="1">  1        1 0.21562879E+00 0.95098239E+03</pdfrwt>
<pdfrwt beam="2">  1       -1 0.15894032E+00 0.95098239E+03</pdfrwt>
<totfact> 0.23081713E+00</totfact>
</mgrwt>
</event>
<event>
 4    5  0.7767175E-008  0.9268800E+03  0.7818608E-02  0.9484189E-01
         -1   -1    0    0    0  501 -0.00000000000E+00  0.00000000000E+00  0.67042591920E+03  0.67042591922E+03  0.50400000000E-02 0.  1.
          1   -1    0    0  501    0  0.00000000000E+00 -0.00000000000E+00 -0.14531248778E+04  0.14531248778E+04  0.50400000000E-02 0. -1.
    8880023    1    1    2    0    0  0.63111688807E+03 -0.16427962502E+03 -0.10515794219E+04  0.14017581134E+04  0.65864270000E+03 0.  0.
    8880022    1    1    2    0    0 -0.63111688807E+03  0.16427962502E+03  0.26888046330E+03  0.72179268364E+03  0.15294330000E+03 0.  0.
<mgrwt>
<rscale>  0 0.85459567E+03</rscale>
<asrwt>0</asrwt>
<pdfrwt beam="1">  1        1 0.22355767E+00 0.92688000E+03</pdfrwt>
<pdfrwt beam="2">  1       -1 0.10314245E+00 0.92688000E+03</pdfrwt>
<totfact> 0.63472242E+00</totfact>
</mgrwt>
</event>
<event>
 4    5  0.7767175E-008  0.6945104E+03  0.7818608E-02  0.1002078E+00
         -1   -1    0    0    0  501 -0.00000000000E+00  0.00000000000E+00  0.71750980799E+03  0.71750980801E+03  0.50400000000E-02 0.  1.
          1   -1    0    0  501    0  0.00000000000E+00 -0.00000000000E+00 -0.14413580098E+04  0.14413580098E+04  0.50400000000E-02 0. -1.
    8880023    1    1    2    0    0  0.19253092239E+03  0.10708085610E+03  0.53190471943E+03  0.87479557763E+03  0.65864270000E+03 0.  1.
    8880022    1    1    2    0    0 -0.19253092239E+03 -0.10708085610E+03 -0.12557529213E+04  0.12840722402E+04  0.15294330000E+03 0.  0.
<mgrwt>
<rscale>  0 0.54748205E+03</rscale>
<asrwt>0</asrwt>
<pdfrwt beam="1">  1        1 0.22174739E+00 0.69451038E+03</pdfrwt>
<pdfrwt beam="2">  1       -1 0.11038612E+00 0.69451038E+03</pdfrwt>
<totfact> 0.57130140E+00</totfact>
</mgrwt>
</event>
<event>
 4    5  0.7767175E-008  0.1076418E+04  0.7818608E-02  0.9287778E-01
         -1   -1    0    0    0  501 -0.00000000000E+00  0.00000000000E+00  0.91190102918E+03  0.91190102919E+03  0.50400000000E-02 0.  1.
          1   -1    0    0  501    0  0.00000000000E+00 -0.00000000000E+00 -0.21137039902E+04  0.21137039902E+04  0.50400000000E-02 0. -1.
    8880023    1    1    2    0    0  0.15051556216E+03 -0.83797952370E+03  0.44552445598E+03  0.11649750485E+04  0.65864270000E+03 0.  1.
    8880022    1    1    2    0    0 -0.15051556216E+03  0.83797952370E+03 -0.16473274170E+04  0.18606299709E+04  0.15294330000E+03 0. -1.
<mgrwt>
<rscale>  0 0.10191589E+04</rscale>
<asrwt>0</asrwt>
<pdfrwt beam="1">  1        1 0.32518523E+00 0.10764176E+04</pdfrwt>
<pdfrwt beam="2">  1       -1 0.14029247E+00 0.10764176E+04</pdfrwt>
<totfact> 0.10407137E+00</totfact>
</mgrwt>
</event>
<event>
 4    5  0.7767175E-008  0.7417988E+03  0.7818608E-02  0.9854738E-01
          1   -1    0    0  501    0  0.00000000000E+00  0.00000000000E+00  0.22357376904E+04  0.22357376904E+04  0.50400000000E-02 0. -1.
         -1   -1    0    0    0  501 -0.00000000000E+00 -0.00000000000E+00 -0.40993129103E+03  0.40993129106E+03  0.50400000000E-02 0.  1.
    8880023    1    1    2    0    0  0.69114631988E+02  0.33418312687E+03 -0.39882904377E+02  0.74287014139E+03  0.65864270000E+03 0.  1.
    8880022    1    1    2    0    0 -0.69114631988E+02 -0.33418312687E+03  0.18656893037E+04  0.19027988400E+04  0.15294330000E+03 0.  0.
<mgrwt>
<rscale>  0 0.62505922E+03</rscale>
<asrwt>0</asrwt>
<pdfrwt beam="1">  1        1 0.34395963E+00 0.74179876E+03</pdfrwt>
<pdfrwt beam="2">  1       -1 0.63066355E-01 0.74179876E+03</pdfrwt>
<totfact> 0.55402975E+00</totfact>
</mgrwt>
</event>
<event>
 4    5  0.7767175E-008  0.1511153E+04  0.7818608E-02  0.8901800E-01
         -1   -1    0    0    0  501 -0.00000000000E+00  0.00000000000E+00  0.16143987220E+04  0.16143987220E+04  0.50400000000E-02 0.  1.
          1   -1    0    0  501    0  0.00000000000E+00 -0.00000000000E+00 -0.16279855139E+04  0.16279855139E+04  0.50400000000E-02 0. -1.
    8880023    1    1    2    0    0 -0.10185553896E+04 -0.90128691916E+03  0.73715841932E+03  0.16813643073E+04  0.65864270000E+03 0.  0.
    8880022    1    1    2    0    0  0.10185553896E+04  0.90128691916E+03 -0.75074521123E+03  0.15610199286E+04  0.15294330000E+03 0.  0.
<mgrwt>
<rscale>  0 0.14741896E+04</rscale>
<asrwt>0</asrwt>
<pdfrwt beam="1">  1        1 0.25045931E+00 0.15111530E+04</pdfrwt>
<pdfrwt beam="2">  1       -1 0.24836903E+00 0.15111530E+04</pdfrwt>
<totfact> 0.36000176E-01</totfact>
</mgrwt>
</event>
<event>
 4    5  0.7767175E-008  0.8249542E+03  0.7818608E-02  0.9659231E-01
         -1   -1    0    0    0  501 -0.00000000000E+00  0.00000000000E+00  0.17393771340E+04  0.17393771340E+04  0.50400000000E-02 0.  1.
          1   -1    0    0  501    0  0.00000000000E+00 -0.00000000000E+00 -0.62688841375E+03  0.62688841377E+03  0.50400000000E-02 0. -1.
    8880023    1    1    2    0    0 -0.49657325479E+03  0.12420456658E+02  0.15041174317E+04  0.17154937247E+04  0.65864270000E+03 0.  1.
    8880022    1    1    2    0    0  0.49657325479E+03 -0.12420456658E+02 -0.39162871138E+03  0.65077182308E+03  0.15294330000E+03 0.  0.
<mgrwt>
<rscale>  0 0.73496926E+03</rscale>
<asrwt>0</asrwt>
<pdfrwt beam="1">  1        1 0.96444374E-01 0.82495422E+03</pdfrwt>
<pdfrwt beam="2">  1       -1 0.26759647E+00 0.82495422E+03</pdfrwt>
<totfact> 0.17819228E+00</totfact>
</mgrwt>
</event>
<event>
 4    5  0.7767175E-008  0.6937287E+03  0.7818608E-02  0.1002428E+00
         -1   -1    0    0    0  501 -0.00000000000E+00  0.00000000000E+00  0.51436955187E+03  0.51436955190E+03  0.50400000000E-02 0.  1.
          1   -1    0    0  501    0  0.00000000000E+00 -0.00000000000E+00 -0.71007476477E+03  0.71007476479E+03  0.50400000000E-02 0. -1.
    8880023    1    1    2    0    0 -0.18984946875E+03 -0.10680127570E+03  0.22266474024E+03  0.72858707516E+03  0.65864270000E+03 0.  0.
    8880022    1    1    2    0    0  0.18984946875E+03  0.10680127570E+03 -0.41836995313E+03  0.49585724153E+03  0.15294330000E+03 0.  0.
<mgrwt>
<rscale>  0 0.54598138E+03</rscale>
<asrwt>0</asrwt>
<pdfrwt beam="1">  1        1 0.10924227E+00 0.69372872E+03</pdfrwt>
<pdfrwt beam="2">  1       -1 0.79133777E-01 0.69372872E+03</pdfrwt>
<totfact> 0.43778143E+01</totfact>
</mgrwt>
</event>
<event>
 4    5  0.7767175E-008  0.6689451E+03  0.7818608E-02  0.1016431E+00
         -1   -1    0    0    0  501 -0.00000000000E+00  0.00000000000E+00  0.54126741810E+03  0.54126741812E+03  0.50400000000E-02 0.  1.
          1   -1    0    0  501    0  0.00000000000E+00 -0.00000000000E+00 -0.21062380935E+04  0.21062380935E+04  0.50400000000E-02 0. -1.
    8880023    1    1    2    0    0 -0.92941762277E+02  0.70986979487E+02  0.32781713396E+03  0.74495073798E+03  0.65864270000E+03 0.  1.
    8880022    1    1    2    0    0  0.92941762277E+02 -0.70986979487E+02 -0.18927878093E+04  0.19025547736E+04  0.15294330000E+03 0.  0.
<mgrwt>
<rscale>  0 0.48996964E+03</rscale>
<asrwt>0</asrwt>
<pdfrwt beam="1">  1        1 0.32403662E+00 0.66894509E+03</pdfrwt>
<pdfrwt beam="2">  1       -1 0.83271912E-01 0.66894509E+03</pdfrwt>
<totfact> 0.38648921E+00</totfact>
</mgrwt>
</event>
<event>
 4    5  0.7767175E-008  0.1429988E+04  0.7818608E-02  0.8960724E-01
         -1   -1    0    0    0  501 -0.00000000000E+00  0.00000000000E+00  0.18462547684E+04  0.18462547684E+04  0.50400000000E-02 0.  1.
          1   -1    0    0  501    0  0.00000000000E+00 -0.00000000000E+00 -0.16677210080E+04  0.16677210081E+04  0.50400000000E-02 0. -1.
    8880023    1    1    2    0    0  0.72406061063E+03  0.10424937058E+04  0.12084922497E+04  0.18722501485E+04  0.65864270000E+03 0.  1.
    8880022    1    1    2    0    0 -0.72406061063E+03 -0.10424937058E+04 -0.10299584894E+04  0.16417256279E+04  0.15294330000E+03 0.  0.
<mgrwt>
<rscale>  0 0.13904994E+04</rscale>
<asrwt>0</asrwt>
<pdfrwt beam="1">  1        1 0.25657246E+00 0.14299885E+04</pdfrwt>
<pdfrwt beam="2">  1       -1 0.28403919E+00 0.14299885E+04</pdfrwt>
<totfact> 0.20017818E-01</totfact>
</mgrwt>
</event>
<event>
 4    5  0.7767175E-008  0.1226796E+04  0.7818608E-02  0.9131505E-01
         -1   -1    0    0    0  501 -0.00000000000E+00  0.00000000000E+00  0.10061626041E+04  0.10061626041E+04  0.50400000000E-02 0.  1.
          1   -1    0    0  501    0  0.00000000000E+00 -0.00000000000E+00 -0.18532548023E+04  0.18532548024E+04  0.50400000000E-02 0. -1.
    8880023    1    1    2    0    0 -0.57974344783E+03  0.85738896551E+03  0.34396256102E+03  0.12741031171E+04  0.65864270000E+03 0.  0.
    8880022    1    1    2    0    0  0.57974344783E+03 -0.85738896551E+03 -0.11910547592E+04  0.15853142893E+04  0.15294330000E+03 0.  0.
<mgrwt>
<rscale>  0 0.11789264E+04</rscale>
<asrwt>0</asrwt>
<pdfrwt beam="1">  1        1 0.28511612E+00 0.12267960E+04</pdfrwt>
<pdfrwt beam="2">  1       -1 0.15479425E+00 0.12267960E+04</pdfrwt>
<totfact> 0.11748326E+00</totfact>
</mgrwt>
</event>
<event>
 4    5  0.7767175E-008  0.8217388E+03  0.7818608E-02  0.9665625E-01
         -1   -1    0    0    0  501 -0.00000000000E+00  0.00000000000E+00  0.45334029329E+03  0.45334029332E+03  0.50400000000E-02 0.  1.
          1   -1    0    0  501    0  0.00000000000E+00 -0.00000000000E+00 -0.17117640296E+04  0.17117640296E+04  0.50400000000E-02 0. -1.
    8880023    1    1    2    0    0 -0.20845821032E+03  0.44496033153E+03 -0.17746553691E+02  0.82193045236E+03  0.65864270000E+03 0.  0.
    8880022    1    1    2    0    0  0.20845821032E+03 -0.44496033153E+03 -0.12406771826E+04  0.13431738706E+04  0.15294330000E+03 0.  0.
<mgrwt>
<rscale>  0 0.73100867E+03</rscale>
<asrwt>0</asrwt>
<pdfrwt beam="1">  1        1 0.26334831E+00 0.82173884E+03</pdfrwt>
<pdfrwt beam="2">  1       -1 0.69744662E-01 0.82173884E+03</pdfrwt>
<totfact> 0.10023897E+01</totfact>
</mgrwt>
</event>
<event>
 4    5  0.7767175E-008  0.8945447E+03  0.7818608E-02  0.9534846E-01
         -1   -1    0    0    0  501 -0.00000000000E+00  0.00000000000E+00  0.50689908874E+03  0.50689908876E+03  0.50400000000E-02 0.  1.
          1   -1    0    0  501    0  0.00000000000E+00 -0.00000000000E+00 -0.19088714578E+04  0.19088714578E+04  0.50400000000E-02 0. -1.
    8880023    1    1    2    0    0 -0.44749024713E+03 -0.40761812407E+03 -0.14904024842E+02  0.89466887314E+03  0.65864270000E+03 0.  0.
    8880022    1    1    2    0    0  0.44749024713E+03  0.40761812407E+03 -0.13870683442E+04  0.15211016734E+04  0.15294330000E+03 0.  0.
<mgrwt>
<rscale>  0 0.81762774E+03</rscale>
<asrwt>0</asrwt>
<pdfrwt beam="1">  1        1 0.29367253E+00 0.89454472E+03</pdfrwt>
<pdfrwt beam="2">  1       -1 0.77984476E-01 0.89454472E+03</pdfrwt>
<totfact> 0.57966646E+00</totfact>
</mgrwt>
</event>
<event>
 4    5  0.7767175E-008  0.1193182E+04  0.7818608E-02  0.9163779E-01
         -1   -1    0    0    0  501 -0.00000000000E+00  0.00000000000E+00  0.16806322368E+04  0.16806322368E+04  0.50400000000E-02 0.  1.
          1   -1    0    0  501    0  0.00000000000E+00 -0.00000000000E+00 -0.15726951350E+04  0.15726951350E+04  0.50400000000E-02 0. -1.
    8880023    1    1    2    0    0 -0.98240687559E+03  0.15731811107E+03  0.12519759137E+04  0.17294872512E+04  0.65864270000E+03 0.  0.
    8880022    1    1    2    0    0  0.98240687559E+03 -0.15731811107E+03 -0.11440388119E+04  0.15238401207E+04  0.15294330000E+03 0.  0.
<mgrwt>
<rscale>  0 0.11435239E+04</rscale>
<asrwt>0</asrwt>
<pdfrwt beam="1">  1        1 0.24195310E+00 0.11931817E+04</pdfrwt>
<pdfrwt beam="2">  1       -1 0.25855881E+00 0.11931817E+04</pdfrwt>
<totfact> 0.35099762E-01</totfact>
</mgrwt>
</event>
<event>
 4    5  0.7767175E-008  0.7892783E+03  0.7818608E-02  0.9734477E-01
         -1   -1    0    0    0  501 -0.00000000000E+00  0.00000000000E+00  0.22101132784E+03  0.22101132789E+03  0.50400000000E-02 0.  1.
          1   -1    0    0  501    0  0.00000000000E+00 -0.00000000000E+00 -0.22756435724E+04  0.22756435724E+04  0.50400000000E-02 0. -1.
    8880023    1    1    2    0    0  0.42632880043E+03  0.85987100802E+02 -0.66347250565E+03  0.10310945638E+04  0.65864270000E+03 0.  0.
    8880022    1    1    2    0    0 -0.42632880043E+03 -0.85987100802E+02 -0.13911597389E+04  0.14655603364E+04  0.15294330000E+03 0.  0.
<mgrwt>
<rscale>  0 0.69000643E+03</rscale>
<asrwt>0</asrwt>
<pdfrwt beam="1">  1        1 0.35009899E+00 0.78927830E+03</pdfrwt>
<pdfrwt beam="2">  1       -1 0.34001744E-01 0.78927830E+03</pdfrwt>
<totfact> 0.16441277E+01</totfact>
</mgrwt>
</event>
<event>
 4    5  0.7767175E-008  0.9294988E+03  0.7818608E-02  0.9480245E-01
         -1   -1    0    0    0  501 -0.00000000000E+00  0.00000000000E+00  0.44095758617E+03  0.44095758620E+03  0.50400000000E-02 0.  1.
          1   -1    0    0  501    0  0.00000000000E+00 -0.00000000000E+00 -0.25827933236E+04  0.25827933236E+04  0.50400000000E-02 0. -1.
    8880023    1    1    2    0    0  0.52243123408E+03 -0.39651405991E+03 -0.17633958509E+03  0.94607803567E+03  0.65864270000E+03 0.  0.
    8880022    1    1    2    0    0 -0.52243123408E+03  0.39651405991E+03 -0.19654961523E+04  0.20776728741E+04  0.15294330000E+03 0.  0.
<mgrwt>
<rscale>  0 0.85756037E+03</rscale>
<asrwt>0</asrwt>
<pdfrwt beam="1">  1        1 0.39735281E+00 0.92949879E+03</pdfrwt>
<pdfrwt beam="2">  1       -1 0.67839630E-01 0.92949879E+03</pdfrwt>
<totfact> 0.26912272E+00</totfact>
</mgrwt>
</event>
<event>
 4    5  0.7767175E-008  0.1004486E+04  0.7818608E-02  0.9375713E-01
         -1   -1    0    0    0  501 -0.00000000000E+00  0.00000000000E+00  0.76069387345E+03  0.76069387347E+03  0.50400000000E-02 0.  1.
          1   -1    0    0  501    0  0.00000000000E+00 -0.00000000000E+00 -0.14748868217E+04  0.14748868217E+04  0.50400000000E-02 0. -1.
    8880023    1    1    2    0    0 -0.66346652073E+03  0.36741428806E+03  0.21420496751E+03  0.10270711064E+04  0.65864270000E+03 0.  1.
    8880022    1    1    2    0    0  0.66346652073E+03 -0.36741428806E+03 -0.92839791572E+03  0.12085095888E+04  0.15294330000E+03 0.  0.
<mgrwt>
<rscale>  0 0.94101685E+03</rscale>
<asrwt>0</asrwt>
<pdfrwt beam="1">  1        1 0.22690567E+00 0.10044856E+04</pdfrwt>
<pdfrwt beam="2">  1       -1 0.11702983E+00 0.10044856E+04</pdfrwt>
<totfact> 0.45023406E+00</totfact>
</mgrwt>
</event>
<event>
 4    5  0.7767175E-008  0.1242656E+04  0.7818608E-02  0.9116733E-01
         -1   -1    0    0    0  501 -0.00000000000E+00  0.00000000000E+00  0.92244630842E+03  0.92244630844E+03  0.50400000000E-02 0.  1.
          1   -1    0    0  501    0  0.00000000000E+00 -0.00000000000E+00 -0.24455844511E+04  0.24455844511E+04  0.50400000000E-02 0. -1.
    8880023    1    1    2    0    0 -0.97018005812E+03 -0.41126083789E+03  0.28014839602E+03  0.12738438492E+04  0.65864270000E+03 0.  0.
    8880022    1    1    2    0    0  0.97018005812E+03  0.41126083789E+03 -0.18032865387E+04  0.20941869104E+04  0.15294330000E+03 0.  0.
<mgrwt>
<rscale>  0 0.11955816E+04</rscale>
<asrwt>0</asrwt>
<pdfrwt beam="1">  1        1 0.37624376E+00 0.12426564E+04</pdfrwt>
<pdfrwt beam="2">  1       -1 0.14191482E+00 0.12426564E+04</pdfrwt>
<totfact> 0.58624827E-01</totfact>
</mgrwt>
</event>
<event>
 4    5  0.7767175E-008  0.1069398E+04  0.7818608E-02  0.9295918E-01
          1   -1    0    0  501    0  0.00000000000E+00  0.00000000000E+00  0.11216201928E+04  0.11216201928E+04  0.50400000000E-02 0. -1.
         -1   -1    0    0    0  501 -0.00000000000E+00 -0.00000000000E+00 -0.11832491456E+04  0.11832491456E+04  0.50400000000E-02 0.  1.
    8880023    1    1    2    0    0  0.71870613827E+03 -0.43961665725E+03 -0.66325253487E+03  0.12583781029E+04  0.65864270000E+03 0. -1.
    8880022    1    1    2    0    0 -0.71870613827E+03  0.43961665725E+03  0.60162358211E+03  0.10464912356E+04  0.15294330000E+03 0.  0.
<mgrwt>
<rscale>  0 0.10115951E+04</rscale>
<asrwt>0</asrwt>
<pdfrwt beam="1">  1        1 0.17255695E+00 0.10693977E+04</pdfrwt>
<pdfrwt beam="2">  1       -1 0.18203833E+00 0.10693977E+04</pdfrwt>
<totfact> 0.24457145E+00</totfact>
</mgrwt>
</event>
<event>
 4    5  0.7767175E-008  0.1145827E+04  0.7818608E-02  0.9211671E-01
         -1   -1    0    0    0  501 -0.00000000000E+00  0.00000000000E+00  0.46690798411E+03  0.46690798414E+03  0.50400000000E-02 0.  1.
          1   -1    0    0  501    0  0.00000000000E+00 -0.00000000000E+00 -0.34095645415E+04  0.34095645415E+04  0.50400000000E-02 0. -1.
    8880023    1    1    2    0    0  0.11677314395E+03 -0.93030768873E+03 -0.48989403551E+03  0.12461599958E+04  0.65864270000E+03 0.  0.
    8880022    1    1    2    0    0 -0.11677314395E+03  0.93030768873E+03 -0.24527625219E+04  0.26303125298E+04  0.15294330000E+03 0. -1.
<mgrwt>
<rscale>  0 0.10933774E+04</rscale>
<asrwt>0</asrwt>
<pdfrwt beam="1">  1        1 0.52454837E+00 0.11458266E+04</pdfrwt>
<pdfrwt beam="2">  1       -1 0.71832000E-01 0.11458266E+04</pdfrwt>
<totfact> 0.58299758E-01</totfact>
</mgrwt>
</event>
<event>
 4    5  0.7767175E-008  0.7165829E+03  0.7818608E-02  0.9934323E-01
         -1   -1    0    0    0  501 -0.00000000000E+00  0.00000000000E+00  0.37725968627E+03  0.37725968631E+03  0.50400000000E-02 0.  1.
          1   -1    0    0  501    0  0.00000000000E+00 -0.00000000000E+00 -0.21729113425E+04  0.21729113425E+04  0.50400000000E-02 0. -1.
    8880023    1    1    2    0    0  0.26746689242E+03 -0.90234633208E+02  0.95463434680E+01  0.71664647247E+03  0.65864270000E+03 0.  0.
    8880022    1    1    2    0    0 -0.26746689242E+03  0.90234633208E+02 -0.18051979997E+04  0.18335245564E+04  0.15294330000E+03 0.  0.
<mgrwt>
<rscale>  0 0.58626324E+03</rscale>
<asrwt>0</asrwt>
<pdfrwt beam="1">  1        1 0.33429405E+00 0.71658289E+03</pdfrwt>
<pdfrwt beam="2">  1       -1 0.58039953E-01 0.71658289E+03</pdfrwt>
<totfact> 0.72245823E+00</totfact>
</mgrwt>
</event>
<event>
 4    5  0.7767175E-008  0.7199757E+03  0.7818608E-02  0.9922668E-01
          1   -1    0    0  501    0  0.00000000000E+00  0.00000000000E+00  0.45606498862E+03  0.45606498864E+03  0.50400000000E-02 0. -1.
         -1   -1    0    0    0  501 -0.00000000000E+00 -0.00000000000E+00 -0.19281992202E+04  0.19281992202E+04  0.50400000000E-02 0.  1.
    8880023    1    1    2    0    0  0.14943160253E+02  0.29039880483E+03 -0.17886107609E+04  0.19280802432E+04  0.65864270000E+03 0.  1.
    8880022    1    1    2    0    0 -0.14943160253E+02 -0.29039880483E+03  0.31647652933E+03  0.45618396565E+03  0.15294330000E+03 0.  0.
<mgrwt>
<rscale>  0 0.59175154E+03</rscale>
<asrwt>0</asrwt>
<pdfrwt beam="1">  1        1 0.70163846E-01 0.71997567E+03</pdfrwt>
<pdfrwt beam="2">  1       -1 0.29664603E+00 0.71997567E+03</pdfrwt>
<totfact> 0.18455561E+00</totfact>
</mgrwt>
</event>
<event>
 4    5  0.7767175E-008  0.8286411E+03  0.7818608E-02  0.9651982E-01
         -1   -1    0    0    0  501 -0.00000000000E+00  0.00000000000E+00  0.34610335079E+03  0.34610335083E+03  0.50400000000E-02 0.  1.
          1   -1    0    0  501    0  0.00000000000E+00 -0.00000000000E+00 -0.31507637822E+04  0.31507637822E+04  0.50400000000E-02 0. -1.
    8880023    1    1    2    0    0 -0.47805173423E+03  0.15589220734E+03 -0.21729078353E+03  0.85665706778E+03  0.65864270000E+03 0.  0.
    8880022    1    1    2    0    0  0.47805173423E+03 -0.15589220734E+03 -0.25873696479E+04  0.26402100653E+04  0.15294330000E+03 0.  0.
<mgrwt>
<rscale>  0 0.73949154E+03</rscale>
<asrwt>0</asrwt>
<pdfrwt beam="1">  1        1 0.48473287E+00 0.82864108E+03</pdfrwt>
<pdfrwt beam="2">  1       -1 0.53246671E-01 0.82864108E+03</pdfrwt>
<totfact> 0.17480739E+00</totfact>
</mgrwt>
</event>
<event>
 4    5  0.7767175E-008  0.1040003E+04  0.7818608E-02  0.9330997E-01
          1   -1    0    0  501    0  0.00000000000E+00  0.00000000000E+00  0.27803325040E+04  0.27803325040E+04  0.50400000000E-02 0. -1.
         -1   -1    0    0    0  501 -0.00000000000E+00 -0.00000000000E+00 -0.97792989443E+03  0.97792989444E+03  0.50400000000E-02 0.  1.
    8880023    1    1    2    0    0  0.63085522525E+02 -0.80238134017E+03 -0.61333298957E+03  0.12073869142E+04  0.65864270000E+03 0.  0.
    8880022    1    1    2    0    0 -0.63085522525E+02  0.80238134017E+03  0.24157355991E+04  0.25508754843E+04  0.15294330000E+03 0.  0.
<mgrwt>
<rscale>  0 0.97978625E+03</rscale>
<asrwt>0</asrwt>
<pdfrwt beam="1">  1        1 0.42774345E+00 0.10400028E+04</pdfrwt>
<pdfrwt beam="2">  1       -1 0.15045076E+00 0.10400028E+04</pdfrwt>
<totfact> 0.30267566E-01</totfact>
</mgrwt>
</event>
<event>
 4    5  0.7767175E-008  0.1112377E+04  0.7818608E-02  0.9247399E-01
          1   -1    0    0  501    0  0.00000000000E+00  0.00000000000E+00  0.64913838030E+03  0.64913838032E+03  0.50400000000E-02 0. -1.
         -1   -1    0    0    0  501 -0.00000000000E+00 -0.00000000000E+00 -0.18812448703E+04  0.18812448703E+04  0.50400000000E-02 0.  1.
    8880023    1    1    2    0    0  0.29255650401E+03 -0.84733923887E+03 -0.11767899308E+04  0.16193263542E+04  0.65864270000E+03 0.  0.
    8880022    1    1    2    0    0 -0.29255650401E+03  0.84733923887E+03 -0.55316559120E+02  0.91105689641E+03  0.15294330000E+03 0.  0.
<mgrwt>
<rscale>  0 0.10577304E+04</rscale>
<asrwt>0</asrwt>
<pdfrwt beam="1">  1        1 0.99867444E-01 0.11123773E+04</pdfrwt>
<pdfrwt beam="2">  1       -1 0.28942229E+00 0.11123773E+04</pdfrwt>
<totfact> 0.11779069E+00</totfact>
</mgrwt>
</event>
<event>
 4    5  0.7767175E-008  0.1508860E+04  0.7818608E-02  0.8903405E-01
          1   -1    0    0  501    0  0.00000000000E+00  0.00000000000E+00  0.23251322013E+04  0.23251322013E+04  0.50400000000E-02 0. -1.
         -1   -1    0    0    0  501 -0.00000000000E+00 -0.00000000000E+00 -0.12129558330E+04  0.12129558330E+04  0.50400000000E-02 0.  1.
    8880023    1    1    2    0    0 -0.59615808043E+03  0.12196085288E+04 -0.33750861063E+03  0.15461473697E+04  0.65864270000E+03 0.  1.
    8880022    1    1    2    0    0  0.59615808043E+03 -0.12196085288E+04  0.14496849789E+04  0.19919406646E+04  0.15294330000E+03 0.  0.
<mgrwt>
<rscale>  0 0.14718304E+04</rscale>
<asrwt>0</asrwt>
<pdfrwt beam="1">  1        1 0.35771264E+00 0.15088604E+04</pdfrwt>
<pdfrwt beam="2">  1       -1 0.18660859E+00 0.15088604E+04</pdfrwt>
<totfact> 0.31566363E-01</totfact>
</mgrwt>
</event>
<event>
 4    5  0.7767175E-008  0.9130752E+03  0.7818608E-02  0.9505359E-01
         -1   -1    0    0    0  501 -0.00000000000E+00  0.00000000000E+00  0.13577254909E+04  0.13577254909E+04  0.50400000000E-02 0.  1.
          1   -1    0    0  501    0  0.00000000000E+00 -0.00000000000E+00 -0.93855404770E+03  0.93855404771E+03  0.50400000000E-02 0. -1.
    8880023    1    1    2    0    0 -0.62801292905E+02  0.62924732114E+03  0.10490239097E+04  0.13907399336E+04  0.65864270000E+03 0.  1.
    8880022    1    1    2    0    0  0.62801292905E+02 -0.62924732114E+03 -0.62985246654E+03  0.90553960497E+03  0.15294330000E+03 0.  0.
<mgrwt>
<rscale>  0 0.83889847E+03</rscale>
<asrwt>0</asrwt>
<pdfrwt beam="1">  1        1 0.14439293E+00 0.91307524E+03</pdfrwt>
<pdfrwt beam="2">  1       -1 0.20888084E+00 0.91307524E+03</pdfrwt>
<totfact> 0.22514775E+00</totfact>
</mgrwt>
</event>
<event>
 4    5  0.7767175E-008  0.6805409E+03  0.7818608E-02  0.1009019E+00
         -1   -1    0    0    0  501 -0.00000000000E+00  0.00000000000E+00  0.50417476125E+03  0.50417476127E+03  0.50400000000E-02 0.  1.
          1   -1    0    0  501    0  0.00000000000E+00 -0.00000000000E+00 -0.72433073275E+03  0.72433073277E+03  0.50400000000E-02 0. -1.
    8880023    1    1    2    0    0  0.11466937571E+03 -0.12718769533E+03  0.23396914634E+03  0.71963709137E+03  0.65864270000E+03 0.  1.
    8880022    1    1    2    0    0 -0.11466937571E+03  0.12718769533E+03 -0.45412511784E+03  0.50886840267E+03  0.15294330000E+03 0.  0.
<mgrwt>
<rscale>  0 0.51866265E+03</rscale>
<asrwt>0</asrwt>
<pdfrwt beam="1">  1        1 0.11143550E+00 0.68054095E+03</pdfrwt>
<pdfrwt beam="2">  1       -1 0.77565348E-01 0.68054095E+03</pdfrwt>
<totfact> 0.44363063E+01</totfact>
</mgrwt>
</event>
<event>
 4    5  0.7767175E-008  0.1690797E+04  0.7818608E-02  0.8785477E-01
          1   -1    0    0  501    0  0.00000000000E+00  0.00000000000E+00  0.19452543964E+04  0.19452543964E+04  0.50400000000E-02 0. -1.
         -1   -1    0    0    0  501 -0.00000000000E+00 -0.00000000000E+00 -0.25434650641E+04  0.25434650641E+04  0.50400000000E-02 0.  1.
    8880023    1    1    2    0    0  0.14509894031E+04  0.56534375745E+03 -0.18342784103E+04  0.24946685762E+04  0.65864270000E+03 0.  0.
    8880022    1    1    2    0    0 -0.14509894031E+04 -0.56534375745E+03  0.12360677426E+04  0.19940508843E+04  0.15294330000E+03 0.  0.
<mgrwt>
<rscale>  0 0.16583581E+04</rscale>
<asrwt>0</asrwt>
<pdfrwt beam="1">  1        1 0.29926990E+00 0.16907969E+04</pdfrwt>
<pdfrwt beam="2">  1       -1 0.39130232E+00 0.16907969E+04</pdfrwt>
<totfact> 0.24511705E-02</totfact>
</mgrwt>
</event>
<event>
 4    5  0.7767175E-008  0.8407144E+03  0.7818608E-02  0.9628835E-01
         -1   -1    0    0    0  501 -0.00000000000E+00  0.00000000000E+00  0.64779513323E+03  0.64779513325E+03  0.50400000000E-02 0.  1.
          1   -1    0    0  501    0  0.00000000000E+00 -0.00000000000E+00 -0.76017673617E+03  0.76017673619E+03  0.50400000000E-02 0. -1.
    8880023    1    1    2    0    0 -0.50608119001E+03  0.12989349303E+03 -0.17882429971E+03  0.85952244115E+03  0.65864270000E+03 0.  0.
    8880022    1    1    2    0    0  0.50608119001E+03 -0.12989349303E+03  0.66442696768E+02  0.54844942829E+03  0.15294330000E+03 0.  0.
<mgrwt>
<rscale>  0 0.75416759E+03</rscale>
<asrwt>0</asrwt>
<pdfrwt beam="1">  1        1 0.11695027E+00 0.84071440E+03</pdfrwt>
<pdfrwt beam="2">  1       -1 0.99660789E-01 0.84071440E+03</pdfrwt>
<totfact> 0.23422076E+01</totfact>
</mgrwt>
</event>
<event>
 4    5  0.7767175E-008  0.6900604E+03  0.7818608E-02  0.1004124E+00
         -1   -1    0    0    0  501 -0.00000000000E+00  0.00000000000E+00  0.16037788073E+03  0.16037788081E+03  0.50400000000E-02 0.  1.
          1   -1    0    0  501    0  0.00000000000E+00 -0.00000000000E+00 -0.14642990608E+04  0.14642990608E+04  0.50400000000E-02 0. -1.
    8880023    1    1    2    0    0 -0.18249641874E+03  0.95227113328E+02 -0.78048937237E+03  0.10417998909E+04  0.65864270000E+03 0.  1.
    8880022    1    1    2    0    0  0.18249641874E+03 -0.95227113328E+02 -0.52343180769E+03  0.58287705074E+03  0.15294330000E+03 0.  0.
<mgrwt>
<rscale>  0 0.53878378E+03</rscale>
<asrwt>0</asrwt>
<pdfrwt beam="1">  1        1 0.22527677E+00 0.69006040E+03</pdfrwt>
<pdfrwt beam="2">  1       -1 0.24673521E-01 0.69006040E+03</pdfrwt>
<totfact> 0.10198083E+02</totfact>
</mgrwt>
</event>
<event>
 4    5  0.7767175E-008  0.1030545E+04  0.7818608E-02  0.9342644E-01
          1   -1    0    0  501    0  0.00000000000E+00  0.00000000000E+00  0.22918768317E+04  0.22918768317E+04  0.50400000000E-02 0. -1.
         -1   -1    0    0    0  501 -0.00000000000E+00 -0.00000000000E+00 -0.44686042801E+03  0.44686042804E+03  0.50400000000E-02 0.  1.
    8880023    1    1    2    0    0 -0.33473094865E+03 -0.71844765316E+03  0.44466121074E+03  0.11223839080E+04  0.65864270000E+03 0.  0.
    8880022    1    1    2    0    0  0.33473094865E+03  0.71844765316E+03  0.14003551930E+04  0.16163533518E+04  0.15294330000E+03 0.  0.
<mgrwt>
<rscale>  0 0.96950042E+03</rscale>
<asrwt>0</asrwt>
<pdfrwt beam="1">  1        1 0.35259644E+00 0.10305445E+04</pdfrwt>
<pdfrwt beam="2">  1       -1 0.68747758E-01 0.10305445E+04</pdfrwt>
<totfact> 0.40824399E+00</totfact>
</mgrwt>
</event>
<event>
 4    5  0.7767175E-008  0.8643194E+03  0.7818608E-02  0.9585926E-01
          1   -1    0    0  501    0  0.00000000000E+00  0.00000000000E+00  0.28338896326E+04  0.28338896326E+04  0.50400000000E-02 0. -1.
         -1   -1    0    0    0  501 -0.00000000000E+00 -0.00000000000E+00 -0.29746853642E+03  0.29746853646E+03  0.50400000000E-02 0.  1.
    8880023    1    1    2    0    0  0.95065362706E+02 -0.55154370240E+03  0.46755946999E+03  0.98267998000E+03  0.65864270000E+03 0.  0.
    8880022    1    1    2    0    0 -0.95065362706E+02  0.55154370240E+03  0.20688616262E+04  0.21486781891E+04  0.15294330000E+03 0.  0.
<mgrwt>
<rscale>  0 0.78234757E+03</rscale>
<asrwt>0</asrwt>
<pdfrwt beam="1">  1        1 0.43598303E+00 0.86431943E+03</pdfrwt>
<pdfrwt beam="2">  1       -1 0.45764389E-01 0.86431943E+03</pdfrwt>
<totfact> 0.39093049E+00</totfact>
</mgrwt>
</event>
<event>
 4    5  0.7767175E-008  0.1175518E+04  0.7818608E-02  0.9181296E-01
         -1   -1    0    0    0  501 -0.00000000000E+00  0.00000000000E+00  0.16105565564E+04  0.16105565564E+04  0.50400000000E-02 0.  1.
          1   -1    0    0  501    0  0.00000000000E+00 -0.00000000000E+00 -0.12923658911E+04  0.12923658911E+04  0.50400000000E-02 0. -1.
    8880023    1    1    2    0    0  0.93338915211E+03 -0.27715832682E+03  0.11265825183E+04  0.16281985211E+04  0.65864270000E+03 0.  0.
    8880022    1    1    2    0    0 -0.93338915211E+03  0.27715832682E+03 -0.80839185300E+03  0.12747239264E+04  0.15294330000E+03 0.  0.
<mgrwt>
<rscale>  0 0.11248588E+04</rscale>
<asrwt>0</asrwt>
<pdfrwt beam="1">  1        1 0.19882552E+00 0.11755179E+04</pdfrwt>
<pdfrwt beam="2">  1       -1 0.24777793E+00 0.11755179E+04</pdfrwt>
<totfact> 0.64992648E-01</totfact>
</mgrwt>
</event>
<event>
 4    5  0.7767175E-008  0.6831927E+03  0.7818608E-02  0.1007572E+00
          1   -1    0    0  501    0  0.00000000000E+00  0.00000000000E+00  0.51812369512E+03  0.51812369514E+03  0.50400000000E-02 0. -1.
         -1   -1    0    0    0  501 -0.00000000000E+00 -0.00000000000E+00 -0.55199947332E+03  0.55199947335E+03  0.50400000000E-02 0.  1.
    8880023    1    1    2    0    0  0.16546196216E+03 -0.74594644833E+02 -0.27066774809E+03  0.73485594376E+03  0.65864270000E+03 0.  1.
    8880022    1    1    2    0    0 -0.16546196216E+03  0.74594644833E+02  0.23679196989E+03  0.33526722473E+03  0.15294330000E+03 0.  0.
<mgrwt>
<rscale>  0 0.52450956E+03</rscale>
<asrwt>0</asrwt>
<pdfrwt beam="1">  1        1 0.79711337E-01 0.68319267E+03</pdfrwt>
<pdfrwt beam="2">  1       -1 0.84922996E-01 0.68319267E+03</pdfrwt>
<totfact> 0.59392242E+01</totfact>
</mgrwt>
</event>
<event>
 4    5  0.7767175E-008  0.8275194E+03  0.7818608E-02  0.9654178E-01
         -1   -1    0    0    0  501 -0.00000000000E+00  0.00000000000E+00  0.83921868167E+03  0.83921868169E+03  0.50400000000E-02 0.  1.
          1   -1    0    0  501    0  0.00000000000E+00 -0.00000000000E+00 -0.17077760487E+04  0.17077760487E+04  0.50400000000E-02 0. -1.
    8880023    1    1    2    0    0 -0.47231094601E+03 -0.16703469420E+03  0.57742483991E+03  0.10090628676E+04  0.65864270000E+03 0.  0.
    8880022    1    1    2    0    0  0.47231094601E+03  0.16703469420E+03 -0.14459822070E+04  0.15379318628E+04  0.15294330000E+03 0.  0.
<mgrwt>
<rscale>  0 0.73811785E+03</rscale>
<asrwt>0</asrwt>
<pdfrwt beam="1">  1        1 0.26273478E+00 0.82751944E+03</pdfrwt>
<pdfrwt beam="2">  1       -1 0.12911057E+00 0.82751944E+03</pdfrwt>
<totfact> 0.25125629E+00</totfact>
</mgrwt>
</event>
<event>
 4    5  0.7767175E-008  0.8186921E+03  0.7818608E-02  0.9671748E-01
         -1   -1    0    0    0  501 -0.00000000000E+00  0.00000000000E+00  0.10002897784E+04  0.10002897784E+04  0.50400000000E-02 0.  1.
          1   -1    0    0  501    0  0.00000000000E+00 -0.00000000000E+00 -0.11938467371E+04  0.11938467371E+04  0.50400000000E-02 0. -1.
    8880023    1    1    2    0    0  0.12091078521E+03  0.47098522952E+03  0.75731509562E+03  0.11152501355E+04  0.65864270000E+03 0.  0.
    8880022    1    1    2    0    0 -0.12091078521E+03 -0.47098522952E+03 -0.95087205432E+03  0.10788863801E+04  0.15294330000E+03 0.  0.
<mgrwt>
<rscale>  0 0.72724092E+03</rscale>
<asrwt>0</asrwt>
<pdfrwt beam="1">  1        1 0.18366873E+00 0.81869207E+03</pdfrwt>
<pdfrwt beam="2">  1       -1 0.15389074E+00 0.81869207E+03</pdfrwt>
<totfact> 0.36151261E+00</totfact>
</mgrwt>
</event>
<event>
 4    5  0.7767175E-008  0.1707859E+04  0.7818608E-02  0.8775294E-01
         -1   -1    0    0    0  501 -0.00000000000E+00  0.00000000000E+00  0.10192710758E+04  0.10192710758E+04  0.50400000000E-02 0.  1.
          1   -1    0    0  501    0  0.00000000000E+00 -0.00000000000E+00 -0.29215105395E+04  0.29215105395E+04  0.50400000000E-02 0. -1.
    8880023    1    1    2    0    0  0.38277454352E+03 -0.15285469872E+04 -0.39082543454E+03  0.17520065553E+04  0.65864270000E+03 0.  0.
    8880022    1    1    2    0    0 -0.38277454352E+03  0.15285469872E+04 -0.15114140291E+04  0.21887750601E+04  0.15294330000E+03 0.  0.
<mgrwt>
<rscale>  0 0.16757898E+04</rscale>
<asrwt>0</asrwt>
<pdfrwt beam="1">  1        1 0.44946316E+00 0.17078590E+04</pdfrwt>
<pdfrwt beam="2">  1       -1 0.15681094E+00 0.17078590E+04</pdfrwt>
<totfact> 0.19558807E-01</totfact>
</mgrwt>
</event>
<event>
 4    5  0.7767175E-008  0.1060096E+04  0.7818608E-02  0.9306842E-01
          1   -1    0    0  501    0  0.00000000000E+00  0.00000000000E+00  0.41833996121E+04  0.41833996121E+04  0.50400000000E-02 0. -1.
         -1   -1    0    0    0  501 -0.00000000000E+00 -0.00000000000E+00 -0.32818181383E+03  0.32818181387E+03  0.50400000000E-02 0.  1.
    8880023    1    1    2    0    0  0.39213224769E+03 -0.73227369946E+03  0.76310930932E+03  0.13061923652E+04  0.65864270000E+03 0.  0.
    8880022    1    1    2    0    0 -0.39213224769E+03  0.73227369946E+03  0.30921084889E+04  0.32053890608E+04  0.15294330000E+03 0.  0.
<mgrwt>
<rscale>  0 0.10015536E+04</rscale>
<asrwt>0</asrwt>
<pdfrwt beam="1">  1        1 0.64359996E+00 0.10600956E+04</pdfrwt>
<pdfrwt beam="2">  1       -1 0.50489509E-01 0.10600956E+04</pdfrwt>
<totfact> 0.27075821E-01</totfact>
</mgrwt>
</event>
<event>
 4    5  0.7767175E-008  0.7284102E+03  0.7818608E-02  0.9895092E-01
          1   -1    0    0  501    0  0.00000000000E+00  0.00000000000E+00  0.25483317031E+03  0.25483317036E+03  0.50400000000E-02 0. -1.
         -1   -1    0    0    0  501 -0.00000000000E+00 -0.00000000000E+00 -0.15791146330E+04  0.15791146330E+04  0.50400000000E-02 0.  1.
    8880023    1    1    2    0    0  0.15605893813E+03  0.26910384913E+03 -0.12953381168E+04  0.14860963350E+04  0.65864270000E+03 0.  1.
    8880022    1    1    2    0    0 -0.15605893813E+03 -0.26910384913E+03 -0.28943345943E+02  0.34785146841E+03  0.15294330000E+03 0.  0.
<mgrwt>
<rscale>  0 0.60499717E+03</rscale>
<asrwt>0</asrwt>
<pdfrwt beam="1">  1        1 0.39205104E-01 0.72841024E+03</pdfrwt>
<pdfrwt beam="2">  1       -1 0.24294071E+00 0.72841024E+03</pdfrwt>
<totfact> 0.87287211E+00</totfact>
</mgrwt>
</event>
<event>
 4    5  0.7767175E-008  0.8110334E+03  0.7818608E-02  0.9687428E-01
         -1   -1    0    0    0  501 -0.00000000000E+00  0.00000000000E+00  0.17645663994E+04  0.17645663994E+04  0.50400000000E-02 0.  1.
          1   -1    0    0  501    0  0.00000000000E+00 -0.00000000000E+00 -0.12641089434E+04  0.12641089434E+04  0.50400000000E-02 0. -1.
    8880023    1    1    2    0    0 -0.44840416020E+03 -0.15132289771E+03  0.16155487410E+04  0.18076982190E+04  0.65864270000E+03 0.  1.
    8880022    1    1    2    0    0  0.44840416020E+03  0.15132289771E+03 -0.11150912850E+04  0.12209771239E+04  0.15294330000E+03 0.  0.
<mgrwt>
<rscale>  0 0.71770252E+03</rscale>
<asrwt>0</asrwt>
<pdfrwt beam="1">  1        1 0.19447830E+00 0.81103336E+03</pdfrwt>
<pdfrwt beam="2">  1       -1 0.27147175E+00 0.81103336E+03</pdfrwt>
<totfact> 0.50812942E-01</totfact>
</mgrwt>
</event>
<event>
 4    5  0.7767175E-008  0.7205867E+03  0.7818608E-02  0.9920606E-01
          1   -1    0    0  501    0  0.00000000000E+00  0.00000000000E+00  0.94274791963E+03  0.94274791964E+03  0.50400000000E-02 0. -1.
         -1   -1    0    0    0  501 -0.00000000000E+00 -0.00000000000E+00 -0.44377747039E+03  0.44377747042E+03  0.50400000000E-02 0.  1.
    8880023    1    1    2    0    0 -0.25735247466E+03  0.13858076416E+03 -0.75028392264E+02  0.72448215321E+03  0.65864270000E+03 0.  1.
    8880022    1    1    2    0    0  0.25735247466E+03 -0.13858076416E+03  0.57399884150E+03  0.66204323685E+03  0.15294330000E+03 0.  0.
<mgrwt>
<rscale>  0 0.59272949E+03</rscale>
<asrwt>0</asrwt>
<pdfrwt beam="1">  1        1 0.14503814E+00 0.72058666E+03</pdfrwt>
<pdfrwt beam="2">  1       -1 0.68273458E-01 0.72058666E+03</pdfrwt>
<totfact> 0.37522572E+01</totfact>
</mgrwt>
</event>
<event>
 4    5  0.7767175E-008  0.7626466E+03  0.7818608E-02  0.9798303E-01
          1   -1    0    0  501    0  0.00000000000E+00  0.00000000000E+00  0.56900587201E+03  0.56900587204E+03  0.50400000000E-02 0. -1.
         -1   -1    0    0    0  501 -0.00000000000E+00 -0.00000000000E+00 -0.63698002874E+03  0.63698002876E+03  0.50400000000E-02 0.  1.
    8880023    1    1    2    0    0  0.34617986052E+03  0.16726977554E+03 -0.16656841424E+03  0.78062469633E+03  0.65864270000E+03 0. -1.
    8880022    1    1    2    0    0 -0.34617986052E+03 -0.16726977554E+03  0.98594257512E+02  0.42536120447E+03  0.15294330000E+03 0.  0.
<mgrwt>
<rscale>  0 0.65453681E+03</rscale>
<asrwt>0</asrwt>
<pdfrwt beam="1">  1        1 0.87539365E-01 0.76264663E+03</pdfrwt>
<pdfrwt beam="2">  1       -1 0.97996928E-01 0.76264663E+03</pdfrwt>
<totfact> 0.37700586E+01</totfact>
</mgrwt>
</event>
<event>
 4    5  0.7767175E-008  0.9036394E+03  0.7818608E-02  0.9520214E-01
         -1   -1    0    0    0  501 -0.00000000000E+00  0.00000000000E+00  0.20156632138E+04  0.20156632138E+04  0.50400000000E-02 0.  1.
          1   -1    0    0  501    0  0.00000000000E+00 -0.00000000000E+00 -0.54694725743E+03  0.54694725745E+03  0.50400000000E-02 0. -1.
    8880023    1    1    2    0    0 -0.42346399996E+03 -0.45103451812E+03  0.16661604199E+04  0.18954299372E+04  0.65864270000E+03 0.  1.
    8880022    1    1    2    0    0  0.42346399996E+03  0.45103451812E+03 -0.19744446354E+03  0.66718053404E+03  0.15294330000E+03 0.  0.
<mgrwt>
<rscale>  0 0.82809768E+03</rscale>
<asrwt>0</asrwt>
<pdfrwt beam="1">  1        1 0.84145732E-01 0.90363937E+03</pdfrwt>
<pdfrwt beam="2">  1       -1 0.31010203E+00 0.90363937E+03</pdfrwt>
<totfact> 0.11430632E+00</totfact>
</mgrwt>
</event>
<event>
 4    5  0.7767175E-008  0.1133174E+04  0.7818608E-02  0.9224990E-01
         -1   -1    0    0    0  501 -0.00000000000E+00  0.00000000000E+00  0.21195446388E+04  0.21195446388E+04  0.50400000000E-02 0.  1.
          1   -1    0    0  501    0  0.00000000000E+00 -0.00000000000E+00 -0.51912042117E+03  0.51912042120E+03  0.50400000000E-02 0. -1.
    8880023    1    1    2    0    0  0.87588648459E+03 -0.28826457080E+03  0.10962582058E+04  0.15766628862E+04  0.65864270000E+03 0.  0.
    8880022    1    1    2    0    0 -0.87588648459E+03  0.28826457080E+03  0.50416601185E+03  0.10620021738E+04  0.15294330000E+03 0.  0.
<mgrwt>
<rscale>  0 0.10799177E+04</rscale>
<asrwt>0</asrwt>
<pdfrwt beam="1">  1        1 0.79864680E-01 0.11331742E+04</pdfrwt>
<pdfrwt beam="2">  1       -1 0.32608379E+00 0.11331742E+04</pdfrwt>
<totfact> 0.93990675E-01</totfact>
</mgrwt>
</event>
<event>
 4    5  0.7767175E-008  0.8104854E+03  0.7818608E-02  0.9688567E-01
         -1   -1    0    0    0  501 -0.00000000000E+00  0.00000000000E+00  0.30413707005E+03  0.30413707009E+03  0.50400000000E-02 0.  1.
          1   -1    0    0  501    0  0.00000000000E+00 -0.00000000000E+00 -0.21234356529E+04  0.21234356529E+04  0.50400000000E-02 0. -1.
    8880023    1    1    2    0    0  0.39904499197E+03  0.25266479278E+03 -0.36130083199E+03  0.88736965273E+03  0.65864270000E+03 0.  1.
    8880022    1    1    2    0    0 -0.39904499197E+03 -0.25266479278E+03 -0.14579977508E+04  0.15402030702E+04  0.15294330000E+03 0.  0.
<mgrwt>
<rscale>  0 0.71701623E+03</rscale>
<asrwt>0</asrwt>
<pdfrwt beam="1">  1        1 0.32668240E+00 0.81048542E+03</pdfrwt>
<pdfrwt beam="2">  1       -1 0.46790320E-01 0.81048542E+03</pdfrwt>
<totfact> 0.11598397E+01</totfact>
</mgrwt>
</event>
<event>
 4    5  0.7767175E-008  0.1179569E+04  0.7818608E-02  0.9177244E-01
          1   -1    0    0  501    0  0.00000000000E+00  0.00000000000E+00  0.24910828037E+04  0.24910828037E+04  0.50400000000E-02 0. -1.
         -1   -1    0    0    0  501 -0.00000000000E+00 -0.00000000000E+00 -0.10549225828E+04  0.10549225828E+04  0.50400000000E-02 0.  1.
    8880023    1    1    2    0    0  0.97761258071E+03  0.42956915817E+02 -0.56895353106E+03  0.13096144400E+04  0.65864270000E+03 0.  0.
    8880022    1    1    2    0    0 -0.97761258071E+03 -0.42956915817E+02  0.20051137519E+04  0.22363909466E+04  0.15294330000E+03 0.  0.
<mgrwt>
<rscale>  0 0.11291431E+04</rscale>
<asrwt>0</asrwt>
<pdfrwt beam="1">  1        1 0.38324351E+00 0.11795685E+04</pdfrwt>
<pdfrwt beam="2">  1       -1 0.16229578E+00 0.11795685E+04</pdfrwt>
<totfact> 0.38172557E-01</totfact>
</mgrwt>
</event>
<event>
 4    5  0.7767175E-008  0.8149704E+03  0.7818608E-02  0.9679315E-01
         -1   -1    0    0    0  501 -0.00000000000E+00  0.00000000000E+00  0.19823726941E+04  0.19823726941E+04  0.50400000000E-02 0.  1.
          1   -1    0    0  501    0  0.00000000000E+00 -0.00000000000E+00 -0.34110342457E+03  0.34110342461E+03  0.50400000000E-02 0. -1.
    8880023    1    1    2    0    0  0.26306693192E+03 -0.40145021938E+03  0.16268042877E+04  0.18195243571E+04  0.65864270000E+03 0.  1.
    8880022    1    1    2    0    0 -0.26306693192E+03  0.40145021938E+03  0.14464981807E+02  0.50395176160E+03  0.15294330000E+03 0.  0.
<mgrwt>
<rscale>  0 0.72261814E+03</rscale>
<asrwt>0</asrwt>
<pdfrwt beam="1">  1        1 0.52477450E-01 0.81497036E+03</pdfrwt>
<pdfrwt beam="2">  1       -1 0.30498041E+00 0.81497036E+03</pdfrwt>
<totfact> 0.23630407E+00</totfact>
</mgrwt>
</event>
<event>
 4    5  0.7767175E-008  0.6822909E+03  0.7818608E-02  0.1008056E+00
          1   -1    0    0  501    0  0.00000000000E+00  0.00000000000E+00  0.36795637300E+04  0.36795637300E+04  0.50400000000E-02 0. -1.
         -1   -1    0    0    0  501 -0.00000000000E+00 -0.00000000000E+00 -0.10266873760E+03  0.10266873772E+03  0.50400000000E-02 0.  1.
    8880023    1    1    2    0    0 -0.61837193495E+02  0.16699334919E+03  0.11012363931E+04  0.12954699599E+04  0.65864270000E+03 0.  1.
    8880022    1    1    2    0    0  0.61837193495E+02 -0.16699334919E+03  0.24756585993E+04  0.24867625078E+04  0.15294330000E+03 0.  0.
<mgrwt>
<rscale>  0 0.52254459E+03</rscale>
<asrwt>0</asrwt>
<pdfrwt beam="1">  1        1 0.56608680E+00 0.68229086E+03</pdfrwt>
<pdfrwt beam="2">  1       -1 0.15795188E-01 0.68229086E+03</pdfrwt>
<totfact> 0.59501506E+00</totfact>
</mgrwt>
</event>
<event>
 4    5  0.7767175E-008  0.7337707E+03  0.7818608E-02  0.9878479E-01
         -1   -1    0    0    0  501 -0.00000000000E+00  0.00000000000E+00  0.47680402871E+03  0.47680402873E+03  0.50400000000E-02 0.  1.
          1   -1    0    0  501    0  0.00000000000E+00 -0.00000000000E+00 -0.15092907246E+04  0.15092907246E+04  0.50400000000E-02 0. -1.
    8880023    1    1    2    0    0  0.30112026636E+03 -0.11805032502E+03  0.15148807372E+03  0.74924504455E+03  0.65864270000E+03 0.  1.
    8880022    1    1    2    0    0 -0.30112026636E+03  0.11805032502E+03 -0.11839747696E+04  0.12368497088E+04  0.15294330000E+03 0.  0.
<mgrwt>
<rscale>  0 0.61315735E+03</rscale>
<asrwt>0</asrwt>
<pdfrwt beam="1">  1        1 0.23219857E+00 0.73377074E+03</pdfrwt>
<pdfrwt beam="2">  1       -1 0.73354466E-01 0.73377074E+03</pdfrwt>
<totfact> 0.12550928E+01</totfact>
</mgrwt>
</event>
<event>
 4    5  0.7767175E-008  0.6831323E+03  0.7818608E-02  0.1007605E+00
          1   -1    0    0  501    0  0.00000000000E+00  0.00000000000E+00  0.13648552144E+04  0.13648552144E+04  0.50400000000E-02 0. -1.
         -1   -1    0    0    0  501 -0.00000000000E+00 -0.00000000000E+00 -0.47690363064E+03  0.47690363066E+03  0.50400000000E-02 0.  1.
    8880023    1    1    2    0    0 -0.85166419842E+02  0.16001923839E+03 -0.21298556546E+03  0.71556448562E+03  0.65864270000E+03 0.  1.
    8880022    1    1    2    0    0  0.85166419842E+02 -0.16001923839E+03  0.11009371492E+04  0.11261943595E+04  0.15294330000E+03 0.  0.
<mgrwt>
<rscale>  0 0.52437865E+03</rscale>
<asrwt>0</asrwt>
<pdfrwt beam="1">  1        1 0.20997773E+00 0.68313226E+03</pdfrwt>
<pdfrwt beam="2">  1       -1 0.73369789E-01 0.68313226E+03</pdfrwt>
<totfact> 0.15898500E+01</totfact>
</mgrwt>
</event>
<event>
 4    5  0.7767175E-008  0.7519974E+03  0.7818608E-02  0.9826284E-01
          1   -1    0    0  501    0  0.00000000000E+00  0.00000000000E+00  0.39070680264E+03  0.39070680267E+03  0.50400000000E-02 0. -1.
         -1   -1    0    0    0  501 -0.00000000000E+00 -0.00000000000E+00 -0.98823515388E+03  0.98823515389E+03  0.50400000000E-02 0.  1.
    8880023    1    1    2    0    0 -0.32879866869E+02 -0.36139831575E+03 -0.63380907464E+03  0.98347037456E+03  0.65864270000E+03 0.  0.
    8880022    1    1    2    0    0  0.32879866869E+02  0.36139831575E+03  0.36280723398E+02  0.39547158201E+03  0.15294330000E+03 0.  0.
<mgrwt>
<rscale>  0 0.63970866E+03</rscale>
<asrwt>0</asrwt>
<pdfrwt beam="1">  1        1 0.60108739E-01 0.75199736E+03</pdfrwt>
<pdfrwt beam="2">  1       -1 0.15203618E+00 0.75199736E+03</pdfrwt>
<totfact> 0.21349474E+01</totfact>
</mgrwt>
</event>
<event>
 4    5  0.7767175E-008  0.1577958E+04  0.7818608E-02  0.8856462E-01
          1   -1    0    0  501    0  0.00000000000E+00  0.00000000000E+00  0.11013943544E+04  0.11013943544E+04  0.50400000000E-02 0. -1.
         -1   -1    0    0    0  501 -0.00000000000E+00 -0.00000000000E+00 -0.25587989442E+04  0.25587989443E+04  0.50400000000E-02 0.  1.
    8880023    1    1    2    0    0  0.13272595129E+04  0.54269965841E+03 -0.15542731100E+04  0.22148850626E+04  0.65864270000E+03 0.  1.
    8880022    1    1    2    0    0 -0.13272595129E+04 -0.54269965841E+03  0.96868520129E+02  0.14453082360E+04  0.15294330000E+03 0. -1.
<mgrwt>
<rscale>  0 0.15428271E+04</rscale>
<asrwt>0</asrwt>
<pdfrwt beam="1">  1        1 0.16944529E+00 0.15779578E+04</pdfrwt>
<pdfrwt beam="2">  1       -1 0.39366137E+00 0.15779578E+04</pdfrwt>
<totfact> 0.94216456E-02</totfact>
</mgrwt>
</event>
<event>
 4    5  0.7767175E-008  0.7558892E+03  0.7818608E-02  0.9815868E-01
          1   -1    0    0  501    0  0.00000000000E+00  0.00000000000E+00  0.27976804886E+04  0.27976804886E+04  0.50400000000E-02 0. -1.
         -1   -1    0    0    0  501 -0.00000000000E+00 -0.00000000000E+00 -0.65521174796E+03  0.65521174798E+03  0.50400000000E-02 0.  1.
    8880023    1    1    2    0    0 -0.35746448050E+03  0.98881011783E+02 -0.41624470501E+03  0.86291840288E+03  0.65864270000E+03 0.  1.
    8880022    1    1    2    0    0  0.35746448050E+03 -0.98881011783E+02  0.25587134456E+04  0.25899738337E+04  0.15294330000E+03 0.  0.
<mgrwt>
<rscale>  0 0.64517863E+03</rscale>
<asrwt>0</asrwt>
<pdfrwt beam="1">  1        1 0.43041238E+00 0.75588922E+03</pdfrwt>
<pdfrwt beam="2">  1       -1 0.10080181E+00 0.75588922E+03</pdfrwt>
<totfact> 0.84040600E-01</totfact>
</mgrwt>
</event>
<event>
 4    5  0.7767175E-008  0.6939017E+03  0.7818608E-02  0.1002351E+00
          1   -1    0    0  501    0  0.00000000000E+00  0.00000000000E+00  0.10282058051E+04  0.10282058051E+04  0.50400000000E-02 0. -1.
         -1   -1    0    0    0  501 -0.00000000000E+00 -0.00000000000E+00 -0.34034651586E+03  0.34034651590E+03  0.50400000000E-02 0.  1.
    8880023    1    1    2    0    0 -0.57091121812E+00  0.21837827924E+03  0.72204145200E+02  0.69764822341E+03  0.65864270000E+03 0.  1.
    8880022    1    1    2    0    0  0.57091121812E+00 -0.21837827924E+03  0.61565514407E+03  0.67090409763E+03  0.15294330000E+03 0.  0.
<mgrwt>
<rscale>  0 0.54631447E+03</rscale>
<asrwt>0</asrwt>
<pdfrwt beam="1">  1        1 0.15818551E+00 0.69390173E+03</pdfrwt>
<pdfrwt beam="2">  1       -1 0.52361003E-01 0.69390173E+03</pdfrwt>
<totfact> 0.54417561E+01</totfact>
</mgrwt>
</event>
<event>
 4    5  0.7767175E-008  0.9922103E+03  0.7818608E-02  0.9391821E-01
          1   -1    0    0  501    0  0.00000000000E+00  0.00000000000E+00  0.16359668281E+04  0.16359668281E+04  0.50400000000E-02 0. -1.
         -1   -1    0    0    0  501 -0.00000000000E+00 -0.00000000000E+00 -0.50260587749E+03  0.50260587751E+03  0.50400000000E-02 0.  1.
    8880023    1    1    2    0    0  0.99022305559E+02 -0.73543573294E+03  0.35889439974E+03  0.10551239409E+04  0.65864270000E+03 0.  1.
    8880022    1    1    2    0    0 -0.99022305559E+02  0.73543573294E+03  0.77446655085E+03  0.10834487647E+04  0.15294330000E+03 0.  0.
<mgrwt>
<rscale>  0 0.92751882E+03</rscale>
<asrwt>0</asrwt>
<pdfrwt beam="1">  1        1 0.25168720E+00 0.99221033E+03</pdfrwt>
<pdfrwt beam="2">  1       -1 0.77323981E-01 0.99221033E+03</pdfrwt>
<totfact> 0.89104069E+00</totfact>
</mgrwt>
</event>
<event>
 4    5  0.7767175E-008  0.1301457E+04  0.7818608E-02  0.9064302E-01
          1   -1    0    0  501    0  0.00000000000E+00  0.00000000000E+00  0.22426240943E+04  0.22426240943E+04  0.50400000000E-02 0. -1.
         -1   -1    0    0    0  501 -0.00000000000E+00 -0.00000000000E+00 -0.12839966641E+04  0.12839966641E+04  0.50400000000E-02 0.  1.
    8880023    1    1    2    0    0  0.10139064568E+04 -0.48163760850E+03  0.17235290693E+04  0.21597091814E+04  0.65864270000E+03 0.  0.
    8880022    1    1    2    0    0 -0.10139064568E+04  0.48163760850E+03 -0.76490163911E+03  0.13669115771E+04  0.15294330000E+03 0.  0.
<mgrwt>
<rscale>  0 0.12570906E+04</rscale>
<asrwt>0</asrwt>
<pdfrwt beam="1">  1        1 0.34501909E+00 0.13014574E+04</pdfrwt>
<pdfrwt beam="2">  1       -1 0.19753795E+00 0.13014574E+04</pdfrwt>
<totfact> 0.30910170E-01</totfact>
</mgrwt>
</event>
<event>
 4    5  0.7767175E-008  0.1148441E+04  0.7818608E-02  0.9208947E-01
         -1   -1    0    0    0  501 -0.00000000000E+00  0.00000000000E+00  0.95415892692E+03  0.95415892693E+03  0.50400000000E-02 0.  1.
          1   -1    0    0  501    0  0.00000000000E+00 -0.00000000000E+00 -0.17839483536E+04  0.17839483537E+04  0.50400000000E-02 0. -1.
    8880023    1    1    2    0    0 -0.69286550044E+03 -0.63643119876E+03  0.36928232665E+03  0.12063527326E+04  0.65864270000E+03 0.  0.
    8880022    1    1    2    0    0  0.69286550044E+03  0.63643119876E+03 -0.11990717534E+04  0.15317545480E+04  0.15294330000E+03 0.  0.
<mgrwt>
<rscale>  0 0.10961555E+04</rscale>
<asrwt>0</asrwt>
<pdfrwt beam="1">  1        1 0.27445359E+00 0.11484413E+04</pdfrwt>
<pdfrwt beam="2">  1       -1 0.14679368E+00 0.11484413E+04</pdfrwt>
<totfact> 0.15265599E+00</totfact>
</mgrwt>
</event>
<event>
 4    5  0.7767175E-008  0.1832018E+04  0.7818608E-02  0.8705029E-01
          1   -1    0    0  501    0  0.00000000000E+00  0.00000000000E+00  0.18044261266E+04  0.18044261266E+04  0.50400000000E-02 0. -1.
         -1   -1    0    0    0  501 -0.00000000000E+00 -0.00000000000E+00 -0.18045244714E+04  0.18045244714E+04  0.50400000000E-02 0.  1.
    8880023    1    1    2    0    0  0.14078080028E+04  0.96982261049E+03  0.32901477390E+03  0.18613275360E+04  0.65864270000E+03 0.  0.
    8880022    1    1    2    0    0 -0.14078080028E+04 -0.96982261049E+03 -0.32911311871E+03  0.17476230619E+04  0.15294330000E+03 0.  0.
<mgrwt>
<rscale>  0 0.18023909E+04</rscale>
<asrwt>0</asrwt>
<pdfrwt beam="1">  1        1 0.27760402E+00 0.18320179E+04</pdfrwt>
<pdfrwt beam="2">  1       -1 0.27761915E+00 0.18320179E+04</pdfrwt>
<totfact> 0.16982667E-01</totfact>
</mgrwt>
</event>
<event>
 4    5  0.7767175E-008  0.8264268E+03  0.7818608E-02  0.9656325E-01
         -1   -1    0    0    0  501 -0.00000000000E+00  0.00000000000E+00  0.64881910993E+03  0.64881910995E+03  0.50400000000E-02 0.  1.
          1   -1    0    0  501    0  0.00000000000E+00 -0.00000000000E+00 -0.25925116928E+04  0.25925116928E+04  0.50400000000E-02 0. -1.
    8880023    1    1    2    0    0 -0.47452870778E+03 -0.15489839826E+03  0.34374948298E+03  0.89506699280E+03  0.65864270000E+03 0.  0.
    8880022    1    1    2    0    0  0.47452870778E+03  0.15489839826E+03 -0.22874420658E+04  0.23462638099E+04  0.15294330000E+03 0. -1.
<mgrwt>
<rscale>  0 0.73677788E+03</rscale>
<asrwt>0</asrwt>
<pdfrwt beam="1">  1        1 0.39884795E+00 0.82642678E+03</pdfrwt>
<pdfrwt beam="2">  1       -1 0.99818326E-01 0.82642678E+03</pdfrwt>
<totfact> 0.11758035E+00</totfact>
</mgrwt>
</event>
<event>
 4    5  0.7767175E-008  0.8021003E+03  0.7818608E-02  0.9706273E-01
         -1   -1    0    0    0  501 -0.00000000000E+00  0.00000000000E+00  0.24266537541E+03  0.24266537546E+03  0.50400000000E-02 0.  1.
          1   -1    0    0  501    0  0.00000000000E+00 -0.00000000000E+00 -0.21389625471E+04  0.21389625471E+04  0.50400000000E-02 0. -1.
    8880023    1    1    2    0    0 -0.14396484682E+03 -0.43454430052E+03 -0.60982002341E+03  0.10075938137E+04  0.65864270000E+03 0.  1.
    8880022    1    1    2    0    0  0.14396484682E+03  0.43454430052E+03 -0.12864771483E+04  0.13740341089E+04  0.15294330000E+03 0.  0.
<mgrwt>
<rscale>  0 0.70644518E+03</rscale>
<asrwt>0</asrwt>
<pdfrwt beam="1">  1        1 0.32907115E+00 0.80210026E+03</pdfrwt>
<pdfrwt beam="2">  1       -1 0.37333136E-01 0.80210026E+03</pdfrwt>
<totfact> 0.17160244E+01</totfact>
</mgrwt>
</event>
<event>
 4    5  0.7767175E-008  0.8542615E+03  0.7818608E-02  0.9603854E-01
         -1   -1    0    0    0  501 -0.00000000000E+00  0.00000000000E+00  0.57416089350E+03  0.57416089352E+03  0.50400000000E-02 0.  1.
          1   -1    0    0  501    0  0.00000000000E+00 -0.00000000000E+00 -0.11040288431E+04  0.11040288431E+04  0.50400000000E-02 0. -1.
    8880023    1    1    2    0    0 -0.46882115185E+03 -0.27596963020E+03  0.66201994235E+02  0.85682286356E+03  0.65864270000E+03 0. -1.
    8880022    1    1    2    0    0  0.46882115185E+03  0.27596963020E+03 -0.59606994382E+03  0.82136687306E+03  0.15294330000E+03 0.  0.
<mgrwt>
<rscale>  0 0.77041636E+03</rscale>
<asrwt>0</asrwt>
<pdfrwt beam="1">  1        1 0.16985059E+00 0.85426150E+03</pdfrwt>
<pdfrwt beam="2">  1       -1 0.88332445E-01 0.85426150E+03</pdfrwt>
<totfact> 0.16139127E+01</totfact>
</mgrwt>
</event>
<event>
 4    5  0.7767175E-008  0.1801622E+04  0.7818608E-02  0.8721639E-01
         -1   -1    0    0    0  501 -0.00000000000E+00  0.00000000000E+00  0.22111127705E+04  0.22111127705E+04  0.50400000000E-02 0.  1.
          1   -1    0    0  501    0  0.00000000000E+00 -0.00000000000E+00 -0.21458136906E+04  0.21458136906E+04  0.50400000000E-02 0. -1.
    8880023    1    1    2    0    0 -0.10901704124E+04 -0.12741905598E+04  0.13397262289E+04  0.22451524860E+04  0.65864270000E+03 0.  0.
    8880022    1    1    2    0    0  0.10901704124E+04  0.12741905598E+04 -0.12744271490E+04  0.21117739751E+04  0.15294330000E+03 0.  0.
<mgrwt>
<rscale>  0 0.17714345E+04</rscale>
<asrwt>0</asrwt>
<pdfrwt beam="1">  1        1 0.33012518E+00 0.18016224E+04</pdfrwt>
<pdfrwt beam="2">  1       -1 0.34017120E+00 0.18016224E+04</pdfrwt>
<totfact> 0.38873124E-02</totfact>
</mgrwt>
</event>
<event>
 4    5  0.7767175E-008  0.8986695E+03  0.7818608E-02  0.9528171E-01
         -1   -1    0    0    0  501 -0.00000000000E+00  0.00000000000E+00  0.53213787905E+03  0.53213787908E+03  0.50400000000E-02 0.  1.
          1   -1    0    0  501    0  0.00000000000E+00 -0.00000000000E+00 -0.18524846212E+04  0.18524846212E+04  0.50400000000E-02 0. -1.
    8880023    1    1    2    0    0  0.29159423418E+03  0.53737280703E+03  0.24955592245E+02  0.89901597260E+03  0.65864270000E+03 0.  0.
    8880022    1    1    2    0    0 -0.29159423418E+03 -0.53737280703E+03 -0.13453023343E+04  0.14856065276E+04  0.15294330000E+03 0.  0.
<mgrwt>
<rscale>  0 0.82238387E+03</rscale>
<asrwt>0</asrwt>
<pdfrwt beam="1">  1        1 0.28499763E+00 0.89866954E+03</pdfrwt>
<pdfrwt beam="2">  1       -1 0.81867367E-01 0.89866954E+03</pdfrwt>
<totfact> 0.57002147E+00</totfact>
</mgrwt>
</event>
<event>
 4    5  0.7767175E-008  0.6602829E+03  0.7818608E-02  0.1023868E+00
         -1   -1    0    0    0  501 -0.00000000000E+00  0.00000000000E+00  0.12382578497E+04  0.12382578497E+04  0.50400000000E-02 0.  1.
          1   -1    0    0  501    0  0.00000000000E+00 -0.00000000000E+00 -0.37556943114E+03  0.37556943117E+03  0.50400000000E-02 0. -1.
    8880023    1    1    2    0    0  0.44835289487E+02  0.12373604858E+02  0.11262751168E+04  0.13055531986E+04  0.65864270000E+03 0.  1.
    8880022    1    1    2    0    0 -0.44835289487E+02 -0.12373604858E+02 -0.26358669828E+03  0.30827408228E+03  0.15294330000E+03 0.  0.
<mgrwt>
<rscale>  0 0.46316096E+03</rscale>
<asrwt>0</asrwt>
<pdfrwt beam="1">  1        1 0.57779911E-01 0.66028291E+03</pdfrwt>
<pdfrwt beam="2">  1       -1 0.19050121E+00 0.66028291E+03</pdfrwt>
<totfact> 0.11910545E+01</totfact>
</mgrwt>
</event>
<event>
 4    5  0.7767175E-008  0.9346807E+03  0.7818608E-02  0.9472507E-01
         -1   -1    0    0    0  501 -0.00000000000E+00  0.00000000000E+00  0.10773542343E+04  0.10773542343E+04  0.50400000000E-02 0.  1.
          1   -1    0    0  501    0  0.00000000000E+00 -0.00000000000E+00 -0.76839294516E+03  0.76839294518E+03  0.50400000000E-02 0. -1.
    8880023    1    1    2    0    0 -0.43009589613E+03  0.50481210634E+03  0.59445058578E+03  0.11077000712E+04  0.65864270000E+03 0.  1.
    8880022    1    1    2    0    0  0.43009589613E+03 -0.50481210634E+03 -0.28548929662E+03  0.73804710830E+03  0.15294330000E+03 0.  0.
<mgrwt>
<rscale>  0 0.86341505E+03</rscale>
<asrwt>0</asrwt>
<pdfrwt beam="1">  1        1 0.11821430E+00 0.93468067E+03</pdfrwt>
<pdfrwt beam="2">  1       -1 0.16574680E+00 0.93468067E+03</pdfrwt>
<totfact> 0.62995206E+00</totfact>
</mgrwt>
</event>
<event>
 4    5  0.7767175E-008  0.1714133E+04  0.7818608E-02  0.8771584E-01
         -1   -1    0    0    0  501 -0.00000000000E+00  0.00000000000E+00  0.17692934846E+04  0.17692934846E+04  0.50400000000E-02 0.  1.
          1   -1    0    0  501    0  0.00000000000E+00 -0.00000000000E+00 -0.23836183858E+04  0.23836183858E+04  0.50400000000E-02 0. -1.
    8880023    1    1    2    0    0 -0.15551713898E+04  0.29305671023E+03  0.91826242192E+03  0.19445967111E+04  0.65864270000E+03 0.  1.
    8880022    1    1    2    0    0  0.15551713898E+04 -0.29305671023E+03 -0.15325873231E+04  0.22083151593E+04  0.15294330000E+03 0.  0.
<mgrwt>
<rscale>  0 0.16821969E+04</rscale>
<asrwt>0</asrwt>
<pdfrwt beam="1">  1        1 0.36671052E+00 0.17141326E+04</pdfrwt>
<pdfrwt beam="2">  1       -1 0.27219900E+00 0.17141326E+04</pdfrwt>
<totfact> 0.74863219E-02</totfact>
</mgrwt>
</event>
<event>
 4    5  0.1367832E-007  0.7153572E+03  0.7818608E-02  0.9938621E-01
         -1   -1    0    0    0  501 -0.00000000000E+00  0.00000000000E+00  0.15320684106E+04  0.15320684106E+04  0.50400000000E-02 0.  1.
          1   -1    0    0  501    0  0.00000000000E+00 -0.00000000000E+00 -0.19851937115E+04  0.19851937115E+04  0.50400000000E-02 0. -1.
    8880023    1    1    2    0    0 -0.27344840011E+03  0.56139908090E+02  0.14345071842E+04  0.16029805940E+04  0.65864270000E+03 0.  1.
    8880022    1    1    2    0    0  0.27344840011E+03 -0.56139908090E+02 -0.18876324852E+04  0.19142815281E+04  0.15294330000E+03 0.  0.
<mgrwt>
<rscale>  0 0.58425536E+03</rscale>
<asrwt>0</asrwt>
<pdfrwt beam="1">  1        1 0.30541442E+00 0.71535720E+03</pdfrwt>
<pdfrwt beam="2">  1       -1 0.23570283E+00 0.71535720E+03</pdfrwt>
<totfact> 0.28501245E-01</totfact>
</mgrwt>
</event>
<event>
 4    5  0.8007908E-008  0.7837371E+03  0.7818608E-02  0.9747131E-01
          1   -1    0    0  501    0  0.00000000000E+00  0.00000000000E+00  0.99914899069E+03  0.99914899070E+03  0.50400000000E-02 0. -1.
         -1   -1    0    0    0  501 -0.00000000000E+00 -0.00000000000E+00 -0.95319584386E+03  0.95319584388E+03  0.50400000000E-02 0.  1.
    8880023    1    1    2    0    0  0.42359055002E+02  0.42265738962E+03 -0.71933765730E+03  0.10638093955E+04  0.65864270000E+03 0.  1.
    8880022    1    1    2    0    0 -0.42359055002E+02 -0.42265738962E+03  0.76529080413E+03  0.88853543905E+03  0.15294330000E+03 0.  0.
<mgrwt>
<rscale>  0 0.68278665E+03</rscale>
<asrwt>0</asrwt>
<pdfrwt beam="1">  1        1 0.15371523E+00 0.78373705E+03</pdfrwt>
<pdfrwt beam="2">  1       -1 0.14664551E+00 0.78373705E+03</pdfrwt>
<totfact> 0.57898244E+00</totfact>
</mgrwt>
</event>
<event>
 4    5  0.7767175E-008  0.7460475E+03  0.7818608E-02  0.9842669E-01
          1   -1    0    0  501    0  0.00000000000E+00  0.00000000000E+00  0.38406522605E+03  0.38406522608E+03  0.50400000000E-02 0. -1.
         -1   -1    0    0    0  501 -0.00000000000E+00 -0.00000000000E+00 -0.11668006963E+04  0.11668006964E+04  0.50400000000E-02 0.  1.
    8880023    1    1    2    0    0 -0.21873045911E+03  0.27374003771E+03 -0.88264958404E+03  0.11557063279E+04  0.65864270000E+03 0.  1.
    8880022    1    1    2    0    0  0.21873045911E+03 -0.27374003771E+03  0.99914113734E+02  0.39515959450E+03  0.15294330000E+03 0.  0.
<mgrwt>
<rscale>  0 0.63122107E+03</rscale>
<asrwt>0</asrwt>
<pdfrwt beam="1">  1        1 0.59086958E-01 0.74604747E+03</pdfrwt>
<pdfrwt beam="2">  1       -1 0.17950780E+00 0.74604747E+03</pdfrwt>
<totfact> 0.13674949E+01</totfact>
</mgrwt>
</event>
<event>
 4    5  0.7767175E-008  0.1287136E+04  0.7818608E-02  0.9076749E-01
         -1   -1    0    0    0  501 -0.00000000000E+00  0.00000000000E+00  0.19509876858E+04  0.19509876858E+04  0.50400000000E-02 0.  1.
          1   -1    0    0  501    0  0.00000000000E+00 -0.00000000000E+00 -0.98073175869E+03  0.98073175870E+03  0.50400000000E-02 0. -1.
    8880023    1    1    2    0    0 -0.69047357384E+03 -0.86380229182E+03  0.12356271320E+04  0.17842345056E+04  0.65864270000E+03 0.  0.
    8880022    1    1    2    0    0  0.69047357384E+03  0.86380229182E+03 -0.26537120488E+03  0.11474849389E+04  0.15294330000E+03 0.  0.
<mgrwt>
<rscale>  0 0.12421415E+04</rscale>
<asrwt>0</asrwt>
<pdfrwt beam="1">  1        1 0.15088181E+00 0.12871357E+04</pdfrwt>
<pdfrwt beam="2">  1       -1 0.30015195E+00 0.12871357E+04</pdfrwt>
<totfact> 0.50319639E-01</totfact>
</mgrwt>
</event>
<event>
 4    5  0.7767175E-008  0.7344907E+03  0.7818608E-02  0.9876296E-01
          1   -1    0    0  501    0  0.00000000000E+00  0.00000000000E+00  0.10238361209E+04  0.10238361210E+04  0.50400000000E-02 0. -1.
         -1   -1    0    0    0  501 -0.00000000000E+00 -0.00000000000E+00 -0.71710719605E+03  0.71710719607E+03  0.50400000000E-02 0.  1.
    8880023    1    1    2    0    0  0.32090775132E+03 -0.51813470494E+02 -0.47907087625E+03  0.87691820104E+03  0.65864270000E+03 0.  1.
    8880022    1    1    2    0    0 -0.32090775132E+03  0.51813470494E+02  0.78579980114E+03  0.86402511599E+03  0.15294330000E+03 0.  0.
<mgrwt>
<rscale>  0 0.61423970E+03</rscale>
<asrwt>0</asrwt>
<pdfrwt beam="1">  1        1 0.15751325E+00 0.73449073E+03</pdfrwt>
<pdfrwt beam="2">  1       -1 0.11032418E+00 0.73449073E+03</pdfrwt>
<totfact> 0.11365079E+01</totfact>
</mgrwt>
</event>
<event>
 4    5  0.9697510E-008  0.1156311E+04  0.7818608E-02  0.9200807E-01
          1   -1    0    0  501    0  0.00000000000E+00  0.00000000000E+00  0.12753968413E+04  0.12753968413E+04  0.50400000000E-02 0. -1.
         -1   -1    0    0    0  501 -0.00000000000E+00 -0.00000000000E+00 -0.23394647680E+04  0.23394647680E+04  0.50400000000E-02 0.  1.
    8880023    1    1    2    0    0  0.91762624236E+03  0.24739925487E+03 -0.19756184850E+04  0.22891314764E+04  0.65864270000E+03 0.  0.
    8880022    1    1    2    0    0 -0.91762624236E+03 -0.24739925487E+03  0.91155055830E+03  0.13257301329E+04  0.15294330000E+03 0.  0.
<mgrwt>
<rscale>  0 0.11045098E+04</rscale>
<asrwt>0</asrwt>
<pdfrwt beam="1">  1        1 0.19621490E+00 0.11563107E+04</pdfrwt>
<pdfrwt beam="2">  1       -1 0.35991766E+00 0.11563107E+04</pdfrwt>
<totfact> 0.12519727E-01</totfact>
</mgrwt>
</event>
<event>
 4    5  0.7767175E-008  0.1067583E+04  0.7818608E-02  0.9298036E-01
          1   -1    0    0  501    0  0.00000000000E+00  0.00000000000E+00  0.67931203859E+03  0.67931203861E+03  0.50400000000E-02 0. -1.
         -1   -1    0    0    0  501 -0.00000000000E+00 -0.00000000000E+00 -0.15091724136E+04  0.15091724137E+04  0.50400000000E-02 0.  1.
    8880023    1    1    2    0    0 -0.15147879498E+03 -0.82642493222E+03 -0.79981577208E+03  0.13339563222E+04  0.65864270000E+03 0.  0.
    8880022    1    1    2    0    0  0.15147879498E+03  0.82642493222E+03 -0.30044602968E+02  0.85452813009E+03  0.15294330000E+03 0.  0.
<mgrwt>
<rscale>  0 0.10096382E+04</rscale>
<asrwt>0</asrwt>
<pdfrwt beam="1">  1        1 0.10450954E+00 0.10675833E+04</pdfrwt>
<pdfrwt beam="2">  1       -1 0.23218037E+00 0.10675833E+04</pdfrwt>
<totfact> 0.25991668E+00</totfact>
</mgrwt>
</event>
<event>
 4    5  0.7767175E-008  0.8601607E+03  0.7818608E-02  0.9593278E-01
          1   -1    0    0  501    0  0.00000000000E+00  0.00000000000E+00  0.15608218508E+04  0.15608218508E+04  0.50400000000E-02 0. -1.
         -1   -1    0    0    0  501 -0.00000000000E+00 -0.00000000000E+00 -0.45070975393E+03  0.45070975396E+03  0.50400000000E-02 0.  1.
    8880023    1    1    2    0    0  0.51228896895E+03 -0.20886894425E+03  0.12195055266E+03  0.86876254934E+03  0.65864270000E+03 0.  1.
    8880022    1    1    2    0    0 -0.51228896895E+03  0.20886894425E+03  0.98816154421E+03  0.11427690554E+04  0.15294330000E+03 0.  0.
<mgrwt>
<rscale>  0 0.77742712E+03</rscale>
<asrwt>0</asrwt>
<pdfrwt beam="1">  1        1 0.24012644E+00 0.86016070E+03</pdfrwt>
<pdfrwt beam="2">  1       -1 0.69339963E-01 0.86016070E+03</pdfrwt>
<totfact> 0.12775179E+01</totfact>
</mgrwt>
</event>
<event>
 4    5  0.7767175E-008  0.6975565E+03  0.7818608E-02  0.1000749E+00
         -1   -1    0    0    0  501 -0.00000000000E+00  0.00000000000E+00  0.87530818195E+03  0.87530818197E+03  0.50400000000E-02 0.  1.
          1   -1    0    0  501    0  0.00000000000E+00 -0.00000000000E+00 -0.64940612636E+03  0.64940612638E+03  0.50400000000E-02 0. -1.
    8880023    1    1    2    0    0 -0.22963564015E+03  0.65101794501E+01  0.69229696129E+03  0.98278186722E+03  0.65864270000E+03 0.  1.
    8880022    1    1    2    0    0  0.22963564015E+03 -0.65101794501E+01 -0.46639490570E+03  0.54193244113E+03  0.15294330000E+03 0.  0.
<mgrwt>
<rscale>  0 0.55322921E+03</rscale>
<asrwt>0</asrwt>
<pdfrwt beam="1">  1        1 0.99908635E-01 0.69755653E+03</pdfrwt>
<pdfrwt beam="2">  1       -1 0.13466280E+00 0.69755653E+03</pdfrwt>
<totfact> 0.14634325E+01</totfact>
</mgrwt>
</event>
<event>
 4    5  0.7767175E-008  0.6675247E+03  0.7818608E-02  0.1017503E+00
          1   -1    0    0  501    0  0.00000000000E+00  0.00000000000E+00  0.81136500307E+03  0.81136500309E+03  0.50400000000E-02 0. -1.
         -1   -1    0    0    0  501 -0.00000000000E+00 -0.00000000000E+00 -0.24299088656E+04  0.24299088656E+04  0.50400000000E-02 0.  1.
    8880023    1    1    2    0    0  0.36910271119E+02 -0.10206194046E+03 -0.23723577138E+04  0.24644817581E+04  0.65864270000E+03 0.  1.
    8880022    1    1    2    0    0 -0.36910271119E+02  0.10206194046E+03  0.75381385121E+03  0.77679211060E+03  0.15294330000E+03 0.  0.
<mgrwt>
<rscale>  0 0.48598523E+03</rscale>
<asrwt>0</asrwt>
<pdfrwt beam="1">  1        1 0.12482539E+00 0.66752469E+03</pdfrwt>
<pdfrwt beam="2">  1       -1 0.37383213E+00 0.66752469E+03</pdfrwt>
<totfact> 0.25523441E-01</totfact>
</mgrwt>
</event>
<event>
 4    5  0.7767175E-008  0.1481536E+04  0.7818608E-02  0.8922785E-01
          1   -1    0    0  501    0  0.00000000000E+00  0.00000000000E+00  0.16415989678E+04  0.16415989678E+04  0.50400000000E-02 0. -1.
         -1   -1    0    0    0  501 -0.00000000000E+00 -0.00000000000E+00 -0.14085732230E+04  0.14085732230E+04  0.50400000000E-02 0.  1.
    8880023    1    1    2    0    0  0.31604735175E+03 -0.12888959291E+04 -0.45194254788E+03  0.15489354142E+04  0.65864270000E+03 0.  0.
    8880022    1    1    2    0    0 -0.31604735175E+03  0.12888959291E+04  0.68496829269E+03  0.15012367766E+04  0.15294330000E+03 0.  0.
<mgrwt>
<rscale>  0 0.14436923E+04</rscale>
<asrwt>0</asrwt>
<pdfrwt beam="1">  1        1 0.25255369E+00 0.14815360E+04</pdfrwt>
<pdfrwt beam="2">  1       -1 0.21670357E+00 0.14815360E+04</pdfrwt>
<totfact> 0.57352358E-01</totfact>
</mgrwt>
</event>
<event>
 4    5  0.7767175E-008  0.6655184E+03  0.7818608E-02  0.1019102E+00
         -1   -1    0    0    0  501 -0.00000000000E+00  0.00000000000E+00  0.29079622866E+03  0.29079622871E+03  0.50400000000E-02 0.  1.
          1   -1    0    0  501    0  0.00000000000E+00 -0.00000000000E+00 -0.67275047985E+03  0.67275047987E+03  0.50400000000E-02 0. -1.
    8880023    1    1    2    0    0  0.80351413275E+02  0.51460938684E+02 -0.17311328215E+03  0.68766488390E+03  0.65864270000E+03 0.  0.
    8880022    1    1    2    0    0 -0.80351413275E+02 -0.51460938684E+02 -0.20884096904E+03  0.27588182468E+03  0.15294330000E+03 0.  0.
<mgrwt>
<rscale>  0 0.48011933E+03</rscale>
<asrwt>0</asrwt>
<pdfrwt beam="1">  1        1 0.10350007E+00 0.66551843E+03</pdfrwt>
<pdfrwt beam="2">  1       -1 0.44737882E-01 0.66551843E+03</pdfrwt>
<totfact> 0.14630022E+02</totfact>
</mgrwt>
</event>
<event>
 4    5  0.7767175E-008  0.1061937E+04  0.7818608E-02  0.9304668E-01
         -1   -1    0    0    0  501 -0.00000000000E+00  0.00000000000E+00  0.87153780819E+03  0.87153780821E+03  0.50400000000E-02 0.  1.
          1   -1    0    0  501    0  0.00000000000E+00 -0.00000000000E+00 -0.15210485079E+04  0.15210485079E+04  0.50400000000E-02 0. -1.
    8880023    1    1    2    0    0 -0.56110929165E+03 -0.61567484757E+03 -0.10160731925E+04  0.14697326607E+04  0.65864270000E+03 0.  1.
    8880022    1    1    2    0    0  0.56110929165E+03  0.61567484757E+03  0.36656249284E+03  0.92285365539E+03  0.15294330000E+03 0.  0.
<mgrwt>
<rscale>  0 0.10035427E+04</rscale>
<asrwt>0</asrwt>
<pdfrwt beam="1">  1        1 0.23400746E+00 0.10619366E+04</pdfrwt>
<pdfrwt beam="2">  1       -1 0.13408274E+00 0.10619366E+04</pdfrwt>
<totfact> 0.29582609E+00</totfact>
</mgrwt>
</event>
<event>
 4    5  0.7767175E-008  0.6932987E+03  0.7818608E-02  0.1002623E+00
          1   -1    0    0  501    0  0.00000000000E+00  0.00000000000E+00  0.15627209681E+04  0.15627209681E+04  0.50400000000E-02 0. -1.
         -1   -1    0    0    0  501 -0.00000000000E+00 -0.00000000000E+00 -0.62141938524E+03  0.62141938526E+03  0.50400000000E-02 0.  1.
    8880023    1    1    2    0    0  0.19610900315E+03  0.91619338866E+02 -0.41109624253E+03  0.80601685544E+03  0.65864270000E+03 0.  1.
    8880022    1    1    2    0    0 -0.19610900315E+03 -0.91619338866E+02  0.13523978254E+04  0.13781234979E+04  0.15294330000E+03 0.  0.
<mgrwt>
<rscale>  0 0.54515100E+03</rscale>
<asrwt>0</asrwt>
<pdfrwt beam="1">  1        1 0.24041861E+00 0.69329867E+03</pdfrwt>
<pdfrwt beam="2">  1       -1 0.95602982E-01 0.69329867E+03</pdfrwt>
<totfact> 0.65706206E+00</totfact>
</mgrwt>
</event>
<event>
 4    5  0.7767175E-008  0.1197085E+04  0.7818608E-02  0.9159961E-01
         -1   -1    0    0    0  501 -0.00000000000E+00  0.00000000000E+00  0.55589540625E+03  0.55589540627E+03  0.50400000000E-02 0.  1.
          1   -1    0    0  501    0  0.00000000000E+00 -0.00000000000E+00 -0.31415365818E+04  0.31415365818E+04  0.50400000000E-02 0. -1.
    8880023    1    1    2    0    0  0.69426863640E+02 -0.99718703876E+03 -0.35553628163E+03  0.12487667250E+04  0.65864270000E+03 0.  0.
    8880022    1    1    2    0    0 -0.69426863640E+02  0.99718703876E+03 -0.22301048939E+04  0.24486652631E+04  0.15294330000E+03 0.  0.
<mgrwt>
<rscale>  0 0.11476425E+04</rscale>
<asrwt>0</asrwt>
<pdfrwt beam="1">  1        1 0.48331331E+00 0.11970849E+04</pdfrwt>
<pdfrwt beam="2">  1       -1 0.85522371E-01 0.11970849E+04</pdfrwt>
<totfact> 0.63501386E-01</totfact>
</mgrwt>
</event>
<event>
 4    5  0.7767175E-008  0.1298633E+04  0.7818608E-02  0.9066741E-01
         -1   -1    0    0    0  501 -0.00000000000E+00  0.00000000000E+00  0.65093934118E+03  0.65093934120E+03  0.50400000000E-02 0.  1.
          1   -1    0    0  501    0  0.00000000000E+00 -0.00000000000E+00 -0.25727301028E+04  0.25727301028E+04  0.50400000000E-02 0. -1.
    8880023    1    1    2    0    0 -0.11125826174E+04 -0.12164285153E+03 -0.46311346002E+03  0.13787390423E+04  0.65864270000E+03 0.  0.
    8880022    1    1    2    0    0  0.11125826174E+04  0.12164285153E+03 -0.14586773015E+04  0.18449304016E+04  0.15294330000E+03 0.  0.
<mgrwt>
<rscale>  0 0.12541438E+04</rscale>
<asrwt>0</asrwt>
<pdfrwt beam="1">  1        1 0.39580463E+00 0.12986328E+04</pdfrwt>
<pdfrwt beam="2">  1       -1 0.10014452E+00 0.12986328E+04</pdfrwt>
<totfact> 0.11209551E+00</totfact>
</mgrwt>
</event>
<event>
 4    5  0.7767175E-008  0.1235102E+04  0.7818608E-02  0.9123734E-01
         -1   -1    0    0    0  501 -0.00000000000E+00  0.00000000000E+00  0.31669278015E+04  0.31669278015E+04  0.50400000000E-02 0.  1.
          1   -1    0    0  501    0  0.00000000000E+00 -0.00000000000E+00 -0.76101017566E+03  0.76101017568E+03  0.50400000000E-02 0. -1.
    8880023    1    1    2    0    0 -0.77330764984E+03  0.70261024894E+03  0.25774836743E+04  0.28581284402E+04  0.65864270000E+03 0.  0.
    8880022    1    1    2    0    0  0.77330764984E+03 -0.70261024894E+03 -0.17156604852E+03  0.10698095369E+04  0.15294330000E+03 0.  0.
<mgrwt>
<rscale>  0 0.11876520E+04</rscale>
<asrwt>0</asrwt>
<pdfrwt beam="1">  1        1 0.11707849E+00 0.12351017E+04</pdfrwt>
<pdfrwt beam="2">  1       -1 0.48721967E+00 0.12351017E+04</pdfrwt>
<totfact> 0.42574526E-02</totfact>
</mgrwt>
</event>
<event>
 4    5  0.7767175E-008  0.1383357E+04  0.7818608E-02  0.8996724E-01
          1   -1    0    0  501    0  0.00000000000E+00  0.00000000000E+00  0.26083306584E+04  0.26083306584E+04  0.50400000000E-02 0. -1.
         -1   -1    0    0    0  501 -0.00000000000E+00 -0.00000000000E+00 -0.10259912881E+04  0.10259912881E+04  0.50400000000E-02 0.  1.
    8880023    1    1    2    0    0 -0.16560202171E+03  0.12051730751E+04 -0.27341545704E+03  0.14101178635E+04  0.65864270000E+03 0.  0.
    8880022    1    1    2    0    0  0.16560202171E+03 -0.12051730751E+04  0.18557548274E+04  0.22242040830E+04  0.15294330000E+03 0.  0.
<mgrwt>
<rscale>  0 0.13422391E+04</rscale>
<asrwt>0</asrwt>
<pdfrwt beam="1">  1        1 0.40128164E+00 0.13833569E+04</pdfrwt>
<pdfrwt beam="2">  1       -1 0.15784481E+00 0.13833569E+04</pdfrwt>
<totfact> 0.33274304E-01</totfact>
</mgrwt>
</event>
<event>
 4    5  0.7767175E-008  0.8011303E+03  0.7818608E-02  0.9708357E-01
         -1   -1    0    0    0  501 -0.00000000000E+00  0.00000000000E+00  0.11815278098E+04  0.11815278098E+04  0.50400000000E-02 0.  1.
          1   -1    0    0  501    0  0.00000000000E+00 -0.00000000000E+00 -0.21014596856E+04  0.21014596856E+04  0.50400000000E-02 0. -1.
    8880023    1    1    2    0    0  0.10657988625E+03 -0.44344146611E+03  0.10127704384E+04  0.12913224900E+04  0.65864270000E+03 0.  1.
    8880022    1    1    2    0    0 -0.10657988625E+03  0.44344146611E+03 -0.19327023141E+04  0.19916650055E+04  0.15294330000E+03 0.  0.
<mgrwt>
<rscale>  0 0.70521372E+03</rscale>
<asrwt>0</asrwt>
<pdfrwt beam="1">  1        1 0.32330149E+00 0.80113033E+03</pdfrwt>
<pdfrwt beam="2">  1       -1 0.18177351E+00 0.80113033E+03</pdfrwt>
<totfact> 0.54090685E-01</totfact>
</mgrwt>
</event>
<event>
 4    5  0.7767175E-008  0.1244248E+04  0.7818608E-02  0.9115266E-01
         -1   -1    0    0    0  501 -0.00000000000E+00  0.00000000000E+00  0.10673397874E+04  0.10673397874E+04  0.50400000000E-02 0.  1.
          1   -1    0    0  501    0  0.00000000000E+00 -0.00000000000E+00 -0.23878495986E+04  0.23878495986E+04  0.50400000000E-02 0. -1.
    8880023    1    1    2    0    0 -0.53037691076E+03  0.91271206842E+03  0.50344622521E+03  0.13422411465E+04  0.65864270000E+03 0.  0.
    8880022    1    1    2    0    0  0.53037691076E+03 -0.91271206842E+03 -0.18239560364E+04  0.21129482396E+04  0.15294330000E+03 0.  0.
<mgrwt>
<rscale>  0 0.11972514E+04</rscale>
<asrwt>0</asrwt>
<pdfrwt beam="1">  1        1 0.36736148E+00 0.12442480E+04</pdfrwt>
<pdfrwt beam="2">  1       -1 0.16420612E+00 0.12442480E+04</pdfrwt>
<totfact> 0.43078632E-01</totfact>
</mgrwt>
</event>
<event>
 4    5  0.7767175E-008  0.8054216E+03  0.7818608E-02  0.9699194E-01
         -1   -1    0    0    0  501 -0.00000000000E+00  0.00000000000E+00  0.69992144667E+03  0.69992144669E+03  0.50400000000E-02 0.  1.
          1   -1    0    0  501    0  0.00000000000E+00 -0.00000000000E+00 -0.14495810595E+04  0.14495810596E+04  0.50400000000E-02 0. -1.
    8880023    1    1    2    0    0 -0.38455683488E+03 -0.25886243270E+03  0.40089491203E+03  0.89967808413E+03  0.65864270000E+03 0.  1.
    8880022    1    1    2    0    0  0.38455683488E+03  0.25886243270E+03 -0.11505545249E+04  0.12498244221E+04  0.15294330000E+03 0.  0.
<mgrwt>
<rscale>  0 0.71064813E+03</rscale>
<asrwt>0</asrwt>
<pdfrwt beam="1">  1        1 0.22301247E+00 0.80542158E+03</pdfrwt>
<pdfrwt beam="2">  1       -1 0.10768022E+00 0.80542158E+03</pdfrwt>
<totfact> 0.58711865E+00</totfact>
</mgrwt>
</event>
<event>
 4    5  0.7767175E-008  0.8264823E+03  0.7818608E-02  0.9656216E-01
         -1   -1    0    0    0  501 -0.00000000000E+00  0.00000000000E+00  0.58096628549E+03  0.58096628551E+03  0.50400000000E-02 0.  1.
          1   -1    0    0  501    0  0.00000000000E+00 -0.00000000000E+00 -0.16127035492E+04  0.16127035492E+04  0.50400000000E-02 0. -1.
    8880023    1    1    2    0    0  0.26750879957E+03  0.42154697630E+03  0.20473524157E+03  0.85146317388E+03  0.65864270000E+03 0.  0.
    8880022    1    1    2    0    0 -0.26750879957E+03 -0.42154697630E+03 -0.12364725053E+04  0.13422066608E+04  0.15294330000E+03 0.  0.
<mgrwt>
<rscale>  0 0.73684603E+03</rscale>
<asrwt>0</asrwt>
<pdfrwt beam="1">  1        1 0.24810824E+00 0.82648232E+03</pdfrwt>
<pdfrwt beam="2">  1       -1 0.89379429E-01 0.82648232E+03</pdfrwt>
<totfact> 0.69082924E+00</totfact>
</mgrwt>
</event>
<event>
 4    5  0.7767175E-008  0.9146258E+03  0.7818608E-02  0.9502949E-01
          1   -1    0    0  501    0  0.00000000000E+00  0.00000000000E+00  0.73919986567E+03  0.73919986569E+03  0.50400000000E-02 0. -1.
         -1   -1    0    0    0  501 -0.00000000000E+00 -0.00000000000E+00 -0.10607925999E+04  0.10607925999E+04  0.50400000000E-02 0.  1.
    8880023    1    1    2    0    0 -0.32552459589E+03  0.54476042602E+03  0.23254688136E+03  0.94372583020E+03  0.65864270000E+03 0. -1.
    8880022    1    1    2    0    0  0.32552459589E+03 -0.54476042602E+03 -0.55413961554E+03  0.85626663535E+03  0.15294330000E+03 0.  0.
<mgrwt>
<rscale>  0 0.84066761E+03</rscale>
<asrwt>0</asrwt>
<pdfrwt beam="1">  1        1 0.11372306E+00 0.91462582E+03</pdfrwt>
<pdfrwt beam="2">  1       -1 0.16319886E+00 0.91462582E+03</pdfrwt>
<totfact> 0.70082104E+00</totfact>
</mgrwt>
</event>
<event>
 4    5  0.7767175E-008  0.1935743E+04  0.7818608E-02  0.8650946E-01
          1   -1    0    0  501    0  0.00000000000E+00  0.00000000000E+00  0.36003884177E+04  0.36003884177E+04  0.50400000000E-02 0. -1.
         -1   -1    0    0    0  501 -0.00000000000E+00 -0.00000000000E+00 -0.14410003705E+04  0.14410003705E+04  0.50400000000E-02 0.  1.
    8880023    1    1    2    0    0 -0.18199457027E+04 -0.33012286861E+02 -0.31974755582E+03  0.19619737199E+04  0.65864270000E+03 0.  0.
    8880022    1    1    2    0    0  0.18199457027E+04  0.33012286861E+02  0.24791356030E+04  0.30794150683E+04  0.15294330000E+03 0.  0.
<mgrwt>
<rscale>  0 0.19078763E+04</rscale>
<asrwt>0</asrwt>
<pdfrwt beam="1">  1        1 0.55390591E+00 0.19357434E+04</pdfrwt>
<pdfrwt beam="2">  1       -1 0.22169237E+00 0.19357434E+04</pdfrwt>
<totfact> 0.20023345E-02</totfact>
</mgrwt>
</event>
<event>
 4    5  0.7767175E-008  0.7379111E+03  0.7818608E-02  0.9866074E-01
         -1   -1    0    0    0  501 -0.00000000000E+00  0.00000000000E+00  0.46602814915E+03  0.46602814917E+03  0.50400000000E-02 0.  1.
          1   -1    0    0  501    0  0.00000000000E+00 -0.00000000000E+00 -0.13822951526E+04  0.13822951526E+04  0.50400000000E-02 0. -1.
    8880023    1    1    2    0    0  0.30876450069E+03  0.12396383404E+03  0.12149742171E+03  0.74784649413E+03  0.65864270000E+03 0.  1.
    8880022    1    1    2    0    0 -0.30876450069E+03 -0.12396383404E+03 -0.10377644251E+04  0.11004768076E+04  0.15294330000E+03 0.  0.
<mgrwt>
<rscale>  0 0.61934020E+03</rscale>
<asrwt>0</asrwt>
<pdfrwt beam="1">  1        1 0.21266079E+00 0.73791108E+03</pdfrwt>
<pdfrwt beam="2">  1       -1 0.71696639E-01 0.73791108E+03</pdfrwt>
<totfact> 0.16087040E+01</totfact>
</mgrwt>
</event>
<event>
 4    5  0.7767175E-008  0.8000990E+03  0.7818608E-02  0.9710582E-01
         -1   -1    0    0    0  501 -0.00000000000E+00  0.00000000000E+00  0.10741334786E+04  0.10741334786E+04  0.50400000000E-02 0.  1.
          1   -1    0    0  501    0  0.00000000000E+00 -0.00000000000E+00 -0.11135836700E+04  0.11135836700E+04  0.50400000000E-02 0. -1.
    8880023    1    1    2    0    0 -0.49374688600E+01 -0.45422877294E+03  0.85621623766E+03  0.11718637330E+04  0.65864270000E+03 0.  1.
    8880022    1    1    2    0    0  0.49374688600E+01  0.45422877294E+03 -0.89566642909E+03  0.10158534156E+04  0.15294330000E+03 0.  0.
<mgrwt>
<rscale>  0 0.70390219E+03</rscale>
<asrwt>0</asrwt>
<pdfrwt beam="1">  1        1 0.17132057E+00 0.80009897E+03</pdfrwt>
<pdfrwt beam="2">  1       -1 0.16525130E+00 0.80009897E+03</pdfrwt>
<totfact> 0.34086827E+00</totfact>
</mgrwt>
</event>
<event>
 4    5  0.7767175E-008  0.6955809E+03  0.7818608E-02  0.1001605E+00
         -1   -1    0    0    0  501 -0.00000000000E+00  0.00000000000E+00  0.10233120286E+04  0.10233120286E+04  0.50400000000E-02 0.  1.
          1   -1    0    0  501    0  0.00000000000E+00 -0.00000000000E+00 -0.10438524645E+04  0.10438524645E+04  0.50400000000E-02 0. -1.
    8880023    1    1    2    0    0 -0.12342499577E+03  0.18651781194E+03  0.88288971436E+03  0.11239782372E+04  0.65864270000E+03 0.  1.
    8880022    1    1    2    0    0  0.12342499577E+03 -0.18651781194E+03 -0.90343015032E+03  0.94318625587E+03  0.15294330000E+03 0.  0.
<mgrwt>
<rscale>  0 0.54951976E+03</rscale>
<asrwt>0</asrwt>
<pdfrwt beam="1">  1        1 0.16059269E+00 0.69558093E+03</pdfrwt>
<pdfrwt beam="2">  1       -1 0.15743262E+00 0.69558093E+03</pdfrwt>
<totfact> 0.44783374E+00</totfact>
</mgrwt>
</event>
<event>
 4    5  0.7767175E-008  0.1085692E+04  0.7818608E-02  0.9277156E-01
         -1   -1    0    0    0  501 -0.00000000000E+00  0.00000000000E+00  0.85375530300E+03  0.85375530302E+03  0.50400000000E-02 0.  1.
          1   -1    0    0  501    0  0.00000000000E+00 -0.00000000000E+00 -0.17237893687E+04  0.17237893687E+04  0.50400000000E-02 0. -1.
    8880023    1    1    2    0    0 -0.30629447906E+03 -0.80690808909E+03  0.28984180182E+03  0.11237150210E+04  0.65864270000E+03 0.  0.
    8880022    1    1    2    0    0  0.30629447906E+03  0.80690808909E+03 -0.11598758675E+04  0.14538296507E+04  0.15294330000E+03 0.  0.
<mgrwt>
<rscale>  0 0.10291341E+04</rscale>
<asrwt>0</asrwt>
<pdfrwt beam="1">  1        1 0.26519836E+00 0.10856920E+04</pdfrwt>
<pdfrwt beam="2">  1       -1 0.13134697E+00 0.10856920E+04</pdfrwt>
<totfact> 0.22596690E+00</totfact>
</mgrwt>
</event>
<event>
 4    5  0.7767175E-008  0.7248254E+03  0.7818608E-02  0.9906584E-01
          1   -1    0    0  501    0  0.00000000000E+00  0.00000000000E+00  0.19387647927E+04  0.19387647927E+04  0.50400000000E-02 0. -1.
         -1   -1    0    0    0  501 -0.00000000000E+00 -0.00000000000E+00 -0.35443736961E+03  0.35443736964E+03  0.50400000000E-02 0.  1.
    8880023    1    1    2    0    0  0.15947495434E+03 -0.25715634754E+03  0.55184946014E+02  0.72692312707E+03  0.65864270000E+03 0.  1.
    8880022    1    1    2    0    0 -0.15947495434E+03  0.25715634754E+03  0.15291424771E+04  0.15662790353E+04  0.15294330000E+03 0.  0.
<mgrwt>
<rscale>  0 0.59943243E+03</rscale>
<asrwt>0</asrwt>
<pdfrwt beam="1">  1        1 0.29827150E+00 0.72482540E+03</pdfrwt>
<pdfrwt beam="2">  1       -1 0.54528827E-01 0.72482540E+03</pdfrwt>
<totfact> 0.11676015E+01</totfact>
</mgrwt>
</event>
<event>
 4    5  0.7767175E-008  0.1126899E+04  0.7818608E-02  0.9231682E-01
          1   -1    0    0  501    0  0.00000000000E+00  0.00000000000E+00  0.45545437354E+04  0.45545437354E+04  0.50400000000E-02 0. -1.
         -1   -1    0    0    0  501 -0.00000000000E+00 -0.00000000000E+00 -0.32420850127E+03  0.32420850131E+03  0.50400000000E-02 0.  1.
    8880023    1    1    2    0    0  0.83168005628E+03 -0.37999956456E+03  0.96262591836E+03  0.14820763307E+04  0.65864270000E+03 0.  1.
    8880022    1    1    2    0    0 -0.83168005628E+03  0.37999956456E+03  0.32677093158E+04  0.33966759060E+04  0.15294330000E+03 0.  0.
<mgrwt>
<rscale>  0 0.10732316E+04</rscale>
<asrwt>0</asrwt>
<pdfrwt beam="1">  1        1 0.70069898E+00 0.11268991E+04</pdfrwt>
<pdfrwt beam="2">  1       -1 0.49878235E-01 0.11268991E+04</pdfrwt>
<totfact> 0.11964256E-01</totfact>
</mgrwt>
</event>
<event>
 4    5  0.7767175E-008  0.6918948E+03  0.7818608E-02  0.1003265E+00
         -1   -1    0    0    0  501 -0.00000000000E+00  0.00000000000E+00  0.13083355116E+03  0.13083355126E+03  0.50400000000E-02 0.  1.
          1   -1    0    0  501    0  0.00000000000E+00 -0.00000000000E+00 -0.20435410557E+04  0.20435410557E+04  0.50400000000E-02 0. -1.
    8880023    1    1    2    0    0 -0.16225541428E+03  0.13631341089E+03 -0.94008260630E+03  0.11672504780E+04  0.65864270000E+03 0.  1.
    8880022    1    1    2    0    0  0.16225541428E+03 -0.13631341089E+03 -0.97262489822E+03  0.10071241289E+04  0.15294330000E+03 0. -1.
<mgrwt>
<rscale>  0 0.54241598E+03</rscale>
<asrwt>0</asrwt>
<pdfrwt beam="1">  1        1 0.31439091E+00 0.69189477E+03</pdfrwt>
<pdfrwt beam="2">  1       -1 0.20128240E-01 0.69189477E+03</pdfrwt>
<totfact> 0.58597676E+01</totfact>
</mgrwt>
</event>
<event>
 4    5  0.7767175E-008  0.1402377E+04  0.7818608E-02  0.8981838E-01
         -1   -1    0    0    0  501 -0.00000000000E+00  0.00000000000E+00  0.10685591002E+04  0.10685591002E+04  0.50400000000E-02 0.  1.
          1   -1    0    0  501    0  0.00000000000E+00 -0.00000000000E+00 -0.28066389996E+04  0.28066389996E+04  0.50400000000E-02 0. -1.
    8880023    1    1    2    0    0  0.10842549972E+04  0.59769691284E+03  0.34768721406E+03  0.14448346285E+04  0.65864270000E+03 0.  1.
    8880022    1    1    2    0    0 -0.10842549972E+04 -0.59769691284E+03 -0.20857671134E+04  0.24303634714E+04  0.15294330000E+03 0.  0.
<mgrwt>
<rscale>  0 0.13619407E+04</rscale>
<asrwt>0</asrwt>
<pdfrwt beam="1">  1        1 0.43179061E+00 0.14023768E+04</pdfrwt>
<pdfrwt beam="2">  1       -1 0.16439371E+00 0.14023768E+04</pdfrwt>
<totfact> 0.21461703E-01</totfact>
</mgrwt>
</event>
<event>
 4    5  0.7767175E-008  0.8079916E+03  0.7818608E-02  0.9693776E-01
          1   -1    0    0  501    0  0.00000000000E+00  0.00000000000E+00  0.47826553236E+03  0.47826553239E+03  0.50400000000E-02 0. -1.
         -1   -1    0    0    0  501 -0.00000000000E+00 -0.00000000000E+00 -0.15029116032E+04  0.15029116032E+04  0.50400000000E-02 0.  1.
    8880023    1    1    2    0    0  0.80333383441E+02  0.46107134347E+03 -0.12100813618E+04  0.14550420423E+04  0.65864270000E+03 0.  1.
    8880022    1    1    2    0    0 -0.80333383441E+02 -0.46107134347E+03  0.18543529099E+03  0.52613509333E+03  0.15294330000E+03 0.  0.
<mgrwt>
<rscale>  0 0.71388599E+03</rscale>
<asrwt>0</asrwt>
<pdfrwt beam="1">  1        1 0.73579313E-01 0.80799161E+03</pdfrwt>
<pdfrwt beam="2">  1       -1 0.23121717E+00 0.80799161E+03</pdfrwt>
<totfact> 0.44983247E+00</totfact>
</mgrwt>
</event>
<event>
 4    5  0.7767175E-008  0.9716191E+03  0.7818608E-02  0.9419668E-01
          1   -1    0    0  501    0  0.00000000000E+00  0.00000000000E+00  0.24626801481E+04  0.24626801481E+04  0.50400000000E-02 0. -1.
         -1   -1    0    0    0  501 -0.00000000000E+00 -0.00000000000E+00 -0.86580291642E+03  0.86580291643E+03  0.50400000000E-02 0.  1.
    8880023    1    1    2    0    0 -0.67502412866E+03  0.23361503163E+03 -0.51086895570E+03  0.10977389733E+04  0.65864270000E+03 0.  0.
    8880022    1    1    2    0    0  0.67502412866E+03 -0.23361503163E+03  0.21077461873E+04  0.22307440912E+04  0.15294330000E+03 0.  0.
<mgrwt>
<rscale>  0 0.90474583E+03</rscale>
<asrwt>0</asrwt>
<pdfrwt beam="1">  1        1 0.37887387E+00 0.97161915E+03</pdfrwt>
<pdfrwt beam="2">  1       -1 0.13320045E+00 0.97161915E+03</pdfrwt>
<totfact> 0.70110766E-01</totfact>
</mgrwt>
</event>
<event>
 4    5  0.7767175E-008  0.1043894E+04  0.7818608E-02  0.9326258E-01
         -1   -1    0    0    0  501 -0.00000000000E+00  0.00000000000E+00  0.53190491605E+03  0.53190491607E+03  0.50400000000E-02 0.  1.
          1   -1    0    0  501    0  0.00000000000E+00 -0.00000000000E+00 -0.21015685822E+04  0.21015685822E+04  0.50400000000E-02 0. -1.
    8880023    1    1    2    0    0 -0.44809811581E+03  0.67462009963E+03 -0.24326747186E+03  0.10718644827E+04  0.65864270000E+03 0.  1.
    8880022    1    1    2    0    0  0.44809811581E+03 -0.67462009963E+03 -0.13263961943E+04  0.15616090156E+04  0.15294330000E+03 0.  0.
<mgrwt>
<rscale>  0 0.98401027E+03</rscale>
<asrwt>0</asrwt>
<pdfrwt beam="1">  1        1 0.32331824E+00 0.10438939E+04</pdfrwt>
<pdfrwt beam="2">  1       -1 0.81831527E-01 0.10438939E+04</pdfrwt>
<totfact> 0.38040049E+00</totfact>
</mgrwt>
</event>
<event>
 4    5  0.7767175E-008  0.8264693E+03  0.7818608E-02  0.9656241E-01
          1   -1    0    0  501    0  0.00000000000E+00  0.00000000000E+00  0.19503909906E+04  0.19503909906E+04  0.50400000000E-02 0. -1.
         -1   -1    0    0    0  501 -0.00000000000E+00 -0.00000000000E+00 -0.29554262032E+03  0.29554262036E+03  0.50400000000E-02 0.  1.
    8880023    1    1    2    0    0 -0.48585014042E+03  0.11485207111E+03  0.46911393449E+03  0.95032596880E+03  0.65864270000E+03 0.  0.
    8880022    1    1    2    0    0  0.48585014042E+03 -0.11485207111E+03  0.11857344358E+04  0.12956076422E+04  0.15294330000E+03 0.  0.
<mgrwt>
<rscale>  0 0.73683011E+03</rscale>
<asrwt>0</asrwt>
<pdfrwt beam="1">  1        1 0.30006014E+00 0.82646934E+03</pdfrwt>
<pdfrwt beam="2">  1       -1 0.45468097E-01 0.82646934E+03</pdfrwt>
<totfact> 0.15947315E+01</totfact>
</mgrwt>
</event>
<event>
 4    5  0.7767175E-008  0.1282072E+04  0.7818608E-02  0.9081198E-01
         -1   -1    0    0    0  501 -0.00000000000E+00  0.00000000000E+00  0.52785272116E+03  0.52785272119E+03  0.50400000000E-02 0.  1.
          1   -1    0    0  501    0  0.00000000000E+00 -0.00000000000E+00 -0.32779494269E+04  0.32779494269E+04  0.50400000000E-02 0. -1.
    8880023    1    1    2    0    0  0.91742809571E+03  0.60681568924E+03 -0.22461091374E+04  0.25862552185E+04  0.65864270000E+03 0. -1.
    8880022    1    1    2    0    0 -0.91742809571E+03 -0.60681568924E+03 -0.50398756828E+03  0.12195469296E+04  0.15294330000E+03 0.  0.
<mgrwt>
<rscale>  0 0.12368517E+04</rscale>
<asrwt>0</asrwt>
<pdfrwt beam="1">  1        1 0.50429990E+00 0.12820725E+04</pdfrwt>
<pdfrwt beam="2">  1       -1 0.81208113E-01 0.12820725E+04</pdfrwt>
<totfact> 0.55551188E-01</totfact>
</mgrwt>
</event>
<event>
 4    5  0.7767175E-008  0.1122296E+04  0.7818608E-02  0.9236629E-01
         -1   -1    0    0    0  501 -0.00000000000E+00  0.00000000000E+00  0.98815626838E+03  0.98815626839E+03  0.50400000000E-02 0.  1.
          1   -1    0    0  501    0  0.00000000000E+00 -0.00000000000E+00 -0.17104259119E+04  0.17104259119E+04  0.50400000000E-02 0. -1.
    8880023    1    1    2    0    0 -0.60906937508E+03  0.67436910077E+03  0.44856662257E+03  0.12086196295E+04  0.65864270000E+03 0.  1.
    8880022    1    1    2    0    0  0.60906937508E+03 -0.67436910077E+03 -0.11708362661E+04  0.14899625508E+04  0.15294330000E+03 0.  0.
<mgrwt>
<rscale>  0 0.10683229E+04</rscale>
<asrwt>0</asrwt>
<pdfrwt beam="1">  1        1 0.26314245E+00 0.11222965E+04</pdfrwt>
<pdfrwt beam="2">  1       -1 0.15202404E+00 0.11222965E+04</pdfrwt>
<totfact> 0.15632092E+00</totfact>
</mgrwt>
</event>
<event>
 4    5  0.7767175E-008  0.1035813E+04  0.7818608E-02  0.9336133E-01
         -1   -1    0    0    0  501 -0.00000000000E+00  0.00000000000E+00  0.11875592032E+04  0.11875592032E+04  0.50400000000E-02 0.  1.
          1   -1    0    0  501    0  0.00000000000E+00 -0.00000000000E+00 -0.17502017192E+04  0.17502017192E+04  0.50400000000E-02 0. -1.
    8880023    1    1    2    0    0 -0.72534852656E+03 -0.33610801719E+03  0.82823607912E+03  0.13262293517E+04  0.65864270000E+03 0.  1.
    8880022    1    1    2    0    0  0.72534852656E+03  0.33610801719E+03 -0.13908785951E+04  0.16115315707E+04  0.15294330000E+03 0.  0.
<mgrwt>
<rscale>  0 0.97523348E+03</rscale>
<asrwt>0</asrwt>
<pdfrwt beam="1">  1        1 0.26926180E+00 0.10358133E+04</pdfrwt>
<pdfrwt beam="2">  1       -1 0.18270141E+00 0.10358133E+04</pdfrwt>
<totfact> 0.87958171E-01</totfact>
</mgrwt>
</event>
<event>
 4    5  0.7767175E-008  0.7849948E+03  0.7818608E-02  0.9744232E-01
         -1   -1    0    0    0  501 -0.00000000000E+00  0.00000000000E+00  0.39092959441E+03  0.39092959444E+03  0.50400000000E-02 0.  1.
          1   -1    0    0  501    0  0.00000000000E+00 -0.00000000000E+00 -0.11506153263E+04  0.11506153264E+04  0.50400000000E-02 0. -1.
    8880023    1    1    2    0    0  0.39827180112E+03  0.15422787685E+03 -0.17985158130E+03  0.80533437970E+03  0.65864270000E+03 0.  1.
    8880022    1    1    2    0    0 -0.39827180112E+03 -0.15422787685E+03 -0.57983415064E+03  0.73621054110E+03  0.15294330000E+03 0.  0.
<mgrwt>
<rscale>  0 0.68443202E+03</rscale>
<asrwt>0</asrwt>
<pdfrwt beam="1">  1        1 0.17701774E+00 0.78499482E+03</pdfrwt>
<pdfrwt beam="2">  1       -1 0.60143015E-01 0.78499482E+03</pdfrwt>
<totfact> 0.33350586E+01</totfact>
</mgrwt>
</event>
<event>
 4    5  0.7767175E-008  0.7376810E+03  0.7818608E-02  0.9866754E-01
         -1   -1    0    0    0  501 -0.00000000000E+00  0.00000000000E+00  0.38154730538E+03  0.38154730542E+03  0.50400000000E-02 0.  1.
          1   -1    0    0  501    0  0.00000000000E+00 -0.00000000000E+00 -0.19136513417E+04  0.19136513418E+04  0.50400000000E-02 0. -1.
    8880023    1    1    2    0    0  0.33181957006E+03  0.16089802289E+02 -0.18368890847E+02  0.73790970398E+03  0.65864270000E+03 0.  1.
    8880022    1    1    2    0    0 -0.33181957006E+03 -0.16089802289E+02 -0.15137351455E+04  0.15572889432E+04  0.15294330000E+03 0.  0.
<mgrwt>
<rscale>  0 0.61899925E+03</rscale>
<asrwt>0</asrwt>
<pdfrwt beam="1">  1        1 0.29440789E+00 0.73768104E+03</pdfrwt>
<pdfrwt beam="2">  1       -1 0.58699587E-01 0.73768104E+03</pdfrwt>
<totfact> 0.10495381E+01</totfact>
</mgrwt>
</event>
<event>
 4    5  0.7767175E-008  0.9434735E+03  0.7818608E-02  0.9459567E-01
          1   -1    0    0  501    0  0.00000000000E+00  0.00000000000E+00  0.60388201276E+03  0.60388201278E+03  0.50400000000E-02 0. -1.
         -1   -1    0    0    0  501 -0.00000000000E+00 -0.00000000000E+00 -0.13695526980E+04  0.13695526980E+04  0.50400000000E-02 0.  1.
    8880023    1    1    2    0    0 -0.63424960014E+03  0.23250714687E+03 -0.85727854320E+03  0.12747818776E+04  0.65864270000E+03 0.  0.
    8880022    1    1    2    0    0  0.63424960014E+03 -0.23250714687E+03  0.91607857964E+02  0.69865283316E+03  0.15294330000E+03 0.  0.
<mgrwt>
<rscale>  0 0.87331557E+03</rscale>
<asrwt>0</asrwt>
<pdfrwt beam="1">  1        1 0.92904926E-01 0.94347355E+03</pdfrwt>
<pdfrwt beam="2">  1       -1 0.21070041E+00 0.94347355E+03</pdfrwt>
<totfact> 0.43636879E+00</totfact>
</mgrwt>
</event>
<event>
 4    5  0.7767175E-008  0.9318884E+03  0.7818608E-02  0.9476666E-01
         -1   -1    0    0    0  501 -0.00000000000E+00  0.00000000000E+00  0.12397357171E+04  0.12397357171E+04  0.50400000000E-02 0.  1.
          1   -1    0    0  501    0  0.00000000000E+00 -0.00000000000E+00 -0.68015645141E+03  0.68015645143E+03  0.50400000000E-02 0. -1.
    8880023    1    1    2    0    0 -0.37249363849E+03 -0.54392495748E+03  0.77248897338E+03  0.12104359918E+04  0.65864270000E+03 0.  0.
    8880022    1    1    2    0    0  0.37249363849E+03  0.54392495748E+03 -0.21290970766E+03  0.70945617674E+03  0.15294330000E+03 0.  0.
<mgrwt>
<rscale>  0 0.86026219E+03</rscale>
<asrwt>0</asrwt>
<pdfrwt beam="1">  1        1 0.10463945E+00 0.93188845E+03</pdfrwt>
<pdfrwt beam="2">  1       -1 0.19072857E+00 0.93188845E+03</pdfrwt>
<totfact> 0.50262146E+00</totfact>
</mgrwt>
</event>
<event>
 4    5  0.7767175E-008  0.1035149E+04  0.7818608E-02  0.9336951E-01
          1   -1    0    0  501    0  0.00000000000E+00  0.00000000000E+00  0.17070013544E+04  0.17070013545E+04  0.50400000000E-02 0. -1.
         -1   -1    0    0    0  501 -0.00000000000E+00 -0.00000000000E+00 -0.98068380087E+03  0.98068380089E+03  0.50400000000E-02 0.  1.
    8880023    1    1    2    0    0 -0.26188176256E+03 -0.75441439262E+03 -0.55166404485E+03  0.11729733833E+04  0.65864270000E+03 0.  1.
    8880022    1    1    2    0    0  0.26188176256E+03  0.75441439262E+03  0.12779815984E+04  0.15147117720E+04  0.15294330000E+03 0.  0.
<mgrwt>
<rscale>  0 0.97451099E+03</rscale>
<asrwt>0</asrwt>
<pdfrwt beam="1">  1        1 0.26261559E+00 0.10351489E+04</pdfrwt>
<pdfrwt beam="2">  1       -1 0.15087443E+00 0.10351489E+04</pdfrwt>
<totfact> 0.16230592E+00</totfact>
</mgrwt>
</event>
<event>
 4    5  0.7767175E-008  0.8624388E+03  0.7818608E-02  0.9589240E-01
         -1   -1    0    0    0  501 -0.00000000000E+00  0.00000000000E+00  0.14233110087E+04  0.14233110087E+04  0.50400000000E-02 0.  1.
          1   -1    0    0  501    0  0.00000000000E+00 -0.00000000000E+00 -0.10414921452E+04  0.10414921452E+04  0.50400000000E-02 0. -1.
    8880023    1    1    2    0    0  0.55394688169E+03  0.55976470770E+02  0.11911679525E+04  0.14706059331E+04  0.65864270000E+03 0.  1.
    8880022    1    1    2    0    0 -0.55394688169E+03 -0.55976470770E+02 -0.80934908898E+03  0.99419722081E+03  0.15294330000E+03 0.  0.
<mgrwt>
<rscale>  0 0.78012468E+03</rscale>
<asrwt>0</asrwt>
<pdfrwt beam="1">  1        1 0.16022956E+00 0.86243882E+03</pdfrwt>
<pdfrwt beam="2">  1       -1 0.21897092E+00 0.86243882E+03</pdfrwt>
<totfact> 0.16121867E+00</totfact>
</mgrwt>
</event>
<event>
 4    5  0.7767175E-008  0.6780009E+03  0.7818608E-02  0.1010478E+00
          1   -1    0    0  501    0  0.00000000000E+00  0.00000000000E+00  0.11783133189E+04  0.11783133189E+04  0.50400000000E-02 0. -1.
         -1   -1    0    0    0  501 -0.00000000000E+00 -0.00000000000E+00 -0.85171344082E+03  0.85171344084E+03  0.50400000000E-02 0.  1.
    8880023    1    1    2    0    0 -0.13442347958E+03  0.88348229177E+02 -0.70305790182E+03  0.97671679674E+03  0.65864270000E+03 0.  0.
    8880022    1    1    2    0    0  0.13442347958E+03 -0.88348229177E+02  0.10296577799E+04  0.10533099630E+04  0.15294330000E+03 0. -1.
<mgrwt>
<rscale>  0 0.51285188E+03</rscale>
<asrwt>0</asrwt>
<pdfrwt beam="1">  1        1 0.18127897E+00 0.67800095E+03</pdfrwt>
<pdfrwt beam="2">  1       -1 0.13103284E+00 0.67800095E+03</pdfrwt>
<totfact> 0.57837977E+00</totfact>
</mgrwt>
</event>
<event>
 4    5  0.7767175E-008  0.7616122E+03  0.7818608E-02  0.9800951E-01
          1   -1    0    0  501    0  0.00000000000E+00  0.00000000000E+00  0.35567722991E+04  0.35567722991E+04  0.50400000000E-02 0. -1.
         -1   -1    0    0    0  501 -0.00000000000E+00 -0.00000000000E+00 -0.15214630176E+03  0.15214630185E+03  0.50400000000E-02 0.  1.
    8880023    1    1    2    0    0 -0.23710114032E+03 -0.30004325953E+03  0.93856674831E+03  0.12087020541E+04  0.65864270000E+03 0.  0.
    8880022    1    1    2    0    0  0.23710114032E+03  0.30004325953E+03  0.24660592490E+04  0.25002165468E+04  0.15294330000E+03 0.  0.
<mgrwt>
<rscale>  0 0.65311507E+03</rscale>
<asrwt>0</asrwt>
<pdfrwt beam="1">  1        1 0.54719572E+00 0.76161218E+03</pdfrwt>
<pdfrwt beam="2">  1       -1 0.23407124E-01 0.76161218E+03</pdfrwt>
<totfact> 0.38121995E+00</totfact>
</mgrwt>
</event>
<event>
 4    5  0.7767175E-008  0.1153450E+04  0.7818608E-02  0.9203756E-01
          1   -1    0    0  501    0  0.00000000000E+00  0.00000000000E+00  0.42302422050E+04  0.42302422050E+04  0.50400000000E-02 0. -1.
         -1   -1    0    0    0  501 -0.00000000000E+00 -0.00000000000E+00 -0.31733772867E+03  0.31733772871E+03  0.50400000000E-02 0.  1.
    8880023    1    1    2    0    0  0.94151795605E+03 -0.10090030648E+03  0.11750586751E+04  0.16465752426E+04  0.65864270000E+03 0.  0.
    8880022    1    1    2    0    0 -0.94151795605E+03  0.10090030648E+03  0.27378458012E+04  0.29010046911E+04  0.15294330000E+03 0.  0.
<mgrwt>
<rscale>  0 0.11014741E+04</rscale>
<asrwt>0</asrwt>
<pdfrwt beam="1">  1        1 0.65080646E+00 0.11534501E+04</pdfrwt>
<pdfrwt beam="2">  1       -1 0.48821191E-01 0.11534501E+04</pdfrwt>
<totfact> 0.25726102E-01</totfact>
</mgrwt>
</event>
<event>
 4    5  0.7767175E-008  0.1185450E+04  0.7818608E-02  0.9171397E-01
         -1   -1    0    0    0  501 -0.00000000000E+00  0.00000000000E+00  0.14969362924E+04  0.14969362924E+04  0.50400000000E-02 0.  1.
          1   -1    0    0  501    0  0.00000000000E+00 -0.00000000000E+00 -0.10054513687E+04  0.10054513687E+04  0.50400000000E-02 0. -1.
    8880023    1    1    2    0    0 -0.12331948397E+03  0.97789284020E+03  0.83216789089E+03  0.14483769216E+04  0.65864270000E+03 0.  0.
    8880022    1    1    2    0    0  0.12331948397E+03 -0.97789284020E+03 -0.34068296719E+03  0.10540107396E+04  0.15294330000E+03 0.  0.
<mgrwt>
<rscale>  0 0.11353598E+04</rscale>
<asrwt>0</asrwt>
<pdfrwt beam="1">  1        1 0.15468483E+00 0.11854503E+04</pdfrwt>
<pdfrwt beam="2">  1       -1 0.23029789E+00 0.11854503E+04</pdfrwt>
<totfact> 0.13841360E+00</totfact>
</mgrwt>
</event>
<event>
 4    5  0.7767175E-008  0.1013289E+04  0.7818608E-02  0.9364374E-01
          1   -1    0    0  501    0  0.00000000000E+00  0.00000000000E+00  0.12667832933E+04  0.12667832933E+04  0.50400000000E-02 0. -1.
         -1   -1    0    0    0  501 -0.00000000000E+00 -0.00000000000E+00 -0.11190522751E+04  0.11190522751E+04  0.50400000000E-02 0.  1.
    8880023    1    1    2    0    0  0.30337015727E+03 -0.70775133468E+03 -0.69911940733E+03  0.12310660242E+04  0.65864270000E+03 0.  0.
    8880022    1    1    2    0    0 -0.30337015727E+03  0.70775133468E+03  0.84685042546E+03  0.11547695442E+04  0.15294330000E+03 0.  0.
<mgrwt>
<rscale>  0 0.95066486E+03</rscale>
<asrwt>0</asrwt>
<pdfrwt beam="1">  1        1 0.19488974E+00 0.10132895E+04</pdfrwt>
<pdfrwt beam="2">  1       -1 0.17216189E+00 0.10132895E+04</pdfrwt>
<totfact> 0.22728253E+00</totfact>
</mgrwt>
</event>
<event>
 4    5  0.7767175E-008  0.1361212E+04  0.7818608E-02  0.9014424E-01
          1   -1    0    0  501    0  0.00000000000E+00  0.00000000000E+00  0.26536137099E+04  0.26536137099E+04  0.50400000000E-02 0. -1.
         -1   -1    0    0    0  501 -0.00000000000E+00 -0.00000000000E+00 -0.84247549821E+03  0.84247549823E+03  0.50400000000E-02 0.  1.
    8880023    1    1    2    0    0  0.29680551714E+03  0.11536868601E+04  0.47125037410E+02  0.13620271148E+04  0.65864270000E+03 0.  0.
    8880022    1    1    2    0    0 -0.29680551714E+03 -0.11536868601E+04  0.17640131743E+04  0.21340620933E+04  0.15294330000E+03 0.  0.
<mgrwt>
<rscale>  0 0.13192676E+04</rscale>
<asrwt>0</asrwt>
<pdfrwt beam="1">  1        1 0.40824827E+00 0.13612116E+04</pdfrwt>
<pdfrwt beam="2">  1       -1 0.12961161E+00 0.13612116E+04</pdfrwt>
<totfact> 0.52374949E-01</totfact>
</mgrwt>
</event>
<event>
 4    5  0.7767175E-008  0.8252567E+03  0.7818608E-02  0.9658633E-01
         -1   -1    0    0    0  501 -0.00000000000E+00  0.00000000000E+00  0.25594090981E+04  0.25594090981E+04  0.50400000000E-02 0.  1.
          1   -1    0    0  501    0  0.00000000000E+00 -0.00000000000E+00 -0.14742021838E+04  0.14742021838E+04  0.50400000000E-02 0. -1.
    8880023    1    1    2    0    0 -0.47145270825E+03 -0.15802158467E+03  0.24435039809E+04  0.25791006937E+04  0.65864270000E+03 0.  1.
    8880022    1    1    2    0    0  0.47145270825E+03  0.15802158467E+03 -0.13582970665E+04  0.14545105882E+04  0.15294330000E+03 0.  0.
<mgrwt>
<rscale>  0 0.73534108E+03</rscale>
<asrwt>0</asrwt>
<pdfrwt beam="1">  1        1 0.22680034E+00 0.82525674E+03</pdfrwt>
<pdfrwt beam="2">  1       -1 0.39375524E+00 0.82525674E+03</pdfrwt>
<totfact> 0.57556607E-02</totfact>
</mgrwt>
</event>
<event>
 4    5  0.7767175E-008  0.6990347E+03  0.7818608E-02  0.1000123E+00
         -1   -1    0    0    0  501 -0.00000000000E+00  0.00000000000E+00  0.77121859398E+03  0.77121859400E+03  0.50400000000E-02 0.  1.
          1   -1    0    0  501    0  0.00000000000E+00 -0.00000000000E+00 -0.10468147765E+04  0.10468147765E+04  0.50400000000E-02 0. -1.
    8880023    1    1    2    0    0 -0.13208743749E+03 -0.19337075544E+03  0.58600622573E+03  0.91216930614E+03  0.65864270000E+03 0.  1.
    8880022    1    1    2    0    0  0.13208743749E+03  0.19337075544E+03 -0.86160240829E+03  0.90586406440E+03  0.15294330000E+03 0.  0.
<mgrwt>
<rscale>  0 0.55596368E+03</rscale>
<asrwt>0</asrwt>
<pdfrwt beam="1">  1        1 0.16104843E+00 0.69903472E+03</pdfrwt>
<pdfrwt beam="2">  1       -1 0.11864901E+00 0.69903472E+03</pdfrwt>
<totfact> 0.92233061E+00</totfact>
</mgrwt>
</event>
<event>
 4    5  0.7767175E-008  0.7124255E+03  0.7818608E-02  0.9949102E-01
         -1   -1    0    0    0  501 -0.00000000000E+00  0.00000000000E+00  0.18064043764E+04  0.18064043764E+04  0.50400000000E-02 0.  1.
          1   -1    0    0  501    0  0.00000000000E+00 -0.00000000000E+00 -0.61387161078E+03  0.61387161080E+03  0.50400000000E-02 0. -1.
    8880023    1    1    2    0    0 -0.26783166837E+03  0.44789184130E+02  0.16895587486E+04  0.18336190566E+04  0.65864270000E+03 0.  1.
    8880022    1    1    2    0    0  0.26783166837E+03 -0.44789184130E+02 -0.49702598290E+03  0.58665693065E+03  0.15294330000E+03 0.  0.
<mgrwt>
<rscale>  0 0.57939483E+03</rscale>
<asrwt>0</asrwt>
<pdfrwt beam="1">  1        1 0.94441788E-01 0.71242549E+03</pdfrwt>
<pdfrwt beam="2">  1       -1 0.27790836E+00 0.71242549E+03</pdfrwt>
<totfact> 0.16089354E+00</totfact>
</mgrwt>
</event>
<event>
 4    5  0.7767175E-008  0.8501171E+03  0.7818608E-02  0.9611391E-01
         -1   -1    0    0    0  501 -0.00000000000E+00  0.00000000000E+00  0.33497298826E+03  0.33497298830E+03  0.50400000000E-02 0.  1.
          1   -1    0    0  501    0  0.00000000000E+00 -0.00000000000E+00 -0.15653971838E+04  0.15653971838E+04  0.50400000000E-02 0. -1.
    8880023    1    1    2    0    0  0.53034681371E+03  0.87298736911E+02 -0.52016845098E+03  0.99663144438E+03  0.65864270000E+03 0.  0.
    8880022    1    1    2    0    0 -0.53034681371E+03 -0.87298736911E+02 -0.71025574454E+03  0.90373872770E+03  0.15294330000E+03 0.  0.
<mgrwt>
<rscale>  0 0.76546820E+03</rscale>
<asrwt>0</asrwt>
<pdfrwt beam="1">  1        1 0.24083033E+00 0.85011706E+03</pdfrwt>
<pdfrwt beam="2">  1       -1 0.51534307E-01 0.85011706E+03</pdfrwt>
<totfact> 0.22821752E+01</totfact>
</mgrwt>
</event>
<event>
 4    5  0.7767175E-008  0.1112934E+04  0.7818608E-02  0.9246791E-01
          1   -1    0    0  501    0  0.00000000000E+00  0.00000000000E+00  0.10672138898E+04  0.10672138898E+04  0.50400000000E-02 0. -1.
         -1   -1    0    0    0  501 -0.00000000000E+00 -0.00000000000E+00 -0.15321837055E+04  0.15321837055E+04  0.50400000000E-02 0.  1.
    8880023    1    1    2    0    0  0.69857436763E+03  0.56285449039E+03 -0.10397250178E+04  0.15230396067E+04  0.65864270000E+03 0.  0.
    8880022    1    1    2    0    0 -0.69857436763E+03 -0.56285449039E+03  0.57475520214E+03  0.10763579887E+04  0.15294330000E+03 0.  0.
<mgrwt>
<rscale>  0 0.10583251E+04</rscale>
<asrwt>0</asrwt>
<pdfrwt beam="1">  1        1 0.16418675E+00 0.11129337E+04</pdfrwt>
<pdfrwt beam="2">  1       -1 0.23572057E+00 0.11129337E+04</pdfrwt>
<totfact> 0.11520257E+00</totfact>
</mgrwt>
</event>
<event>
 4    5  0.7767175E-008  0.7228158E+03  0.7818608E-02  0.9913171E-01
         -1   -1    0    0    0  501 -0.00000000000E+00  0.00000000000E+00  0.80369428546E+03  0.80369428547E+03  0.50400000000E-02 0.  1.
          1   -1    0    0  501    0  0.00000000000E+00 -0.00000000000E+00 -0.72182698953E+03  0.72182698954E+03  0.50400000000E-02 0. -1.
    8880023    1    1    2    0    0  0.29586712222E+03 -0.33394106410E+02  0.57905347428E+03  0.92615638674E+03  0.65864270000E+03 0.  1.
    8880022    1    1    2    0    0 -0.29586712222E+03  0.33394106410E+02 -0.49718617835E+03  0.59936488828E+03  0.15294330000E+03 0.  0.
<mgrwt>
<rscale>  0 0.59627198E+03</rscale>
<asrwt>0</asrwt>
<pdfrwt beam="1">  1        1 0.11105031E+00 0.72281583E+03</pdfrwt>
<pdfrwt beam="2">  1       -1 0.12364527E+00 0.72281583E+03</pdfrwt>
<totfact> 0.15420629E+01</totfact>
</mgrwt>
</event>
<event>
 4    5  0.7767175E-008  0.1120281E+04  0.7818608E-02  0.9238805E-01
          1   -1    0    0  501    0  0.00000000000E+00  0.00000000000E+00  0.19660787160E+04  0.19660787160E+04  0.50400000000E-02 0. -1.
         -1   -1    0    0    0  501 -0.00000000000E+00 -0.00000000000E+00 -0.81844999929E+03  0.81844999931E+03  0.50400000000E-02 0.  1.
    8880023    1    1    2    0    0 -0.87621049441E+03 -0.23124479596E+03 -0.21521582899E+03  0.11407659907E+04  0.65864270000E+03 0.  1.
    8880022    1    1    2    0    0  0.87621049441E+03  0.23124479596E+03  0.13628445457E+04  0.16437627246E+04  0.15294330000E+03 0.  0.
<mgrwt>
<rscale>  0 0.10661720E+04</rscale>
<asrwt>0</asrwt>
<pdfrwt beam="1">  1        1 0.30247365E+00 0.11202809E+04</pdfrwt>
<pdfrwt beam="2">  1       -1 0.12591539E+00 0.11202809E+04</pdfrwt>
<totfact> 0.17162366E+00</totfact>
</mgrwt>
</event>
<event>
 4    5  0.7767175E-008  0.6658368E+03  0.7818608E-02  0.1018841E+00
         -1   -1    0    0    0  501 -0.00000000000E+00  0.00000000000E+00  0.47157581836E+03  0.47157581838E+03  0.50400000000E-02 0.  1.
          1   -1    0    0  501    0  0.00000000000E+00 -0.00000000000E+00 -0.73786082411E+03  0.73786082412E+03  0.50400000000E-02 0. -1.
    8880023    1    1    2    0    0  0.77377905068E+02  0.59507271962E+02  0.21128987039E+03  0.69855713524E+03  0.65864270000E+03 0.  1.
    8880022    1    1    2    0    0 -0.77377905068E+02 -0.59507271962E+02 -0.47757487614E+03  0.51087950726E+03  0.15294330000E+03 0.  0.
<mgrwt>
<rscale>  0 0.48107026E+03</rscale>
<asrwt>0</asrwt>
<pdfrwt beam="1">  1        1 0.11351705E+00 0.66583681E+03</pdfrwt>
<pdfrwt beam="2">  1       -1 0.72550126E-01 0.66583681E+03</pdfrwt>
<totfact> 0.49632044E+01</totfact>
</mgrwt>
</event>
<event>
 4    5  0.7767175E-008  0.9427569E+03  0.7818608E-02  0.9460613E-01
          1   -1    0    0  501    0  0.00000000000E+00  0.00000000000E+00  0.10416815999E+04  0.10416815999E+04  0.50400000000E-02 0. -1.
         -1   -1    0    0    0  501 -0.00000000000E+00 -0.00000000000E+00 -0.10535895390E+04  0.10535895390E+04  0.50400000000E-02 0.  1.
    8880023    1    1    2    0    0  0.56599241552E+03 -0.36692373434E+03 -0.65730208090E+03  0.11492765868E+04  0.65864270000E+03 0.  0.
    8880022    1    1    2    0    0 -0.56599241552E+03  0.36692373434E+03  0.64539414182E+03  0.94599455208E+03  0.15294330000E+03 0.  0.
<mgrwt>
<rscale>  0 0.87251024E+03</rscale>
<asrwt>0</asrwt>
<pdfrwt beam="1">  1        1 0.16025871E+00 0.94275694E+03</pdfrwt>
<pdfrwt beam="2">  1       -1 0.16209070E+00 0.94275694E+03</pdfrwt>
<totfact> 0.39974468E+00</totfact>
</mgrwt>
</event>
<event>
 4    5  0.7767175E-008  0.9908761E+03  0.7818608E-02  0.9393593E-01
         -1   -1    0    0    0  501 -0.00000000000E+00  0.00000000000E+00  0.10958710638E+04  0.10958710638E+04  0.50400000000E-02 0.  1.
          1   -1    0    0  501    0  0.00000000000E+00 -0.00000000000E+00 -0.10148913803E+04  0.10148913803E+04  0.50400000000E-02 0. -1.
    8880023    1    1    2    0    0  0.63141149387E+02 -0.73758964794E+03  0.63205020121E+03  0.11752969653E+04  0.65864270000E+03 0.  0.
    8880022    1    1    2    0    0 -0.63141149387E+02  0.73758964794E+03 -0.55107051775E+03  0.93546547880E+03  0.15294330000E+03 0.  0.
<mgrwt>
<rscale>  0 0.92604835E+03</rscale>
<asrwt>0</asrwt>
<pdfrwt beam="1">  1        1 0.15613714E+00 0.99087613E+03</pdfrwt>
<pdfrwt beam="2">  1       -1 0.16859555E+00 0.99087613E+03</pdfrwt>
<totfact> 0.37277086E+00</totfact>
</mgrwt>
</event>
<event>
 4    5  0.7767175E-008  0.7505651E+03  0.7818608E-02  0.9830176E-01
          1   -1    0    0  501    0  0.00000000000E+00  0.00000000000E+00  0.26783740461E+04  0.26783740461E+04  0.50400000000E-02 0. -1.
         -1   -1    0    0    0  501 -0.00000000000E+00 -0.00000000000E+00 -0.17589289916E+03  0.17589289924E+03  0.50400000000E-02 0.  1.
    8880023    1    1    2    0    0 -0.11879580984E+03  0.33974306615E+03  0.75890153378E+03  0.10673703854E+04  0.65864270000E+03 0.  0.
    8880022    1    1    2    0    0  0.11879580984E+03 -0.33974306615E+03  0.17435796131E+04  0.17868965599E+04  0.15294330000E+03 0.  0.
<mgrwt>
<rscale>  0 0.63767982E+03</rscale>
<asrwt>0</asrwt>
<pdfrwt beam="1">  1        1 0.41205750E+00 0.75056512E+03</pdfrwt>
<pdfrwt beam="2">  1       -1 0.27060449E-01 0.75056512E+03</pdfrwt>
<totfact> 0.13087928E+01</totfact>
</mgrwt>
</event>
<event>
 4    5  0.7767175E-008  0.8108708E+03  0.7818608E-02  0.9687766E-01
          1   -1    0    0  501    0  0.00000000000E+00  0.00000000000E+00  0.15073669274E+04  0.15073669274E+04  0.50400000000E-02 0. -1.
         -1   -1    0    0    0  501 -0.00000000000E+00 -0.00000000000E+00 -0.70611136192E+03  0.70611136194E+03  0.50400000000E-02 0.  1.
    8880023    1    1    2    0    0  0.38180122989E+03 -0.27915789475E+03 -0.40676990663E+03  0.90717874344E+03  0.65864270000E+03 0.  0.
    8880022    1    1    2    0    0 -0.38180122989E+03  0.27915789475E+03  0.12080254721E+04  0.13062995459E+04  0.15294330000E+03 0.  0.
<mgrwt>
<rscale>  0 0.71749901E+03</rscale>
<asrwt>0</asrwt>
<pdfrwt beam="1">  1        1 0.23190260E+00 0.81087084E+03</pdfrwt>
<pdfrwt beam="2">  1       -1 0.10863252E+00 0.81087084E+03</pdfrwt>
<totfact> 0.52436412E+00</totfact>
</mgrwt>
</event>
<event>
 4    5  0.7767175E-008  0.9594251E+03  0.7818608E-02  0.9436681E-01
          1   -1    0    0  501    0  0.00000000000E+00  0.00000000000E+00  0.11385211198E+04  0.11385211198E+04  0.50400000000E-02 0. -1.
         -1   -1    0    0    0  501 -0.00000000000E+00 -0.00000000000E+00 -0.66722039497E+03  0.66722039499E+03  0.50400000000E-02 0.  1.
    8880023    1    1    2    0    0  0.45526919404E+03 -0.52859844794E+03  0.17536239069E+02  0.95958537096E+03  0.65864270000E+03 0. -1.
    8880022    1    1    2    0    0 -0.45526919404E+03  0.52859844794E+03  0.45376448575E+03  0.84615614384E+03  0.15294330000E+03 0.  0.
<mgrwt>
<rscale>  0 0.89117478E+03</rscale>
<asrwt>0</asrwt>
<pdfrwt beam="1">  1        1 0.17515709E+00 0.95942512E+03</pdfrwt>
<pdfrwt beam="2">  1       -1 0.10264929E+00 0.95942512E+03</pdfrwt>
<totfact> 0.10725181E+01</totfact>
</mgrwt>
</event>
<event>
 4    5  0.7767175E-008  0.8473477E+03  0.7818608E-02  0.9616478E-01
         -1   -1    0    0    0  501 -0.00000000000E+00  0.00000000000E+00  0.17756570234E+04  0.17756570234E+04  0.50400000000E-02 0.  1.
          1   -1    0    0  501    0  0.00000000000E+00 -0.00000000000E+00 -0.10532588437E+04  0.10532588437E+04  0.50400000000E-02 0. -1.
    8880023    1    1    2    0    0  0.52830574232E+03 -0.71280657665E+02  0.15885551749E+04  0.18004181847E+04  0.65864270000E+03 0.  1.
    8880022    1    1    2    0    0 -0.52830574232E+03  0.71280657665E+02 -0.86615699521E+03  0.10284976825E+04  0.15294330000E+03 0.  0.
<mgrwt>
<rscale>  0 0.76215081E+03</rscale>
<asrwt>0</asrwt>
<pdfrwt beam="1">  1        1 0.16203982E+00 0.84734768E+03</pdfrwt>
<pdfrwt beam="2">  1       -1 0.27317800E+00 0.84734768E+03</pdfrwt>
<totfact> 0.70320991E-01</totfact>
</mgrwt>
</event>
<event>
 4    5  0.7767175E-008  0.6708253E+03  0.7818608E-02  0.1015078E+00
          1   -1    0    0  501    0  0.00000000000E+00  0.00000000000E+00  0.52421654459E+03  0.52421654461E+03  0.50400000000E-02 0. -1.
         -1   -1    0    0    0  501 -0.00000000000E+00 -0.00000000000E+00 -0.72551169334E+03  0.72551169336E+03  0.50400000000E-02 0.  1.
    8880023    1    1    2    0    0  0.12677628659E+03  0.11139387173E+02 -0.53713628314E+03  0.85937297241E+03  0.65864270000E+03 0.  1.
    8880022    1    1    2    0    0 -0.12677628659E+03 -0.11139387173E+02  0.33584113438E+03  0.39035526556E+03  0.15294330000E+03 0.  0.
<mgrwt>
<rscale>  0 0.49505386E+03</rscale>
<asrwt>0</asrwt>
<pdfrwt beam="1">  1        1 0.80648699E-01 0.67082525E+03</pdfrwt>
<pdfrwt beam="2">  1       -1 0.11161718E+00 0.67082525E+03</pdfrwt>
<totfact> 0.31575234E+01</totfact>
</mgrwt>
</event>
<event>
 4    5  0.7767175E-008  0.8506978E+03  0.7818608E-02  0.9610329E-01
          1   -1    0    0  501    0  0.00000000000E+00  0.00000000000E+00  0.82538040039E+03  0.82538040041E+03  0.50400000000E-02 0. -1.
         -1   -1    0    0    0  501 -0.00000000000E+00 -0.00000000000E+00 -0.10666305960E+04  0.10666305960E+04  0.50400000000E-02 0.  1.
    8880023    1    1    2    0    0  0.31671512279E+03  0.43539420305E+03 -0.75115378661E+03  0.11348651014E+04  0.65864270000E+03 0.  0.
    8880022    1    1    2    0    0 -0.31671512279E+03 -0.43539420305E+03  0.50990359104E+03  0.75714589494E+03  0.15294330000E+03 0.  0.
<mgrwt>
<rscale>  0 0.76616276E+03</rscale>
<asrwt>0</asrwt>
<pdfrwt beam="1">  1        1 0.12698160E+00 0.85069782E+03</pdfrwt>
<pdfrwt beam="2">  1       -1 0.16409701E+00 0.85069782E+03</pdfrwt>
<totfact> 0.58377126E+00</totfact>
</mgrwt>
</event>
<event>
 4    5  0.7767175E-008  0.7622207E+03  0.7818608E-02  0.9799392E-01
          1   -1    0    0  501    0  0.00000000000E+00  0.00000000000E+00  0.78281925578E+03  0.78281925580E+03  0.50400000000E-02 0. -1.
         -1   -1    0    0    0  501 -0.00000000000E+00 -0.00000000000E+00 -0.13126207210E+04  0.13126207210E+04  0.50400000000E-02 0.  1.
    8880023    1    1    2    0    0 -0.37788049858E+03 -0.66154798674E+02 -0.11323214940E+04  0.13649660438E+04  0.65864270000E+03 0.  1.
    8880022    1    1    2    0    0  0.37788049858E+03  0.66154798674E+02  0.60252002885E+03  0.73047393298E+03  0.15294330000E+03 0.  0.
<mgrwt>
<rscale>  0 0.65395182E+03</rscale>
<asrwt>0</asrwt>
<pdfrwt beam="1">  1        1 0.12043373E+00 0.76222066E+03</pdfrwt>
<pdfrwt beam="2">  1       -1 0.20194165E+00 0.76222066E+03</pdfrwt>
<totfact> 0.34646553E+00</totfact>
</mgrwt>
</event>
<event>
 4    5  0.7767175E-008  0.6960253E+03  0.7818608E-02  0.1001411E+00
         -1   -1    0    0    0  501 -0.00000000000E+00  0.00000000000E+00  0.41163981949E+03  0.41163981953E+03  0.50400000000E-02 0.  1.
          1   -1    0    0  501    0  0.00000000000E+00 -0.00000000000E+00 -0.11556754435E+04  0.11556754435E+04  0.50400000000E-02 0. -1.
    8880023    1    1    2    0    0 -0.16186312448E+03  0.15633709190E+03  0.78977441564E+02  0.70049168440E+03  0.65864270000E+03 0.  1.
    8880022    1    1    2    0    0  0.16186312448E+03 -0.15633709190E+03 -0.82301306555E+03  0.86682357862E+03  0.15294330000E+03 0.  0.
<mgrwt>
<rscale>  0 0.55035971E+03</rscale>
<asrwt>0</asrwt>
<pdfrwt beam="1">  1        1 0.17779622E+00 0.69602526E+03</pdfrwt>
<pdfrwt beam="2">  1       -1 0.63329204E-01 0.69602526E+03</pdfrwt>
<totfact> 0.30154301E+01</totfact>
</mgrwt>
</event>
<event>
 4    5  0.7767175E-008  0.8581991E+03  0.7818608E-02  0.9596775E-01
          1   -1    0    0  501    0  0.00000000000E+00  0.00000000000E+00  0.60008433945E+03  0.60008433947E+03  0.50400000000E-02 0. -1.
         -1   -1    0    0    0  501 -0.00000000000E+00 -0.00000000000E+00 -0.93177606637E+03  0.93177606638E+03  0.50400000000E-02 0.  1.
    8880023    1    1    2    0    0 -0.30626209684E+03  0.45705464580E+03 -0.41757565748E+03  0.95439774580E+03  0.65864270000E+03 0. -1.
    8880022    1    1    2    0    0  0.30626209684E+03 -0.45705464580E+03  0.85883930564E+02  0.57746266005E+03  0.15294330000E+03 0.  0.
<mgrwt>
<rscale>  0 0.77509998E+03</rscale>
<asrwt>0</asrwt>
<pdfrwt beam="1">  1        1 0.92320668E-01 0.85819906E+03</pdfrwt>
<pdfrwt beam="2">  1       -1 0.14335016E+00 0.85819906E+03</pdfrwt>
<totfact> 0.13704537E+01</totfact>
</mgrwt>
</event>
<event>
 4    5  0.7767175E-008  0.7910314E+03  0.7818608E-02  0.9730534E-01
          1   -1    0    0  501    0  0.00000000000E+00  0.00000000000E+00  0.14276544820E+04  0.14276544821E+04  0.50400000000E-02 0. -1.
         -1   -1    0    0    0  501 -0.00000000000E+00 -0.00000000000E+00 -0.50634289816E+03  0.50634289819E+03  0.50400000000E-02 0.  1.
    8880023    1    1    2    0    0  0.74141233357E+02 -0.43176789601E+03 -0.11423984028E+03  0.79923800328E+03  0.65864270000E+03 0.  0.
    8880022    1    1    2    0    0 -0.74141233357E+02  0.43176789601E+03  0.10355514242E+04  0.11347593770E+04  0.15294330000E+03 0.  0.
<mgrwt>
<rscale>  0 0.69227530E+03</rscale>
<asrwt>0</asrwt>
<pdfrwt beam="1">  1        1 0.21963915E+00 0.79103138E+03</pdfrwt>
<pdfrwt beam="2">  1       -1 0.77898908E-01 0.79103138E+03</pdfrwt>
<totfact> 0.12496934E+01</totfact>
</mgrwt>
</event>
<event>
 4    5  0.7767175E-008  0.7186845E+03  0.7818608E-02  0.9927063E-01
         -1   -1    0    0    0  501 -0.00000000000E+00  0.00000000000E+00  0.89801123018E+03  0.89801123019E+03  0.50400000000E-02 0.  1.
          1   -1    0    0  501    0  0.00000000000E+00 -0.00000000000E+00 -0.12731846203E+04  0.12731846203E+04  0.50400000000E-02 0. -1.
    8880023    1    1    2    0    0 -0.28062805799E+03  0.62809616065E+02  0.72677989028E+03  0.10221136776E+04  0.65864270000E+03 0.  1.
    8880022    1    1    2    0    0  0.28062805799E+03 -0.62809616065E+02 -0.11019532804E+04  0.11490821728E+04  0.15294330000E+03 0.  0.
<mgrwt>
<rscale>  0 0.58967456E+03</rscale>
<asrwt>0</asrwt>
<pdfrwt beam="1">  1        1 0.19587456E+00 0.71868447E+03</pdfrwt>
<pdfrwt beam="2">  1       -1 0.13815557E+00 0.71868447E+03</pdfrwt>
<totfact> 0.42894453E+00</totfact>
</mgrwt>
</event>
<event>
 4    5  0.7767175E-008  0.8741906E+03  0.7818608E-02  0.9568803E-01
          1   -1    0    0  501    0  0.00000000000E+00  0.00000000000E+00  0.15701347567E+04  0.15701347567E+04  0.50400000000E-02 0. -1.
         -1   -1    0    0    0  501 -0.00000000000E+00 -0.00000000000E+00 -0.46363739513E+03  0.46363739516E+03  0.50400000000E-02 0.  1.
    8880023    1    1    2    0    0  0.43272109327E+03  0.37835366713E+03  0.12077387251E+03  0.88249395269E+03  0.65864270000E+03 0.  0.
    8880022    1    1    2    0    0 -0.43272109327E+03 -0.37835366713E+03  0.98572348903E+03  0.11512781992E+04  0.15294330000E+03 0.  0.
<mgrwt>
<rscale>  0 0.79395869E+03</rscale>
<asrwt>0</asrwt>
<pdfrwt beam="1">  1        1 0.24155919E+00 0.87419062E+03</pdfrwt>
<pdfrwt beam="2">  1       -1 0.71328830E-01 0.87419062E+03</pdfrwt>
<totfact> 0.11858164E+01</totfact>
</mgrwt>
</event>
<event>
 4    5  0.7767175E-008  0.7107423E+03  0.7818608E-02  0.9955255E-01
          1   -1    0    0  501    0  0.00000000000E+00  0.00000000000E+00  0.28083195070E+04  0.28083195070E+04  0.50400000000E-02 0. -1.
         -1   -1    0    0    0  501 -0.00000000000E+00 -0.00000000000E+00 -0.11100893995E+04  0.11100893995E+04  0.50400000000E-02 0.  1.
    8880023    1    1    2    0    0 -0.14751670809E+03 -0.22267302139E+03 -0.98662416514E+03  0.12159695321E+04  0.65864270000E+03 0.  1.
    8880022    1    1    2    0    0  0.14751670809E+03  0.22267302139E+03  0.26848542727E+04  0.27024393744E+04  0.15294330000E+03 0.  0.
<mgrwt>
<rscale>  0 0.57656540E+03</rscale>
<asrwt>0</asrwt>
<pdfrwt beam="1">  1        1 0.43204916E+00 0.71074233E+03</pdfrwt>
<pdfrwt beam="2">  1       -1 0.17078298E+00 0.71074233E+03</pdfrwt>
<totfact> 0.21856111E-01</totfact>
</mgrwt>
</event>
<event>
 4    5  0.7767175E-008  0.8454840E+03  0.7818608E-02  0.9619925E-01
         -1   -1    0    0    0  501 -0.00000000000E+00  0.00000000000E+00  0.85162362651E+03  0.85162362652E+03  0.50400000000E-02 0.  1.
          1   -1    0    0  501    0  0.00000000000E+00 -0.00000000000E+00 -0.11074964209E+04  0.11074964209E+04  0.50400000000E-02 0. -1.
    8880023    1    1    2    0    0  0.13096801390E+03 -0.51369288532E+03  0.53076418264E+03  0.99827542538E+03  0.65864270000E+03 0.  1.
    8880022    1    1    2    0    0 -0.13096801390E+03  0.51369288532E+03 -0.78663697707E+03  0.96084462209E+03  0.15294330000E+03 0.  0.
<mgrwt>
<rscale>  0 0.75991327E+03</rscale>
<asrwt>0</asrwt>
<pdfrwt beam="1">  1        1 0.17038406E+00 0.84548401E+03</pdfrwt>
<pdfrwt beam="2">  1       -1 0.13101902E+00 0.84548401E+03</pdfrwt>
<totfact> 0.63591219E+00</totfact>
</mgrwt>
</event>
<event>
 4    5  0.8543489E-008  0.1475376E+04  0.7818608E-02  0.8927222E-01
         -1   -1    0    0    0  501 -0.00000000000E+00  0.00000000000E+00  0.14931454265E+04  0.14931454265E+04  0.50400000000E-02 0.  1.
          1   -1    0    0  501    0  0.00000000000E+00 -0.00000000000E+00 -0.22999507519E+04  0.22999507519E+04  0.50400000000E-02 0. -1.
    8880023    1    1    2    0    0  0.79126457785E+03 -0.10567997628E+04  0.82355833412E+03  0.16896697627E+04  0.65864270000E+03 0.  1.
    8880022    1    1    2    0    0 -0.79126457785E+03  0.10567997628E+04 -0.16303636596E+04  0.21034264157E+04  0.15294330000E+03 0.  0.
<mgrwt>
<rscale>  0 0.14373440E+04</rscale>
<asrwt>0</asrwt>
<pdfrwt beam="1">  1        1 0.35383858E+00 0.14753764E+04</pdfrwt>
<pdfrwt beam="2">  1       -1 0.22971468E+00 0.14753764E+04</pdfrwt>
<totfact> 0.16706089E-01</totfact>
</mgrwt>
</event>
<event>
 4    5  0.7767175E-008  0.8036258E+03  0.7818608E-02  0.9703011E-01
          1   -1    0    0  501    0  0.00000000000E+00  0.00000000000E+00  0.16917812385E+04  0.16917812385E+04  0.50400000000E-02 0. -1.
         -1   -1    0    0    0  501 -0.00000000000E+00 -0.00000000000E+00 -0.35183235190E+03  0.35183235194E+03  0.50400000000E-02 0.  1.
    8880023    1    1    2    0    0  0.43588737872E+03 -0.14834533064E+03  0.23569838605E+03  0.83747721133E+03  0.65864270000E+03 0.  1.
    8880022    1    1    2    0    0 -0.43588737872E+03  0.14834533064E+03  0.11042505006E+04  0.12061363791E+04  0.15294330000E+03 0.  0.
<mgrwt>
<rscale>  0 0.70837826E+03</rscale>
<asrwt>0</asrwt>
<pdfrwt beam="1">  1        1 0.26027404E+00 0.80362575E+03</pdfrwt>
<pdfrwt beam="2">  1       -1 0.54128053E-01 0.80362575E+03</pdfrwt>
<totfact> 0.17146543E+01</totfact>
</mgrwt>
</event>
<event>
 4    5  0.7767175E-008  0.7924125E+03  0.7818608E-02  0.9727448E-01
          1   -1    0    0  501    0  0.00000000000E+00  0.00000000000E+00  0.10264516213E+04  0.10264516214E+04  0.50400000000E-02 0. -1.
         -1   -1    0    0    0  501 -0.00000000000E+00 -0.00000000000E+00 -0.82257707921E+03  0.82257707923E+03  0.50400000000E-02 0.  1.
    8880023    1    1    2    0    0  0.44056830348E+03 -0.26428845716E+01 -0.54857659559E+03  0.96377066897E+03  0.65864270000E+03 0.  1.
    8880022    1    1    2    0    0 -0.44056830348E+03  0.26428845716E+01  0.75245113772E+03  0.88525803162E+03  0.15294330000E+03 0.  0.
<mgrwt>
<rscale>  0 0.69405786E+03</rscale>
<asrwt>0</asrwt>
<pdfrwt beam="1">  1        1 0.15791563E+00 0.79241253E+03</pdfrwt>
<pdfrwt beam="2">  1       -1 0.12655032E+00 0.79241253E+03</pdfrwt>
<totfact> 0.80487005E+00</totfact>
</mgrwt>
</event>
<event>
 4    5  0.7767175E-008  0.6943639E+03  0.7818608E-02  0.1002144E+00
         -1   -1    0    0    0  501 -0.00000000000E+00  0.00000000000E+00  0.68897717729E+03  0.68897717731E+03  0.50400000000E-02 0.  1.
          1   -1    0    0  501    0  0.00000000000E+00 -0.00000000000E+00 -0.14733957219E+04  0.14733957220E+04  0.50400000000E-02 0. -1.
    8880023    1    1    2    0    0  0.87981061619E+02  0.20147033835E+03  0.49659308334E+03  0.85366612977E+03  0.65864270000E+03 0.  1.
    8880022    1    1    2    0    0 -0.87981061619E+02 -0.20147033835E+03 -0.12810116280E+04  0.13087067695E+04  0.15294330000E+03 0.  0.
<mgrwt>
<rscale>  0 0.54720159E+03</rscale>
<asrwt>0</asrwt>
<pdfrwt beam="1">  1        1 0.22667626E+00 0.69436386E+03</pdfrwt>
<pdfrwt beam="2">  1       -1 0.10599649E+00 0.69436386E+03</pdfrwt>
<totfact> 0.59719092E+00</totfact>
</mgrwt>
</event>
<event>
 4    5  0.7767175E-008  0.1454351E+04  0.7818608E-02  0.8942561E-01
         -1   -1    0    0    0  501 -0.00000000000E+00  0.00000000000E+00  0.14524976142E+04  0.14524976142E+04  0.50400000000E-02 0.  1.
          1   -1    0    0  501    0  0.00000000000E+00 -0.00000000000E+00 -0.30226094663E+04  0.30226094663E+04  0.50400000000E-02 0. -1.
    8880023    1    1    2    0    0 -0.42246634478E+03  0.12259076358E+04  0.87925467561E+03  0.16994782537E+04  0.65864270000E+03 0.  0.
    8880022    1    1    2    0    0  0.42246634478E+03 -0.12259076358E+04 -0.24493665277E+04  0.27756288268E+04  0.15294330000E+03 0.  0.
<mgrwt>
<rscale>  0 0.14156588E+04</rscale>
<asrwt>0</asrwt>
<pdfrwt beam="1">  1        1 0.46501684E+00 0.14543512E+04</pdfrwt>
<pdfrwt beam="2">  1       -1 0.22346117E+00 0.14543512E+04</pdfrwt>
<totfact> 0.57198021E-02</totfact>
</mgrwt>
</event>
<event>
 4    5  0.7767175E-008  0.1109830E+04  0.7818608E-02  0.9250190E-01
         -1   -1    0    0    0  501 -0.00000000000E+00  0.00000000000E+00  0.71476709280E+03  0.71476709281E+03  0.50400000000E-02 0.  1.
          1   -1    0    0  501    0  0.00000000000E+00 -0.00000000000E+00 -0.20321709452E+04  0.20321709453E+04  0.50400000000E-02 0. -1.
    8880023    1    1    2    0    0  0.71275658669E+03  0.53841388182E+03  0.44892115369E+02  0.11107371283E+04  0.65864270000E+03 0.  0.
    8880022    1    1    2    0    0 -0.71275658669E+03 -0.53841388182E+03 -0.13622959678E+04  0.16362009097E+04  0.15294330000E+03 0.  0.
<mgrwt>
<rscale>  0 0.10550065E+04</rscale>
<asrwt>0</asrwt>
<pdfrwt beam="1">  1        1 0.31264168E+00 0.11098296E+04</pdfrwt>
<pdfrwt beam="2">  1       -1 0.10996417E+00 0.11098296E+04</pdfrwt>
<totfact> 0.21569564E+00</totfact>
</mgrwt>
</event>
<event>
 4    5  0.7767175E-008  0.7095277E+03  0.7818608E-02  0.9959759E-01
         -1   -1    0    0    0  501 -0.00000000000E+00  0.00000000000E+00  0.21406516039E+04  0.21406516039E+04  0.50400000000E-02 0.  1.
          1   -1    0    0  501    0  0.00000000000E+00 -0.00000000000E+00 -0.69939066680E+03  0.69939066682E+03  0.50400000000E-02 0. -1.
    8880023    1    1    2    0    0  0.11753851282E+03  0.23622883929E+03  0.20444856110E+04  0.21641051237E+04  0.65864270000E+03 0.  0.
    8880022    1    1    2    0    0 -0.11753851282E+03 -0.23622883929E+03 -0.60322467391E+03  0.67593714703E+03  0.15294330000E+03 0. -1.
<mgrwt>
<rscale>  0 0.57450501E+03</rscale>
<asrwt>0</asrwt>
<pdfrwt beam="1">  1        1 0.10759857E+00 0.70952771E+03</pdfrwt>
<pdfrwt beam="2">  1       -1 0.32933101E+00 0.70952771E+03</pdfrwt>
<totfact> 0.62222296E-01</totfact>
</mgrwt>
</event>
<event>
 4    5  0.7767175E-008  0.7176788E+03  0.7818608E-02  0.9930520E-01
         -1   -1    0    0    0  501 -0.00000000000E+00  0.00000000000E+00  0.52457845607E+03  0.52457845609E+03  0.50400000000E-02 0.  1.
          1   -1    0    0  501    0  0.00000000000E+00 -0.00000000000E+00 -0.97779943215E+03  0.97779943216E+03  0.50400000000E-02 0. -1.
    8880023    1    1    2    0    0 -0.31693659082E+02  0.28328113961E+03  0.22403273023E+03  0.75183346731E+03  0.65864270000E+03 0.  1.
    8880022    1    1    2    0    0  0.31693659082E+02 -0.28328113961E+03 -0.67725370631E+03  0.75054442094E+03  0.15294330000E+03 0.  0.
<mgrwt>
<rscale>  0 0.58804704E+03</rscale>
<asrwt>0</asrwt>
<pdfrwt beam="1">  1        1 0.15043068E+00 0.71767883E+03</pdfrwt>
<pdfrwt beam="2">  1       -1 0.80704378E-01 0.71767883E+03</pdfrwt>
<totfact> 0.24881205E+01</totfact>
</mgrwt>
</event>
<event>
 4    5  0.7767175E-008  0.9157473E+03  0.7818608E-02  0.9501211E-01
          1   -1    0    0  501    0  0.00000000000E+00  0.00000000000E+00  0.30728778111E+04  0.30728778111E+04  0.50400000000E-02 0. -1.
         -1   -1    0    0    0  501 -0.00000000000E+00 -0.00000000000E+00 -0.30184552888E+03  0.30184552893E+03  0.50400000000E-02 0.  1.
    8880023    1    1    2    0    0  0.48498544870E+03  0.41179121029E+03  0.57039520492E+03  0.10788622629E+04  0.65864270000E+03 0.  0.
    8880022    1    1    2    0    0 -0.48498544870E+03 -0.41179121029E+03  0.22006370773E+04  0.22958610771E+04  0.15294330000E+03 0.  0.
<mgrwt>
<rscale>  0 0.84194619E+03</rscale>
<asrwt>0</asrwt>
<pdfrwt beam="1">  1        1 0.47275042E+00 0.91574729E+03</pdfrwt>
<pdfrwt beam="2">  1       -1 0.46437775E-01 0.91574729E+03</pdfrwt>
<totfact> 0.25440935E+00</totfact>
</mgrwt>
</event>
<event>
 4    5  0.7767175E-008  0.1150903E+04  0.7818608E-02  0.9206391E-01
         -1   -1    0    0    0  501 -0.00000000000E+00  0.00000000000E+00  0.16539847981E+04  0.16539847981E+04  0.50400000000E-02 0.  1.
          1   -1    0    0  501    0  0.00000000000E+00 -0.00000000000E+00 -0.13754820719E+04  0.13754820719E+04  0.50400000000E-02 0. -1.
    8880023    1    1    2    0    0 -0.94269117956E+03  0.45845671027E+02  0.12272775119E+04  0.16824948092E+04  0.65864270000E+03 0.  0.
    8880022    1    1    2    0    0  0.94269117956E+03 -0.45845671027E+02 -0.94877478574E+03  0.13469720608E+04  0.15294330000E+03 0.  0.
<mgrwt>
<rscale>  0 0.10987704E+04</rscale>
<asrwt>0</asrwt>
<pdfrwt beam="1">  1        1 0.21161263E+00 0.11509034E+04</pdfrwt>
<pdfrwt beam="2">  1       -1 0.25445920E+00 0.11509034E+04</pdfrwt>
<totfact> 0.51491512E-01</totfact>
</mgrwt>
</event>
<event>
 4    5  0.7767175E-008  0.6832586E+03  0.7818608E-02  0.1007537E+00
          1   -1    0    0  501    0  0.00000000000E+00  0.00000000000E+00  0.63437882620E+03  0.63437882622E+03  0.50400000000E-02 0. -1.
         -1   -1    0    0    0  501 -0.00000000000E+00 -0.00000000000E+00 -0.37011685465E+03  0.37011685468E+03  0.50400000000E-02 0.  1.
    8880023    1    1    2    0    0 -0.17352195384E+03  0.54057817023E+02  0.50812105488E+02  0.68514538047E+03  0.65864270000E+03 0.  0.
    8880022    1    1    2    0    0  0.17352195384E+03 -0.54057817023E+02  0.21344986606E+03  0.31935030043E+03  0.15294330000E+03 0.  0.
<mgrwt>
<rscale>  0 0.52465232E+03</rscale>
<asrwt>0</asrwt>
<pdfrwt beam="1">  1        1 0.97596742E-01 0.68325861E+03</pdfrwt>
<pdfrwt beam="2">  1       -1 0.56941055E-01 0.68325861E+03</pdfrwt>
<totfact> 0.10086564E+02</totfact>
</mgrwt>
</event>
<event>
 4    5  0.7767175E-008  0.8141886E+03  0.7818608E-02  0.9680917E-01
         -1   -1    0    0    0  501 -0.00000000000E+00  0.00000000000E+00  0.88685193493E+03  0.88685193494E+03  0.50400000000E-02 0.  1.
          1   -1    0    0  501    0  0.00000000000E+00 -0.00000000000E+00 -0.11345599054E+04  0.11345599054E+04  0.50400000000E-02 0. -1.
    8880023    1    1    2    0    0 -0.36519514506E+03 -0.30939514917E+03  0.61682711820E+03  0.10214591290E+04  0.65864270000E+03 0.  1.
    8880022    1    1    2    0    0  0.36519514506E+03  0.30939514917E+03 -0.86453508869E+03  0.99995271133E+03  0.15294330000E+03 0.  0.
<mgrwt>
<rscale>  0 0.72164416E+03</rscale>
<asrwt>0</asrwt>
<pdfrwt beam="1">  1        1 0.17454768E+00 0.81418859E+03</pdfrwt>
<pdfrwt beam="2">  1       -1 0.13643876E+00 0.81418859E+03</pdfrwt>
<totfact> 0.54992142E+00</totfact>
</mgrwt>
</event>
<event>
 4    5  0.7767175E-008  0.1704339E+04  0.7818608E-02  0.8777384E-01
          1   -1    0    0  501    0  0.00000000000E+00  0.00000000000E+00  0.36435448816E+04  0.36435448816E+04  0.50400000000E-02 0. -1.
         -1   -1    0    0    0  501 -0.00000000000E+00 -0.00000000000E+00 -0.13300155282E+04  0.13300155282E+04  0.50400000000E-02 0.  1.
    8880023    1    1    2    0    0 -0.33495150655E+02 -0.15715720608E+04 -0.47460045297E+03  0.17691852542E+04  0.65864270000E+03 0.  1.
    8880022    1    1    2    0    0  0.33495150655E+02  0.15715720608E+04  0.27881298064E+04  0.32043751556E+04  0.15294330000E+03 0.  0.
<mgrwt>
<rscale>  0 0.16721941E+04</rscale>
<asrwt>0</asrwt>
<pdfrwt beam="1">  1        1 0.56054536E+00 0.17043388E+04</pdfrwt>
<pdfrwt beam="2">  1       -1 0.20461778E+00 0.17043388E+04</pdfrwt>
<totfact> 0.24857750E-02</totfact>
</mgrwt>
</event>
<event>
 4    5  0.7767175E-008  0.1420998E+04  0.7818608E-02  0.8967536E-01
         -1   -1    0    0    0  501 -0.00000000000E+00  0.00000000000E+00  0.63143595758E+03  0.63143595760E+03  0.50400000000E-02 0.  1.
          1   -1    0    0  501    0  0.00000000000E+00 -0.00000000000E+00 -0.30473167783E+04  0.30473167783E+04  0.50400000000E-02 0. -1.
    8880023    1    1    2    0    0 -0.12529797152E+04 -0.12436878148E+03 -0.17232544012E+04  0.22335715118E+04  0.65864270000E+03 0.  0.
    8880022    1    1    2    0    0  0.12529797152E+04  0.12436878148E+03 -0.69262641954E+03  0.14451812242E+04  0.15294330000E+03 0. -1.
<mgrwt>
<rscale>  0 0.13812061E+04</rscale>
<asrwt>0</asrwt>
<pdfrwt beam="1">  1        1 0.46881796E+00 0.14209982E+04</pdfrwt>
<pdfrwt beam="2">  1       -1 0.97143995E-01 0.14209982E+04</pdfrwt>
<totfact> 0.54432353E-01</totfact>
</mgrwt>
</event>
<event>
 4    5  0.7767175E-008  0.8686314E+03  0.7818608E-02  0.9578390E-01
         -1   -1    0    0    0  501 -0.00000000000E+00  0.00000000000E+00  0.97070403619E+03  0.97070403620E+03  0.50400000000E-02 0.  1.
          1   -1    0    0  501    0  0.00000000000E+00 -0.00000000000E+00 -0.81489520084E+03  0.81489520085E+03  0.50400000000E-02 0. -1.
    8880023    1    1    2    0    0 -0.41080528103E+03 -0.38980679278E+03  0.59493796011E+03  0.10528398251E+04  0.65864270000E+03 0.  1.
    8880022    1    1    2    0    0  0.41080528103E+03  0.38980679278E+03 -0.43912912476E+03  0.73275941198E+03  0.15294330000E+03 0.  0.
<mgrwt>
<rscale>  0 0.78743106E+03</rscale>
<asrwt>0</asrwt>
<pdfrwt beam="1">  1        1 0.12536849E+00 0.86863141E+03</pdfrwt>
<pdfrwt beam="2">  1       -1 0.14933908E+00 0.86863141E+03</pdfrwt>
<totfact> 0.77061119E+00</totfact>
</mgrwt>
</event>
<event>
 4    5  0.7767175E-008  0.7443975E+03  0.7818608E-02  0.9847318E-01
          1   -1    0    0  501    0  0.00000000000E+00  0.00000000000E+00  0.33027835648E+04  0.33027835649E+04  0.50400000000E-02 0. -1.
         -1   -1    0    0    0  501 -0.00000000000E+00 -0.00000000000E+00 -0.32066459690E+03  0.32066459694E+03  0.50400000000E-02 0.  1.
    8880023    1    1    2    0    0 -0.33875864466E+03 -0.74565877829E+02  0.14160118286E+03  0.75774572959E+03  0.65864270000E+03 0.  0.
    8880022    1    1    2    0    0  0.33875864466E+03  0.74565877829E+02  0.28405177851E+04  0.28657024322E+04  0.15294330000E+03 0.  0.
<mgrwt>
<rscale>  0 0.62883868E+03</rscale>
<asrwt>0</asrwt>
<pdfrwt beam="1">  1        1 0.50812052E+00 0.74439754E+03</pdfrwt>
<pdfrwt beam="2">  1       -1 0.49333018E-01 0.74439754E+03</pdfrwt>
<totfact> 0.15870606E+00</totfact>
</mgrwt>
</event>
<event>
 4    5  0.7767175E-008  0.8356137E+03  0.7818608E-02  0.9638507E-01
          1   -1    0    0  501    0  0.00000000000E+00  0.00000000000E+00  0.69415046194E+03  0.69415046195E+03  0.50400000000E-02 0. -1.
         -1   -1    0    0    0  501 -0.00000000000E+00 -0.00000000000E+00 -0.10912386699E+04  0.10912386699E+04  0.50400000000E-02 0.  1.
    8880023    1    1    2    0    0 -0.25584027430E+03 -0.44607822170E+03 -0.76657191504E+03  0.11339676949E+04  0.65864270000E+03 0.  1.
    8880022    1    1    2    0    0  0.25584027430E+03  0.44607822170E+03  0.36948370704E+03  0.65142143702E+03  0.15294330000E+03 0.  0.
<mgrwt>
<rscale>  0 0.74799119E+03</rscale>
<asrwt>0</asrwt>
<pdfrwt beam="1">  1        1 0.10679238E+00 0.83561369E+03</pdfrwt>
<pdfrwt beam="2">  1       -1 0.16788287E+00 0.83561369E+03</pdfrwt>
<totfact> 0.71895906E+00</totfact>
</mgrwt>
</event>
<event>
 4    5  0.7767175E-008  0.8754793E+03  0.7818608E-02  0.9566601E-01
         -1   -1    0    0    0  501 -0.00000000000E+00  0.00000000000E+00  0.15617342754E+04  0.15617342754E+04  0.50400000000E-02 0.  1.
          1   -1    0    0  501    0  0.00000000000E+00 -0.00000000000E+00 -0.10987323416E+04  0.10987323416E+04  0.50400000000E-02 0. -1.
    8880023    1    1    2    0    0 -0.53832637193E+03 -0.20702312187E+03  0.13394475885E+04  0.16001824597E+04  0.65864270000E+03 0.  1.
    8880022    1    1    2    0    0  0.53832637193E+03  0.20702312187E+03 -0.87644565467E+03  0.10602841573E+04  0.15294330000E+03 0.  0.
<mgrwt>
<rscale>  0 0.79546782E+03</rscale>
<asrwt>0</asrwt>
<pdfrwt beam="1">  1        1 0.16903575E+00 0.87547933E+03</pdfrwt>
<pdfrwt beam="2">  1       -1 0.24026681E+00 0.87547933E+03</pdfrwt>
<totfact> 0.10542048E+00</totfact>
</mgrwt>
</event>
<event>
 4    5  0.7767175E-008  0.7540714E+03  0.7818608E-02  0.9820705E-01
          1   -1    0    0  501    0  0.00000000000E+00  0.00000000000E+00  0.15499916054E+04  0.15499916054E+04  0.50400000000E-02 0. -1.
         -1   -1    0    0    0  501 -0.00000000000E+00 -0.00000000000E+00 -0.57957676896E+03  0.57957676898E+03  0.50400000000E-02 0.  1.
    8880023    1    1    2    0    0  0.32953260748E+03 -0.16193105173E+03 -0.28997751634E+03  0.80790505082E+03  0.65864270000E+03 0.  0.
    8880022    1    1    2    0    0 -0.32953260748E+03  0.16193105173E+03  0.12603923528E+04  0.13216633236E+04  0.15294330000E+03 0.  0.
<mgrwt>
<rscale>  0 0.64263131E+03</rscale>
<asrwt>0</asrwt>
<pdfrwt beam="1">  1        1 0.23846024E+00 0.75407136E+03</pdfrwt>
<pdfrwt beam="2">  1       -1 0.89165658E-01 0.75407136E+03</pdfrwt>
<totfact> 0.77448032E+00</totfact>
</mgrwt>
</event>
<event>
 4    5  0.7767175E-008  0.7608831E+03  0.7818608E-02  0.9802827E-01
          1   -1    0    0  501    0  0.00000000000E+00  0.00000000000E+00  0.12536111264E+04  0.12536111265E+04  0.50400000000E-02 0. -1.
         -1   -1    0    0    0  501 -0.00000000000E+00 -0.00000000000E+00 -0.11182532475E+04  0.11182532475E+04  0.50400000000E-02 0.  1.
    8880023    1    1    2    0    0 -0.30158975099E+03  0.23275846387E+03 -0.94668814665E+03  0.12145622807E+04  0.65864270000E+03 0.  1.
    8880022    1    1    2    0    0  0.30158975099E+03 -0.23275846387E+03  0.10820460256E+04  0.11573020932E+04  0.15294330000E+03 0.  0.
<mgrwt>
<rscale>  0 0.65211073E+03</rscale>
<asrwt>0</asrwt>
<pdfrwt beam="1">  1        1 0.19286325E+00 0.76088310E+03</pdfrwt>
<pdfrwt beam="2">  1       -1 0.17203896E+00 0.76088310E+03</pdfrwt>
<totfact> 0.24185843E+00</totfact>
</mgrwt>
</event>
<event>
 4    5  0.7767175E-008  0.8400938E+03  0.7818608E-02  0.9630003E-01
          1   -1    0    0  501    0  0.00000000000E+00  0.00000000000E+00  0.24370041745E+03  0.24370041750E+03  0.50400000000E-02 0. -1.
         -1   -1    0    0    0  501 -0.00000000000E+00 -0.00000000000E+00 -0.29989090054E+04  0.29989090054E+04  0.50400000000E-02 0.  1.
    8880023    1    1    2    0    0 -0.50743913568E+03 -0.12022015061E+03 -0.25091451395E+04  0.26460474105E+04  0.65864270000E+03 0.  1.
    8880022    1    1    2    0    0  0.50743913568E+03  0.12022015061E+03 -0.24606344845E+03  0.59656201246E+03  0.15294330000E+03 0.  0.
<mgrwt>
<rscale>  0 0.75341790E+03</rscale>
<asrwt>0</asrwt>
<pdfrwt beam="1">  1        1 0.37492374E-01 0.84009378E+03</pdfrwt>
<pdfrwt beam="2">  1       -1 0.46137059E+00 0.84009378E+03</pdfrwt>
<totfact> 0.32683621E-01</totfact>
</mgrwt>
</event>
<event>
 4    5  0.7767175E-008  0.6622836E+03  0.7818608E-02  0.1021930E+00
          1   -1    0    0  501    0  0.00000000000E+00  0.00000000000E+00  0.41212919404E+03  0.41212919407E+03  0.50400000000E-02 0. -1.
         -1   -1    0    0    0  501 -0.00000000000E+00 -0.00000000000E+00 -0.16538670715E+04  0.16538670715E+04  0.50400000000E-02 0.  1.
    8880023    1    1    2    0    0  0.65965958892E+02 -0.21397930232E+02 -0.15662997770E+04  0.17005630176E+04  0.65864270000E+03 0.  1.
    8880022    1    1    2    0    0 -0.65965958892E+02  0.21397930232E+02  0.32456189948E+03  0.36543324802E+03  0.15294330000E+03 0.  0.
<mgrwt>
<rscale>  0 0.46996567E+03</rscale>
<asrwt>0</asrwt>
<pdfrwt beam="1">  1        1 0.63404492E-01 0.66228361E+03</pdfrwt>
<pdfrwt beam="2">  1       -1 0.25444108E+00 0.66228361E+03</pdfrwt>
<totfact> 0.39713183E+00</totfact>
</mgrwt>
</event>
<event>
 4    5  0.7767175E-008  0.8773429E+03  0.7818608E-02  0.9563429E-01
         -1   -1    0    0    0  501 -0.00000000000E+00  0.00000000000E+00  0.13168466575E+04  0.13168466575E+04  0.50400000000E-02 0.  1.
          1   -1    0    0  501    0  0.00000000000E+00 -0.00000000000E+00 -0.10986928037E+04  0.10986928038E+04  0.50400000000E-02 0. -1.
    8880023    1    1    2    0    0 -0.11565459573E+03  0.56792983529E+03  0.10638501941E+04  0.13789516761E+04  0.65864270000E+03 0.  1.
    8880022    1    1    2    0    0  0.11565459573E+03 -0.56792983529E+03 -0.84569634032E+03  0.10365877852E+04  0.15294330000E+03 0.  0.
<mgrwt>
<rscale>  0 0.79764742E+03</rscale>
<asrwt>0</asrwt>
<pdfrwt beam="1">  1        1 0.16902966E+00 0.87734286E+03</pdfrwt>
<pdfrwt beam="2">  1       -1 0.20259179E+00 0.87734286E+03</pdfrwt>
<totfact> 0.18771177E+00</totfact>
</mgrwt>
</event>
<event>
 4    5  0.7767175E-008  0.6767816E+03  0.7818608E-02  0.1011206E+00
          1   -1    0    0  501    0  0.00000000000E+00  0.00000000000E+00  0.23649176700E+04  0.23649176700E+04  0.50400000000E-02 0. -1.
         -1   -1    0    0    0  501 -0.00000000000E+00 -0.00000000000E+00 -0.15449537610E+03  0.15449537619E+03  0.50400000000E-02 0.  1.
    8880023    1    1    2    0    0 -0.21710382032E+02  0.15411595011E+03  0.63203493546E+03  0.92601373244E+03  0.65864270000E+03 0.  1.
    8880022    1    1    2    0    0  0.21710382032E+02 -0.15411595011E+03  0.15783873585E+04  0.15933993138E+04  0.15294330000E+03 0.  0.
<mgrwt>
<rscale>  0 0.50998105E+03</rscale>
<asrwt>0</asrwt>
<pdfrwt beam="1">  1        1 0.36383348E+00 0.67678155E+03</pdfrwt>
<pdfrwt beam="2">  1       -1 0.23768520E-01 0.67678155E+03</pdfrwt>
<totfact> 0.27049975E+01</totfact>
</mgrwt>
</event>
<event>
 4    5  0.7767175E-008  0.1303628E+04  0.7818608E-02  0.9062433E-01
         -1   -1    0    0    0  501 -0.00000000000E+00  0.00000000000E+00  0.80824748867E+03  0.80824748869E+03  0.50400000000E-02 0.  1.
          1   -1    0    0  501    0  0.00000000000E+00 -0.00000000000E+00 -0.20306040152E+04  0.20306040152E+04  0.50400000000E-02 0. -1.
    8880023    1    1    2    0    0  0.11126608591E+04  0.16619725387E+03 -0.21542437838E+03  0.13213075280E+04  0.65864270000E+03 0.  0.
    8880022    1    1    2    0    0 -0.11126608591E+04 -0.16619725387E+03 -0.10069321481E+04  0.15175439758E+04  0.15294330000E+03 0.  0.
<mgrwt>
<rscale>  0 0.12593546E+04</rscale>
<asrwt>0</asrwt>
<pdfrwt beam="1">  1        1 0.31240062E+00 0.13036280E+04</pdfrwt>
<pdfrwt beam="2">  1       -1 0.12434577E+00 0.13036280E+04</pdfrwt>
<totfact> 0.15666360E+00</totfact>
</mgrwt>
</event>
<event>
 4    5  0.7767175E-008  0.1511024E+04  0.7818608E-02  0.8901891E-01
         -1   -1    0    0    0  501 -0.00000000000E+00  0.00000000000E+00  0.11802236636E+04  0.11802236636E+04  0.50400000000E-02 0.  1.
          1   -1    0    0  501    0  0.00000000000E+00 -0.00000000000E+00 -0.21609103880E+04  0.21609103880E+04  0.50400000000E-02 0. -1.
    8880023    1    1    2    0    0 -0.35024346710E+03  0.13140439754E+04  0.21202711756E+03  0.15258269103E+04  0.65864270000E+03 0.  0.
    8880022    1    1    2    0    0  0.35024346710E+03 -0.13140439754E+04 -0.11927138419E+04  0.18153071413E+04  0.15294330000E+03 0.  0.
<mgrwt>
<rscale>  0 0.14740564E+04</rscale>
<asrwt>0</asrwt>
<pdfrwt beam="1">  1        1 0.33244775E+00 0.15110236E+04</pdfrwt>
<pdfrwt beam="2">  1       -1 0.18157287E+00 0.15110236E+04</pdfrwt>
<totfact> 0.44405855E-01</totfact>
</mgrwt>
</event>
<event>
 4    5  0.7767175E-008  0.7231588E+03  0.7818608E-02  0.9912039E-01
          1   -1    0    0  501    0  0.00000000000E+00  0.00000000000E+00  0.16409783795E+04  0.16409783795E+04  0.50400000000E-02 0. -1.
         -1   -1    0    0    0  501 -0.00000000000E+00 -0.00000000000E+00 -0.20877221486E+03  0.20877221492E+03  0.50400000000E-02 0.  1.
    8880023    1    1    2    0    0 -0.25561864995E+03 -0.15429718236E+03  0.55807925327E+03  0.91346109599E+03  0.65864270000E+03 0.  0.
    8880022    1    1    2    0    0  0.25561864995E+03  0.15429718236E+03  0.87412691138E+03  0.93628949845E+03  0.15294330000E+03 0.  0.
<mgrwt>
<rscale>  0 0.59681362E+03</rscale>
<asrwt>0</asrwt>
<pdfrwt beam="1">  1        1 0.25245822E+00 0.72315885E+03</pdfrwt>
<pdfrwt beam="2">  1       -1 0.32118802E-01 0.72315885E+03</pdfrwt>
<totfact> 0.48853246E+01</totfact>
</mgrwt>
</event>
<event>
 4    5  0.9739843E-008  0.1239412E+04  0.7818608E-02  0.9119732E-01
         -1   -1    0    0    0  501 -0.00000000000E+00  0.00000000000E+00  0.15776314799E+04  0.15776314800E+04  0.50400000000E-02 0.  1.
          1   -1    0    0  501    0  0.00000000000E+00 -0.00000000000E+00 -0.19021188860E+04  0.19021188860E+04  0.50400000000E-02 0. -1.
    8880023    1    1    2    0    0 -0.18584675691E+03  0.10333403063E+04  0.11314770373E+04  0.16782078827E+04  0.65864270000E+03 0.  1.
    8880022    1    1    2    0    0  0.18584675691E+03 -0.10333403063E+04 -0.14559644433E+04  0.18015424832E+04  0.15294330000E+03 0.  0.
<mgrwt>
<rscale>  0 0.11921767E+04</rscale>
<asrwt>0</asrwt>
<pdfrwt beam="1">  1        1 0.29263368E+00 0.12394117E+04</pdfrwt>
<pdfrwt beam="2">  1       -1 0.24271253E+00 0.12394117E+04</pdfrwt>
<totfact> 0.26381560E-01</totfact>
</mgrwt>
</event>
<event>
 4    5  0.7767175E-008  0.9827485E+03  0.7818608E-02  0.9404484E-01
          1   -1    0    0  501    0  0.00000000000E+00  0.00000000000E+00  0.13947816046E+04  0.13947816046E+04  0.50400000000E-02 0. -1.
         -1   -1    0    0    0  501 -0.00000000000E+00 -0.00000000000E+00 -0.15706909953E+04  0.15706909953E+04  0.50400000000E-02 0.  1.
    8880023    1    1    2    0    0  0.19532546984E+03 -0.70273210890E+03 -0.12920983109E+04  0.16233646255E+04  0.65864270000E+03 0.  1.
    8880022    1    1    2    0    0 -0.19532546984E+03  0.70273210890E+03  0.11161889203E+04  0.13421079743E+04  0.15294330000E+03 0.  0.
<mgrwt>
<rscale>  0 0.91707573E+03</rscale>
<asrwt>0</asrwt>
<pdfrwt beam="1">  1        1 0.21458178E+00 0.98274852E+03</pdfrwt>
<pdfrwt beam="2">  1       -1 0.24164477E+00 0.98274852E+03</pdfrwt>
<totfact> 0.62030279E-01</totfact>
</mgrwt>
</event>
<event>
 4    5  0.7767175E-008  0.8056570E+03  0.7818608E-02  0.9698695E-01
          1   -1    0    0  501    0  0.00000000000E+00  0.00000000000E+00  0.48643814805E+03  0.48643814808E+03  0.50400000000E-02 0. -1.
         -1   -1    0    0    0  501 -0.00000000000E+00 -0.00000000000E+00 -0.10743160672E+04  0.10743160673E+04  0.50400000000E-02 0.  1.
    8880023    1    1    2    0    0 -0.40022149351E+03 -0.23472485047E+03 -0.12233144224E+02  0.80574987147E+03  0.65864270000E+03 0. -1.
    8880022    1    1    2    0    0  0.40022149351E+03  0.23472485047E+03 -0.57564477497E+03  0.75500434387E+03  0.15294330000E+03 0.  0.
<mgrwt>
<rscale>  0 0.71094524E+03</rscale>
<asrwt>0</asrwt>
<pdfrwt beam="1">  1        1 0.74836638E-01 0.80565700E+03</pdfrwt>
<pdfrwt beam="2">  1       -1 0.16527939E+00 0.80565700E+03</pdfrwt>
<totfact> 0.12554118E+01</totfact>
</mgrwt>
</event>
<event>
 4    5  0.7767175E-008  0.9070582E+03  0.7818608E-02  0.9514795E-01
          1   -1    0    0  501    0  0.00000000000E+00  0.00000000000E+00  0.77276516565E+03  0.77276516567E+03  0.50400000000E-02 0. -1.
         -1   -1    0    0    0  501 -0.00000000000E+00 -0.00000000000E+00 -0.12082944811E+04  0.12082944811E+04  0.50400000000E-02 0.  1.
    8880023    1    1    2    0    0  0.96540174281E+02 -0.61613659595E+03 -0.82828452493E+03  0.12283361798E+04  0.65864270000E+03 0.  1.
    8880022    1    1    2    0    0 -0.96540174281E+02  0.61613659595E+03  0.39275520950E+03  0.75272346696E+03  0.15294330000E+03 0.  0.
<mgrwt>
<rscale>  0 0.83201806E+03</rscale>
<asrwt>0</asrwt>
<pdfrwt beam="1">  1        1 0.11888695E+00 0.90705817E+03</pdfrwt>
<pdfrwt beam="2">  1       -1 0.18589146E+00 0.90705817E+03</pdfrwt>
<totfact> 0.44776757E+00</totfact>
</mgrwt>
</event>
<event>
 4    5  0.7767175E-008  0.9563939E+03  0.7818608E-02  0.9440974E-01
         -1   -1    0    0    0  501 -0.00000000000E+00  0.00000000000E+00  0.17806457995E+04  0.17806457995E+04  0.50400000000E-02 0.  1.
          1   -1    0    0  501    0  0.00000000000E+00 -0.00000000000E+00 -0.12328666202E+04  0.12328666202E+04  0.50400000000E-02 0. -1.
    8880023    1    1    2    0    0 -0.69264047449E+03  0.33588960066E+02  0.15282825040E+04  0.18028690089E+04  0.65864270000E+03 0.  1.
    8880022    1    1    2    0    0  0.69264047449E+03 -0.33588960066E+02 -0.98050332471E+03  0.12106434107E+04  0.15294330000E+03 0.  0.
<mgrwt>
<rscale>  0 0.88779063E+03</rscale>
<asrwt>0</asrwt>
<pdfrwt beam="1">  1        1 0.18967179E+00 0.95639388E+03</pdfrwt>
<pdfrwt beam="2">  1       -1 0.27394550E+00 0.95639388E+03</pdfrwt>
<totfact> 0.50208189E-01</totfact>
</mgrwt>
</event>
<event>
 4    5  0.7767175E-008  0.6818511E+03  0.7818608E-02  0.1008295E+00
         -1   -1    0    0    0  501 -0.00000000000E+00  0.00000000000E+00  0.21324160831E+03  0.21324160837E+03  0.50400000000E-02 0.  1.
          1   -1    0    0  501    0  0.00000000000E+00 -0.00000000000E+00 -0.20974213818E+04  0.20974213819E+04  0.50400000000E-02 0. -1.
    8880023    1    1    2    0    0  0.96679205474E+02 -0.14752591939E+03 -0.36451459778E+03  0.77317000971E+03  0.65864270000E+03 0.  1.
    8880022    1    1    2    0    0 -0.96679205474E+02  0.14752591939E+03 -0.15196651758E+04  0.15374929805E+04  0.15294330000E+03 0.  0.
<mgrwt>
<rscale>  0 0.52157786E+03</rscale>
<asrwt>0</asrwt>
<pdfrwt beam="1">  1        1 0.32268020E+00 0.68185114E+03</pdfrwt>
<pdfrwt beam="2">  1       -1 0.32806403E-01 0.68185114E+03</pdfrwt>
<totfact> 0.23431097E+01</totfact>
</mgrwt>
</event>
<event>
 4    5  0.7767175E-008  0.8416648E+03  0.7818608E-02  0.9627049E-01
          1   -1    0    0  501    0  0.00000000000E+00  0.00000000000E+00  0.24217305123E+04  0.24217305123E+04  0.50400000000E-02 0. -1.
         -1   -1    0    0    0  501 -0.00000000000E+00 -0.00000000000E+00 -0.43370989206E+03  0.43370989209E+03  0.50400000000E-02 0.  1.
    8880023    1    1    2    0    0 -0.82425256121E+02  0.51748956269E+03  0.51262463377E+02  0.84322441660E+03  0.65864270000E+03 0.  1.
    8880022    1    1    2    0    0  0.82425256121E+02 -0.51748956269E+03  0.19367581569E+04  0.20122159878E+04  0.15294330000E+03 0.  0.
<mgrwt>
<rscale>  0 0.75531470E+03</rscale>
<asrwt>0</asrwt>
<pdfrwt beam="1">  1        1 0.37257392E+00 0.84166476E+03</pdfrwt>
<pdfrwt beam="2">  1       -1 0.66724599E-01 0.84166476E+03</pdfrwt>
<totfact> 0.36399597E+00</totfact>
</mgrwt>
</event>
<event>
 4    5  0.7767175E-008  0.9521516E+03  0.7818608E-02  0.9447025E-01
          1   -1    0    0  501    0  0.00000000000E+00  0.00000000000E+00  0.88812119730E+03  0.88812119731E+03  0.50400000000E-02 0. -1.
         -1   -1    0    0    0  501 -0.00000000000E+00 -0.00000000000E+00 -0.10646160304E+04  0.10646160304E+04  0.50400000000E-02 0.  1.
    8880023    1    1    2    0    0  0.58918501933E+03  0.35446216852E+03  0.40948433195E+03  0.10364699901E+04  0.65864270000E+03 0. -1.
    8880022    1    1    2    0    0 -0.58918501933E+03 -0.35446216852E+03 -0.58597916504E+03  0.91626723765E+03  0.15294330000E+03 0.  0.
<mgrwt>
<rscale>  0 0.88304701E+03</rscale>
<asrwt>0</asrwt>
<pdfrwt beam="1">  1        1 0.13663403E+00 0.95215158E+03</pdfrwt>
<pdfrwt beam="2">  1       -1 0.16378708E+00 0.95215158E+03</pdfrwt>
<totfact> 0.51345760E+00</totfact>
</mgrwt>
</event>
<event>
 4    5  0.7767175E-008  0.7446164E+03  0.7818608E-02  0.9846698E-01
          1   -1    0    0  501    0  0.00000000000E+00  0.00000000000E+00  0.33043421400E+03  0.33043421403E+03  0.50400000000E-02 0. -1.
         -1   -1    0    0    0  501 -0.00000000000E+00 -0.00000000000E+00 -0.15902044551E+04  0.15902044551E+04  0.50400000000E-02 0.  1.
    8880023    1    1    2    0    0  0.72005687186E+02 -0.33979195044E+03 -0.13397623573E+04  0.15327807309E+04  0.65864270000E+03 0.  1.
    8880022    1    1    2    0    0 -0.72005687186E+02  0.33979195044E+03  0.79992116254E+02  0.38785793823E+03  0.15294330000E+03 0.  0.
<mgrwt>
<rscale>  0 0.62915546E+03</rscale>
<asrwt>0</asrwt>
<pdfrwt beam="1">  1        1 0.50836034E-01 0.74461641E+03</pdfrwt>
<pdfrwt beam="2">  1       -1 0.24464683E+00 0.74461641E+03</pdfrwt>
<totfact> 0.60631955E+00</totfact>
</mgrwt>
</event>
<event>
 4    5  0.7767175E-008  0.1099516E+04  0.7818608E-02  0.9261596E-01
          1   -1    0    0  501    0  0.00000000000E+00  0.00000000000E+00  0.25805540094E+04  0.25805540094E+04  0.50400000000E-02 0. -1.
         -1   -1    0    0    0  501 -0.00000000000E+00 -0.00000000000E+00 -0.60172545013E+03  0.60172545016E+03  0.50400000000E-02 0.  1.
    8880023    1    1    2    0    0 -0.86462756786E+03  0.16596268385E+03  0.10281360353E+03  0.11043121329E+04  0.65864270000E+03 0.  1.
    8880022    1    1    2    0    0  0.86462756786E+03 -0.16596268385E+03  0.18760149558E+04  0.20779673267E+04  0.15294330000E+03 0.  0.
<mgrwt>
<rscale>  0 0.10439664E+04</rscale>
<asrwt>0</asrwt>
<pdfrwt beam="1">  1        1 0.39700832E+00 0.10995156E+04</pdfrwt>
<pdfrwt beam="2">  1       -1 0.92573144E-01 0.10995156E+04</pdfrwt>
<totfact> 0.13578179E+00</totfact>
</mgrwt>
</event>
<event>
 4    5  0.7767175E-008  0.7262649E+03  0.7818608E-02  0.9901931E-01
         -1   -1    0    0    0  501 -0.00000000000E+00  0.00000000000E+00  0.12600714818E+04  0.12600714818E+04  0.50400000000E-02 0.  1.
          1   -1    0    0  501    0  0.00000000000E+00 -0.00000000000E+00 -0.52933192903E+03  0.52933192905E+03  0.50400000000E-02 0. -1.
    8880023    1    1    2    0    0  0.14931376200E+03 -0.26712521065E+03  0.10793636229E+04  0.13009560002E+04  0.65864270000E+03 0.  1.
    8880022    1    1    2    0    0 -0.14931376200E+03  0.26712521065E+03 -0.34862407015E+03  0.48844741067E+03  0.15294330000E+03 0.  0.
<mgrwt>
<rscale>  0 0.60167790E+03</rscale>
<asrwt>0</asrwt>
<pdfrwt beam="1">  1        1 0.81435681E-01 0.72626489E+03</pdfrwt>
<pdfrwt beam="2">  1       -1 0.19385715E+00 0.72626489E+03</pdfrwt>
<totfact> 0.70486011E+00</totfact>
</mgrwt>
</event>
<event>
 4    5  0.7767175E-008  0.8820063E+03  0.7818608E-02  0.9555557E-01
         -1   -1    0    0    0  501 -0.00000000000E+00  0.00000000000E+00  0.64928464299E+03  0.64928464301E+03  0.50400000000E-02 0.  1.
          1   -1    0    0  501    0  0.00000000000E+00 -0.00000000000E+00 -0.14282145247E+04  0.14282145247E+04  0.50400000000E-02 0. -1.
    8880023    1    1    2    0    0 -0.44319074287E+03  0.38432649915E+03  0.21997788478E+03  0.90902440483E+03  0.65864270000E+03 0.  1.
    8880022    1    1    2    0    0  0.44319074287E+03 -0.38432649915E+03 -0.99890776652E+03  0.11684747629E+04  0.15294330000E+03 0.  0.
<mgrwt>
<rscale>  0 0.80308844E+03</rscale>
<asrwt>0</asrwt>
<pdfrwt beam="1">  1        1 0.21972531E+00 0.88200629E+03</pdfrwt>
<pdfrwt beam="2">  1       -1 0.99889945E-01 0.88200629E+03</pdfrwt>
<totfact> 0.71518112E+00</totfact>
</mgrwt>
</event>
<event>
 4    5  0.7767175E-008  0.6682550E+03  0.7818608E-02  0.1016946E+00
          1   -1    0    0  501    0  0.00000000000E+00  0.00000000000E+00  0.72925405392E+03  0.72925405394E+03  0.50400000000E-02 0. -1.
         -1   -1    0    0    0  501 -0.00000000000E+00 -0.00000000000E+00 -0.38528965902E+03  0.38528965906E+03  0.50400000000E-02 0.  1.
    8880023    1    1    2    0    0 -0.41753607409E+02  0.10493407971E+03 -0.57108258744E+02  0.67069075161E+03  0.65864270000E+03 0.  1.
    8880022    1    1    2    0    0  0.41753607409E+02 -0.10493407971E+03  0.40107265364E+03  0.44385296138E+03  0.15294330000E+03 0.  0.
<mgrwt>
<rscale>  0 0.48805016E+03</rscale>
<asrwt>0</asrwt>
<pdfrwt beam="1">  1        1 0.11219293E+00 0.66825499E+03</pdfrwt>
<pdfrwt beam="2">  1       -1 0.59275333E-01 0.66825499E+03</pdfrwt>
<totfact> 0.75829013E+01</totfact>
</mgrwt>
</event>
<event>
 4    5  0.7767175E-008  0.1119854E+04  0.7818608E-02  0.9239266E-01
         -1   -1    0    0    0  501 -0.00000000000E+00  0.00000000000E+00  0.82030686258E+03  0.82030686260E+03  0.50400000000E-02 0.  1.
          1   -1    0    0  501    0  0.00000000000E+00 -0.00000000000E+00 -0.33883336834E+04  0.33883336834E+04  0.50400000000E-02 0. -1.
    8880023    1    1    2    0    0 -0.62134425842E+03 -0.65893431958E+03  0.33086956768E+03  0.11677105815E+04  0.65864270000E+03 0.  0.
    8880022    1    1    2    0    0  0.62134425842E+03  0.65893431958E+03 -0.28988963885E+04  0.30409299646E+04  0.15294330000E+03 0.  0.
<mgrwt>
<rscale>  0 0.10657165E+04</rscale>
<asrwt>0</asrwt>
<pdfrwt beam="1">  1        1 0.52128210E+00 0.11198542E+04</pdfrwt>
<pdfrwt beam="2">  1       -1 0.12620106E+00 0.11198542E+04</pdfrwt>
<totfact> 0.16923326E-01</totfact>
</mgrwt>
</event>
<event>
 4    5  0.7767175E-008  0.7853043E+03  0.7818608E-02  0.9743521E-01
         -1   -1    0    0    0  501 -0.00000000000E+00  0.00000000000E+00  0.54713183938E+03  0.54713183940E+03  0.50400000000E-02 0.  1.
          1   -1    0    0  501    0  0.00000000000E+00 -0.00000000000E+00 -0.25148201930E+04  0.25148201930E+04  0.50400000000E-02 0. -1.
    8880023    1    1    2    0    0  0.13147454403E+03 -0.40694847561E+03 -0.23440469527E+04  0.24720960621E+04  0.65864270000E+03 0. -1.
    8880022    1    1    2    0    0 -0.13147454403E+03  0.40694847561E+03  0.37635859911E+03  0.58985597027E+03  0.15294330000E+03 0.  0.
<mgrwt>
<rscale>  0 0.68483625E+03</rscale>
<asrwt>0</asrwt>
<pdfrwt beam="1">  1        1 0.38689541E+00 0.78530429E+03</pdfrwt>
<pdfrwt beam="2">  1       -1 0.84174131E-01 0.78530429E+03</pdfrwt>
<totfact> 0.19555613E+00</totfact>
</mgrwt>
</event>
<event>
 4    5  0.7767175E-008  0.8258957E+03  0.7818608E-02  0.9657371E-01
         -1   -1    0    0    0  501 -0.00000000000E+00  0.00000000000E+00  0.83390168185E+03  0.83390168186E+03  0.50400000000E-02 0.  1.
          1   -1    0    0  501    0  0.00000000000E+00 -0.00000000000E+00 -0.10384851746E+04  0.10384851746E+04  0.50400000000E-02 0. -1.
    8880023    1    1    2    0    0  0.30124473188E+03  0.39691957444E+03  0.52285233235E+03  0.97748570566E+03  0.65864270000E+03 0.  1.
    8880022    1    1    2    0    0 -0.30124473188E+03 -0.39691957444E+03 -0.72743582506E+03  0.89490115077E+03  0.15294330000E+03 0.  0.
<mgrwt>
<rscale>  0 0.73612600E+03</rscale>
<asrwt>0</asrwt>
<pdfrwt beam="1">  1        1 0.15976695E+00 0.82589572E+03</pdfrwt>
<pdfrwt beam="2">  1       -1 0.12829257E+00 0.82589572E+03</pdfrwt>
<totfact> 0.75805327E+00</totfact>
</mgrwt>
</event>
<event>
 4    5  0.7767175E-008  0.1309193E+04  0.7818608E-02  0.9057662E-01
         -1   -1    0    0    0  501 -0.00000000000E+00  0.00000000000E+00  0.56915838362E+03  0.56915838364E+03  0.50400000000E-02 0.  1.
          1   -1    0    0  501    0  0.00000000000E+00 -0.00000000000E+00 -0.27456613800E+04  0.27456613800E+04  0.50400000000E-02 0. -1.
    8880023    1    1    2    0    0  0.87380640346E+01 -0.11314144635E+04 -0.14862931299E+04  0.19806697141E+04  0.65864270000E+03 0.  0.
    8880022    1    1    2    0    0 -0.87380640346E+01  0.11314144635E+04 -0.69020986648E+03  0.13341500496E+04  0.15294330000E+03 0.  0.
<mgrwt>
<rscale>  0 0.12651567E+04</rscale>
<asrwt>0</asrwt>
<pdfrwt beam="1">  1        1 0.42240944E+00 0.13091926E+04</pdfrwt>
<pdfrwt beam="2">  1       -1 0.87562829E-01 0.13091926E+04</pdfrwt>
<totfact> 0.11461123E+00</totfact>
</mgrwt>
</event>
<event>
 4    5  0.7767175E-008  0.9925543E+03  0.7818608E-02  0.9391364E-01
          1   -1    0    0  501    0  0.00000000000E+00  0.00000000000E+00  0.73069193765E+03  0.73069193767E+03  0.50400000000E-02 0. -1.
         -1   -1    0    0    0  501 -0.00000000000E+00 -0.00000000000E+00 -0.27579192471E+04  0.27579192471E+04  0.50400000000E-02 0.  1.
    8880023    1    1    2    0    0  0.74167079280E+03 -0.35753357759E+02 -0.24337571050E+04  0.26283716860E+04  0.65864270000E+03 0.  1.
    8880022    1    1    2    0    0 -0.74167079280E+03  0.35753357759E+02  0.40652979557E+03  0.86023949873E+03  0.15294330000E+03 0.  0.
<mgrwt>
<rscale>  0 0.92789784E+03</rscale>
<asrwt>0</asrwt>
<pdfrwt beam="1">  1        1 0.11241415E+00 0.99255432E+03</pdfrwt>
<pdfrwt beam="2">  1       -1 0.42429527E+00 0.99255432E+03</pdfrwt>
<totfact> 0.12770653E-01</totfact>
</mgrwt>
</event>
<event>
 4    5  0.7767175E-008  0.9188660E+03  0.7818608E-02  0.9496400E-01
          1   -1    0    0  501    0  0.00000000000E+00  0.00000000000E+00  0.28864639929E+04  0.28864639929E+04  0.50400000000E-02 0. -1.
         -1   -1    0    0    0  501 -0.00000000000E+00 -0.00000000000E+00 -0.38549552666E+03  0.38549552669E+03  0.50400000000E-02 0.  1.
    8880023    1    1    2    0    0 -0.21839294893E+03 -0.60233635496E+03  0.28785790184E+03  0.96290027654E+03  0.65864270000E+03 0.  0.
    8880022    1    1    2    0    0  0.21839294893E+03  0.60233635496E+03  0.22131105644E+04  0.23090592431E+04  0.15294330000E+03 0.  0.
<mgrwt>
<rscale>  0 0.84549760E+03</rscale>
<asrwt>0</asrwt>
<pdfrwt beam="1">  1        1 0.44407137E+00 0.91886602E+03</pdfrwt>
<pdfrwt beam="2">  1       -1 0.59307006E-01 0.91886602E+03</pdfrwt>
<totfact> 0.21635729E+00</totfact>
</mgrwt>
</event>
<event>
 4    5  0.7767175E-008  0.1324981E+04  0.7818608E-02  0.9044282E-01
         -1   -1    0    0    0  501 -0.00000000000E+00  0.00000000000E+00  0.84372672347E+03  0.84372672348E+03  0.50400000000E-02 0.  1.
          1   -1    0    0  501    0  0.00000000000E+00 -0.00000000000E+00 -0.28190001054E+04  0.28190001054E+04  0.50400000000E-02 0. -1.
    8880023    1    1    2    0    0 -0.32974408305E+03 -0.11013774560E+04 -0.21137335912E+04  0.24946830183E+04  0.65864270000E+03 0.  0.
    8880022    1    1    2    0    0  0.32974408305E+03  0.11013774560E+04  0.13846020928E+03  0.11680438106E+04  0.15294330000E+03 0.  0.
<mgrwt>
<rscale>  0 0.12816035E+04</rscale>
<asrwt>0</asrwt>
<pdfrwt beam="1">  1        1 0.43369232E+00 0.13249806E+04</pdfrwt>
<pdfrwt beam="2">  1       -1 0.12980411E+00 0.13249806E+04</pdfrwt>
<totfact> 0.40069220E-01</totfact>
</mgrwt>
</event>
<event>
 4    5  0.7767175E-008  0.7322410E+03  0.7818608E-02  0.9883154E-01
         -1   -1    0    0    0  501 -0.00000000000E+00  0.00000000000E+00  0.44109827990E+03  0.44109827993E+03  0.50400000000E-02 0.  1.
          1   -1    0    0  501    0  0.00000000000E+00 -0.00000000000E+00 -0.15422252343E+04  0.15422252343E+04  0.50400000000E-02 0. -1.
    8880023    1    1    2    0    0  0.29115312382E+03 -0.13265192897E+03  0.92565427590E+02  0.73806858788E+03  0.65864270000E+03 0.  1.
    8880022    1    1    2    0    0 -0.29115312382E+03  0.13265192897E+03 -0.11936923819E+04  0.12452549263E+04  0.15294330000E+03 0.  0.
<mgrwt>
<rscale>  0 0.61084725E+03</rscale>
<asrwt>0</asrwt>
<pdfrwt beam="1">  1        1 0.23726542E+00 0.73224100E+03</pdfrwt>
<pdfrwt beam="2">  1       -1 0.67861274E-01 0.73224100E+03</pdfrwt>
<totfact> 0.13982904E+01</totfact>
</mgrwt>
</event>
<event>
 4    5  0.7767175E-008  0.7340121E+03  0.7818608E-02  0.9877746E-01
         -1   -1    0    0    0  501 -0.00000000000E+00  0.00000000000E+00  0.83298949764E+03  0.83298949765E+03  0.50400000000E-02 0.  1.
          1   -1    0    0  501    0  0.00000000000E+00 -0.00000000000E+00 -0.16870094744E+04  0.16870094744E+04  0.50400000000E-02 0. -1.
    8880023    1    1    2    0    0 -0.32255980325E+03 -0.30310272033E+02  0.64599353430E+03  0.97779414596E+03  0.65864270000E+03 0.  0.
    8880022    1    1    2    0    0  0.32255980325E+03  0.30310272033E+02 -0.15000135111E+04  0.15422048261E+04  0.15294330000E+03 0.  0.
<mgrwt>
<rscale>  0 0.61352052E+03</rscale>
<asrwt>0</asrwt>
<pdfrwt beam="1">  1        1 0.25953992E+00 0.73401209E+03</pdfrwt>
<pdfrwt beam="2">  1       -1 0.12815223E+00 0.73401209E+03</pdfrwt>
<totfact> 0.26882307E+00</totfact>
</mgrwt>
</event>
<event>
 4    5  0.7767175E-008  0.6749196E+03  0.7818608E-02  0.1012357E+00
         -1   -1    0    0    0  501 -0.00000000000E+00  0.00000000000E+00  0.12753375289E+04  0.12753375289E+04  0.50400000000E-02 0.  1.
          1   -1    0    0  501    0  0.00000000000E+00 -0.00000000000E+00 -0.54221625182E+03  0.54221625185E+03  0.50400000000E-02 0. -1.
    8880023    1    1    2    0    0 -0.92411326462E+02 -0.11474499784E+03  0.11592682794E+04  0.13414243988E+04  0.65864270000E+03 0.  0.
    8880022    1    1    2    0    0  0.92411326462E+02  0.11474499784E+03 -0.42614700231E+03  0.47612938198E+03  0.15294330000E+03 0. -1.
<mgrwt>
<rscale>  0 0.50548538E+03</rscale>
<asrwt>0</asrwt>
<pdfrwt beam="1">  1        1 0.83417886E-01 0.67491961E+03</pdfrwt>
<pdfrwt beam="2">  1       -1 0.19620577E+00 0.67491961E+03</pdfrwt>
<totfact> 0.66163081E+00</totfact>
</mgrwt>
</event>
<event>
 4    5  0.7767175E-008  0.1068925E+04  0.7818608E-02  0.9296469E-01
          1   -1    0    0  501    0  0.00000000000E+00  0.00000000000E+00  0.12001418392E+04  0.12001418392E+04  0.50400000000E-02 0. -1.
         -1   -1    0    0    0  501 -0.00000000000E+00 -0.00000000000E+00 -0.77862137510E+03  0.77862137511E+03  0.50400000000E-02 0.  1.
    8880023    1    1    2    0    0  0.65669063717E+03  0.52682867615E+03  0.32731632677E+03  0.11179164687E+04  0.65864270000E+03 0.  0.
    8880022    1    1    2    0    0 -0.65669063717E+03 -0.52682867615E+03  0.94204137344E+02  0.86084674563E+03  0.15294330000E+03 0.  0.
<mgrwt>
<rscale>  0 0.10110856E+04</rscale>
<asrwt>0</asrwt>
<pdfrwt beam="1">  1        1 0.18463720E+00 0.10689253E+04</pdfrwt>
<pdfrwt beam="2">  1       -1 0.11978791E+00 0.10689253E+04</pdfrwt>
<totfact> 0.66148318E+00</totfact>
</mgrwt>
</event>
<event>
 4    5  0.7767175E-008  0.7198868E+03  0.7818608E-02  0.9922969E-01
         -1   -1    0    0    0  501 -0.00000000000E+00  0.00000000000E+00  0.99910942677E+02  0.99910942805E+02  0.50400000000E-02 0.  1.
          1   -1    0    0  501    0  0.00000000000E+00 -0.00000000000E+00 -0.48366559001E+04  0.48366559001E+04  0.50400000000E-02 0. -1.
    8880023    1    1    2    0    0  0.10678319542E+03 -0.27022988935E+03 -0.13154287137E+04  0.14995298433E+04  0.65864270000E+03 0.  1.
    8880022    1    1    2    0    0 -0.10678319542E+03  0.27022988935E+03 -0.34213162438E+04  0.34370369996E+04  0.15294330000E+03 0.  0.
<mgrwt>
<rscale>  0 0.59160908E+03</rscale>
<asrwt>0</asrwt>
<pdfrwt beam="1">  1        1 0.74410073E+00 0.71988683E+03</pdfrwt>
<pdfrwt beam="2">  1       -1 0.15370918E-01 0.71988683E+03</pdfrwt>
<totfact> 0.50144181E-01</totfact>
</mgrwt>
</event>
<event>
 4    5  0.7767175E-008  0.1026701E+04  0.7818608E-02  0.9347429E-01
          1   -1    0    0  501    0  0.00000000000E+00  0.00000000000E+00  0.18755278512E+04  0.18755278512E+04  0.50400000000E-02 0. -1.
         -1   -1    0    0    0  501 -0.00000000000E+00 -0.00000000000E+00 -0.97480702579E+03  0.97480702580E+03  0.50400000000E-02 0.  1.
    8880023    1    1    2    0    0  0.75449264231E+03 -0.22593303299E+03 -0.57050930748E+03  0.11745620285E+04  0.65864270000E+03 0.  1.
    8880022    1    1    2    0    0 -0.75449264231E+03  0.22593303299E+03  0.14712301329E+04  0.16757728484E+04  0.15294330000E+03 0.  0.
<mgrwt>
<rscale>  0 0.96531301E+03</rscale>
<asrwt>0</asrwt>
<pdfrwt beam="1">  1        1 0.28854275E+00 0.10267011E+04</pdfrwt>
<pdfrwt beam="2">  1       -1 0.14997031E+00 0.10267011E+04</pdfrwt>
<totfact> 0.12705604E+00</totfact>
</mgrwt>
</event>
<event>
 4    5  0.7767175E-008  0.1342844E+04  0.7818608E-02  0.9029417E-01
         -1   -1    0    0    0  501 -0.00000000000E+00  0.00000000000E+00  0.79176746207E+03  0.79176746208E+03  0.50400000000E-02 0.  1.
          1   -1    0    0  501    0  0.00000000000E+00 -0.00000000000E+00 -0.24028027968E+04  0.24028027968E+04  0.50400000000E-02 0. -1.
    8880023    1    1    2    0    0 -0.11405225257E+04 -0.26196765446E+03 -0.20421624848E+03  0.13582831686E+04  0.65864270000E+03 0. -1.
    8880022    1    1    2    0    0  0.11405225257E+04  0.26196765446E+03 -0.14068190863E+04  0.18362870903E+04  0.15294330000E+03 0.  0.
<mgrwt>
<rscale>  0 0.13001863E+04</rscale>
<asrwt>0</asrwt>
<pdfrwt beam="1">  1        1 0.36966197E+00 0.13428436E+04</pdfrwt>
<pdfrwt beam="2">  1       -1 0.12181038E+00 0.13428436E+04</pdfrwt>
<totfact> 0.91555969E-01</totfact>
</mgrwt>
</event>
<event>
 4    5  0.7767175E-008  0.6999422E+03  0.7818608E-02  0.9997441E-01
         -1   -1    0    0    0  501 -0.00000000000E+00  0.00000000000E+00  0.16465066227E+04  0.16465066227E+04  0.50400000000E-02 0.  1.
          1   -1    0    0  501    0  0.00000000000E+00 -0.00000000000E+00 -0.14043178919E+04  0.14043178919E+04  0.50400000000E-02 0. -1.
    8880023    1    1    2    0    0  0.91688970315E+02  0.21840791550E+03  0.15564850900E+04  0.17066238386E+04  0.65864270000E+03 0.  1.
    8880022    1    1    2    0    0 -0.91688970315E+02 -0.21840791550E+03 -0.13142963592E+04  0.13442006761E+04  0.15294330000E+03 0.  0.
<mgrwt>
<rscale>  0 0.55762585E+03</rscale>
<asrwt>0</asrwt>
<pdfrwt beam="1">  1        1 0.21604891E+00 0.69994221E+03</pdfrwt>
<pdfrwt beam="2">  1       -1 0.25330871E+00 0.69994221E+03</pdfrwt>
<totfact> 0.54279695E-01</totfact>
</mgrwt>
</event>
<event>
 4    5  0.7767175E-008  0.6932754E+03  0.7818608E-02  0.1002633E+00
          1   -1    0    0  501    0  0.00000000000E+00  0.00000000000E+00  0.11254405764E+04  0.11254405764E+04  0.50400000000E-02 0. -1.
         -1   -1    0    0    0  501 -0.00000000000E+00 -0.00000000000E+00 -0.24912989053E+03  0.24912989058E+03  0.50400000000E-02 0.  1.
    8880023    1    1    2    0    0 -0.11999203377E+03 -0.18006248854E+03  0.33089202279E+03  0.76819289567E+03  0.65864270000E+03 0.  1.
    8880022    1    1    2    0    0  0.11999203377E+03  0.18006248854E+03  0.54541866309E+03  0.60637757133E+03  0.15294330000E+03 0.  0.
<mgrwt>
<rscale>  0 0.54510599E+03</rscale>
<asrwt>0</asrwt>
<pdfrwt beam="1">  1        1 0.17314470E+00 0.69327541E+03</pdfrwt>
<pdfrwt beam="2">  1       -1 0.38327676E-01 0.69327541E+03</pdfrwt>
<totfact> 0.82028570E+01</totfact>
</mgrwt>
</event>
<event>
 4    5  0.7767175E-008  0.8302619E+03  0.7818608E-02  0.9648823E-01
          1   -1    0    0  501    0  0.00000000000E+00  0.00000000000E+00  0.22578401589E+04  0.22578401589E+04  0.50400000000E-02 0. -1.
         -1   -1    0    0    0  501 -0.00000000000E+00 -0.00000000000E+00 -0.32377309631E+03  0.32377309635E+03  0.50400000000E-02 0.  1.
    8880023    1    1    2    0    0  0.12973329345E+03  0.48856312553E+03  0.33103048487E+03  0.89382103535E+03  0.65864270000E+03 0.  0.
    8880022    1    1    2    0    0 -0.12973329345E+03 -0.48856312553E+03  0.16030365777E+04  0.16877922199E+04  0.15294330000E+03 0.  0.
<mgrwt>
<rscale>  0 0.74147341E+03</rscale>
<asrwt>0</asrwt>
<pdfrwt beam="1">  1        1 0.34736004E+00 0.83026192E+03</pdfrwt>
<pdfrwt beam="2">  1       -1 0.49811243E-01 0.83026192E+03</pdfrwt>
<totfact> 0.83467428E+00</totfact>
</mgrwt>
</event>
<event>
 4    5  0.7767175E-008  0.9909986E+03  0.7818608E-02  0.9393430E-01
          1   -1    0    0  501    0  0.00000000000E+00  0.00000000000E+00  0.11516058502E+04  0.11516058502E+04  0.50400000000E-02 0. -1.
         -1   -1    0    0    0  501 -0.00000000000E+00 -0.00000000000E+00 -0.11776444201E+04  0.11776444202E+04  0.50400000000E-02 0.  1.
    8880023    1    1    2    0    0  0.72672336839E+03 -0.14191978884E+03 -0.78026098122E+03  0.12613030903E+04  0.65864270000E+03 0.  1.
    8880022    1    1    2    0    0 -0.72672336839E+03  0.14191978884E+03  0.75422241123E+03  0.10679471800E+04  0.15294330000E+03 0.  0.
<mgrwt>
<rscale>  0 0.92618340E+03</rscale>
<asrwt>0</asrwt>
<pdfrwt beam="1">  1        1 0.17717013E+00 0.99099863E+03</pdfrwt>
<pdfrwt beam="2">  1       -1 0.18117607E+00 0.99099863E+03</pdfrwt>
<totfact> 0.23799123E+00</totfact>
</mgrwt>
</event>
<event>
 4    5  0.7767175E-008  0.6804078E+03  0.7818608E-02  0.1009094E+00
         -1   -1    0    0    0  501 -0.00000000000E+00  0.00000000000E+00  0.16775723915E+03  0.16775723923E+03  0.50400000000E-02 0.  1.
          1   -1    0    0  501    0  0.00000000000E+00 -0.00000000000E+00 -0.12388135824E+04  0.12388135824E+04  0.50400000000E-02 0. -1.
    8880023    1    1    2    0    0 -0.10338691697E+02  0.17040450286E+03 -0.75818131070E+03  0.10187215956E+04  0.65864270000E+03 0.  1.
    8880022    1    1    2    0    0  0.10338691697E+02 -0.17040450286E+03 -0.31287503251E+03  0.38784922602E+03  0.15294330000E+03 0. -1.
<mgrwt>
<rscale>  0 0.51836341E+03</rscale>
<asrwt>0</asrwt>
<pdfrwt beam="1">  1        1 0.19058670E+00 0.68040781E+03</pdfrwt>
<pdfrwt beam="2">  1       -1 0.25808807E-01 0.68040781E+03</pdfrwt>
<totfact> 0.13590665E+02</totfact>
</mgrwt>
</event>
<event>
 4    5  0.7767175E-008  0.8778917E+03  0.7818608E-02  0.9562497E-01
          1   -1    0    0  501    0  0.00000000000E+00  0.00000000000E+00  0.18859055618E+04  0.18859055618E+04  0.50400000000E-02 0. -1.
         -1   -1    0    0    0  501 -0.00000000000E+00 -0.00000000000E+00 -0.63599387364E+03  0.63599387366E+03  0.50400000000E-02 0.  1.
    8880023    1    1    2    0    0  0.54036979569E+03  0.21185889631E+03 -0.24462390282E+03  0.91133680280E+03  0.65864270000E+03 0.  0.
    8880022    1    1    2    0    0 -0.54036979569E+03 -0.21185889631E+03  0.14945355910E+04  0.16105626326E+04  0.15294330000E+03 0.  0.
<mgrwt>
<rscale>  0 0.79828881E+03</rscale>
<asrwt>0</asrwt>
<pdfrwt beam="1">  1        1 0.29013931E+00 0.87789174E+03</pdfrwt>
<pdfrwt beam="2">  1       -1 0.97845213E-01 0.87789174E+03</pdfrwt>
<totfact> 0.36652342E+00</totfact>
</mgrwt>
</event>
<event>
 4    5  0.7767175E-008  0.1019247E+04  0.7818608E-02  0.9356799E-01
          1   -1    0    0  501    0  0.00000000000E+00  0.00000000000E+00  0.18738827279E+04  0.18738827279E+04  0.50400000000E-02 0. -1.
         -1   -1    0    0    0  501 -0.00000000000E+00 -0.00000000000E+00 -0.10639488648E+04  0.10639488648E+04  0.50400000000E-02 0.  1.
    8880023    1    1    2    0    0 -0.77784696093E+03  0.29136002253E+01 -0.69722284011E+03  0.12349025382E+04  0.65864270000E+03 0.  1.
    8880022    1    1    2    0    0  0.77784696093E+03 -0.29136002253E+01  0.15071567032E+04  0.17029290545E+04  0.15294330000E+03 0.  0.
<mgrwt>
<rscale>  0 0.95717887E+03</rscale>
<asrwt>0</asrwt>
<pdfrwt beam="1">  1        1 0.28828965E+00 0.10192471E+04</pdfrwt>
<pdfrwt beam="2">  1       -1 0.16368444E+00 0.10192471E+04</pdfrwt>
<totfact> 0.10015720E+00</totfact>
</mgrwt>
</event>
<event>
 4    5  0.7767175E-008  0.7900575E+03  0.7818608E-02  0.9732721E-01
          1   -1    0    0  501    0  0.00000000000E+00  0.00000000000E+00  0.10086368910E+04  0.10086368910E+04  0.50400000000E-02 0. -1.
         -1   -1    0    0    0  501 -0.00000000000E+00 -0.00000000000E+00 -0.46931624401E+03  0.46931624404E+03  0.50400000000E-02 0.  1.
    8880023    1    1    2    0    0  0.43609730144E+03  0.14136342125E+02  0.30790168139E+02  0.79065727923E+03  0.65864270000E+03 0.  0.
    8880022    1    1    2    0    0 -0.43609730144E+03 -0.14136342125E+02  0.50853047886E+03  0.68729585583E+03  0.15294330000E+03 0.  0.
<mgrwt>
<rscale>  0 0.69101580E+03</rscale>
<asrwt>0</asrwt>
<pdfrwt beam="1">  1        1 0.15517490E+00 0.79005753E+03</pdfrwt>
<pdfrwt beam="2">  1       -1 0.72202500E-01 0.79005753E+03</pdfrwt>
<totfact> 0.29488181E+01</totfact>
</mgrwt>
</event>
<event>
 4    5  0.1286056E-007  0.7126129E+03  0.7818608E-02  0.9948423E-01
          1   -1    0    0  501    0  0.00000000000E+00  0.00000000000E+00  0.18809580024E+04  0.18809580024E+04  0.50400000000E-02 0. -1.
         -1   -1    0    0    0  501 -0.00000000000E+00 -0.00000000000E+00 -0.16185118411E+04  0.16185118411E+04  0.50400000000E-02 0.  1.
    8880023    1    1    2    0    0  0.10834397955E+03  0.24953649702E+03 -0.15258988986E+04  0.16840975436E+04  0.65864270000E+03 0.  1.
    8880022    1    1    2    0    0 -0.10834397955E+03 -0.24953649702E+03  0.17883450599E+04  0.18153722999E+04  0.15294330000E+03 0.  0.
<mgrwt>
<rscale>  0 0.57970800E+03</rscale>
<asrwt>0</asrwt>
<pdfrwt beam="1">  1        1 0.28937816E+00 0.71261286E+03</pdfrwt>
<pdfrwt beam="2">  1       -1 0.24900182E+00 0.71261286E+03</pdfrwt>
<totfact> 0.27453626E-01</totfact>
</mgrwt>
</event>
<event>
 4    5  0.7767175E-008  0.1155809E+04  0.7818608E-02  0.9201323E-01
          1   -1    0    0  501    0  0.00000000000E+00  0.00000000000E+00  0.24049022660E+04  0.24049022660E+04  0.50400000000E-02 0. -1.
         -1   -1    0    0    0  501 -0.00000000000E+00 -0.00000000000E+00 -0.64916646523E+03  0.64916646525E+03  0.50400000000E-02 0.  1.
    8880023    1    1    2    0    0  0.71228716318E+03  0.62827725534E+03  0.12743290712E+03  0.11628132543E+04  0.65864270000E+03 0.  0.
    8880022    1    1    2    0    0 -0.71228716318E+03 -0.62827725534E+03  0.16283028936E+04  0.18912554769E+04  0.15294330000E+03 0.  0.
<mgrwt>
<rscale>  0 0.11039779E+04</rscale>
<asrwt>0</asrwt>
<pdfrwt beam="1">  1        1 0.36998496E+00 0.11558095E+04</pdfrwt>
<pdfrwt beam="2">  1       -1 0.99871765E-01 0.11558095E+04</pdfrwt>
<totfact> 0.14992882E+00</totfact>
</mgrwt>
</event>
<event>
 4    5  0.7767175E-008  0.7350959E+03  0.7818608E-02  0.9874470E-01
         -1   -1    0    0    0  501 -0.00000000000E+00  0.00000000000E+00  0.48608562249E+03  0.48608562252E+03  0.50400000000E-02 0.  1.
          1   -1    0    0  501    0  0.00000000000E+00 -0.00000000000E+00 -0.18581092615E+04  0.18581092615E+04  0.50400000000E-02 0. -1.
    8880023    1    1    2    0    0  0.27137146355E+03 -0.18142019956E+03  0.17507280306E+03  0.75565630592E+03  0.65864270000E+03 0.  1.
    8880022    1    1    2    0    0 -0.27137146355E+03  0.18142019956E+03 -0.15470964421E+04  0.15885385781E+04  0.15294330000E+03 0.  0.
<mgrwt>
<rscale>  0 0.61514706E+03</rscale>
<asrwt>0</asrwt>
<pdfrwt beam="1">  1        1 0.28586296E+00 0.73509589E+03</pdfrwt>
<pdfrwt beam="2">  1       -1 0.74782404E-01 0.73509589E+03</pdfrwt>
<totfact> 0.70145577E+00</totfact>
</mgrwt>
</event>
<event>
 4    5  0.7767175E-008  0.2406917E+04  0.7818608E-02  0.8445174E-01
          1   -1    0    0  501    0  0.00000000000E+00  0.00000000000E+00  0.24392556774E+04  0.24392556774E+04  0.50400000000E-02 0. -1.
         -1   -1    0    0    0  501 -0.00000000000E+00 -0.00000000000E+00 -0.23344444307E+04  0.23344444307E+04  0.50400000000E-02 0.  1.
    8880023    1    1    2    0    0  0.21139373240E+04 -0.94377303672E+03 -0.27553959201E+03  0.24226371638E+04  0.65864270000E+03 0.  0.
    8880022    1    1    2    0    0 -0.21139373240E+04  0.94377303672E+03  0.38035083867E+03  0.23510629443E+04  0.15294330000E+03 0.  0.
<mgrwt>
<rscale>  0 0.23849109E+04</rscale>
<asrwt>0</asrwt>
<pdfrwt beam="1">  1        1 0.37527010E+00 0.24069169E+04</pdfrwt>
<pdfrwt beam="2">  1       -1 0.35914530E+00 0.24069169E+04</pdfrwt>
<totfact> 0.17138909E-02</totfact>
</mgrwt>
</event>
<event>
 4    5  0.7767175E-008  0.8891547E+03  0.7818608E-02  0.9543671E-01
          1   -1    0    0  501    0  0.00000000000E+00  0.00000000000E+00  0.12236413944E+04  0.12236413944E+04  0.50400000000E-02 0. -1.
         -1   -1    0    0    0  501 -0.00000000000E+00 -0.00000000000E+00 -0.81261360942E+03  0.81261360944E+03  0.50400000000E-02 0.  1.
    8880023    1    1    2    0    0  0.59635136143E+03 -0.33924543007E+02 -0.43461851981E+03  0.98969150998E+03  0.65864270000E+03 0.  1.
    8880022    1    1    2    0    0 -0.59635136143E+03  0.33924543007E+02  0.84564630479E+03  0.10465634939E+04  0.15294330000E+03 0.  0.
<mgrwt>
<rscale>  0 0.81139305E+03</rscale>
<asrwt>0</asrwt>
<pdfrwt beam="1">  1        1 0.18825252E+00 0.88915467E+03</pdfrwt>
<pdfrwt beam="2">  1       -1 0.12501748E+00 0.88915467E+03</pdfrwt>
<totfact> 0.58434635E+00</totfact>
</mgrwt>
</event>
<event>
 4    5  0.7767175E-008  0.1587360E+04  0.7818608E-02  0.8850291E-01
         -1   -1    0    0    0  501 -0.00000000000E+00  0.00000000000E+00  0.92612120157E+03  0.92612120158E+03  0.50400000000E-02 0.  1.
          1   -1    0    0  501    0  0.00000000000E+00 -0.00000000000E+00 -0.29026341642E+04  0.29026341642E+04  0.50400000000E-02 0. -1.
    8880023    1    1    2    0    0 -0.11896779976E+04  0.81888135848E+03 -0.30848502918E+03  0.16170570914E+04  0.65864270000E+03 0.  0.
    8880022    1    1    2    0    0  0.11896779976E+04 -0.81888135848E+03 -0.16680279335E+04  0.22116982744E+04  0.15294330000E+03 0.  0.
<mgrwt>
<rscale>  0 0.15524713E+04</rscale>
<asrwt>0</asrwt>
<pdfrwt beam="1">  1        1 0.44655910E+00 0.15873596E+04</pdfrwt>
<pdfrwt beam="2">  1       -1 0.14248019E+00 0.15873596E+04</pdfrwt>
<totfact> 0.26540976E-01</totfact>
</mgrwt>
</event>
<event>
 4    5  0.8791411E-008  0.1408615E+04  0.7818608E-02  0.8977017E-01
          1   -1    0    0  501    0  0.00000000000E+00  0.00000000000E+00  0.21707188012E+04  0.21707188012E+04  0.50400000000E-02 0. -1.
         -1   -1    0    0    0  501 -0.00000000000E+00 -0.00000000000E+00 -0.15616361984E+04  0.15616361984E+04  0.50400000000E-02 0.  1.
    8880023    1    1    2    0    0 -0.21945474275E+02 -0.12449514664E+04 -0.97393261887E+03  0.17125246596E+04  0.65864270000E+03 0.  0.
    8880022    1    1    2    0    0  0.21945474275E+02  0.12449514664E+04  0.15830152216E+04  0.20198303400E+04  0.15294330000E+03 0.  0.
<mgrwt>
<rscale>  0 0.13683970E+04</rscale>
<asrwt>0</asrwt>
<pdfrwt beam="1">  1        1 0.33395673E+00 0.14086149E+04</pdfrwt>
<pdfrwt beam="2">  1       -1 0.24025173E+00 0.14086149E+04</pdfrwt>
<totfact> 0.17586333E-01</totfact>
</mgrwt>
</event>
<event>
 4    5  0.7767175E-008  0.1578698E+04  0.7818608E-02  0.8855975E-01
         -1   -1    0    0    0  501 -0.00000000000E+00  0.00000000000E+00  0.13290116822E+04  0.13290116822E+04  0.50400000000E-02 0.  1.
          1   -1    0    0  501    0  0.00000000000E+00 -0.00000000000E+00 -0.24730189840E+04  0.24730189840E+04  0.50400000000E-02 0. -1.
    8880023    1    1    2    0    0 -0.12463478585E+04  0.71070012905E+03  0.46019836012E+03  0.16444057877E+04  0.65864270000E+03 0.  0.
    8880022    1    1    2    0    0  0.12463478585E+04 -0.71070012905E+03 -0.16042056619E+04  0.21576248785E+04  0.15294330000E+03 0.  0.
<mgrwt>
<rscale>  0 0.15435866E+04</rscale>
<asrwt>0</asrwt>
<pdfrwt beam="1">  1        1 0.38046446E+00 0.15786982E+04</pdfrwt>
<pdfrwt beam="2">  1       -1 0.20446333E+00 0.15786982E+04</pdfrwt>
<totfact> 0.18572244E-01</totfact>
</mgrwt>
</event>
<event>
 4    5  0.7767175E-008  0.7197016E+03  0.7818608E-02  0.9923597E-01
         -1   -1    0    0    0  501 -0.00000000000E+00  0.00000000000E+00  0.92367744524E+03  0.92367744525E+03  0.50400000000E-02 0.  1.
          1   -1    0    0  501    0  0.00000000000E+00 -0.00000000000E+00 -0.89374123756E+03  0.89374123757E+03  0.50400000000E-02 0. -1.
    8880023    1    1    2    0    0 -0.28494499803E+03  0.54465290576E+02  0.74185461329E+03  0.10335949851E+04  0.65864270000E+03 0.  1.
    8880022    1    1    2    0    0  0.28494499803E+03 -0.54465290576E+02 -0.71191840561E+03  0.78382369768E+03  0.15294330000E+03 0.  0.
<mgrwt>
<rscale>  0 0.59131177E+03</rscale>
<asrwt>0</asrwt>
<pdfrwt beam="1">  1        1 0.13749865E+00 0.71970155E+03</pdfrwt>
<pdfrwt beam="2">  1       -1 0.14210422E+00 0.71970155E+03</pdfrwt>
<totfact> 0.77018599E+00</totfact>
</mgrwt>
</event>
<event>
 4    5  0.7767175E-008  0.8450471E+03  0.7818608E-02  0.9620736E-01
          1   -1    0    0  501    0  0.00000000000E+00  0.00000000000E+00  0.42188544202E+03  0.42188544205E+03  0.50400000000E-02 0. -1.
         -1   -1    0    0    0  501 -0.00000000000E+00 -0.00000000000E+00 -0.11950563215E+04  0.11950563215E+04  0.50400000000E-02 0.  1.
    8880023    1    1    2    0    0  0.45611468559E+03  0.26880052529E+03 -0.61001244111E+03  0.10422186495E+04  0.65864270000E+03 0.  1.
    8880022    1    1    2    0    0 -0.45611468559E+03 -0.26880052529E+03 -0.16315843837E+03  0.57472311406E+03  0.15294330000E+03 0. -1.
<mgrwt>
<rscale>  0 0.75938806E+03</rscale>
<asrwt>0</asrwt>
<pdfrwt beam="1">  1        1 0.64905453E-01 0.84504706E+03</pdfrwt>
<pdfrwt beam="2">  1       -1 0.18385482E+00 0.84504706E+03</pdfrwt>
<totfact> 0.11119154E+01</totfact>
</mgrwt>
</event>
<event>
 4    5  0.7767175E-008  0.8219175E+03  0.7818608E-02  0.9665268E-01
          1   -1    0    0  501    0  0.00000000000E+00  0.00000000000E+00  0.14540129660E+04  0.14540129660E+04  0.50400000000E-02 0. -1.
         -1   -1    0    0    0  501 -0.00000000000E+00 -0.00000000000E+00 -0.63132848360E+03  0.63132848362E+03  0.50400000000E-02 0.  1.
    8880023    1    1    2    0    0  0.25131770883E+03  0.42258439241E+03 -0.28004753172E+03  0.86831733011E+03  0.65864270000E+03 0.  1.
    8880022    1    1    2    0    0 -0.25131770883E+03 -0.42258439241E+03  0.11027320141E+04  0.12170241195E+04  0.15294330000E+03 0.  0.
<mgrwt>
<rscale>  0 0.73122914E+03</rscale>
<asrwt>0</asrwt>
<pdfrwt beam="1">  1        1 0.22369430E+00 0.82191749E+03</pdfrwt>
<pdfrwt beam="2">  1       -1 0.97127461E-01 0.82191749E+03</pdfrwt>
<totfact> 0.73752746E+00</totfact>
</mgrwt>
</event>
<event>
 4    5  0.7767175E-008  0.6909724E+03  0.7818608E-02  0.1003694E+00
          1   -1    0    0  501    0  0.00000000000E+00  0.00000000000E+00  0.17952533790E+04  0.17952533791E+04  0.50400000000E-02 0. -1.
         -1   -1    0    0    0  501 -0.00000000000E+00 -0.00000000000E+00 -0.51662906591E+03  0.51662906594E+03  0.50400000000E-02 0.  1.
    8880023    1    1    2    0    0 -0.20092197460E+03  0.57122424576E+02 -0.26993806451E+03  0.74182840078E+03  0.65864270000E+03 0.  1.
    8880022    1    1    2    0    0  0.20092197460E+03 -0.57122424576E+02  0.15485623776E+04  0.15700540442E+04  0.15294330000E+03 0.  0.
<mgrwt>
<rscale>  0 0.54059810E+03</rscale>
<asrwt>0</asrwt>
<pdfrwt beam="1">  1        1 0.27619282E+00 0.69097237E+03</pdfrwt>
<pdfrwt beam="2">  1       -1 0.79481396E-01 0.69097237E+03</pdfrwt>
<totfact> 0.68521107E+00</totfact>
</mgrwt>
</event>
<event>
 4    5  0.7767175E-008  0.1102482E+04  0.7818608E-02  0.9258297E-01
         -1   -1    0    0    0  501 -0.00000000000E+00  0.00000000000E+00  0.12211520186E+04  0.12211520186E+04  0.50400000000E-02 0.  1.
          1   -1    0    0  501    0  0.00000000000E+00 -0.00000000000E+00 -0.10626340315E+04  0.10626340315E+04  0.50400000000E-02 0. -1.
    8880023    1    1    2    0    0 -0.59592363768E+03 -0.65309440700E+03 -0.45938035485E+03  0.11943608345E+04  0.65864270000E+03 0.  0.
    8880022    1    1    2    0    0  0.59592363768E+03  0.65309440700E+03  0.61789834194E+03  0.10894252156E+04  0.15294330000E+03 0.  0.
<mgrwt>
<rscale>  0 0.10471443E+04</rscale>
<asrwt>0</asrwt>
<pdfrwt beam="1">  1        1 0.16348216E+00 0.11024824E+04</pdfrwt>
<pdfrwt beam="2">  1       -1 0.18786954E+00 0.11024824E+04</pdfrwt>
<totfact> 0.24543402E+00</totfact>
</mgrwt>
</event>
<event>
 4    5  0.7767175E-008  0.1194208E+04  0.7818608E-02  0.9162773E-01
          1   -1    0    0  501    0  0.00000000000E+00  0.00000000000E+00  0.23471377471E+04  0.23471377471E+04  0.50400000000E-02 0. -1.
         -1   -1    0    0    0  501 -0.00000000000E+00 -0.00000000000E+00 -0.55413486546E+03  0.55413486549E+03  0.50400000000E-02 0.  1.
    8880023    1    1    2    0    0  0.36330224132E+03 -0.92754161928E+03  0.13441321267E+04  0.17980053821E+04  0.65864270000E+03 0.  0.
    8880022    1    1    2    0    0 -0.36330224132E+03  0.92754161928E+03  0.44887075495E+03  0.11032672304E+04  0.15294330000E+03 0.  0.
<mgrwt>
<rscale>  0 0.11446068E+04</rscale>
<asrwt>0</asrwt>
<pdfrwt beam="1">  1        1 0.36109811E+00 0.11942078E+04</pdfrwt>
<pdfrwt beam="2">  1       -1 0.85251519E-01 0.11942078E+04</pdfrwt>
<totfact> 0.23283260E+00</totfact>
</mgrwt>
</event>
<event>
 4    5  0.7767175E-008  0.8269693E+03  0.7818608E-02  0.9655258E-01
         -1   -1    0    0    0  501 -0.00000000000E+00  0.00000000000E+00  0.13570182551E+04  0.13570182551E+04  0.50400000000E-02 0.  1.
          1   -1    0    0  501    0  0.00000000000E+00 -0.00000000000E+00 -0.14113821877E+04  0.14113821877E+04  0.50400000000E-02 0. -1.
    8880023    1    1    2    0    0 -0.44390144431E+03  0.23025952034E+03  0.11724678224E+04  0.14347679045E+04  0.65864270000E+03 0.  1.
    8880022    1    1    2    0    0  0.44390144431E+03 -0.23025952034E+03 -0.12268317550E+04  0.13336325383E+04  0.15294330000E+03 0.  0.
<mgrwt>
<rscale>  0 0.73744336E+03</rscale>
<asrwt>0</asrwt>
<pdfrwt beam="1">  1        1 0.21713572E+00 0.82696925E+03</pdfrwt>
<pdfrwt beam="2">  1       -1 0.20877204E+00 0.82696925E+03</pdfrwt>
<totfact> 0.10245895E+00</totfact>
</mgrwt>
</event>
<event>
 4    5  0.7767175E-008  0.8094703E+03  0.7818608E-02  0.9690681E-01
          1   -1    0    0  501    0  0.00000000000E+00  0.00000000000E+00  0.30536588300E+04  0.30536588300E+04  0.50400000000E-02 0. -1.
         -1   -1    0    0    0  501 -0.00000000000E+00 -0.00000000000E+00 -0.10929724243E+04  0.10929724243E+04  0.50400000000E-02 0.  1.
    8880023    1    1    2    0    0  0.40908480519E+03  0.23255451679E+03 -0.91904654260E+03  0.12246994467E+04  0.65864270000E+03 0.  1.
    8880022    1    1    2    0    0 -0.40908480519E+03 -0.23255451679E+03  0.28797329483E+04  0.29219318075E+04  0.15294330000E+03 0.  0.
<mgrwt>
<rscale>  0 0.71574342E+03</rscale>
<asrwt>0</asrwt>
<pdfrwt beam="1">  1        1 0.46979366E+00 0.80947031E+03</pdfrwt>
<pdfrwt beam="2">  1       -1 0.16814961E+00 0.80947031E+03</pdfrwt>
<totfact> 0.14893487E-01</totfact>
</mgrwt>
</event>
<event>
 4    5  0.7767175E-008  0.8903967E+03  0.7818608E-02  0.9541627E-01
         -1   -1    0    0    0  501 -0.00000000000E+00  0.00000000000E+00  0.12915966221E+04  0.12915966221E+04  0.50400000000E-02 0.  1.
          1   -1    0    0  501    0  0.00000000000E+00 -0.00000000000E+00 -0.11617988112E+04  0.11617988112E+04  0.50400000000E-02 0. -1.
    8880023    1    1    2    0    0  0.58722633096E+03 -0.11900135257E+03  0.10298449273E+04  0.13613915183E+04  0.65864270000E+03 0.  1.
    8880022    1    1    2    0    0 -0.58722633096E+03  0.11900135257E+03 -0.90004711634E+03  0.10920039150E+04  0.15294330000E+03 0.  0.
<mgrwt>
<rscale>  0 0.81283174E+03</rscale>
<asrwt>0</asrwt>
<pdfrwt beam="1">  1        1 0.17873828E+00 0.89039670E+03</pdfrwt>
<pdfrwt beam="2">  1       -1 0.19870717E+00 0.89039670E+03</pdfrwt>
<totfact> 0.17881250E+00</totfact>
</mgrwt>
</event>
<event>
 4    5  0.7767175E-008  0.8605463E+03  0.7818608E-02  0.9592592E-01
          1   -1    0    0  501    0  0.00000000000E+00  0.00000000000E+00  0.17146521657E+04  0.17146521657E+04  0.50400000000E-02 0. -1.
         -1   -1    0    0    0  501 -0.00000000000E+00 -0.00000000000E+00 -0.40117570043E+03  0.40117570046E+03  0.50400000000E-02 0.  1.
    8880023    1    1    2    0    0 -0.59362233094E+02 -0.55064130943E+03  0.23211350676E+03  0.89130051759E+03  0.65864270000E+03 0.  1.
    8880022    1    1    2    0    0  0.59362233094E+02  0.55064130943E+03  0.10813629585E+04  0.12245273486E+04  0.15294330000E+03 0.  0.
<mgrwt>
<rscale>  0 0.77788409E+03</rscale>
<asrwt>0</asrwt>
<pdfrwt beam="1">  1        1 0.26379264E+00 0.86054630E+03</pdfrwt>
<pdfrwt beam="2">  1       -1 0.61719339E-01 0.86054630E+03</pdfrwt>
<totfact> 0.12704761E+01</totfact>
</mgrwt>
</event>
<event>
 4    5  0.7767175E-008  0.9489963E+03  0.7818608E-02  0.9451560E-01
          1   -1    0    0  501    0  0.00000000000E+00  0.00000000000E+00  0.26457887898E+04  0.26457887898E+04  0.50400000000E-02 0. -1.
         -1   -1    0    0    0  501 -0.00000000000E+00 -0.00000000000E+00 -0.68500695260E+03  0.68500695262E+03  0.50400000000E-02 0.  1.
    8880023    1    1    2    0    0 -0.67729112262E+03 -0.89780239437E+02 -0.27493391160E+03  0.98801954342E+03  0.65864270000E+03 0.  1.
    8880022    1    1    2    0    0  0.67729112262E+03  0.89780239437E+02  0.22357157488E+04  0.23427761990E+04  0.15294330000E+03 0.  0.
<mgrwt>
<rscale>  0 0.87951313E+03</rscale>
<asrwt>0</asrwt>
<pdfrwt beam="1">  1        1 0.40704443E+00 0.94899629E+03</pdfrwt>
<pdfrwt beam="2">  1       -1 0.10538568E+00 0.94899629E+03</pdfrwt>
<totfact> 0.93161726E-01</totfact>
</mgrwt>
</event>
<event>
 4    5  0.7767175E-008  0.7129033E+03  0.7818608E-02  0.9947374E-01
          1   -1    0    0  501    0  0.00000000000E+00  0.00000000000E+00  0.59327679015E+03  0.59327679017E+03  0.50400000000E-02 0. -1.
         -1   -1    0    0    0  501 -0.00000000000E+00 -0.00000000000E+00 -0.65910909493E+03  0.65910909495E+03  0.50400000000E-02 0.  1.
    8880023    1    1    2    0    0  0.14641624234E+02 -0.27240864555E+03 -0.38104326383E+03  0.80834709284E+03  0.65864270000E+03 0.  1.
    8880022    1    1    2    0    0 -0.14641624234E+02  0.27240864555E+03  0.31521095905E+03  0.44403879228E+03  0.15294330000E+03 0.  0.
<mgrwt>
<rscale>  0 0.58019268E+03</rscale>
<asrwt>0</asrwt>
<pdfrwt beam="1">  1        1 0.91273352E-01 0.71290326E+03</pdfrwt>
<pdfrwt beam="2">  1       -1 0.10140140E+00 0.71290326E+03</pdfrwt>
<totfact> 0.33022211E+01</totfact>
</mgrwt>
</event>
<event>
 4    5  0.7767175E-008  0.7723221E+03  0.7818608E-02  0.9774192E-01
         -1   -1    0    0    0  501 -0.00000000000E+00  0.00000000000E+00  0.42412483447E+03  0.42412483450E+03  0.50400000000E-02 0.  1.
          1   -1    0    0  501    0  0.00000000000E+00 -0.00000000000E+00 -0.98428631923E+03  0.98428631924E+03  0.50400000000E-02 0. -1.
    8880023    1    1    2    0    0 -0.40158434267E+03  0.37432969427E+02 -0.10180354966E+03  0.77900281159E+03  0.65864270000E+03 0.  0.
    8880022    1    1    2    0    0  0.40158434267E+03 -0.37432969427E+02 -0.45835793510E+03  0.62940834215E+03  0.15294330000E+03 0.  0.
<mgrwt>
<rscale>  0 0.66766146E+03</rscale>
<asrwt>0</asrwt>
<pdfrwt beam="1">  1        1 0.15142866E+00 0.77232209E+03</pdfrwt>
<pdfrwt beam="2">  1       -1 0.65249975E-01 0.77232209E+03</pdfrwt>
<totfact> 0.37930370E+01</totfact>
</mgrwt>
</event>
<event>
 4    5  0.7767175E-008  0.1611017E+04  0.7818608E-02  0.8834977E-01
         -1   -1    0    0    0  501 -0.00000000000E+00  0.00000000000E+00  0.15618703585E+04  0.15618703585E+04  0.50400000000E-02 0.  1.
          1   -1    0    0  501    0  0.00000000000E+00 -0.00000000000E+00 -0.24569802994E+04  0.24569802994E+04  0.50400000000E-02 0. -1.
    8880023    1    1    2    0    0  0.14035058757E+04  0.43787845456E+03  0.77569099366E+03  0.17880360757E+04  0.65864270000E+03 0.  0.
    8880022    1    1    2    0    0 -0.14035058757E+04 -0.43787845456E+03 -0.16708009345E+04  0.22308145822E+04  0.15294330000E+03 0.  0.
<mgrwt>
<rscale>  0 0.15767234E+04</rscale>
<asrwt>0</asrwt>
<pdfrwt beam="1">  1        1 0.37799697E+00 0.16110172E+04</pdfrwt>
<pdfrwt beam="2">  1       -1 0.24028775E+00 0.16110172E+04</pdfrwt>
<totfact> 0.10901461E-01</totfact>
</mgrwt>
</event>
<event>
 4    5  0.7767175E-008  0.1114332E+04  0.7818608E-02  0.9245265E-01
          1   -1    0    0  501    0  0.00000000000E+00  0.00000000000E+00  0.28433367637E+04  0.28433367637E+04  0.50400000000E-02 0. -1.
         -1   -1    0    0    0  501 -0.00000000000E+00 -0.00000000000E+00 -0.64728329022E+03  0.64728329023E+03  0.50400000000E-02 0.  1.
    8880023    1    1    2    0    0 -0.63510478501E+03 -0.63605586188E+03  0.23168370972E+04  0.25708888518E+04  0.65864270000E+03 0.  0.
    8880022    1    1    2    0    0  0.63510478501E+03  0.63605586188E+03 -0.12078362368E+03  0.91973120212E+03  0.15294330000E+03 0.  0.
<mgrwt>
<rscale>  0 0.10598190E+04</rscale>
<asrwt>0</asrwt>
<pdfrwt beam="1">  1        1 0.43743643E+00 0.11143318E+04</pdfrwt>
<pdfrwt beam="2">  1       -1 0.99582044E-01 0.11143318E+04</pdfrwt>
<totfact> 0.75153923E-01</totfact>
</mgrwt>
</event>
<event>
 4    5  0.7767175E-008  0.1577876E+04  0.7818608E-02  0.8856516E-01
         -1   -1    0    0    0  501 -0.00000000000E+00  0.00000000000E+00  0.30419554873E+04  0.30419554873E+04  0.50400000000E-02 0.  1.
          1   -1    0    0  501    0  0.00000000000E+00 -0.00000000000E+00 -0.16132242282E+04  0.16132242282E+04  0.50400000000E-02 0. -1.
    8880023    1    1    2    0    0 -0.33164988155E+03  0.13949521238E+04  0.24316514876E+04  0.28987276925E+04  0.65864270000E+03 0.  1.
    8880022    1    1    2    0    0  0.33164988155E+03 -0.13949521238E+04 -0.10029202285E+04  0.17564520231E+04  0.15294330000E+03 0.  0.
<mgrwt>
<rscale>  0 0.15427433E+04</rscale>
<asrwt>0</asrwt>
<pdfrwt beam="1">  1        1 0.24818835E+00 0.15778762E+04</pdfrwt>
<pdfrwt beam="2">  1       -1 0.46799315E+00 0.15778762E+04</pdfrwt>
<totfact> 0.12411038E-02</totfact>
</mgrwt>
</event>
<event>
 4    5  0.7767175E-008  0.1213658E+04  0.7818608E-02  0.9143959E-01
         -1   -1    0    0    0  501 -0.00000000000E+00  0.00000000000E+00  0.14483197673E+04  0.14483197674E+04  0.50400000000E-02 0.  1.
          1   -1    0    0  501    0  0.00000000000E+00 -0.00000000000E+00 -0.15222523437E+04  0.15222523437E+04  0.50400000000E-02 0. -1.
    8880023    1    1    2    0    0 -0.88960256119E+03  0.49775782505E+03  0.93204011143E+03  0.15302498309E+04  0.65864270000E+03 0.  1.
    8880022    1    1    2    0    0  0.88960256119E+03 -0.49775782505E+03 -0.10059726878E+04  0.14403222802E+04  0.15294330000E+03 0.  0.
<mgrwt>
<rscale>  0 0.11651069E+04</rscale>
<asrwt>0</asrwt>
<pdfrwt beam="1">  1        1 0.23419267E+00 0.12136580E+04</pdfrwt>
<pdfrwt beam="2">  1       -1 0.22281843E+00 0.12136580E+04</pdfrwt>
<totfact> 0.65088498E-01</totfact>
</mgrwt>
</event>
<event>
 4    5  0.7767175E-008  0.8789067E+03  0.7818608E-02  0.9560779E-01
         -1   -1    0    0    0  501 -0.00000000000E+00  0.00000000000E+00  0.66905194477E+03  0.66905194479E+03  0.50400000000E-02 0.  1.
          1   -1    0    0  501    0  0.00000000000E+00 -0.00000000000E+00 -0.16387575315E+04  0.16387575315E+04  0.50400000000E-02 0. -1.
    8880023    1    1    2    0    0  0.48317683704E+03 -0.32435622536E+03  0.27863781702E+03  0.92201738385E+03  0.65864270000E+03 0.  0.
    8880022    1    1    2    0    0 -0.48317683704E+03  0.32435622536E+03 -0.12483434037E+04  0.13857920924E+04  0.15294330000E+03 0.  0.
<mgrwt>
<rscale>  0 0.79947415E+03</rscale>
<asrwt>0</asrwt>
<pdfrwt beam="1">  1        1 0.25211654E+00 0.87890672E+03</pdfrwt>
<pdfrwt beam="2">  1       -1 0.10293107E+00 0.87890672E+03</pdfrwt>
<totfact> 0.47891505E+00</totfact>
</mgrwt>
</event>
<event>
 4    5  0.7767175E-008  0.7067934E+03  0.7818608E-02  0.9970107E-01
          1   -1    0    0  501    0  0.00000000000E+00  0.00000000000E+00  0.38389680017E+04  0.38389680017E+04  0.50400000000E-02 0. -1.
         -1   -1    0    0    0  501 -0.00000000000E+00 -0.00000000000E+00 -0.13887148852E+03  0.13887148861E+03  0.50400000000E-02 0.  1.
    8880023    1    1    2    0    0  0.25541773084E+03 -0.22549357234E+02  0.82109766147E+03  0.10834012492E+04  0.65864270000E+03 0.  1.
    8880022    1    1    2    0    0 -0.25541773084E+03  0.22549357234E+02  0.28789988517E+04  0.28944382412E+04  0.15294330000E+03 0.  0.
<mgrwt>
<rscale>  0 0.56980654E+03</rscale>
<asrwt>0</asrwt>
<pdfrwt beam="1">  1        1 0.59061056E+00 0.70679339E+03</pdfrwt>
<pdfrwt beam="2">  1       -1 0.21364841E-01 0.70679339E+03</pdfrwt>
<totfact> 0.26663793E+00</totfact>
</mgrwt>
</event>
<event>
 4    5  0.7767175E-008  0.7082433E+03  0.7818608E-02  0.9964583E-01
         -1   -1    0    0    0  501 -0.00000000000E+00  0.00000000000E+00  0.32753937196E+03  0.32753937200E+03  0.50400000000E-02 0.  1.
          1   -1    0    0  501    0  0.00000000000E+00 -0.00000000000E+00 -0.19729508362E+04  0.19729508362E+04  0.50400000000E-02 0. -1.
    8880023    1    1    2    0    0 -0.24736373072E+03  0.81299209957E+02 -0.87553656010E+02  0.71363451833E+03  0.65864270000E+03 0.  0.
    8880022    1    1    2    0    0  0.24736373072E+03 -0.81299209957E+02 -0.15578578083E+04  0.15868556899E+04  0.15294330000E+03 0.  0.
<mgrwt>
<rscale>  0 0.57230861E+03</rscale>
<asrwt>0</asrwt>
<pdfrwt beam="1">  1        1 0.30353089E+00 0.70824331E+03</pdfrwt>
<pdfrwt beam="2">  1       -1 0.50390674E-01 0.70824331E+03</pdfrwt>
<totfact> 0.12915732E+01</totfact>
</mgrwt>
</event>
<event>
 4    5  0.7767175E-008  0.9457586E+03  0.7818608E-02  0.9456243E-01
         -1   -1    0    0    0  501 -0.00000000000E+00  0.00000000000E+00  0.90672261139E+03  0.90672261140E+03  0.50400000000E-02 0.  1.
          1   -1    0    0  501    0  0.00000000000E+00 -0.00000000000E+00 -0.19292657103E+04  0.19292657103E+04  0.50400000000E-02 0. -1.
    8880023    1    1    2    0    0 -0.36673584848E+03  0.57109880720E+03  0.56570924355E+03  0.11020372882E+04  0.65864270000E+03 0.  0.
    8880022    1    1    2    0    0  0.36673584848E+03 -0.57109880720E+03 -0.15882523424E+04  0.17339510335E+04  0.15294330000E+03 0.  0.
<mgrwt>
<rscale>  0 0.87588168E+03</rscale>
<asrwt>0</asrwt>
<pdfrwt beam="1">  1        1 0.29681011E+00 0.94575855E+03</pdfrwt>
<pdfrwt beam="2">  1       -1 0.13949579E+00 0.94575855E+03</pdfrwt>
<totfact> 0.14344981E+00</totfact>
</mgrwt>
</event>
<event>
 4    5  0.7767175E-008  0.9212918E+03  0.7818608E-02  0.9492681E-01
          1   -1    0    0  501    0  0.00000000000E+00  0.00000000000E+00  0.30556258511E+04  0.30556258511E+04  0.50400000000E-02 0. -1.
         -1   -1    0    0    0  501 -0.00000000000E+00 -0.00000000000E+00 -0.29770400379E+03  0.29770400383E+03  0.50400000000E-02 0.  1.
    8880023    1    1    2    0    0  0.64394403075E+03  0.17446388627E+02  0.60815263974E+03  0.11039149110E+04  0.65864270000E+03 0.  1.
    8880022    1    1    2    0    0 -0.64394403075E+03 -0.17446388627E+02  0.21497692076E+04  0.22494149439E+04  0.15294330000E+03 0.  0.
<mgrwt>
<rscale>  0 0.84825562E+03</rscale>
<asrwt>0</asrwt>
<pdfrwt beam="1">  1        1 0.47009630E+00 0.92129175E+03</pdfrwt>
<pdfrwt beam="2">  1       -1 0.45800614E-01 0.92129175E+03</pdfrwt>
<totfact> 0.26847866E+00</totfact>
</mgrwt>
</event>
<event>
 4    5  0.7767175E-008  0.8463330E+03  0.7818608E-02  0.9618352E-01
          1   -1    0    0  501    0  0.00000000000E+00  0.00000000000E+00  0.17645613342E+04  0.17645613342E+04  0.50400000000E-02 0. -1.
         -1   -1    0    0    0  501 -0.00000000000E+00 -0.00000000000E+00 -0.94020482041E+03  0.94020482042E+03  0.50400000000E-02 0.  1.
    8880023    1    1    2    0    0 -0.42606454315E+03  0.31770803788E+03 -0.69039518815E+03  0.10922111125E+04  0.65864270000E+03 0.  0.
    8880022    1    1    2    0    0  0.42606454315E+03 -0.31770803788E+03  0.15147517019E+04  0.16125550421E+04  0.15294330000E+03 0.  0.
<mgrwt>
<rscale>  0 0.76093312E+03</rscale>
<asrwt>0</asrwt>
<pdfrwt beam="1">  1        1 0.27147097E+00 0.84633303E+03</pdfrwt>
<pdfrwt beam="2">  1       -1 0.14464690E+00 0.84633303E+03</pdfrwt>
<totfact> 0.17107991E+00</totfact>
</mgrwt>
</event>
<event>
 4    5  0.7767175E-008  0.7461573E+03  0.7818608E-02  0.9842361E-01
          1   -1    0    0  501    0  0.00000000000E+00  0.00000000000E+00  0.10197732591E+04  0.10197732592E+04  0.50400000000E-02 0. -1.
         -1   -1    0    0    0  501 -0.00000000000E+00 -0.00000000000E+00 -0.12056828498E+04  0.12056828498E+04  0.50400000000E-02 0.  1.
    8880023    1    1    2    0    0 -0.62441033941E+02 -0.34502408184E+03 -0.10455793471E+04  0.12845181498E+04  0.65864270000E+03 0.  1.
    8880022    1    1    2    0    0  0.62441033941E+02  0.34502408184E+03  0.85966975647E+03  0.94093795915E+03  0.15294330000E+03 0.  0.
<mgrwt>
<rscale>  0 0.63137919E+03</rscale>
<asrwt>0</asrwt>
<pdfrwt beam="1">  1        1 0.15688819E+00 0.74615729E+03</pdfrwt>
<pdfrwt beam="2">  1       -1 0.18548967E+00 0.74615729E+03</pdfrwt>
<totfact> 0.28920154E+00</totfact>
</mgrwt>
</event>
<event>
 4    5  0.7767175E-008  0.1308292E+04  0.7818608E-02  0.9058432E-01
          1   -1    0    0  501    0  0.00000000000E+00  0.00000000000E+00  0.12097192587E+04  0.12097192587E+04  0.50400000000E-02 0. -1.
         -1   -1    0    0    0  501 -0.00000000000E+00 -0.00000000000E+00 -0.16285092022E+04  0.16285092022E+04  0.50400000000E-02 0.  1.
    8880023    1    1    2    0    0 -0.70733713144E+03  0.88175450120E+03 -0.91268988254E+03  0.15951895956E+04  0.65864270000E+03 0.  0.
    8880022    1    1    2    0    0  0.70733713144E+03 -0.88175450120E+03  0.49389993909E+03  0.12430388653E+04  0.15294330000E+03 0.  0.
<mgrwt>
<rscale>  0 0.12642175E+04</rscale>
<asrwt>0</asrwt>
<pdfrwt beam="1">  1        1 0.18611065E+00 0.13082916E+04</pdfrwt>
<pdfrwt beam="2">  1       -1 0.25053988E+00 0.13082916E+04</pdfrwt>
<totfact> 0.70405351E-01</totfact>
</mgrwt>
</event>
<event>
 4    5  0.7767175E-008  0.1321486E+04  0.7818608E-02  0.9047224E-01
         -1   -1    0    0    0  501 -0.00000000000E+00  0.00000000000E+00  0.14060348867E+04  0.14060348867E+04  0.50400000000E-02 0.  1.
          1   -1    0    0  501    0  0.00000000000E+00 -0.00000000000E+00 -0.25571874704E+04  0.25571874704E+04  0.50400000000E-02 0. -1.
    8880023    1    1    2    0    0  0.34140345159E+03 -0.10935994176E+04  0.90695331798E+03  0.16027758827E+04  0.65864270000E+03 0.  1.
    8880022    1    1    2    0    0 -0.34140345159E+03  0.10935994176E+04 -0.20581059017E+04  0.23604464744E+04  0.15294330000E+03 0.  0.
<mgrwt>
<rscale>  0 0.12779653E+04</rscale>
<asrwt>0</asrwt>
<pdfrwt beam="1">  1        1 0.39341346E+00 0.13214864E+04</pdfrwt>
<pdfrwt beam="2">  1       -1 0.21631306E+00 0.13214864E+04</pdfrwt>
<totfact> 0.13942991E-01</totfact>
</mgrwt>
</event>
<event>
 4    5  0.7767175E-008  0.7733308E+03  0.7818608E-02  0.9771743E-01
          1   -1    0    0  501    0  0.00000000000E+00  0.00000000000E+00  0.96219126248E+03  0.96219126249E+03  0.50400000000E-02 0. -1.
         -1   -1    0    0    0  501 -0.00000000000E+00 -0.00000000000E+00 -0.26631841283E+04  0.26631841283E+04  0.50400000000E-02 0.  1.
    8880023    1    1    2    0    0  0.25013677881E+03 -0.31884457907E+03 -0.25540973489E+04  0.26686052064E+04  0.65864270000E+03 0.  1.
    8880022    1    1    2    0    0 -0.25013677881E+03  0.31884457907E+03  0.85310448307E+03  0.95677018441E+03  0.15294330000E+03 0.  0.
<mgrwt>
<rscale>  0 0.66901278E+03</rscale>
<asrwt>0</asrwt>
<pdfrwt beam="1">  1        1 0.14802943E+00 0.77333077E+03</pdfrwt>
<pdfrwt beam="2">  1       -1 0.40972063E+00 0.77333077E+03</pdfrwt>
<totfact> 0.10709260E-01</totfact>
</mgrwt>
</event>
<event>
 4    5  0.7767175E-008  0.7369995E+03  0.7818608E-02  0.9868775E-01
          1   -1    0    0  501    0  0.00000000000E+00  0.00000000000E+00  0.62234170858E+03  0.62234170860E+03  0.50400000000E-02 0. -1.
         -1   -1    0    0    0  501 -0.00000000000E+00 -0.00000000000E+00 -0.68858725388E+03  0.68858725390E+03  0.50400000000E-02 0.  1.
    8880023    1    1    2    0    0 -0.30466452481E+03 -0.12859834619E+03 -0.38081663410E+03  0.82957189103E+03  0.65864270000E+03 0.  0.
    8880022    1    1    2    0    0  0.30466452481E+03  0.12859834619E+03  0.31457108880E+03  0.48135707146E+03  0.15294330000E+03 0.  0.
<mgrwt>
<rscale>  0 0.61798731E+03</rscale>
<asrwt>0</asrwt>
<pdfrwt beam="1">  1        1 0.95744879E-01 0.73699947E+03</pdfrwt>
<pdfrwt beam="2">  1       -1 0.10593650E+00 0.73699947E+03</pdfrwt>
<totfact> 0.27788910E+01</totfact>
</mgrwt>
</event>
<event>
 4    5  0.7767175E-008  0.8635826E+03  0.7818608E-02  0.9587222E-01
          1   -1    0    0  501    0  0.00000000000E+00  0.00000000000E+00  0.68523151450E+03  0.68523151452E+03  0.50400000000E-02 0. -1.
         -1   -1    0    0    0  501 -0.00000000000E+00 -0.00000000000E+00 -0.11888212028E+04  0.11888212029E+04  0.50400000000E-02 0.  1.
    8880023    1    1    2    0    0  0.42239852765E+03  0.36543692268E+03 -0.83966649412E+03  0.12044976912E+04  0.65864270000E+03 0.  1.
    8880022    1    1    2    0    0 -0.42239852765E+03 -0.36543692268E+03  0.33607680578E+03  0.66955502613E+03  0.15294330000E+03 0.  0.
<mgrwt>
<rscale>  0 0.78147703E+03</rscale>
<asrwt>0</asrwt>
<pdfrwt beam="1">  1        1 0.10542023E+00 0.86358258E+03</pdfrwt>
<pdfrwt beam="2">  1       -1 0.18289557E+00 0.86358258E+03</pdfrwt>
<totfact> 0.56897984E+00</totfact>
</mgrwt>
</event>
<event>
 4    5  0.7767175E-008  0.1001598E+04  0.7818608E-02  0.9379470E-01
         -1   -1    0    0    0  501 -0.00000000000E+00  0.00000000000E+00  0.13345056985E+04  0.13345056985E+04  0.50400000000E-02 0.  1.
          1   -1    0    0  501    0  0.00000000000E+00 -0.00000000000E+00 -0.11728227324E+04  0.11728227324E+04  0.50400000000E-02 0. -1.
    8880023    1    1    2    0    0 -0.17492101596E+03 -0.73402346942E+03  0.96767822963E+03  0.13926949335E+04  0.65864270000E+03 0.  0.
    8880022    1    1    2    0    0  0.17492101596E+03  0.73402346942E+03 -0.80599526353E+03  0.11146334973E+04  0.15294330000E+03 0.  0.
<mgrwt>
<rscale>  0 0.93784625E+03</rscale>
<asrwt>0</asrwt>
<pdfrwt beam="1">  1        1 0.18043427E+00 0.10015977E+04</pdfrwt>
<pdfrwt beam="2">  1       -1 0.20530857E+00 0.10015977E+04</pdfrwt>
<totfact> 0.15560812E+00</totfact>
</mgrwt>
</event>
<event>
 4    5  0.1354007E-007  0.8191861E+03  0.7818608E-02  0.9670751E-01
          1   -1    0    0  501    0  0.00000000000E+00  0.00000000000E+00  0.15595728363E+04  0.15595728364E+04  0.50400000000E-02 0. -1.
         -1   -1    0    0    0  501 -0.00000000000E+00 -0.00000000000E+00 -0.18728832935E+04  0.18728832935E+04  0.50400000000E-02 0.  1.
    8880023    1    1    2    0    0  0.30074110284E+03  0.38315861719E+03 -0.17367383172E+04  0.19202411113E+04  0.65864270000E+03 0.  0.
    8880022    1    1    2    0    0 -0.30074110284E+03 -0.38315861719E+03  0.14234278600E+04  0.15122150186E+04  0.15294330000E+03 0.  0.
<mgrwt>
<rscale>  0 0.72785291E+03</rscale>
<asrwt>0</asrwt>
<pdfrwt beam="1">  1        1 0.23993428E+00 0.81918615E+03</pdfrwt>
<pdfrwt beam="2">  1       -1 0.28813589E+00 0.81918615E+03</pdfrwt>
<totfact> 0.24716153E-01</totfact>
</mgrwt>
</event>
<event>
 4    5  0.7767175E-008  0.7007050E+03  0.7818608E-02  0.9994289E-01
         -1   -1    0    0    0  501 -0.00000000000E+00  0.00000000000E+00  0.77267469296E+03  0.77267469298E+03  0.50400000000E-02 0.  1.
          1   -1    0    0  501    0  0.00000000000E+00 -0.00000000000E+00 -0.11028311442E+04  0.11028311442E+04  0.50400000000E-02 0. -1.
    8880023    1    1    2    0    0  0.43939648697E+02  0.23504584277E+03  0.58784031228E+03  0.91462761818E+03  0.65864270000E+03 0.  1.
    8880022    1    1    2    0    0 -0.43939648697E+02 -0.23504584277E+03 -0.91799676350E+03  0.96087821899E+03  0.15294330000E+03 0.  0.
<mgrwt>
<rscale>  0 0.55901353E+03</rscale>
<asrwt>0</asrwt>
<pdfrwt beam="1">  1        1 0.16966633E+00 0.70070496E+03</pdfrwt>
<pdfrwt beam="2">  1       -1 0.11887303E+00 0.70070496E+03</pdfrwt>
<totfact> 0.83309124E+00</totfact>
</mgrwt>
</event>
<event>
 4    5  0.7767175E-008  0.8234528E+03  0.7818608E-02  0.9662208E-01
          1   -1    0    0  501    0  0.00000000000E+00  0.00000000000E+00  0.13032712077E+04  0.13032712077E+04  0.50400000000E-02 0. -1.
         -1   -1    0    0    0  501 -0.00000000000E+00 -0.00000000000E+00 -0.42506695808E+03  0.42506695811E+03  0.50400000000E-02 0.  1.
    8880023    1    1    2    0    0  0.79824576659E+02  0.48774206710E+03  0.15305926583E+03  0.83755694265E+03  0.65864270000E+03 0.  0.
    8880022    1    1    2    0    0 -0.79824576659E+02 -0.48774206710E+03  0.72514498381E+03  0.89078122321E+03  0.15294330000E+03 0.  0.
<mgrwt>
<rscale>  0 0.73312181E+03</rscale>
<asrwt>0</asrwt>
<pdfrwt beam="1">  1        1 0.20050326E+00 0.82345279E+03</pdfrwt>
<pdfrwt beam="2">  1       -1 0.65394917E-01 0.82345279E+03</pdfrwt>
<totfact> 0.21811892E+01</totfact>
</mgrwt>
</event>
<event>
 4    5  0.8606324E-008  0.1654096E+04  0.7818608E-02  0.8807852E-01
          1   -1    0    0  501    0  0.00000000000E+00  0.00000000000E+00  0.25303503083E+04  0.25303503083E+04  0.50400000000E-02 0. -1.
         -1   -1    0    0    0  501 -0.00000000000E+00 -0.00000000000E+00 -0.19588026074E+04  0.19588026074E+04  0.50400000000E-02 0.  1.
    8880023    1    1    2    0    0 -0.60491149157E+03  0.13915115420E+04 -0.12792206449E+04  0.20910375292E+04  0.65864270000E+03 0.  0.
    8880022    1    1    2    0    0  0.60491149157E+03 -0.13915115420E+04  0.18507683458E+04  0.23981153864E+04  0.15294330000E+03 0.  0.
<mgrwt>
<rscale>  0 0.16208308E+04</rscale>
<asrwt>0</asrwt>
<pdfrwt beam="1">  1        1 0.38928466E+00 0.16540957E+04</pdfrwt>
<pdfrwt beam="2">  1       -1 0.30135425E+00 0.16540957E+04</pdfrwt>
<totfact> 0.38594176E-02</totfact>
</mgrwt>
</event>
<event>
 4    5  0.7767175E-008  0.6728660E+03  0.7818608E-02  0.1013686E+00
          1   -1    0    0  501    0  0.00000000000E+00  0.00000000000E+00  0.25699265238E+04  0.25699265238E+04  0.50400000000E-02 0. -1.
         -1   -1    0    0    0  501 -0.00000000000E+00 -0.00000000000E+00 -0.26865443209E+03  0.26865443214E+03  0.50400000000E-02 0.  1.
    8880023    1    1    2    0    0 -0.23192874529E+02  0.13564860540E+03  0.16549815882E+03  0.69292012556E+03  0.65864270000E+03 0.  1.
    8880022    1    1    2    0    0  0.23192874529E+02 -0.13564860540E+03  0.21357739329E+04  0.21456608304E+04  0.15294330000E+03 0.  0.
<mgrwt>
<rscale>  0 0.50035427E+03</rscale>
<asrwt>0</asrwt>
<pdfrwt beam="1">  1        1 0.39537331E+00 0.67286600E+03</pdfrwt>
<pdfrwt beam="2">  1       -1 0.41331452E-01 0.67286600E+03</pdfrwt>
<totfact> 0.74461137E+00</totfact>
</mgrwt>
</event>
<event>
 4    5  0.7767175E-008  0.1284038E+04  0.7818608E-02  0.9079468E-01
         -1   -1    0    0    0  501 -0.00000000000E+00  0.00000000000E+00  0.14939767179E+04  0.14939767180E+04  0.50400000000E-02 0.  1.
          1   -1    0    0  501    0  0.00000000000E+00 -0.00000000000E+00 -0.16779620478E+04  0.16779620478E+04  0.50400000000E-02 0. -1.
    8880023    1    1    2    0    0 -0.82535787627E+03  0.73056625874E+03  0.93917970917E+03  0.15908524176E+04  0.65864270000E+03 0.  1.
    8880022    1    1    2    0    0  0.82535787627E+03 -0.73056625874E+03 -0.11231650390E+04  0.15810863481E+04  0.15294330000E+03 0.  0.
<mgrwt>
<rscale>  0 0.12389052E+04</rscale>
<asrwt>0</asrwt>
<pdfrwt beam="1">  1        1 0.25814801E+00 0.12840377E+04</pdfrwt>
<pdfrwt beam="2">  1       -1 0.22984257E+00 0.12840377E+04</pdfrwt>
<totfact> 0.45269294E-01</totfact>
</mgrwt>
</event>
<event>
 4    5  0.7767175E-008  0.9002119E+03  0.7818608E-02  0.9525692E-01
          1   -1    0    0  501    0  0.00000000000E+00  0.00000000000E+00  0.15427875640E+04  0.15427875640E+04  0.50400000000E-02 0. -1.
         -1   -1    0    0    0  501 -0.00000000000E+00 -0.00000000000E+00 -0.45500006113E+03  0.45500006116E+03  0.50400000000E-02 0.  1.
    8880023    1    1    2    0    0  0.61360487811E+03 -0.77627709051E+01  0.22476377768E+03  0.92784706125E+03  0.65864270000E+03 0.  1.
    8880022    1    1    2    0    0 -0.61360487811E+03  0.77627709051E+01  0.86302372518E+03  0.10699405639E+04  0.15294330000E+03 0.  0.
<mgrwt>
<rscale>  0 0.82415901E+03</rscale>
<asrwt>0</asrwt>
<pdfrwt beam="1">  1        1 0.23735193E+00 0.90021187E+03</pdfrwt>
<pdfrwt beam="2">  1       -1 0.70000009E-01 0.90021187E+03</pdfrwt>
<totfact> 0.12828205E+01</totfact>
</mgrwt>
</event>
<event>
 4    5  0.7767175E-008  0.1021468E+04  0.7818608E-02  0.9353995E-01
          1   -1    0    0  501    0  0.00000000000E+00  0.00000000000E+00  0.14435203426E+04  0.14435203426E+04  0.50400000000E-02 0. -1.
         -1   -1    0    0    0  501 -0.00000000000E+00 -0.00000000000E+00 -0.89605418926E+03  0.89605418927E+03  0.50400000000E-02 0.  1.
    8880023    1    1    2    0    0 -0.47139860516E+03  0.62239028736E+03 -0.40474596527E+03  0.10987337336E+04  0.65864270000E+03 0.  1.
    8880022    1    1    2    0    0  0.47139860516E+03 -0.62239028736E+03  0.95221211862E+03  0.12408407983E+04  0.15294330000E+03 0.  0.
<mgrwt>
<rscale>  0 0.95960410E+03</rscale>
<asrwt>0</asrwt>
<pdfrwt beam="1">  1        1 0.22208005E+00 0.10214678E+04</pdfrwt>
<pdfrwt beam="2">  1       -1 0.13785449E+00 0.10214678E+04</pdfrwt>
<totfact> 0.31321814E+00</totfact>
</mgrwt>
</event>
<event>
 4    5  0.7856718E-008  0.8239343E+03  0.7818608E-02  0.9661252E-01
         -1   -1    0    0    0  501 -0.00000000000E+00  0.00000000000E+00  0.93838539474E+03  0.93838539475E+03  0.50400000000E-02 0.  1.
          1   -1    0    0  501    0  0.00000000000E+00 -0.00000000000E+00 -0.10877747407E+04  0.10877747407E+04  0.50400000000E-02 0. -1.
    8880023    1    1    2    0    0  0.49493980226E+03 -0.95941097219E+01  0.66643183545E+03  0.10597164962E+04  0.65864270000E+03 0.  1.
    8880022    1    1    2    0    0 -0.49493980226E+03  0.95941097219E+01 -0.81582118143E+03  0.96644363927E+03  0.15294330000E+03 0.  0.
<mgrwt>
<rscale>  0 0.73371461E+03</rscale>
<asrwt>0</asrwt>
<pdfrwt beam="1">  1        1 0.16734996E+00 0.82393426E+03</pdfrwt>
<pdfrwt beam="2">  1       -1 0.14436698E+00 0.82393426E+03</pdfrwt>
<totfact> 0.51347859E+00</totfact>
</mgrwt>
</event>
<event>
 4    5  0.7767175E-008  0.1372468E+04  0.7818608E-02  0.9005376E-01
         -1   -1    0    0    0  501 -0.00000000000E+00  0.00000000000E+00  0.16859374622E+04  0.16859374622E+04  0.50400000000E-02 0.  1.
          1   -1    0    0  501    0  0.00000000000E+00 -0.00000000000E+00 -0.13976073500E+04  0.13976073500E+04  0.50400000000E-02 0. -1.
    8880023    1    1    2    0    0 -0.83711656679E+03  0.86550287096E+03  0.98008384514E+03  0.16864856702E+04  0.65864270000E+03 0.  0.
    8880022    1    1    2    0    0  0.83711656679E+03 -0.86550287096E+03 -0.69175373296E+03  0.13970591420E+04  0.15294330000E+03 0.  0.
<mgrwt>
<rscale>  0 0.13309488E+04</rscale>
<asrwt>0</asrwt>
<pdfrwt beam="1">  1        1 0.21501652E+00 0.13724684E+04</pdfrwt>
<pdfrwt beam="2">  1       -1 0.25937499E+00 0.13724684E+04</pdfrwt>
<totfact> 0.44855727E-01</totfact>
</mgrwt>
</event>
<event>
 4    5  0.7767175E-008  0.1139752E+04  0.7818608E-02  0.9218037E-01
          1   -1    0    0  501    0  0.00000000000E+00  0.00000000000E+00  0.13534591889E+04  0.13534591889E+04  0.50400000000E-02 0. -1.
         -1   -1    0    0    0  501 -0.00000000000E+00 -0.00000000000E+00 -0.15219375696E+04  0.15219375696E+04  0.50400000000E-02 0.  1.
    8880023    1    1    2    0    0 -0.59680913189E+03  0.71347228904E+03 -0.10756090176E+04  0.15671530915E+04  0.65864270000E+03 0.  0.
    8880022    1    1    2    0    0  0.59680913189E+03 -0.71347228904E+03  0.90713063680E+03  0.13082436670E+04  0.15294330000E+03 0.  0.
<mgrwt>
<rscale>  0 0.10869184E+04</rscale>
<asrwt>0</asrwt>
<pdfrwt beam="1">  1        1 0.20822449E+00 0.11397518E+04</pdfrwt>
<pdfrwt beam="2">  1       -1 0.23414424E+00 0.11397518E+04</pdfrwt>
<totfact> 0.72565600E-01</totfact>
</mgrwt>
</event>
<event>
 4    5  0.7767175E-008  0.6928639E+03  0.7818608E-02  0.1002820E+00
         -1   -1    0    0    0  501 -0.00000000000E+00  0.00000000000E+00  0.60676490972E+03  0.60676490974E+03  0.50400000000E-02 0.  1.
          1   -1    0    0  501    0  0.00000000000E+00 -0.00000000000E+00 -0.96061090229E+03  0.96061090230E+03  0.50400000000E-02 0. -1.
    8880023    1    1    2    0    0 -0.13776006759E+03  0.16514335259E+03  0.37809551474E+03  0.78931399814E+03  0.65864270000E+03 0.  0.
    8880022    1    1    2    0    0  0.13776006759E+03 -0.16514335259E+03 -0.73194150731E+03  0.77806181391E+03  0.15294330000E+03 0.  0.
<mgrwt>
<rscale>  0 0.54430799E+03</rscale>
<asrwt>0</asrwt>
<pdfrwt beam="1">  1        1 0.14778629E+00 0.69286389E+03</pdfrwt>
<pdfrwt beam="2">  1       -1 0.93348448E-01 0.69286389E+03</pdfrwt>
<totfact> 0.18765519E+01</totfact>
</mgrwt>
</event>
<event>
 4    5  0.7767175E-008  0.7168434E+03  0.7818608E-02  0.9933415E-01
         -1   -1    0    0    0  501 -0.00000000000E+00  0.00000000000E+00  0.12433869637E+04  0.12433869637E+04  0.50400000000E-02 0.  1.
          1   -1    0    0  501    0  0.00000000000E+00 -0.00000000000E+00 -0.98871188143E+03  0.98871188145E+03  0.50400000000E-02 0. -1.
    8880023    1    1    2    0    0 -0.24088358313E+03 -0.14842276783E+03  0.11082832540E+04  0.13199076467E+04  0.65864270000E+03 0.  1.
    8880022    1    1    2    0    0  0.24088358313E+03  0.14842276783E+03 -0.85360817171E+03  0.91219119841E+03  0.15294330000E+03 0.  0.
<mgrwt>
<rscale>  0 0.58668820E+03</rscale>
<asrwt>0</asrwt>
<pdfrwt beam="1">  1        1 0.15210952E+00 0.71684338E+03</pdfrwt>
<pdfrwt beam="2">  1       -1 0.19129030E+00 0.71684338E+03</pdfrwt>
<totfact> 0.27982933E+00</totfact>
</mgrwt>
</event>
<event>
 4    5  0.7767175E-008  0.6937841E+03  0.7818608E-02  0.1002403E+00
         -1   -1    0    0    0  501 -0.00000000000E+00  0.00000000000E+00  0.95944580248E+03  0.95944580249E+03  0.50400000000E-02 0.  1.
          1   -1    0    0  501    0  0.00000000000E+00 -0.00000000000E+00 -0.60686381209E+03  0.60686381211E+03  0.50400000000E-02 0. -1.
    8880023    1    1    2    0    0  0.12892622877E+03  0.17579604045E+03  0.79174706348E+03  0.10527107101E+04  0.65864270000E+03 0.  1.
    8880022    1    1    2    0    0 -0.12892622877E+03 -0.17579604045E+03 -0.43916507309E+03  0.51359890454E+03  0.15294330000E+03 0.  0.
<mgrwt>
<rscale>  0 0.54608813E+03</rscale>
<asrwt>0</asrwt>
<pdfrwt beam="1">  1        1 0.93363664E-01 0.69378414E+03</pdfrwt>
<pdfrwt beam="2">  1       -1 0.14760705E+00 0.69378414E+03</pdfrwt>
<totfact> 0.12720088E+01</totfact>
</mgrwt>
</event>
<event>
 4    5  0.7767175E-008  0.7315409E+03  0.7818608E-02  0.9885310E-01
          1   -1    0    0  501    0  0.00000000000E+00  0.00000000000E+00  0.11933810729E+04  0.11933810729E+04  0.50400000000E-02 0. -1.
         -1   -1    0    0    0  501 -0.00000000000E+00 -0.00000000000E+00 -0.59867330241E+03  0.59867330243E+03  0.50400000000E-02 0.  1.
    8880023    1    1    2    0    0  0.15497597171E+03 -0.27807258972E+03 -0.32975336237E+03  0.80242719496E+03  0.65864270000E+03 0.  0.
    8880022    1    1    2    0    0 -0.15497597171E+03  0.27807258972E+03  0.92446113284E+03  0.98962718036E+03  0.15294330000E+03 0.  0.
<mgrwt>
<rscale>  0 0.60978521E+03</rscale>
<asrwt>0</asrwt>
<pdfrwt beam="1">  1        1 0.18359709E+00 0.73154092E+03</pdfrwt>
<pdfrwt beam="2">  1       -1 0.92103585E-01 0.73154092E+03</pdfrwt>
<totfact> 0.12846303E+01</totfact>
</mgrwt>
</event>
<event>
 4    5  0.7767175E-008  0.7048491E+03  0.7818608E-02  0.9977650E-01
          1   -1    0    0  501    0  0.00000000000E+00  0.00000000000E+00  0.54557497787E+03  0.54557497790E+03  0.50400000000E-02 0. -1.
         -1   -1    0    0    0  501 -0.00000000000E+00 -0.00000000000E+00 -0.49458923519E+03  0.49458923522E+03  0.50400000000E-02 0.  1.
    8880023    1    1    2    0    0 -0.14369975749E+03 -0.20579710257E+03 -0.96302460475E+02  0.71139752451E+03  0.65864270000E+03 0.  1.
    8880022    1    1    2    0    0  0.14369975749E+03  0.20579710257E+03  0.14728820316E+03  0.32876668860E+03  0.15294330000E+03 0.  0.
<mgrwt>
<rscale>  0 0.56641193E+03</rscale>
<asrwt>0</asrwt>
<pdfrwt beam="1">  1        1 0.83934612E-01 0.70484911E+03</pdfrwt>
<pdfrwt beam="2">  1       -1 0.76090652E-01 0.70484911E+03</pdfrwt>
<totfact> 0.69660827E+01</totfact>
</mgrwt>
</event>
<event>
 4    5  0.7767175E-008  0.1270352E+04  0.7818608E-02  0.9091595E-01
         -1   -1    0    0    0  501 -0.00000000000E+00  0.00000000000E+00  0.99570092793E+03  0.99570092794E+03  0.50400000000E-02 0.  1.
          1   -1    0    0  501    0  0.00000000000E+00 -0.00000000000E+00 -0.21994020850E+04  0.21994020850E+04  0.50400000000E-02 0. -1.
    8880023    1    1    2    0    0  0.10773429730E+04  0.13897949636E+03  0.32713708190E+03  0.13117972627E+04  0.65864270000E+03 0.  0.
    8880022    1    1    2    0    0 -0.10773429730E+04 -0.13897949636E+03 -0.15308382390E+04  0.18833057503E+04  0.15294330000E+03 0.  0.
<mgrwt>
<rscale>  0 0.12245967E+04</rscale>
<asrwt>0</asrwt>
<pdfrwt beam="1">  1        1 0.33836955E+00 0.12703517E+04</pdfrwt>
<pdfrwt beam="2">  1       -1 0.15318476E+00 0.12703517E+04</pdfrwt>
<totfact> 0.70065680E-01</totfact>
</mgrwt>
</event>
<event>
 4    5  0.7767175E-008  0.8215225E+03  0.7818608E-02  0.9666058E-01
         -1   -1    0    0    0  501 -0.00000000000E+00  0.00000000000E+00  0.10040202121E+04  0.10040202121E+04  0.50400000000E-02 0.  1.
          1   -1    0    0  501    0  0.00000000000E+00 -0.00000000000E+00 -0.58977733484E+03  0.58977733486E+03  0.50400000000E-02 0. -1.
    8880023    1    1    2    0    0 -0.49042948796E+03 -0.23831501169E+02  0.63082097514E+03  0.10357771633E+04  0.65864270000E+03 0.  0.
    8880022    1    1    2    0    0  0.49042948796E+03  0.23831501169E+02 -0.21657809786E+03  0.55802038367E+03  0.15294330000E+03 0.  0.
<mgrwt>
<rscale>  0 0.73074162E+03</rscale>
<asrwt>0</asrwt>
<pdfrwt beam="1">  1        1 0.90734975E-01 0.82152251E+03</pdfrwt>
<pdfrwt beam="2">  1       -1 0.15446465E+00 0.82152251E+03</pdfrwt>
<totfact> 0.11547754E+01</totfact>
</mgrwt>
</event>
<event>
 4    5  0.7767175E-008  0.9241662E+03  0.7818608E-02  0.9488300E-01
          1   -1    0    0  501    0  0.00000000000E+00  0.00000000000E+00  0.12411461316E+04  0.12411461316E+04  0.50400000000E-02 0. -1.
         -1   -1    0    0    0  501 -0.00000000000E+00 -0.00000000000E+00 -0.16716676446E+04  0.16716676446E+04  0.50400000000E-02 0.  1.
    8880023    1    1    2    0    0 -0.64824241715E+03  0.73948652434E+01 -0.14354278896E+04  0.17072013202E+04  0.65864270000E+03 0.  1.
    8880022    1    1    2    0    0  0.64824241715E+03 -0.73948652434E+01  0.10049063765E+04  0.12056124560E+04  0.15294330000E+03 0.  0.
<mgrwt>
<rscale>  0 0.85151910E+03</rscale>
<asrwt>0</asrwt>
<pdfrwt beam="1">  1        1 0.19094556E+00 0.92416618E+03</pdfrwt>
<pdfrwt beam="2">  1       -1 0.25717964E+00 0.92416618E+03</pdfrwt>
<totfact> 0.63843034E-01</totfact>
</mgrwt>
</event>
<event>
 4    5  0.7767175E-008  0.7206621E+03  0.7818608E-02  0.9920352E-01
         -1   -1    0    0    0  501 -0.00000000000E+00  0.00000000000E+00  0.52366645557E+03  0.52366645560E+03  0.50400000000E-02 0.  1.
          1   -1    0    0  501    0  0.00000000000E+00 -0.00000000000E+00 -0.11050018643E+04  0.11050018643E+04  0.50400000000E-02 0. -1.
    8880023    1    1    2    0    0 -0.28757187836E+03 -0.53348852816E+02  0.22698263900E+03  0.75556271083E+03  0.65864270000E+03 0.  1.
    8880022    1    1    2    0    0  0.28757187836E+03  0.53348852816E+02 -0.80831804776E+03  0.87310560912E+03  0.15294330000E+03 0.  0.
<mgrwt>
<rscale>  0 0.59285006E+03</rscale>
<asrwt>0</asrwt>
<pdfrwt beam="1">  1        1 0.17000029E+00 0.72066212E+03</pdfrwt>
<pdfrwt beam="2">  1       -1 0.80564070E-01 0.72066212E+03</pdfrwt>
<totfact> 0.19970680E+01</totfact>
</mgrwt>
</event>
<event>
 4    5  0.7767175E-008  0.1639003E+04  0.7818608E-02  0.8817247E-01
         -1   -1    0    0    0  501 -0.00000000000E+00  0.00000000000E+00  0.41149834690E+04  0.41149834690E+04  0.50400000000E-02 0.  1.
          1   -1    0    0  501    0  0.00000000000E+00 -0.00000000000E+00 -0.10759977303E+04  0.10759977303E+04  0.50400000000E-02 0. -1.
    8880023    1    1    2    0    0 -0.11961858091E+03  0.14960654799E+04  0.32767008003E+04  0.36637547497E+04  0.65864270000E+03 0.  0.
    8880022    1    1    2    0    0  0.11961858091E+03 -0.14960654799E+04 -0.23771506154E+03  0.15272264496E+04  0.15294330000E+03 0.  0.
<mgrwt>
<rscale>  0 0.16053852E+04</rscale>
<asrwt>0</asrwt>
<pdfrwt beam="1">  1        1 0.16553811E+00 0.16390030E+04</pdfrwt>
<pdfrwt beam="2">  1       -1 0.63307439E+00 0.16390030E+04</pdfrwt>
<totfact> 0.39869982E-03</totfact>
</mgrwt>
</event>
<event>
 4    5  0.7767175E-008  0.9026235E+03  0.7818608E-02  0.9521833E-01
          1   -1    0    0  501    0  0.00000000000E+00  0.00000000000E+00  0.11528030605E+04  0.11528030606E+04  0.50400000000E-02 0. -1.
         -1   -1    0    0    0  501 -0.00000000000E+00 -0.00000000000E+00 -0.18475765207E+04  0.18475765207E+04  0.50400000000E-02 0.  1.
    8880023    1    1    2    0    0 -0.59088322356E+03 -0.17825821323E+03 -0.16336638966E+04  0.18664369552E+04  0.65864270000E+03 0.  0.
    8880022    1    1    2    0    0  0.59088322356E+03  0.17825821323E+03  0.93889043646E+03  0.11339426260E+04  0.15294330000E+03 0.  0.
<mgrwt>
<rscale>  0 0.82693119E+03</rscale>
<asrwt>0</asrwt>
<pdfrwt beam="1">  1        1 0.17735432E+00 0.90262350E+03</pdfrwt>
<pdfrwt beam="2">  1       -1 0.28424254E+00 0.90262350E+03</pdfrwt>
<totfact> 0.49802995E-01</totfact>
</mgrwt>
</event>
<event>
 4    5  0.7767175E-008  0.6669118E+03  0.7818608E-02  0.1017981E+00
          1   -1    0    0  501    0  0.00000000000E+00  0.00000000000E+00  0.18938511556E+03  0.18938511562E+03  0.50400000000E-02 0. -1.
         -1   -1    0    0    0  501 -0.00000000000E+00 -0.00000000000E+00 -0.19586251834E+04  0.19586251834E+04  0.50400000000E-02 0.  1.
    8880023    1    1    2    0    0 -0.10451006668E+03 -0.62305949953E+01 -0.18341445672E+04  0.19516294919E+04  0.65864270000E+03 0.  1.
    8880022    1    1    2    0    0  0.10451006668E+03  0.62305949953E+01  0.64904499298E+02  0.19638080710E+03  0.15294330000E+03 0.  0.
<mgrwt>
<rscale>  0 0.48422435E+03</rscale>
<asrwt>0</asrwt>
<pdfrwt beam="1">  1        1 0.29136173E-01 0.66691182E+03</pdfrwt>
<pdfrwt beam="2">  1       -1 0.30132694E+00 0.66691182E+03</pdfrwt>
<totfact> 0.54689041E+00</totfact>
</mgrwt>
</event>
<event>
 4    5  0.7767175E-008  0.7031731E+03  0.7818608E-02  0.9984284E-01
         -1   -1    0    0    0  501 -0.00000000000E+00  0.00000000000E+00  0.44754087703E+03  0.44754087706E+03  0.50400000000E-02 0.  1.
          1   -1    0    0  501    0  0.00000000000E+00 -0.00000000000E+00 -0.14977395466E+04  0.14977395466E+04  0.50400000000E-02 0. -1.
    8880023    1    1    2    0    0 -0.20739163360E+03  0.13278152264E+03  0.14283478959E+03  0.71753341791E+03  0.65864270000E+03 0.  0.
    8880022    1    1    2    0    0  0.20739163360E+03 -0.13278152264E+03 -0.11930334591E+04  0.12277470057E+04  0.15294330000E+03 0.  0.
<mgrwt>
<rscale>  0 0.56344755E+03</rscale>
<asrwt>0</asrwt>
<pdfrwt beam="1">  1        1 0.23042147E+00 0.70317311E+03</pdfrwt>
<pdfrwt beam="2">  1       -1 0.68852443E-01 0.70317311E+03</pdfrwt>
<totfact> 0.14622407E+01</totfact>
</mgrwt>
</event>
<event>
 4    5  0.7767175E-008  0.8658627E+03  0.7818608E-02  0.9583219E-01
          1   -1    0    0  501    0  0.00000000000E+00  0.00000000000E+00  0.13639744312E+04  0.13639744312E+04  0.50400000000E-02 0. -1.
         -1   -1    0    0    0  501 -0.00000000000E+00 -0.00000000000E+00 -0.75135484011E+03  0.75135484013E+03  0.50400000000E-02 0.  1.
    8880023    1    1    2    0    0 -0.44947357316E+03 -0.33746334981E+03 -0.39480661605E+03  0.95162517609E+03  0.65864270000E+03 0.  1.
    8880022    1    1    2    0    0  0.44947357316E+03  0.33746334981E+03  0.10074262071E+04  0.11637040952E+04  0.15294330000E+03 0.  0.
<mgrwt>
<rscale>  0 0.78416906E+03</rscale>
<asrwt>0</asrwt>
<pdfrwt beam="1">  1        1 0.20984222E+00 0.86586270E+03</pdfrwt>
<pdfrwt beam="2">  1       -1 0.11559305E+00 0.86586270E+03</pdfrwt>
<totfact> 0.56420701E+00</totfact>
</mgrwt>
</event>
<event>
 4    5  0.7767175E-008  0.1024903E+04  0.7818608E-02  0.9349679E-01
         -1   -1    0    0    0  501 -0.00000000000E+00  0.00000000000E+00  0.66764768560E+03  0.66764768562E+03  0.50400000000E-02 0.  1.
          1   -1    0    0  501    0  0.00000000000E+00 -0.00000000000E+00 -0.16221465061E+04  0.16221465061E+04  0.50400000000E-02 0. -1.
    8880023    1    1    2    0    0  0.23681142344E+03 -0.74868929270E+03 -0.10698057268E+04  0.14815227999E+04  0.65864270000E+03 0.  0.
    8880022    1    1    2    0    0 -0.23681142344E+03  0.74868929270E+03  0.11530690625E+03  0.80827139187E+03  0.15294330000E+03 0.  0.
<mgrwt>
<rscale>  0 0.96335213E+03</rscale>
<asrwt>0</asrwt>
<pdfrwt beam="1">  1        1 0.24956100E+00 0.10249027E+04</pdfrwt>
<pdfrwt beam="2">  1       -1 0.10271503E+00 0.10249027E+04</pdfrwt>
<totfact> 0.48455612E+00</totfact>
</mgrwt>
</event>
<event>
 4    5  0.7767175E-008  0.8141427E+03  0.7818608E-02  0.9681012E-01
         -1   -1    0    0    0  501 -0.00000000000E+00  0.00000000000E+00  0.24018126485E+04  0.24018126485E+04  0.50400000000E-02 0.  1.
          1   -1    0    0  501    0  0.00000000000E+00 -0.00000000000E+00 -0.88327671638E+03  0.88327671640E+03  0.50400000000E-02 0. -1.
    8880023    1    1    2    0    0  0.43179735879E+03 -0.20632283661E+03  0.22527985971E+04  0.23953976283E+04  0.65864270000E+03 0.  0.
    8880022    1    1    2    0    0 -0.43179735879E+03  0.20632283661E+03 -0.73426266503E+03  0.88969173663E+03  0.15294330000E+03 0. -1.
<mgrwt>
<rscale>  0 0.72158691E+03</rscale>
<asrwt>0</asrwt>
<pdfrwt beam="1">  1        1 0.13588873E+00 0.81414266E+03</pdfrwt>
<pdfrwt beam="2">  1       -1 0.36950964E+00 0.81414266E+03</pdfrwt>
<totfact> 0.22920873E-01</totfact>
</mgrwt>
</event>
<event>
 4    5  0.7767175E-008  0.1138315E+04  0.7818608E-02  0.9219550E-01
          1   -1    0    0  501    0  0.00000000000E+00  0.00000000000E+00  0.14422535824E+04  0.14422535824E+04  0.50400000000E-02 0. -1.
         -1   -1    0    0    0  501 -0.00000000000E+00 -0.00000000000E+00 -0.12934945010E+04  0.12934945010E+04  0.50400000000E-02 0.  1.
    8880023    1    1    2    0    0  0.91885547834E+03 -0.13287059765E+03 -0.80637670462E+03  0.13949923232E+04  0.65864270000E+03 0.  1.
    8880022    1    1    2    0    0 -0.91885547834E+03  0.13287059765E+03  0.95513578602E+03  0.13407557602E+04  0.15294330000E+03 0.  0.
<mgrwt>
<rscale>  0 0.10853895E+04</rscale>
<asrwt>0</asrwt>
<pdfrwt beam="1">  1        1 0.22188517E+00 0.11383146E+04</pdfrwt>
<pdfrwt beam="2">  1       -1 0.19899916E+00 0.11383146E+04</pdfrwt>
<totfact> 0.10837061E+00</totfact>
</mgrwt>
</event>
<event>
 4    5  0.7767175E-008  0.7403878E+03  0.7818608E-02  0.9858819E-01
          1   -1    0    0  501    0  0.00000000000E+00  0.00000000000E+00  0.93531245868E+03  0.93531245869E+03  0.50400000000E-02 0. -1.
         -1   -1    0    0    0  501 -0.00000000000E+00 -0.00000000000E+00 -0.65065575290E+03  0.65065575292E+03  0.50400000000E-02 0.  1.
    8880023    1    1    2    0    0 -0.31618469637E+03 -0.11996328126E+03 -0.37433911041E+03  0.82964084212E+03  0.65864270000E+03 0.  0.
    8880022    1    1    2    0    0  0.31618469637E+03  0.11996328126E+03  0.65899581619E+03  0.75632736949E+03  0.15294330000E+03 0.  0.
<mgrwt>
<rscale>  0 0.62299293E+03</rscale>
<asrwt>0</asrwt>
<pdfrwt beam="1">  1        1 0.14389422E+00 0.74038784E+03</pdfrwt>
<pdfrwt beam="2">  1       -1 0.10010089E+00 0.74038784E+03</pdfrwt>
<totfact> 0.16692653E+01</totfact>
</mgrwt>
</event>
<event>
 4    5  0.7767175E-008  0.1306304E+04  0.7818608E-02  0.9060135E-01
         -1   -1    0    0    0  501 -0.00000000000E+00  0.00000000000E+00  0.96999344725E+03  0.96999344726E+03  0.50400000000E-02 0.  1.
          1   -1    0    0  501    0  0.00000000000E+00 -0.00000000000E+00 -0.22964914765E+04  0.22964914765E+04  0.50400000000E-02 0. -1.
    8880023    1    1    2    0    0 -0.81027796221E+03 -0.78490173400E+03  0.24186092173E+03  0.13285059352E+04  0.65864270000E+03 0.  0.
    8880022    1    1    2    0    0  0.81027796221E+03  0.78490173400E+03 -0.15683589510E+04  0.19379789886E+04  0.15294330000E+03 0. -1.
<mgrwt>
<rscale>  0 0.12621456E+04</rscale>
<asrwt>0</asrwt>
<pdfrwt beam="1">  1        1 0.35330638E+00 0.13063044E+04</pdfrwt>
<pdfrwt beam="2">  1       -1 0.14922976E+00 0.13063044E+04</pdfrwt>
<totfact> 0.64314465E-01</totfact>
</mgrwt>
</event>
<event>
 4    5  0.7767175E-008  0.1170515E+04  0.7818608E-02  0.9186331E-01
         -1   -1    0    0    0  501 -0.00000000000E+00  0.00000000000E+00  0.66335613630E+03  0.66335613632E+03  0.50400000000E-02 0.  1.
          1   -1    0    0  501    0  0.00000000000E+00 -0.00000000000E+00 -0.29535271274E+04  0.29535271274E+04  0.50400000000E-02 0. -1.
    8880023    1    1    2    0    0 -0.78858960805E+03 -0.56073243152E+03 -0.23604446702E+04  0.26347302854E+04  0.65864270000E+03 0.  0.
    8880022    1    1    2    0    0  0.78858960805E+03  0.56073243152E+03  0.70273679126E+02  0.98215297825E+03  0.15294330000E+03 0.  0.
<mgrwt>
<rscale>  0 0.11195637E+04</rscale>
<asrwt>0</asrwt>
<pdfrwt beam="1">  1        1 0.45438878E+00 0.11705147E+04</pdfrwt>
<pdfrwt beam="2">  1       -1 0.10205479E+00 0.11705147E+04</pdfrwt>
<totfact> 0.58747354E-01</totfact>
</mgrwt>
</event>
<event>
 4    5  0.7767175E-008  0.7169804E+03  0.7818608E-02  0.9932939E-01
         -1   -1    0    0    0  501 -0.00000000000E+00  0.00000000000E+00  0.12155014122E+04  0.12155014122E+04  0.50400000000E-02 0.  1.
          1   -1    0    0  501    0  0.00000000000E+00 -0.00000000000E+00 -0.66892483851E+03  0.66892483853E+03  0.50400000000E-02 0. -1.
    8880023    1    1    2    0    0  0.24212911451E+03 -0.14705169604E+03  0.10592280335E+04  0.12790719068E+04  0.65864270000E+03 0.  1.
    8880022    1    1    2    0    0 -0.24212911451E+03  0.14705169604E+03 -0.51265145987E+03  0.60535434394E+03  0.15294330000E+03 0.  0.
<mgrwt>
<rscale>  0 0.58691152E+03</rscale>
<asrwt>0</asrwt>
<pdfrwt beam="1">  1        1 0.10291152E+00 0.71698042E+03</pdfrwt>
<pdfrwt beam="2">  1       -1 0.18700021E+00 0.71698042E+03</pdfrwt>
<totfact> 0.56299798E+00</totfact>
</mgrwt>
</event>
<event>
 4    5  0.1307724E-007  0.9634820E+03  0.7818608E-02  0.9430976E-01
         -1   -1    0    0    0  501 -0.00000000000E+00  0.00000000000E+00  0.13515525055E+04  0.13515525055E+04  0.50400000000E-02 0.  1.
          1   -1    0    0  501    0  0.00000000000E+00 -0.00000000000E+00 -0.21398028207E+04  0.21398028207E+04  0.50400000000E-02 0. -1.
    8880023    1    1    2    0    0  0.48583353009E+03 -0.50838293773E+03  0.11049353967E+04  0.14660081403E+04  0.65864270000E+03 0.  0.
    8880022    1    1    2    0    0 -0.48583353009E+03  0.50838293773E+03 -0.18931857119E+04  0.20253471858E+04  0.15294330000E+03 0.  0.
<mgrwt>
<rscale>  0 0.89569730E+03</rscale>
<asrwt>0</asrwt>
<pdfrwt beam="1">  1        1 0.32920043E+00 0.96348204E+03</pdfrwt>
<pdfrwt beam="2">  1       -1 0.20793115E+00 0.96348204E+03</pdfrwt>
<totfact> 0.32495016E-01</totfact>
</mgrwt>
</event>
<event>
 4    5  0.7767175E-008  0.7606836E+03  0.7818608E-02  0.9803341E-01
          1   -1    0    0  501    0  0.00000000000E+00  0.00000000000E+00  0.14284123735E+04  0.14284123735E+04  0.50400000000E-02 0. -1.
         -1   -1    0    0    0  501 -0.00000000000E+00 -0.00000000000E+00 -0.46751558210E+03  0.46751558212E+03  0.50400000000E-02 0.  1.
    8880023    1    1    2    0    0 -0.20659561536E+03 -0.31960544799E+03 -0.91752521762E+02  0.76619718231E+03  0.65864270000E+03 0.  1.
    8880022    1    1    2    0    0  0.20659561536E+03  0.31960544799E+03  0.10526493132E+04  0.11297307733E+04  0.15294330000E+03 0.  0.
<mgrwt>
<rscale>  0 0.65183563E+03</rscale>
<asrwt>0</asrwt>
<pdfrwt beam="1">  1        1 0.21975575E+00 0.76068364E+03</pdfrwt>
<pdfrwt beam="2">  1       -1 0.71925474E-01 0.76068364E+03</pdfrwt>
<totfact> 0.14800904E+01</totfact>
</mgrwt>
</event>
<event>
 4    5  0.7767175E-008  0.6931452E+03  0.7818608E-02  0.1002692E+00
         -1   -1    0    0    0  501 -0.00000000000E+00  0.00000000000E+00  0.51281009216E+03  0.51281009218E+03  0.50400000000E-02 0.  1.
          1   -1    0    0  501    0  0.00000000000E+00 -0.00000000000E+00 -0.92483231325E+03  0.92483231327E+03  0.50400000000E-02 0. -1.
    8880023    1    1    2    0    0  0.13642088788E+03 -0.16741970001E+03  0.24035403998E+03  0.73363498104E+03  0.65864270000E+03 0.  1.
    8880022    1    1    2    0    0 -0.13642088788E+03  0.16741970001E+03 -0.65237626107E+03  0.70400742441E+03  0.15294330000E+03 0.  0.
<mgrwt>
<rscale>  0 0.54485377E+03</rscale>
<asrwt>0</asrwt>
<pdfrwt beam="1">  1        1 0.14228189E+00 0.69314517E+03</pdfrwt>
<pdfrwt beam="2">  1       -1 0.78893860E-01 0.69314517E+03</pdfrwt>
<totfact> 0.28837207E+01</totfact>
</mgrwt>
</event>
<event>
 4    5  0.7767175E-008  0.7988157E+03  0.7818608E-02  0.9713363E-01
          1   -1    0    0  501    0  0.00000000000E+00  0.00000000000E+00  0.13690570800E+04  0.13690570800E+04  0.50400000000E-02 0. -1.
         -1   -1    0    0    0  501 -0.00000000000E+00 -0.00000000000E+00 -0.77524647640E+03  0.77524647642E+03  0.50400000000E-02 0.  1.
    8880023    1    1    2    0    0  0.44912752995E+02  0.44975449311E+03 -0.50589672395E+03  0.94553580631E+03  0.65864270000E+03 0.  1.
    8880022    1    1    2    0    0 -0.44912752995E+02 -0.44975449311E+03  0.10997073276E+04  0.11987677501E+04  0.15294330000E+03 0.  0.
<mgrwt>
<rscale>  0 0.70226727E+03</rscale>
<asrwt>0</asrwt>
<pdfrwt beam="1">  1        1 0.21062417E+00 0.79881566E+03</pdfrwt>
<pdfrwt beam="2">  1       -1 0.11926869E+00 0.79881566E+03</pdfrwt>
<totfact> 0.52391232E+00</totfact>
</mgrwt>
</event>
<event>
 4    5  0.7767175E-008  0.9737656E+03  0.7818608E-02  0.9416715E-01
          1   -1    0    0  501    0  0.00000000000E+00  0.00000000000E+00  0.72862334628E+03  0.72862334630E+03  0.50400000000E-02 0. -1.
         -1   -1    0    0    0  501 -0.00000000000E+00 -0.00000000000E+00 -0.24751120919E+04  0.24751120919E+04  0.50400000000E-02 0.  1.
    8880023    1    1    2    0    0 -0.58146561161E+03 -0.41988934703E+03 -0.21546344771E+04  0.23644596121E+04  0.65864270000E+03 0.  0.
    8880022    1    1    2    0    0  0.58146561161E+03  0.41988934703E+03  0.40814573142E+03  0.83927582613E+03  0.15294330000E+03 0.  0.
<mgrwt>
<rscale>  0 0.90712792E+03</rscale>
<asrwt>0</asrwt>
<pdfrwt beam="1">  1        1 0.11209590E+00 0.97376564E+03</pdfrwt>
<pdfrwt beam="2">  1       -1 0.38078647E+00 0.97376564E+03</pdfrwt>
<totfact> 0.25465215E-01</totfact>
</mgrwt>
</event>
<event>
 4    5  0.7767175E-008  0.7238173E+03  0.7818608E-02  0.9909875E-01
         -1   -1    0    0    0  501 -0.00000000000E+00  0.00000000000E+00  0.58830913238E+03  0.58830913241E+03  0.50400000000E-02 0.  1.
          1   -1    0    0  501    0  0.00000000000E+00 -0.00000000000E+00 -0.21545510738E+04  0.21545510738E+04  0.50400000000E-02 0. -1.
    8880023    1    1    2    0    0 -0.71941514948E+00 -0.30016778728E+03  0.34522706150E+03  0.80193088751E+03  0.65864270000E+03 0.  1.
    8880022    1    1    2    0    0  0.71941514948E+00  0.30016778728E+03 -0.19114690029E+04  0.19409293187E+04  0.15294330000E+03 0.  0.
<mgrwt>
<rscale>  0 0.59785074E+03</rscale>
<asrwt>0</asrwt>
<pdfrwt beam="1">  1        1 0.33146939E+00 0.72381726E+03</pdfrwt>
<pdfrwt beam="2">  1       -1 0.90509099E-01 0.72381726E+03</pdfrwt>
<totfact> 0.29604332E+00</totfact>
</mgrwt>
</event>
<event>
 4    5  0.7767175E-008  0.8247915E+03  0.7818608E-02  0.9659553E-01
         -1   -1    0    0    0  501 -0.00000000000E+00  0.00000000000E+00  0.35453953459E+03  0.35453953463E+03  0.50400000000E-02 0.  1.
          1   -1    0    0  501    0  0.00000000000E+00 -0.00000000000E+00 -0.20205998695E+04  0.20205998695E+04  0.50400000000E-02 0. -1.
    8880023    1    1    2    0    0  0.47794712309E+03  0.13430338471E+03 -0.24241749463E+03  0.85967860249E+03  0.65864270000E+03 0.  1.
    8880022    1    1    2    0    0 -0.47794712309E+03 -0.13430338471E+03 -0.14236428402E+04  0.15154608016E+04  0.15294330000E+03 0.  0.
<mgrwt>
<rscale>  0 0.73476923E+03</rscale>
<asrwt>0</asrwt>
<pdfrwt beam="1">  1        1 0.31086151E+00 0.82479152E+03</pdfrwt>
<pdfrwt beam="2">  1       -1 0.54544545E-01 0.82479152E+03</pdfrwt>
<totfact> 0.10134989E+01</totfact>
</mgrwt>
</event>
<event>
 4    5  0.7767175E-008  0.1000724E+04  0.7818608E-02  0.9380610E-01
         -1   -1    0    0    0  501 -0.00000000000E+00  0.00000000000E+00  0.59871323571E+03  0.59871323573E+03  0.50400000000E-02 0.  1.
          1   -1    0    0  501    0  0.00000000000E+00 -0.00000000000E+00 -0.16561488505E+04  0.16561488505E+04  0.50400000000E-02 0. -1.
    8880023    1    1    2    0    0  0.10560270529E+03 -0.74598077888E+03 -0.69625872334E+02  0.10031436698E+04  0.65864270000E+03 0.  0.
    8880022    1    1    2    0    0 -0.10560270529E+03  0.74598077888E+03 -0.98780974241E+03  0.12517184164E+04  0.15294330000E+03 0.  0.
<mgrwt>
<rscale>  0 0.93688689E+03</rscale>
<asrwt>0</asrwt>
<pdfrwt beam="1">  1        1 0.25479213E+00 0.10007245E+04</pdfrwt>
<pdfrwt beam="2">  1       -1 0.92109729E-01 0.10007245E+04</pdfrwt>
<totfact> 0.59010993E+00</totfact>
</mgrwt>
</event>
<event>
 4    5  0.7767175E-008  0.8300669E+03  0.7818608E-02  0.9649202E-01
          1   -1    0    0  501    0  0.00000000000E+00  0.00000000000E+00  0.60337424202E+03  0.60337424204E+03  0.50400000000E-02 0. -1.
         -1   -1    0    0    0  501 -0.00000000000E+00 -0.00000000000E+00 -0.10863872917E+04  0.10863872917E+04  0.50400000000E-02 0.  1.
    8880023    1    1    2    0    0 -0.28776976771E+03  0.41519797460E+03 -0.73148565096E+03  0.11063825112E+04  0.65864270000E+03 0.  0.
    8880022    1    1    2    0    0  0.28776976771E+03 -0.41519797460E+03  0.24847260128E+03  0.58337902253E+03  0.15294330000E+03 0.  0.
<mgrwt>
<rscale>  0 0.74123510E+03</rscale>
<asrwt>0</asrwt>
<pdfrwt beam="1">  1        1 0.92826807E-01 0.83006687E+03</pdfrwt>
<pdfrwt beam="2">  1       -1 0.16713651E+00 0.83006687E+03</pdfrwt>
<totfact> 0.89622005E+00</totfact>
</mgrwt>
</event>
<event>
 4    5  0.7767175E-008  0.1444122E+04  0.7818608E-02  0.8950136E-01
         -1   -1    0    0    0  501 -0.00000000000E+00  0.00000000000E+00  0.98787920026E+03  0.98787920027E+03  0.50400000000E-02 0.  1.
          1   -1    0    0  501    0  0.00000000000E+00 -0.00000000000E+00 -0.24765940982E+04  0.24765940982E+04  0.50400000000E-02 0. -1.
    8880023    1    1    2    0    0  0.12837252092E+04  0.61045259954E+02  0.60979949289E+02  0.14454084880E+04  0.65864270000E+03 0.  1.
    8880022    1    1    2    0    0 -0.12837252092E+04 -0.61045259954E+02 -0.15496948472E+04  0.20190648105E+04  0.15294330000E+03 0.  0.
<mgrwt>
<rscale>  0 0.14050989E+04</rscale>
<asrwt>0</asrwt>
<pdfrwt beam="1">  1        1 0.38101448E+00 0.14441216E+04</pdfrwt>
<pdfrwt beam="2">  1       -1 0.15198142E+00 0.14441216E+04</pdfrwt>
<totfact> 0.45263434E-01</totfact>
</mgrwt>
</event>
<event>
 4    5  0.7767175E-008  0.7423824E+03  0.7818608E-02  0.9853061E-01
          1   -1    0    0  501    0  0.00000000000E+00  0.00000000000E+00  0.10597088103E+04  0.10597088103E+04  0.50400000000E-02 0. -1.
         -1   -1    0    0    0  501 -0.00000000000E+00 -0.00000000000E+00 -0.33976669757E+03  0.33976669761E+03  0.50400000000E-02 0.  1.
    8880023    1    1    2    0    0  0.14299623071E+03  0.31124502141E+03  0.21969549171E+03  0.77420778909E+03  0.65864270000E+03 0. -1.
    8880022    1    1    2    0    0 -0.14299623071E+03 -0.31124502141E+03  0.50024662101E+03  0.62526771882E+03  0.15294330000E+03 0.  0.
<mgrwt>
<rscale>  0 0.62591093E+03</rscale>
<asrwt>0</asrwt>
<pdfrwt beam="1">  1        1 0.16303213E+00 0.74238238E+03</pdfrwt>
<pdfrwt beam="2">  1       -1 0.52271799E-01 0.74238238E+03</pdfrwt>
<totfact> 0.51409074E+01</totfact>
</mgrwt>
</event>
<event>
 4    5  0.7767175E-008  0.7032655E+03  0.7818608E-02  0.9983915E-01
          1   -1    0    0  501    0  0.00000000000E+00  0.00000000000E+00  0.12740121199E+04  0.12740121199E+04  0.50400000000E-02 0. -1.
         -1   -1    0    0    0  501 -0.00000000000E+00 -0.00000000000E+00 -0.48869992315E+03  0.48869992318E+03  0.50400000000E-02 0.  1.
    8880023    1    1    2    0    0  0.23408404619E+03  0.77309582599E+02 -0.20358383806E+03  0.73213980743E+03  0.65864270000E+03 0.  1.
    8880022    1    1    2    0    0 -0.23408404619E+03 -0.77309582599E+02  0.98889603484E+03  0.10305722357E+04  0.15294330000E+03 0.  0.
<mgrwt>
<rscale>  0 0.56361185E+03</rscale>
<asrwt>0</asrwt>
<pdfrwt beam="1">  1        1 0.19600186E+00 0.70326547E+03</pdfrwt>
<pdfrwt beam="2">  1       -1 0.75184604E-01 0.70326547E+03</pdfrwt>
<totfact> 0.17454729E+01</totfact>
</mgrwt>
</event>
<event>
 4    5  0.7767175E-008  0.6703436E+03  0.7818608E-02  0.1015418E+00
          1   -1    0    0  501    0  0.00000000000E+00  0.00000000000E+00  0.26232451280E+04  0.26232451280E+04  0.50400000000E-02 0. -1.
         -1   -1    0    0    0  501 -0.00000000000E+00 -0.00000000000E+00 -0.82463834453E+02  0.82463834607E+02  0.50400000000E-02 0.  1.
    8880023    1    1    2    0    0  0.47348246517E+02 -0.11536233896E+03  0.14530675808E+04  0.16002393341E+04  0.65864270000E+03 0.  1.
    8880022    1    1    2    0    0 -0.47348246517E+02  0.11536233896E+03  0.10877137127E+04  0.11054696285E+04  0.15294330000E+03 0.  0.
<mgrwt>
<rscale>  0 0.49377074E+03</rscale>
<asrwt>0</asrwt>
<pdfrwt beam="1">  1        1 0.40357618E+00 0.67034359E+03</pdfrwt>
<pdfrwt beam="2">  1       -1 0.12686744E-01 0.67034359E+03</pdfrwt>
<totfact> 0.50706856E+01</totfact>
</mgrwt>
</event>
<event>
 4    5  0.7767175E-008  0.1237225E+04  0.7818608E-02  0.9121759E-01
          1   -1    0    0  501    0  0.00000000000E+00  0.00000000000E+00  0.26776212042E+04  0.26776212043E+04  0.50400000000E-02 0. -1.
         -1   -1    0    0    0  501 -0.00000000000E+00 -0.00000000000E+00 -0.10105018613E+04  0.10105018614E+04  0.50400000000E-02 0.  1.
    8880023    1    1    2    0    0 -0.80815445170E+03  0.66618529029E+03  0.21840887541E+04  0.25101733706E+04  0.65864270000E+03 0. -1.
    8880022    1    1    2    0    0  0.80815445170E+03 -0.66618529029E+03 -0.51696941116E+03  0.11779496950E+04  0.15294330000E+03 0.  0.
<mgrwt>
<rscale>  0 0.11898817E+04</rscale>
<asrwt>0</asrwt>
<pdfrwt beam="1">  1        1 0.41194173E+00 0.12372254E+04</pdfrwt>
<pdfrwt beam="2">  1       -1 0.15546182E+00 0.12372254E+04</pdfrwt>
<totfact> 0.31666733E-01</totfact>
</mgrwt>
</event>
<event>
 4    5  0.7767175E-008  0.9855575E+03  0.7818608E-02  0.9400702E-01
         -1   -1    0    0    0  501 -0.00000000000E+00  0.00000000000E+00  0.31271692266E+03  0.31271692270E+03  0.50400000000E-02 0.  1.
          1   -1    0    0  501    0  0.00000000000E+00 -0.00000000000E+00 -0.30380256814E+04  0.30380256814E+04  0.50400000000E-02 0. -1.
    8880023    1    1    2    0    0  0.31691642979E+03 -0.66111820748E+03 -0.75077690388E+03  0.12389469211E+04  0.65864270000E+03 0.  0.
    8880022    1    1    2    0    0 -0.31691642979E+03  0.66111820748E+03 -0.19745318549E+04  0.21117956830E+04  0.15294330000E+03 0.  0.
<mgrwt>
<rscale>  0 0.92017965E+03</rscale>
<asrwt>0</asrwt>
<pdfrwt beam="1">  1        1 0.46738855E+00 0.98555746E+03</pdfrwt>
<pdfrwt beam="2">  1       -1 0.48110298E-01 0.98555746E+03</pdfrwt>
<totfact> 0.24955982E+00</totfact>
</mgrwt>
</event>
<event>
 4    5  0.7767175E-008  0.7438864E+03  0.7818608E-02  0.9848767E-01
          1   -1    0    0  501    0  0.00000000000E+00  0.00000000000E+00  0.82937289817E+03  0.82937289819E+03  0.50400000000E-02 0. -1.
         -1   -1    0    0    0  501 -0.00000000000E+00 -0.00000000000E+00 -0.92507394158E+03  0.92507394159E+03  0.50400000000E-02 0.  1.
    8880023    1    1    2    0    0  0.34460052146E+03 -0.28412632443E+02 -0.71310240612E+03  0.10304766106E+04  0.65864270000E+03 0.  1.
    8880022    1    1    2    0    0 -0.34460052146E+03  0.28412632443E+02  0.61740136271E+03  0.72397022920E+03  0.15294330000E+03 0.  0.
<mgrwt>
<rscale>  0 0.62809799E+03</rscale>
<asrwt>0</asrwt>
<pdfrwt beam="1">  1        1 0.12759583E+00 0.74388642E+03</pdfrwt>
<pdfrwt beam="2">  1       -1 0.14231907E+00 0.74388642E+03</pdfrwt>
<totfact> 0.86481093E+00</totfact>
</mgrwt>
</event>
