<event>
 4    1  0.8478300E-009  0.2080363E+03  0.7818608E-02  0.1143131E+00
          4   -1    0    0  501    0  0.00000000000E+00  0.00000000000E+00  0.93356241853E+02  0.93364879869E+02  0.12700000000E+01 0. -1.
         -4   -1    0    0    0  501 -0.00000000000E+00 -0.00000000000E+00 -0.12426726102E+04  0.12426732591E+04  0.12700000000E+01 0. -1.
    8880022    1    1    2    0    0  0.10313590230E+03  0.96179203876E+02 -0.11036012202E+04  0.11230381827E+04  0.15294330000E+03 0.  0.
    8880022    1    1    2    0    0 -0.10313590230E+03 -0.96179203876E+02 -0.45715148140E+02  0.21299995631E+03  0.15294330000E+03 0.  0.
<mgrwt>
<rscale>  0 0.20803631E+03</rscale>
<asrwt>0</asrwt>
<pdfrwt beam="1">  1        4 0.14363214E-01 0.20803631E+03</pdfrwt>
<pdfrwt beam="2">  1       -4 0.19118110E+00 0.20803631E+03</pdfrwt>
<totfact> 0.11956473E+01</totfact>
</mgrwt>
</event>
<event>
 4    1  0.8478300E-009  0.1639960E+03  0.7818608E-02  0.1184258E+00
          4   -1    0    0  501    0  0.00000000000E+00  0.00000000000E+00  0.74945033002E+02  0.74955792782E+02  0.12700000000E+01 0. -1.
         -4   -1    0    0    0  501 -0.00000000000E+00 -0.00000000000E+00 -0.36973838245E+03  0.36974056358E+03  0.12700000000E+01 0. -1.
    8880022    1    1    2    0    0  0.49019332069E+02 -0.33168329848E+02 -0.18560292648E+03  0.24767545772E+03  0.15294330000E+03 0.  1.
    8880022    1    1    2    0    0 -0.49019332069E+02  0.33168329848E+02 -0.10919042297E+03  0.19702089865E+03  0.15294330000E+03 0.  1.
<mgrwt>
<rscale>  0 0.16399599E+03</rscale>
<asrwt>0</asrwt>
<pdfrwt beam="1">  1        4 0.11531001E-01 0.16399599E+03</pdfrwt>
<pdfrwt beam="2">  1       -4 0.56883822E-01 0.16399599E+03</pdfrwt>
<totfact> 0.30424573E+02</totfact>
</mgrwt>
</event>
<event>
 4    1  0.8478300E-009  0.1796529E+03  0.7818608E-02  0.1168139E+00
          4   -1    0    0  501    0  0.00000000000E+00  0.00000000000E+00  0.15235661455E+03  0.15236190763E+03  0.12700000000E+01 0.  1.
         -4   -1    0    0    0  501 -0.00000000000E+00 -0.00000000000E+00 -0.21220794499E+03  0.21221174524E+03  0.12700000000E+01 0.  1.
    8880022    1    1    2    0    0  0.89099695932E+02 -0.30736662112E+02 -0.37632226176E+02  0.18355199720E+03  0.15294330000E+03 0.  0.
    8880022    1    1    2    0    0 -0.89099695932E+02  0.30736662112E+02 -0.22219104263E+02  0.18102165567E+03  0.15294330000E+03 0.  0.
<mgrwt>
<rscale>  0 0.17965286E+03</rscale>
<asrwt>0</asrwt>
<pdfrwt beam="1">  1        4 0.23440179E-01 0.17965286E+03</pdfrwt>
<pdfrwt beam="2">  1       -4 0.32648076E-01 0.17965286E+03</pdfrwt>
<totfact> 0.26686421E+02</totfact>
</mgrwt>
</event>
<event>
 4    1  0.8478300E-009  0.1535097E+03  0.7818608E-02  0.1196225E+00
         -4   -1    0    0    0  501 -0.00000000000E+00  0.00000000000E+00  0.55512061980E+03  0.55512207255E+03  0.12700000000E+01 0. -1.
          4   -1    0    0  501    0  0.00000000000E+00 -0.00000000000E+00 -0.44011986816E+02  0.44030306420E+02  0.12700000000E+01 0. -1.
    8880022    1    1    2    0    0  0.13169939245E+02 -0.36952168920E+00  0.31216455415E+03  0.34786771297E+03  0.15294330000E+03 0.  1.
    8880022    1    1    2    0    0 -0.13169939245E+02  0.36952168920E+00  0.19894407884E+03  0.25128466600E+03  0.15294330000E+03 0.  1.
<mgrwt>
<rscale>  0 0.15350973E+03</rscale>
<asrwt>0</asrwt>
<pdfrwt beam="1">  1        4 0.67725954E-02 0.15350973E+03</pdfrwt>
<pdfrwt beam="2">  1       -4 0.85404699E-01 0.15350973E+03</pdfrwt>
<totfact> 0.30436671E+02</totfact>
</mgrwt>
</event>
<event>
 4    1  0.8478300E-009  0.1589298E+03  0.7818608E-02  0.1189910E+00
          4   -1    0    0  501    0  0.00000000000E+00  0.00000000000E+00  0.15558934320E+03  0.15559452631E+03  0.12700000000E+01 0. -1.
         -4   -1    0    0    0  501 -0.00000000000E+00 -0.00000000000E+00 -0.16240050352E+03  0.16240546926E+03  0.12700000000E+01 0. -1.
    8880022    1    1    2    0    0  0.36430934891E+02  0.23234204473E+02 -0.13266966853E+00  0.15892989615E+03  0.15294330000E+03 0. -1.
    8880022    1    1    2    0    0 -0.36430934891E+02 -0.23234204473E+02 -0.66784906580E+01  0.15907009941E+03  0.15294330000E+03 0. -1.
<mgrwt>
<rscale>  0 0.15892984E+03</rscale>
<asrwt>0</asrwt>
<pdfrwt beam="1">  1        4 0.23937603E-01 0.15892984E+03</pdfrwt>
<pdfrwt beam="2">  1       -4 0.24985473E-01 0.15892984E+03</pdfrwt>
<totfact> 0.41655256E+02</totfact>
</mgrwt>
</event>
<event>
 4    1  0.8478300E-009  0.1724045E+03  0.7818608E-02  0.1175363E+00
          4   -1    0    0  501    0  0.00000000000E+00  0.00000000000E+00  0.82867595166E+02  0.82877326385E+02  0.12700000000E+01 0. -1.
         -4   -1    0    0    0  501 -0.00000000000E+00 -0.00000000000E+00 -0.36723075602E+03  0.36723295204E+03  0.12700000000E+01 0. -1.
    8880022    1    1    2    0    0 -0.24964178054E+02 -0.75554281892E+02 -0.17657794173E+03  0.24678549840E+03  0.15294330000E+03 0.  0.
    8880022    1    1    2    0    0  0.24964178054E+02  0.75554281892E+02 -0.10778521912E+03  0.20332478003E+03  0.15294330000E+03 0.  0.
<mgrwt>
<rscale>  0 0.17240450E+03</rscale>
<asrwt>0</asrwt>
<pdfrwt beam="1">  1        4 0.12749778E-01 0.17240450E+03</pdfrwt>
<pdfrwt beam="2">  1       -4 0.56497956E-01 0.17240450E+03</pdfrwt>
<totfact> 0.26178379E+02</totfact>
</mgrwt>
</event>
<event>
 4    1  0.8478300E-009  0.1832777E+03  0.7818608E-02  0.1164668E+00
         -4   -1    0    0    0  501 -0.00000000000E+00  0.00000000000E+00  0.15565615835E+03  0.15566133923E+03  0.12700000000E+01 0.  1.
          4   -1    0    0  501    0  0.00000000000E+00 -0.00000000000E+00 -0.21579205519E+03  0.21579579232E+03  0.12700000000E+01 0.  1.
    8880022    1    1    2    0    0  0.65144773977E+02  0.77170137832E+02 -0.29518614348E+02  0.18563963305E+03  0.15294330000E+03 0.  0.
    8880022    1    1    2    0    0 -0.65144773977E+02 -0.77170137832E+02 -0.30617282497E+02  0.18581749851E+03  0.15294330000E+03 0.  0.
<mgrwt>
<rscale>  0 0.18327773E+03</rscale>
<asrwt>0</asrwt>
<pdfrwt beam="1">  1        4 0.33199464E-01 0.18327773E+03</pdfrwt>
<pdfrwt beam="2">  1       -4 0.23947787E-01 0.18327773E+03</pdfrwt>
<totfact> 0.24918546E+02</totfact>
</mgrwt>
</event>
<event>
 4    1  0.8478300E-009  0.2353958E+03  0.7818608E-02  0.1122899E+00
          4   -1    0    0  501    0  0.00000000000E+00  0.00000000000E+00  0.98294772979E+03  0.98294855023E+03  0.12700000000E+01 0.  1.
         -4   -1    0    0    0  501 -0.00000000000E+00 -0.00000000000E+00 -0.59718864629E+02  0.59732367211E+02  0.12700000000E+01 0.  1.
    8880022    1    1    2    0    0 -0.27738162091E+02 -0.17677707974E+03  0.58515761787E+03  0.63073023736E+03  0.15294330000E+03 0.  0.
    8880022    1    1    2    0    0  0.27738162091E+02  0.17677707974E+03  0.33807124729E+03  0.41195068008E+03  0.15294330000E+03 0.  0.
<mgrwt>
<rscale>  0 0.23539583E+03</rscale>
<asrwt>0</asrwt>
<pdfrwt beam="1">  1        4 0.15122380E+00 0.23539583E+03</pdfrwt>
<pdfrwt beam="2">  1       -4 0.91886209E-02 0.23539583E+03</pdfrwt>
<totfact> 0.49242343E+01</totfact>
</mgrwt>
</event>
<event>
 4    1  0.8478300E-009  0.4554998E+03  0.7818608E-02  0.1026095E+00
          4   -1    0    0  501    0  0.00000000000E+00  0.00000000000E+00  0.12043326445E+04  0.12043333141E+04  0.12700000000E+01 0.  1.
         -4   -1    0    0    0  501 -0.00000000000E+00 -0.00000000000E+00 -0.17476107659E+03  0.17476569112E+03  0.12700000000E+01 0.  1.
    8880022    1    1    2    0    0 -0.13808501160E+03  0.40622774928E+03  0.43254402317E+03  0.62815160567E+03  0.15294330000E+03 0.  0.
    8880022    1    1    2    0    0  0.13808501160E+03 -0.40622774928E+03  0.59702754470E+03  0.75094739953E+03  0.15294330000E+03 0.  0.
<mgrwt>
<rscale>  0 0.45549984E+03</rscale>
<asrwt>0</asrwt>
<pdfrwt beam="1">  1        4 0.18528235E+00 0.45549984E+03</pdfrwt>
<pdfrwt beam="2">  1       -4 0.26886726E-01 0.45549984E+03</pdfrwt>
<totfact> 0.43280158E+00</totfact>
</mgrwt>
</event>
<event>
 4    1  0.8478300E-009  0.1698602E+03  0.7818608E-02  0.1177994E+00
         -4   -1    0    0    0  501 -0.00000000000E+00  0.00000000000E+00  0.18398670554E+03  0.18399108869E+03  0.12700000000E+01 0. -1.
          4   -1    0    0  501    0  0.00000000000E+00 -0.00000000000E+00 -0.17023228034E+03  0.17023701762E+03  0.12700000000E+01 0. -1.
    8880022    1    1    2    0    0 -0.40344694063E+01  0.73787247077E+02 -0.42855403060E+02  0.17518297109E+03  0.15294330000E+03 0. -1.
    8880022    1    1    2    0    0  0.40344694063E+01 -0.73787247077E+02  0.56609828262E+02  0.17904513522E+03  0.15294330000E+03 0. -1.
<mgrwt>
<rscale>  0 0.16986020E+03</rscale>
<asrwt>0</asrwt>
<pdfrwt beam="1">  1        4 0.26190283E-01 0.16986020E+03</pdfrwt>
<pdfrwt beam="2">  1       -4 0.28306349E-01 0.16986020E+03</pdfrwt>
<totfact> 0.28245073E+02</totfact>
</mgrwt>
</event>
<event>
 4    1  0.8478300E-009  0.1687343E+03  0.7818608E-02  0.1179174E+00
          4   -1    0    0  501    0  0.00000000000E+00  0.00000000000E+00  0.35130439503E+02  0.35153387883E+02  0.12700000000E+01 0. -1.
         -4   -1    0    0    0  501 -0.00000000000E+00 -0.00000000000E+00 -0.88804108772E+03  0.88804199584E+03  0.12700000000E+01 0. -1.
    8880022    1    1    2    0    0  0.46030184038E+01 -0.71122671401E+02 -0.28975583128E+03  0.33530540846E+03  0.15294330000E+03 0.  0.
    8880022    1    1    2    0    0 -0.46030184038E+01  0.71122671401E+02 -0.56315481693E+03  0.58788997526E+03  0.15294330000E+03 0.  0.
<mgrwt>
<rscale>  0 0.16873433E+03</rscale>
<asrwt>0</asrwt>
<pdfrwt beam="1">  1        4 0.54065188E-02 0.16873433E+03</pdfrwt>
<pdfrwt beam="2">  1       -4 0.13662352E+00 0.16873433E+03</pdfrwt>
<totfact> 0.14718135E+02</totfact>
</mgrwt>
</event>
<event>
 4    1  0.8478300E-009  0.1650831E+03  0.7818608E-02  0.1183075E+00
         -4   -1    0    0    0  501 -0.00000000000E+00  0.00000000000E+00  0.77855305558E+03  0.77855409141E+03  0.12700000000E+01 0.  1.
          4   -1    0    0  501    0  0.00000000000E+00 -0.00000000000E+00 -0.70801726469E+02  0.70813115812E+02  0.12700000000E+01 0.  1.
    8880022    1    1    2    0    0 -0.21702293231E+01  0.62097342978E+02  0.51886169785E+02  0.17304513148E+03  0.15294330000E+03 0.  0.
    8880022    1    1    2    0    0  0.21702293231E+01 -0.62097342978E+02  0.65586515933E+03  0.67632207574E+03  0.15294330000E+03 0.  0.
<mgrwt>
<rscale>  0 0.16508314E+03</rscale>
<asrwt>0</asrwt>
<pdfrwt beam="1">  1        4 0.10893529E-01 0.16508314E+03</pdfrwt>
<pdfrwt beam="2">  1       -4 0.11977835E+00 0.16508314E+03</pdfrwt>
<totfact> 0.63332939E+01</totfact>
</mgrwt>
</event>
<event>
 4    1  0.8478300E-009  0.2303200E+03  0.7818608E-02  0.1126415E+00
          4   -1    0    0  501    0  0.00000000000E+00  0.00000000000E+00  0.34562855823E+03  0.34563089151E+03  0.12700000000E+01 0.  1.
         -4   -1    0    0    0  501 -0.00000000000E+00 -0.00000000000E+00 -0.17491588569E+03  0.17492049614E+03  0.12700000000E+01 0.  1.
    8880022    1    1    2    0    0 -0.79085675555E+02  0.15297420068E+03  0.17647962270E+03  0.29015919836E+03  0.15294330000E+03 0.  0.
    8880022    1    1    2    0    0  0.79085675555E+02 -0.15297420068E+03 -0.57669501620E+01  0.23039218928E+03  0.15294330000E+03 0.  0.
<mgrwt>
<rscale>  0 0.23032000E+03</rscale>
<asrwt>0</asrwt>
<pdfrwt beam="1">  1        4 0.53174158E-01 0.23032000E+03</pdfrwt>
<pdfrwt beam="2">  1       -4 0.26910671E-01 0.23032000E+03</pdfrwt>
<totfact> 0.80682929E+01</totfact>
</mgrwt>
</event>
<event>
 4    1  0.8478300E-009  0.1682947E+03  0.7818608E-02  0.1179638E+00
         -4   -1    0    0    0  501 -0.00000000000E+00  0.00000000000E+00  0.10726704483E+04  0.10726712001E+04  0.12700000000E+01 0. -1.
          4   -1    0    0  501    0  0.00000000000E+00 -0.00000000000E+00 -0.40939504110E+02  0.40959197951E+02  0.12700000000E+01 0. -1.
    8880022    1    1    2    0    0  0.20904356479E+02 -0.67040676853E+02  0.84772384226E+03  0.86426778849E+03  0.15294330000E+03 0.  0.
    8880022    1    1    2    0    0 -0.20904356479E+02  0.67040676853E+02  0.18400710188E+03  0.24936260953E+03  0.15294330000E+03 0.  0.
<mgrwt>
<rscale>  0 0.16829467E+03</rscale>
<asrwt>0</asrwt>
<pdfrwt beam="1">  1        4 0.62999576E-02 0.16829467E+03</pdfrwt>
<pdfrwt beam="2">  1       -4 0.16502781E+00 0.16829467E+03</pdfrwt>
<totfact> 0.70574164E+01</totfact>
</mgrwt>
</event>
<event>
 4    1  0.8478300E-009  0.2145857E+03  0.7818608E-02  0.1137985E+00
         -4   -1    0    0    0  501 -0.00000000000E+00  0.00000000000E+00  0.31469622944E+02  0.31495238818E+02  0.12700000000E+01 0. -1.
          4   -1    0    0  501    0  0.00000000000E+00 -0.00000000000E+00 -0.14746177933E+04  0.14746183402E+04  0.12700000000E+01 0. -1.
    8880022    1    1    2    0    0 -0.14751380832E+03 -0.29917508174E+02 -0.65359306791E+03  0.68791782386E+03  0.15294330000E+03 0.  0.
    8880022    1    1    2    0    0  0.14751380832E+03  0.29917508174E+02 -0.78955510248E+03  0.81819575519E+03  0.15294330000E+03 0.  0.
<mgrwt>
<rscale>  0 0.21458573E+03</rscale>
<asrwt>0</asrwt>
<pdfrwt beam="1">  1        4 0.22686623E+00 0.21458573E+03</pdfrwt>
<pdfrwt beam="2">  1       -4 0.48434941E-02 0.21458573E+03</pdfrwt>
<totfact> 0.44720573E+01</totfact>
</mgrwt>
</event>
<event>
 4    1  0.8478300E-009  0.6326153E+03  0.7818608E-02  0.9839959E-01
         -4   -1    0    0    0  501 -0.00000000000E+00  0.00000000000E+00  0.31023975590E+03  0.31024235533E+03  0.12700000000E+01 0.  1.
          4   -1    0    0  501    0  0.00000000000E+00 -0.00000000000E+00 -0.14078226643E+04  0.14078232371E+04  0.12700000000E+01 0.  1.
    8880022    1    1    2    0    0 -0.49890239716E+03 -0.35764066023E+03 -0.30024491714E+03  0.70024931776E+03  0.15294330000E+03 0.  0.
    8880022    1    1    2    0    0  0.49890239716E+03  0.35764066023E+03 -0.79733799124E+03  0.10178162747E+04  0.15294330000E+03 0.  0.
<mgrwt>
<rscale>  0 0.63261528E+03</rscale>
<asrwt>0</asrwt>
<pdfrwt beam="1">  1        4 0.21658834E+00 0.63261528E+03</pdfrwt>
<pdfrwt beam="2">  1       -4 0.47729438E-01 0.63261528E+03</pdfrwt>
<totfact> 0.86699633E-01</totfact>
</mgrwt>
</event>
<event>
 4    1  0.8478300E-009  0.1754348E+03  0.7818608E-02  0.1172296E+00
         -4   -1    0    0    0  501 -0.00000000000E+00  0.00000000000E+00  0.88818084442E+02  0.88827163773E+02  0.12700000000E+01 0. -1.
          4   -1    0    0  501    0  0.00000000000E+00 -0.00000000000E+00 -0.40886257824E+03  0.40886455066E+03  0.12700000000E+01 0. -1.
    8880022    1    1    2    0    0  0.30850470986E+02 -0.80212043489E+02 -0.62832546005E+02  0.18634727080E+03  0.15294330000E+03 0.  0.
    8880022    1    1    2    0    0 -0.30850470986E+02  0.80212043489E+02 -0.25721194779E+03  0.31134444364E+03  0.15294330000E+03 0.  0.
<mgrwt>
<rscale>  0 0.17543482E+03</rscale>
<asrwt>0</asrwt>
<pdfrwt beam="1">  1        4 0.62902785E-01 0.17543482E+03</pdfrwt>
<pdfrwt beam="2">  1       -4 0.13665171E-01 0.17543482E+03</pdfrwt>
<totfact> 0.18560465E+02</totfact>
</mgrwt>
</event>
<event>
 4    1  0.8478300E-009  0.1845036E+03  0.7818608E-02  0.1163514E+00
          4   -1    0    0  501    0  0.00000000000E+00  0.00000000000E+00  0.16957165791E+04  0.16957170547E+04  0.12700000000E+01 0. -1.
         -4   -1    0    0    0  501 -0.00000000000E+00 -0.00000000000E+00 -0.17750139963E+03  0.17750594292E+03  0.12700000000E+01 0.  1.
    8880022    1    1    2    0    0 -0.45800556227E+02 -0.92478206397E+02 -0.12295167483E+03  0.22171756125E+03  0.15294330000E+03 0.  0.
    8880022    1    1    2    0    0  0.45800556227E+02  0.92478206397E+02  0.16411668543E+04  0.16515054364E+04  0.15294330000E+03 0.  0.
<mgrwt>
<rscale>  0 0.18450356E+03</rscale>
<asrwt>0</asrwt>
<pdfrwt beam="1">  1        4 0.26087986E+00 0.18450356E+03</pdfrwt>
<pdfrwt beam="2">  1       -4 0.27308293E-01 0.18450356E+03</pdfrwt>
<totfact> 0.14067194E+00</totfact>
</mgrwt>
</event>
<event>
 4    1  0.8478300E-009  0.2364908E+03  0.7818608E-02  0.1122153E+00
          4   -1    0    0  501    0  0.00000000000E+00  0.00000000000E+00  0.14299665612E+03  0.14300229565E+03  0.12700000000E+01 0. -1.
         -4   -1    0    0    0  501 -0.00000000000E+00 -0.00000000000E+00 -0.49721599778E+03  0.49721761971E+03  0.12700000000E+01 0.  1.
    8880022    1    1    2    0    0  0.17764371078E+03 -0.31288205933E+02 -0.32499191561E+03  0.40192989195E+03  0.15294330000E+03 0.  0.
    8880022    1    1    2    0    0 -0.17764371078E+03  0.31288205933E+02 -0.29227426046E+02  0.23829002342E+03  0.15294330000E+03 0. -1.
<mgrwt>
<rscale>  0 0.23649079E+03</rscale>
<asrwt>0</asrwt>
<pdfrwt beam="1">  1        4 0.22000044E-01 0.23649079E+03</pdfrwt>
<pdfrwt beam="2">  1       -4 0.76495327E-01 0.23649079E+03</pdfrwt>
<totfact> 0.53926691E+01</totfact>
</mgrwt>
</event>
<event>
 4    1  0.8478300E-009  0.2487136E+03  0.7818608E-02  0.1114120E+00
          4   -1    0    0  501    0  0.00000000000E+00  0.00000000000E+00  0.16715050595E+03  0.16715533057E+03  0.12700000000E+01 0. -1.
         -4   -1    0    0    0  501 -0.00000000000E+00 -0.00000000000E+00 -0.42752335904E+03  0.42752524537E+03  0.12700000000E+01 0. -1.
    8880022    1    1    2    0    0  0.36904930516E+02 -0.19262618522E+03 -0.23919133032E+03  0.34506661189E+03  0.15294330000E+03 0.  0.
    8880022    1    1    2    0    0 -0.36904930516E+02  0.19262618522E+03 -0.21181522777E+02  0.24961396405E+03  0.15294330000E+03 0.  0.
<mgrwt>
<rscale>  0 0.24871364E+03</rscale>
<asrwt>0</asrwt>
<pdfrwt beam="1">  1        4 0.25715979E-01 0.24871364E+03</pdfrwt>
<pdfrwt beam="2">  1       -4 0.65773340E-01 0.24871364E+03</pdfrwt>
<totfact> 0.56489090E+01</totfact>
</mgrwt>
</event>
<event>
 4    1  0.8478300E-009  0.2799116E+03  0.7818608E-02  0.1095737E+00
         -4   -1    0    0    0  501 -0.00000000000E+00  0.00000000000E+00  0.13912920362E+03  0.13913499991E+03  0.12700000000E+01 0.  1.
          4   -1    0    0  501    0  0.00000000000E+00 -0.00000000000E+00 -0.81680380632E+03  0.81680479365E+03  0.12700000000E+01 0.  1.
    8880022    1    1    2    0    0  0.17370168494E+03  0.15743744582E+03 -0.72472438603E+02  0.28914137039E+03  0.15294330000E+03 0.  0.
    8880022    1    1    2    0    0 -0.17370168494E+03 -0.15743744582E+03 -0.60520216410E+03  0.66679842317E+03  0.15294330000E+03 0.  0.
<mgrwt>
<rscale>  0 0.27991155E+03</rscale>
<asrwt>0</asrwt>
<pdfrwt beam="1">  1        4 0.12566264E+00 0.27991155E+03</pdfrwt>
<pdfrwt beam="2">  1       -4 0.21405015E-01 0.27991155E+03</pdfrwt>
<totfact> 0.18057511E+01</totfact>
</mgrwt>
</event>
<event>
 4    1  0.8478300E-009  0.4031773E+03  0.7818608E-02  0.1042685E+00
         -4   -1    0    0    0  501 -0.00000000000E+00  0.00000000000E+00  0.80450783785E+03  0.80450884027E+03  0.12700000000E+01 0.  1.
          4   -1    0    0  501    0  0.00000000000E+00 -0.00000000000E+00 -0.39576655697E+03  0.39576859465E+03  0.12700000000E+01 0. -1.
    8880022    1    1    2    0    0  0.34116168628E+03 -0.15089394376E+03 -0.21549970610E+03  0.45715648830E+03  0.15294330000E+03 0.  0.
    8880022    1    1    2    0    0 -0.34116168628E+03  0.15089394376E+03  0.62424098699E+03  0.74312094662E+03  0.15294330000E+03 0.  0.
<mgrwt>
<rscale>  0 0.40317730E+03</rscale>
<asrwt>0</asrwt>
<pdfrwt beam="1">  1        4 0.60887397E-01 0.40317730E+03</pdfrwt>
<pdfrwt beam="2">  1       -4 0.12377067E+00 0.40317730E+03</pdfrwt>
<totfact> 0.24147222E+00</totfact>
</mgrwt>
</event>
<event>
 4    1  0.8478300E-009  0.2390645E+03  0.7818608E-02  0.1120418E+00
          4   -1    0    0  501    0  0.00000000000E+00  0.00000000000E+00  0.96537400738E+03  0.96537484276E+03  0.12700000000E+01 0. -1.
         -4   -1    0    0    0  501 -0.00000000000E+00 -0.00000000000E+00 -0.13080224371E+03  0.13080840898E+03  0.12700000000E+01 0. -1.
    8880022    1    1    2    0    0 -0.70566098268E+02  0.16964845821E+03  0.82280286418E+03  0.85682925948E+03  0.15294330000E+03 0.  0.
    8880022    1    1    2    0    0  0.70566098268E+02 -0.16964845821E+03  0.11768899492E+02  0.23935399225E+03  0.15294330000E+03 0.  0.
<mgrwt>
<rscale>  0 0.23906448E+03</rscale>
<asrwt>0</asrwt>
<pdfrwt beam="1">  1        4 0.14851961E+00 0.23906448E+03</pdfrwt>
<pdfrwt beam="2">  1       -4 0.20123961E-01 0.23906448E+03</pdfrwt>
<totfact> 0.13087020E+01</totfact>
</mgrwt>
</event>
<event>
 4    1  0.8478300E-009  0.1849812E+03  0.7818608E-02  0.1163067E+00
         -4   -1    0    0    0  501 -0.00000000000E+00  0.00000000000E+00  0.11157250908E+03  0.11157973688E+03  0.12700000000E+01 0.  1.
          4   -1    0    0  501    0  0.00000000000E+00 -0.00000000000E+00 -0.30667424191E+03  0.30667687156E+03  0.12700000000E+01 0.  1.
    8880022    1    1    2    0    0  0.36804993988E+02 -0.97323125719E+02 -0.96814117623E+02  0.20878463729E+03  0.15294330000E+03 0.  0.
    8880022    1    1    2    0    0 -0.36804993988E+02  0.97323125719E+02 -0.98287615202E+02  0.20947197115E+03  0.15294330000E+03 0.  0.
<mgrwt>
<rscale>  0 0.18498122E+03</rscale>
<asrwt>0</asrwt>
<pdfrwt beam="1">  1        4 0.47181411E-01 0.18498122E+03</pdfrwt>
<pdfrwt beam="2">  1       -4 0.17165760E-01 0.18498122E+03</pdfrwt>
<totfact> 0.22777504E+02</totfact>
</mgrwt>
</event>
<event>
 4    1  0.8478300E-009  0.1692515E+03  0.7818608E-02  0.1178631E+00
          4   -1    0    0  501    0  0.00000000000E+00  0.00000000000E+00  0.80514993594E+03  0.80515093755E+03  0.12700000000E+01 0.  1.
         -4   -1    0    0    0  501 -0.00000000000E+00 -0.00000000000E+00 -0.44344935316E+02  0.44363117431E+02  0.12700000000E+01 0.  1.
    8880022    1    1    2    0    0  0.29592604451E+02  0.66171680751E+02  0.19145991821E+03  0.25554445184E+03  0.15294330000E+03 0. -1.
    8880022    1    1    2    0    0 -0.29592604451E+02 -0.66171680751E+02  0.56934508242E+03  0.59396960314E+03  0.15294330000E+03 0. -1.
<mgrwt>
<rscale>  0 0.16925149E+03</rscale>
<asrwt>0</asrwt>
<pdfrwt beam="1">  1        4 0.12387068E+00 0.16925149E+03</pdfrwt>
<pdfrwt beam="2">  1       -4 0.68237741E-02 0.16925149E+03</pdfrwt>
<totfact> 0.12812879E+02</totfact>
</mgrwt>
</event>
<event>
 4    1  0.8478300E-009  0.2491956E+03  0.7818608E-02  0.1113814E+00
         -4   -1    0    0    0  501 -0.00000000000E+00  0.00000000000E+00  0.10338014853E+04  0.10338022654E+04  0.12700000000E+01 0. -1.
          4   -1    0    0  501    0  0.00000000000E+00 -0.00000000000E+00 -0.14813763235E+03  0.14814307618E+03  0.12700000000E+01 0. -1.
    8880022    1    1    2    0    0  0.17992075145E+03  0.79594762330E+02 -0.12838857097E+02  0.24952613543E+03  0.15294330000E+03 0.  0.
    8880022    1    1    2    0    0 -0.17992075145E+03 -0.79594762330E+02  0.89850271008E+03  0.93241920616E+03  0.15294330000E+03 0.  0.
<mgrwt>
<rscale>  0 0.24919562E+03</rscale>
<asrwt>0</asrwt>
<pdfrwt beam="1">  1        4 0.22790884E-01 0.24919562E+03</pdfrwt>
<pdfrwt beam="2">  1       -4 0.15904686E+00 0.24919562E+03</pdfrwt>
<totfact> 0.87349883E+00</totfact>
</mgrwt>
</event>
<event>
 4    1  0.8478300E-009  0.2030781E+03  0.7818608E-02  0.1147168E+00
         -4   -1    0    0    0  501 -0.00000000000E+00  0.00000000000E+00  0.37078846813E+02  0.37100590035E+02  0.12700000000E+01 0. -1.
          4   -1    0    0  501    0  0.00000000000E+00 -0.00000000000E+00 -0.11282742261E+04  0.11282749408E+04  0.12700000000E+01 0. -1.
    8880022    1    1    2    0    0  0.96845572773E+02 -0.92032573624E+02 -0.47539339111E+03  0.51695221143E+03  0.15294330000E+03 0.  0.
    8880022    1    1    2    0    0 -0.96845572773E+02  0.92032573624E+02 -0.61580198812E+03  0.64842331942E+03  0.15294330000E+03 0.  0.
<mgrwt>
<rscale>  0 0.20307809E+03</rscale>
<asrwt>0</asrwt>
<pdfrwt beam="1">  1        4 0.17358235E+00 0.20307809E+03</pdfrwt>
<pdfrwt beam="2">  1       -4 0.57061664E-02 0.20307809E+03</pdfrwt>
<totfact> 0.74139538E+01</totfact>
</mgrwt>
</event>
<event>
 4    1  0.8478300E-009  0.1767690E+03  0.7818608E-02  0.1170967E+00
          4   -1    0    0  501    0  0.00000000000E+00  0.00000000000E+00  0.28716777565E+03  0.28717058392E+03  0.12700000000E+01 0.  1.
         -4   -1    0    0    0  501 -0.00000000000E+00 -0.00000000000E+00 -0.11445298413E+03  0.11446003003E+03  0.12700000000E+01 0.  1.
    8880022    1    1    2    0    0  0.52337305483E+02 -0.71529190846E+02  0.13096578156E+03  0.21999842646E+03  0.15294330000E+03 0.  1.
    8880022    1    1    2    0    0 -0.52337305483E+02  0.71529190846E+02  0.41749009957E+02  0.18163218750E+03  0.15294330000E+03 0.  1.
<mgrwt>
<rscale>  0 0.17676898E+03</rscale>
<asrwt>0</asrwt>
<pdfrwt beam="1">  1        4 0.44180415E-01 0.17676898E+03</pdfrwt>
<pdfrwt beam="2">  1       -4 0.17608910E-01 0.17676898E+03</pdfrwt>
<totfact> 0.24675613E+02</totfact>
</mgrwt>
</event>
<event>
 4    1  0.8478300E-009  0.1925779E+03  0.7818608E-02  0.1156157E+00
         -4   -1    0    0    0  501 -0.00000000000E+00  0.00000000000E+00  0.18256426932E+03  0.18256868662E+03  0.12700000000E+01 0.  1.
          4   -1    0    0  501    0  0.00000000000E+00 -0.00000000000E+00 -0.20638797645E+03  0.20639188386E+03  0.12700000000E+01 0.  1.
    8880022    1    1    2    0    0  0.74627144486E+02  0.90140974238E+02  0.12514946486E+02  0.19298415176E+03  0.15294330000E+03 0.  0.
    8880022    1    1    2    0    0 -0.74627144486E+02 -0.90140974238E+02 -0.36338653616E+02  0.19597641871E+03  0.15294330000E+03 0.  0.
<mgrwt>
<rscale>  0 0.19257793E+03</rscale>
<asrwt>0</asrwt>
<pdfrwt beam="1">  1        4 0.31752637E-01 0.19257793E+03</pdfrwt>
<pdfrwt beam="2">  1       -4 0.28087451E-01 0.19257793E+03</pdfrwt>
<totfact> 0.20316568E+02</totfact>
</mgrwt>
</event>
<event>
 4    1  0.8478300E-009  0.1999907E+03  0.7818608E-02  0.1149747E+00
          4   -1    0    0  501    0  0.00000000000E+00  0.00000000000E+00  0.43571624419E+03  0.43571809505E+03  0.12700000000E+01 0.  1.
         -4   -1    0    0    0  501 -0.00000000000E+00 -0.00000000000E+00 -0.27004292523E+03  0.27004591160E+03  0.12700000000E+01 0.  1.
    8880022    1    1    2    0    0  0.25067233813E+02  0.12639725163E+03  0.36953671571E+03  0.42018289911E+03  0.15294330000E+03 0.  0.
    8880022    1    1    2    0    0 -0.25067233813E+02 -0.12639725163E+03 -0.20386339675E+03  0.28558110754E+03  0.15294330000E+03 0.  0.
<mgrwt>
<rscale>  0 0.19999071E+03</rscale>
<asrwt>0</asrwt>
<pdfrwt beam="1">  1        4 0.67033639E-01 0.19999071E+03</pdfrwt>
<pdfrwt beam="2">  1       -4 0.41545438E-01 0.19999071E+03</pdfrwt>
<totfact> 0.20961854E+01</totfact>
</mgrwt>
</event>
<event>
 4    1  0.8478300E-009  0.1906594E+03  0.7818608E-02  0.1157868E+00
          4   -1    0    0  501    0  0.00000000000E+00  0.00000000000E+00  0.52170016041E+02  0.52185471864E+02  0.12700000000E+01 0.  1.
         -4   -1    0    0    0  501 -0.00000000000E+00 -0.00000000000E+00 -0.83918984882E+03  0.83919080980E+03  0.12700000000E+01 0.  1.
    8880022    1    1    2    0    0  0.86363726611E+02 -0.74166490304E+02 -0.20983548403E+03  0.28351709813E+03  0.15294330000E+03 0. -1.
    8880022    1    1    2    0    0 -0.86363726611E+02  0.74166490304E+02 -0.57718434875E+03  0.60785918354E+03  0.15294330000E+03 0. -1.
<mgrwt>
<rscale>  0 0.19065942E+03</rscale>
<asrwt>0</asrwt>
<pdfrwt beam="1">  1        4 0.80274198E-02 0.19065942E+03</pdfrwt>
<pdfrwt beam="2">  1       -4 0.12910738E+00 0.19065942E+03</pdfrwt>
<totfact> 0.89915362E+01</totfact>
</mgrwt>
</event>
<event>
 4    1  0.8478300E-009  0.2122725E+03  0.7818608E-02  0.1139779E+00
         -4   -1    0    0    0  501 -0.00000000000E+00  0.00000000000E+00  0.65142964145E+03  0.65143087941E+03  0.12700000000E+01 0. -1.
          4   -1    0    0  501    0  0.00000000000E+00 -0.00000000000E+00 -0.89311165637E+02  0.89320194847E+02  0.12700000000E+01 0. -1.
    8880022    1    1    2    0    0  0.94645271480E+02 -0.11273965719E+03  0.10515481100E+03  0.23689057602E+03  0.15294330000E+03 0.  0.
    8880022    1    1    2    0    0 -0.94645271480E+02  0.11273965719E+03  0.45696366481E+03  0.50386049824E+03  0.15294330000E+03 0.  0.
<mgrwt>
<rscale>  0 0.21227249E+03</rscale>
<asrwt>0</asrwt>
<pdfrwt beam="1">  1        4 0.13740970E-01 0.21227249E+03</pdfrwt>
<pdfrwt beam="2">  1       -4 0.10022073E+00 0.21227249E+03</pdfrwt>
<totfact> 0.66905173E+01</totfact>
</mgrwt>
</event>
<event>
 4    1  0.8478300E-009  0.7450708E+03  0.7818608E-02  0.9643115E-01
          4   -1    0    0  501    0  0.00000000000E+00  0.00000000000E+00  0.20780127182E+03  0.20780515265E+03  0.12700000000E+01 0. -1.
         -4   -1    0    0    0  501 -0.00000000000E+00 -0.00000000000E+00 -0.31669043475E+04  0.31669046022E+04  0.12700000000E+01 0.  1.
    8880022    1    1    2    0    0  0.45150654548E+03 -0.57260864997E+03 -0.21469783897E+04  0.22725859027E+04  0.15294330000E+03 0.  0.
    8880022    1    1    2    0    0 -0.45150654548E+03  0.57260864997E+03 -0.81212468602E+03  0.11021238521E+04  0.15294330000E+03 0.  0.
<mgrwt>
<rscale>  0 0.74507079E+03</rscale>
<asrwt>0</asrwt>
<pdfrwt beam="1">  1        4 0.31969747E-01 0.74507079E+03</pdfrwt>
<pdfrwt beam="2">  1       -4 0.48721634E+00 0.74507079E+03</pdfrwt>
<totfact> 0.30864547E-02</totfact>
</mgrwt>
</event>
<event>
 4    1  0.8478300E-009  0.3236873E+03  0.7818608E-02  0.1073965E+00
         -4   -1    0    0    0  501 -0.00000000000E+00  0.00000000000E+00  0.34885621558E+03  0.34885852726E+03  0.12700000000E+01 0. -1.
          4   -1    0    0  501    0  0.00000000000E+00 -0.00000000000E+00 -0.33120732763E+03  0.33120976250E+03  0.12700000000E+01 0. -1.
    8880022    1    1    2    0    0  0.64610543407E+02  0.27786197056E+03 -0.94998282296E+02  0.33733977479E+03  0.15294330000E+03 0.  0.
    8880022    1    1    2    0    0 -0.64610543407E+02 -0.27786197056E+03  0.11264717024E+03  0.34272851498E+03  0.15294330000E+03 0.  0.
<mgrwt>
<rscale>  0 0.32368727E+03</rscale>
<asrwt>0</asrwt>
<pdfrwt beam="1">  1        4 0.50955339E-01 0.32368727E+03</pdfrwt>
<pdfrwt beam="2">  1       -4 0.53670552E-01 0.32368727E+03</pdfrwt>
<totfact> 0.23216271E+01</totfact>
</mgrwt>
</event>
<event>
 4    1  0.8478300E-009  0.1610262E+03  0.7818608E-02  0.1187543E+00
          4   -1    0    0  501    0  0.00000000000E+00  0.00000000000E+00  0.19885978395E+03  0.19886383928E+03  0.12700000000E+01 0.  1.
         -4   -1    0    0    0  501 -0.00000000000E+00 -0.00000000000E+00 -0.14124914317E+03  0.14125485247E+03  0.12700000000E+01 0.  1.
    8880022    1    1    2    0    0  0.44083349932E+02 -0.24381264245E+02 -0.18362742252E+02  0.16206983404E+03  0.15294330000E+03 0. -1.
    8880022    1    1    2    0    0 -0.44083349932E+02  0.24381264245E+02  0.75973383028E+02  0.17804885771E+03  0.15294330000E+03 0. -1.
<mgrwt>
<rscale>  0 0.16102621E+03</rscale>
<asrwt>0</asrwt>
<pdfrwt beam="1">  1        4 0.30594564E-01 0.16102621E+03</pdfrwt>
<pdfrwt beam="2">  1       -4 0.21731389E-01 0.16102621E+03</pdfrwt>
<totfact> 0.34086434E+02</totfact>
</mgrwt>
</event>
<event>
 4    1  0.8478300E-009  0.1766021E+03  0.7818608E-02  0.1171133E+00
         -4   -1    0    0    0  501 -0.00000000000E+00  0.00000000000E+00  0.50521386080E+02  0.50537346107E+02  0.12700000000E+01 0.  1.
          4   -1    0    0  501    0  0.00000000000E+00 -0.00000000000E+00 -0.62398199540E+03  0.62398328782E+03  0.12700000000E+01 0.  1.
    8880022    1    1    2    0    0  0.49410662475E+02  0.73179359969E+02 -0.25160706628E+03  0.30739941625E+03  0.15294330000E+03 0.  0.
    8880022    1    1    2    0    0 -0.49410662475E+02 -0.73179359969E+02 -0.32185354304E+03  0.36712121768E+03  0.15294330000E+03 0.  0.
<mgrwt>
<rscale>  0 0.17660205E+03</rscale>
<asrwt>0</asrwt>
<pdfrwt beam="1">  1        4 0.95998552E-01 0.17660205E+03</pdfrwt>
<pdfrwt beam="2">  1       -4 0.77738485E-02 0.17660205E+03</pdfrwt>
<totfact> 0.19010692E+02</totfact>
</mgrwt>
</event>
<event>
 4    1  0.8478300E-009  0.1805778E+03  0.7818608E-02  0.1167245E+00
          4   -1    0    0  501    0  0.00000000000E+00  0.00000000000E+00  0.77167176108E+03  0.77167280614E+03  0.12700000000E+01 0.  1.
         -4   -1    0    0    0  501 -0.00000000000E+00 -0.00000000000E+00 -0.57302593057E+02  0.57316664863E+02  0.12700000000E+01 0.  1.
    8880022    1    1    2    0    0 -0.95042239853E+02  0.13551516092E+02  0.56961996325E+03  0.59755771813E+03  0.15294330000E+03 0.  0.
    8880022    1    1    2    0    0  0.95042239853E+02 -0.13551516092E+02  0.14474920476E+03  0.23143175288E+03  0.15294330000E+03 0.  0.
<mgrwt>
<rscale>  0 0.18057775E+03</rscale>
<asrwt>0</asrwt>
<pdfrwt beam="1">  1        4 0.11871990E+00 0.18057775E+03</pdfrwt>
<pdfrwt beam="2">  1       -4 0.88169462E-02 0.18057775E+03</pdfrwt>
<totfact> 0.93649767E+01</totfact>
</mgrwt>
</event>
<event>
 4    1  0.8478300E-009  0.1636210E+03  0.7818608E-02  0.1184668E+00
         -4   -1    0    0    0  501 -0.00000000000E+00  0.00000000000E+00  0.31884695044E+03  0.31884947970E+03  0.12700000000E+01 0.  1.
          4   -1    0    0  501    0  0.00000000000E+00 -0.00000000000E+00 -0.90886330921E+02  0.90895203659E+02  0.12700000000E+01 0.  1.
    8880022    1    1    2    0    0  0.32752443547E+02 -0.48035992262E+02  0.17054638187E+03  0.23634276062E+03  0.15294330000E+03 0.  0.
    8880022    1    1    2    0    0 -0.32752443547E+02  0.48035992262E+02  0.57414237642E+02  0.17340192274E+03  0.15294330000E+03 0.  0.
<mgrwt>
<rscale>  0 0.16362100E+03</rscale>
<asrwt>0</asrwt>
<pdfrwt beam="1">  1        4 0.13983389E-01 0.16362100E+03</pdfrwt>
<pdfrwt beam="2">  1       -4 0.49054254E-01 0.16362100E+03</pdfrwt>
<totfact> 0.29595872E+02</totfact>
</mgrwt>
</event>
<event>
 4    1  0.8478300E-009  0.2151258E+03  0.7818608E-02  0.1137570E+00
          4   -1    0    0  501    0  0.00000000000E+00  0.00000000000E+00  0.59967396952E+02  0.59980843585E+02  0.12700000000E+01 0.  1.
         -4   -1    0    0    0  501 -0.00000000000E+00 -0.00000000000E+00 -0.80449894005E+03  0.80449994247E+03  0.12700000000E+01 0.  1.
    8880022    1    1    2    0    0  0.15113892738E+03  0.66683409646E+01 -0.45962414123E+03  0.50747753286E+03  0.15294330000E+03 0.  0.
    8880022    1    1    2    0    0 -0.15113892738E+03 -0.66683409646E+01 -0.28490740187E+03  0.35700325320E+03  0.15294330000E+03 0.  0.
<mgrwt>
<rscale>  0 0.21512577E+03</rscale>
<asrwt>0</asrwt>
<pdfrwt beam="1">  1        4 0.92268654E-02 0.21512577E+03</pdfrwt>
<pdfrwt beam="2">  1       -4 0.12377017E+00 0.21512577E+03</pdfrwt>
<totfact> 0.80163352E+01</totfact>
</mgrwt>
</event>
<event>
 4    1  0.8478300E-009  0.1844299E+03  0.7818608E-02  0.1163583E+00
          4   -1    0    0  501    0  0.00000000000E+00  0.00000000000E+00  0.15713971246E+03  0.15714484443E+03  0.12700000000E+01 0. -1.
         -4   -1    0    0    0  501 -0.00000000000E+00 -0.00000000000E+00 -0.21940918900E+03  0.21941286453E+03  0.12700000000E+01 0. -1.
    8880022    1    1    2    0    0  0.10211197907E+03 -0.13996022874E+02 -0.53003318220E+02  0.19189515284E+03  0.15294330000E+03 0. -1.
    8880022    1    1    2    0    0 -0.10211197907E+03  0.13996022874E+02 -0.92661583265E+01  0.18466255612E+03  0.15294330000E+03 0. -1.
<mgrwt>
<rscale>  0 0.18442993E+03</rscale>
<asrwt>0</asrwt>
<pdfrwt beam="1">  1        4 0.24176018E-01 0.18442993E+03</pdfrwt>
<pdfrwt beam="2">  1       -4 0.33755937E-01 0.18442993E+03</pdfrwt>
<totfact> 0.23736094E+02</totfact>
</mgrwt>
</event>
<event>
 4    1  0.8478300E-009  0.1544873E+03  0.7818608E-02  0.1195065E+00
         -4   -1    0    0    0  501 -0.00000000000E+00  0.00000000000E+00  0.85460314361E+02  0.85469750384E+02  0.12700000000E+01 0.  1.
          4   -1    0    0  501    0  0.00000000000E+00 -0.00000000000E+00 -0.28051305455E+03  0.28051592945E+03  0.12700000000E+01 0.  1.
    8880022    1    1    2    0    0 -0.10923631361E+02 -0.18850547566E+02 -0.85206696951E+02  0.17642704749E+03  0.15294330000E+03 0.  0.
    8880022    1    1    2    0    0  0.10923631361E+02  0.18850547566E+02 -0.10984604324E+03  0.18955863235E+03  0.15294330000E+03 0.  0.
<mgrwt>
<rscale>  0 0.15448729E+03</rscale>
<asrwt>0</asrwt>
<pdfrwt beam="1">  1        4 0.43156801E-01 0.15448729E+03</pdfrwt>
<pdfrwt beam="2">  1       -4 0.13148688E-01 0.15448729E+03</pdfrwt>
<totfact> 0.42210369E+02</totfact>
</mgrwt>
</event>
<event>
 4    1  0.8478300E-009  0.2033187E+03  0.7818608E-02  0.1146969E+00
          4   -1    0    0  501    0  0.00000000000E+00  0.00000000000E+00  0.10750968092E+03  0.10751718184E+03  0.12700000000E+01 0. -1.
         -4   -1    0    0    0  501 -0.00000000000E+00 -0.00000000000E+00 -0.91346174551E+03  0.91346262836E+03  0.12700000000E+01 0. -1.
    8880022    1    1    2    0    0  0.22584994842E+02  0.13204824526E+03 -0.14506321617E+02  0.20383549115E+03  0.15294330000E+03 0.  0.
    8880022    1    1    2    0    0 -0.22584994842E+02 -0.13204824526E+03 -0.79144574297E+03  0.81714431905E+03  0.15294330000E+03 0.  0.
<mgrwt>
<rscale>  0 0.20331865E+03</rscale>
<asrwt>0</asrwt>
<pdfrwt beam="1">  1        4 0.16540596E-01 0.20331865E+03</pdfrwt>
<pdfrwt beam="2">  1       -4 0.14053322E+00 0.20331865E+03</pdfrwt>
<totfact> 0.21144642E+01</totfact>
</mgrwt>
</event>
<event>
 4    1  0.8478300E-009  0.2034635E+03  0.7818608E-02  0.1146849E+00
         -4   -1    0    0    0  501 -0.00000000000E+00  0.00000000000E+00  0.13776067040E+04  0.13776072894E+04  0.12700000000E+01 0.  1.
          4   -1    0    0  501    0  0.00000000000E+00 -0.00000000000E+00 -0.35728778290E+02  0.35751342605E+02  0.12700000000E+01 0.  1.
    8880022    1    1    2    0    0  0.82685203539E+02 -0.10568300175E+03  0.38896203025E+03  0.43896338542E+03  0.15294330000E+03 0.  0.
    8880022    1    1    2    0    0 -0.82685203539E+02  0.10568300175E+03  0.95291589547E+03  0.97439524660E+03  0.15294330000E+03 0.  0.
<mgrwt>
<rscale>  0 0.20346349E+03</rscale>
<asrwt>0</asrwt>
<pdfrwt beam="1">  1        4 0.54985150E-02 0.20346349E+03</pdfrwt>
<pdfrwt beam="2">  1       -4 0.21194131E+00 0.20346349E+03</pdfrwt>
<totfact> 0.44614740E+01</totfact>
</mgrwt>
</event>
<event>
 4    1  0.8478300E-009  0.1756907E+03  0.7818608E-02  0.1172040E+00
          4   -1    0    0  501    0  0.00000000000E+00  0.00000000000E+00  0.34545247804E+03  0.34545481251E+03  0.12700000000E+01 0. -1.
         -4   -1    0    0    0  501 -0.00000000000E+00 -0.00000000000E+00 -0.90641488081E+02  0.90650384785E+02  0.12700000000E+01 0. -1.
    8880022    1    1    2    0    0  0.83355932592E+02  0.22964217565E+02  0.10133734440E+03  0.20282129368E+03  0.15294330000E+03 0.  1.
    8880022    1    1    2    0    0 -0.83355932592E+02 -0.22964217565E+02  0.15347364556E+03  0.23328390361E+03  0.15294330000E+03 0.  1.
<mgrwt>
<rscale>  0 0.17569069E+03</rscale>
<asrwt>0</asrwt>
<pdfrwt beam="1">  1        4 0.53147399E-01 0.17569069E+03</pdfrwt>
<pdfrwt beam="2">  1       -4 0.13945708E-01 0.17569069E+03</pdfrwt>
<totfact> 0.25519592E+02</totfact>
</mgrwt>
</event>
<event>
 4    1  0.8478300E-009  0.1941507E+03  0.7818608E-02  0.1154770E+00
          4   -1    0    0  501    0  0.00000000000E+00  0.00000000000E+00  0.16611752223E+03  0.16612237686E+03  0.12700000000E+01 0.  1.
         -4   -1    0    0    0  501 -0.00000000000E+00 -0.00000000000E+00 -0.22699136569E+03  0.22699491844E+03  0.12700000000E+01 0.  1.
    8880022    1    1    2    0    0  0.10619808860E+03 -0.54998128480E+02 -0.26593913019E+02  0.19596356137E+03  0.15294330000E+03 0.  0.
    8880022    1    1    2    0    0 -0.10619808860E+03  0.54998128480E+02 -0.34279930440E+02  0.19715373394E+03  0.15294330000E+03 0.  0.
<mgrwt>
<rscale>  0 0.19415067E+03</rscale>
<asrwt>0</asrwt>
<pdfrwt beam="1">  1        4 0.25557188E-01 0.19415067E+03</pdfrwt>
<pdfrwt beam="2">  1       -4 0.34922396E-01 0.19415067E+03</pdfrwt>
<totfact> 0.20206922E+02</totfact>
</mgrwt>
</event>
<event>
 4    1  0.8478300E-009  0.2982597E+03  0.7818608E-02  0.1086114E+00
          4   -1    0    0  501    0  0.00000000000E+00  0.00000000000E+00  0.34064625194E+03  0.34064861934E+03  0.12700000000E+01 0. -1.
         -4   -1    0    0    0  501 -0.00000000000E+00 -0.00000000000E+00 -0.70350773005E+03  0.70350887638E+03  0.12700000000E+01 0. -1.
    8880022    1    1    2    0    0  0.25480815382E+03  0.25297769627E+02  0.23256009805E+03  0.37821029153E+03  0.15294330000E+03 0.  0.
    8880022    1    1    2    0    0 -0.25480815382E+03 -0.25297769627E+02 -0.59542157616E+03  0.66594720419E+03  0.15294330000E+03 0.  0.
<mgrwt>
<rscale>  0 0.29825966E+03</rscale>
<asrwt>0</asrwt>
<pdfrwt beam="1">  1        4 0.52407386E-01 0.29825966E+03</pdfrwt>
<pdfrwt beam="2">  1       -4 0.10823223E+00 0.29825966E+03</pdfrwt>
<totfact> 0.45415113E+00</totfact>
</mgrwt>
</event>
<event>
 4    1  0.8478300E-009  0.1843417E+03  0.7818608E-02  0.1163666E+00
          4   -1    0    0  501    0  0.00000000000E+00  0.00000000000E+00  0.35709683633E+03  0.35709909467E+03  0.12700000000E+01 0. -1.
         -4   -1    0    0    0  501 -0.00000000000E+00 -0.00000000000E+00 -0.98576349764E+02  0.98584530393E+02  0.12700000000E+01 0. -1.
    8880022    1    1    2    0    0  0.99898566269E+02  0.24708006796E+02  0.17170683318E+03  0.25192280309E+03  0.15294330000E+03 0.  0.
    8880022    1    1    2    0    0 -0.99898566269E+02 -0.24708006796E+02  0.86813653389E+02  0.20376082198E+03  0.15294330000E+03 0.  0.
<mgrwt>
<rscale>  0 0.18434170E+03</rscale>
<asrwt>0</asrwt>
<pdfrwt beam="1">  1        4 0.54938779E-01 0.18434170E+03</pdfrwt>
<pdfrwt beam="2">  1       -4 0.15166395E-01 0.18434170E+03</pdfrwt>
<totfact> 0.20725957E+02</totfact>
</mgrwt>
</event>
<event>
 4    1  0.8478300E-009  0.1657685E+03  0.7818608E-02  0.1182334E+00
         -4   -1    0    0    0  501 -0.00000000000E+00  0.00000000000E+00  0.31808843652E+02  0.31834186568E+02  0.12700000000E+01 0. -1.
          4   -1    0    0  501    0  0.00000000000E+00 -0.00000000000E+00 -0.17053457426E+04  0.17053462155E+04  0.12700000000E+01 0. -1.
    8880022    1    1    2    0    0 -0.62957195599E+02 -0.11132598767E+02 -0.22650463035E+03  0.28068406406E+03  0.15294330000E+03 0.  0.
    8880022    1    1    2    0    0  0.62957195599E+02  0.11132598767E+02 -0.14470322686E+04  0.14564963380E+04  0.15294330000E+03 0.  0.
<mgrwt>
<rscale>  0 0.16576850E+03</rscale>
<asrwt>0</asrwt>
<pdfrwt beam="1">  1        4 0.26236280E+00 0.16576850E+03</pdfrwt>
<pdfrwt beam="2">  1       -4 0.48956554E-02 0.16576850E+03</pdfrwt>
<totfact> 0.26568893E+01</totfact>
</mgrwt>
</event>
<event>
 4    1  0.8478300E-009  0.4511538E+03  0.7818608E-02  0.1027379E+00
          4   -1    0    0  501    0  0.00000000000E+00  0.00000000000E+00  0.13143282890E+04  0.13143289025E+04  0.12700000000E+01 0. -1.
         -4   -1    0    0    0  501 -0.00000000000E+00 -0.00000000000E+00 -0.22405478415E+03  0.22405838346E+03  0.12700000000E+01 0. -1.
    8880022    1    1    2    0    0  0.15390515167E+03  0.39555194712E+03  0.11767855692E+03  0.46624889743E+03  0.15294330000E+03 0.  0.
    8880022    1    1    2    0    0 -0.15390515167E+03 -0.39555194712E+03  0.97259494790E+03  0.10721383886E+04  0.15294330000E+03 0.  0.
<mgrwt>
<rscale>  0 0.45115384E+03</rscale>
<asrwt>0</asrwt>
<pdfrwt beam="1">  1        4 0.20220468E+00 0.45115384E+03</pdfrwt>
<pdfrwt beam="2">  1       -4 0.34470290E-01 0.45115384E+03</pdfrwt>
<totfact> 0.20697926E+00</totfact>
</mgrwt>
</event>
<event>
 4    1  0.8478300E-009  0.2247316E+03  0.7818608E-02  0.1130404E+00
         -4   -1    0    0    0  501 -0.00000000000E+00  0.00000000000E+00  0.20985146998E+03  0.20985531290E+03  0.12700000000E+01 0.  1.
          4   -1    0    0  501    0  0.00000000000E+00 -0.00000000000E+00 -0.24235035250E+03  0.24235368010E+03  0.12700000000E+01 0.  1.
    8880022    1    1    2    0    0  0.13198050477E+03 -0.98456946216E+02  0.26387752334E+01  0.22474705793E+03  0.15294330000E+03 0.  0.
    8880022    1    1    2    0    0 -0.13198050477E+03  0.98456946216E+02 -0.35137657757E+02  0.22746193507E+03  0.15294330000E+03 0.  0.
<mgrwt>
<rscale>  0 0.22473157E+03</rscale>
<asrwt>0</asrwt>
<pdfrwt beam="1">  1        4 0.37285221E-01 0.22473157E+03</pdfrwt>
<pdfrwt beam="2">  1       -4 0.32285393E-01 0.22473157E+03</pdfrwt>
<totfact> 0.11652171E+02</totfact>
</mgrwt>
</event>
<event>
 4    1  0.8478300E-009  0.3933478E+03  0.7818608E-02  0.1046108E+00
          4   -1    0    0  501    0  0.00000000000E+00  0.00000000000E+00  0.14254324189E+04  0.14254329847E+04  0.12700000000E+01 0.  1.
         -4   -1    0    0    0  501 -0.00000000000E+00 -0.00000000000E+00 -0.11929222029E+03  0.11929898039E+03  0.12700000000E+01 0.  1.
    8880022    1    1    2    0    0  0.75912079784E+02 -0.35435603168E+03  0.88494473554E+03  0.96842639319E+03  0.15294330000E+03 0.  0.
    8880022    1    1    2    0    0 -0.75912079784E+02  0.35435603168E+03  0.42119546311E+03  0.57630557190E+03  0.15294330000E+03 0.  0.
<mgrwt>
<rscale>  0 0.39334780E+03</rscale>
<asrwt>0</asrwt>
<pdfrwt beam="1">  1        4 0.21929786E+00 0.39334780E+03</pdfrwt>
<pdfrwt beam="2">  1       -4 0.18353212E-01 0.39334780E+03</pdfrwt>
<totfact> 0.52978574E+00</totfact>
</mgrwt>
</event>
<event>
 4    1  0.8478300E-009  0.1615136E+03  0.7818608E-02  0.1186998E+00
          4   -1    0    0  501    0  0.00000000000E+00  0.00000000000E+00  0.52623482252E+03  0.52623635501E+03  0.12700000000E+01 0.  1.
         -4   -1    0    0    0  501 -0.00000000000E+00 -0.00000000000E+00 -0.51706423243E+02  0.51722017600E+02  0.12700000000E+01 0.  1.
    8880022    1    1    2    0    0 -0.30638944678E+02  0.41907532084E+02  0.29609780329E+03  0.33728407657E+03  0.15294330000E+03 0.  0.
    8880022    1    1    2    0    0  0.30638944678E+02 -0.41907532084E+02  0.17843059598E+03  0.24067429604E+03  0.15294330000E+03 0.  0.
<mgrwt>
<rscale>  0 0.16151359E+03</rscale>
<asrwt>0</asrwt>
<pdfrwt beam="1">  1        4 0.80960522E-01 0.16151359E+03</pdfrwt>
<pdfrwt beam="2">  1       -4 0.79561516E-02 0.16151359E+03</pdfrwt>
<totfact> 0.26516130E+02</totfact>
</mgrwt>
</event>
<event>
 4    1  0.8478300E-009  0.5082238E+03  0.7818608E-02  0.1011654E+00
          4   -1    0    0  501    0  0.00000000000E+00  0.00000000000E+00  0.14140439337E+04  0.14140445040E+04  0.12700000000E+01 0.  1.
         -4   -1    0    0    0  501 -0.00000000000E+00 -0.00000000000E+00 -0.18423252646E+03  0.18423690376E+03  0.12700000000E+01 0.  1.
    8880022    1    1    2    0    0 -0.43390415732E+03 -0.21593282034E+03  0.68876549655E+03  0.85597275826E+03  0.15294330000E+03 0.  0.
    8880022    1    1    2    0    0  0.43390415732E+03  0.21593282034E+03  0.54104591067E+03  0.74230864949E+03  0.15294330000E+03 0.  0.
<mgrwt>
<rscale>  0 0.50822382E+03</rscale>
<asrwt>0</asrwt>
<pdfrwt beam="1">  1        4 0.21754561E+00 0.50822382E+03</pdfrwt>
<pdfrwt beam="2">  1       -4 0.28343846E-01 0.50822382E+03</pdfrwt>
<totfact> 0.24232141E+00</totfact>
</mgrwt>
</event>
<event>
 4    1  0.8478300E-009  0.2751745E+03  0.7818608E-02  0.1098354E+00
         -4   -1    0    0    0  501 -0.00000000000E+00  0.00000000000E+00  0.64369807310E+02  0.64382334480E+02  0.12700000000E+01 0. -1.
          4   -1    0    0  501    0  0.00000000000E+00 -0.00000000000E+00 -0.27725351379E+04  0.27725354287E+04  0.12700000000E+01 0. -1.
    8880022    1    1    2    0    0 -0.52730892689E+01  0.22869530967E+03 -0.24303918369E+04  0.24459201713E+04  0.15294330000E+03 0.  0.
    8880022    1    1    2    0    0  0.52730892689E+01 -0.22869530967E+03 -0.27777349361E+03  0.39099759194E+03  0.15294330000E+03 0.  0.
<mgrwt>
<rscale>  0 0.27517450E+03</rscale>
<asrwt>0</asrwt>
<pdfrwt beam="1">  1        4 0.42654476E+00 0.27517450E+03</pdfrwt>
<pdfrwt beam="2">  1       -4 0.99040354E-02 0.27517450E+03</pdfrwt>
<totfact> 0.79367231E-01</totfact>
</mgrwt>
</event>
<event>
 4    1  0.8478300E-009  0.4332479E+03  0.7818608E-02  0.1032839E+00
          4   -1    0    0  501    0  0.00000000000E+00  0.00000000000E+00  0.58397273381E+03  0.58397411478E+03  0.12700000000E+01 0. -1.
         -4   -1    0    0    0  501 -0.00000000000E+00 -0.00000000000E+00 -0.50722334127E+03  0.50722493119E+03  0.12700000000E+01 0. -1.
    8880022    1    1    2    0    0 -0.40396836593E+03 -0.33491128499E+02  0.36858963101E+03  0.56882516248E+03  0.15294330000E+03 0.  0.
    8880022    1    1    2    0    0  0.40396836593E+03  0.33491128499E+02 -0.29184023847E+03  0.52237388350E+03  0.15294330000E+03 0.  0.
<mgrwt>
<rscale>  0 0.43324791E+03</rscale>
<asrwt>0</asrwt>
<pdfrwt beam="1">  1        4 0.89842188E-01 0.43324791E+03</pdfrwt>
<pdfrwt beam="2">  1       -4 0.78034589E-01 0.43324791E+03</pdfrwt>
<totfact> 0.30231889E+00</totfact>
</mgrwt>
</event>
<event>
 4    1  0.8478300E-009  0.1983801E+03  0.7818608E-02  0.1151113E+00
         -4   -1    0    0    0  501 -0.00000000000E+00  0.00000000000E+00  0.32398895227E+03  0.32399144139E+03  0.12700000000E+01 0. -1.
          4   -1    0    0  501    0  0.00000000000E+00 -0.00000000000E+00 -0.32164913286E+03  0.32165164009E+03  0.12700000000E+01 0. -1.
    8880022    1    1    2    0    0  0.10930336710E+03 -0.63370294645E+02  0.25584334173E+03  0.32374448076E+03  0.15294330000E+03 0.  0.
    8880022    1    1    2    0    0 -0.10930336710E+03  0.63370294645E+02 -0.25350352231E+03  0.32189860072E+03  0.15294330000E+03 0.  0.
<mgrwt>
<rscale>  0 0.19838012E+03</rscale>
<asrwt>0</asrwt>
<pdfrwt beam="1">  1        4 0.49484866E-01 0.19838012E+03</pdfrwt>
<pdfrwt beam="2">  1       -4 0.49844839E-01 0.19838012E+03</pdfrwt>
<totfact> 0.27429883E+01</totfact>
</mgrwt>
</event>
<event>
 4    1  0.8478300E-009  0.2429889E+03  0.7818608E-02  0.1117818E+00
         -4   -1    0    0    0  501 -0.00000000000E+00  0.00000000000E+00  0.14901447916E+03  0.14901989095E+03  0.12700000000E+01 0. -1.
          4   -1    0    0  501    0  0.00000000000E+00 -0.00000000000E+00 -0.45419705161E+03  0.45419882716E+03  0.12700000000E+01 0. -1.
    8880022    1    1    2    0    0 -0.14465528741E+03  0.12135401316E+03 -0.44827960683E+02  0.24708935177E+03  0.15294330000E+03 0.  0.
    8880022    1    1    2    0    0  0.14465528741E+03 -0.12135401316E+03 -0.26035461176E+03  0.35612936634E+03  0.15294330000E+03 0.  0.
<mgrwt>
<rscale>  0 0.24298889E+03</rscale>
<asrwt>0</asrwt>
<pdfrwt beam="1">  1        4 0.69877022E-01 0.24298889E+03</pdfrwt>
<pdfrwt beam="2">  1       -4 0.22925858E-01 0.24298889E+03</pdfrwt>
<totfact> 0.61178802E+01</totfact>
</mgrwt>
</event>
<event>
 4    1  0.8478300E-009  0.2102957E+03  0.7818608E-02  0.1141332E+00
         -4   -1    0    0    0  501 -0.00000000000E+00  0.00000000000E+00  0.34215610353E+03  0.34215846048E+03  0.12700000000E+01 0.  1.
          4   -1    0    0  501    0  0.00000000000E+00 -0.00000000000E+00 -0.27768163176E+03  0.27768453597E+03  0.12700000000E+01 0.  1.
    8880022    1    1    2    0    0 -0.14524733554E+02  0.14360244249E+03 -0.19435342773E+03  0.28635212110E+03  0.15294330000E+03 0.  0.
    8880022    1    1    2    0    0  0.14524733554E+02 -0.14360244249E+03  0.25882789949E+03  0.33349087535E+03  0.15294330000E+03 0.  0.
<mgrwt>
<rscale>  0 0.21029570E+03</rscale>
<asrwt>0</asrwt>
<pdfrwt beam="1">  1        4 0.42720656E-01 0.21029570E+03</pdfrwt>
<pdfrwt beam="2">  1       -4 0.52639805E-01 0.21029570E+03</pdfrwt>
<totfact> 0.33228607E+01</totfact>
</mgrwt>
</event>
<event>
 4    1  0.8478300E-009  0.2548374E+03  0.7818608E-02  0.1110285E+00
          4   -1    0    0  501    0  0.00000000000E+00  0.00000000000E+00  0.12202073947E+03  0.12202734841E+03  0.12700000000E+01 0.  1.
         -4   -1    0    0    0  501 -0.00000000000E+00 -0.00000000000E+00 -0.70240381631E+03  0.70240496444E+03  0.12700000000E+01 0.  1.
    8880022    1    1    2    0    0 -0.51167484652E+02 -0.19731281960E+03 -0.87276805821E+02  0.26936843563E+03  0.15294330000E+03 0.  0.
    8880022    1    1    2    0    0  0.51167484652E+02  0.19731281960E+03 -0.49310627102E+03  0.55506387723E+03  0.15294330000E+03 0.  0.
<mgrwt>
<rscale>  0 0.25483743E+03</rscale>
<asrwt>0</asrwt>
<pdfrwt beam="1">  1        4 0.18773019E-01 0.25483743E+03</pdfrwt>
<pdfrwt beam="2">  1       -4 0.10806272E+00 0.25483743E+03</pdfrwt>
<totfact> 0.32804643E+01</totfact>
</mgrwt>
</event>
<event>
 4    1  0.8478300E-009  0.1564411E+03  0.7818608E-02  0.1192774E+00
          4   -1    0    0  501    0  0.00000000000E+00  0.00000000000E+00  0.11445218793E+03  0.11445923389E+03  0.12700000000E+01 0. -1.
         -4   -1    0    0    0  501 -0.00000000000E+00 -0.00000000000E+00 -0.22818987172E+03  0.22819340581E+03  0.12700000000E+01 0. -1.
    8880022    1    1    2    0    0  0.48844933352E+01  0.32531609626E+02 -0.99862929416E+02  0.18559747193E+03  0.15294330000E+03 0.  1.
    8880022    1    1    2    0    0 -0.48844933352E+01 -0.32531609626E+02 -0.13874754367E+02  0.15705516777E+03  0.15294330000E+03 0.  1.
<mgrwt>
<rscale>  0 0.15644110E+03</rscale>
<asrwt>0</asrwt>
<pdfrwt beam="1">  1        4 0.17608843E-01 0.15644110E+03</pdfrwt>
<pdfrwt beam="2">  1       -4 0.35106948E-01 0.15644110E+03</pdfrwt>
<totfact> 0.38035495E+02</totfact>
</mgrwt>
</event>
<event>
 4    1  0.8478300E-009  0.1598001E+03  0.7818608E-02  0.1188923E+00
         -4   -1    0    0    0  501 -0.00000000000E+00  0.00000000000E+00  0.39190779179E+03  0.39190984954E+03  0.12700000000E+01 0. -1.
          4   -1    0    0  501    0  0.00000000000E+00 -0.00000000000E+00 -0.90000659155E+02  0.90009619198E+02  0.12700000000E+01 0. -1.
    8880022    1    1    2    0    0 -0.49478560200E+01 -0.46042694827E+02  0.24345756653E+02  0.16164399125E+03  0.15294330000E+03 0. -1.
    8880022    1    1    2    0    0  0.49478560200E+01  0.46042694827E+02  0.27756137598E+03  0.32027547749E+03  0.15294330000E+03 0. -1.
<mgrwt>
<rscale>  0 0.15980008E+03</rscale>
<asrwt>0</asrwt>
<pdfrwt beam="1">  1        4 0.13847103E-01 0.15980008E+03</pdfrwt>
<pdfrwt beam="2">  1       -4 0.60294354E-01 0.15980008E+03</pdfrwt>
<totfact> 0.19552693E+02</totfact>
</mgrwt>
</event>
<event>
 4    1  0.8478300E-009  0.1587131E+03  0.7818608E-02  0.1190157E+00
          4   -1    0    0  501    0  0.00000000000E+00  0.00000000000E+00  0.66029990573E+02  0.66042202833E+02  0.12700000000E+01 0.  1.
         -4   -1    0    0    0  501 -0.00000000000E+00 -0.00000000000E+00 -0.39575075393E+03  0.39575279170E+03  0.12700000000E+01 0.  1.
    8880022    1    1    2    0    0 -0.41537148214E+02  0.85353142400E+01 -0.12095716810E+03  0.19955068479E+03  0.15294330000E+03 0. -1.
    8880022    1    1    2    0    0  0.41537148214E+02 -0.85353142400E+01 -0.20876359526E+03  0.26224430974E+03  0.15294330000E+03 0. -1.
<mgrwt>
<rscale>  0 0.15871307E+03</rscale>
<asrwt>0</asrwt>
<pdfrwt beam="1">  1        4 0.10159556E-01 0.15871307E+03</pdfrwt>
<pdfrwt beam="2">  1       -4 0.60885826E-01 0.15871307E+03</pdfrwt>
<totfact> 0.32536241E+02</totfact>
</mgrwt>
</event>
<event>
 4    1  0.8478300E-009  0.1622341E+03  0.7818608E-02  0.1186197E+00
          4   -1    0    0  501    0  0.00000000000E+00  0.00000000000E+00  0.41639682061E+02  0.41659044902E+02  0.12700000000E+01 0. -1.
         -4   -1    0    0    0  501 -0.00000000000E+00 -0.00000000000E+00 -0.84087812538E+03  0.84087908444E+03  0.12700000000E+01 0. -1.
    8880022    1    1    2    0    0  0.15035888412E+02  0.51982369620E+02 -0.17965030044E+03  0.24206224025E+03  0.15294330000E+03 0.  0.
    8880022    1    1    2    0    0 -0.15035888412E+02 -0.51982369620E+02 -0.61958814289E+03  0.64047588910E+03  0.15294330000E+03 0.  0.
<mgrwt>
<rscale>  0 0.16223408E+03</rscale>
<asrwt>0</asrwt>
<pdfrwt beam="1">  1        4 0.64076688E-02 0.16223408E+03</pdfrwt>
<pdfrwt beam="2">  1       -4 0.12936742E+00 0.16223408E+03</pdfrwt>
<totfact> 0.12696852E+02</totfact>
</mgrwt>
</event>
<event>
 4    1  0.8478300E-009  0.2689233E+03  0.7818608E-02  0.1101897E+00
          4   -1    0    0  501    0  0.00000000000E+00  0.00000000000E+00  0.92710944156E+03  0.92711031142E+03  0.12700000000E+01 0.  1.
         -4   -1    0    0    0  501 -0.00000000000E+00 -0.00000000000E+00 -0.16815174480E+03  0.16815654069E+03  0.12700000000E+01 0.  1.
    8880022    1    1    2    0    0 -0.67309444989E+02 -0.21070721530E+03 -0.21495448770E+02  0.26978102101E+03  0.15294330000E+03 0.  0.
    8880022    1    1    2    0    0  0.67309444989E+02  0.21070721530E+03  0.78045314553E+03  0.82548583110E+03  0.15294330000E+03 0.  0.
<mgrwt>
<rscale>  0 0.26892331E+03</rscale>
<asrwt>0</asrwt>
<pdfrwt beam="1">  1        4 0.14263266E+00 0.26892331E+03</pdfrwt>
<pdfrwt beam="2">  1       -4 0.25869935E-01 0.26892331E+03</pdfrwt>
<totfact> 0.92050540E+00</totfact>
</mgrwt>
</event>
<event>
 4    1  0.8478300E-009  0.1937386E+03  0.7818608E-02  0.1155132E+00
         -4   -1    0    0    0  501 -0.00000000000E+00  0.00000000000E+00  0.22113998640E+02  0.22150436470E+02  0.12700000000E+01 0.  1.
          4   -1    0    0  501    0  0.00000000000E+00 -0.00000000000E+00 -0.21551470727E+04  0.21551474469E+04  0.12700000000E+01 0.  1.
    8880022    1    1    2    0    0 -0.90271872100E+02  0.77420839809E+02 -0.15690591839E+04  0.15809748173E+04  0.15294330000E+03 0.  0.
    8880022    1    1    2    0    0  0.90271872100E+02 -0.77420839809E+02 -0.56397389012E+03  0.59632306604E+03  0.15294330000E+03 0.  0.
<mgrwt>
<rscale>  0 0.19373861E+03</rscale>
<asrwt>0</asrwt>
<pdfrwt beam="1">  1        4 0.33156375E+00 0.19373861E+03</pdfrwt>
<pdfrwt beam="2">  1       -4 0.34049870E-02 0.19373861E+03</pdfrwt>
<totfact> 0.18853705E+01</totfact>
</mgrwt>
</event>
<event>
 4    1  0.8478300E-009  0.1529849E+03  0.7818608E-02  0.1196852E+00
          4   -1    0    0  501    0  0.00000000000E+00  0.00000000000E+00  0.59030295221E+02  0.59043955270E+02  0.12700000000E+01 0.  1.
         -4   -1    0    0    0  501 -0.00000000000E+00 -0.00000000000E+00 -0.41425959288E+03  0.41426153960E+03  0.12700000000E+01 0.  1.
    8880022    1    1    2    0    0 -0.32156729585E+01 -0.15494574950E+01 -0.12850654085E+03  0.19979570923E+03  0.15294330000E+03 0.  1.
    8880022    1    1    2    0    0  0.32156729585E+01  0.15494574950E+01 -0.22672275681E+03  0.27350978564E+03  0.15294330000E+03 0.  1.
<mgrwt>
<rscale>  0 0.15298495E+03</rscale>
<asrwt>0</asrwt>
<pdfrwt beam="1">  1        4 0.90827847E-02 0.15298495E+03</pdfrwt>
<pdfrwt beam="2">  1       -4 0.63733444E-01 0.15298495E+03</pdfrwt>
<totfact> 0.35431023E+02</totfact>
</mgrwt>
</event>
<event>
 4    1  0.8478300E-009  0.6431729E+03  0.7818608E-02  0.9819675E-01
         -4   -1    0    0    0  501 -0.00000000000E+00  0.00000000000E+00  0.30361625726E+03  0.30361891340E+03  0.12700000000E+01 0.  1.
          4   -1    0    0  501    0  0.00000000000E+00 -0.00000000000E+00 -0.14768518340E+04  0.14768523800E+04  0.12700000000E+01 0.  1.
    8880022    1    1    2    0    0  0.56162685499E+03  0.27359630502E+03 -0.83436628138E+03  0.10534886838E+04  0.15294330000E+03 0.  0.
    8880022    1    1    2    0    0 -0.56162685499E+03 -0.27359630502E+03 -0.33886929531E+03  0.72698260962E+03  0.15294330000E+03 0.  0.
<mgrwt>
<rscale>  0 0.64317285E+03</rscale>
<asrwt>0</asrwt>
<pdfrwt beam="1">  1        4 0.22720822E+00 0.64317285E+03</pdfrwt>
<pdfrwt beam="2">  1       -4 0.46710440E-01 0.64317285E+03</pdfrwt>
<totfact> 0.77749945E-01</totfact>
</mgrwt>
</event>
<event>
 4    1  0.8478300E-009  0.1559625E+03  0.7818608E-02  0.1193332E+00
          4   -1    0    0  501    0  0.00000000000E+00  0.00000000000E+00  0.12272036877E+03  0.12272694004E+03  0.12700000000E+01 0.  1.
         -4   -1    0    0    0  501 -0.00000000000E+00 -0.00000000000E+00 -0.22097879602E+03  0.22098244544E+03  0.12700000000E+01 0.  1.
    8880022    1    1    2    0    0 -0.28527800234E+02 -0.10900227800E+02  0.60513787956E+01  0.15607985954E+03  0.15294330000E+03 0.  0.
    8880022    1    1    2    0    0  0.28527800234E+02  0.10900227800E+02 -0.10430980605E+03  0.18762952594E+03  0.15294330000E+03 0.  0.
<mgrwt>
<rscale>  0 0.15596251E+03</rscale>
<asrwt>0</asrwt>
<pdfrwt beam="1">  1        4 0.18880843E-01 0.15596251E+03</pdfrwt>
<pdfrwt beam="2">  1       -4 0.33997524E-01 0.15596251E+03</pdfrwt>
<totfact> 0.35710544E+02</totfact>
</mgrwt>
</event>
<event>
 4    1  0.8478300E-009  0.1764696E+03  0.7818608E-02  0.1171264E+00
          4   -1    0    0  501    0  0.00000000000E+00  0.00000000000E+00  0.27398516271E+02  0.27427934553E+02  0.12700000000E+01 0.  1.
         -4   -1    0    0    0  501 -0.00000000000E+00 -0.00000000000E+00 -0.12192088815E+04  0.12192095429E+04  0.12700000000E+01 0.  1.
    8880022    1    1    2    0    0  0.80167177161E+02 -0.36374352236E+02 -0.75876685596E+03  0.77901775622E+03  0.15294330000E+03 0.  0.
    8880022    1    1    2    0    0 -0.80167177161E+02  0.36374352236E+02 -0.43304350924E+03  0.46761972125E+03  0.15294330000E+03 0.  0.
<mgrwt>
<rscale>  0 0.17646961E+03</rscale>
<asrwt>0</asrwt>
<pdfrwt beam="1">  1        4 0.42174711E-02 0.17646961E+03</pdfrwt>
<pdfrwt beam="2">  1       -4 0.18757287E+00 0.17646961E+03</pdfrwt>
<totfact> 0.95955069E+01</totfact>
</mgrwt>
</event>
<event>
 4    1  0.8478300E-009  0.1553466E+03  0.7818608E-02  0.1194053E+00
          4   -1    0    0  501    0  0.00000000000E+00  0.00000000000E+00  0.10582958244E+04  0.10582965864E+04  0.12700000000E+01 0. -1.
         -4   -1    0    0    0  501 -0.00000000000E+00 -0.00000000000E+00 -0.22793292876E+02  0.22828646481E+02  0.12700000000E+01 0. -1.
    8880022    1    1    2    0    0  0.18259757054E+00 -0.27219160425E+02  0.52818851132E+03  0.55055941782E+03  0.15294330000E+03 0. -1.
    8880022    1    1    2    0    0 -0.18259757054E+00  0.27219160425E+02  0.50731402016E+03  0.53056581505E+03  0.15294330000E+03 0. -1.
<mgrwt>
<rscale>  0 0.15534661E+03</rscale>
<asrwt>0</asrwt>
<pdfrwt beam="1">  1        4 0.16281750E+00 0.15534661E+03</pdfrwt>
<pdfrwt beam="2">  1       -4 0.35094390E-02 0.15534661E+03</pdfrwt>
<totfact> 0.18534212E+02</totfact>
</mgrwt>
</event>
<event>
 4    1  0.8478300E-009  0.1972718E+03  0.7818608E-02  0.1152061E+00
         -4   -1    0    0    0  501 -0.00000000000E+00  0.00000000000E+00  0.15025942690E+04  0.15025948057E+04  0.12700000000E+01 0.  1.
          4   -1    0    0  501    0  0.00000000000E+00 -0.00000000000E+00 -0.32153563974E+02  0.32178635400E+02  0.12700000000E+01 0.  1.
    8880022    1    1    2    0    0 -0.89145254019E+02  0.87049522717E+02  0.39649093867E+03  0.44285574760E+03  0.15294330000E+03 0.  0.
    8880022    1    1    2    0    0  0.89145254019E+02 -0.87049522717E+02  0.10739497663E+04  0.10919176935E+04  0.15294330000E+03 0.  0.
<mgrwt>
<rscale>  0 0.19727176E+03</rscale>
<asrwt>0</asrwt>
<pdfrwt beam="1">  1        4 0.49486719E-02 0.19727176E+03</pdfrwt>
<pdfrwt beam="2">  1       -4 0.23117032E+00 0.19727176E+03</pdfrwt>
<totfact> 0.40396125E+01</totfact>
</mgrwt>
</event>
<event>
 4    1  0.8478300E-009  0.1832334E+03  0.7818608E-02  0.1164710E+00
         -4   -1    0    0    0  501 -0.00000000000E+00  0.00000000000E+00  0.87635058783E+02  0.87644260667E+02  0.12700000000E+01 0. -1.
          4   -1    0    0  501    0  0.00000000000E+00 -0.00000000000E+00 -0.45261720086E+03  0.45261898261E+03  0.12700000000E+01 0. -1.
    8880022    1    1    2    0    0  0.10013302328E+03  0.12497664527E+02 -0.76616190311E+02  0.19860641380E+03  0.15294330000E+03 0.  0.
    8880022    1    1    2    0    0 -0.10013302328E+03 -0.12497664527E+02 -0.28836595177E+03  0.34165682947E+03  0.15294330000E+03 0.  0.
<mgrwt>
<rscale>  0 0.18323337E+03</rscale>
<asrwt>0</asrwt>
<pdfrwt beam="1">  1        4 0.69634259E-01 0.18323337E+03</pdfrwt>
<pdfrwt beam="2">  1       -4 0.13483162E-01 0.18323337E+03</pdfrwt>
<totfact> 0.15372133E+02</totfact>
</mgrwt>
</event>
<event>
 4    1  0.8478300E-009  0.1544103E+03  0.7818608E-02  0.1195156E+00
          4   -1    0    0  501    0  0.00000000000E+00  0.00000000000E+00  0.45626230666E+03  0.45626407417E+03  0.12700000000E+01 0. -1.
         -4   -1    0    0    0  501 -0.00000000000E+00 -0.00000000000E+00 -0.52445981432E+02  0.52461355952E+02  0.12700000000E+01 0. -1.
    8880022    1    1    2    0    0 -0.15812264840E+02  0.14172612409E+02  0.21758759594E+03  0.26680874345E+03  0.15294330000E+03 0.  0.
    8880022    1    1    2    0    0  0.15812264840E+02 -0.14172612409E+02  0.18622872929E+03  0.24191668667E+03  0.15294330000E+03 0.  0.
<mgrwt>
<rscale>  0 0.15441031E+03</rscale>
<asrwt>0</asrwt>
<pdfrwt beam="1">  1        4 0.70195520E-01 0.15441031E+03</pdfrwt>
<pdfrwt beam="2">  1       -4 0.80699311E-02 0.15441031E+03</pdfrwt>
<totfact> 0.35141102E+02</totfact>
</mgrwt>
</event>
<event>
 4    1  0.8478300E-009  0.1650026E+03  0.7818608E-02  0.1183162E+00
         -4   -1    0    0    0  501 -0.00000000000E+00  0.00000000000E+00  0.12366632813E+03  0.12367284914E+03  0.12700000000E+01 0.  1.
          4   -1    0    0  501    0  0.00000000000E+00 -0.00000000000E+00 -0.25192678164E+03  0.25192998275E+03  0.12700000000E+01 0.  1.
    8880022    1    1    2    0    0  0.44226218864E+02 -0.43338828901E+02 -0.13083621615E+03  0.21058010589E+03  0.15294330000E+03 0.  1.
    8880022    1    1    2    0    0 -0.44226218864E+02  0.43338828901E+02  0.25757626432E+01  0.16502272599E+03  0.15294330000E+03 0.  1.
<mgrwt>
<rscale>  0 0.16500262E+03</rscale>
<asrwt>0</asrwt>
<pdfrwt beam="1">  1        4 0.38758714E-01 0.16500262E+03</pdfrwt>
<pdfrwt beam="2">  1       -4 0.19026337E-01 0.16500262E+03</pdfrwt>
<totfact> 0.27555695E+02</totfact>
</mgrwt>
</event>
<event>
 4    1  0.8478300E-009  0.2748610E+03  0.7818608E-02  0.1098529E+00
          4   -1    0    0  501    0  0.00000000000E+00  0.00000000000E+00  0.13237200292E+03  0.13237809508E+03  0.12700000000E+01 0. -1.
         -4   -1    0    0    0  501 -0.00000000000E+00 -0.00000000000E+00 -0.58725635478E+03  0.58725772803E+03  0.12700000000E+01 0. -1.
    8880022    1    1    2    0    0 -0.16919333661E+03 -0.15339673435E+03 -0.28784038303E+03  0.39799583212E+03  0.15294330000E+03 0.  0.
    8880022    1    1    2    0    0  0.16919333661E+03  0.15339673435E+03 -0.16704396883E+03  0.32163999099E+03  0.15294330000E+03 0.  0.
<mgrwt>
<rscale>  0 0.27486105E+03</rscale>
<asrwt>0</asrwt>
<pdfrwt beam="1">  1        4 0.20365498E-01 0.27486105E+03</pdfrwt>
<pdfrwt beam="2">  1       -4 0.90347704E-01 0.27486105E+03</pdfrwt>
<totfact> 0.43358792E+01</totfact>
</mgrwt>
</event>
<event>
 4    1  0.8478300E-009  0.2637806E+03  0.7818608E-02  0.1104893E+00
          4   -1    0    0  501    0  0.00000000000E+00  0.00000000000E+00  0.69990332407E+03  0.69990447630E+03  0.12700000000E+01 0. -1.
         -4   -1    0    0    0  501 -0.00000000000E+00 -0.00000000000E+00 -0.10168069697E+03  0.10168862786E+03  0.12700000000E+01 0. -1.
    8880022    1    1    2    0    0 -0.16765411827E+03  0.13446430249E+03  0.35901945944E+03  0.44550553003E+03  0.15294330000E+03 0.  0.
    8880022    1    1    2    0    0  0.16765411827E+03 -0.13446430249E+03  0.23920316767E+03  0.35608757413E+03  0.15294330000E+03 0.  0.
<mgrwt>
<rscale>  0 0.26378060E+03</rscale>
<asrwt>0</asrwt>
<pdfrwt beam="1">  1        4 0.10767813E+00 0.26378060E+03</pdfrwt>
<pdfrwt beam="2">  1       -4 0.15643883E-01 0.26378060E+03</pdfrwt>
<totfact> 0.46031473E+01</totfact>
</mgrwt>
</event>
<event>
 4    1  0.8478300E-009  0.1869720E+03  0.7818608E-02  0.1161221E+00
         -4   -1    0    0    0  501 -0.00000000000E+00  0.00000000000E+00  0.11029401672E+03  0.11030132830E+03  0.12700000000E+01 0. -1.
          4   -1    0    0  501    0  0.00000000000E+00 -0.00000000000E+00 -0.34732739119E+03  0.34732971305E+03  0.12700000000E+01 0. -1.
    8880022    1    1    2    0    0 -0.67171237092E+02 -0.83993379555E+02 -0.18619786823E+03  0.26387148775E+03  0.15294330000E+03 0.  1.
    8880022    1    1    2    0    0  0.67171237092E+02  0.83993379555E+02 -0.50835506239E+02  0.19375955360E+03  0.15294330000E+03 0.  1.
<mgrwt>
<rscale>  0 0.18697197E+03</rscale>
<asrwt>0</asrwt>
<pdfrwt beam="1">  1        4 0.53435724E-01 0.18697197E+03</pdfrwt>
<pdfrwt beam="2">  1       -4 0.16969051E-01 0.18697197E+03</pdfrwt>
<totfact> 0.18039389E+02</totfact>
</mgrwt>
</event>
<event>
 4    1  0.8478300E-009  0.3090963E+03  0.7818608E-02  0.1080780E+00
          4   -1    0    0  501    0  0.00000000000E+00  0.00000000000E+00  0.96841714354E+02  0.96850041503E+02  0.12700000000E+01 0. -1.
         -4   -1    0    0    0  501 -0.00000000000E+00 -0.00000000000E+00 -0.12214915511E+04  0.12214922114E+04  0.12700000000E+01 0. -1.
    8880022    1    1    2    0    0  0.26778256604E+03  0.21009235932E+02 -0.27321324239E+03  0.41253608266E+03  0.15294330000E+03 0.  0.
    8880022    1    1    2    0    0 -0.26778256604E+03 -0.21009235932E+02 -0.85143659439E+03  0.90580617019E+03  0.15294330000E+03 0.  0.
<mgrwt>
<rscale>  0 0.30909633E+03</rscale>
<asrwt>0</asrwt>
<pdfrwt beam="1">  1        4 0.14899417E-01 0.30909633E+03</pdfrwt>
<pdfrwt beam="2">  1       -4 0.18792246E+00 0.30909633E+03</pdfrwt>
<totfact> 0.12084430E+01</totfact>
</mgrwt>
</event>
<event>
 4    1  0.8478300E-009  0.1803002E+03  0.7818608E-02  0.1167513E+00
         -4   -1    0    0    0  501 -0.00000000000E+00  0.00000000000E+00  0.27590154353E+03  0.27590446648E+03  0.12700000000E+01 0. -1.
          4   -1    0    0  501    0  0.00000000000E+00 -0.00000000000E+00 -0.13753828274E+03  0.13754414607E+03  0.12700000000E+01 0. -1.
    8880022    1    1    2    0    0 -0.85583524463E+02 -0.42331763440E+02  0.14745580134E+03  0.23291926545E+03  0.15294330000E+03 0.  0.
    8880022    1    1    2    0    0  0.85583524463E+02  0.42331763440E+02 -0.90925405464E+01  0.18052934710E+03  0.15294330000E+03 0.  0.
<mgrwt>
<rscale>  0 0.18030022E+03</rscale>
<asrwt>0</asrwt>
<pdfrwt beam="1">  1        4 0.21160412E-01 0.18030022E+03</pdfrwt>
<pdfrwt beam="2">  1       -4 0.42447067E-01 0.18030022E+03</pdfrwt>
<totfact> 0.19259548E+02</totfact>
</mgrwt>
</event>
<event>
 4    1  0.8478300E-009  0.2798140E+03  0.7818608E-02  0.1095791E+00
          4   -1    0    0  501    0  0.00000000000E+00  0.00000000000E+00  0.22058129791E+03  0.22058495390E+03  0.12700000000E+01 0. -1.
         -4   -1    0    0    0  501 -0.00000000000E+00 -0.00000000000E+00 -0.43078025007E+03  0.43078212214E+03  0.12700000000E+01 0. -1.
    8880022    1    1    2    0    0 -0.22093453064E+03  0.78052097494E+02 -0.24174697639E+03  0.36978027308E+03  0.15294330000E+03 0.  0.
    8880022    1    1    2    0    0  0.22093453064E+03 -0.78052097494E+02  0.31548024222E+02  0.28158680296E+03  0.15294330000E+03 0.  0.
<mgrwt>
<rscale>  0 0.27981396E+03</rscale>
<asrwt>0</asrwt>
<pdfrwt beam="1">  1        4 0.33936010E-01 0.27981396E+03</pdfrwt>
<pdfrwt beam="2">  1       -4 0.66274310E-01 0.27981396E+03</pdfrwt>
<totfact> 0.33111234E+01</totfact>
</mgrwt>
</event>
<event>
 4    1  0.8478300E-009  0.1599151E+03  0.7818608E-02  0.1188793E+00
         -4   -1    0    0    0  501 -0.00000000000E+00  0.00000000000E+00  0.15960966795E+03  0.15961472051E+03  0.12700000000E+01 0.  1.
          4   -1    0    0  501    0  0.00000000000E+00 -0.00000000000E+00 -0.19508721537E+03  0.19509134912E+03  0.12700000000E+01 0.  1.
    8880022    1    1    2    0    0 -0.48240465762E+01 -0.46453472020E+02 -0.92724343834E+02  0.18485305906E+03  0.15294330000E+03 0. -1.
    8880022    1    1    2    0    0  0.48240465762E+01  0.46453472020E+02  0.57246796413E+02  0.16985301058E+03  0.15294330000E+03 0. -1.
<mgrwt>
<rscale>  0 0.15991513E+03</rscale>
<asrwt>0</asrwt>
<pdfrwt beam="1">  1        4 0.30014124E-01 0.15991513E+03</pdfrwt>
<pdfrwt beam="2">  1       -4 0.24556040E-01 0.15991513E+03</pdfrwt>
<totfact> 0.28214788E+02</totfact>
</mgrwt>
</event>
<event>
 4    1  0.8478300E-009  0.1635753E+03  0.7818608E-02  0.1184718E+00
         -4   -1    0    0    0  501 -0.00000000000E+00  0.00000000000E+00  0.22728041965E+03  0.22728396788E+03  0.12700000000E+01 0.  1.
          4   -1    0    0  501    0  0.00000000000E+00 -0.00000000000E+00 -0.11892088210E+03  0.11892766331E+03  0.12700000000E+01 0.  1.
    8880022    1    1    2    0    0  0.51132994447E+02 -0.27398040988E+02  0.36773851419E+02  0.16765799991E+03  0.15294330000E+03 0. -1.
    8880022    1    1    2    0    0 -0.51132994447E+02  0.27398040988E+02  0.71585686129E+02  0.17855363128E+03  0.15294330000E+03 0. -1.
<mgrwt>
<rscale>  0 0.16357533E+03</rscale>
<asrwt>0</asrwt>
<pdfrwt beam="1">  1        4 0.18296315E-01 0.16357533E+03</pdfrwt>
<pdfrwt beam="2">  1       -4 0.34967013E-01 0.16357533E+03</pdfrwt>
<totfact> 0.36082101E+02</totfact>
</mgrwt>
</event>
<event>
 4    1  0.8478300E-009  0.1674277E+03  0.7818608E-02  0.1180557E+00
         -4   -1    0    0    0  501 -0.00000000000E+00  0.00000000000E+00  0.37664232202E+03  0.37664446317E+03  0.12700000000E+01 0. -1.
          4   -1    0    0  501    0  0.00000000000E+00 -0.00000000000E+00 -0.74890619388E+02  0.74901386986E+02  0.12700000000E+01 0. -1.
    8880022    1    1    2    0    0  0.33382152199E+02 -0.59380307501E+02  0.16880241606E+03  0.23775259764E+03  0.15294330000E+03 0.  0.
    8880022    1    1    2    0    0 -0.33382152199E+02  0.59380307501E+02  0.13294928657E+03  0.21379325251E+03  0.15294330000E+03 0.  0.
<mgrwt>
<rscale>  0 0.16742772E+03</rscale>
<asrwt>0</asrwt>
<pdfrwt beam="1">  1        4 0.11522627E-01 0.16742772E+03</pdfrwt>
<pdfrwt beam="2">  1       -4 0.57945965E-01 0.16742772E+03</pdfrwt>
<totfact> 0.29406554E+02</totfact>
</mgrwt>
</event>
<event>
 4    1  0.8478300E-009  0.2611377E+03  0.7818608E-02  0.1106462E+00
         -4   -1    0    0    0  501 -0.00000000000E+00  0.00000000000E+00  0.44571617161E+03  0.44571798094E+03  0.12700000000E+01 0. -1.
          4   -1    0    0  501    0  0.00000000000E+00 -0.00000000000E+00 -0.24345643667E+03  0.24345974915E+03  0.12700000000E+01 0. -1.
    8880022    1    1    2    0    0 -0.59118067669E+02 -0.20323947478E+03  0.31118119399E+03  0.40623468407E+03  0.15294330000E+03 0.  0.
    8880022    1    1    2    0    0  0.59118067669E+02  0.20323947478E+03 -0.10892145905E+03  0.28294304602E+03  0.15294330000E+03 0.  0.
<mgrwt>
<rscale>  0 0.26113767E+03</rscale>
<asrwt>0</asrwt>
<pdfrwt beam="1">  1        4 0.37455231E-01 0.26113767E+03</pdfrwt>
<pdfrwt beam="2">  1       -4 0.68572112E-01 0.26113767E+03</pdfrwt>
<totfact> 0.25166901E+01</totfact>
</mgrwt>
</event>
<event>
 4    1  0.8478300E-009  0.1661091E+03  0.7818608E-02  0.1181967E+00
          4   -1    0    0  501    0  0.00000000000E+00  0.00000000000E+00  0.16511437806E+03  0.16511926218E+03  0.12700000000E+01 0. -1.
         -4   -1    0    0    0  501 -0.00000000000E+00 -0.00000000000E+00 -0.41368146585E+03  0.41368341530E+03  0.12700000000E+01 0.  1.
    8880022    1    1    2    0    0 -0.20277961477E+02  0.61557995476E+02 -0.34771448949E+03  0.38535386562E+03  0.15294330000E+03 0.  1.
    8880022    1    1    2    0    0  0.20277961477E+02 -0.61557995476E+02  0.99147401702E+02  0.19344881185E+03  0.15294330000E+03 0.  0.
<mgrwt>
<rscale>  0 0.16610911E+03</rscale>
<asrwt>0</asrwt>
<pdfrwt beam="1">  1        4 0.25402738E-01 0.16610911E+03</pdfrwt>
<pdfrwt beam="2">  1       -4 0.63643828E-01 0.16610911E+03</pdfrwt>
<totfact> 0.59011660E+01</totfact>
</mgrwt>
</event>
<event>
 4    1  0.8478300E-009  0.3781446E+03  0.7818608E-02  0.1051622E+00
         -4   -1    0    0    0  501 -0.00000000000E+00  0.00000000000E+00  0.21416246360E+04  0.21416250125E+04  0.12700000000E+01 0.  1.
          4   -1    0    0  501    0  0.00000000000E+00 -0.00000000000E+00 -0.31986828542E+03  0.31987080660E+03  0.12700000000E+01 0. -1.
    8880022    1    1    2    0    0  0.34482955385E+03 -0.26349231258E+02  0.20056650585E+04  0.20410011472E+04  0.15294330000E+03 0.  0.
    8880022    1    1    2    0    0 -0.34482955385E+03  0.26349231258E+02 -0.18390870795E+03  0.42049467187E+03  0.15294330000E+03 0.  0.
<mgrwt>
<rscale>  0 0.37814462E+03</rscale>
<asrwt>0</asrwt>
<pdfrwt beam="1">  1        4 0.49210728E-01 0.37814462E+03</pdfrwt>
<pdfrwt beam="2">  1       -4 0.32948094E+00 0.37814462E+03</pdfrwt>
<totfact> 0.17003349E-01</totfact>
</mgrwt>
</event>
<event>
 4    1  0.8478300E-009  0.1686128E+03  0.7818608E-02  0.1179302E+00
          4   -1    0    0  501    0  0.00000000000E+00  0.00000000000E+00  0.33260989936E+03  0.33261232396E+03  0.12700000000E+01 0.  1.
         -4   -1    0    0    0  501 -0.00000000000E+00 -0.00000000000E+00 -0.88780256112E+02  0.88789339312E+02  0.12700000000E+01 0.  1.
    8880022    1    1    2    0    0  0.43424808446E+02 -0.56150841631E+02  0.16260427969E+03  0.23424439330E+03  0.15294330000E+03 0.  1.
    8880022    1    1    2    0    0 -0.43424808446E+02  0.56150841631E+02  0.81225363558E+02  0.18715726997E+03  0.15294330000E+03 0.  1.
<mgrwt>
<rscale>  0 0.16861282E+03</rscale>
<asrwt>0</asrwt>
<pdfrwt beam="1">  1        4 0.51171638E-01 0.16861282E+03</pdfrwt>
<pdfrwt beam="2">  1       -4 0.13659386E-01 0.16861282E+03</pdfrwt>
<totfact> 0.28415277E+02</totfact>
</mgrwt>
</event>
<event>
 4    1  0.8478300E-009  0.2048096E+03  0.7818608E-02  0.1145743E+00
          4   -1    0    0  501    0  0.00000000000E+00  0.00000000000E+00  0.97494470134E+02  0.97502741535E+02  0.12700000000E+01 0.  1.
         -4   -1    0    0    0  501 -0.00000000000E+00 -0.00000000000E+00 -0.46807092753E+03  0.46807265045E+03  0.12700000000E+01 0.  1.
    8880022    1    1    2    0    0  0.13188051368E+03  0.34100517132E+02 -0.10487540478E+03  0.23009958431E+03  0.15294330000E+03 0.  0.
    8880022    1    1    2    0    0 -0.13188051368E+03 -0.34100517132E+02 -0.26570105262E+03  0.33547580768E+03  0.15294330000E+03 0.  0.
<mgrwt>
<rscale>  0 0.20480959E+03</rscale>
<asrwt>0</asrwt>
<pdfrwt beam="1">  1        4 0.14999918E-01 0.20480959E+03</pdfrwt>
<pdfrwt beam="2">  1       -4 0.72011679E-01 0.20480959E+03</pdfrwt>
<totfact> 0.12046296E+02</totfact>
</mgrwt>
</event>
<event>
 4    1  0.8478300E-009  0.1542651E+03  0.7818608E-02  0.1195328E+00
          4   -1    0    0  501    0  0.00000000000E+00  0.00000000000E+00  0.17743171121E+03  0.17743625628E+03  0.12700000000E+01 0.  1.
         -4   -1    0    0    0  501 -0.00000000000E+00 -0.00000000000E+00 -0.19675965023E+03  0.19676374884E+03  0.12700000000E+01 0.  1.
    8880022    1    1    2    0    0 -0.19733680585E+02 -0.40786502293E+01  0.95906128311E+02  0.18164716348E+03  0.15294330000E+03 0. -1.
    8880022    1    1    2    0    0  0.19733680585E+02  0.40786502293E+01 -0.11523406733E+03  0.19255284165E+03  0.15294330000E+03 0. -1.
<mgrwt>
<rscale>  0 0.15426505E+03</rscale>
<asrwt>0</asrwt>
<pdfrwt beam="1">  1        4 0.27297851E-01 0.15426505E+03</pdfrwt>
<pdfrwt beam="2">  1       -4 0.30271380E-01 0.15426505E+03</pdfrwt>
<totfact> 0.22658949E+02</totfact>
</mgrwt>
</event>
<event>
 4    1  0.8478300E-009  0.1682994E+03  0.7818608E-02  0.1179633E+00
          4   -1    0    0  501    0  0.00000000000E+00  0.00000000000E+00  0.19667758087E+02  0.19708719090E+02  0.12700000000E+01 0.  1.
         -4   -1    0    0    0  501 -0.00000000000E+00 -0.00000000000E+00 -0.14386316225E+04  0.14386321830E+04  0.12700000000E+01 0.  1.
    8880022    1    1    2    0    0  0.55903148650E+02 -0.42519263010E+02 -0.70739587210E+03  0.72714071722E+03  0.15294330000E+03 0.  0.
    8880022    1    1    2    0    0 -0.55903148650E+02  0.42519263010E+02 -0.71156799227E+03  0.73120018490E+03  0.15294330000E+03 0.  0.
<mgrwt>
<rscale>  0 0.16829944E+03</rscale>
<asrwt>0</asrwt>
<pdfrwt beam="1">  1        4 0.30290040E-02 0.16829944E+03</pdfrwt>
<pdfrwt beam="2">  1       -4 0.22133105E+00 0.16829944E+03</pdfrwt>
<totfact> 0.99521490E+01</totfact>
</mgrwt>
</event>
<event>
 4    1  0.8478300E-009  0.3331600E+03  0.7818608E-02  0.1069747E+00
         -4   -1    0    0    0  501 -0.00000000000E+00  0.00000000000E+00  0.48861991209E+02  0.48878493071E+02  0.12700000000E+01 0. -1.
          4   -1    0    0  501    0  0.00000000000E+00 -0.00000000000E+00 -0.23530967595E+04  0.23530971023E+04  0.12700000000E+01 0. -1.
    8880022    1    1    2    0    0 -0.38971848564E+02 -0.29340272085E+03 -0.92808426557E+03  0.98607100079E+03  0.15294330000E+03 0.  0.
    8880022    1    1    2    0    0  0.38971848564E+02  0.29340272085E+03 -0.13761505028E+04  0.14159045945E+04  0.15294330000E+03 0.  0.
<mgrwt>
<rscale>  0 0.33316004E+03</rscale>
<asrwt>0</asrwt>
<pdfrwt beam="1">  1        4 0.36201609E+00 0.33316004E+03</pdfrwt>
<pdfrwt beam="2">  1       -4 0.75185270E-02 0.33316004E+03</pdfrwt>
<totfact> 0.33963914E+00</totfact>
</mgrwt>
</event>
<event>
 4    1  0.8478300E-009  0.4243411E+03  0.7818608E-02  0.1035663E+00
          4   -1    0    0  501    0  0.00000000000E+00  0.00000000000E+00  0.11177114861E+03  0.11177836357E+03  0.12700000000E+01 0. -1.
         -4   -1    0    0    0  501 -0.00000000000E+00 -0.00000000000E+00 -0.20826014291E+04  0.20826018164E+04  0.12700000000E+01 0. -1.
    8880022    1    1    2    0    0 -0.22201990060E+03 -0.32769015817E+03 -0.15075523640E+04  0.15661351983E+04  0.15294330000E+03 0.  0.
    8880022    1    1    2    0    0  0.22201990060E+03  0.32769015817E+03 -0.46327791647E+03  0.62824498162E+03  0.15294330000E+03 0.  0.
<mgrwt>
<rscale>  0 0.42434105E+03</rscale>
<asrwt>0</asrwt>
<pdfrwt beam="1">  1        4 0.17196148E-01 0.42434105E+03</pdfrwt>
<pdfrwt beam="2">  1       -4 0.32040078E+00 0.42434105E+03</pdfrwt>
<totfact> 0.14610266E+00</totfact>
</mgrwt>
</event>
<event>
 4    1  0.8478300E-009  0.2163562E+03  0.7818608E-02  0.1136629E+00
          4   -1    0    0  501    0  0.00000000000E+00  0.00000000000E+00  0.19193528896E+03  0.19193949059E+03  0.12700000000E+01 0.  1.
         -4   -1    0    0    0  501 -0.00000000000E+00 -0.00000000000E+00 -0.33556226403E+03  0.33556466730E+03  0.12700000000E+01 0.  1.
    8880022    1    1    2    0    0 -0.99928524385E+02  0.11589930621E+03  0.66052561914E+02  0.22621439635E+03  0.15294330000E+03 0.  0.
    8880022    1    1    2    0    0  0.99928524385E+02 -0.11589930621E+03 -0.20967953698E+03  0.30128976154E+03  0.15294330000E+03 0.  0.
<mgrwt>
<rscale>  0 0.21635622E+03</rscale>
<asrwt>0</asrwt>
<pdfrwt beam="1">  1        4 0.29529014E-01 0.21635622E+03</pdfrwt>
<pdfrwt beam="2">  1       -4 0.51625472E-01 0.21635622E+03</pdfrwt>
<totfact> 0.71388836E+01</totfact>
</mgrwt>
</event>
<event>
 4    1  0.8478300E-009  0.2809671E+03  0.7818608E-02  0.1095162E+00
          4   -1    0    0  501    0  0.00000000000E+00  0.00000000000E+00  0.14347675114E+03  0.14348237180E+03  0.12700000000E+01 0.  1.
         -4   -1    0    0    0  501 -0.00000000000E+00 -0.00000000000E+00 -0.18188464805E+04  0.18188469239E+04  0.12700000000E+01 0.  1.
    8880022    1    1    2    0    0  0.20970662053E+03  0.10758257838E+03 -0.18250088840E+02  0.28155922401E+03  0.15294330000E+03 0.  0.
    8880022    1    1    2    0    0 -0.20970662053E+03 -0.10758257838E+03 -0.16571196406E+04  0.16807700717E+04  0.15294330000E+03 0.  0.
<mgrwt>
<rscale>  0 0.28096713E+03</rscale>
<asrwt>0</asrwt>
<pdfrwt beam="1">  1        4 0.22073814E-01 0.28096713E+03</pdfrwt>
<pdfrwt beam="2">  1       -4 0.27982299E+00 0.28096713E+03</pdfrwt>
<totfact> 0.16274761E+00</totfact>
</mgrwt>
</event>
<event>
 4    1  0.8478300E-009  0.1826562E+03  0.7818608E-02  0.1165257E+00
         -4   -1    0    0    0  501 -0.00000000000E+00  0.00000000000E+00  0.32865941715E+03  0.32866187089E+03  0.12700000000E+01 0.  1.
          4   -1    0    0  501    0  0.00000000000E+00 -0.00000000000E+00 -0.10868648587E+03  0.10869390558E+03  0.12700000000E+01 0.  1.
    8880022    1    1    2    0    0  0.60067186206E+02  0.79772081430E+02  0.16618934054E+03  0.24694574659E+03  0.15294330000E+03 0.  0.
    8880022    1    1    2    0    0 -0.60067186206E+02 -0.79772081430E+02  0.53783590733E+02  0.19041002989E+03  0.15294330000E+03 0.  0.
<mgrwt>
<rscale>  0 0.18265625E+03</rscale>
<asrwt>0</asrwt>
<pdfrwt beam="1">  1        4 0.16721758E-01 0.18265625E+03</pdfrwt>
<pdfrwt beam="2">  1       -4 0.50563745E-01 0.18265625E+03</pdfrwt>
<totfact> 0.20676276E+02</totfact>
</mgrwt>
</event>
<event>
 4    1  0.8478300E-009  0.1636934E+03  0.7818608E-02  0.1184589E+00
         -4   -1    0    0    0  501 -0.00000000000E+00  0.00000000000E+00  0.57444292317E+02  0.57458329420E+02  0.12700000000E+01 0. -1.
          4   -1    0    0  501    0  0.00000000000E+00 -0.00000000000E+00 -0.75261133379E+03  0.75261240533E+03  0.12700000000E+01 0. -1.
    8880022    1    1    2    0    0 -0.38316149853E+02 -0.43997289105E+02 -0.97805322492E+02  0.19068671404E+03  0.15294330000E+03 0.  0.
    8880022    1    1    2    0    0  0.38316149853E+02  0.43997289105E+02 -0.59736171898E+03  0.61938402071E+03  0.15294330000E+03 0.  0.
<mgrwt>
<rscale>  0 0.16369344E+03</rscale>
<asrwt>0</asrwt>
<pdfrwt beam="1">  1        4 0.11578751E+00 0.16369344E+03</pdfrwt>
<pdfrwt beam="2">  1       -4 0.88387461E-02 0.16369344E+03</pdfrwt>
<totfact> 0.97680221E+01</totfact>
</mgrwt>
</event>
<event>
 4    1  0.8478300E-009  0.2042544E+03  0.7818608E-02  0.1146198E+00
         -4   -1    0    0    0  501 -0.00000000000E+00  0.00000000000E+00  0.20017821092E+03  0.20018223954E+03  0.12700000000E+01 0.  1.
          4   -1    0    0  501    0  0.00000000000E+00 -0.00000000000E+00 -0.39158050227E+03  0.39158256174E+03  0.12700000000E+01 0.  1.
    8880022    1    1    2    0    0 -0.11916386216E+03 -0.64250784779E+02  0.10666501664E+03  0.23042844482E+03  0.15294330000E+03 0.  0.
    8880022    1    1    2    0    0  0.11916386216E+03  0.64250784779E+02 -0.29806730800E+03  0.36133635646E+03  0.15294330000E+03 0.  0.
<mgrwt>
<rscale>  0 0.20425436E+03</rscale>
<asrwt>0</asrwt>
<pdfrwt beam="1">  1        4 0.60243622E-01 0.20425436E+03</pdfrwt>
<pdfrwt beam="2">  1       -4 0.30797116E-01 0.20425436E+03</pdfrwt>
<totfact> 0.47363374E+01</totfact>
</mgrwt>
</event>
<event>
 4    1  0.8478300E-009  0.2317486E+03  0.7818608E-02  0.1125415E+00
          4   -1    0    0  501    0  0.00000000000E+00  0.00000000000E+00  0.36673988078E+03  0.36674207974E+03  0.12700000000E+01 0. -1.
         -4   -1    0    0    0  501 -0.00000000000E+00 -0.00000000000E+00 -0.14756813166E+03  0.14757359650E+03  0.12700000000E+01 0. -1.
    8880022    1    1    2    0    0 -0.15560280699E+03 -0.78125002992E+02  0.87102964832E+02  0.24757691559E+03  0.15294330000E+03 0.  0.
    8880022    1    1    2    0    0  0.15560280699E+03  0.78125002992E+02  0.13206878428E+03  0.26673876065E+03  0.15294330000E+03 0.  0.
<mgrwt>
<rscale>  0 0.23174858E+03</rscale>
<asrwt>0</asrwt>
<pdfrwt beam="1">  1        4 0.56422109E-01 0.23174858E+03</pdfrwt>
<pdfrwt beam="2">  1       -4 0.22703379E-01 0.23174858E+03</pdfrwt>
<totfact> 0.97924404E+01</totfact>
</mgrwt>
</event>
<event>
 4    1  0.8478300E-009  0.1913419E+03  0.7818608E-02  0.1157257E+00
          4   -1    0    0  501    0  0.00000000000E+00  0.00000000000E+00  0.30453898444E+03  0.30454163253E+03  0.12700000000E+01 0.  1.
         -4   -1    0    0    0  501 -0.00000000000E+00 -0.00000000000E+00 -0.12489738861E+03  0.12490384534E+03  0.12700000000E+01 0.  1.
    8880022    1    1    2    0    0 -0.11061988455E+03 -0.31357739086E+02  0.13140067540E+03  0.23211604246E+03  0.15294330000E+03 0.  1.
    8880022    1    1    2    0    0  0.11061988455E+03  0.31357739086E+02  0.48240920429E+02  0.19732943541E+03  0.15294330000E+03 0.  1.
<mgrwt>
<rscale>  0 0.19134189E+03</rscale>
<asrwt>0</asrwt>
<pdfrwt beam="1">  1        4 0.46852851E-01 0.19134189E+03</pdfrwt>
<pdfrwt beam="2">  1       -4 0.19215683E-01 0.19134189E+03</pdfrwt>
<totfact> 0.18974839E+02</totfact>
</mgrwt>
</event>
<event>
 4    1  0.8478300E-009  0.1552895E+03  0.7818608E-02  0.1194120E+00
          4   -1    0    0  501    0  0.00000000000E+00  0.00000000000E+00  0.45445784942E+03  0.45445962394E+03  0.12700000000E+01 0. -1.
         -4   -1    0    0    0  501 -0.00000000000E+00 -0.00000000000E+00 -0.78733822520E+02  0.78744064593E+02  0.12700000000E+01 0. -1.
    8880022    1    1    2    0    0  0.25129722558E+02  0.95742108619E+01  0.34010733504E+03  0.37388209482E+03  0.15294330000E+03 0.  0.
    8880022    1    1    2    0    0 -0.25129722558E+02 -0.95742108619E+01  0.35616691860E+02  0.15932159371E+03  0.15294330000E+03 0.  0.
<mgrwt>
<rscale>  0 0.15528948E+03</rscale>
<asrwt>0</asrwt>
<pdfrwt beam="1">  1        4 0.69917516E-01 0.15528948E+03</pdfrwt>
<pdfrwt beam="2">  1       -4 0.12113820E-01 0.15528948E+03</pdfrwt>
<totfact> 0.17869275E+02</totfact>
</mgrwt>
</event>
<event>
 4    1  0.8478300E-009  0.2206314E+03  0.7818608E-02  0.1133413E+00
          4   -1    0    0  501    0  0.00000000000E+00  0.00000000000E+00  0.27152827038E+02  0.27182511219E+02  0.12700000000E+01 0. -1.
         -4   -1    0    0    0  501 -0.00000000000E+00 -0.00000000000E+00 -0.18089096316E+04  0.18089100774E+04  0.12700000000E+01 0. -1.
    8880022    1    1    2    0    0  0.58671899346E+02 -0.14779778802E+03 -0.98031684500E+03  0.10048379708E+04  0.15294330000E+03 0. -1.
    8880022    1    1    2    0    0 -0.58671899346E+02  0.14779778802E+03 -0.80143995957E+03  0.83125461787E+03  0.15294330000E+03 0. -1.
<mgrwt>
<rscale>  0 0.22063144E+03</rscale>
<asrwt>0</asrwt>
<pdfrwt beam="1">  1        4 0.41796771E-02 0.22063144E+03</pdfrwt>
<pdfrwt beam="2">  1       -4 0.27829601E+00 0.22063144E+03</pdfrwt>
<totfact> 0.28288756E+01</totfact>
</mgrwt>
</event>
<event>
 4    1  0.8478300E-009  0.2985332E+03  0.7818608E-02  0.1085976E+00
         -4   -1    0    0    0  501 -0.00000000000E+00  0.00000000000E+00  0.33245666504E+03  0.33245909076E+03  0.12700000000E+01 0. -1.
          4   -1    0    0  501    0  0.00000000000E+00 -0.00000000000E+00 -0.38393251162E+03  0.38393461212E+03  0.12700000000E+01 0. -1.
    8880022    1    1    2    0    0  0.24876697220E+03 -0.62011195773E+02  0.17103710029E+03  0.34405775322E+03  0.15294330000E+03 0.  0.
    8880022    1    1    2    0    0 -0.24876697220E+03  0.62011195773E+02 -0.22251294688E+03  0.37233594965E+03  0.15294330000E+03 0.  0.
<mgrwt>
<rscale>  0 0.29853316E+03</rscale>
<asrwt>0</asrwt>
<pdfrwt beam="1">  1        4 0.59066888E-01 0.29853316E+03</pdfrwt>
<pdfrwt beam="2">  1       -4 0.51147528E-01 0.29853316E+03</pdfrwt>
<totfact> 0.18690196E+01</totfact>
</mgrwt>
</event>
<event>
 4    1  0.8478300E-009  0.1616999E+03  0.7818608E-02  0.1186791E+00
         -4   -1    0    0    0  501 -0.00000000000E+00  0.00000000000E+00  0.26571428917E+03  0.26571732418E+03  0.12700000000E+01 0. -1.
          4   -1    0    0  501    0  0.00000000000E+00 -0.00000000000E+00 -0.99899509353E+02  0.99907581639E+02  0.12700000000E+01 0. -1.
    8880022    1    1    2    0    0  0.42526093699E+02  0.30769021889E+02  0.60469732602E+02  0.17263673690E+03  0.15294330000E+03 0.  0.
    8880022    1    1    2    0    0 -0.42526093699E+02 -0.30769021889E+02  0.10534504722E+03  0.19298816892E+03  0.15294330000E+03 0.  0.
<mgrwt>
<rscale>  0 0.16169989E+03</rscale>
<asrwt>0</asrwt>
<pdfrwt beam="1">  1        4 0.15370010E-01 0.16169989E+03</pdfrwt>
<pdfrwt beam="2">  1       -4 0.40879975E-01 0.16169989E+03</pdfrwt>
<totfact> 0.36111834E+02</totfact>
</mgrwt>
</event>
<event>
 4    1  0.8478300E-009  0.2153630E+03  0.7818608E-02  0.1137388E+00
         -4   -1    0    0    0  501 -0.00000000000E+00  0.00000000000E+00  0.41189648221E+03  0.41189844010E+03  0.12700000000E+01 0. -1.
          4   -1    0    0  501    0  0.00000000000E+00 -0.00000000000E+00 -0.22001310919E+03  0.22001677463E+03  0.12700000000E+01 0. -1.
    8880022    1    1    2    0    0 -0.32279661522E+02 -0.14814720992E+03  0.31670626444E+03  0.38299358129E+03  0.15294330000E+03 0.  0.
    8880022    1    1    2    0    0  0.32279661522E+02  0.14814720992E+03 -0.12482289143E+03  0.24892163344E+03  0.15294330000E+03 0.  0.
<mgrwt>
<rscale>  0 0.21536301E+03</rscale>
<asrwt>0</asrwt>
<pdfrwt beam="1">  1        4 0.33848603E-01 0.21536301E+03</pdfrwt>
<pdfrwt beam="2">  1       -4 0.63369122E-01 0.21536301E+03</pdfrwt>
<totfact> 0.35668880E+01</totfact>
</mgrwt>
</event>
<event>
 4    1  0.8478300E-009  0.2176915E+03  0.7818608E-02  0.1135616E+00
         -4   -1    0    0    0  501 -0.00000000000E+00  0.00000000000E+00  0.11945881891E+03  0.11946556958E+03  0.12700000000E+01 0.  1.
          4   -1    0    0  501    0  0.00000000000E+00 -0.00000000000E+00 -0.42265703534E+03  0.42265894339E+03  0.12700000000E+01 0.  1.
    8880022    1    1    2    0    0 -0.14067442975E+03 -0.64874134876E+02 -0.84404165853E+02  0.23348161553E+03  0.15294330000E+03 0.  0.
    8880022    1    1    2    0    0  0.14067442975E+03  0.64874134876E+02 -0.21879405058E+03  0.30864289745E+03  0.15294330000E+03 0.  0.
<mgrwt>
<rscale>  0 0.21769153E+03</rscale>
<asrwt>0</asrwt>
<pdfrwt beam="1">  1        4 0.65024825E-01 0.21769153E+03</pdfrwt>
<pdfrwt beam="2">  1       -4 0.18378946E-01 0.21769153E+03</pdfrwt>
<totfact> 0.10556544E+02</totfact>
</mgrwt>
</event>
<event>
 4    1  0.8478300E-009  0.1573241E+03  0.7818608E-02  0.1191751E+00
         -4   -1    0    0    0  501 -0.00000000000E+00  0.00000000000E+00  0.27005035677E+03  0.27005334305E+03  0.12700000000E+01 0.  1.
          4   -1    0    0  501    0  0.00000000000E+00 -0.00000000000E+00 -0.13397661743E+03  0.13398263663E+03  0.12700000000E+01 0.  1.
    8880022    1    1    2    0    0  0.97332242360E+01  0.35559691232E+02 -0.45514252107E+02  0.16377553985E+03  0.15294330000E+03 0.  0.
    8880022    1    1    2    0    0 -0.97332242360E+01 -0.35559691232E+02  0.18158799145E+03  0.24026043983E+03  0.15294330000E+03 0.  0.
<mgrwt>
<rscale>  0 0.15732413E+03</rscale>
<asrwt>0</asrwt>
<pdfrwt beam="1">  1        4 0.20612480E-01 0.15732413E+03</pdfrwt>
<pdfrwt beam="2">  1       -4 0.41546901E-01 0.15732413E+03</pdfrwt>
<totfact> 0.20628109E+02</totfact>
</mgrwt>
</event>
<event>
 4    1  0.8478300E-009  0.4407252E+03  0.7818608E-02  0.1030525E+00
         -4   -1    0    0    0  501 -0.00000000000E+00  0.00000000000E+00  0.13030796261E+04  0.13030802450E+04  0.12700000000E+01 0. -1.
          4   -1    0    0  501    0  0.00000000000E+00 -0.00000000000E+00 -0.15084151988E+03  0.15084686612E+03  0.12700000000E+01 0. -1.
    8880022    1    1    2    0    0 -0.13001120649E+03  0.39235719850E+03  0.65516693418E+03  0.78960904864E+03  0.15294330000E+03 0.  0.
    8880022    1    1    2    0    0  0.13001120649E+03 -0.39235719850E+03  0.49707117203E+03  0.66431806246E+03  0.15294330000E+03 0.  0.
<mgrwt>
<rscale>  0 0.44072524E+03</rscale>
<asrwt>0</asrwt>
<pdfrwt beam="1">  1        4 0.23206847E-01 0.44072524E+03</pdfrwt>
<pdfrwt beam="2">  1       -4 0.20047424E+00 0.44072524E+03</pdfrwt>
<totfact> 0.45347671E+00</totfact>
</mgrwt>
</event>
<event>
 4    1  0.8478300E-009  0.1731345E+03  0.7818608E-02  0.1174618E+00
          4   -1    0    0  501    0  0.00000000000E+00  0.00000000000E+00  0.11516951310E+04  0.11516958312E+04  0.12700000000E+01 0. -1.
         -4   -1    0    0    0  501 -0.00000000000E+00 -0.00000000000E+00 -0.35457516103E+02  0.35480252933E+02  0.12700000000E+01 0. -1.
    8880022    1    1    2    0    0 -0.66259880009E+02  0.46835084224E+02  0.25185539431E+03  0.30562507991E+03  0.15294330000E+03 0.  0.
    8880022    1    1    2    0    0  0.66259880009E+02 -0.46835084224E+02  0.86438222061E+03  0.88155100427E+03  0.15294330000E+03 0.  0.
<mgrwt>
<rscale>  0 0.17313448E+03</rscale>
<asrwt>0</asrwt>
<pdfrwt beam="1">  1        4 0.17718566E+00 0.17313448E+03</pdfrwt>
<pdfrwt beam="2">  1       -4 0.54568055E-02 0.17313448E+03</pdfrwt>
<totfact> 0.73955861E+01</totfact>
</mgrwt>
</event>
<event>
 4    1  0.8478300E-009  0.2193791E+03  0.7818608E-02  0.1134347E+00
         -4   -1    0    0    0  501 -0.00000000000E+00  0.00000000000E+00  0.20399928330E+03  0.20400323646E+03  0.12700000000E+01 0. -1.
          4   -1    0    0  501    0  0.00000000000E+00 -0.00000000000E+00 -0.25851820382E+03  0.25852132331E+03  0.12700000000E+01 0. -1.
    8880022    1    1    2    0    0  0.81096316417E+02 -0.13475505254E+03  0.41128809565E+02  0.22320118439E+03  0.15294330000E+03 0.  0.
    8880022    1    1    2    0    0 -0.81096316417E+02  0.13475505254E+03 -0.95647730088E+02  0.23932337539E+03  0.15294330000E+03 0.  0.
<mgrwt>
<rscale>  0 0.21937910E+03</rscale>
<asrwt>0</asrwt>
<pdfrwt beam="1">  1        4 0.39772576E-01 0.21937910E+03</pdfrwt>
<pdfrwt beam="2">  1       -4 0.31385049E-01 0.21937910E+03</pdfrwt>
<totfact> 0.10794906E+02</totfact>
</mgrwt>
</event>
<event>
 4    1  0.8478300E-009  0.2876144E+03  0.7818608E-02  0.1091601E+00
          4   -1    0    0  501    0  0.00000000000E+00  0.00000000000E+00  0.67003959674E+03  0.67004080032E+03  0.12700000000E+01 0.  1.
         -4   -1    0    0    0  501 -0.00000000000E+00 -0.00000000000E+00 -0.12362380390E+03  0.12363032715E+03  0.12700000000E+01 0.  1.
    8880022    1    1    2    0    0 -0.23409261707E+03 -0.67312980028E+02  0.28792081733E+03  0.40696491337E+03  0.15294330000E+03 0.  0.
    8880022    1    1    2    0    0  0.23409261707E+03  0.67312980028E+02  0.25849497551E+03  0.38670621410E+03  0.15294330000E+03 0.  0.
<mgrwt>
<rscale>  0 0.28761440E+03</rscale>
<asrwt>0</asrwt>
<pdfrwt beam="1">  1        4 0.10308361E+00 0.28761440E+03</pdfrwt>
<pdfrwt beam="2">  1       -4 0.19019641E-01 0.28761440E+03</pdfrwt>
<totfact> 0.36266114E+01</totfact>
</mgrwt>
</event>
<event>
 4    1  0.8478300E-009  0.1698271E+03  0.7818608E-02  0.1178028E+00
          4   -1    0    0  501    0  0.00000000000E+00  0.00000000000E+00  0.24030238772E+03  0.24030574367E+03  0.12700000000E+01 0.  1.
         -4   -1    0    0    0  501 -0.00000000000E+00 -0.00000000000E+00 -0.12255965305E+03  0.12256623293E+03  0.12700000000E+01 0.  1.
    8880022    1    1    2    0    0 -0.69392689238E+02 -0.25184436101E+02  0.32719258055E+02  0.17295029345E+03  0.15294330000E+03 0.  0.
    8880022    1    1    2    0    0  0.69392689238E+02  0.25184436101E+02  0.85023476616E+02  0.18992168315E+03  0.15294330000E+03 0.  0.
<mgrwt>
<rscale>  0 0.16982713E+03</rscale>
<asrwt>0</asrwt>
<pdfrwt beam="1">  1        4 0.36970363E-01 0.16982713E+03</pdfrwt>
<pdfrwt beam="2">  1       -4 0.18856095E-01 0.16982713E+03</pdfrwt>
<totfact> 0.30868014E+02</totfact>
</mgrwt>
</event>
<event>
 4    1  0.8478300E-009  0.1944046E+03  0.7818608E-02  0.1154548E+00
          4   -1    0    0  501    0  0.00000000000E+00  0.00000000000E+00  0.66594959908E+02  0.66607068582E+02  0.12700000000E+01 0.  1.
         -4   -1    0    0    0  501 -0.00000000000E+00 -0.00000000000E+00 -0.65987233335E+03  0.65987355548E+03  0.12700000000E+01 0.  1.
    8880022    1    1    2    0    0 -0.74161017276E+02 -0.94348585795E+02 -0.43258374991E+03  0.47425928122E+03  0.15294330000E+03 0.  0.
    8880022    1    1    2    0    0  0.74161017276E+02  0.94348585795E+02 -0.16069362354E+03  0.25222134284E+03  0.15294330000E+03 0.  0.
<mgrwt>
<rscale>  0 0.19440464E+03</rscale>
<asrwt>0</asrwt>
<pdfrwt beam="1">  1        4 0.10246404E-01 0.19440464E+03</pdfrwt>
<pdfrwt beam="2">  1       -4 0.10151984E+00 0.19440464E+03</pdfrwt>
<totfact> 0.10644258E+02</totfact>
</mgrwt>
</event>
<event>
 4    1  0.8478300E-009  0.2600175E+03  0.7818608E-02  0.1107133E+00
         -4   -1    0    0    0  501 -0.00000000000E+00  0.00000000000E+00  0.93240418194E+02  0.93249066939E+02  0.12700000000E+01 0. -1.
          4   -1    0    0  501    0  0.00000000000E+00 -0.00000000000E+00 -0.76604702428E+03  0.76604807702E+03  0.12700000000E+01 0. -1.
    8880022    1    1    2    0    0 -0.68127653085E+02  0.19893738674E+03 -0.23702457254E+03  0.35183769264E+03  0.15294330000E+03 0.  0.
    8880022    1    1    2    0    0  0.68127653085E+02 -0.19893738674E+03 -0.43578203355E+03  0.50745945132E+03  0.15294330000E+03 0.  0.
<mgrwt>
<rscale>  0 0.26001753E+03</rscale>
<asrwt>0</asrwt>
<pdfrwt beam="1">  1        4 0.11785413E+00 0.26001753E+03</pdfrwt>
<pdfrwt beam="2">  1       -4 0.14345426E-01 0.26001753E+03</pdfrwt>
<totfact> 0.43125514E+01</totfact>
</mgrwt>
</event>
<event>
 4    1  0.8478300E-009  0.2749609E+03  0.7818608E-02  0.1098473E+00
          4   -1    0    0  501    0  0.00000000000E+00  0.00000000000E+00  0.16188816071E+03  0.16189314216E+03  0.12700000000E+01 0. -1.
         -4   -1    0    0    0  501 -0.00000000000E+00 -0.00000000000E+00 -0.82955808600E+03  0.82955905815E+03  0.12700000000E+01 0. -1.
    8880022    1    1    2    0    0  0.13809331006E+03 -0.18204963800E+03 -0.61119151522E+01  0.27502880122E+03  0.15294330000E+03 0.  0.
    8880022    1    1    2    0    0 -0.13809331006E+03  0.18204963800E+03 -0.66155801014E+03  0.71642339909E+03  0.15294330000E+03 0.  0.
<mgrwt>
<rscale>  0 0.27496088E+03</rscale>
<asrwt>0</asrwt>
<pdfrwt beam="1">  1        4 0.24906329E-01 0.27496088E+03</pdfrwt>
<pdfrwt beam="2">  1       -4 0.12762478E+00 0.27496088E+03</pdfrwt>
<totfact> 0.13101222E+01</totfact>
</mgrwt>
</event>
<event>
 4    1  0.8478300E-009  0.2954475E+03  0.7818608E-02  0.1087539E+00
          4   -1    0    0  501    0  0.00000000000E+00  0.00000000000E+00  0.35651205835E+03  0.35651432040E+03  0.12700000000E+01 0.  1.
         -4   -1    0    0    0  501 -0.00000000000E+00 -0.00000000000E+00 -0.29703683339E+03  0.29703954836E+03  0.12700000000E+01 0.  1.
    8880022    1    1    2    0    0 -0.10971971806E+03  0.22772604436E+03 -0.10724786515E+03  0.31431087383E+03  0.15294330000E+03 0.  0.
    8880022    1    1    2    0    0  0.10971971806E+03 -0.22772604436E+03  0.16672309012E+03  0.33924299493E+03  0.15294330000E+03 0.  0.
<mgrwt>
<rscale>  0 0.29544749E+03</rscale>
<asrwt>0</asrwt>
<pdfrwt beam="1">  1        4 0.54848392E-01 0.29544749E+03</pdfrwt>
<pdfrwt beam="2">  1       -4 0.45698357E-01 0.29544749E+03</pdfrwt>
<totfact> 0.27537467E+01</totfact>
</mgrwt>
</event>
<event>
 4    1  0.8478300E-009  0.1977440E+03  0.7818608E-02  0.1151656E+00
         -4   -1    0    0    0  501 -0.00000000000E+00  0.00000000000E+00  0.43126963132E+03  0.43127150126E+03  0.12700000000E+01 0. -1.
          4   -1    0    0  501    0  0.00000000000E+00 -0.00000000000E+00 -0.20962641760E+03  0.20963026465E+03  0.12700000000E+01 0. -1.
    8880022    1    1    2    0    0 -0.64713607257E+02 -0.10734606333E+03 -0.13057881682E+03  0.23696731567E+03  0.15294330000E+03 0.  0.
    8880022    1    1    2    0    0  0.64713607257E+02  0.10734606333E+03  0.35222203054E+03  0.40393445024E+03  0.15294330000E+03 0.  0.
<mgrwt>
<rscale>  0 0.19774398E+03</rscale>
<asrwt>0</asrwt>
<pdfrwt beam="1">  1        4 0.32250658E-01 0.19774398E+03</pdfrwt>
<pdfrwt beam="2">  1       -4 0.66349613E-01 0.19774398E+03</pdfrwt>
<totfact> 0.35143561E+01</totfact>
</mgrwt>
</event>
<event>
 4    1  0.8478300E-009  0.1592048E+03  0.7818608E-02  0.1189597E+00
          4   -1    0    0  501    0  0.00000000000E+00  0.00000000000E+00  0.17928653533E+03  0.17929103338E+03  0.12700000000E+01 0. -1.
         -4   -1    0    0    0  501 -0.00000000000E+00 -0.00000000000E+00 -0.23082411944E+03  0.23082761320E+03  0.12700000000E+01 0. -1.
    8880022    1    1    2    0    0  0.25164742511E+02  0.36349001077E+02 -0.15342644935E+03  0.22110143039E+03  0.15294330000E+03 0.  0.
    8880022    1    1    2    0    0 -0.25164742511E+02 -0.36349001077E+02  0.10188886524E+03  0.18901721620E+03  0.15294330000E+03 0.  0.
<mgrwt>
<rscale>  0 0.15920480E+03</rscale>
<asrwt>0</asrwt>
<pdfrwt beam="1">  1        4 0.27583159E-01 0.15920480E+03</pdfrwt>
<pdfrwt beam="2">  1       -4 0.35512018E-01 0.15920480E+03</pdfrwt>
<totfact> 0.16445533E+02</totfact>
</mgrwt>
</event>
<event>
 4    1  0.8478300E-009  0.1715011E+03  0.7818608E-02  0.1176291E+00
          4   -1    0    0  501    0  0.00000000000E+00  0.00000000000E+00  0.75267117576E+02  0.75277831319E+02  0.12700000000E+01 0.  1.
         -4   -1    0    0    0  501 -0.00000000000E+00 -0.00000000000E+00 -0.55921410461E+03  0.55921554672E+03  0.12700000000E+01 0.  1.
    8880022    1    1    2    0    0 -0.28348019974E+02  0.72231379205E+02 -0.41610343969E+03  0.45006078246E+03  0.15294330000E+03 0.  0.
    8880022    1    1    2    0    0  0.28348019974E+02 -0.72231379205E+02 -0.67843547343E+02  0.18443259557E+03  0.15294330000E+03 0.  0.
<mgrwt>
<rscale>  0 0.17150112E+03</rscale>
<asrwt>0</asrwt>
<pdfrwt beam="1">  1        4 0.11580492E-01 0.17150112E+03</pdfrwt>
<pdfrwt beam="2">  1       -4 0.86033871E-01 0.17150112E+03</pdfrwt>
<totfact> 0.12401332E+02</totfact>
</mgrwt>
</event>
<event>
 4    1  0.8478300E-009  0.3733310E+03  0.7818608E-02  0.1053427E+00
          4   -1    0    0  501    0  0.00000000000E+00  0.00000000000E+00  0.85436568314E+02  0.85446006959E+02  0.12700000000E+01 0.  1.
         -4   -1    0    0    0  501 -0.00000000000E+00 -0.00000000000E+00 -0.16337089509E+04  0.16337094445E+04  0.12700000000E+01 0.  1.
    8880022    1    1    2    0    0 -0.27039471866E+03 -0.20705340816E+03 -0.74072009704E+03  0.82948317215E+03  0.15294330000E+03 0.  0.
    8880022    1    1    2    0    0  0.27039471866E+03  0.20705340816E+03 -0.80755228550E+03  0.88967227930E+03  0.15294330000E+03 0.  0.
<mgrwt>
<rscale>  0 0.37333105E+03</rscale>
<asrwt>0</asrwt>
<pdfrwt beam="1">  1        4 0.13144853E-01 0.37333105E+03</pdfrwt>
<pdfrwt beam="2">  1       -4 0.25134058E+00 0.37333105E+03</pdfrwt>
<totfact> 0.61323569E+00</totfact>
</mgrwt>
</event>
<event>
 4    1  0.8478300E-009  0.1613728E+03  0.7818608E-02  0.1187156E+00
          4   -1    0    0  501    0  0.00000000000E+00  0.00000000000E+00  0.63419147772E+03  0.63419274934E+03  0.12700000000E+01 0. -1.
         -4   -1    0    0    0  501 -0.00000000000E+00 -0.00000000000E+00 -0.47887116961E+02  0.47903954648E+02  0.12700000000E+01 0. -1.
    8880022    1    1    2    0    0 -0.33122858575E+02  0.39400634622E+02  0.16431942253E+03  0.23030861774E+03  0.15294330000E+03 0.  0.
    8880022    1    1    2    0    0  0.33122858575E+02 -0.39400634622E+02  0.42198493823E+03  0.45178808625E+03  0.15294330000E+03 0.  0.
<mgrwt>
<rscale>  0 0.16137282E+03</rscale>
<asrwt>0</asrwt>
<pdfrwt beam="1">  1        4 0.97569311E-01 0.16137282E+03</pdfrwt>
<pdfrwt beam="2">  1       -4 0.73686419E-02 0.16137282E+03</pdfrwt>
<totfact> 0.19733143E+02</totfact>
</mgrwt>
</event>
<event>
 4    1  0.8478300E-009  0.1651507E+03  0.7818608E-02  0.1183001E+00
          4   -1    0    0  501    0  0.00000000000E+00  0.00000000000E+00  0.45875210230E+02  0.45892786074E+02  0.12700000000E+01 0. -1.
         -4   -1    0    0    0  501 -0.00000000000E+00 -0.00000000000E+00 -0.61826768117E+03  0.61826898554E+03  0.12700000000E+01 0. -1.
    8880022    1    1    2    0    0  0.12630480957E+02  0.61020946100E+02 -0.35142880248E+03  0.38830006585E+03  0.15294330000E+03 0. -1.
    8880022    1    1    2    0    0 -0.12630480957E+02 -0.61020946100E+02 -0.22096366846E+03  0.27586170577E+03  0.15294330000E+03 0. -1.
<mgrwt>
<rscale>  0 0.16515065E+03</rscale>
<asrwt>0</asrwt>
<pdfrwt beam="1">  1        4 0.70591774E-02 0.16515065E+03</pdfrwt>
<pdfrwt beam="2">  1       -4 0.95119551E-01 0.16515065E+03</pdfrwt>
<totfact> 0.22540468E+02</totfact>
</mgrwt>
</event>
<event>
 4    1  0.8478300E-009  0.1982829E+03  0.7818608E-02  0.1151196E+00
         -4   -1    0    0    0  501 -0.00000000000E+00  0.00000000000E+00  0.67999359621E+03  0.67999478218E+03  0.12700000000E+01 0. -1.
          4   -1    0    0  501    0  0.00000000000E+00 -0.00000000000E+00 -0.11598627666E+03  0.11599322943E+03  0.12700000000E+01 0. -1.
    8880022    1    1    2    0    0 -0.12248358692E+03  0.30368348140E+02  0.14990560104E+00  0.19828298243E+03  0.15294330000E+03 0.  1.
    8880022    1    1    2    0    0  0.12248358692E+03 -0.30368348140E+02  0.56385741395E+03  0.59770502919E+03  0.15294330000E+03 0.  1.
<mgrwt>
<rscale>  0 0.19828293E+03</rscale>
<asrwt>0</asrwt>
<pdfrwt beam="1">  1        4 0.17844669E-01 0.19828293E+03</pdfrwt>
<pdfrwt beam="2">  1       -4 0.10461503E+00 0.19828293E+03</pdfrwt>
<totfact> 0.37799310E+01</totfact>
</mgrwt>
</event>
<event>
 4    1  0.8478300E-009  0.1667713E+03  0.7818608E-02  0.1181257E+00
          4   -1    0    0  501    0  0.00000000000E+00  0.00000000000E+00  0.21358884344E+03  0.21359261912E+03  0.12700000000E+01 0.  1.
         -4   -1    0    0    0  501 -0.00000000000E+00 -0.00000000000E+00 -0.10468430169E+04  0.10468437872E+04  0.12700000000E+01 0.  1.
    8880022    1    1    2    0    0 -0.16146877222E+02  0.64500263596E+02  0.17309434882E+03  0.24036287620E+03  0.15294330000E+03 0.  1.
    8880022    1    1    2    0    0  0.16146877222E+02 -0.64500263596E+02 -0.10063485223E+04  0.10200735302E+04  0.15294330000E+03 0.  1.
<mgrwt>
<rscale>  0 0.16677128E+03</rscale>
<asrwt>0</asrwt>
<pdfrwt beam="1">  1        4 0.32860172E-01 0.16677128E+03</pdfrwt>
<pdfrwt beam="2">  1       -4 0.16105312E+00 0.16677128E+03</pdfrwt>
<totfact> 0.41255896E+00</totfact>
</mgrwt>
</event>
<event>
 4    1  0.8478300E-009  0.2516272E+03  0.7818608E-02  0.1112281E+00
         -4   -1    0    0    0  501 -0.00000000000E+00  0.00000000000E+00  0.38428104427E+03  0.38428314286E+03  0.12700000000E+01 0. -1.
          4   -1    0    0  501    0  0.00000000000E+00 -0.00000000000E+00 -0.18304712062E+03  0.18305152626E+03  0.12700000000E+01 0. -1.
    8880022    1    1    2    0    0  0.13012630229E+03 -0.15163033244E+03  0.19027440224E+03  0.31546887870E+03  0.15294330000E+03 0.  0.
    8880022    1    1    2    0    0 -0.13012630229E+03  0.15163033244E+03  0.10959521415E+02  0.25186579043E+03  0.15294330000E+03 0.  0.
<mgrwt>
<rscale>  0 0.25162723E+03</rscale>
<asrwt>0</asrwt>
<pdfrwt beam="1">  1        4 0.28161596E-01 0.25162723E+03</pdfrwt>
<pdfrwt beam="2">  1       -4 0.59120660E-01 0.25162723E+03</pdfrwt>
<totfact> 0.59875471E+01</totfact>
</mgrwt>
</event>
<event>
 4    1  0.8478300E-009  0.2970906E+03  0.7818608E-02  0.1086704E+00
         -4   -1    0    0    0  501 -0.00000000000E+00  0.00000000000E+00  0.36589080396E+03  0.36589300803E+03  0.12700000000E+01 0.  1.
          4   -1    0    0  501    0  0.00000000000E+00 -0.00000000000E+00 -0.27113497984E+03  0.27113795418E+03  0.12700000000E+01 0.  1.
    8880022    1    1    2    0    0 -0.16618881905E+03  0.19300887661E+03 -0.58415639056E+02  0.30277911079E+03  0.15294330000E+03 0.  0.
    8880022    1    1    2    0    0  0.16618881905E+03 -0.19300887661E+03  0.15317146317E+03  0.33425185141E+03  0.15294330000E+03 0.  0.
<mgrwt>
<rscale>  0 0.29709056E+03</rscale>
<asrwt>0</asrwt>
<pdfrwt beam="1">  1        4 0.41713472E-01 0.29709056E+03</pdfrwt>
<pdfrwt beam="2">  1       -4 0.56291291E-01 0.29709056E+03</pdfrwt>
<totfact> 0.31378787E+01</totfact>
</mgrwt>
</event>
<event>
 4    1  0.8478300E-009  0.2652656E+03  0.7818608E-02  0.1104020E+00
         -4   -1    0    0    0  501 -0.00000000000E+00  0.00000000000E+00  0.41167291141E+03  0.41167487036E+03  0.12700000000E+01 0.  1.
          4   -1    0    0  501    0  0.00000000000E+00 -0.00000000000E+00 -0.24061508316E+03  0.24061843476E+03  0.12700000000E+01 0.  1.
    8880022    1    1    2    0    0 -0.21567503645E+03  0.21411394474E+02 -0.89997119187E+02  0.28011658936E+03  0.15294330000E+03 0.  0.
    8880022    1    1    2    0    0  0.21567503645E+03 -0.21411394474E+02  0.26105494743E+03  0.37217671576E+03  0.15294330000E+03 0.  0.
<mgrwt>
<rscale>  0 0.26526557E+03</rscale>
<asrwt>0</asrwt>
<pdfrwt beam="1">  1        4 0.37018114E-01 0.26526557E+03</pdfrwt>
<pdfrwt beam="2">  1       -4 0.63334702E-01 0.26526557E+03</pdfrwt>
<totfact> 0.30634250E+01</totfact>
</mgrwt>
</event>
<event>
 4    1  0.8478300E-009  0.1710855E+03  0.7818608E-02  0.1176721E+00
          4   -1    0    0  501    0  0.00000000000E+00  0.00000000000E+00  0.16862896032E+03  0.16863374264E+03  0.12700000000E+01 0.  1.
         -4   -1    0    0    0  501 -0.00000000000E+00 -0.00000000000E+00 -0.67929946976E+03  0.67930065694E+03  0.12700000000E+01 0.  1.
    8880022    1    1    2    0    0  0.72198793125E+02  0.25805784330E+02  0.11047764440E+03  0.20365551100E+03  0.15294330000E+03 0.  0.
    8880022    1    1    2    0    0 -0.72198793125E+02 -0.25805784330E+02 -0.62114815385E+03  0.64427888858E+03  0.15294330000E+03 0.  0.
<mgrwt>
<rscale>  0 0.17108553E+03</rscale>
<asrwt>0</asrwt>
<pdfrwt beam="1">  1        4 0.25943376E-01 0.17108553E+03</pdfrwt>
<pdfrwt beam="2">  1       -4 0.10450807E+00 0.17108553E+03</pdfrwt>
<totfact> 0.18819732E+01</totfact>
</mgrwt>
</event>
<event>
 4    1  0.8478300E-009  0.1611157E+03  0.7818608E-02  0.1187443E+00
          4   -1    0    0  501    0  0.00000000000E+00  0.00000000000E+00  0.55600427240E+02  0.55614929733E+02  0.12700000000E+01 0.  1.
         -4   -1    0    0    0  501 -0.00000000000E+00 -0.00000000000E+00 -0.52955347153E+03  0.52955499442E+03  0.12700000000E+01 0.  1.
    8880022    1    1    2    0    0  0.43782040896E+02 -0.25490179176E+02 -0.13625439747E+03  0.21100599561E+03  0.15294330000E+03 0.  1.
    8880022    1    1    2    0    0 -0.43782040896E+02  0.25490179176E+02 -0.33769864682E+03  0.37416392854E+03  0.15294330000E+03 0.  1.
<mgrwt>
<rscale>  0 0.16111570E+03</rscale>
<asrwt>0</asrwt>
<pdfrwt beam="1">  1        4 0.85551449E-02 0.16111570E+03</pdfrwt>
<pdfrwt beam="2">  1       -4 0.81470994E-01 0.16111570E+03</pdfrwt>
<totfact> 0.23159762E+02</totfact>
</mgrwt>
</event>
<event>
 4    1  0.8478300E-009  0.2729519E+03  0.7818608E-02  0.1099602E+00
          4   -1    0    0  501    0  0.00000000000E+00  0.00000000000E+00  0.26571544678E+03  0.26571848177E+03  0.12700000000E+01 0. -1.
         -4   -1    0    0    0  501 -0.00000000000E+00 -0.00000000000E+00 -0.28636398256E+03  0.28636679872E+03  0.12700000000E+01 0. -1.
    8880022    1    1    2    0    0 -0.27550293980E+02  0.22439264034E+03 -0.50229750541E+02  0.27753514479E+03  0.15294330000E+03 0.  0.
    8880022    1    1    2    0    0  0.27550293980E+02 -0.22439264034E+03  0.29581214754E+02  0.27455013571E+03  0.15294330000E+03 0.  0.
<mgrwt>
<rscale>  0 0.27295188E+03</rscale>
<asrwt>0</asrwt>
<pdfrwt beam="1">  1        4 0.40879750E-01 0.27295188E+03</pdfrwt>
<pdfrwt beam="2">  1       -4 0.44056447E-01 0.27295188E+03</pdfrwt>
<totfact> 0.53766014E+01</totfact>
</mgrwt>
</event>
<event>
 4    1  0.8478300E-009  0.2327553E+03  0.7818608E-02  0.1124715E+00
         -4   -1    0    0    0  501 -0.00000000000E+00  0.00000000000E+00  0.66815109213E+03  0.66815229912E+03  0.12700000000E+01 0. -1.
          4   -1    0    0  501    0  0.00000000000E+00 -0.00000000000E+00 -0.83822936010E+02  0.83832556333E+02  0.12700000000E+01 0. -1.
    8880022    1    1    2    0    0  0.12553468056E+03  0.12257408594E+03  0.36022766410E+03  0.42888108558E+03  0.15294330000E+03 0.  0.
    8880022    1    1    2    0    0 -0.12553468056E+03 -0.12257408594E+03  0.22410049202E+03  0.32310376987E+03  0.15294330000E+03 0.  0.
<mgrwt>
<rscale>  0 0.23275527E+03</rscale>
<asrwt>0</asrwt>
<pdfrwt beam="1">  1        4 0.12896669E-01 0.23275527E+03</pdfrwt>
<pdfrwt beam="2">  1       -4 0.10279331E+00 0.23275527E+03</pdfrwt>
<totfact> 0.71197010E+01</totfact>
</mgrwt>
</event>
<event>
 4    1  0.8478300E-009  0.1625069E+03  0.7818608E-02  0.1185895E+00
          4   -1    0    0  501    0  0.00000000000E+00  0.00000000000E+00  0.21700457300E+02  0.21737588345E+02  0.12700000000E+01 0.  1.
         -4   -1    0    0    0  501 -0.00000000000E+00 -0.00000000000E+00 -0.13815947443E+04  0.13815953281E+04  0.12700000000E+01 0.  1.
    8880022    1    1    2    0    0 -0.40856698938E+02 -0.36709406026E+02 -0.43694104091E+03  0.46618234264E+03  0.15294330000E+03 0.  0.
    8880022    1    1    2    0    0  0.40856698938E+02  0.36709406026E+02 -0.92295324614E+03  0.93715057377E+03  0.15294330000E+03 0.  0.
<mgrwt>
<rscale>  0 0.16250693E+03</rscale>
<asrwt>0</asrwt>
<pdfrwt beam="1">  1        4 0.33414341E-02 0.16250693E+03</pdfrwt>
<pdfrwt beam="2">  1       -4 0.21255587E+00 0.16250693E+03</pdfrwt>
<totfact> 0.95909563E+01</totfact>
</mgrwt>
</event>
<event>
 4    1  0.8478300E-009  0.1816719E+03  0.7818608E-02  0.1166195E+00
         -4   -1    0    0    0  501 -0.00000000000E+00  0.00000000000E+00  0.26224033001E+03  0.26224340523E+03  0.12700000000E+01 0. -1.
          4   -1    0    0  501    0  0.00000000000E+00 -0.00000000000E+00 -0.13059015611E+03  0.13059633139E+03  0.12700000000E+01 0. -1.
    8880022    1    1    2    0    0  0.97986688254E+02 -0.34124740379E+01  0.28403015602E+02  0.18387881978E+03  0.15294330000E+03 0.  0.
    8880022    1    1    2    0    0 -0.97986688254E+02  0.34124740379E+01  0.10324715830E+03  0.20896091684E+03  0.15294330000E+03 0.  0.
<mgrwt>
<rscale>  0 0.18167193E+03</rscale>
<asrwt>0</asrwt>
<pdfrwt beam="1">  1        4 0.20091505E-01 0.18167193E+03</pdfrwt>
<pdfrwt beam="2">  1       -4 0.40345377E-01 0.18167193E+03</pdfrwt>
<totfact> 0.23438062E+02</totfact>
</mgrwt>
</event>
<event>
 4    1  0.8478300E-009  0.2153767E+03  0.7818608E-02  0.1137378E+00
         -4   -1    0    0    0  501 -0.00000000000E+00  0.00000000000E+00  0.49661854771E+03  0.49662017159E+03  0.12700000000E+01 0. -1.
          4   -1    0    0  501    0  0.00000000000E+00 -0.00000000000E+00 -0.10200426123E+03  0.10201216696E+03  0.12700000000E+01 0. -1.
    8880022    1    1    2    0    0 -0.11849080884E+03  0.94633043482E+02  0.11037911177E+03  0.24201381372E+03  0.15294330000E+03 0. -1.
    8880022    1    1    2    0    0  0.11849080884E+03 -0.94633043482E+02  0.28423517472E+03  0.35661852484E+03  0.15294330000E+03 0. -1.
<mgrwt>
<rscale>  0 0.21537673E+03</rscale>
<asrwt>0</asrwt>
<pdfrwt beam="1">  1        4 0.15693696E-01 0.21537673E+03</pdfrwt>
<pdfrwt beam="2">  1       -4 0.76403587E-01 0.21537673E+03</pdfrwt>
<totfact> 0.98289430E+01</totfact>
</mgrwt>
</event>
<event>
 4    1  0.8478300E-009  0.2321646E+03  0.7818608E-02  0.1125125E+00
         -4   -1    0    0    0  501 -0.00000000000E+00  0.00000000000E+00  0.26725693501E+03  0.26725995250E+03  0.12700000000E+01 0.  1.
          4   -1    0    0  501    0  0.00000000000E+00 -0.00000000000E+00 -0.26084634561E+03  0.26084943726E+03  0.12700000000E+01 0.  1.
    8880022    1    1    2    0    0 -0.67957869888E+02 -0.16090516818E+03  0.12896912212E+03  0.26558131091E+03  0.15294330000E+03 0.  0.
    8880022    1    1    2    0    0  0.67957869888E+02  0.16090516818E+03 -0.12255853273E+03  0.26252807885E+03  0.15294330000E+03 0.  0.
<mgrwt>
<rscale>  0 0.23216459E+03</rscale>
<asrwt>0</asrwt>
<pdfrwt beam="1">  1        4 0.40130677E-01 0.23216459E+03</pdfrwt>
<pdfrwt beam="2">  1       -4 0.41116921E-01 0.23216459E+03</pdfrwt>
<totfact> 0.62952359E+01</totfact>
</mgrwt>
</event>
<event>
 4    1  0.8478300E-009  0.2253944E+03  0.7818608E-02  0.1129924E+00
          4   -1    0    0  501    0  0.00000000000E+00  0.00000000000E+00  0.16481288151E+03  0.16481777456E+03  0.12700000000E+01 0. -1.
         -4   -1    0    0    0  501 -0.00000000000E+00 -0.00000000000E+00 -0.12135315010E+04  0.12135321656E+04  0.12700000000E+01 0. -1.
    8880022    1    1    2    0    0  0.65978178861E+02 -0.15184817233E+03 -0.11196081549E+04  0.11420705149E+04  0.15294330000E+03 0.  0.
    8880022    1    1    2    0    0 -0.65978178861E+02  0.15184817233E+03  0.70889535396E+02  0.23627942519E+03  0.15294330000E+03 0.  0.
<mgrwt>
<rscale>  0 0.22539441E+03</rscale>
<asrwt>0</asrwt>
<pdfrwt beam="1">  1        4 0.25356256E-01 0.22539441E+03</pdfrwt>
<pdfrwt beam="2">  1       -4 0.18669758E+00 0.22539441E+03</pdfrwt>
<totfact> 0.45995664E+00</totfact>
</mgrwt>
</event>
<event>
 4    1  0.8478300E-009  0.1807657E+03  0.7818608E-02  0.1167064E+00
         -4   -1    0    0    0  501 -0.00000000000E+00  0.00000000000E+00  0.41657963081E+02  0.41677317429E+02  0.12700000000E+01 0. -1.
          4   -1    0    0  501    0  0.00000000000E+00 -0.00000000000E+00 -0.14381306313E+04  0.14381311921E+04  0.12700000000E+01 0. -1.
    8880022    1    1    2    0    0 -0.37143542471E+02  0.88909774875E+02 -0.11971689832E+04  0.12107393684E+04  0.15294330000E+03 0.  0.
    8880022    1    1    2    0    0  0.37143542471E+02 -0.88909774875E+02 -0.19930368501E+03  0.26906914110E+03  0.15294330000E+03 0.  0.
<mgrwt>
<rscale>  0 0.18076572E+03</rscale>
<asrwt>0</asrwt>
<pdfrwt beam="1">  1        4 0.22125236E+00 0.18076572E+03</pdfrwt>
<pdfrwt beam="2">  1       -4 0.64104504E-02 0.18076572E+03</pdfrwt>
<totfact> 0.30125145E+01</totfact>
</mgrwt>
</event>
<event>
 4    1  0.8478300E-009  0.3239747E+03  0.7818608E-02  0.1073834E+00
          4   -1    0    0  501    0  0.00000000000E+00  0.00000000000E+00  0.10394787137E+03  0.10395562929E+03  0.12700000000E+01 0. -1.
         -4   -1    0    0    0  501 -0.00000000000E+00 -0.00000000000E+00 -0.10231474110E+04  0.10231481992E+04  0.12700000000E+01 0. -1.
    8880022    1    1    2    0    0  0.36946026680E+02  0.28320129379E+03 -0.52423711483E+03  0.61626632820E+03  0.15294330000E+03 0.  0.
    8880022    1    1    2    0    0 -0.36946026680E+02 -0.28320129379E+03 -0.39496242481E+03  0.51083750030E+03  0.15294330000E+03 0.  0.
<mgrwt>
<rscale>  0 0.32397474E+03</rscale>
<asrwt>0</asrwt>
<pdfrwt beam="1">  1        4 0.15992638E-01 0.32397474E+03</pdfrwt>
<pdfrwt beam="2">  1       -4 0.15740794E+00 0.32397474E+03</pdfrwt>
<totfact> 0.17394287E+01</totfact>
</mgrwt>
</event>
<event>
 4    1  0.8478300E-009  0.1703304E+03  0.7818608E-02  0.1177504E+00
          4   -1    0    0  501    0  0.00000000000E+00  0.00000000000E+00  0.58104862256E+02  0.58118739816E+02  0.12700000000E+01 0.  1.
         -4   -1    0    0    0  501 -0.00000000000E+00 -0.00000000000E+00 -0.50853816326E+03  0.50853974907E+03  0.12700000000E+01 0.  1.
    8880022    1    1    2    0    0  0.34594385324E+02  0.66513223857E+02 -0.26353299581E+03  0.31378666851E+03  0.15294330000E+03 0. -1.
    8880022    1    1    2    0    0 -0.34594385324E+02 -0.66513223857E+02 -0.18690030519E+03  0.25287182038E+03  0.15294330000E+03 0. -1.
<mgrwt>
<rscale>  0 0.17033037E+03</rscale>
<asrwt>0</asrwt>
<pdfrwt beam="1">  1        4 0.89403994E-02 0.17033037E+03</pdfrwt>
<pdfrwt beam="2">  1       -4 0.78237827E-01 0.17033037E+03</pdfrwt>
<totfact> 0.23748167E+02</totfact>
</mgrwt>
</event>
<event>
 4    1  0.8478300E-009  0.2757335E+03  0.7818608E-02  0.1098042E+00
         -4   -1    0    0    0  501 -0.00000000000E+00  0.00000000000E+00  0.17944366259E+03  0.17944815671E+03  0.12700000000E+01 0. -1.
          4   -1    0    0  501    0  0.00000000000E+00 -0.00000000000E+00 -0.48730065460E+03  0.48730230953E+03  0.12700000000E+01 0. -1.
    8880022    1    1    2    0    0 -0.10584020801E+03 -0.20355632995E+03 -0.27438332711E+03  0.38899253503E+03  0.15294330000E+03 0.  0.
    8880022    1    1    2    0    0  0.10584020801E+03  0.20355632995E+03 -0.33473664897E+02  0.27775793121E+03  0.15294330000E+03 0.  0.
<mgrwt>
<rscale>  0 0.27573353E+03</rscale>
<asrwt>0</asrwt>
<pdfrwt beam="1">  1        4 0.74969804E-01 0.27573353E+03</pdfrwt>
<pdfrwt beam="2">  1       -4 0.27607191E-01 0.27573353E+03</pdfrwt>
<totfact> 0.37516934E+01</totfact>
</mgrwt>
</event>
<event>
 4    1  0.8478300E-009  0.3866917E+03  0.7818608E-02  0.1048488E+00
          4   -1    0    0  501    0  0.00000000000E+00  0.00000000000E+00  0.33800872179E+03  0.33801110767E+03  0.12700000000E+01 0. -1.
         -4   -1    0    0    0  501 -0.00000000000E+00 -0.00000000000E+00 -0.62985464734E+03  0.62985592772E+03  0.12700000000E+01 0. -1.
    8880022    1    1    2    0    0 -0.34672700097E+03 -0.76936364352E+02  0.11809509602E+03  0.40432279441E+03  0.15294330000E+03 0.  0.
    8880022    1    1    2    0    0  0.34672700097E+03  0.76936364352E+02 -0.40994102157E+03  0.56354424098E+03  0.15294330000E+03 0.  0.
<mgrwt>
<rscale>  0 0.38669170E+03</rscale>
<asrwt>0</asrwt>
<pdfrwt beam="1">  1        4 0.52001624E-01 0.38669170E+03</pdfrwt>
<pdfrwt beam="2">  1       -4 0.96900997E-01 0.38669170E+03</pdfrwt>
<totfact> 0.60846088E+00</totfact>
</mgrwt>
</event>
<event>
 4    1  0.8478300E-009  0.1947828E+03  0.7818608E-02  0.1154217E+00
          4   -1    0    0  501    0  0.00000000000E+00  0.00000000000E+00  0.38328967451E+03  0.38329177853E+03  0.12700000000E+01 0.  1.
         -4   -1    0    0    0  501 -0.00000000000E+00 -0.00000000000E+00 -0.11569671108E+03  0.11570368125E+03  0.12700000000E+01 0.  1.
    8880022    1    1    2    0    0  0.25782868591E+02 -0.11783005485E+03  0.22863146094E+03  0.30035425098E+03  0.15294330000E+03 0. -1.
    8880022    1    1    2    0    0 -0.25782868591E+02  0.11783005485E+03  0.38961502498E+02  0.19864120879E+03  0.15294330000E+03 0. -1.
<mgrwt>
<rscale>  0 0.19478278E+03</rscale>
<asrwt>0</asrwt>
<pdfrwt beam="1">  1        4 0.58968339E-01 0.19478278E+03</pdfrwt>
<pdfrwt beam="2">  1       -4 0.17800192E-01 0.19478278E+03</pdfrwt>
<totfact> 0.13562827E+02</totfact>
</mgrwt>
</event>
<event>
 4    1  0.8478300E-009  0.1929764E+03  0.7818608E-02  0.1155804E+00
          4   -1    0    0  501    0  0.00000000000E+00  0.00000000000E+00  0.23470250563E+03  0.23470594166E+03  0.12700000000E+01 0.  1.
         -4   -1    0    0    0  501 -0.00000000000E+00 -0.00000000000E+00 -0.46494430973E+03  0.46494604424E+03  0.12700000000E+01 0.  1.
    8880022    1    1    2    0    0 -0.80312121078E+02 -0.86012688940E+02 -0.39904998951E+03  0.44326151039E+03  0.15294330000E+03 0.  0.
    8880022    1    1    2    0    0  0.80312121078E+02  0.86012688940E+02  0.16880818541E+03  0.25639047550E+03  0.15294330000E+03 0.  0.
<mgrwt>
<rscale>  0 0.19297635E+03</rscale>
<asrwt>0</asrwt>
<pdfrwt beam="1">  1        4 0.36108476E-01 0.19297635E+03</pdfrwt>
<pdfrwt beam="2">  1       -4 0.71530291E-01 0.19297635E+03</pdfrwt>
<totfact> 0.23923774E+01</totfact>
</mgrwt>
</event>
<event>
 4    1  0.8478300E-009  0.3613570E+03  0.7818608E-02  0.1058048E+00
          4   -1    0    0  501    0  0.00000000000E+00  0.00000000000E+00  0.55818222056E+03  0.55818366533E+03  0.12700000000E+01 0.  1.
         -4   -1    0    0    0  501 -0.00000000000E+00 -0.00000000000E+00 -0.24336032502E+03  0.24336363881E+03  0.12700000000E+01 0.  1.
    8880022    1    1    2    0    0  0.32614750553E+03  0.28548895406E+02  0.78529254805E+02  0.36979147051E+03  0.15294330000E+03 0.  0.
    8880022    1    1    2    0    0 -0.32614750553E+03 -0.28548895406E+02  0.23629264073E+03  0.43175583362E+03  0.15294330000E+03 0.  0.
<mgrwt>
<rscale>  0 0.36135701E+03</rscale>
<asrwt>0</asrwt>
<pdfrwt beam="1">  1        4 0.85874553E-01 0.36135701E+03</pdfrwt>
<pdfrwt beam="2">  1       -4 0.37440416E-01 0.36135701E+03</pdfrwt>
<totfact> 0.15655315E+01</totfact>
</mgrwt>
</event>
<event>
 4    1  0.8478300E-009  0.1610519E+03  0.7818608E-02  0.1187514E+00
          4   -1    0    0  501    0  0.00000000000E+00  0.00000000000E+00  0.64013276753E+02  0.64025873681E+02  0.12700000000E+01 0.  1.
         -4   -1    0    0    0  501 -0.00000000000E+00 -0.00000000000E+00 -0.64461083779E+03  0.64461208886E+03  0.12700000000E+01 0.  1.
    8880022    1    1    2    0    0  0.28957220996E+02 -0.41322583188E+02 -0.50625593092E+03  0.53125586786E+03  0.15294330000E+03 0.  0.
    8880022    1    1    2    0    0 -0.28957220996E+02  0.41322583188E+02 -0.74341630123E+02  0.17738209468E+03  0.15294330000E+03 0.  0.
<mgrwt>
<rscale>  0 0.16105195E+03</rscale>
<asrwt>0</asrwt>
<pdfrwt beam="1">  1        4 0.98492621E-02 0.16105195E+03</pdfrwt>
<pdfrwt beam="2">  1       -4 0.99171959E-01 0.16105195E+03</pdfrwt>
<totfact> 0.11700665E+02</totfact>
</mgrwt>
</event>
<event>
 4    1  0.8478300E-009  0.1622812E+03  0.7818608E-02  0.1186145E+00
         -4   -1    0    0    0  501 -0.00000000000E+00  0.00000000000E+00  0.46089365168E+02  0.46106859377E+02  0.12700000000E+01 0.  1.
          4   -1    0    0  501    0  0.00000000000E+00 -0.00000000000E+00 -0.69705264925E+03  0.69705380619E+03  0.12700000000E+01 0.  1.
    8880022    1    1    2    0    0 -0.21287554216E+02 -0.49903534772E+02 -0.16763716734E+03  0.23331822826E+03  0.15294330000E+03 0.  1.
    8880022    1    1    2    0    0  0.21287554216E+02  0.49903534772E+02 -0.48332611674E+03  0.50984243731E+03  0.15294330000E+03 0.  1.
<mgrwt>
<rscale>  0 0.16228116E+03</rscale>
<asrwt>0</asrwt>
<pdfrwt beam="1">  1        4 0.10724030E+00 0.16228116E+03</pdfrwt>
<pdfrwt beam="2">  1       -4 0.70921068E-02 0.16228116E+03</pdfrwt>
<totfact> 0.16871100E+02</totfact>
</mgrwt>
</event>
<event>
 4    1  0.8478300E-009  0.2457229E+03  0.7818608E-02  0.1116038E+00
         -4   -1    0    0    0  501 -0.00000000000E+00  0.00000000000E+00  0.39642952962E+03  0.39643156390E+03  0.12700000000E+01 0.  1.
          4   -1    0    0  501    0  0.00000000000E+00 -0.00000000000E+00 -0.17971534001E+03  0.17971982733E+03  0.12700000000E+01 0.  1.
    8880022    1    1    2    0    0 -0.11468987410E+03 -0.15438363554E+03 -0.41480920595E+01  0.24575787643E+03  0.15294330000E+03 0.  0.
    8880022    1    1    2    0    0  0.11468987410E+03  0.15438363554E+03  0.22086228167E+03  0.33039351480E+03  0.15294330000E+03 0.  0.
<mgrwt>
<rscale>  0 0.24572287E+03</rscale>
<asrwt>0</asrwt>
<pdfrwt beam="1">  1        4 0.27649016E-01 0.24572287E+03</pdfrwt>
<pdfrwt beam="2">  1       -4 0.60989660E-01 0.24572287E+03</pdfrwt>
<totfact> 0.57873072E+01</totfact>
</mgrwt>
</event>
<event>
 4    1  0.8478300E-009  0.1691109E+03  0.7818608E-02  0.1178778E+00
         -4   -1    0    0    0  501 -0.00000000000E+00  0.00000000000E+00  0.88367025563E+03  0.88367116824E+03  0.12700000000E+01 0. -1.
          4   -1    0    0  501    0  0.00000000000E+00 -0.00000000000E+00 -0.48585892306E+02  0.48602487911E+02  0.12700000000E+01 0. -1.
    8880022    1    1    2    0    0  0.29947655086E+02 -0.65650447057E+02  0.68694405058E+03  0.70745362030E+03  0.15294330000E+03 0.  1.
    8880022    1    1    2    0    0 -0.29947655086E+02  0.65650447057E+02  0.14814031275E+03  0.22482003585E+03  0.15294330000E+03 0.  1.
<mgrwt>
<rscale>  0 0.16911090E+03</rscale>
<asrwt>0</asrwt>
<pdfrwt beam="1">  1        4 0.74761000E-02 0.16911090E+03</pdfrwt>
<pdfrwt beam="2">  1       -4 0.13595061E+00 0.16911090E+03</pdfrwt>
<totfact> 0.87628331E+01</totfact>
</mgrwt>
</event>
<event>
 4    1  0.8478300E-009  0.1638504E+03  0.7818608E-02  0.1184417E+00
         -4   -1    0    0    0  501 -0.00000000000E+00  0.00000000000E+00  0.97295398974E+02  0.97303687297E+02  0.12700000000E+01 0.  1.
          4   -1    0    0  501    0  0.00000000000E+00 -0.00000000000E+00 -0.36761691173E+03  0.36761910545E+03  0.12700000000E+01 0.  1.
    8880022    1    1    2    0    0 -0.57288047411E+02 -0.13167663425E+02 -0.25126428334E+03  0.29996783300E+03  0.15294330000E+03 0. -1.
    8880022    1    1    2    0    0  0.57288047411E+02  0.13167663425E+02 -0.19057229413E+02  0.16495495974E+03  0.15294330000E+03 0. -1.
<mgrwt>
<rscale>  0 0.16385042E+03</rscale>
<asrwt>0</asrwt>
<pdfrwt beam="1">  1        4 0.56557253E-01 0.16385042E+03</pdfrwt>
<pdfrwt beam="2">  1       -4 0.14969329E-01 0.16385042E+03</pdfrwt>
<totfact> 0.19595174E+02</totfact>
</mgrwt>
</event>
<event>
 4    1  0.8478300E-009  0.2957079E+03  0.7818608E-02  0.1087406E+00
         -4   -1    0    0    0  501 -0.00000000000E+00  0.00000000000E+00  0.79516647894E+03  0.79516749313E+03  0.12700000000E+01 0. -1.
          4   -1    0    0  501    0  0.00000000000E+00 -0.00000000000E+00 -0.10996398132E+03  0.10997131484E+03  0.12700000000E+01 0. -1.
    8880022    1    1    2    0    0 -0.11757192004E+03 -0.22411681091E+03  0.34176942991E+03  0.45193970566E+03  0.15294330000E+03 0.  0.
    8880022    1    1    2    0    0  0.11757192004E+03  0.22411681091E+03  0.34343306771E+03  0.45319910230E+03  0.15294330000E+03 0.  0.
<mgrwt>
<rscale>  0 0.29570789E+03</rscale>
<asrwt>0</asrwt>
<pdfrwt beam="1">  1        4 0.16918177E-01 0.29570789E+03</pdfrwt>
<pdfrwt beam="2">  1       -4 0.12233395E+00 0.29570789E+03</pdfrwt>
<totfact> 0.29713356E+01</totfact>
</mgrwt>
</event>
<event>
 4    1  0.8478300E-009  0.2125050E+03  0.7818608E-02  0.1139598E+00
         -4   -1    0    0    0  501 -0.00000000000E+00  0.00000000000E+00  0.10035175313E+03  0.10035978904E+03  0.12700000000E+01 0. -1.
          4   -1    0    0  501    0  0.00000000000E+00 -0.00000000000E+00 -0.74377621447E+03  0.74377729873E+03  0.12700000000E+01 0. -1.
    8880022    1    1    2    0    0 -0.13475848192E+03  0.60057121829E+02 -0.56443052403E+02  0.21987309410E+03  0.15294330000E+03 0.  0.
    8880022    1    1    2    0    0  0.13475848192E+03 -0.60057121829E+02 -0.58698140894E+03  0.62426399366E+03  0.15294330000E+03 0.  0.
<mgrwt>
<rscale>  0 0.21250496E+03</rscale>
<asrwt>0</asrwt>
<pdfrwt beam="1">  1        4 0.11442781E+00 0.21250496E+03</pdfrwt>
<pdfrwt beam="2">  1       -4 0.15439433E-01 0.21250496E+03</pdfrwt>
<totfact> 0.39813842E+01</totfact>
</mgrwt>
</event>
<event>
 4    1  0.8478300E-009  0.1637866E+03  0.7818608E-02  0.1184487E+00
          4   -1    0    0  501    0  0.00000000000E+00  0.00000000000E+00  0.24687515575E+03  0.24687842236E+03  0.12700000000E+01 0.  1.
         -4   -1    0    0    0  501 -0.00000000000E+00 -0.00000000000E+00 -0.10897429426E+03  0.10898169438E+03  0.12700000000E+01 0.  1.
    8880022    1    1    2    0    0 -0.44689478420E+02  0.37911005057E+02  0.78585690762E+02  0.18166385880E+03  0.15294330000E+03 0.  0.
    8880022    1    1    2    0    0  0.44689478420E+02 -0.37911005057E+02  0.59315170725E+02  0.17419625794E+03  0.15294330000E+03 0.  0.
<mgrwt>
<rscale>  0 0.16378659E+03</rscale>
<asrwt>0</asrwt>
<pdfrwt beam="1">  1        4 0.37981613E-01 0.16378659E+03</pdfrwt>
<pdfrwt beam="2">  1       -4 0.16766097E-01 0.16378659E+03</pdfrwt>
<totfact> 0.35885859E+02</totfact>
</mgrwt>
</event>
<event>
 4    1  0.8478300E-009  0.3132426E+03  0.7818608E-02  0.1078802E+00
          4   -1    0    0  501    0  0.00000000000E+00  0.00000000000E+00  0.35863804061E+03  0.35864028925E+03  0.12700000000E+01 0. -1.
         -4   -1    0    0    0  501 -0.00000000000E+00 -0.00000000000E+00 -0.27414532635E+03  0.27414826802E+03  0.12700000000E+01 0. -1.
    8880022    1    1    2    0    0  0.26597800307E+03 -0.63126815285E+02  0.56503385164E+02  0.31829793979E+03  0.15294330000E+03 0.  0.
    8880022    1    1    2    0    0 -0.26597800307E+03  0.63126815285E+02  0.27989329097E+02  0.31449061748E+03  0.15294330000E+03 0.  0.
<mgrwt>
<rscale>  0 0.31324263E+03</rscale>
<asrwt>0</asrwt>
<pdfrwt beam="1">  1        4 0.55175482E-01 0.31324263E+03</pdfrwt>
<pdfrwt beam="2">  1       -4 0.42176604E-01 0.31324263E+03</pdfrwt>
<totfact> 0.32165574E+01</totfact>
</mgrwt>
</event>
<event>
 4    1  0.8478300E-009  0.1939738E+03  0.7818608E-02  0.1154925E+00
         -4   -1    0    0    0  501 -0.00000000000E+00  0.00000000000E+00  0.91705261040E+02  0.91714054553E+02  0.12700000000E+01 0. -1.
          4   -1    0    0  501    0  0.00000000000E+00 -0.00000000000E+00 -0.41037820999E+03  0.41038017513E+03  0.12700000000E+01 0. -1.
    8880022    1    1    2    0    0  0.53317721383E+02  0.10673058602E+03 -0.15510524429E+03  0.24836160578E+03  0.15294330000E+03 0.  0.
    8880022    1    1    2    0    0 -0.53317721383E+02 -0.10673058602E+03 -0.16356770466E+03  0.25373262390E+03  0.15294330000E+03 0.  0.
<mgrwt>
<rscale>  0 0.19397384E+03</rscale>
<asrwt>0</asrwt>
<pdfrwt beam="1">  1        4 0.63135936E-01 0.19397384E+03</pdfrwt>
<pdfrwt beam="2">  1       -4 0.14109329E-01 0.19397384E+03</pdfrwt>
<totfact> 0.17686402E+02</totfact>
</mgrwt>
</event>
<event>
 4    1  0.8478300E-009  0.1629077E+03  0.7818608E-02  0.1185453E+00
          4   -1    0    0  501    0  0.00000000000E+00  0.00000000000E+00  0.15503200873E+03  0.15503721047E+03  0.12700000000E+01 0.  1.
         -4   -1    0    0    0  501 -0.00000000000E+00 -0.00000000000E+00 -0.17135136822E+03  0.17135607457E+03  0.12700000000E+01 0.  1.
    8880022    1    1    2    0    0 -0.56041226713E+02  0.25772127358E+01 -0.13424555661E+02  0.16345988140E+03  0.15294330000E+03 0.  0.
    8880022    1    1    2    0    0  0.56041226713E+02 -0.25772127358E+01 -0.28948038355E+01  0.16293340364E+03  0.15294330000E+03 0.  0.
<mgrwt>
<rscale>  0 0.16290769E+03</rscale>
<asrwt>0</asrwt>
<pdfrwt beam="1">  1        4 0.23851840E-01 0.16290769E+03</pdfrwt>
<pdfrwt beam="2">  1       -4 0.26362511E-01 0.16290769E+03</pdfrwt>
<totfact> 0.38117008E+02</totfact>
</mgrwt>
</event>
<event>
 4    1  0.8478300E-009  0.3491244E+03  0.7818608E-02  0.1062975E+00
         -4   -1    0    0    0  501 -0.00000000000E+00  0.00000000000E+00  0.27486916881E+03  0.27487210274E+03  0.12700000000E+01 0. -1.
          4   -1    0    0  501    0  0.00000000000E+00 -0.00000000000E+00 -0.47773368486E+03  0.47773537293E+03  0.12700000000E+01 0. -1.
    8880022    1    1    2    0    0 -0.24178646252E+03 -0.20008868588E+03 -0.60140413615E+00  0.34912489224E+03  0.15294330000E+03 0.  0.
    8880022    1    1    2    0    0  0.24178646252E+03  0.20008868588E+03 -0.20226311191E+03  0.40348258343E+03  0.15294330000E+03 0.  0.
<mgrwt>
<rscale>  0 0.34912437E+03</rscale>
<asrwt>0</asrwt>
<pdfrwt beam="1">  1        4 0.73497845E-01 0.34912437E+03</pdfrwt>
<pdfrwt beam="2">  1       -4 0.42287920E-01 0.34912437E+03</pdfrwt>
<totfact> 0.17375892E+01</totfact>
</mgrwt>
</event>
<event>
 4    1  0.8478300E-009  0.1610383E+03  0.7818608E-02  0.1187529E+00
          4   -1    0    0  501    0  0.00000000000E+00  0.00000000000E+00  0.59963284523E+02  0.59976732078E+02  0.12700000000E+01 0.  1.
         -4   -1    0    0    0  501 -0.00000000000E+00 -0.00000000000E+00 -0.68705541658E+03  0.68705659036E+03  0.12700000000E+01 0.  1.
    8880022    1    1    2    0    0  0.35632279772E+02  0.35665396964E+02 -0.86159207170E+02  0.18263828158E+03  0.15294330000E+03 0.  0.
    8880022    1    1    2    0    0 -0.35632279772E+02 -0.35665396964E+02 -0.54093292489E+03  0.56439504086E+03  0.15294330000E+03 0.  0.
<mgrwt>
<rscale>  0 0.16103830E+03</rscale>
<asrwt>0</asrwt>
<pdfrwt beam="1">  1        4 0.92262459E-02 0.16103830E+03</pdfrwt>
<pdfrwt beam="2">  1       -4 0.10570195E+00 0.16103830E+03</pdfrwt>
<totfact> 0.11253506E+02</totfact>
</mgrwt>
</event>
<event>
 4    1  0.8478300E-009  0.1783405E+03  0.7818608E-02  0.1169419E+00
         -4   -1    0    0    0  501 -0.00000000000E+00  0.00000000000E+00  0.18735197893E+03  0.18735628334E+03  0.12700000000E+01 0.  1.
          4   -1    0    0  501    0  0.00000000000E+00 -0.00000000000E+00 -0.16981037121E+03  0.16981512026E+03  0.12700000000E+01 0.  1.
    8880022    1    1    2    0    0  0.84966053911E+02  0.34560748293E+02  0.12030076179E+02  0.17874577306E+03  0.15294330000E+03 0.  1.
    8880022    1    1    2    0    0 -0.84966053911E+02 -0.34560748293E+02  0.55115315414E+01  0.17842563054E+03  0.15294330000E+03 0.  1.
<mgrwt>
<rscale>  0 0.17834049E+03</rscale>
<asrwt>0</asrwt>
<pdfrwt beam="1">  1        4 0.26125369E-01 0.17834049E+03</pdfrwt>
<pdfrwt beam="2">  1       -4 0.28824078E-01 0.17834049E+03</pdfrwt>
<totfact> 0.27641791E+02</totfact>
</mgrwt>
</event>
<event>
 4    1  0.8478300E-009  0.3773913E+03  0.7818608E-02  0.1051902E+00
         -4   -1    0    0    0  501 -0.00000000000E+00  0.00000000000E+00  0.24478627314E+03  0.24478956762E+03  0.12700000000E+01 0. -1.
          4   -1    0    0  501    0  0.00000000000E+00 -0.00000000000E+00 -0.71854422610E+03  0.71854534843E+03  0.12700000000E+01 0. -1.
    8880022    1    1    2    0    0 -0.24969594367E+03 -0.23808508195E+03 -0.44698432952E+03  0.58499505501E+03  0.15294330000E+03 0.  0.
    8880022    1    1    2    0    0  0.24969594367E+03  0.23808508195E+03 -0.26773623435E+02  0.37833986105E+03  0.15294330000E+03 0.  0.
<mgrwt>
<rscale>  0 0.37739134E+03</rscale>
<asrwt>0</asrwt>
<pdfrwt beam="1">  1        4 0.11054560E+00 0.37739134E+03</pdfrwt>
<pdfrwt beam="2">  1       -4 0.37659767E-01 0.37739134E+03</pdfrwt>
<totfact> 0.85682448E+00</totfact>
</mgrwt>
</event>
<event>
 4    1  0.8478300E-009  0.1725524E+03  0.7818608E-02  0.1175212E+00
         -4   -1    0    0    0  501 -0.00000000000E+00  0.00000000000E+00  0.47068663950E+03  0.47068835285E+03  0.12700000000E+01 0. -1.
          4   -1    0    0  501    0  0.00000000000E+00 -0.00000000000E+00 -0.67655771187E+02  0.67667690037E+02  0.12700000000E+01 0. -1.
    8880022    1    1    2    0    0  0.39370732335E+02  0.69517142792E+02  0.27020649211E+03  0.32060238474E+03  0.15294330000E+03 0.  0.
    8880022    1    1    2    0    0 -0.39370732335E+02 -0.69517142792E+02  0.13282437620E+03  0.21775365815E+03  0.15294330000E+03 0.  0.
<mgrwt>
<rscale>  0 0.17255243E+03</rscale>
<asrwt>0</asrwt>
<pdfrwt beam="1">  1        4 0.10409629E-01 0.17255243E+03</pdfrwt>
<pdfrwt beam="2">  1       -4 0.72414376E-01 0.17255243E+03</pdfrwt>
<totfact> 0.21816054E+02</totfact>
</mgrwt>
</event>
<event>
 4    1  0.8478300E-009  0.1750522E+03  0.7818608E-02  0.1172679E+00
          4   -1    0    0  501    0  0.00000000000E+00  0.00000000000E+00  0.64795365561E+03  0.64795490022E+03  0.12700000000E+01 0. -1.
         -4   -1    0    0    0  501 -0.00000000000E+00 -0.00000000000E+00 -0.52722001933E+02  0.52737295985E+02  0.12700000000E+01 0. -1.
    8880022    1    1    2    0    0  0.84503946567E+02 -0.10520992568E+02  0.18510165974E+03  0.25476633554E+03  0.15294330000E+03 0.  1.
    8880022    1    1    2    0    0 -0.84503946567E+02  0.10520992568E+02  0.41012999393E+03  0.44592586066E+03  0.15294330000E+03 0.  1.
<mgrwt>
<rscale>  0 0.17505217E+03</rscale>
<asrwt>0</asrwt>
<pdfrwt beam="1">  1        4 0.99686443E-01 0.17505217E+03</pdfrwt>
<pdfrwt beam="2">  1       -4 0.81123500E-02 0.17505217E+03</pdfrwt>
<totfact> 0.16208492E+02</totfact>
</mgrwt>
</event>
<event>
 4    1  0.8478300E-009  0.1757285E+03  0.7818608E-02  0.1172002E+00
          4   -1    0    0  501    0  0.00000000000E+00  0.00000000000E+00  0.11474713734E+04  0.11474720762E+04  0.12700000000E+01 0. -1.
         -4   -1    0    0    0  501 -0.00000000000E+00 -0.00000000000E+00 -0.16136566033E+03  0.16137065791E+03  0.12700000000E+01 0. -1.
    8880022    1    1    2    0    0 -0.51085022745E+02  0.69851117559E+02 -0.10431168086E+03  0.20435615467E+03  0.15294330000E+03 0.  0.
    8880022    1    1    2    0    0  0.51085022745E+02 -0.69851117559E+02  0.10904173939E+04  0.11044865794E+04  0.15294330000E+03 0.  0.
<mgrwt>
<rscale>  0 0.17572852E+03</rscale>
<asrwt>0</asrwt>
<pdfrwt beam="1">  1        4 0.17653450E+00 0.17572852E+03</pdfrwt>
<pdfrwt beam="2">  1       -4 0.24825925E-01 0.17572852E+03</pdfrwt>
<totfact> 0.54991819E+00</totfact>
</mgrwt>
</event>
<event>
 4    1  0.8478300E-009  0.2014240E+03  0.7818608E-02  0.1148543E+00
          4   -1    0    0  501    0  0.00000000000E+00  0.00000000000E+00  0.40468636190E+02  0.40488559064E+02  0.12700000000E+01 0. -1.
         -4   -1    0    0    0  501 -0.00000000000E+00 -0.00000000000E+00 -0.13924777496E+04  0.13924783288E+04  0.12700000000E+01 0. -1.
    8880022    1    1    2    0    0 -0.11200472688E+03  0.68080294890E+02 -0.29673131951E+03  0.35863785967E+03  0.15294330000E+03 0.  0.
    8880022    1    1    2    0    0  0.11200472688E+03 -0.68080294890E+02 -0.10552777939E+04  0.10743290282E+04  0.15294330000E+03 0.  0.
<mgrwt>
<rscale>  0 0.20142403E+03</rscale>
<asrwt>0</asrwt>
<pdfrwt beam="1">  1        4 0.62275222E-02 0.20142403E+03</pdfrwt>
<pdfrwt beam="2">  1       -4 0.21422889E+00 0.20142403E+03</pdfrwt>
<totfact> 0.35203915E+01</totfact>
</mgrwt>
</event>
<event>
 4    1  0.8478300E-009  0.2124742E+03  0.7818608E-02  0.1139622E+00
         -4   -1    0    0    0  501 -0.00000000000E+00  0.00000000000E+00  0.91996495406E+03  0.91996583067E+03  0.12700000000E+01 0. -1.
          4   -1    0    0  501    0  0.00000000000E+00 -0.00000000000E+00 -0.50338241912E+02  0.50354259986E+02  0.12700000000E+01 0. -1.
    8880022    1    1    2    0    0 -0.13207918020E+03 -0.65640735132E+02  0.51199958728E+03  0.55433640178E+03  0.15294330000E+03 0.  0.
    8880022    1    1    2    0    0  0.13207918020E+03  0.65640735132E+02  0.35762712487E+03  0.41598368887E+03  0.15294330000E+03 0.  0.
<mgrwt>
<rscale>  0 0.21247416E+03</rscale>
<asrwt>0</asrwt>
<pdfrwt beam="1">  1        4 0.77456451E-02 0.21247416E+03</pdfrwt>
<pdfrwt beam="2">  1       -4 0.14153436E+00 0.21247416E+03</pdfrwt>
<totfact> 0.76870422E+01</totfact>
</mgrwt>
</event>
<event>
 4    1  0.8478300E-009  0.1790646E+03  0.7818608E-02  0.1168711E+00
          4   -1    0    0  501    0  0.00000000000E+00  0.00000000000E+00  0.18969622796E+03  0.18970047919E+03  0.12700000000E+01 0. -1.
         -4   -1    0    0    0  501 -0.00000000000E+00 -0.00000000000E+00 -0.25459326971E+03  0.25459643729E+03  0.12700000000E+01 0. -1.
    8880022    1    1    2    0    0 -0.73620711388E+02 -0.57030463648E+02  0.96341162936E+02  0.20333655751E+03  0.15294330000E+03 0. -1.
    8880022    1    1    2    0    0  0.73620711388E+02  0.57030463648E+02 -0.16123820468E+03  0.24096035896E+03  0.15294330000E+03 0. -1.
<mgrwt>
<rscale>  0 0.17906461E+03</rscale>
<asrwt>0</asrwt>
<pdfrwt beam="1">  1        4 0.29184606E-01 0.17906461E+03</pdfrwt>
<pdfrwt beam="2">  1       -4 0.39168766E-01 0.17906461E+03</pdfrwt>
<totfact> 0.12425549E+02</totfact>
</mgrwt>
</event>
<event>
 4    1  0.8478300E-009  0.2249614E+03  0.7818608E-02  0.1130237E+00
         -4   -1    0    0    0  501 -0.00000000000E+00  0.00000000000E+00  0.23310131665E+03  0.23310477628E+03  0.12700000000E+01 0. -1.
          4   -1    0    0  501    0  0.00000000000E+00 -0.00000000000E+00 -0.23092737187E+03  0.23093086407E+03  0.12700000000E+01 0. -1.
    8880022    1    1    2    0    0 -0.38496489887E+02  0.16041820864E+03  0.57863056339E+02  0.23228380852E+03  0.15294330000E+03 0.  0.
    8880022    1    1    2    0    0  0.38496489887E+02 -0.16041820864E+03 -0.55689111559E+02  0.23175183183E+03  0.15294330000E+03 0.  0.
<mgrwt>
<rscale>  0 0.22496141E+03</rscale>
<asrwt>0</asrwt>
<pdfrwt beam="1">  1        4 0.35527823E-01 0.22496141E+03</pdfrwt>
<pdfrwt beam="2">  1       -4 0.35862276E-01 0.22496141E+03</pdfrwt>
<totfact> 0.10446132E+02</totfact>
</mgrwt>
</event>
<event>
 4    1  0.8478300E-009  0.2377800E+03  0.7818608E-02  0.1121281E+00
         -4   -1    0    0    0  501 -0.00000000000E+00  0.00000000000E+00  0.82357288507E+02  0.82367080015E+02  0.12700000000E+01 0. -1.
          4   -1    0    0  501    0  0.00000000000E+00 -0.00000000000E+00 -0.69746480123E+03  0.69746595749E+03  0.12700000000E+01 0. -1.
    8880022    1    1    2    0    0  0.54142966058E+02 -0.17382810805E+03 -0.25857946008E+03  0.35128715051E+03  0.15294330000E+03 0.  0.
    8880022    1    1    2    0    0 -0.54142966058E+02  0.17382810805E+03 -0.35652805264E+03  0.42854588699E+03  0.15294330000E+03 0.  0.
<mgrwt>
<rscale>  0 0.23777999E+03</rscale>
<asrwt>0</asrwt>
<pdfrwt beam="1">  1        4 0.10730312E+00 0.23777999E+03</pdfrwt>
<pdfrwt beam="2">  1       -4 0.12671195E-01 0.23777999E+03</pdfrwt>
<totfact> 0.66470822E+01</totfact>
</mgrwt>
</event>
<event>
 4    1  0.8478300E-009  0.1900092E+03  0.7818608E-02  0.1158453E+00
          4   -1    0    0  501    0  0.00000000000E+00  0.00000000000E+00  0.40634827293E+02  0.40654668725E+02  0.12700000000E+01 0. -1.
         -4   -1    0    0    0  501 -0.00000000000E+00 -0.00000000000E+00 -0.90604488287E+03  0.90604577294E+03  0.12700000000E+01 0. -1.
    8880022    1    1    2    0    0  0.49372382739E+02 -0.10136169496E+03 -0.49904320161E+03  0.53399213053E+03  0.15294330000E+03 0.  0.
    8880022    1    1    2    0    0 -0.49372382739E+02  0.10136169496E+03 -0.36636685397E+03  0.41270831114E+03  0.15294330000E+03 0.  0.
<mgrwt>
<rscale>  0 0.19000915E+03</rscale>
<asrwt>0</asrwt>
<pdfrwt beam="1">  1        4 0.62531073E-02 0.19000915E+03</pdfrwt>
<pdfrwt beam="2">  1       -4 0.13939310E+00 0.19000915E+03</pdfrwt>
<totfact> 0.11225340E+02</totfact>
</mgrwt>
</event>
<event>
 4    1  0.8478300E-009  0.2473204E+03  0.7818608E-02  0.1115010E+00
          4   -1    0    0  501    0  0.00000000000E+00  0.00000000000E+00  0.63622199997E+03  0.63622326753E+03  0.12700000000E+01 0.  1.
         -4   -1    0    0    0  501 -0.00000000000E+00 -0.00000000000E+00 -0.20238541444E+03  0.20238939913E+03  0.12700000000E+01 0.  1.
    8880022    1    1    2    0    0 -0.18507836412E+03  0.59343982930E+02 -0.86888255062E+02  0.26213914446E+03  0.15294330000E+03 0.  1.
    8880022    1    1    2    0    0  0.18507836412E+03 -0.59343982930E+02  0.52072484059E+03  0.57647352220E+03  0.15294330000E+03 0.  1.
<mgrwt>
<rscale>  0 0.24732036E+03</rscale>
<asrwt>0</asrwt>
<pdfrwt beam="1">  1        4 0.97880710E-01 0.24732036E+03</pdfrwt>
<pdfrwt beam="2">  1       -4 0.31136622E-01 0.24732036E+03</pdfrwt>
<totfact> 0.16104691E+01</totfact>
</mgrwt>
</event>
<event>
 4    1  0.8478300E-009  0.1648530E+03  0.7818608E-02  0.1183324E+00
         -4   -1    0    0    0  501 -0.00000000000E+00  0.00000000000E+00  0.28798238510E+03  0.28798518543E+03  0.12700000000E+01 0.  1.
          4   -1    0    0  501    0  0.00000000000E+00 -0.00000000000E+00 -0.95352152458E+02  0.95360609679E+02  0.12700000000E+01 0.  1.
    8880022    1    1    2    0    0 -0.42777839570E+02  0.44214593213E+02  0.11585403398E+03  0.20149115121E+03  0.15294330000E+03 0. -1.
    8880022    1    1    2    0    0  0.42777839570E+02 -0.44214593213E+02  0.76776198654E+02  0.18185464389E+03  0.15294330000E+03 0. -1.
<mgrwt>
<rscale>  0 0.16485305E+03</rscale>
<asrwt>0</asrwt>
<pdfrwt beam="1">  1        4 0.14670428E-01 0.16485305E+03</pdfrwt>
<pdfrwt beam="2">  1       -4 0.44305848E-01 0.16485305E+03</pdfrwt>
<totfact> 0.33484792E+02</totfact>
</mgrwt>
</event>
<event>
 4    1  0.8478300E-009  0.1596630E+03  0.7818608E-02  0.1189078E+00
         -4   -1    0    0    0  501 -0.00000000000E+00  0.00000000000E+00  0.13262919216E+03  0.13263527251E+03  0.12700000000E+01 0.  1.
          4   -1    0    0  501    0  0.00000000000E+00 -0.00000000000E+00 -0.22770853593E+03  0.22771207749E+03  0.12700000000E+01 0.  1.
    8880022    1    1    2    0    0 -0.36338331929E+02  0.27930881849E+02  0.23613229214E+02  0.16139964726E+03  0.15294330000E+03 0.  0.
    8880022    1    1    2    0    0  0.36338331929E+02 -0.27930881849E+02 -0.11869257298E+03  0.19894770273E+03  0.15294330000E+03 0.  0.
<mgrwt>
<rscale>  0 0.15966296E+03</rscale>
<asrwt>0</asrwt>
<pdfrwt beam="1">  1        4 0.35032823E-01 0.15966296E+03</pdfrwt>
<pdfrwt beam="2">  1       -4 0.20405231E-01 0.15966296E+03</pdfrwt>
<totfact> 0.29424721E+02</totfact>
</mgrwt>
</event>
<event>
 4    1  0.8478300E-009  0.1722270E+03  0.7818608E-02  0.1175545E+00
          4   -1    0    0  501    0  0.00000000000E+00  0.00000000000E+00  0.16398054818E+03  0.16398546607E+03  0.12700000000E+01 0.  1.
         -4   -1    0    0    0  501 -0.00000000000E+00 -0.00000000000E+00 -0.28107158290E+03  0.28107445208E+03  0.12700000000E+01 0.  1.
    8880022    1    1    2    0    0  0.67937021491E+02 -0.40682424215E+02 -0.19140499283E+03  0.25748402441E+03  0.15294330000E+03 0.  0.
    8880022    1    1    2    0    0 -0.67937021491E+02  0.40682424215E+02  0.74313958110E+02  0.18757589374E+03  0.15294330000E+03 0.  0.
<mgrwt>
<rscale>  0 0.17222703E+03</rscale>
<asrwt>0</asrwt>
<pdfrwt beam="1">  1        4 0.25228376E-01 0.17222703E+03</pdfrwt>
<pdfrwt beam="2">  1       -4 0.43242381E-01 0.17222703E+03</pdfrwt>
<totfact> 0.13337454E+02</totfact>
</mgrwt>
</event>
<event>
 4    1  0.8478300E-009  0.1692731E+03  0.7818608E-02  0.1178608E+00
         -4   -1    0    0    0  501 -0.00000000000E+00  0.00000000000E+00  0.93170420382E+02  0.93179075624E+02  0.12700000000E+01 0. -1.
          4   -1    0    0  501    0  0.00000000000E+00 -0.00000000000E+00 -0.39843279888E+03  0.39843482293E+03  0.12700000000E+01 0. -1.
    8880022    1    1    2    0    0 -0.32767895106E+02  0.64714755797E+02 -0.35211874703E+02  0.17289668505E+03  0.15294330000E+03 0.  0.
    8880022    1    1    2    0    0  0.32767895106E+02 -0.64714755797E+02 -0.27005050380E+03  0.31871721351E+03  0.15294330000E+03 0.  0.
<mgrwt>
<rscale>  0 0.16927312E+03</rscale>
<asrwt>0</asrwt>
<pdfrwt beam="1">  1        4 0.61298174E-01 0.16927312E+03</pdfrwt>
<pdfrwt beam="2">  1       -4 0.14334733E-01 0.16927312E+03</pdfrwt>
<totfact> 0.17938474E+02</totfact>
</mgrwt>
</event>
<event>
 4    1  0.8478300E-009  0.2030239E+03  0.7818608E-02  0.1147213E+00
          4   -1    0    0  501    0  0.00000000000E+00  0.00000000000E+00  0.20457923213E+03  0.20458317409E+03  0.12700000000E+01 0.  1.
         -4   -1    0    0    0  501 -0.00000000000E+00 -0.00000000000E+00 -0.51062320352E+03  0.51062478286E+03  0.12700000000E+01 0.  1.
    8880022    1    1    2    0    0 -0.11141459771E+02  0.13305228235E+03  0.12522748729E+03  0.23853850539E+03  0.15294330000E+03 0.  0.
    8880022    1    1    2    0    0  0.11141459771E+02 -0.13305228235E+03 -0.43127145868E+03  0.47666945156E+03  0.15294330000E+03 0.  0.
<mgrwt>
<rscale>  0 0.20302388E+03</rscale>
<asrwt>0</asrwt>
<pdfrwt beam="1">  1        4 0.31474153E-01 0.20302388E+03</pdfrwt>
<pdfrwt beam="2">  1       -4 0.78557840E-01 0.20302388E+03</pdfrwt>
<totfact> 0.25522346E+01</totfact>
</mgrwt>
</event>
<event>
 4    1  0.8478300E-009  0.1982297E+03  0.7818608E-02  0.1151241E+00
         -4   -1    0    0    0  501 -0.00000000000E+00  0.00000000000E+00  0.90015367829E+02  0.90024326409E+02  0.12700000000E+01 0.  1.
          4   -1    0    0  501    0  0.00000000000E+00 -0.00000000000E+00 -0.55598710752E+03  0.55598855800E+03  0.12700000000E+01 0.  1.
    8880022    1    1    2    0    0 -0.23715658994E+02  0.12385850377E+03 -0.38272175226E+03  0.43101154753E+03  0.15294330000E+03 0.  0.
    8880022    1    1    2    0    0  0.23715658994E+02 -0.12385850377E+03 -0.83249987431E+02  0.21500133688E+03  0.15294330000E+03 0.  0.
<mgrwt>
<rscale>  0 0.19822970E+03</rscale>
<asrwt>0</asrwt>
<pdfrwt beam="1">  1        4 0.85537277E-01 0.19822970E+03</pdfrwt>
<pdfrwt beam="2">  1       -4 0.13849319E-01 0.19822970E+03</pdfrwt>
<totfact> 0.94110685E+01</totfact>
</mgrwt>
</event>
<event>
 4    1  0.8478300E-009  0.1869362E+03  0.7818608E-02  0.1161254E+00
         -4   -1    0    0    0  501 -0.00000000000E+00  0.00000000000E+00  0.13557060764E+03  0.13557655607E+03  0.12700000000E+01 0. -1.
          4   -1    0    0  501    0  0.00000000000E+00 -0.00000000000E+00 -0.85362339110E+03  0.85362433584E+03  0.12700000000E+01 0. -1.
    8880022    1    1    2    0    0  0.10726118063E+03 -0.69666139740E+01  0.54207765003E+02  0.19463717369E+03  0.15294330000E+03 0.  0.
    8880022    1    1    2    0    0 -0.10726118063E+03  0.69666139740E+01 -0.77226054847E+03  0.79456371822E+03  0.15294330000E+03 0.  0.
<mgrwt>
<rscale>  0 0.18693621E+03</rscale>
<asrwt>0</asrwt>
<pdfrwt beam="1">  1        4 0.13132720E+00 0.18693621E+03</pdfrwt>
<pdfrwt beam="2">  1       -4 0.20857547E-01 0.18693621E+03</pdfrwt>
<totfact> 0.16375094E+01</totfact>
</mgrwt>
</event>
<event>
 4    1  0.8478300E-009  0.2575879E+03  0.7818608E-02  0.1108601E+00
         -4   -1    0    0    0  501 -0.00000000000E+00  0.00000000000E+00  0.58052359123E+03  0.58052498040E+03  0.12700000000E+01 0. -1.
          4   -1    0    0  501    0  0.00000000000E+00 -0.00000000000E+00 -0.20886838722E+03  0.20887224823E+03  0.12700000000E+01 0. -1.
    8880022    1    1    2    0    0 -0.16954708578E+03  0.11922114200E+03 -0.79764901323E+02  0.26965531238E+03  0.15294330000E+03 0.  0.
    8880022    1    1    2    0    0  0.16954708578E+03 -0.11922114200E+03  0.45142010533E+03  0.51974191625E+03  0.15294330000E+03 0.  0.
<mgrwt>
<rscale>  0 0.25758794E+03</rscale>
<asrwt>0</asrwt>
<pdfrwt beam="1">  1        4 0.32134002E-01 0.25758794E+03</pdfrwt>
<pdfrwt beam="2">  1       -4 0.89311725E-01 0.25758794E+03</pdfrwt>
<totfact> 0.18792889E+01</totfact>
</mgrwt>
</event>
<event>
 4    1  0.8478300E-009  0.2449652E+03  0.7818608E-02  0.1116529E+00
          4   -1    0    0  501    0  0.00000000000E+00  0.00000000000E+00  0.12482399595E+03  0.12483045648E+03  0.12700000000E+01 0. -1.
         -4   -1    0    0    0  501 -0.00000000000E+00 -0.00000000000E+00 -0.49320632131E+03  0.49320795642E+03  0.12700000000E+01 0. -1.
    8880022    1    1    2    0    0 -0.91389241857E+02 -0.16811988251E+03 -0.23335806423E+03  0.33832518024E+03  0.15294330000E+03 0.  0.
    8880022    1    1    2    0    0  0.91389241857E+02  0.16811988251E+03 -0.13502426112E+03  0.27971323267E+03  0.15294330000E+03 0.  0.
<mgrwt>
<rscale>  0 0.24496518E+03</rscale>
<asrwt>0</asrwt>
<pdfrwt beam="1">  1        4 0.19204315E-01 0.24496518E+03</pdfrwt>
<pdfrwt beam="2">  1       -4 0.75878517E-01 0.24496518E+03</pdfrwt>
<totfact> 0.70640674E+01</totfact>
</mgrwt>
</event>
<event>
 4    1  0.8478300E-009  0.1580849E+03  0.7818608E-02  0.1190876E+00
          4   -1    0    0  501    0  0.00000000000E+00  0.00000000000E+00  0.67197538805E+03  0.67197658817E+03  0.12700000000E+01 0.  1.
         -4   -1    0    0    0  501 -0.00000000000E+00 -0.00000000000E+00 -0.67839506355E+02  0.67851392930E+02  0.12700000000E+01 0.  1.
    8880022    1    1    2    0    0 -0.27720499460E+02 -0.28822575119E+02  0.55072371715E+03  0.57296372710E+03  0.15294330000E+03 0.  0.
    8880022    1    1    2    0    0  0.27720499460E+02  0.28822575119E+02  0.53412164550E+02  0.16686425400E+03  0.15294330000E+03 0.  0.
<mgrwt>
<rscale>  0 0.15808485E+03</rscale>
<asrwt>0</asrwt>
<pdfrwt beam="1">  1        4 0.10338184E+00 0.15808485E+03</pdfrwt>
<pdfrwt beam="2">  1       -4 0.10437854E-01 0.15808485E+03</pdfrwt>
<totfact> 0.95994021E+01</totfact>
</mgrwt>
</event>
<event>
 4    1  0.8478300E-009  0.3604417E+03  0.7818608E-02  0.1058409E+00
          4   -1    0    0  501    0  0.00000000000E+00  0.00000000000E+00  0.26890495628E+04  0.26890498627E+04  0.12700000000E+01 0.  1.
         -4   -1    0    0    0  501 -0.00000000000E+00 -0.00000000000E+00 -0.49952448646E+02  0.49968590392E+02  0.12700000000E+01 0.  1.
    8880022    1    1    2    0    0  0.24364078288E+03  0.21717680150E+03  0.15682038581E+04  0.16090934056E+04  0.15294330000E+03 0.  0.
    8880022    1    1    2    0    0 -0.24364078288E+03 -0.21717680150E+03  0.10708932560E+04  0.11299250475E+04  0.15294330000E+03 0.  0.
<mgrwt>
<rscale>  0 0.36044174E+03</rscale>
<asrwt>0</asrwt>
<pdfrwt beam="1">  1        4 0.41370120E+00 0.36044174E+03</pdfrwt>
<pdfrwt beam="2">  1       -4 0.76862569E-02 0.36044174E+03</pdfrwt>
<totfact> 0.14846215E+00</totfact>
</mgrwt>
</event>
<event>
 4    1  0.8478300E-009  0.2285296E+03  0.7818608E-02  0.1127679E+00
          4   -1    0    0  501    0  0.00000000000E+00  0.00000000000E+00  0.28056385803E+03  0.28056673240E+03  0.12700000000E+01 0.  1.
         -4   -1    0    0    0  501 -0.00000000000E+00 -0.00000000000E+00 -0.24156231411E+03  0.24156565256E+03  0.12700000000E+01 0.  1.
    8880022    1    1    2    0    0  0.16919957956E+03  0.14339724629E+02 -0.10554619900E+03  0.25172560172E+03  0.15294330000E+03 0.  0.
    8880022    1    1    2    0    0 -0.16919957956E+03 -0.14339724629E+02  0.14454774292E+03  0.27040678324E+03  0.15294330000E+03 0.  0.
<mgrwt>
<rscale>  0 0.22852960E+03</rscale>
<asrwt>0</asrwt>
<pdfrwt beam="1">  1        4 0.43164148E-01 0.22852960E+03</pdfrwt>
<pdfrwt beam="2">  1       -4 0.37163911E-01 0.22852960E+03</pdfrwt>
<totfact> 0.66353113E+01</totfact>
</mgrwt>
</event>
<event>
 4    1  0.8478300E-009  0.1551011E+03  0.7818608E-02  0.1194341E+00
          4   -1    0    0  501    0  0.00000000000E+00  0.00000000000E+00  0.88017546163E+03  0.88017637787E+03  0.12700000000E+01 0.  1.
         -4   -1    0    0    0  501 -0.00000000000E+00 -0.00000000000E+00 -0.35449522490E+02  0.35472264444E+02  0.12700000000E+01 0.  1.
    8880022    1    1    2    0    0  0.11403497635E+02  0.23122858635E+02  0.20314453151E+03  0.25558571957E+03  0.15294330000E+03 0.  0.
    8880022    1    1    2    0    0 -0.11403497635E+02 -0.23122858635E+02  0.64158140763E+03  0.66006292275E+03  0.15294330000E+03 0.  0.
<mgrwt>
<rscale>  0 0.15510113E+03</rscale>
<asrwt>0</asrwt>
<pdfrwt beam="1">  1        4 0.13541343E+00 0.15510113E+03</pdfrwt>
<pdfrwt beam="2">  1       -4 0.54555925E-02 0.15510113E+03</pdfrwt>
<totfact> 0.14641780E+02</totfact>
</mgrwt>
</event>
<event>
 4    1  0.8478300E-009  0.1657618E+03  0.7818608E-02  0.1182341E+00
         -4   -1    0    0    0  501 -0.00000000000E+00  0.00000000000E+00  0.54475405522E+02  0.54490207439E+02  0.12700000000E+01 0. -1.
          4   -1    0    0  501    0  0.00000000000E+00 -0.00000000000E+00 -0.50455820919E+03  0.50455980752E+03  0.12700000000E+01 0. -1.
    8880022    1    1    2    0    0 -0.28578206143E+02 -0.57171759888E+02 -0.23126327592E+03  0.28453414523E+03  0.15294330000E+03 0.  1.
    8880022    1    1    2    0    0  0.28578206143E+02  0.57171759888E+02 -0.21881952775E+03  0.27451586973E+03  0.15294330000E+03 0.  1.
<mgrwt>
<rscale>  0 0.16576181E+03</rscale>
<asrwt>0</asrwt>
<pdfrwt beam="1">  1        4 0.77625598E-01 0.16576181E+03</pdfrwt>
<pdfrwt beam="2">  1       -4 0.83820935E-02 0.16576181E+03</pdfrwt>
<totfact> 0.26799287E+02</totfact>
</mgrwt>
</event>
<event>
 4    1  0.8478300E-009  0.1715432E+03  0.7818608E-02  0.1176248E+00
          4   -1    0    0  501    0  0.00000000000E+00  0.00000000000E+00  0.13953633251E+03  0.13954211189E+03  0.12700000000E+01 0.  1.
         -4   -1    0    0    0  501 -0.00000000000E+00 -0.00000000000E+00 -0.21220774051E+03  0.21221154076E+03  0.12700000000E+01 0.  1.
    8880022    1    1    2    0    0  0.31813301222E+02  0.70875543976E+02 -0.50248077856E+02  0.17875108730E+03  0.15294330000E+03 0.  0.
    8880022    1    1    2    0    0 -0.31813301222E+02 -0.70875543976E+02 -0.22423330138E+02  0.17300256535E+03  0.15294330000E+03 0.  0.
<mgrwt>
<rscale>  0 0.17154324E+03</rscale>
<asrwt>0</asrwt>
<pdfrwt beam="1">  1        4 0.21467865E-01 0.17154324E+03</pdfrwt>
<pdfrwt beam="2">  1       -4 0.32648082E-01 0.17154324E+03</pdfrwt>
<totfact> 0.31112223E+02</totfact>
</mgrwt>
</event>
<event>
 4    1  0.8478300E-009  0.2771930E+03  0.7818608E-02  0.1097232E+00
         -4   -1    0    0    0  501 -0.00000000000E+00  0.00000000000E+00  0.21640959333E+03  0.21641331980E+03  0.12700000000E+01 0. -1.
          4   -1    0    0  501    0  0.00000000000E+00 -0.00000000000E+00 -0.53449380654E+03  0.53449531535E+03  0.12700000000E+01 0. -1.
    8880022    1    1    2    0    0 -0.15312100108E+02 -0.23067260634E+03 -0.37659194416E+03  0.46760823041E+03  0.15294330000E+03 0.  0.
    8880022    1    1    2    0    0  0.15312100108E+02  0.23067260634E+03  0.58507730951E+02  0.28330040474E+03  0.15294330000E+03 0.  0.
<mgrwt>
<rscale>  0 0.27719301E+03</rscale>
<asrwt>0</asrwt>
<pdfrwt beam="1">  1        4 0.82230219E-01 0.27719301E+03</pdfrwt>
<pdfrwt beam="2">  1       -4 0.33294186E-01 0.27719301E+03</pdfrwt>
<totfact> 0.21306915E+01</totfact>
</mgrwt>
</event>
<event>
 4    1  0.8478300E-009  0.3161527E+03  0.7818608E-02  0.1077434E+00
          4   -1    0    0  501    0  0.00000000000E+00  0.00000000000E+00  0.15664429916E+03  0.15664944736E+03  0.12700000000E+01 0.  1.
         -4   -1    0    0    0  501 -0.00000000000E+00 -0.00000000000E+00 -0.79969953245E+03  0.79970054089E+03  0.12700000000E+01 0.  1.
    8880022    1    1    2    0    0  0.12835630794E+03 -0.24512346707E+03 -0.53649999744E+03  0.62272365955E+03  0.15294330000E+03 0.  0.
    8880022    1    1    2    0    0 -0.12835630794E+03  0.24512346707E+03 -0.10655523585E+03  0.33362632869E+03  0.15294330000E+03 0.  0.
<mgrwt>
<rscale>  0 0.31615267E+03</rscale>
<asrwt>0</asrwt>
<pdfrwt beam="1">  1        4 0.24099597E-01 0.31615267E+03</pdfrwt>
<pdfrwt beam="2">  1       -4 0.12303117E+00 0.31615267E+03</pdfrwt>
<totfact> 0.15415581E+01</totfact>
</mgrwt>
</event>
<event>
 4    1  0.8478300E-009  0.2868254E+03  0.7818608E-02  0.1092018E+00
          4   -1    0    0  501    0  0.00000000000E+00  0.00000000000E+00  0.31118280443E+03  0.31118539599E+03  0.12700000000E+01 0.  1.
         -4   -1    0    0    0  501 -0.00000000000E+00 -0.00000000000E+00 -0.26741943233E+03  0.26742244799E+03  0.12700000000E+01 0.  1.
    8880022    1    1    2    0    0 -0.76404070329E+02 -0.23030317854E+03  0.52778663713E+02  0.29164083453E+03  0.15294330000E+03 0.  0.
    8880022    1    1    2    0    0  0.76404070329E+02  0.23030317854E+03 -0.90152916092E+01  0.28696700944E+03  0.15294330000E+03 0.  0.
<mgrwt>
<rscale>  0 0.28682536E+03</rscale>
<asrwt>0</asrwt>
<pdfrwt beam="1">  1        4 0.47874709E-01 0.28682536E+03</pdfrwt>
<pdfrwt beam="2">  1       -4 0.41141882E-01 0.28682536E+03</pdfrwt>
<totfact> 0.45039823E+01</totfact>
</mgrwt>
</event>
<event>
 4    1  0.8478300E-009  0.1586646E+03  0.7818608E-02  0.1190213E+00
         -4   -1    0    0    0  501 -0.00000000000E+00  0.00000000000E+00  0.13469638524E+04  0.13469644511E+04  0.12700000000E+01 0. -1.
          4   -1    0    0  501    0  0.00000000000E+00 -0.00000000000E+00 -0.18675437480E+02  0.18718570059E+02  0.12700000000E+01 0. -1.
    8880022    1    1    2    0    0  0.26052696434E+02  0.33227264584E+02  0.65016636232E+03  0.66924640141E+03  0.15294330000E+03 0.  0.
    8880022    1    1    2    0    0 -0.26052696434E+02 -0.33227264584E+02  0.67812205263E+03  0.69643661978E+03  0.15294330000E+03 0.  0.
<mgrwt>
<rscale>  0 0.15866457E+03</rscale>
<asrwt>0</asrwt>
<pdfrwt beam="1">  1        4 0.28765083E-02 0.15866457E+03</pdfrwt>
<pdfrwt beam="2">  1       -4 0.20722856E+00 0.15866457E+03</pdfrwt>
<totfact> 0.13047337E+02</totfact>
</mgrwt>
</event>
<event>
 4    1  0.8478300E-009  0.1829016E+03  0.7818608E-02  0.1165024E+00
          4   -1    0    0  501    0  0.00000000000E+00  0.00000000000E+00  0.36684988371E+03  0.36685208202E+03  0.12700000000E+01 0. -1.
         -4   -1    0    0    0  501 -0.00000000000E+00 -0.00000000000E+00 -0.91380272042E+02  0.91389096825E+02  0.12700000000E+01 0. -1.
    8880022    1    1    2    0    0 -0.74597548168E+02  0.67056175524E+02  0.14838153617E+03  0.23552082320E+03  0.15294330000E+03 0.  0.
    8880022    1    1    2    0    0  0.74597548168E+02 -0.67056175524E+02  0.12708807549E+03  0.22272035564E+03  0.15294330000E+03 0.  0.
<mgrwt>
<rscale>  0 0.18290155E+03</rscale>
<asrwt>0</asrwt>
<pdfrwt beam="1">  1        4 0.56439290E-01 0.18290155E+03</pdfrwt>
<pdfrwt beam="2">  1       -4 0.14059352E-01 0.18290155E+03</pdfrwt>
<totfact> 0.22348370E+02</totfact>
</mgrwt>
</event>
<event>
 4    1  0.8478300E-009  0.1622314E+03  0.7818608E-02  0.1186200E+00
          4   -1    0    0  501    0  0.00000000000E+00  0.00000000000E+00  0.81092646420E+02  0.81102590608E+02  0.12700000000E+01 0.  1.
         -4   -1    0    0    0  501 -0.00000000000E+00 -0.00000000000E+00 -0.32473958825E+03  0.32474207161E+03  0.12700000000E+01 0.  1.
    8880022    1    1    2    0    0 -0.42070909086E+02  0.34020768774E+02 -0.12705238938E+03  0.20606148782E+03  0.15294330000E+03 0.  0.
    8880022    1    1    2    0    0  0.42070909086E+02 -0.34020768774E+02 -0.11659455245E+03  0.19978317440E+03  0.15294330000E+03 0.  0.
<mgrwt>
<rscale>  0 0.16223140E+03</rscale>
<asrwt>0</asrwt>
<pdfrwt beam="1">  1        4 0.12476748E-01 0.16223140E+03</pdfrwt>
<pdfrwt beam="2">  1       -4 0.49960892E-01 0.16223140E+03</pdfrwt>
<totfact> 0.34683365E+02</totfact>
</mgrwt>
</event>
<event>
 4    1  0.8478300E-009  0.3659806E+03  0.7818608E-02  0.1056241E+00
         -4   -1    0    0    0  501 -0.00000000000E+00  0.00000000000E+00  0.22098856949E+03  0.22099221874E+03  0.12700000000E+01 0. -1.
          4   -1    0    0  501    0  0.00000000000E+00 -0.00000000000E+00 -0.61116546980E+03  0.61116678933E+03  0.12700000000E+01 0. -1.
    8880022    1    1    2    0    0  0.30560685934E+03 -0.13097558210E+03 -0.15718481800E+03  0.39830751387E+03  0.15294330000E+03 0.  0.
    8880022    1    1    2    0    0 -0.30560685934E+03  0.13097558210E+03 -0.23299208231E+03  0.43385149420E+03  0.15294330000E+03 0.  0.
<mgrwt>
<rscale>  0 0.36598061E+03</rscale>
<asrwt>0</asrwt>
<pdfrwt beam="1">  1        4 0.94025838E-01 0.36598061E+03</pdfrwt>
<pdfrwt beam="2">  1       -4 0.33998624E-01 0.36598061E+03</pdfrwt>
<totfact> 0.15372247E+01</totfact>
</mgrwt>
</event>
<event>
 4    1  0.8478300E-009  0.2737726E+03  0.7818608E-02  0.1099140E+00
          4   -1    0    0  501    0  0.00000000000E+00  0.00000000000E+00  0.21309234892E+04  0.21309238676E+04  0.12700000000E+01 0.  1.
         -4   -1    0    0    0  501 -0.00000000000E+00 -0.00000000000E+00 -0.62896634000E+02  0.62909454524E+02  0.12700000000E+01 0.  1.
    8880022    1    1    2    0    0  0.94778472029E+02 -0.20634153471E+03  0.17623180076E+04  0.17834562514E+04  0.15294330000E+03 0.  0.
    8880022    1    1    2    0    0 -0.94778472029E+02  0.20634153471E+03  0.30570884761E+03  0.41037707079E+03  0.15294330000E+03 0.  0.
<mgrwt>
<rscale>  0 0.27377261E+03</rscale>
<asrwt>0</asrwt>
<pdfrwt beam="1">  1        4 0.32783543E+00 0.27377261E+03</pdfrwt>
<pdfrwt beam="2">  1       -4 0.96774195E-02 0.27377261E+03</pdfrwt>
<totfact> 0.36160257E+00</totfact>
</mgrwt>
</event>
<event>
 4    1  0.8478300E-009  0.2049060E+03  0.7818608E-02  0.1145665E+00
         -4   -1    0    0    0  501 -0.00000000000E+00  0.00000000000E+00  0.44097690523E+02  0.44115974538E+02  0.12700000000E+01 0. -1.
          4   -1    0    0  501    0  0.00000000000E+00 -0.00000000000E+00 -0.10508884770E+04  0.10508892444E+04  0.12700000000E+01 0. -1.
    8880022    1    1    2    0    0  0.14623984027E+02 -0.13557633775E+03 -0.33536825499E+03  0.39301186208E+03  0.15294330000E+03 0.  0.
    8880022    1    1    2    0    0 -0.14623984027E+02  0.13557633775E+03 -0.67142253150E+03  0.70199335687E+03  0.15294330000E+03 0.  0.
<mgrwt>
<rscale>  0 0.20490597E+03</rscale>
<asrwt>0</asrwt>
<pdfrwt beam="1">  1        4 0.16167660E+00 0.20490597E+03</pdfrwt>
<pdfrwt beam="2">  1       -4 0.67857264E-02 0.20490597E+03</pdfrwt>
<totfact> 0.67548434E+01</totfact>
</mgrwt>
</event>
<event>
 4    1  0.8478300E-009  0.2023736E+03  0.7818608E-02  0.1147752E+00
          4   -1    0    0  501    0  0.00000000000E+00  0.00000000000E+00  0.53969365308E+03  0.53969514736E+03  0.12700000000E+01 0.  1.
         -4   -1    0    0    0  501 -0.00000000000E+00 -0.00000000000E+00 -0.78401133249E+02  0.78411418778E+02  0.12700000000E+01 0.  1.
    8880022    1    1    2    0    0  0.98645565385E+02  0.88501167338E+02  0.17521723850E+03  0.26768664119E+03  0.15294330000E+03 0.  0.
    8880022    1    1    2    0    0 -0.98645565385E+02 -0.88501167338E+02  0.28607528134E+03  0.35041992494E+03  0.15294330000E+03 0.  0.
<mgrwt>
<rscale>  0 0.20237356E+03</rscale>
<asrwt>0</asrwt>
<pdfrwt beam="1">  1        4 0.83030699E-01 0.20237356E+03</pdfrwt>
<pdfrwt beam="2">  1       -4 0.12062619E-01 0.20237356E+03</pdfrwt>
<totfact> 0.12823919E+02</totfact>
</mgrwt>
</event>
<event>
 4    1  0.8478300E-009  0.2082127E+03  0.7818608E-02  0.1142989E+00
         -4   -1    0    0    0  501 -0.00000000000E+00  0.00000000000E+00  0.26305460651E+03  0.26305767221E+03  0.12700000000E+01 0.  1.
          4   -1    0    0  501    0  0.00000000000E+00 -0.00000000000E+00 -0.17695459704E+03  0.17695915436E+03  0.12700000000E+01 0.  1.
    8880022    1    1    2    0    0  0.12119890101E+03 -0.72606368447E+02  0.10071459172E+03  0.23129189425E+03  0.15294330000E+03 0.  0.
    8880022    1    1    2    0    0 -0.12119890101E+03  0.72606368447E+02 -0.14614582241E+02  0.20872493232E+03  0.15294330000E+03 0.  0.
<mgrwt>
<rscale>  0 0.20821266E+03</rscale>
<asrwt>0</asrwt>
<pdfrwt beam="1">  1        4 0.27224371E-01 0.20821266E+03</pdfrwt>
<pdfrwt beam="2">  1       -4 0.40470526E-01 0.20821266E+03</pdfrwt>
<totfact> 0.13568922E+02</totfact>
</mgrwt>
</event>
<event>
 4    1  0.8478300E-009  0.1660489E+03  0.7818608E-02  0.1182032E+00
         -4   -1    0    0    0  501 -0.00000000000E+00  0.00000000000E+00  0.35151038679E+03  0.35151268102E+03  0.12700000000E+01 0. -1.
          4   -1    0    0  501    0  0.00000000000E+00 -0.00000000000E+00 -0.96706094502E+02  0.96714433328E+02  0.12700000000E+01 0. -1.
    8880022    1    1    2    0    0 -0.30159306550E+02 -0.57192532571E+02  0.22481986073E+03  0.27949274113E+03  0.15294330000E+03 0.  0.
    8880022    1    1    2    0    0  0.30159306550E+02  0.57192532571E+02  0.29984431554E+02  0.16873437321E+03  0.15294330000E+03 0.  0.
<mgrwt>
<rscale>  0 0.16604886E+03</rscale>
<asrwt>0</asrwt>
<pdfrwt beam="1">  1        4 0.14878679E-01 0.16604886E+03</pdfrwt>
<pdfrwt beam="2">  1       -4 0.54079339E-01 0.16604886E+03</pdfrwt>
<totfact> 0.21784690E+02</totfact>
</mgrwt>
</event>
<event>
 4    1  0.8478300E-009  0.1823106E+03  0.7818608E-02  0.1165585E+00
         -4   -1    0    0    0  501 -0.00000000000E+00  0.00000000000E+00  0.31773905334E+03  0.31774159142E+03  0.12700000000E+01 0. -1.
          4   -1    0    0  501    0  0.00000000000E+00 -0.00000000000E+00 -0.12119538484E+03  0.12120203879E+03  0.12700000000E+01 0. -1.
    8880022    1    1    2    0    0  0.98217554618E+02 -0.14099960192E+02  0.17948629013E+03  0.25583681961E+03  0.15294330000E+03 0.  0.
    8880022    1    1    2    0    0 -0.98217554618E+02  0.14099960192E+02  0.17057378371E+02  0.18310681059E+03  0.15294330000E+03 0.  0.
<mgrwt>
<rscale>  0 0.18231059E+03</rscale>
<asrwt>0</asrwt>
<pdfrwt beam="1">  1        4 0.18646151E-01 0.18231059E+03</pdfrwt>
<pdfrwt beam="2">  1       -4 0.48883639E-01 0.18231059E+03</pdfrwt>
<totfact> 0.18235931E+02</totfact>
</mgrwt>
</event>
<event>
 4    1  0.8478300E-009  0.2065089E+03  0.7818608E-02  0.1144361E+00
         -4   -1    0    0    0  501 -0.00000000000E+00  0.00000000000E+00  0.50748766527E+03  0.50748925437E+03  0.12700000000E+01 0. -1.
          4   -1    0    0  501    0  0.00000000000E+00 -0.00000000000E+00 -0.15540816945E+03  0.15541335860E+03  0.12700000000E+01 0. -1.
    8880022    1    1    2    0    0 -0.16736231640E+02  0.13774681380E+03  0.40066692706E+03  0.45075483982E+03  0.15294330000E+03 0.  0.
    8880022    1    1    2    0    0  0.16736231640E+02 -0.13774681380E+03 -0.48587431242E+02  0.21214777315E+03  0.15294330000E+03 0.  0.
<mgrwt>
<rscale>  0 0.20650893E+03</rscale>
<asrwt>0</asrwt>
<pdfrwt beam="1">  1        4 0.23909470E-01 0.20650893E+03</pdfrwt>
<pdfrwt beam="2">  1       -4 0.78075547E-01 0.20650893E+03</pdfrwt>
<totfact> 0.43509189E+01</totfact>
</mgrwt>
</event>
<event>
 4    1  0.8478300E-009  0.1820328E+03  0.7818608E-02  0.1165850E+00
         -4   -1    0    0    0  501 -0.00000000000E+00  0.00000000000E+00  0.20415756563E+03  0.20416151573E+03  0.12700000000E+01 0.  1.
          4   -1    0    0  501    0  0.00000000000E+00 -0.00000000000E+00 -0.26356125604E+03  0.26356431585E+03  0.12700000000E+01 0.  1.
    8880022    1    1    2    0    0 -0.50242743576E+01  0.98585161890E+02 -0.17465934022E+03  0.25227329549E+03  0.15294330000E+03 0.  0.
    8880022    1    1    2    0    0  0.50242743576E+01 -0.98585161890E+02  0.11525564980E+03  0.21545253608E+03  0.15294330000E+03 0.  0.
<mgrwt>
<rscale>  0 0.18203277E+03</rscale>
<asrwt>0</asrwt>
<pdfrwt beam="1">  1        4 0.40548425E-01 0.18203277E+03</pdfrwt>
<pdfrwt beam="2">  1       -4 0.31409395E-01 0.18203277E+03</pdfrwt>
<totfact> 0.10113106E+02</totfact>
</mgrwt>
</event>
<event>
 4    1  0.8478300E-009  0.1995382E+03  0.7818608E-02  0.1150129E+00
         -4   -1    0    0    0  501 -0.00000000000E+00  0.00000000000E+00  0.33081098680E+02  0.33105467674E+02  0.12700000000E+01 0.  1.
          4   -1    0    0  501    0  0.00000000000E+00 -0.00000000000E+00 -0.13420449204E+04  0.13420455213E+04  0.12700000000E+01 0.  1.
    8880022    1    1    2    0    0  0.11898282614E+03  0.47612313370E+02 -0.43325039918E+03  0.47699204051E+03  0.15294330000E+03 0.  0.
    8880022    1    1    2    0    0 -0.11898282614E+03 -0.47612313370E+02 -0.87571342253E+03  0.89815894847E+03  0.15294330000E+03 0.  0.
<mgrwt>
<rscale>  0 0.19953821E+03</rscale>
<asrwt>0</asrwt>
<pdfrwt beam="1">  1        4 0.20647033E+00 0.19953821E+03</pdfrwt>
<pdfrwt beam="2">  1       -4 0.50913216E-02 0.19953821E+03</pdfrwt>
<totfact> 0.54543249E+01</totfact>
</mgrwt>
</event>
<event>
 4    1  0.8478300E-009  0.4860948E+03  0.7818608E-02  0.1017473E+00
         -4   -1    0    0    0  501 -0.00000000000E+00  0.00000000000E+00  0.15342505536E+04  0.15342510792E+04  0.12700000000E+01 0. -1.
          4   -1    0    0  501    0  0.00000000000E+00 -0.00000000000E+00 -0.15410002494E+03  0.15410525814E+03  0.12700000000E+01 0. -1.
    8880022    1    1    2    0    0  0.27262206461E+03  0.37225488468E+03  0.66918634093E+03  0.82710247321E+03  0.15294330000E+03 0.  0.
    8880022    1    1    2    0    0 -0.27262206461E+03 -0.37225488468E+03  0.71096418769E+03  0.86125386413E+03  0.15294330000E+03 0.  0.
<mgrwt>
<rscale>  0 0.48609479E+03</rscale>
<asrwt>0</asrwt>
<pdfrwt beam="1">  1        4 0.23708140E-01 0.48609479E+03</pdfrwt>
<pdfrwt beam="2">  1       -4 0.23603898E+00 0.48609479E+03</pdfrwt>
<totfact> 0.26129206E+00</totfact>
</mgrwt>
</event>
<event>
 4    1  0.8478300E-009  0.1685208E+03  0.7818608E-02  0.1179399E+00
          4   -1    0    0  501    0  0.00000000000E+00  0.00000000000E+00  0.27341703703E+03  0.27341998654E+03  0.12700000000E+01 0.  1.
         -4   -1    0    0    0  501 -0.00000000000E+00 -0.00000000000E+00 -0.10481644265E+03  0.10482413629E+03  0.12700000000E+01 0.  1.
    8880022    1    1    2    0    0  0.52048143368E+02 -0.47943762876E+02  0.66240681216E+02  0.18107206988E+03  0.15294330000E+03 0.  0.
    8880022    1    1    2    0    0 -0.52048143368E+02  0.47943762876E+02  0.10235991317E+03  0.19717205295E+03  0.15294330000E+03 0.  0.
<mgrwt>
<rscale>  0 0.16852082E+03</rscale>
<asrwt>0</asrwt>
<pdfrwt beam="1">  1        4 0.42064978E-01 0.16852082E+03</pdfrwt>
<pdfrwt beam="2">  1       -4 0.16126425E-01 0.16852082E+03</pdfrwt>
<totfact> 0.31570061E+02</totfact>
</mgrwt>
</event>
<event>
 4    1  0.8478300E-009  0.1822409E+03  0.7818608E-02  0.1165652E+00
          4   -1    0    0  501    0  0.00000000000E+00  0.00000000000E+00  0.89635552278E+02  0.89644548815E+02  0.12700000000E+01 0.  1.
         -4   -1    0    0    0  501 -0.00000000000E+00 -0.00000000000E+00 -0.45573251293E+03  0.45573428250E+03  0.12700000000E+01 0.  1.
    8880022    1    1    2    0    0  0.70403284141E+02  0.69738488970E+02 -0.65115919836E+02  0.19352471494E+03  0.15294330000E+03 0.  0.
    8880022    1    1    2    0    0 -0.70403284141E+02 -0.69738488970E+02 -0.30098104082E+03  0.35185411637E+03  0.15294330000E+03 0.  0.
<mgrwt>
<rscale>  0 0.18224086E+03</rscale>
<asrwt>0</asrwt>
<pdfrwt beam="1">  1        4 0.13790913E-01 0.18224086E+03</pdfrwt>
<pdfrwt beam="2">  1       -4 0.70113521E-01 0.18224086E+03</pdfrwt>
<totfact> 0.14549517E+02</totfact>
</mgrwt>
</event>
<event>
 4    1  0.8478300E-009  0.1569152E+03  0.7818608E-02  0.1192224E+00
         -4   -1    0    0    0  501 -0.00000000000E+00  0.00000000000E+00  0.88057900280E+02  0.88067057983E+02  0.12700000000E+01 0.  1.
          4   -1    0    0  501    0  0.00000000000E+00 -0.00000000000E+00 -0.37605549310E+03  0.37605763759E+03  0.12700000000E+01 0.  1.
    8880022    1    1    2    0    0  0.29832467796E+02  0.18459749992E+02 -0.26153081378E+03  0.30499304595E+03  0.15294330000E+03 0.  0.
    8880022    1    1    2    0    0 -0.29832467796E+02 -0.18459749992E+02 -0.26466779037E+02  0.15913164962E+03  0.15294330000E+03 0.  0.
<mgrwt>
<rscale>  0 0.15691524E+03</rscale>
<asrwt>0</asrwt>
<pdfrwt beam="1">  1        4 0.57855560E-01 0.15691524E+03</pdfrwt>
<pdfrwt beam="2">  1       -4 0.13548239E-01 0.15691524E+03</pdfrwt>
<totfact> 0.22080101E+02</totfact>
</mgrwt>
</event>
<event>
 4    1  0.8478300E-009  0.2376110E+03  0.7818608E-02  0.1121395E+00
         -4   -1    0    0    0  501 -0.00000000000E+00  0.00000000000E+00  0.96246291884E+02  0.96254670544E+02  0.12700000000E+01 0. -1.
          4   -1    0    0  501    0  0.00000000000E+00 -0.00000000000E+00 -0.85864519209E+03  0.85864613130E+03  0.12700000000E+01 0. -1.
    8880022    1    1    2    0    0  0.13515038707E+03  0.12166219438E+03 -0.64995639855E+03  0.69202766541E+03  0.15294330000E+03 0.  0.
    8880022    1    1    2    0    0 -0.13515038707E+03 -0.12166219438E+03 -0.11244250166E+03  0.26287313643E+03  0.15294330000E+03 0.  0.
<mgrwt>
<rscale>  0 0.23761096E+03</rscale>
<asrwt>0</asrwt>
<pdfrwt beam="1">  1        4 0.13209997E+00 0.23761096E+03</pdfrwt>
<pdfrwt beam="2">  1       -4 0.14807839E-01 0.23761096E+03</pdfrwt>
<totfact> 0.30507416E+01</totfact>
</mgrwt>
</event>
<event>
 4    1  0.8478300E-009  0.2116374E+03  0.7818608E-02  0.1140276E+00
          4   -1    0    0  501    0  0.00000000000E+00  0.00000000000E+00  0.34992773539E+03  0.34993004000E+03  0.12700000000E+01 0.  1.
         -4   -1    0    0    0  501 -0.00000000000E+00 -0.00000000000E+00 -0.12822872288E+03  0.12823501188E+03  0.12700000000E+01 0.  1.
    8880022    1    1    2    0    0  0.11950799922E+03  0.84359689559E+02  0.12109898001E+03  0.24383464699E+03  0.15294330000E+03 0.  0.
    8880022    1    1    2    0    0 -0.11950799922E+03 -0.84359689559E+02  0.10060003250E+03  0.23433040489E+03  0.15294330000E+03 0.  0.
<mgrwt>
<rscale>  0 0.21163736E+03</rscale>
<asrwt>0</asrwt>
<pdfrwt beam="1">  1        4 0.53835697E-01 0.21163736E+03</pdfrwt>
<pdfrwt beam="2">  1       -4 0.19728157E-01 0.21163736E+03</pdfrwt>
<totfact> 0.13796026E+02</totfact>
</mgrwt>
</event>
<event>
 4    1  0.8478300E-009  0.1796968E+03  0.7818608E-02  0.1168097E+00
         -4   -1    0    0    0  501 -0.00000000000E+00  0.00000000000E+00  0.21401900644E+02  0.21439548763E+02  0.12700000000E+01 0.  1.
          4   -1    0    0  501    0  0.00000000000E+00 -0.00000000000E+00 -0.19372988859E+04  0.19372993022E+04  0.12700000000E+01 0.  1.
    8880022    1    1    2    0    0 -0.94168864764E+02  0.56136297080E+01 -0.14192816345E+04  0.14306122112E+04  0.15294330000E+03 0.  1.
    8880022    1    1    2    0    0  0.94168864764E+02 -0.56136297080E+01 -0.49661535077E+03  0.52812663970E+03  0.15294330000E+03 0.  1.
<mgrwt>
<rscale>  0 0.17969680E+03</rscale>
<asrwt>0</asrwt>
<pdfrwt beam="1">  1        4 0.29804877E+00 0.17969680E+03</pdfrwt>
<pdfrwt beam="2">  1       -4 0.32955296E-02 0.17969680E+03</pdfrwt>
<totfact> 0.31221887E+01</totfact>
</mgrwt>
</event>
<event>
 4    1  0.8478300E-009  0.2143448E+03  0.7818608E-02  0.1138171E+00
          4   -1    0    0  501    0  0.00000000000E+00  0.00000000000E+00  0.19428998299E+03  0.19429413370E+03  0.12700000000E+01 0. -1.
         -4   -1    0    0    0  501 -0.00000000000E+00 -0.00000000000E+00 -0.26094226927E+03  0.26094535979E+03  0.12700000000E+01 0. -1.
    8880022    1    1    2    0    0  0.13416702395E+03 -0.67463020699E+02  0.36391920214E+02  0.21741222217E+03  0.15294330000E+03 0.  0.
    8880022    1    1    2    0    0 -0.13416702395E+03  0.67463020699E+02 -0.10304420649E+03  0.23782727132E+03  0.15294330000E+03 0.  0.
<mgrwt>
<rscale>  0 0.21434482E+03</rscale>
<asrwt>0</asrwt>
<pdfrwt beam="1">  1        4 0.29891323E-01 0.21434482E+03</pdfrwt>
<pdfrwt beam="2">  1       -4 0.40145522E-01 0.21434482E+03</pdfrwt>
<totfact> 0.11596707E+02</totfact>
</mgrwt>
</event>
<event>
 4    1  0.8478300E-009  0.1614733E+03  0.7818608E-02  0.1187043E+00
         -4   -1    0    0    0  501 -0.00000000000E+00  0.00000000000E+00  0.44583328480E+03  0.44583509366E+03  0.12700000000E+01 0.  1.
          4   -1    0    0  501    0  0.00000000000E+00 -0.00000000000E+00 -0.11380323009E+03  0.11381031622E+03  0.12700000000E+01 0.  1.
    8880022    1    1    2    0    0  0.41356179912E+02  0.31171239730E+02 -0.29085846797E+02  0.16407199426E+03  0.15294330000E+03 0.  0.
    8880022    1    1    2    0    0 -0.41356179912E+02 -0.31171239730E+02  0.36111590151E+03  0.39557341561E+03  0.15294330000E+03 0.  0.
<mgrwt>
<rscale>  0 0.16147332E+03</rscale>
<asrwt>0</asrwt>
<pdfrwt beam="1">  1        4 0.17508873E-01 0.16147332E+03</pdfrwt>
<pdfrwt beam="2">  1       -4 0.68590421E-01 0.16147332E+03</pdfrwt>
<totfact> 0.98458898E+01</totfact>
</mgrwt>
</event>
<event>
 4    1  0.8478300E-009  0.2927680E+03  0.7818608E-02  0.1088913E+00
         -4   -1    0    0    0  501 -0.00000000000E+00  0.00000000000E+00  0.34496489390E+03  0.34496723167E+03  0.12700000000E+01 0. -1.
          4   -1    0    0  501    0  0.00000000000E+00 -0.00000000000E+00 -0.28045580411E+03  0.28045867960E+03  0.12700000000E+01 0. -1.
    8880022    1    1    2    0    0  0.21589130911E+03 -0.12534908099E+03  0.13786991027E+03  0.32360657383E+03  0.15294330000E+03 0.  0.
    8880022    1    1    2    0    0 -0.21589130911E+03  0.12534908099E+03 -0.73360820478E+02  0.30181933744E+03  0.15294330000E+03 0.  0.
<mgrwt>
<rscale>  0 0.29276800E+03</rscale>
<asrwt>0</asrwt>
<pdfrwt beam="1">  1        4 0.43147448E-01 0.29276800E+03</pdfrwt>
<pdfrwt beam="2">  1       -4 0.53071923E-01 0.29276800E+03</pdfrwt>
<totfact> 0.33124664E+01</totfact>
</mgrwt>
</event>
<event>
 4    1  0.8478300E-009  0.2036349E+03  0.7818608E-02  0.1146708E+00
         -4   -1    0    0    0  501 -0.00000000000E+00  0.00000000000E+00  0.46640679392E+03  0.46640852299E+03  0.12700000000E+01 0. -1.
          4   -1    0    0  501    0  0.00000000000E+00 -0.00000000000E+00 -0.96480420228E+02  0.96488778557E+02  0.12700000000E+01 0. -1.
    8880022    1    1    2    0    0  0.10585356195E+03  0.82888767933E+02  0.10608354110E+03  0.22961031147E+03  0.15294330000E+03 0.  0.
    8880022    1    1    2    0    0 -0.10585356195E+03 -0.82888767933E+02  0.26384283259E+03  0.33328699007E+03  0.15294330000E+03 0.  0.
<mgrwt>
<rscale>  0 0.20363491E+03</rscale>
<asrwt>0</asrwt>
<pdfrwt beam="1">  1        4 0.14843917E-01 0.20363491E+03</pdfrwt>
<pdfrwt beam="2">  1       -4 0.71755669E-01 0.20363491E+03</pdfrwt>
<totfact> 0.12356261E+02</totfact>
</mgrwt>
</event>
<event>
 4    1  0.8478300E-009  0.1625889E+03  0.7818608E-02  0.1185805E+00
         -4   -1    0    0    0  501 -0.00000000000E+00  0.00000000000E+00  0.54146792263E+03  0.54146941201E+03  0.12700000000E+01 0.  1.
          4   -1    0    0  501    0  0.00000000000E+00 -0.00000000000E+00 -0.52430059622E+02  0.52445438810E+02  0.12700000000E+01 0.  1.
    8880022    1    1    2    0    0  0.55161096067E+02  0.86814186167E+00  0.32252030583E+03  0.36118485693E+03  0.15294330000E+03 0.  1.
    8880022    1    1    2    0    0 -0.55161096067E+02 -0.86814186167E+00  0.16651755718E+03  0.23272999388E+03  0.15294330000E+03 0.  1.
<mgrwt>
<rscale>  0 0.16258891E+03</rscale>
<asrwt>0</asrwt>
<pdfrwt beam="1">  1        4 0.80674608E-02 0.16258891E+03</pdfrwt>
<pdfrwt beam="2">  1       -4 0.83304053E-01 0.16258891E+03</pdfrwt>
<totfact> 0.24339066E+02</totfact>
</mgrwt>
</event>
<event>
 4    1  0.8478300E-009  0.1911188E+03  0.7818608E-02  0.1157456E+00
          4   -1    0    0  501    0  0.00000000000E+00  0.00000000000E+00  0.24605075440E+03  0.24605403195E+03  0.12700000000E+01 0. -1.
         -4   -1    0    0    0  501 -0.00000000000E+00 -0.00000000000E+00 -0.15079647371E+03  0.15080182155E+03  0.12700000000E+01 0. -1.
    8880022    1    1    2    0    0  0.49600012199E+02 -0.10331783616E+03  0.22842098466E+02  0.19247896237E+03  0.15294330000E+03 0. -1.
    8880022    1    1    2    0    0 -0.49600012199E+02  0.10331783616E+03  0.72412182222E+02  0.20437689113E+03  0.15294330000E+03 0. -1.
<mgrwt>
<rscale>  0 0.19111878E+03</rscale>
<asrwt>0</asrwt>
<pdfrwt beam="1">  1        4 0.37854626E-01 0.19111878E+03</pdfrwt>
<pdfrwt beam="2">  1       -4 0.23200121E-01 0.19111878E+03</pdfrwt>
<totfact> 0.20602127E+02</totfact>
</mgrwt>
</event>
<event>
 4    1  0.8478300E-009  0.2538507E+03  0.7818608E-02  0.1110895E+00
          4   -1    0    0  501    0  0.00000000000E+00  0.00000000000E+00  0.81461236160E+03  0.81461335158E+03  0.12700000000E+01 0. -1.
         -4   -1    0    0    0  501 -0.00000000000E+00 -0.00000000000E+00 -0.86548066740E+02  0.86557384182E+02  0.12700000000E+01 0. -1.
    8880022    1    1    2    0    0  0.17890145435E+03  0.95093570243E+02  0.49621253741E+03  0.55737514546E+03  0.15294330000E+03 0.  0.
    8880022    1    1    2    0    0 -0.17890145435E+03 -0.95093570243E+02  0.23185175745E+03  0.34379559031E+03  0.15294330000E+03 0.  0.
<mgrwt>
<rscale>  0 0.25385069E+03</rscale>
<asrwt>0</asrwt>
<pdfrwt beam="1">  1        4 0.12532577E+00 0.25385069E+03</pdfrwt>
<pdfrwt beam="2">  1       -4 0.13315880E-01 0.25385069E+03</pdfrwt>
<totfact> 0.42161370E+01</totfact>
</mgrwt>
</event>
<event>
 4    1  0.8478300E-009  0.1656898E+03  0.7818608E-02  0.1182419E+00
          4   -1    0    0  501    0  0.00000000000E+00  0.00000000000E+00  0.73948100643E+03  0.73948209699E+03  0.12700000000E+01 0. -1.
         -4   -1    0    0    0  501 -0.00000000000E+00 -0.00000000000E+00 -0.40663093981E+02  0.40682921627E+02  0.12700000000E+01 0. -1.
    8880022    1    1    2    0    0 -0.63223013199E+02  0.80187304676E+01  0.23417805666E+03  0.28686663220E+03  0.15294330000E+03 0. -1.
    8880022    1    1    2    0    0  0.63223013199E+02 -0.80187304676E+01  0.46463985579E+03  0.49329838641E+03  0.15294330000E+03 0. -1.
<mgrwt>
<rscale>  0 0.16568978E+03</rscale>
<asrwt>0</asrwt>
<pdfrwt beam="1">  1        4 0.11376791E+00 0.16568978E+03</pdfrwt>
<pdfrwt beam="2">  1       -4 0.62574701E-02 0.16568978E+03</pdfrwt>
<totfact> 0.18074090E+02</totfact>
</mgrwt>
</event>
<event>
 4    1  0.8478300E-009  0.1921531E+03  0.7818608E-02  0.1156534E+00
          4   -1    0    0  501    0  0.00000000000E+00  0.00000000000E+00  0.37658785813E+02  0.37680194386E+02  0.12700000000E+01 0. -1.
         -4   -1    0    0    0  501 -0.00000000000E+00 -0.00000000000E+00 -0.12331477459E+04  0.12331483999E+04  0.12700000000E+01 0. -1.
    8880022    1    1    2    0    0  0.11025563938E+03 -0.37079006244E+02 -0.88554952649E+03  0.90615714730E+03  0.15294330000E+03 0.  0.
    8880022    1    1    2    0    0 -0.11025563938E+03  0.37079006244E+02 -0.30993943361E+03  0.36467144697E+03  0.15294330000E+03 0.  0.
<mgrwt>
<rscale>  0 0.19215309E+03</rscale>
<asrwt>0</asrwt>
<pdfrwt beam="1">  1        4 0.57953574E-02 0.19215309E+03</pdfrwt>
<pdfrwt beam="2">  1       -4 0.18971670E+00 0.19215309E+03</pdfrwt>
<totfact> 0.56167121E+01</totfact>
</mgrwt>
</event>
<event>
 4    1  0.8478300E-009  0.1588737E+03  0.7818608E-02  0.1189974E+00
          4   -1    0    0  501    0  0.00000000000E+00  0.00000000000E+00  0.51719676801E+03  0.51719832728E+03  0.12700000000E+01 0. -1.
         -4   -1    0    0    0  501 -0.00000000000E+00 -0.00000000000E+00 -0.54986622087E+02  0.55001286426E+02  0.12700000000E+01 0. -1.
    8880022    1    1    2    0    0 -0.10011028716E+02  0.41820853612E+02  0.32710766721E+03  0.36364857136E+03  0.15294330000E+03 0.  1.
    8880022    1    1    2    0    0  0.10011028716E+02 -0.41820853612E+02  0.13510247872E+03  0.20855104235E+03  0.15294330000E+03 0.  1.
<mgrwt>
<rscale>  0 0.15887372E+03</rscale>
<asrwt>0</asrwt>
<pdfrwt beam="1">  1        4 0.79569981E-01 0.15887372E+03</pdfrwt>
<pdfrwt beam="2">  1       -4 0.84607284E-02 0.15887372E+03</pdfrwt>
<totfact> 0.24805539E+02</totfact>
</mgrwt>
</event>
<event>
 4    1  0.8478300E-009  0.1815162E+03  0.7818608E-02  0.1166344E+00
          4   -1    0    0  501    0  0.00000000000E+00  0.00000000000E+00  0.22462794371E+03  0.22463153384E+03  0.12700000000E+01 0. -1.
         -4   -1    0    0    0  501 -0.00000000000E+00 -0.00000000000E+00 -0.16207933563E+03  0.16208431120E+03  0.12700000000E+01 0. -1.
    8880022    1    1    2    0    0 -0.91339730262E+02  0.34835642944E+02  0.90890240450E+02  0.20300038711E+03  0.15294330000E+03 0.  0.
    8880022    1    1    2    0    0  0.91339730262E+02 -0.34835642944E+02 -0.28341632365E+02  0.18371545793E+03  0.15294330000E+03 0.  0.
<mgrwt>
<rscale>  0 0.18151617E+03</rscale>
<asrwt>0</asrwt>
<pdfrwt beam="1">  1        4 0.34558804E-01 0.18151617E+03</pdfrwt>
<pdfrwt beam="2">  1       -4 0.24935942E-01 0.18151617E+03</pdfrwt>
<totfact> 0.21362106E+02</totfact>
</mgrwt>
</event>
<event>
 4    1  0.8478300E-009  0.6237309E+03  0.7818608E-02  0.9857359E-01
         -4   -1    0    0    0  501 -0.00000000000E+00  0.00000000000E+00  0.95095828798E+03  0.95095913602E+03  0.12700000000E+01 0.  1.
          4   -1    0    0  501    0  0.00000000000E+00 -0.00000000000E+00 -0.42522774778E+03  0.42522964429E+03  0.12700000000E+01 0.  1.
    8880022    1    1    2    0    0  0.39046707584E+03 -0.46171861060E+03  0.39686504555E+03  0.73928487749E+03  0.15294330000E+03 0.  0.
    8880022    1    1    2    0    0 -0.39046707584E+03  0.46171861060E+03  0.12886549465E+03  0.63690390281E+03  0.15294330000E+03 0.  0.
<mgrwt>
<rscale>  0 0.62373092E+03</rscale>
<asrwt>0</asrwt>
<pdfrwt beam="1">  1        4 0.65419865E-01 0.62373092E+03</pdfrwt>
<pdfrwt beam="2">  1       -4 0.14630148E+00 0.62373092E+03</pdfrwt>
<totfact> 0.13574240E+00</totfact>
</mgrwt>
</event>
<event>
 4    1  0.8478300E-009  0.1577176E+03  0.7818608E-02  0.1191298E+00
          4   -1    0    0  501    0  0.00000000000E+00  0.00000000000E+00  0.45637257470E+03  0.45637434179E+03  0.12700000000E+01 0. -1.
         -4   -1    0    0    0  501 -0.00000000000E+00 -0.00000000000E+00 -0.68669367471E+02  0.68681110422E+02  0.12700000000E+01 0. -1.
    8880022    1    1    2    0    0  0.38324349465E+02 -0.37997113016E+01  0.74596198509E+02  0.17446902136E+03  0.15294330000E+03 0. -1.
    8880022    1    1    2    0    0 -0.38324349465E+02  0.37997113016E+01  0.31310700872E+03  0.35058643085E+03  0.15294330000E+03 0. -1.
<mgrwt>
<rscale>  0 0.15771762E+03</rscale>
<asrwt>0</asrwt>
<pdfrwt beam="1">  1        4 0.70212207E-01 0.15771762E+03</pdfrwt>
<pdfrwt beam="2">  1       -4 0.10565557E-01 0.15771762E+03</pdfrwt>
<totfact> 0.22421546E+02</totfact>
</mgrwt>
</event>
<event>
 4    1  0.8478300E-009  0.1832903E+03  0.7818608E-02  0.1164656E+00
         -4   -1    0    0    0  501 -0.00000000000E+00  0.00000000000E+00  0.86866409134E+03  0.86866501972E+03  0.12700000000E+01 0.  1.
          4   -1    0    0  501    0  0.00000000000E+00 -0.00000000000E+00 -0.43698551532E+02  0.43717002482E+02  0.12700000000E+01 0.  1.
    8880022    1    1    2    0    0 -0.13812528882E+02 -0.10006446162E+03  0.56730020569E+03  0.59617519139E+03  0.15294330000E+03 0.  0.
    8880022    1    1    2    0    0  0.13812528882E+02  0.10006446162E+03  0.25766533412E+03  0.31620683082E+03  0.15294330000E+03 0.  0.
<mgrwt>
<rscale>  0 0.18329030E+03</rscale>
<asrwt>0</asrwt>
<pdfrwt beam="1">  1        4 0.67243452E-02 0.18329030E+03</pdfrwt>
<pdfrwt beam="2">  1       -4 0.13364211E+00 0.18329030E+03</pdfrwt>
<totfact> 0.11013675E+02</totfact>
</mgrwt>
</event>
<event>
 4    1  0.8478300E-009  0.1670185E+03  0.7818608E-02  0.1180993E+00
         -4   -1    0    0    0  501 -0.00000000000E+00  0.00000000000E+00  0.12687988185E+03  0.12688623770E+03  0.12700000000E+01 0. -1.
          4   -1    0    0  501    0  0.00000000000E+00 -0.00000000000E+00 -0.34486906617E+03  0.34487140459E+03  0.12700000000E+01 0. -1.
    8880022    1    1    2    0    0  0.14890833664E+02 -0.65435447038E+02  0.33028515391E+02  0.17025296033E+03  0.15294330000E+03 0.  0.
    8880022    1    1    2    0    0 -0.14890833664E+02  0.65435447038E+02 -0.25101769972E+03  0.30150468196E+03  0.15294330000E+03 0.  0.
<mgrwt>
<rscale>  0 0.16701852E+03</rscale>
<asrwt>0</asrwt>
<pdfrwt beam="1">  1        4 0.53057448E-01 0.16701852E+03</pdfrwt>
<pdfrwt beam="2">  1       -4 0.19520651E-01 0.16701852E+03</pdfrwt>
<totfact> 0.14003227E+02</totfact>
</mgrwt>
</event>
<event>
 4    1  0.8478300E-009  0.1878504E+03  0.7818608E-02  0.1160415E+00
          4   -1    0    0  501    0  0.00000000000E+00  0.00000000000E+00  0.68816989544E+03  0.68817106731E+03  0.12700000000E+01 0. -1.
         -4   -1    0    0    0  501 -0.00000000000E+00 -0.00000000000E+00 -0.51562599502E+02  0.51578237343E+02  0.12700000000E+01 0. -1.
    8880022    1    1    2    0    0 -0.96112633471E+02 -0.51560327715E+02  0.34622816742E+03  0.39390570272E+03  0.15294330000E+03 0. -1.
    8880022    1    1    2    0    0  0.96112633471E+02  0.51560327715E+02  0.29037912852E+03  0.34584360194E+03  0.15294330000E+03 0. -1.
<mgrwt>
<rscale>  0 0.18785036E+03</rscale>
<asrwt>0</asrwt>
<pdfrwt beam="1">  1        4 0.10587359E+00 0.18785036E+03</pdfrwt>
<pdfrwt beam="2">  1       -4 0.79340006E-02 0.18785036E+03</pdfrwt>
<totfact> 0.14758866E+02</totfact>
</mgrwt>
</event>
<event>
 4    1  0.8478300E-009  0.4997604E+03  0.7818608E-02  0.1013841E+00
          4   -1    0    0  501    0  0.00000000000E+00  0.00000000000E+00  0.15662254366E+04  0.15662259515E+04  0.12700000000E+01 0.  1.
         -4   -1    0    0    0  501 -0.00000000000E+00 -0.00000000000E+00 -0.16228617619E+03  0.16229114542E+03  0.12700000000E+01 0.  1.
    8880022    1    1    2    0    0  0.35815940287E+03  0.31319432873E+03  0.81595022841E+03  0.95683607461E+03  0.15294330000E+03 0.  0.
    8880022    1    1    2    0    0 -0.35815940287E+03 -0.31319432873E+03  0.58798903196E+03  0.77168102227E+03  0.15294330000E+03 0.  0.
<mgrwt>
<rscale>  0 0.49976044E+03</rscale>
<asrwt>0</asrwt>
<pdfrwt beam="1">  1        4 0.24095817E+00 0.49976044E+03</pdfrwt>
<pdfrwt beam="2">  1       -4 0.24967527E-01 0.49976044E+03</pdfrwt>
<totfact> 0.22118881E+00</totfact>
</mgrwt>
</event>
<event>
 4    1  0.8478300E-009  0.1945061E+03  0.7818608E-02  0.1154459E+00
         -4   -1    0    0    0  501 -0.00000000000E+00  0.00000000000E+00  0.14374708031E+03  0.14375269040E+03  0.12700000000E+01 0.  1.
          4   -1    0    0  501    0  0.00000000000E+00 -0.00000000000E+00 -0.27000555047E+03  0.27000853725E+03  0.12700000000E+01 0.  1.
    8880022    1    1    2    0    0  0.73783540986E+02  0.94852325363E+02 -0.30228572798E+02  0.19684103783E+03  0.15294330000E+03 0.  0.
    8880022    1    1    2    0    0 -0.73783540986E+02 -0.94852325363E+02 -0.96029897365E+02  0.21692018982E+03  0.15294330000E+03 0.  0.
<mgrwt>
<rscale>  0 0.19450611E+03</rscale>
<asrwt>0</asrwt>
<pdfrwt beam="1">  1        4 0.41539977E-01 0.19450611E+03</pdfrwt>
<pdfrwt beam="2">  1       -4 0.22115597E-01 0.19450611E+03</pdfrwt>
<totfact> 0.18767847E+02</totfact>
</mgrwt>
</event>
<event>
 4    1  0.8478300E-009  0.2151017E+03  0.7818608E-02  0.1137589E+00
          4   -1    0    0  501    0  0.00000000000E+00  0.00000000000E+00  0.11722627974E+03  0.11723315896E+03  0.12700000000E+01 0. -1.
         -4   -1    0    0    0  501 -0.00000000000E+00 -0.00000000000E+00 -0.60239270911E+03  0.60239404785E+03  0.12700000000E+01 0. -1.
    8880022    1    1    2    0    0 -0.54143404522E+02 -0.14122878060E+03 -0.45386883224E+03  0.50226053659E+03  0.15294330000E+03 0.  0.
    8880022    1    1    2    0    0  0.54143404522E+02  0.14122878060E+03 -0.31297597130E+02  0.21736667022E+03  0.15294330000E+03 0.  0.
<mgrwt>
<rscale>  0 0.21510167E+03</rscale>
<asrwt>0</asrwt>
<pdfrwt beam="1">  1        4 0.18035445E-01 0.21510167E+03</pdfrwt>
<pdfrwt beam="2">  1       -4 0.92676432E-01 0.21510167E+03</pdfrwt>
<totfact> 0.49627397E+01</totfact>
</mgrwt>
</event>
<event>
 4    1  0.8478300E-009  0.2525054E+03  0.7818608E-02  0.1111732E+00
          4   -1    0    0  501    0  0.00000000000E+00  0.00000000000E+00  0.58268304659E+03  0.58268443062E+03  0.12700000000E+01 0.  1.
         -4   -1    0    0    0  501 -0.00000000000E+00 -0.00000000000E+00 -0.12643893352E+03  0.12644531154E+03  0.12700000000E+01 0.  1.
    8880022    1    1    2    0    0  0.10969608848E+03 -0.16832739994E+03  0.35820901951E+03  0.43826099538E+03  0.15294330000E+03 0.  0.
    8880022    1    1    2    0    0 -0.10969608848E+03  0.16832739994E+03  0.98035093563E+02  0.27086874678E+03  0.15294330000E+03 0.  0.
<mgrwt>
<rscale>  0 0.25250544E+03</rscale>
<asrwt>0</asrwt>
<pdfrwt beam="1">  1        4 0.89644144E-01 0.25250544E+03</pdfrwt>
<pdfrwt beam="2">  1       -4 0.19452740E-01 0.25250544E+03</pdfrwt>
<totfact> 0.47564632E+01</totfact>
</mgrwt>
</event>
<event>
 4    1  0.8478300E-009  0.2059692E+03  0.7818608E-02  0.1144798E+00
          4   -1    0    0  501    0  0.00000000000E+00  0.00000000000E+00  0.87634630607E+03  0.87634722631E+03  0.12700000000E+01 0. -1.
         -4   -1    0    0    0  501 -0.00000000000E+00 -0.00000000000E+00 -0.52921968525E+02  0.52937204805E+02  0.12700000000E+01 0. -1.
    8880022    1    1    2    0    0  0.10985519035E+03 -0.83447452315E+02  0.54751069028E+03  0.58497115239E+03  0.15294330000E+03 0.  0.
    8880022    1    1    2    0    0 -0.10985519035E+03  0.83447452315E+02  0.27591364727E+03  0.34431327873E+03  0.15294330000E+03 0.  0.
<mgrwt>
<rscale>  0 0.20596916E+03</rscale>
<asrwt>0</asrwt>
<pdfrwt beam="1">  1        4 0.13482374E+00 0.20596916E+03</pdfrwt>
<pdfrwt beam="2">  1       -4 0.81430846E-02 0.20596916E+03</pdfrwt>
<totfact> 0.79616371E+01</totfact>
</mgrwt>
</event>
<event>
 4    1  0.8478300E-009  0.2244512E+03  0.7818608E-02  0.1130607E+00
          4   -1    0    0  501    0  0.00000000000E+00  0.00000000000E+00  0.15054994955E+04  0.15055000312E+04  0.12700000000E+01 0. -1.
         -4   -1    0    0    0  501 -0.00000000000E+00 -0.00000000000E+00 -0.43834874815E+02  0.43853268408E+02  0.12700000000E+01 0. -1.
    8880022    1    1    2    0    0  0.16427140008E+03  0.12715910371E+01  0.11077939113E+04  0.11303033720E+04  0.15294330000E+03 0.  0.
    8880022    1    1    2    0    0 -0.16427140008E+03 -0.12715910371E+01  0.35387070939E+03  0.41904992758E+03  0.15294330000E+03 0.  0.
<mgrwt>
<rscale>  0 0.22445125E+03</rscale>
<asrwt>0</asrwt>
<pdfrwt beam="1">  1        4 0.23161671E+00 0.22445125E+03</pdfrwt>
<pdfrwt beam="2">  1       -4 0.67452844E-02 0.22445125E+03</pdfrwt>
<totfact> 0.24450798E+01</totfact>
</mgrwt>
</event>
<event>
 4    1  0.8478300E-009  0.1646037E+03  0.7818608E-02  0.1183595E+00
          4   -1    0    0  501    0  0.00000000000E+00  0.00000000000E+00  0.23247165459E+03  0.23247512359E+03  0.12700000000E+01 0.  1.
         -4   -1    0    0    0  501 -0.00000000000E+00 -0.00000000000E+00 -0.11861932271E+03  0.11862612115E+03  0.12700000000E+01 0.  1.
    8880022    1    1    2    0    0 -0.52064393714E+02 -0.31496255802E+02  0.33691952345E+02  0.16801641554E+03  0.15294330000E+03 0.  1.
    8880022    1    1    2    0    0  0.52064393714E+02  0.31496255802E+02  0.80160379538E+02  0.18308482920E+03  0.15294330000E+03 0.  1.
<mgrwt>
<rscale>  0 0.16460367E+03</rscale>
<asrwt>0</asrwt>
<pdfrwt beam="1">  1        4 0.35765659E-01 0.16460367E+03</pdfrwt>
<pdfrwt beam="2">  1       -4 0.18249917E-01 0.16460367E+03</pdfrwt>
<totfact> 0.34729204E+02</totfact>
</mgrwt>
</event>
<event>
 4    1  0.8478300E-009  0.1631522E+03  0.7818608E-02  0.1185183E+00
         -4   -1    0    0    0  501 -0.00000000000E+00  0.00000000000E+00  0.28482884129E+02  0.28511183566E+02  0.12700000000E+01 0. -1.
          4   -1    0    0  501    0  0.00000000000E+00 -0.00000000000E+00 -0.98827172630E+03  0.98827254232E+03  0.12700000000E+01 0. -1.
    8880022    1    1    2    0    0  0.23583782722E+02 -0.51679633457E+02 -0.36082004595E+03  0.39599209322E+03  0.15294330000E+03 0.  1.
    8880022    1    1    2    0    0 -0.23583782722E+02  0.51679633457E+02 -0.59896879623E+03  0.62079163267E+03  0.15294330000E+03 0.  1.
<mgrwt>
<rscale>  0 0.16315218E+03</rscale>
<asrwt>0</asrwt>
<pdfrwt beam="1">  1        4 0.15204402E+00 0.16315218E+03</pdfrwt>
<pdfrwt beam="2">  1       -4 0.43842226E-02 0.16315218E+03</pdfrwt>
<totfact> 0.15656985E+02</totfact>
</mgrwt>
</event>
<event>
 4    1  0.8478300E-009  0.2913335E+03  0.7818608E-02  0.1089655E+00
          4   -1    0    0  501    0  0.00000000000E+00  0.00000000000E+00  0.45484761773E+02  0.45502488433E+02  0.12700000000E+01 0.  1.
         -4   -1    0    0    0  501 -0.00000000000E+00 -0.00000000000E+00 -0.19304158133E+04  0.19304162311E+04  0.12700000000E+01 0.  1.
    8880022    1    1    2    0    0  0.89254198466E+02  0.23133789626E+03 -0.76147982659E+03  0.81530774159E+03  0.15294330000E+03 0.  0.
    8880022    1    1    2    0    0 -0.89254198466E+02 -0.23133789626E+03 -0.11234512250E+04  0.11606109779E+04  0.15294330000E+03 0.  0.
<mgrwt>
<rscale>  0 0.29133346E+03</rscale>
<asrwt>0</asrwt>
<pdfrwt beam="1">  1        4 0.69990529E-02 0.29133346E+03</pdfrwt>
<pdfrwt beam="2">  1       -4 0.29698838E+00 0.29133346E+03</pdfrwt>
<totfact> 0.95725698E+00</totfact>
</mgrwt>
</event>
<event>
 4    1  0.8478300E-009  0.1723768E+03  0.7818608E-02  0.1175392E+00
          4   -1    0    0  501    0  0.00000000000E+00  0.00000000000E+00  0.20286001329E+03  0.20286398865E+03  0.12700000000E+01 0. -1.
         -4   -1    0    0    0  501 -0.00000000000E+00 -0.00000000000E+00 -0.15559680758E+03  0.15560199044E+03  0.12700000000E+01 0. -1.
    8880022    1    1    2    0    0  0.63392103475E+02 -0.47995294132E+02 -0.19785226769E+02  0.17350854519E+03  0.15294330000E+03 0.  0.
    8880022    1    1    2    0    0 -0.63392103475E+02  0.47995294132E+02  0.67048432479E+02  0.18495743390E+03  0.15294330000E+03 0.  0.
<mgrwt>
<rscale>  0 0.17237680E+03</rscale>
<asrwt>0</asrwt>
<pdfrwt beam="1">  1        4 0.31209937E-01 0.17237680E+03</pdfrwt>
<pdfrwt beam="2">  1       -4 0.23938675E-01 0.17237680E+03</pdfrwt>
<totfact> 0.27796400E+02</totfact>
</mgrwt>
</event>
<event>
 4    1  0.8478300E-009  0.1830211E+03  0.7818608E-02  0.1164911E+00
          4   -1    0    0  501    0  0.00000000000E+00  0.00000000000E+00  0.43180576876E+03  0.43180763637E+03  0.12700000000E+01 0.  1.
         -4   -1    0    0    0  501 -0.00000000000E+00 -0.00000000000E+00 -0.81975220003E+02  0.81985057142E+02  0.12700000000E+01 0.  1.
    8880022    1    1    2    0    0 -0.74379325418E+02  0.67622393260E+02  0.11534246960E+03  0.21633448738E+03  0.15294330000E+03 0.  1.
    8880022    1    1    2    0    0  0.74379325418E+02 -0.67622393260E+02  0.23448807915E+03  0.29745820614E+03  0.15294330000E+03 0.  1.
<mgrwt>
<rscale>  0 0.18302111E+03</rscale>
<asrwt>0</asrwt>
<pdfrwt beam="1">  1        4 0.66432558E-01 0.18302111E+03</pdfrwt>
<pdfrwt beam="2">  1       -4 0.12612472E-01 0.18302111E+03</pdfrwt>
<totfact> 0.19102320E+02</totfact>
</mgrwt>
</event>
<event>
 4    1  0.8478300E-009  0.1812664E+03  0.7818608E-02  0.1166583E+00
          4   -1    0    0  501    0  0.00000000000E+00  0.00000000000E+00  0.34645176298E+03  0.34645409071E+03  0.12700000000E+01 0.  1.
         -4   -1    0    0    0  501 -0.00000000000E+00 -0.00000000000E+00 -0.10459826342E+03  0.10460597311E+03  0.12700000000E+01 0.  1.
    8880022    1    1    2    0    0  0.78619073612E+02  0.57313949581E+02  0.52020405028E+02  0.18858319943E+03  0.15294330000E+03 0.  0.
    8880022    1    1    2    0    0 -0.78619073612E+02 -0.57313949581E+02  0.18983309453E+03  0.26247686440E+03  0.15294330000E+03 0.  0.
<mgrwt>
<rscale>  0 0.18126638E+03</rscale>
<asrwt>0</asrwt>
<pdfrwt beam="1">  1        4 0.53301044E-01 0.18126638E+03</pdfrwt>
<pdfrwt beam="2">  1       -4 0.16092812E-01 0.18126638E+03</pdfrwt>
<totfact> 0.19826457E+02</totfact>
</mgrwt>
</event>
<event>
 4    1  0.8478300E-009  0.1734249E+03  0.7818608E-02  0.1174323E+00
          4   -1    0    0  501    0  0.00000000000E+00  0.00000000000E+00  0.25043281705E+03  0.25043603725E+03  0.12700000000E+01 0.  1.
         -4   -1    0    0    0  501 -0.00000000000E+00 -0.00000000000E+00 -0.15688797882E+03  0.15689311903E+03  0.12700000000E+01 0.  1.
    8880022    1    1    2    0    0  0.72386722473E+02 -0.38009329144E+02  0.14540553859E+03  0.22631608507E+03  0.15294330000E+03 0.  0.
    8880022    1    1    2    0    0 -0.72386722473E+02  0.38009329144E+02 -0.51860700367E+02  0.18101307121E+03  0.15294330000E+03 0.  0.
<mgrwt>
<rscale>  0 0.17342491E+03</rscale>
<asrwt>0</asrwt>
<pdfrwt beam="1">  1        4 0.38528768E-01 0.17342491E+03</pdfrwt>
<pdfrwt beam="2">  1       -4 0.24137256E-01 0.17342491E+03</pdfrwt>
<totfact> 0.18219238E+02</totfact>
</mgrwt>
</event>
<event>
 4    1  0.8478300E-009  0.2739052E+03  0.7818608E-02  0.1099065E+00
         -4   -1    0    0    0  501 -0.00000000000E+00  0.00000000000E+00  0.11021102962E+03  0.11021834670E+03  0.12700000000E+01 0.  1.
          4   -1    0    0  501    0  0.00000000000E+00 -0.00000000000E+00 -0.10534614979E+04  0.10534622635E+04  0.12700000000E+01 0.  1.
    8880022    1    1    2    0    0 -0.22527684446E+03 -0.29711470731E+02 -0.12552020726E+03  0.30129620573E+03  0.15294330000E+03 0.  0.
    8880022    1    1    2    0    0  0.22527684446E+03  0.29711470731E+02 -0.81773026106E+03  0.86238440443E+03  0.15294330000E+03 0.  0.
<mgrwt>
<rscale>  0 0.27390524E+03</rscale>
<asrwt>0</asrwt>
<pdfrwt beam="1">  1        4 0.16207161E+00 0.27390524E+03</pdfrwt>
<pdfrwt beam="2">  1       -4 0.16956165E-01 0.27390524E+03</pdfrwt>
<totfact> 0.14322307E+01</totfact>
</mgrwt>
</event>
<event>
 4    1  0.8478300E-009  0.1728956E+03  0.7818608E-02  0.1174861E+00
          4   -1    0    0  501    0  0.00000000000E+00  0.00000000000E+00  0.13076159114E+03  0.13076775833E+03  0.12700000000E+01 0. -1.
         -4   -1    0    0    0  501 -0.00000000000E+00 -0.00000000000E+00 -0.32281532362E+03  0.32281782178E+03  0.12700000000E+01 0.  1.
    8880022    1    1    2    0    0 -0.80464274893E+02  0.51701005947E+01 -0.21855157441E+03  0.27867126362E+03  0.15294330000E+03 0.  0.
    8880022    1    1    2    0    0  0.80464274893E+02 -0.51701005947E+01  0.26497841936E+02  0.17491431650E+03  0.15294330000E+03 0.  0.
<mgrwt>
<rscale>  0 0.17289558E+03</rscale>
<asrwt>0</asrwt>
<pdfrwt beam="1">  1        4 0.20117835E-01 0.17289558E+03</pdfrwt>
<pdfrwt beam="2">  1       -4 0.49664562E-01 0.17289558E+03</pdfrwt>
<totfact> 0.15270684E+02</totfact>
</mgrwt>
</event>
<event>
 4    1  0.8478300E-009  0.1606738E+03  0.7818608E-02  0.1187938E+00
          4   -1    0    0  501    0  0.00000000000E+00  0.00000000000E+00  0.65319991102E+02  0.65332336079E+02  0.12700000000E+01 0. -1.
         -4   -1    0    0    0  501 -0.00000000000E+00 -0.00000000000E+00 -0.90284280610E+03  0.90284369933E+03  0.12700000000E+01 0. -1.
    8880022    1    1    2    0    0  0.49224286446E+02 -0.11805057678E+01 -0.55762629459E+02  0.17007512407E+03  0.15294330000E+03 0.  0.
    8880022    1    1    2    0    0 -0.49224286446E+02  0.11805057678E+01 -0.78176018554E+03  0.79810091134E+03  0.15294330000E+03 0.  0.
<mgrwt>
<rscale>  0 0.16067382E+03</rscale>
<asrwt>0</asrwt>
<pdfrwt beam="1">  1        4 0.10050248E-01 0.16067382E+03</pdfrwt>
<pdfrwt beam="2">  1       -4 0.13889990E+00 0.16067382E+03</pdfrwt>
<totfact> 0.50281775E+01</totfact>
</mgrwt>
</event>
<event>
 4    1  0.8478300E-009  0.2372532E+03  0.7818608E-02  0.1121636E+00
          4   -1    0    0  501    0  0.00000000000E+00  0.00000000000E+00  0.18694049189E+03  0.18694480578E+03  0.12700000000E+01 0. -1.
         -4   -1    0    0    0  501 -0.00000000000E+00 -0.00000000000E+00 -0.36056976118E+03  0.36057199778E+03  0.12700000000E+01 0. -1.
    8880022    1    1    2    0    0  0.18118835939E+03  0.82597621319E+01  0.24364795657E+02  0.23850103046E+03  0.15294330000E+03 0.  0.
    8880022    1    1    2    0    0 -0.18118835939E+03 -0.82597621319E+01 -0.19799406495E+03  0.30901577309E+03  0.15294330000E+03 0.  0.
<mgrwt>
<rscale>  0 0.23725324E+03</rscale>
<asrwt>0</asrwt>
<pdfrwt beam="1">  1        4 0.28760580E-01 0.23725324E+03</pdfrwt>
<pdfrwt beam="2">  1       -4 0.55472775E-01 0.23725324E+03</pdfrwt>
<totfact> 0.65362059E+01</totfact>
</mgrwt>
</event>
<event>
 4    1  0.8478300E-009  0.1991894E+03  0.7818608E-02  0.1150425E+00
          4   -1    0    0  501    0  0.00000000000E+00  0.00000000000E+00  0.14574009928E+03  0.14574563265E+03  0.12700000000E+01 0.  1.
         -4   -1    0    0    0  501 -0.00000000000E+00 -0.00000000000E+00 -0.59573715788E+03  0.59573851158E+03  0.12700000000E+01 0.  1.
    8880022    1    1    2    0    0 -0.12499534738E+03  0.25708517917E+02  0.48203879234E+02  0.20493909278E+03  0.15294330000E+03 0.  0.
    8880022    1    1    2    0    0  0.12499534738E+03 -0.25708517917E+02 -0.49820093784E+03  0.53654505146E+03  0.15294330000E+03 0.  0.
<mgrwt>
<rscale>  0 0.19918940E+03</rscale>
<asrwt>0</asrwt>
<pdfrwt beam="1">  1        4 0.22422084E-01 0.19918940E+03</pdfrwt>
<pdfrwt beam="2">  1       -4 0.91652399E-01 0.19918940E+03</pdfrwt>
<totfact> 0.33988536E+01</totfact>
</mgrwt>
</event>
<event>
 4    1  0.8478300E-009  0.2539999E+03  0.7818608E-02  0.1110803E+00
          4   -1    0    0  501    0  0.00000000000E+00  0.00000000000E+00  0.24857535952E+03  0.24857860379E+03  0.12700000000E+01 0. -1.
         -4   -1    0    0    0  501 -0.00000000000E+00 -0.00000000000E+00 -0.45045284935E+03  0.45045463965E+03  0.12700000000E+01 0. -1.
    8880022    1    1    2    0    0 -0.20263042503E+03  0.80759715203E+01  0.12660353937E+03  0.28380348775E+03  0.15294330000E+03 0. -1.
    8880022    1    1    2    0    0  0.20263042503E+03 -0.80759715203E+01 -0.32848102919E+03  0.41522975570E+03  0.15294330000E+03 0. -1.
<mgrwt>
<rscale>  0 0.25399993E+03</rscale>
<asrwt>0</asrwt>
<pdfrwt beam="1">  1        4 0.38242750E-01 0.25399993E+03</pdfrwt>
<pdfrwt beam="2">  1       -4 0.69300826E-01 0.25399993E+03</pdfrwt>
<totfact> 0.23540897E+01</totfact>
</mgrwt>
</event>
<event>
 4    1  0.8478300E-009  0.2158035E+03  0.7818608E-02  0.1137051E+00
         -4   -1    0    0    0  501 -0.00000000000E+00  0.00000000000E+00  0.75744582958E+02  0.75755229176E+02  0.12700000000E+01 0.  1.
          4   -1    0    0  501    0  0.00000000000E+00 -0.00000000000E+00 -0.61546212652E+03  0.61546343683E+03  0.12700000000E+01 0.  1.
    8880022    1    1    2    0    0 -0.15142708622E+03  0.15789782223E+02 -0.28128074410E+03  0.35452784048E+03  0.15294330000E+03 0.  1.
    8880022    1    1    2    0    0  0.15142708622E+03 -0.15789782223E+02 -0.25843679946E+03  0.33669082553E+03  0.15294330000E+03 0.  1.
<mgrwt>
<rscale>  0 0.21580346E+03</rscale>
<asrwt>0</asrwt>
<pdfrwt beam="1">  1        4 0.94687397E-01 0.21580346E+03</pdfrwt>
<pdfrwt beam="2">  1       -4 0.11653933E-01 0.21580346E+03</pdfrwt>
<totfact> 0.10179149E+02</totfact>
</mgrwt>
</event>
<event>
 4    1  0.8478300E-009  0.1677676E+03  0.7818608E-02  0.1180196E+00
         -4   -1    0    0    0  501 -0.00000000000E+00  0.00000000000E+00  0.22022517561E+03  0.22022883751E+03  0.12700000000E+01 0.  1.
          4   -1    0    0  501    0  0.00000000000E+00 -0.00000000000E+00 -0.13479264019E+03  0.13479862295E+03  0.12700000000E+01 0.  1.
    8880022    1    1    2    0    0  0.68539232748E+02  0.75294357685E+01  0.22791765860E+01  0.16778309357E+03  0.15294330000E+03 0.  0.
    8880022    1    1    2    0    0 -0.68539232748E+02 -0.75294357685E+01  0.83153358837E+02  0.18724436688E+03  0.15294330000E+03 0.  0.
<mgrwt>
<rscale>  0 0.16776761E+03</rscale>
<asrwt>0</asrwt>
<pdfrwt beam="1">  1        4 0.20738071E-01 0.16776761E+03</pdfrwt>
<pdfrwt beam="2">  1       -4 0.33881538E-01 0.16776761E+03</pdfrwt>
<totfact> 0.30734502E+02</totfact>
</mgrwt>
</event>
<event>
 4    1  0.8478300E-009  0.2206253E+03  0.7818608E-02  0.1133418E+00
         -4   -1    0    0    0  501 -0.00000000000E+00  0.00000000000E+00  0.42126728860E+03  0.42126920293E+03  0.12700000000E+01 0. -1.
          4   -1    0    0  501    0  0.00000000000E+00 -0.00000000000E+00 -0.26394857806E+03  0.26395163337E+03  0.12700000000E+01 0. -1.
    8880022    1    1    2    0    0 -0.13288302451E+03 -0.87326847723E+02 -0.17824116238E+03  0.28362905619E+03  0.15294330000E+03 0.  0.
    8880022    1    1    2    0    0  0.13288302451E+03  0.87326847723E+02  0.33555987291E+03  0.40159178012E+03  0.15294330000E+03 0.  0.
<mgrwt>
<rscale>  0 0.22062531E+03</rscale>
<asrwt>0</asrwt>
<pdfrwt beam="1">  1        4 0.40607856E-01 0.22062531E+03</pdfrwt>
<pdfrwt beam="2">  1       -4 0.64810734E-01 0.22062531E+03</pdfrwt>
<totfact> 0.23829341E+01</totfact>
</mgrwt>
</event>
<event>
 4    1  0.8478300E-009  0.1612044E+03  0.7818608E-02  0.1187344E+00
          4   -1    0    0  501    0  0.00000000000E+00  0.00000000000E+00  0.66179631100E+03  0.66179752958E+03  0.12700000000E+01 0.  1.
         -4   -1    0    0    0  501 -0.00000000000E+00 -0.00000000000E+00 -0.13048316477E+03  0.13048934511E+03  0.12700000000E+01 0.  1.
    8880022    1    1    2    0    0  0.31479820260E+02  0.40052967197E+02  0.59687453652E+03  0.61826053135E+03  0.15294330000E+03 0.  0.
    8880022    1    1    2    0    0 -0.31479820260E+02 -0.40052967197E+02 -0.65561390285E+02  0.17402634334E+03  0.15294330000E+03 0.  0.
<mgrwt>
<rscale>  0 0.16120444E+03</rscale>
<asrwt>0</asrwt>
<pdfrwt beam="1">  1        4 0.10181539E+00 0.16120444E+03</pdfrwt>
<pdfrwt beam="2">  1       -4 0.20074902E-01 0.16120444E+03</pdfrwt>
<totfact> 0.31806993E+01</totfact>
</mgrwt>
</event>
<event>
 4    1  0.8478300E-009  0.2895312E+03  0.7818608E-02  0.1090594E+00
         -4   -1    0    0    0  501 -0.00000000000E+00  0.00000000000E+00  0.55206424506E+03  0.55206570585E+03  0.12700000000E+01 0.  1.
          4   -1    0    0  501    0  0.00000000000E+00 -0.00000000000E+00 -0.19391752613E+03  0.19392168481E+03  0.12700000000E+01 0.  1.
    8880022    1    1    2    0    0  0.14409490192E+03  0.19918164653E+03  0.35281599794E+03  0.45640711047E+03  0.15294330000E+03 0.  0.
    8880022    1    1    2    0    0 -0.14409490192E+03 -0.19918164653E+03  0.53307209980E+01  0.28958028019E+03  0.15294330000E+03 0.  0.
<mgrwt>
<rscale>  0 0.28953121E+03</rscale>
<asrwt>0</asrwt>
<pdfrwt beam="1">  1        4 0.29833898E-01 0.28953121E+03</pdfrwt>
<pdfrwt beam="2">  1       -4 0.84933393E-01 0.28953121E+03</pdfrwt>
<totfact> 0.24566873E+01</totfact>
</mgrwt>
</event>
<event>
 4    1  0.8478300E-009  0.1828258E+03  0.7818608E-02  0.1165096E+00
         -4   -1    0    0    0  501 -0.00000000000E+00  0.00000000000E+00  0.74248174540E+03  0.74248283155E+03  0.12700000000E+01 0.  1.
          4   -1    0    0  501    0  0.00000000000E+00 -0.00000000000E+00 -0.62557760006E+02  0.62570649965E+02  0.12700000000E+01 0.  1.
    8880022    1    1    2    0    0  0.52022786111E+02  0.85599326584E+02  0.12679021653E+03  0.22248826263E+03  0.15294330000E+03 0.  1.
    8880022    1    1    2    0    0 -0.52022786111E+02 -0.85599326584E+02  0.55313376886E+03  0.58256521888E+03  0.15294330000E+03 0.  1.
<mgrwt>
<rscale>  0 0.18282579E+03</rscale>
<asrwt>0</asrwt>
<pdfrwt beam="1">  1        4 0.96253444E-02 0.18282579E+03</pdfrwt>
<pdfrwt beam="2">  1       -4 0.11422905E+00 0.18282579E+03</pdfrwt>
<totfact> 0.88758387E+01</totfact>
</mgrwt>
</event>
<event>
 4    1  0.8478300E-009  0.1545560E+03  0.7818608E-02  0.1194984E+00
          4   -1    0    0  501    0  0.00000000000E+00  0.00000000000E+00  0.38191248405E+02  0.38212358664E+02  0.12700000000E+01 0. -1.
         -4   -1    0    0    0  501 -0.00000000000E+00 -0.00000000000E+00 -0.65532183601E+03  0.65532306662E+03  0.12700000000E+01 0. -1.
    8880022    1    1    2    0    0 -0.21755824411E+02  0.47532606797E+01 -0.38281327348E+03  0.41283600225E+03  0.15294330000E+03 0.  1.
    8880022    1    1    2    0    0  0.21755824411E+02 -0.47532606797E+01 -0.23431731412E+03  0.28069942304E+03  0.15294330000E+03 0.  1.
<mgrwt>
<rscale>  0 0.15455602E+03</rscale>
<asrwt>0</asrwt>
<pdfrwt beam="1">  1        4 0.58772957E-02 0.15455602E+03</pdfrwt>
<pdfrwt beam="2">  1       -4 0.10082045E+00 0.15455602E+03</pdfrwt>
<totfact> 0.26313146E+02</totfact>
</mgrwt>
</event>
<event>
 4    1  0.8478300E-009  0.2472781E+03  0.7818608E-02  0.1115037E+00
         -4   -1    0    0    0  501 -0.00000000000E+00  0.00000000000E+00  0.24150382570E+03  0.24150716496E+03  0.12700000000E+01 0. -1.
          4   -1    0    0  501    0  0.00000000000E+00 -0.00000000000E+00 -0.43068552254E+03  0.43068739501E+03  0.12700000000E+01 0. -1.
    8880022    1    1    2    0    0 -0.11019461641E+03 -0.16003739392E+03  0.12117523037E+03  0.27537231235E+03  0.15294330000E+03 0.  0.
    8880022    1    1    2    0    0  0.11019461641E+03  0.16003739392E+03 -0.31035692720E+03  0.39682224763E+03  0.15294330000E+03 0.  0.
<mgrwt>
<rscale>  0 0.24727813E+03</rscale>
<asrwt>0</asrwt>
<pdfrwt beam="1">  1        4 0.66259712E-01 0.24727813E+03</pdfrwt>
<pdfrwt beam="2">  1       -4 0.37154836E-01 0.24727813E+03</pdfrwt>
<totfact> 0.27402935E+01</totfact>
</mgrwt>
</event>
<event>
 4    1  0.8478300E-009  0.2941208E+03  0.7818608E-02  0.1088217E+00
         -4   -1    0    0    0  501 -0.00000000000E+00  0.00000000000E+00  0.98287616533E+03  0.98287698583E+03  0.12700000000E+01 0. -1.
          4   -1    0    0  501    0  0.00000000000E+00 -0.00000000000E+00 -0.10558614041E+03  0.10559377797E+03  0.12700000000E+01 0. -1.
    8880022    1    1    2    0    0  0.12267730780E+03 -0.21923879522E+03  0.21659957469E+03  0.36527031080E+03  0.15294330000E+03 0.  0.
    8880022    1    1    2    0    0 -0.12267730780E+03  0.21923879522E+03  0.66069045024E+03  0.72320045301E+03  0.15294330000E+03 0.  0.
<mgrwt>
<rscale>  0 0.29412076E+03</rscale>
<asrwt>0</asrwt>
<pdfrwt beam="1">  1        4 0.16244673E-01 0.29412076E+03</pdfrwt>
<pdfrwt beam="2">  1       -4 0.15121236E+00 0.29412076E+03</pdfrwt>
<totfact> 0.18671453E+01</totfact>
</mgrwt>
</event>
<event>
 4    1  0.8478300E-009  0.1597708E+03  0.7818608E-02  0.1188956E+00
         -4   -1    0    0    0  501 -0.00000000000E+00  0.00000000000E+00  0.34245639910E+03  0.34245875399E+03  0.12700000000E+01 0. -1.
          4   -1    0    0  501    0  0.00000000000E+00 -0.00000000000E+00 -0.10905671466E+03  0.10906410918E+03  0.12700000000E+01 0. -1.
    8880022    1    1    2    0    0  0.94764301788E+01  0.45224467315E+02 -0.10318299192E+02  0.16010363983E+03  0.15294330000E+03 0.  0.
    8880022    1    1    2    0    0 -0.94764301788E+01 -0.45224467315E+02  0.24371798363E+03  0.29141922334E+03  0.15294330000E+03 0.  0.
<mgrwt>
<rscale>  0 0.15977080E+03</rscale>
<asrwt>0</asrwt>
<pdfrwt beam="1">  1        4 0.16778706E-01 0.15977080E+03</pdfrwt>
<pdfrwt beam="2">  1       -4 0.52686350E-01 0.15977080E+03</pdfrwt>
<totfact> 0.18491539E+02</totfact>
</mgrwt>
</event>
<event>
 4    1  0.8478300E-009  0.2538344E+03  0.7818608E-02  0.1110905E+00
          4   -1    0    0  501    0  0.00000000000E+00  0.00000000000E+00  0.23253997754E+03  0.23254344552E+03  0.12700000000E+01 0. -1.
         -4   -1    0    0    0  501 -0.00000000000E+00 -0.00000000000E+00 -0.61454659300E+03  0.61454790527E+03  0.12700000000E+01 0. -1.
    8880022    1    1    2    0    0 -0.16607567108E+03 -0.11601342114E+03  0.12286071921E+03  0.28200470165E+03  0.15294330000E+03 0.  0.
    8880022    1    1    2    0    0  0.16607567108E+03  0.11601342114E+03 -0.50486733467E+03  0.56508664915E+03  0.15294330000E+03 0.  0.
<mgrwt>
<rscale>  0 0.25383439E+03</rscale>
<asrwt>0</asrwt>
<pdfrwt beam="1">  1        4 0.35775749E-01 0.25383439E+03</pdfrwt>
<pdfrwt beam="2">  1       -4 0.94545997E-01 0.25383439E+03</pdfrwt>
<totfact> 0.13359742E+01</totfact>
</mgrwt>
</event>
<event>
 4    1  0.8478300E-009  0.3287150E+03  0.7818608E-02  0.1071707E+00
         -4   -1    0    0    0  501 -0.00000000000E+00  0.00000000000E+00  0.19219053782E+04  0.19219057978E+04  0.12700000000E+01 0.  1.
          4   -1    0    0  501    0  0.00000000000E+00 -0.00000000000E+00 -0.67435833220E+02  0.67447790935E+02  0.12700000000E+01 0.  1.
    8880022    1    1    2    0    0 -0.21022759910E+03 -0.20116233731E+03  0.13329439701E+04  0.13728777111E+04  0.15294330000E+03 0.  0.
    8880022    1    1    2    0    0  0.21022759910E+03  0.20116233731E+03  0.52152557491E+03  0.61647587761E+03  0.15294330000E+03 0.  0.
<mgrwt>
<rscale>  0 0.32871505E+03</rscale>
<asrwt>0</asrwt>
<pdfrwt beam="1">  1        4 0.10375695E-01 0.32871505E+03</pdfrwt>
<pdfrwt beam="2">  1       -4 0.29567872E+00 0.32871505E+03</pdfrwt>
<totfact> 0.50210371E+00</totfact>
</mgrwt>
</event>
<event>
 4    1  0.8478300E-009  0.2493908E+03  0.7818608E-02  0.1113690E+00
         -4   -1    0    0    0  501 -0.00000000000E+00  0.00000000000E+00  0.11502580376E+04  0.11502587387E+04  0.12700000000E+01 0. -1.
          4   -1    0    0  501    0  0.00000000000E+00 -0.00000000000E+00 -0.54286318182E+02  0.54301171642E+02  0.12700000000E+01 0. -1.
    8880022    1    1    2    0    0 -0.19601025670E+03  0.19598454853E+02  0.58661176447E+03  0.63742382713E+03  0.15294330000E+03 0.  0.
    8880022    1    1    2    0    0  0.19601025670E+03 -0.19598454853E+02  0.50935995493E+03  0.56713608320E+03  0.15294330000E+03 0.  0.
<mgrwt>
<rscale>  0 0.24939080E+03</rscale>
<asrwt>0</asrwt>
<pdfrwt beam="1">  1        4 0.83529382E-02 0.24939080E+03</pdfrwt>
<pdfrwt beam="2">  1       -4 0.17696396E+00 0.24939080E+03</pdfrwt>
<totfact> 0.38200519E+01</totfact>
</mgrwt>
</event>
<event>
 4    1  0.8478300E-009  0.2330399E+03  0.7818608E-02  0.1124518E+00
          4   -1    0    0  501    0  0.00000000000E+00  0.00000000000E+00  0.63906183335E+03  0.63906309528E+03  0.12700000000E+01 0. -1.
         -4   -1    0    0    0  501 -0.00000000000E+00 -0.00000000000E+00 -0.86037385359E+02  0.86046758100E+02  0.12700000000E+01 0. -1.
    8880022    1    1    2    0    0 -0.18524195968E+02 -0.17485080966E+03  0.31681413170E+03  0.39329225588E+03  0.15294330000E+03 0.  0.
    8880022    1    1    2    0    0  0.18524195968E+02  0.17485080966E+03  0.23621031629E+03  0.33181759750E+03  0.15294330000E+03 0.  0.
<mgrwt>
<rscale>  0 0.23303992E+03</rscale>
<asrwt>0</asrwt>
<pdfrwt beam="1">  1        4 0.98318027E-01 0.23303992E+03</pdfrwt>
<pdfrwt beam="2">  1       -4 0.13237338E-01 0.23303992E+03</pdfrwt>
<totfact> 0.75537309E+01</totfact>
</mgrwt>
</event>
<event>
 4    1  0.8478300E-009  0.2305772E+03  0.7818608E-02  0.1126234E+00
         -4   -1    0    0    0  501 -0.00000000000E+00  0.00000000000E+00  0.82043906600E+03  0.82044004895E+03  0.12700000000E+01 0.  1.
          4   -1    0    0  501    0  0.00000000000E+00 -0.00000000000E+00 -0.71768658194E+02  0.71779894113E+02  0.12700000000E+01 0.  1.
    8880022    1    1    2    0    0  0.13620713966E+03  0.10593305315E+03  0.51338900588E+03  0.56279136545E+03  0.15294330000E+03 0.  0.
    8880022    1    1    2    0    0 -0.13620713966E+03 -0.10593305315E+03  0.23528140192E+03  0.32942857762E+03  0.15294330000E+03 0.  0.
<mgrwt>
<rscale>  0 0.23057721E+03</rscale>
<asrwt>0</asrwt>
<pdfrwt beam="1">  1        4 0.11042273E-01 0.23057721E+03</pdfrwt>
<pdfrwt beam="2">  1       -4 0.12622233E+00 0.23057721E+03</pdfrwt>
<totfact> 0.56719447E+01</totfact>
</mgrwt>
</event>
<event>
 4    1  0.8478300E-009  0.2707565E+03  0.7818608E-02  0.1100847E+00
          4   -1    0    0  501    0  0.00000000000E+00  0.00000000000E+00  0.25524473515E+03  0.25524789465E+03  0.12700000000E+01 0. -1.
         -4   -1    0    0    0  501 -0.00000000000E+00 -0.00000000000E+00 -0.41723347974E+03  0.41723541258E+03  0.12700000000E+01 0. -1.
    8880022    1    1    2    0    0 -0.50939319667E+02 -0.21753767642E+03 -0.26870064725E+03  0.38145661063E+03  0.15294330000E+03 0.  0.
    8880022    1    1    2    0    0  0.50939319667E+02  0.21753767642E+03  0.10671190266E+03  0.29102669660E+03  0.15294330000E+03 0.  0.
<mgrwt>
<rscale>  0 0.27075655E+03</rscale>
<asrwt>0</asrwt>
<pdfrwt beam="1">  1        4 0.39268812E-01 0.27075655E+03</pdfrwt>
<pdfrwt beam="2">  1       -4 0.64190158E-01 0.27075655E+03</pdfrwt>
<totfact> 0.26532446E+01</totfact>
</mgrwt>
</event>
<event>
 4    1  0.8478300E-009  0.4431953E+03  0.7818608E-02  0.1029771E+00
          4   -1    0    0  501    0  0.00000000000E+00  0.00000000000E+00  0.21886980793E+04  0.21886984478E+04  0.12700000000E+01 0.  1.
         -4   -1    0    0    0  501 -0.00000000000E+00 -0.00000000000E+00 -0.90178953480E+02  0.90187895811E+02  0.12700000000E+01 0.  1.
    8880022    1    1    2    0    0  0.89283154933E+02  0.40627441690E+03  0.96966828478E+03  0.10661513115E+04  0.15294330000E+03 0.  0.
    8880022    1    1    2    0    0 -0.89283154933E+02 -0.40627441690E+03  0.11288508411E+04  0.12127350321E+04  0.15294330000E+03 0.  0.
<mgrwt>
<rscale>  0 0.44319526E+03</rscale>
<asrwt>0</asrwt>
<pdfrwt beam="1">  1        4 0.33672352E+00 0.44319526E+03</pdfrwt>
<pdfrwt beam="2">  1       -4 0.13874400E-01 0.44319526E+03</pdfrwt>
<totfact> 0.16995373E+00</totfact>
</mgrwt>
</event>
<event>
 4    1  0.8478300E-009  0.1690891E+03  0.7818608E-02  0.1178801E+00
          4   -1    0    0  501    0  0.00000000000E+00  0.00000000000E+00  0.61749659927E+02  0.61762718537E+02  0.12700000000E+01 0.  1.
         -4   -1    0    0    0  501 -0.00000000000E+00 -0.00000000000E+00 -0.46333862083E+03  0.46334036135E+03  0.12700000000E+01 0.  1.
    8880022    1    1    2    0    0  0.64042321346E+02  0.33136865058E+02 -0.19322827459E+03  0.25676504798E+03  0.15294330000E+03 0. -1.
    8880022    1    1    2    0    0 -0.64042321346E+02 -0.33136865058E+02 -0.20836068632E+03  0.26833803190E+03  0.15294330000E+03 0. -1.
<mgrwt>
<rscale>  0 0.16908910E+03</rscale>
<asrwt>0</asrwt>
<pdfrwt beam="1">  1        4 0.95010864E-02 0.16908910E+03</pdfrwt>
<pdfrwt beam="2">  1       -4 0.71284001E-01 0.16908910E+03</pdfrwt>
<totfact> 0.26264206E+02</totfact>
</mgrwt>
</event>
<event>
 4    1  0.8478300E-009  0.2361307E+03  0.7818608E-02  0.1122398E+00
          4   -1    0    0  501    0  0.00000000000E+00  0.00000000000E+00  0.17232330316E+03  0.17232798297E+03  0.12700000000E+01 0. -1.
         -4   -1    0    0    0  501 -0.00000000000E+00 -0.00000000000E+00 -0.32579454533E+03  0.32579702065E+03  0.12700000000E+01 0. -1.
    8880022    1    1    2    0    0 -0.13331034373E+03  0.12080733978E+03 -0.56082531079E+02  0.24269932920E+03  0.15294330000E+03 0.  0.
    8880022    1    1    2    0    0  0.13331034373E+03 -0.12080733978E+03 -0.97388711083E+02  0.25542567441E+03  0.15294330000E+03 0.  0.
<mgrwt>
<rscale>  0 0.23613071E+03</rscale>
<asrwt>0</asrwt>
<pdfrwt beam="1">  1        4 0.26511828E-01 0.23613071E+03</pdfrwt>
<pdfrwt beam="2">  1       -4 0.50122788E-01 0.23613071E+03</pdfrwt>
<totfact> 0.94069416E+01</totfact>
</mgrwt>
</event>
<event>
 4    1  0.8478300E-009  0.1649380E+03  0.7818608E-02  0.1183232E+00
         -4   -1    0    0    0  501 -0.00000000000E+00  0.00000000000E+00  0.18841245786E+03  0.18841673804E+03  0.12700000000E+01 0. -1.
          4   -1    0    0  501    0  0.00000000000E+00 -0.00000000000E+00 -0.17151061170E+03  0.17151531368E+03  0.12700000000E+01 0. -1.
    8880022    1    1    2    0    0  0.42094513399E+02 -0.45176697745E+02 -0.63125010184E+02  0.17660493199E+03  0.15294330000E+03 0. -1.
    8880022    1    1    2    0    0 -0.42094513399E+02  0.45176697745E+02  0.80026856341E+02  0.18332711973E+03  0.15294330000E+03 0. -1.
<mgrwt>
<rscale>  0 0.16493797E+03</rscale>
<asrwt>0</asrwt>
<pdfrwt beam="1">  1        4 0.26386939E-01 0.16493797E+03</pdfrwt>
<pdfrwt beam="2">  1       -4 0.28987223E-01 0.16493797E+03</pdfrwt>
<totfact> 0.26503850E+02</totfact>
</mgrwt>
</event>
<event>
 4    1  0.8478300E-009  0.3590883E+03  0.7818608E-02  0.1058945E+00
          4   -1    0    0  501    0  0.00000000000E+00  0.00000000000E+00  0.26413517907E+03  0.26413823222E+03  0.12700000000E+01 0.  1.
         -4   -1    0    0    0  501 -0.00000000000E+00 -0.00000000000E+00 -0.80158807075E+03  0.80158907681E+03  0.12700000000E+01 0.  1.
    8880022    1    1    2    0    0  0.20368151114E+03 -0.25311382702E+03  0.64471167671E+02  0.36483003150E+03  0.15294330000E+03 0.  0.
    8880022    1    1    2    0    0 -0.20368151114E+03  0.25311382702E+03 -0.60192405935E+03  0.70089727753E+03  0.15294330000E+03 0.  0.
<mgrwt>
<rscale>  0 0.35908832E+03</rscale>
<asrwt>0</asrwt>
<pdfrwt beam="1">  1        4 0.40636494E-01 0.35908832E+03</pdfrwt>
<pdfrwt beam="2">  1       -4 0.12332155E+00 0.35908832E+03</pdfrwt>
<totfact> 0.56180575E+00</totfact>
</mgrwt>
</event>
<event>
 4    1  0.8478300E-009  0.2393207E+03  0.7818608E-02  0.1120246E+00
         -4   -1    0    0    0  501 -0.00000000000E+00  0.00000000000E+00  0.22518759691E+04  0.22518763272E+04  0.12700000000E+01 0.  1.
          4   -1    0    0  501    0  0.00000000000E+00 -0.00000000000E+00 -0.25518044598E+02  0.25549628180E+02  0.12700000000E+01 0.  1.
    8880022    1    1    2    0    0  0.18333183835E+03 -0.16498184971E+02  0.10418782233E+04  0.10690110561E+04  0.15294330000E+03 0.  0.
    8880022    1    1    2    0    0 -0.18333183835E+03  0.16498184971E+02  0.11844797013E+04  0.12084148993E+04  0.15294330000E+03 0.  0.
<mgrwt>
<rscale>  0 0.23932072E+03</rscale>
<asrwt>0</asrwt>
<pdfrwt beam="1">  1        4 0.39283124E-02 0.23932072E+03</pdfrwt>
<pdfrwt beam="2">  1       -4 0.34644470E+00 0.23932072E+03</pdfrwt>
<totfact> 0.12282409E+01</totfact>
</mgrwt>
</event>
<event>
 4    1  0.8478300E-009  0.1836249E+03  0.7818608E-02  0.1164340E+00
         -4   -1    0    0    0  501 -0.00000000000E+00  0.00000000000E+00  0.15760808116E+03  0.15761319789E+03  0.12700000000E+01 0.  1.
          4   -1    0    0  501    0  0.00000000000E+00 -0.00000000000E+00 -0.21401842778E+03  0.21402219588E+03  0.12700000000E+01 0.  1.
    8880022    1    1    2    0    0 -0.20124508283E+02  0.99606446178E+02 -0.24340483469E+02  0.18523107759E+03  0.15294330000E+03 0.  0.
    8880022    1    1    2    0    0  0.20124508283E+02 -0.99606446178E+02 -0.32069863151E+02  0.18640431618E+03  0.15294330000E+03 0.  0.
<mgrwt>
<rscale>  0 0.18362487E+03</rscale>
<asrwt>0</asrwt>
<pdfrwt beam="1">  1        4 0.32926595E-01 0.18362487E+03</pdfrwt>
<pdfrwt beam="2">  1       -4 0.24248081E-01 0.18362487E+03</pdfrwt>
<totfact> 0.24748673E+02</totfact>
</mgrwt>
</event>
<event>
 4    1  0.8478300E-009  0.2649586E+03  0.7818608E-02  0.1104200E+00
          4   -1    0    0  501    0  0.00000000000E+00  0.00000000000E+00  0.69728672935E+03  0.69728788591E+03  0.12700000000E+01 0.  1.
         -4   -1    0    0    0  501 -0.00000000000E+00 -0.00000000000E+00 -0.10229701228E+03  0.10230489539E+03  0.12700000000E+01 0.  1.
    8880022    1    1    2    0    0 -0.20040370997E+02 -0.21542927530E+03  0.34783411798E+03  0.43725463493E+03  0.15294330000E+03 0.  0.
    8880022    1    1    2    0    0  0.20040370997E+02  0.21542927530E+03  0.24715559910E+03  0.36233814636E+03  0.15294330000E+03 0.  0.
<mgrwt>
<rscale>  0 0.26495857E+03</rscale>
<asrwt>0</asrwt>
<pdfrwt beam="1">  1        4 0.10727558E+00 0.26495857E+03</pdfrwt>
<pdfrwt beam="2">  1       -4 0.15738697E-01 0.26495857E+03</pdfrwt>
<totfact> 0.45969826E+01</totfact>
</mgrwt>
</event>
<event>
 4    1  0.8478300E-009  0.2255981E+03  0.7818608E-02  0.1129777E+00
          4   -1    0    0  501    0  0.00000000000E+00  0.00000000000E+00  0.17221855489E+03  0.17222323754E+03  0.12700000000E+01 0.  1.
         -4   -1    0    0    0  501 -0.00000000000E+00 -0.00000000000E+00 -0.49064358439E+03  0.49064522805E+03  0.12700000000E+01 0.  1.
    8880022    1    1    2    0    0 -0.10159660224E+03  0.13107616075E+03 -0.36822604615E+03  0.43183897877E+03  0.15294330000E+03 0.  0.
    8880022    1    1    2    0    0  0.10159660224E+03 -0.13107616075E+03  0.49801016645E+02  0.23102948682E+03  0.15294330000E+03 0.  0.
<mgrwt>
<rscale>  0 0.22559806E+03</rscale>
<asrwt>0</asrwt>
<pdfrwt beam="1">  1        4 0.26495649E-01 0.22559806E+03</pdfrwt>
<pdfrwt beam="2">  1       -4 0.75484115E-01 0.22559806E+03</pdfrwt>
<totfact> 0.39106606E+01</totfact>
</mgrwt>
</event>
<event>
 4    1  0.8478300E-009  0.2115961E+03  0.7818608E-02  0.1140308E+00
         -4   -1    0    0    0  501 -0.00000000000E+00  0.00000000000E+00  0.70917443337E+02  0.70928814099E+02  0.12700000000E+01 0.  1.
          4   -1    0    0  501    0  0.00000000000E+00 -0.00000000000E+00 -0.69537497865E+03  0.69537613839E+03  0.12700000000E+01 0.  1.
    8880022    1    1    2    0    0 -0.11956667272E+03 -0.84172832263E+02 -0.42855678953E+03  0.47794751782E+03  0.15294330000E+03 0.  0.
    8880022    1    1    2    0    0  0.11956667272E+03  0.84172832263E+02 -0.19590074578E+03  0.28835743467E+03  0.15294330000E+03 0.  0.
<mgrwt>
<rscale>  0 0.21159610E+03</rscale>
<asrwt>0</asrwt>
<pdfrwt beam="1">  1        4 0.10698173E+00 0.21159610E+03</pdfrwt>
<pdfrwt beam="2">  1       -4 0.10911340E-01 0.21159610E+03</pdfrwt>
<totfact> 0.85424783E+01</totfact>
</mgrwt>
</event>
<event>
 4    1  0.8478300E-009  0.1748291E+03  0.7818608E-02  0.1172903E+00
          4   -1    0    0  501    0  0.00000000000E+00  0.00000000000E+00  0.16138408036E+02  0.16188301762E+02  0.12700000000E+01 0.  1.
         -4   -1    0    0    0  501 -0.00000000000E+00 -0.00000000000E+00 -0.24993971618E+04  0.24993974844E+04  0.12700000000E+01 0.  1.
    8880022    1    1    2    0    0  0.57653723621E+02 -0.62045267430E+02 -0.18622005955E+04  0.18703893386E+04  0.15294330000E+03 0.  0.
    8880022    1    1    2    0    0 -0.57653723621E+02  0.62045267430E+02 -0.62105815826E+03  0.64519644761E+03  0.15294330000E+03 0.  0.
<mgrwt>
<rscale>  0 0.17482912E+03</rscale>
<asrwt>0</asrwt>
<pdfrwt beam="1">  1        4 0.24866968E-02 0.17482912E+03</pdfrwt>
<pdfrwt beam="2">  1       -4 0.38452620E+00 0.17482912E+03</pdfrwt>
<totfact> 0.14395518E+01</totfact>
</mgrwt>
</event>
<event>
 4    1  0.8478300E-009  0.2766722E+03  0.7818608E-02  0.1097521E+00
          4   -1    0    0  501    0  0.00000000000E+00  0.00000000000E+00  0.61805430959E+02  0.61818477788E+02  0.12700000000E+01 0.  1.
         -4   -1    0    0    0  501 -0.00000000000E+00 -0.00000000000E+00 -0.12389168256E+04  0.12389174765E+04  0.12700000000E+01 0.  1.
    8880022    1    1    2    0    0 -0.20562201007E+03 -0.10428540910E+03 -0.60209445235E+03  0.66261998170E+03  0.15294330000E+03 0.  0.
    8880022    1    1    2    0    0  0.20562201007E+03  0.10428540910E+03 -0.57501694225E+03  0.63811597259E+03  0.15294330000E+03 0.  0.
<mgrwt>
<rscale>  0 0.27667221E+03</rscale>
<asrwt>0</asrwt>
<pdfrwt beam="1">  1        4 0.95095825E-02 0.27667221E+03</pdfrwt>
<pdfrwt beam="2">  1       -4 0.19060362E+00 0.27667221E+03</pdfrwt>
<totfact> 0.25119346E+01</totfact>
</mgrwt>
</event>
<event>
 4    1  0.8478300E-009  0.1592102E+03  0.7818608E-02  0.1189591E+00
          4   -1    0    0  501    0  0.00000000000E+00  0.00000000000E+00  0.59759708766E+02  0.59773202121E+02  0.12700000000E+01 0. -1.
         -4   -1    0    0    0  501 -0.00000000000E+00 -0.00000000000E+00 -0.48629019488E+03  0.48629185325E+03  0.12700000000E+01 0. -1.
    8880022    1    1    2    0    0  0.40289055325E+02 -0.18249453118E+02 -0.11562795265E+03  0.19676820619E+03  0.15294330000E+03 0.  0.
    8880022    1    1    2    0    0 -0.40289055325E+02  0.18249453118E+02 -0.31090253346E+03  0.34929684918E+03  0.15294330000E+03 0.  0.
<mgrwt>
<rscale>  0 0.15921025E+03</rscale>
<asrwt>0</asrwt>
<pdfrwt beam="1">  1        4 0.91949672E-02 0.15921025E+03</pdfrwt>
<pdfrwt beam="2">  1       -4 0.74815039E-01 0.15921025E+03</pdfrwt>
<totfact> 0.24727482E+02</totfact>
</mgrwt>
</event>
<event>
 4    1  0.8478300E-009  0.2001691E+03  0.7818608E-02  0.1149596E+00
         -4   -1    0    0    0  501 -0.00000000000E+00  0.00000000000E+00  0.37516353553E+03  0.37516568512E+03  0.12700000000E+01 0.  1.
          4   -1    0    0  501    0  0.00000000000E+00 -0.00000000000E+00 -0.11989087475E+03  0.11989760110E+03  0.12700000000E+01 0.  1.
    8880022    1    1    2    0    0 -0.11985051669E+03  0.48081984258E+02  0.20944497228E+03  0.28971515837E+03  0.15294330000E+03 0. -1.
    8880022    1    1    2    0    0  0.11985051669E+03 -0.48081984258E+02  0.45827688490E+02  0.20534812784E+03  0.15294330000E+03 0. -1.
<mgrwt>
<rscale>  0 0.20016912E+03</rscale>
<asrwt>0</asrwt>
<pdfrwt beam="1">  1        4 0.18445433E-01 0.20016912E+03</pdfrwt>
<pdfrwt beam="2">  1       -4 0.57718149E-01 0.20016912E+03</pdfrwt>
<totfact> 0.13361672E+02</totfact>
</mgrwt>
</event>
<event>
 4    1  0.8478300E-009  0.2746128E+03  0.7818608E-02  0.1098668E+00
         -4   -1    0    0    0  501 -0.00000000000E+00  0.00000000000E+00  0.31885822669E+03  0.31886075586E+03  0.12700000000E+01 0.  1.
          4   -1    0    0  501    0  0.00000000000E+00 -0.00000000000E+00 -0.23681987175E+03  0.23682327706E+03  0.12700000000E+01 0.  1.
    8880022    1    1    2    0    0  0.21185806838E+03 -0.84478922283E+02  0.51202044499E+02  0.27934536299E+03  0.15294330000E+03 0.  0.
    8880022    1    1    2    0    0 -0.21185806838E+03  0.84478922283E+02  0.30836310440E+02  0.27633866994E+03  0.15294330000E+03 0.  0.
<mgrwt>
<rscale>  0 0.27461279E+03</rscale>
<asrwt>0</asrwt>
<pdfrwt beam="1">  1        4 0.36434283E-01 0.27461279E+03</pdfrwt>
<pdfrwt beam="2">  1       -4 0.49055568E-01 0.27461279E+03</pdfrwt>
<totfact> 0.54288889E+01</totfact>
</mgrwt>
</event>
<event>
 4    1  0.8478300E-009  0.1745212E+03  0.7818608E-02  0.1173213E+00
         -4   -1    0    0    0  501 -0.00000000000E+00  0.00000000000E+00  0.61661919244E+02  0.61674996432E+02  0.12700000000E+01 0.  1.
          4   -1    0    0  501    0  0.00000000000E+00 -0.00000000000E+00 -0.49758720685E+03  0.49758882757E+03  0.12700000000E+01 0.  1.
    8880022    1    1    2    0    0  0.83672529733E+02  0.80568966503E+01 -0.19382559031E+03  0.26081797923E+03  0.15294330000E+03 0.  0.
    8880022    1    1    2    0    0 -0.83672529733E+02 -0.80568966503E+01 -0.24209969730E+03  0.29844584477E+03  0.15294330000E+03 0.  0.
<mgrwt>
<rscale>  0 0.17452123E+03</rscale>
<asrwt>0</asrwt>
<pdfrwt beam="1">  1        4 0.76553006E-01 0.17452123E+03</pdfrwt>
<pdfrwt beam="2">  1       -4 0.94875801E-02 0.17452123E+03</pdfrwt>
<totfact> 0.22635743E+02</totfact>
</mgrwt>
</event>
<event>
 4    1  0.8478300E-009  0.2004368E+03  0.7818608E-02  0.1149371E+00
         -4   -1    0    0    0  501 -0.00000000000E+00  0.00000000000E+00  0.47225745371E+03  0.47225916135E+03  0.12700000000E+01 0.  1.
          4   -1    0    0  501    0  0.00000000000E+00 -0.00000000000E+00 -0.10878058067E+03  0.10878799396E+03  0.12700000000E+01 0.  1.
    8880022    1    1    2    0    0 -0.12919585191E+03  0.95752674005E+01  0.46089109079E+02  0.20566748136E+03  0.15294330000E+03 0.  0.
    8880022    1    1    2    0    0  0.12919585191E+03 -0.95752674005E+01  0.31738776396E+03  0.37537967396E+03  0.15294330000E+03 0.  0.
<mgrwt>
<rscale>  0 0.20043679E+03</rscale>
<asrwt>0</asrwt>
<pdfrwt beam="1">  1        4 0.16736175E-01 0.20043679E+03</pdfrwt>
<pdfrwt beam="2">  1       -4 0.72655696E-01 0.20043679E+03</pdfrwt>
<totfact> 0.97041841E+01</totfact>
</mgrwt>
</event>
<event>
 4    1  0.8478300E-009  0.1693334E+03  0.7818608E-02  0.1178545E+00
         -4   -1    0    0    0  501 -0.00000000000E+00  0.00000000000E+00  0.21971158726E+03  0.21971525773E+03  0.12700000000E+01 0.  1.
          4   -1    0    0  501    0  0.00000000000E+00 -0.00000000000E+00 -0.52160629775E+03  0.52160784384E+03  0.12700000000E+01 0. -1.
    8880022    1    1    2    0    0  0.47458858585E+02  0.55043751372E+02  0.17001277787E+03  0.23995448626E+03  0.15294330000E+03 0.  1.
    8880022    1    1    2    0    0 -0.47458858585E+02 -0.55043751372E+02 -0.47190748836E+03  0.50136861530E+03  0.15294330000E+03 0.  0.
<mgrwt>
<rscale>  0 0.16933343E+03</rscale>
<asrwt>0</asrwt>
<pdfrwt beam="1">  1        4 0.80247524E-01 0.16933343E+03</pdfrwt>
<pdfrwt beam="2">  1       -4 0.33802184E-01 0.16933343E+03</pdfrwt>
<totfact> 0.20800789E+01</totfact>
</mgrwt>
</event>
<event>
 4    1  0.8478300E-009  0.1841210E+03  0.7818608E-02  0.1163873E+00
         -4   -1    0    0    0  501 -0.00000000000E+00  0.00000000000E+00  0.47442342053E+03  0.47442512038E+03  0.12700000000E+01 0. -1.
          4   -1    0    0  501    0  0.00000000000E+00 -0.00000000000E+00 -0.72355117053E+02  0.72366261917E+02  0.12700000000E+01 0. -1.
    8880022    1    1    2    0    0 -0.65521177422E+02  0.78840747475E+02  0.23162925747E+03  0.29589297741E+03  0.15294330000E+03 0.  0.
    8880022    1    1    2    0    0  0.65521177422E+02 -0.78840747475E+02  0.17043904601E+03  0.25089840488E+03  0.15294330000E+03 0.  0.
<mgrwt>
<rscale>  0 0.18412100E+03</rscale>
<asrwt>0</asrwt>
<pdfrwt beam="1">  1        4 0.11132545E-01 0.18412100E+03</pdfrwt>
<pdfrwt beam="2">  1       -4 0.72989207E-01 0.18412100E+03</pdfrwt>
<totfact> 0.19319449E+02</totfact>
</mgrwt>
</event>
<event>
 4    1  0.8478300E-009  0.1764552E+03  0.7818608E-02  0.1171278E+00
          4   -1    0    0  501    0  0.00000000000E+00  0.00000000000E+00  0.86263649644E+03  0.86263743131E+03  0.12700000000E+01 0. -1.
         -4   -1    0    0    0  501 -0.00000000000E+00 -0.00000000000E+00 -0.55580828422E+02  0.55595336028E+02  0.12700000000E+01 0. -1.
    8880022    1    1    2    0    0 -0.83658711688E+02  0.27313259018E+02  0.67541240909E+03  0.69808192178E+03  0.15294330000E+03 0.  0.
    8880022    1    1    2    0    0  0.83658711688E+02 -0.27313259018E+02  0.13164325893E+03  0.22015084555E+03  0.15294330000E+03 0.  0.
<mgrwt>
<rscale>  0 0.17645523E+03</rscale>
<asrwt>0</asrwt>
<pdfrwt beam="1">  1        4 0.13271448E+00 0.17645523E+03</pdfrwt>
<pdfrwt beam="2">  1       -4 0.85520853E-02 0.17645523E+03</pdfrwt>
<totfact> 0.74788818E+01</totfact>
</mgrwt>
</event>
<event>
 4    1  0.8478300E-009  0.2113794E+03  0.7818608E-02  0.1140478E+00
          4   -1    0    0  501    0  0.00000000000E+00  0.00000000000E+00  0.56132685254E+03  0.56132828923E+03  0.12700000000E+01 0.  1.
         -4   -1    0    0    0  501 -0.00000000000E+00 -0.00000000000E+00 -0.11826399360E+04  0.11826406179E+04  0.12700000000E+01 0.  1.
    8880022    1    1    2    0    0 -0.65512027541E+02 -0.13037543345E+03 -0.11527848544E+04  0.11720043315E+04  0.15294330000E+03 0.  0.
    8880022    1    1    2    0    0  0.65512027541E+02  0.13037543345E+03  0.53147177099E+03  0.57196457563E+03  0.15294330000E+03 0.  0.
<mgrwt>
<rscale>  0 0.21137936E+03</rscale>
<asrwt>0</asrwt>
<pdfrwt beam="1">  1        4 0.86358140E-01 0.21137936E+03</pdfrwt>
<pdfrwt beam="2">  1       -4 0.18194477E+00 0.21137936E+03</pdfrwt>
<totfact> 0.40210829E-01</totfact>
</mgrwt>
</event>
<event>
 4    1  0.8478300E-009  0.1818794E+03  0.7818608E-02  0.1165996E+00
          4   -1    0    0  501    0  0.00000000000E+00  0.00000000000E+00  0.28328494397E+02  0.28356947911E+02  0.12700000000E+01 0.  1.
         -4   -1    0    0    0  501 -0.00000000000E+00 -0.00000000000E+00 -0.11799159088E+04  0.11799165923E+04  0.12700000000E+01 0.  1.
    8880022    1    1    2    0    0  0.97435316774E+02 -0.13958231441E+02 -0.51287671615E+03  0.54417152825E+03  0.15294330000E+03 0.  0.
    8880022    1    1    2    0    0 -0.97435316774E+02  0.13958231441E+02 -0.63871069826E+03  0.66410201194E+03  0.15294330000E+03 0.  0.
<mgrwt>
<rscale>  0 0.18187943E+03</rscale>
<asrwt>0</asrwt>
<pdfrwt beam="1">  1        4 0.43604721E-02 0.18187943E+03</pdfrwt>
<pdfrwt beam="2">  1       -4 0.18152773E+00 0.18187943E+03</pdfrwt>
<totfact> 0.10001171E+02</totfact>
</mgrwt>
</event>
<event>
 4    1  0.8478300E-009  0.1842156E+03  0.7818608E-02  0.1163784E+00
         -4   -1    0    0    0  501 -0.00000000000E+00  0.00000000000E+00  0.57329263027E+02  0.57343328289E+02  0.12700000000E+01 0. -1.
          4   -1    0    0  501    0  0.00000000000E+00 -0.00000000000E+00 -0.64736527676E+03  0.64736652250E+03  0.12700000000E+01 0. -1.
    8880022    1    1    2    0    0 -0.53923753721E+02 -0.87383946241E+02 -0.19183608938E+03  0.26596327468E+03  0.15294330000E+03 0.  0.
    8880022    1    1    2    0    0  0.53923753721E+02  0.87383946241E+02 -0.39819992435E+03  0.43874657611E+03  0.15294330000E+03 0.  0.
<mgrwt>
<rscale>  0 0.18421558E+03</rscale>
<asrwt>0</asrwt>
<pdfrwt beam="1">  1        4 0.99595830E-01 0.18421558E+03</pdfrwt>
<pdfrwt beam="2">  1       -4 0.88210649E-02 0.18421558E+03</pdfrwt>
<totfact> 0.14227194E+02</totfact>
</mgrwt>
</event>
<event>
 4    1  0.8478300E-009  0.2043808E+03  0.7818608E-02  0.1146095E+00
         -4   -1    0    0    0  501 -0.00000000000E+00  0.00000000000E+00  0.17402751404E+03  0.17403214802E+03  0.12700000000E+01 0. -1.
          4   -1    0    0  501    0  0.00000000000E+00 -0.00000000000E+00 -0.33618420992E+03  0.33618660875E+03  0.12700000000E+01 0. -1.
    8880022    1    1    2    0    0  0.70982319459E+02  0.11550485992E+03 -0.21751861154E+03  0.29847254768E+03  0.15294330000E+03 0.  0.
    8880022    1    1    2    0    0 -0.70982319459E+02 -0.11550485992E+03  0.55361915658E+02  0.21174620908E+03  0.15294330000E+03 0.  0.
<mgrwt>
<rscale>  0 0.20438081E+03</rscale>
<asrwt>0</asrwt>
<pdfrwt beam="1">  1        4 0.51721189E-01 0.20438081E+03</pdfrwt>
<pdfrwt beam="2">  1       -4 0.26774005E-01 0.20438081E+03</pdfrwt>
<totfact> 0.84966367E+01</totfact>
</mgrwt>
</event>
<event>
 4    1  0.8478300E-009  0.2562995E+03  0.7818608E-02  0.1109387E+00
         -4   -1    0    0    0  501 -0.00000000000E+00  0.00000000000E+00  0.35953209684E+03  0.35953433989E+03  0.12700000000E+01 0.  1.
          4   -1    0    0  501    0  0.00000000000E+00 -0.00000000000E+00 -0.38686133112E+03  0.38686341572E+03  0.12700000000E+01 0.  1.
    8880022    1    1    2    0    0  0.20411726434E+03  0.25177557045E+02  0.25744384433E+03  0.36327228490E+03  0.15294330000E+03 0.  0.
    8880022    1    1    2    0    0 -0.20411726434E+03 -0.25177557045E+02 -0.28477307862E+03  0.38312547070E+03  0.15294330000E+03 0.  0.
<mgrwt>
<rscale>  0 0.25629947E+03</rscale>
<asrwt>0</asrwt>
<pdfrwt beam="1">  1        4 0.59517460E-01 0.25629947E+03</pdfrwt>
<pdfrwt beam="2">  1       -4 0.55312963E-01 0.25629947E+03</pdfrwt>
<totfact> 0.15418387E+01</totfact>
</mgrwt>
</event>
<event>
 4    1  0.8478300E-009  0.2910902E+03  0.7818608E-02  0.1089781E+00
         -4   -1    0    0    0  501 -0.00000000000E+00  0.00000000000E+00  0.43359565210E+03  0.43359751201E+03  0.12700000000E+01 0.  1.
          4   -1    0    0  501    0  0.00000000000E+00 -0.00000000000E+00 -0.26719071197E+03  0.26719373021E+03  0.12700000000E+01 0.  1.
    8880022    1    1    2    0    0  0.17194762664E+03  0.17825778623E+03 -0.98402963907E+02  0.30727287707E+03  0.15294330000E+03 0.  0.
    8880022    1    1    2    0    0 -0.17194762664E+03 -0.17825778623E+03  0.26480790403E+03  0.39351836515E+03  0.15294330000E+03 0.  0.
<mgrwt>
<rscale>  0 0.29109015E+03</rscale>
<asrwt>0</asrwt>
<pdfrwt beam="1">  1        4 0.41106639E-01 0.29109015E+03</pdfrwt>
<pdfrwt beam="2">  1       -4 0.66707398E-01 0.29109015E+03</pdfrwt>
<totfact> 0.22428168E+01</totfact>
</mgrwt>
</event>
<event>
 4    1  0.8478300E-009  0.2252834E+03  0.7818608E-02  0.1130004E+00
          4   -1    0    0  501    0  0.00000000000E+00  0.00000000000E+00  0.44682415063E+03  0.44682595548E+03  0.12700000000E+01 0. -1.
         -4   -1    0    0    0  501 -0.00000000000E+00 -0.00000000000E+00 -0.11416733346E+03  0.11417439699E+03  0.12700000000E+01 0. -1.
    8880022    1    1    2    0    0 -0.66423937428E+02 -0.15148864317E+03  0.18645346826E+03  0.29243374859E+03  0.15294330000E+03 0. -1.
    8880022    1    1    2    0    0  0.66423937428E+02  0.15148864317E+03  0.14620334892E+03  0.26856660388E+03  0.15294330000E+03 0. -1.
<mgrwt>
<rscale>  0 0.22528338E+03</rscale>
<asrwt>0</asrwt>
<pdfrwt beam="1">  1        4 0.68742857E-01 0.22528338E+03</pdfrwt>
<pdfrwt beam="2">  1       -4 0.17564888E-01 0.22528338E+03</pdfrwt>
<totfact> 0.10199938E+02</totfact>
</mgrwt>
</event>
<event>
 4    1  0.8478300E-009  0.1747573E+03  0.7818608E-02  0.1172976E+00
          4   -1    0    0  501    0  0.00000000000E+00  0.00000000000E+00  0.21200352973E+03  0.21200733364E+03  0.12700000000E+01 0. -1.
         -4   -1    0    0    0  501 -0.00000000000E+00 -0.00000000000E+00 -0.17025647878E+03  0.17026121539E+03  0.12700000000E+01 0. -1.
    8880022    1    1    2    0    0  0.43991772128E+02 -0.72202401237E+02 -0.54116878412E+02  0.18294467006E+03  0.15294330000E+03 0.  0.
    8880022    1    1    2    0    0 -0.43991772128E+02  0.72202401237E+02  0.95863929364E+02  0.19932387897E+03  0.15294330000E+03 0.  0.
<mgrwt>
<rscale>  0 0.17475731E+03</rscale>
<asrwt>0</asrwt>
<pdfrwt beam="1">  1        4 0.32616584E-01 0.17475731E+03</pdfrwt>
<pdfrwt beam="2">  1       -4 0.26193962E-01 0.17475731E+03</pdfrwt>
<totfact> 0.21662879E+02</totfact>
</mgrwt>
</event>
<event>
 4    1  0.8478300E-009  0.2125283E+03  0.7818608E-02  0.1139579E+00
          4   -1    0    0  501    0  0.00000000000E+00  0.00000000000E+00  0.29486428698E+02  0.29513765896E+02  0.12700000000E+01 0. -1.
         -4   -1    0    0    0  501 -0.00000000000E+00 -0.00000000000E+00 -0.15470047280E+04  0.15470052493E+04  0.12700000000E+01 0. -1.
    8880022    1    1    2    0    0 -0.13090092284E+03  0.68129115844E+02 -0.67882290103E+03  0.71131484731E+03  0.15294330000E+03 0.  0.
    8880022    1    1    2    0    0  0.13090092284E+03 -0.68129115844E+02 -0.83869539828E+03  0.86520416789E+03  0.15294330000E+03 0.  0.
<mgrwt>
<rscale>  0 0.21252831E+03</rscale>
<asrwt>0</asrwt>
<pdfrwt beam="1">  1        4 0.45385178E-02 0.21252831E+03</pdfrwt>
<pdfrwt beam="2">  1       -4 0.23800281E+00 0.21252831E+03</pdfrwt>
<totfact> 0.42589669E+01</totfact>
</mgrwt>
</event>
<event>
 4    1  0.8478300E-009  0.1831100E+03  0.7818608E-02  0.1164827E+00
          4   -1    0    0  501    0  0.00000000000E+00  0.00000000000E+00  0.10358158801E+03  0.10358937337E+03  0.12700000000E+01 0.  1.
         -4   -1    0    0    0  501 -0.00000000000E+00 -0.00000000000E+00 -0.33304939084E+03  0.33305181224E+03  0.12700000000E+01 0.  1.
    8880022    1    1    2    0    0  0.89897964732E+02  0.45342663456E+02 -0.15135579216E+03  0.23756647497E+03  0.15294330000E+03 0.  0.
    8880022    1    1    2    0    0 -0.89897964732E+02 -0.45342663456E+02 -0.78112010666E+02  0.19907471064E+03  0.15294330000E+03 0.  0.
<mgrwt>
<rscale>  0 0.18310995E+03</rscale>
<asrwt>0</asrwt>
<pdfrwt beam="1">  1        4 0.15936414E-01 0.18310995E+03</pdfrwt>
<pdfrwt beam="2">  1       -4 0.51239152E-01 0.18310995E+03</pdfrwt>
<totfact> 0.21918082E+02</totfact>
</mgrwt>
</event>
<event>
 4    1  0.8478300E-009  0.2599175E+03  0.7818608E-02  0.1107193E+00
          4   -1    0    0  501    0  0.00000000000E+00  0.00000000000E+00  0.29103058796E+03  0.29103335897E+03  0.12700000000E+01 0. -1.
         -4   -1    0    0    0  501 -0.00000000000E+00 -0.00000000000E+00 -0.23377519917E+03  0.23377864883E+03  0.12700000000E+01 0. -1.
    8880022    1    1    2    0    0  0.20964469644E+03 -0.14647367277E+02  0.50674325625E+02  0.26481122410E+03  0.15294330000E+03 0.  0.
    8880022    1    1    2    0    0 -0.20964469644E+03  0.14647367277E+02  0.65810631686E+01  0.26000078370E+03  0.15294330000E+03 0.  0.
<mgrwt>
<rscale>  0 0.25991748E+03</rscale>
<asrwt>0</asrwt>
<pdfrwt beam="1">  1        4 0.44774415E-01 0.25991748E+03</pdfrwt>
<pdfrwt beam="2">  1       -4 0.35965894E-01 0.25991748E+03</pdfrwt>
<totfact> 0.66701667E+01</totfact>
</mgrwt>
</event>
<event>
 4    1  0.8478300E-009  0.1726162E+03  0.7818608E-02  0.1175147E+00
         -4   -1    0    0    0  501 -0.00000000000E+00  0.00000000000E+00  0.95749864185E+02  0.95758286281E+02  0.12700000000E+01 0.  1.
          4   -1    0    0  501    0  0.00000000000E+00 -0.00000000000E+00 -0.38442190775E+03  0.38442400557E+03  0.12700000000E+01 0.  1.
    8880022    1    1    2    0    0  0.71260701143E+02 -0.36422872799E+02 -0.39529909823E+02  0.17708466895E+03  0.15294330000E+03 0.  0.
    8880022    1    1    2    0    0 -0.71260701143E+02  0.36422872799E+02 -0.24914213374E+03  0.30309762291E+03  0.15294330000E+03 0.  0.
<mgrwt>
<rscale>  0 0.17261624E+03</rscale>
<asrwt>0</asrwt>
<pdfrwt beam="1">  1        4 0.59142640E-01 0.17261624E+03</pdfrwt>
<pdfrwt beam="2">  1       -4 0.14731558E-01 0.17261624E+03</pdfrwt>
<totfact> 0.18500761E+02</totfact>
</mgrwt>
</event>
<event>
 4    1  0.8478300E-009  0.2578913E+03  0.7818608E-02  0.1108417E+00
         -4   -1    0    0    0  501 -0.00000000000E+00  0.00000000000E+00  0.10843942908E+04  0.10843950345E+04  0.12700000000E+01 0.  1.
          4   -1    0    0  501    0  0.00000000000E+00 -0.00000000000E+00 -0.18370422054E+03  0.18370861043E+03  0.12700000000E+01 0. -1.
    8880022    1    1    2    0    0 -0.17675854710E+03 -0.10896178671E+03 -0.67152937709E+02  0.26649094730E+03  0.15294330000E+03 0.  0.
    8880022    1    1    2    0    0  0.17675854710E+03  0.10896178671E+03  0.96784300797E+03  0.10016126976E+04  0.15294330000E+03 0.  0.
<mgrwt>
<rscale>  0 0.25789127E+03</rscale>
<asrwt>0</asrwt>
<pdfrwt beam="1">  1        4 0.28262583E-01 0.25789127E+03</pdfrwt>
<pdfrwt beam="2">  1       -4 0.16683029E+00 0.25789127E+03</pdfrwt>
<totfact> 0.51484688E+00</totfact>
</mgrwt>
</event>
<event>
 4    1  0.8478300E-009  0.2055623E+03  0.7818608E-02  0.1145129E+00
         -4   -1    0    0    0  501 -0.00000000000E+00  0.00000000000E+00  0.13521575245E+03  0.13522171649E+03  0.12700000000E+01 0.  1.
          4   -1    0    0  501    0  0.00000000000E+00 -0.00000000000E+00 -0.48382604695E+03  0.48382771376E+03  0.12700000000E+01 0.  1.
    8880022    1    1    2    0    0 -0.11571477034E+03 -0.73988580906E+02 -0.35849589691E+03  0.41324953635E+03  0.15294330000E+03 0.  0.
    8880022    1    1    2    0    0  0.11571477034E+03  0.73988580906E+02  0.98856024104E+01  0.20579989390E+03  0.15294330000E+03 0.  0.
<mgrwt>
<rscale>  0 0.20556233E+03</rscale>
<asrwt>0</asrwt>
<pdfrwt beam="1">  1        4 0.74435363E-01 0.20556233E+03</pdfrwt>
<pdfrwt beam="2">  1       -4 0.20803011E-01 0.20556233E+03</pdfrwt>
<totfact> 0.62404799E+01</totfact>
</mgrwt>
</event>
<event>
 4    1  0.8478300E-009  0.1874871E+03  0.7818608E-02  0.1160748E+00
          4   -1    0    0  501    0  0.00000000000E+00  0.00000000000E+00  0.44216450539E+03  0.44216632925E+03  0.12700000000E+01 0. -1.
         -4   -1    0    0    0  501 -0.00000000000E+00 -0.00000000000E+00 -0.91485937640E+02  0.91494752231E+02  0.12700000000E+01 0. -1.
    8880022    1    1    2    0    0 -0.66327491359E+01 -0.10823933432E+03  0.78729038248E+02  0.20334616135E+03  0.15294330000E+03 0.  0.
    8880022    1    1    2    0    0  0.66327491359E+01  0.10823933432E+03  0.27194952950E+03  0.33031492014E+03  0.15294330000E+03 0.  0.
<mgrwt>
<rscale>  0 0.18748707E+03</rscale>
<asrwt>0</asrwt>
<pdfrwt beam="1">  1        4 0.68026127E-01 0.18748707E+03</pdfrwt>
<pdfrwt beam="2">  1       -4 0.14075578E-01 0.18748707E+03</pdfrwt>
<totfact> 0.15054004E+02</totfact>
</mgrwt>
</event>
<event>
 4    1  0.8478300E-009  0.1583246E+03  0.7818608E-02  0.1190601E+00
          4   -1    0    0  501    0  0.00000000000E+00  0.00000000000E+00  0.69994185208E+03  0.69994300425E+03  0.12700000000E+01 0.  1.
         -4   -1    0    0    0  501 -0.00000000000E+00 -0.00000000000E+00 -0.41014240303E+02  0.41033898275E+02  0.12700000000E+01 0.  1.
    8880022    1    1    2    0    0 -0.40338835522E+02  0.69139110408E+01  0.19740050609E+03  0.25304868432E+03  0.15294330000E+03 0.  1.
    8880022    1    1    2    0    0  0.40338835522E+02 -0.69139110408E+01  0.46152710569E+03  0.48792821820E+03  0.15294330000E+03 0.  1.
<mgrwt>
<rscale>  0 0.15832459E+03</rscale>
<asrwt>0</asrwt>
<pdfrwt beam="1">  1        4 0.10768496E+00 0.15832459E+03</pdfrwt>
<pdfrwt beam="2">  1       -4 0.63114840E-02 0.15832459E+03</pdfrwt>
<totfact> 0.20155046E+02</totfact>
</mgrwt>
</event>
<event>
 4    1  0.8478300E-009  0.1843121E+03  0.7818608E-02  0.1163694E+00
          4   -1    0    0  501    0  0.00000000000E+00  0.00000000000E+00  0.12909341324E+04  0.12909347571E+04  0.12700000000E+01 0.  1.
         -4   -1    0    0    0  501 -0.00000000000E+00 -0.00000000000E+00 -0.55675357198E+02  0.55689840178E+02  0.12700000000E+01 0.  1.
    8880022    1    1    2    0    0 -0.53404743702E+02  0.87904595050E+02  0.12864700226E+03  0.22476874490E+03  0.15294330000E+03 0.  0.
    8880022    1    1    2    0    0  0.53404743702E+02 -0.87904595050E+02  0.11066117730E+04  0.11218558524E+04  0.15294330000E+03 0.  0.
<mgrwt>
<rscale>  0 0.18431207E+03</rscale>
<asrwt>0</asrwt>
<pdfrwt beam="1">  1        4 0.19860640E+00 0.18431207E+03</pdfrwt>
<pdfrwt beam="2">  1       -4 0.85666024E-02 0.18431207E+03</pdfrwt>
<totfact> 0.25715618E+01</totfact>
</mgrwt>
</event>
<event>
 4    1  0.8478300E-009  0.4319302E+03  0.7818608E-02  0.1033252E+00
          4   -1    0    0  501    0  0.00000000000E+00  0.00000000000E+00  0.80220987109E+03  0.80221087638E+03  0.12700000000E+01 0. -1.
         -4   -1    0    0    0  501 -0.00000000000E+00 -0.00000000000E+00 -0.28868375327E+03  0.28868654680E+03  0.12700000000E+01 0. -1.
    8880022    1    1    2    0    0 -0.22655142524E+03  0.33443454532E+03  0.16262679080E+02  0.43223620987E+03  0.15294330000E+03 0.  0.
    8880022    1    1    2    0    0  0.22655142524E+03 -0.33443454532E+03  0.49726343874E+03  0.65866121330E+03  0.15294330000E+03 0.  0.
<mgrwt>
<rscale>  0 0.43193016E+03</rscale>
<asrwt>0</asrwt>
<pdfrwt beam="1">  1        4 0.12341720E+00 0.43193016E+03</pdfrwt>
<pdfrwt beam="2">  1       -4 0.44413177E-01 0.43193016E+03</pdfrwt>
<totfact> 0.47219610E+00</totfact>
</mgrwt>
</event>
<event>
 4    1  0.8478300E-009  0.2021280E+03  0.7818608E-02  0.1147956E+00
         -4   -1    0    0    0  501 -0.00000000000E+00  0.00000000000E+00  0.22958460821E+03  0.22958812083E+03  0.12700000000E+01 0.  1.
          4   -1    0    0  501    0  0.00000000000E+00 -0.00000000000E+00 -0.23651667763E+03  0.23652008730E+03  0.12700000000E+01 0.  1.
    8880022    1    1    2    0    0 -0.37402278332E+02 -0.12674842676E+03  0.11250564153E+03  0.23132934639E+03  0.15294330000E+03 0.  0.
    8880022    1    1    2    0    0  0.37402278332E+02  0.12674842676E+03 -0.11943771094E+03  0.23477886174E+03  0.15294330000E+03 0.  0.
<mgrwt>
<rscale>  0 0.20212805E+03</rscale>
<asrwt>0</asrwt>
<pdfrwt beam="1">  1        4 0.36387714E-01 0.20212805E+03</pdfrwt>
<pdfrwt beam="2">  1       -4 0.35321241E-01 0.20212805E+03</pdfrwt>
<totfact> 0.10124958E+02</totfact>
</mgrwt>
</event>
<event>
 4    1  0.8478300E-009  0.2194515E+03  0.7818608E-02  0.1134293E+00
         -4   -1    0    0    0  501 -0.00000000000E+00  0.00000000000E+00  0.77674456652E+03  0.77674560477E+03  0.12700000000E+01 0.  1.
          4   -1    0    0  501    0  0.00000000000E+00 -0.00000000000E+00 -0.63779461133E+02  0.63792104233E+02  0.12700000000E+01 0.  1.
    8880022    1    1    2    0    0 -0.14095434594E+03  0.69994197397E+02  0.42680294189E+03  0.47991636722E+03  0.15294330000E+03 0.  0.
    8880022    1    1    2    0    0  0.14095434594E+03 -0.69994197397E+02  0.28616216350E+03  0.36062134178E+03  0.15294330000E+03 0.  0.
<mgrwt>
<rscale>  0 0.21945152E+03</rscale>
<asrwt>0</asrwt>
<pdfrwt beam="1">  1        4 0.98132770E-02 0.21945152E+03</pdfrwt>
<pdfrwt beam="2">  1       -4 0.11950022E+00 0.21945152E+03</pdfrwt>
<totfact> 0.78884167E+01</totfact>
</mgrwt>
</event>
<event>
 4    1  0.8478300E-009  0.2262189E+03  0.7818608E-02  0.1129330E+00
         -4   -1    0    0    0  501 -0.00000000000E+00  0.00000000000E+00  0.93361826483E+03  0.93361912862E+03  0.12700000000E+01 0. -1.
          4   -1    0    0  501    0  0.00000000000E+00 -0.00000000000E+00 -0.93339809519E+02  0.93348449055E+02  0.12700000000E+01 0. -1.
    8880022    1    1    2    0    0  0.14847591587E+03  0.75751282732E+02  0.75004395935E+03  0.78341620382E+03  0.15294330000E+03 0.  0.
    8880022    1    1    2    0    0 -0.14847591587E+03 -0.75751282732E+02  0.90234495955E+02  0.24355137385E+03  0.15294330000E+03 0.  0.
<mgrwt>
<rscale>  0 0.22621894E+03</rscale>
<asrwt>0</asrwt>
<pdfrwt beam="1">  1        4 0.14360702E-01 0.22621894E+03</pdfrwt>
<pdfrwt beam="2">  1       -4 0.14363431E+00 0.22621894E+03</pdfrwt>
<totfact> 0.25941985E+01</totfact>
</mgrwt>
</event>
<event>
 4    1  0.8478300E-009  0.2105505E+03  0.7818608E-02  0.1141131E+00
          4   -1    0    0  501    0  0.00000000000E+00  0.00000000000E+00  0.12273788495E+03  0.12274445528E+03  0.12700000000E+01 0.  1.
         -4   -1    0    0    0  501 -0.00000000000E+00 -0.00000000000E+00 -0.17164747275E+04  0.17164751974E+04  0.12700000000E+01 0.  1.
    8880022    1    1    2    0    0 -0.53599251689E+01 -0.14460676359E+03  0.20282371603E+02  0.21152511077E+03  0.15294330000E+03 0.  0.
    8880022    1    1    2    0    0  0.53599251689E+01  0.14460676359E+03 -0.16140192142E+04  0.16276945419E+04  0.15294330000E+03 0.  0.
<mgrwt>
<rscale>  0 0.21055046E+03</rscale>
<asrwt>0</asrwt>
<pdfrwt beam="1">  1        4 0.18883294E-01 0.21055046E+03</pdfrwt>
<pdfrwt beam="2">  1       -4 0.26407356E+00 0.21055046E+03</pdfrwt>
<totfact> 0.26652027E+00</totfact>
</mgrwt>
</event>
<event>
 4    1  0.8478300E-009  0.2042510E+03  0.7818608E-02  0.1146201E+00
         -4   -1    0    0    0  501 -0.00000000000E+00  0.00000000000E+00  0.18460108306E+03  0.18460545162E+03  0.12700000000E+01 0. -1.
          4   -1    0    0  501    0  0.00000000000E+00 -0.00000000000E+00 -0.37011884391E+03  0.37012102280E+03  0.12700000000E+01 0. -1.
    8880022    1    1    2    0    0 -0.13525569650E+03  0.57183786151E+01  0.80325973484E+02  0.21947828667E+03  0.15294330000E+03 0.  0.
    8880022    1    1    2    0    0  0.13525569650E+03 -0.57183786151E+01 -0.26584373433E+03  0.33524818774E+03  0.15294330000E+03 0.  0.
<mgrwt>
<rscale>  0 0.20425096E+03</rscale>
<asrwt>0</asrwt>
<pdfrwt beam="1">  1        4 0.56941864E-01 0.20425096E+03</pdfrwt>
<pdfrwt beam="2">  1       -4 0.28400670E-01 0.20425096E+03</pdfrwt>
<totfact> 0.62227958E+01</totfact>
</mgrwt>
</event>
<event>
 4    1  0.8478300E-009  0.1776940E+03  0.7818608E-02  0.1170054E+00
          4   -1    0    0  501    0  0.00000000000E+00  0.00000000000E+00  0.33984291491E+03  0.33984528791E+03  0.12700000000E+01 0. -1.
         -4   -1    0    0    0  501 -0.00000000000E+00 -0.00000000000E+00 -0.11402343157E+03  0.11403050402E+03  0.12700000000E+01 0. -1.
    8880022    1    1    2    0    0  0.37894488958E+02  0.82143344899E+02  0.21057296673E+03  0.27552885282E+03  0.15294330000E+03 0.  0.
    8880022    1    1    2    0    0 -0.37894488958E+02 -0.82143344899E+02  0.15246516615E+02  0.17834693911E+03  0.15294330000E+03 0.  0.
<mgrwt>
<rscale>  0 0.17769405E+03</rscale>
<asrwt>0</asrwt>
<pdfrwt beam="1">  1        4 0.52284251E-01 0.17769405E+03</pdfrwt>
<pdfrwt beam="2">  1       -4 0.17542793E-01 0.17769405E+03</pdfrwt>
<totfact> 0.17646456E+02</totfact>
</mgrwt>
</event>
<event>
 4    1  0.8478300E-009  0.3361815E+03  0.7818608E-02  0.1068434E+00
         -4   -1    0    0    0  501 -0.00000000000E+00  0.00000000000E+00  0.22320783418E+04  0.22320787031E+04  0.12700000000E+01 0. -1.
          4   -1    0    0  501    0  0.00000000000E+00 -0.00000000000E+00 -0.55703158197E+02  0.55717633952E+02  0.12700000000E+01 0. -1.
    8880022    1    1    2    0    0 -0.60900617364E+02  0.29311677414E+03  0.14335155800E+04  0.14724078577E+04  0.15294330000E+03 0.  0.
    8880022    1    1    2    0    0  0.60900617364E+02 -0.29311677414E+03  0.74285960362E+03  0.81538847930E+03  0.15294330000E+03 0.  0.
<mgrwt>
<rscale>  0 0.33618147E+03</rscale>
<asrwt>0</asrwt>
<pdfrwt beam="1">  1        4 0.85708577E-02 0.33618147E+03</pdfrwt>
<pdfrwt beam="2">  1       -4 0.34339782E+00 0.33618147E+03</pdfrwt>
<totfact> 0.35675805E+00</totfact>
</mgrwt>
</event>
<event>
 4    1  0.8478300E-009  0.2305027E+03  0.7818608E-02  0.1126286E+00
         -4   -1    0    0    0  501 -0.00000000000E+00  0.00000000000E+00  0.23466312119E+03  0.23466655779E+03  0.12700000000E+01 0.  1.
          4   -1    0    0  501    0  0.00000000000E+00 -0.00000000000E+00 -0.33076041273E+03  0.33076285089E+03  0.12700000000E+01 0.  1.
    8880022    1    1    2    0    0  0.30419636882E+02  0.16974824365E+03  0.11074620668E+03  0.25572679922E+03  0.15294330000E+03 0.  0.
    8880022    1    1    2    0    0 -0.30419636882E+02 -0.16974824365E+03 -0.20684349822E+03  0.30970260945E+03  0.15294330000E+03 0.  0.
<mgrwt>
<rscale>  0 0.23050265E+03</rscale>
<asrwt>0</asrwt>
<pdfrwt beam="1">  1        4 0.50886669E-01 0.23050265E+03</pdfrwt>
<pdfrwt beam="2">  1       -4 0.36102470E-01 0.23050265E+03</pdfrwt>
<totfact> 0.50275109E+01</totfact>
</mgrwt>
</event>
<event>
 4    1  0.8478300E-009  0.1765214E+03  0.7818608E-02  0.1171213E+00
         -4   -1    0    0    0  501 -0.00000000000E+00  0.00000000000E+00  0.70355342796E+02  0.70366804389E+02  0.12700000000E+01 0.  1.
          4   -1    0    0  501    0  0.00000000000E+00 -0.00000000000E+00 -0.45418038451E+03  0.45418216012E+03  0.12700000000E+01 0.  1.
    8880022    1    1    2    0    0  0.86846126816E+02 -0.15030570868E+02 -0.23334879372E+03  0.29259439562E+03  0.15294330000E+03 0.  1.
    8880022    1    1    2    0    0 -0.86846126816E+02  0.15030570868E+02 -0.15047624799E+03  0.23195456889E+03  0.15294330000E+03 0.  1.
<mgrwt>
<rscale>  0 0.17652145E+03</rscale>
<asrwt>0</asrwt>
<pdfrwt beam="1">  1        4 0.69874922E-01 0.17652145E+03</pdfrwt>
<pdfrwt beam="2">  1       -4 0.10824917E-01 0.17652145E+03</pdfrwt>
<totfact> 0.22139136E+02</totfact>
</mgrwt>
</event>
<event>
 4    1  0.8478300E-009  0.1542204E+03  0.7818608E-02  0.1195381E+00
          4   -1    0    0  501    0  0.00000000000E+00  0.00000000000E+00  0.42691730106E+03  0.42691919007E+03  0.12700000000E+01 0.  1.
         -4   -1    0    0    0  501 -0.00000000000E+00 -0.00000000000E+00 -0.57362763140E+02  0.57376820190E+02  0.12700000000E+01 0.  1.
    8880022    1    1    2    0    0  0.19653118088E+02 -0.24567268822E+01  0.22597833939E+03  0.27358754256E+03  0.15294330000E+03 0.  0.
    8880022    1    1    2    0    0 -0.19653118088E+02  0.24567268822E+01  0.14357619854E+03  0.21070846770E+03  0.15294330000E+03 0.  0.
<mgrwt>
<rscale>  0 0.15422041E+03</rscale>
<asrwt>0</asrwt>
<pdfrwt beam="1">  1        4 0.65680811E-01 0.15422041E+03</pdfrwt>
<pdfrwt beam="2">  1       -4 0.88262672E-02 0.15422041E+03</pdfrwt>
<totfact> 0.34911556E+02</totfact>
</mgrwt>
</event>
<event>
 4    1  0.8478300E-009  0.3281949E+03  0.7818608E-02  0.1071938E+00
         -4   -1    0    0    0  501 -0.00000000000E+00  0.00000000000E+00  0.17734852639E+03  0.17735307359E+03  0.12700000000E+01 0. -1.
          4   -1    0    0  501    0  0.00000000000E+00 -0.00000000000E+00 -0.61130447125E+03  0.61130579048E+03  0.12700000000E+01 0. -1.
    8880022    1    1    2    0    0 -0.15724709753E+03  0.24411804705E+03 -0.24876150666E+03  0.41181817686E+03  0.15294330000E+03 0.  0.
    8880022    1    1    2    0    0  0.15724709753E+03 -0.24411804705E+03 -0.18519443821E+03  0.37684068721E+03  0.15294330000E+03 0.  0.
<mgrwt>
<rscale>  0 0.32819495E+03</rscale>
<asrwt>0</asrwt>
<pdfrwt beam="1">  1        4 0.94047292E-01 0.32819495E+03</pdfrwt>
<pdfrwt beam="2">  1       -4 0.27284840E-01 0.32819495E+03</pdfrwt>
<totfact> 0.23292924E+01</totfact>
</mgrwt>
</event>
<event>
 4    1  0.8478300E-009  0.1808978E+03  0.7818608E-02  0.1166937E+00
          4   -1    0    0  501    0  0.00000000000E+00  0.00000000000E+00  0.27529502510E+03  0.27529795449E+03  0.12700000000E+01 0.  1.
         -4   -1    0    0    0  501 -0.00000000000E+00 -0.00000000000E+00 -0.15834180966E+03  0.15834690267E+03  0.12700000000E+01 0.  1.
    8880022    1    1    2    0    0  0.90302669313E+02  0.34319090458E+02  0.16674006675E+03  0.24602088312E+03  0.15294330000E+03 0.  0.
    8880022    1    1    2    0    0 -0.90302669313E+02 -0.34319090458E+02 -0.49786851314E+02  0.18762397404E+03  0.15294330000E+03 0.  0.
<mgrwt>
<rscale>  0 0.18089783E+03</rscale>
<asrwt>0</asrwt>
<pdfrwt beam="1">  1        4 0.42353697E-01 0.18089783E+03</pdfrwt>
<pdfrwt beam="2">  1       -4 0.24360896E-01 0.18089783E+03</pdfrwt>
<totfact> 0.14944330E+02</totfact>
</mgrwt>
</event>
<event>
 4    1  0.8478300E-009  0.3754923E+03  0.7818608E-02  0.1052613E+00
          4   -1    0    0  501    0  0.00000000000E+00  0.00000000000E+00  0.25779311732E+03  0.25779624559E+03  0.12700000000E+01 0. -1.
         -4   -1    0    0    0  501 -0.00000000000E+00 -0.00000000000E+00 -0.12388919775E+04  0.12388926284E+04  0.12700000000E+01 0.  1.
    8880022    1    1    2    0    0  0.30176688222E+03 -0.16290967872E+03  0.68728705862E+02  0.38173040572E+03  0.15294330000E+03 0.  0.
    8880022    1    1    2    0    0 -0.30176688222E+03  0.16290967872E+03 -0.10498275660E+04  0.11149584683E+04  0.15294330000E+03 0.  0.
<mgrwt>
<rscale>  0 0.37549230E+03</rscale>
<asrwt>0</asrwt>
<pdfrwt beam="1">  1        4 0.39660771E-01 0.37549230E+03</pdfrwt>
<pdfrwt beam="2">  1       -4 0.19059905E+00 0.37549230E+03</pdfrwt>
<totfact> 0.18590800E+00</totfact>
</mgrwt>
</event>
<event>
 4    1  0.8478300E-009  0.2165272E+03  0.7818608E-02  0.1136499E+00
         -4   -1    0    0    0  501 -0.00000000000E+00  0.00000000000E+00  0.66783057207E+03  0.66783177963E+03  0.12700000000E+01 0. -1.
          4   -1    0    0  501    0  0.00000000000E+00 -0.00000000000E+00 -0.74826173307E+02  0.74836950177E+02  0.12700000000E+01 0. -1.
    8880022    1    1    2    0    0  0.14724545650E+02 -0.15256333282E+03  0.38886114823E+03  0.44508092341E+03  0.15294330000E+03 0.  0.
    8880022    1    1    2    0    0 -0.14724545650E+02  0.15256333282E+03  0.20414325053E+03  0.29758780640E+03  0.15294330000E+03 0.  0.
<mgrwt>
<rscale>  0 0.21652722E+03</rscale>
<asrwt>0</asrwt>
<pdfrwt beam="1">  1        4 0.11512640E-01 0.21652722E+03</pdfrwt>
<pdfrwt beam="2">  1       -4 0.10274409E+00 0.21652722E+03</pdfrwt>
<totfact> 0.85972997E+01</totfact>
</mgrwt>
</event>
<event>
 4    1  0.8478300E-009  0.4365822E+03  0.7818608E-02  0.1031801E+00
         -4   -1    0    0    0  501 -0.00000000000E+00  0.00000000000E+00  0.87731414156E+03  0.87731506078E+03  0.12700000000E+01 0. -1.
          4   -1    0    0  501    0  0.00000000000E+00 -0.00000000000E+00 -0.22108581978E+03  0.22108946743E+03  0.12700000000E+01 0. -1.
    8880022    1    1    2    0    0  0.23696454027E+03 -0.33325687577E+03  0.25582783025E+03  0.50601568191E+03  0.15294330000E+03 0.  0.
    8880022    1    1    2    0    0 -0.23696454027E+03  0.33325687577E+03  0.40040049153E+03  0.59238884630E+03  0.15294330000E+03 0.  0.
<mgrwt>
<rscale>  0 0.43658217E+03</rscale>
<asrwt>0</asrwt>
<pdfrwt beam="1">  1        4 0.34013554E-01 0.43658217E+03</pdfrwt>
<pdfrwt beam="2">  1       -4 0.13497176E+00 0.43658217E+03</pdfrwt>
<totfact> 0.64354608E+00</totfact>
</mgrwt>
</event>
<event>
 4    1  0.8478300E-009  0.2140673E+03  0.7818608E-02  0.1138385E+00
         -4   -1    0    0    0  501 -0.00000000000E+00  0.00000000000E+00  0.14517911691E+03  0.14518467167E+03  0.12700000000E+01 0.  1.
          4   -1    0    0  501    0  0.00000000000E+00 -0.00000000000E+00 -0.31831415840E+03  0.31831669189E+03  0.12700000000E+01 0.  1.
    8880022    1    1    2    0    0 -0.58948116598E+02 -0.13768910519E+03 -0.65288452085E+02  0.22380215622E+03  0.15294330000E+03 0.  0.
    8880022    1    1    2    0    0  0.58948116598E+02  0.13768910519E+03 -0.10784658940E+03  0.23969920734E+03  0.15294330000E+03 0.  0.
<mgrwt>
<rscale>  0 0.21406733E+03</rscale>
<asrwt>0</asrwt>
<pdfrwt beam="1">  1        4 0.48972031E-01 0.21406733E+03</pdfrwt>
<pdfrwt beam="2">  1       -4 0.22335871E-01 0.21406733E+03</pdfrwt>
<totfact> 0.13394446E+02</totfact>
</mgrwt>
</event>
<event>
 4    1  0.8478300E-009  0.5370497E+03  0.7818608E-02  0.1004537E+00
          4   -1    0    0  501    0  0.00000000000E+00  0.00000000000E+00  0.48191604455E+03  0.48191771797E+03  0.12700000000E+01 0. -1.
         -4   -1    0    0    0  501 -0.00000000000E+00 -0.00000000000E+00 -0.79363775300E+03  0.79363876914E+03  0.12700000000E+01 0.  1.
    8880022    1    1    2    0    0 -0.30109835412E+03 -0.41757691121E+03 -0.47211945595E+03  0.71506582167E+03  0.15294330000E+03 0.  0.
    8880022    1    1    2    0    0  0.30109835412E+03  0.41757691121E+03  0.16039774750E+03  0.56049066544E+03  0.15294330000E+03 0.  0.
<mgrwt>
<rscale>  0 0.53704967E+03</rscale>
<asrwt>0</asrwt>
<pdfrwt beam="1">  1        4 0.74141137E-01 0.53704967E+03</pdfrwt>
<pdfrwt beam="2">  1       -4 0.12209832E+00 0.53704967E+03</pdfrwt>
<totfact> 0.16320022E+00</totfact>
</mgrwt>
</event>
<event>
 4    1  0.8478300E-009  0.2964737E+03  0.7818608E-02  0.1087017E+00
          4   -1    0    0  501    0  0.00000000000E+00  0.00000000000E+00  0.96759503916E+02  0.96767838139E+02  0.12700000000E+01 0.  1.
         -4   -1    0    0    0  501 -0.00000000000E+00 -0.00000000000E+00 -0.10701431404E+04  0.10701438940E+04  0.12700000000E+01 0.  1.
    8880022    1    1    2    0    0 -0.15886216208E+03  0.19816109132E+03 -0.71355182985E+03  0.77269196421E+03  0.15294330000E+03 0. -1.
    8880022    1    1    2    0    0  0.15886216208E+03 -0.19816109132E+03 -0.25983180660E+03  0.39421976789E+03  0.15294330000E+03 0. -1.
<mgrwt>
<rscale>  0 0.29647370E+03</rscale>
<asrwt>0</asrwt>
<pdfrwt beam="1">  1        4 0.14886777E-01 0.29647370E+03</pdfrwt>
<pdfrwt beam="2">  1       -4 0.16463810E+00 0.29647370E+03</pdfrwt>
<totfact> 0.17411666E+01</totfact>
</mgrwt>
</event>
<event>
 4    1  0.8478300E-009  0.4027962E+03  0.7818608E-02  0.1042816E+00
          4   -1    0    0  501    0  0.00000000000E+00  0.00000000000E+00  0.10434828551E+04  0.10434836280E+04  0.12700000000E+01 0. -1.
         -4   -1    0    0    0  501 -0.00000000000E+00 -0.00000000000E+00 -0.19417688671E+03  0.19418103984E+03  0.12700000000E+01 0. -1.
    8880022    1    1    2    0    0  0.34732889938E+03 -0.13496586104E+03  0.14840228060E+03  0.42926453137E+03  0.15294330000E+03 0.  0.
    8880022    1    1    2    0    0 -0.34732889938E+03  0.13496586104E+03  0.70090368781E+03  0.80840013643E+03  0.15294330000E+03 0.  0.
<mgrwt>
<rscale>  0 0.40279623E+03</rscale>
<asrwt>0</asrwt>
<pdfrwt beam="1">  1        4 0.16053620E+00 0.40279623E+03</pdfrwt>
<pdfrwt beam="2">  1       -4 0.29873746E-01 0.40279623E+03</pdfrwt>
<totfact> 0.52440499E+00</totfact>
</mgrwt>
</event>
<event>
 4    1  0.8478300E-009  0.2005428E+03  0.7818608E-02  0.1149282E+00
          4   -1    0    0  501    0  0.00000000000E+00  0.00000000000E+00  0.68889218077E+02  0.68900923559E+02  0.12700000000E+01 0. -1.
         -4   -1    0    0    0  501 -0.00000000000E+00 -0.00000000000E+00 -0.10082928530E+04  0.10082936528E+04  0.12700000000E+01 0. -1.
    8880022    1    1    2    0    0  0.27971645836E+02 -0.12666233192E+03 -0.81919266168E+03  0.84338249286E+03  0.15294330000E+03 0.  0.
    8880022    1    1    2    0    0 -0.27971645836E+02  0.12666233192E+03 -0.12021097326E+03  0.23381208353E+03  0.15294330000E+03 0.  0.
<mgrwt>
<rscale>  0 0.20054279E+03</rscale>
<asrwt>0</asrwt>
<pdfrwt beam="1">  1        4 0.10599304E-01 0.20054279E+03</pdfrwt>
<pdfrwt beam="2">  1       -4 0.15512293E+00 0.20054279E+03</pdfrwt>
<totfact> 0.35554560E+01</totfact>
</mgrwt>
</event>
<event>
 4    1  0.8478300E-009  0.1703745E+03  0.7818608E-02  0.1177458E+00
         -4   -1    0    0    0  501 -0.00000000000E+00  0.00000000000E+00  0.11054870464E+03  0.11055599937E+03  0.12700000000E+01 0. -1.
          4   -1    0    0  501    0  0.00000000000E+00 -0.00000000000E+00 -0.27442321794E+03  0.27442615664E+03  0.12700000000E+01 0. -1.
    8880022    1    1    2    0    0 -0.45082211677E+02 -0.60028422916E+02 -0.12196075413E+03  0.20952779274E+03  0.15294330000E+03 0.  0.
    8880022    1    1    2    0    0  0.45082211677E+02  0.60028422916E+02 -0.41913759173E+02  0.17545436327E+03  0.15294330000E+03 0.  0.
<mgrwt>
<rscale>  0 0.17037450E+03</rscale>
<asrwt>0</asrwt>
<pdfrwt beam="1">  1        4 0.42219743E-01 0.17037450E+03</pdfrwt>
<pdfrwt beam="2">  1       -4 0.17008280E-01 0.17037450E+03</pdfrwt>
<totfact> 0.28571428E+02</totfact>
</mgrwt>
</event>
<event>
 4    1  0.8478300E-009  0.1755438E+03  0.7818608E-02  0.1172187E+00
          4   -1    0    0  501    0  0.00000000000E+00  0.00000000000E+00  0.12804708383E+03  0.12805338175E+03  0.12700000000E+01 0. -1.
         -4   -1    0    0    0  501 -0.00000000000E+00 -0.00000000000E+00 -0.24577313897E+03  0.24577642023E+03  0.12700000000E+01 0. -1.
    8880022    1    1    2    0    0 -0.99814081903E+00  0.86156703637E+02 -0.85862926413E+02  0.19541767836E+03  0.15294330000E+03 0.  0.
    8880022    1    1    2    0    0  0.99814081903E+00 -0.86156703637E+02 -0.31863128733E+02  0.17841212362E+03  0.15294330000E+03 0.  0.
<mgrwt>
<rscale>  0 0.17554380E+03</rscale>
<asrwt>0</asrwt>
<pdfrwt beam="1">  1        4 0.19700288E-01 0.17554380E+03</pdfrwt>
<pdfrwt beam="2">  1       -4 0.37811989E-01 0.17554380E+03</pdfrwt>
<totfact> 0.27446675E+02</totfact>
</mgrwt>
</event>
<event>
 4    1  0.8478300E-009  0.1647704E+03  0.7818608E-02  0.1183414E+00
          4   -1    0    0  501    0  0.00000000000E+00  0.00000000000E+00  0.14567521897E+03  0.14568075481E+03  0.12700000000E+01 0. -1.
         -4   -1    0    0    0  501 -0.00000000000E+00 -0.00000000000E+00 -0.18644982173E+03  0.18645414697E+03  0.12700000000E+01 0. -1.
    8880022    1    1    2    0    0  0.17278139180E+02  0.58814228575E+02 -0.24083446951E+02  0.16652120888E+03  0.15294330000E+03 0.  0.
    8880022    1    1    2    0    0 -0.17278139180E+02 -0.58814228575E+02 -0.16691155811E+02  0.16561369289E+03  0.15294330000E+03 0.  0.
<mgrwt>
<rscale>  0 0.16477045E+03</rscale>
<asrwt>0</asrwt>
<pdfrwt beam="1">  1        4 0.22412331E-01 0.16477045E+03</pdfrwt>
<pdfrwt beam="2">  1       -4 0.28685347E-01 0.16477045E+03</pdfrwt>
<totfact> 0.36543456E+02</totfact>
</mgrwt>
</event>
<event>
 4    1  0.8478300E-009  0.2347255E+03  0.7818608E-02  0.1123357E+00
          4   -1    0    0  501    0  0.00000000000E+00  0.00000000000E+00  0.95909336220E+02  0.95917744314E+02  0.12700000000E+01 0. -1.
         -4   -1    0    0    0  501 -0.00000000000E+00 -0.00000000000E+00 -0.57553749074E+03  0.57553889195E+03  0.12700000000E+01 0. -1.
    8880022    1    1    2    0    0  0.17074483269E+03 -0.50503430898E+02 -0.25457174512E+03  0.34626986709E+03  0.15294330000E+03 0.  0.
    8880022    1    1    2    0    0 -0.17074483269E+03  0.50503430898E+02 -0.22505640940E+03  0.32518676918E+03  0.15294330000E+03 0.  0.
<mgrwt>
<rscale>  0 0.23472547E+03</rscale>
<asrwt>0</asrwt>
<pdfrwt beam="1">  1        4 0.14756037E-01 0.23472547E+03</pdfrwt>
<pdfrwt beam="2">  1       -4 0.88544982E-01 0.23472547E+03</pdfrwt>
<totfact> 0.79543717E+01</totfact>
</mgrwt>
</event>
<event>
 4    1  0.8478300E-009  0.2186949E+03  0.7818608E-02  0.1134860E+00
         -4   -1    0    0    0  501 -0.00000000000E+00  0.00000000000E+00  0.14875526982E+03  0.14876069104E+03  0.12700000000E+01 0. -1.
          4   -1    0    0  501    0  0.00000000000E+00 -0.00000000000E+00 -0.33515393319E+03  0.33515633939E+03  0.12700000000E+01 0. -1.
    8880022    1    1    2    0    0 -0.79945132254E+01  0.15611500651E+03 -0.14202626758E+03  0.26076602769E+03  0.15294330000E+03 0.  0.
    8880022    1    1    2    0    0  0.79945132254E+01 -0.15611500651E+03 -0.44372395791E+02  0.22315100274E+03  0.15294330000E+03 0.  0.
<mgrwt>
<rscale>  0 0.21869490E+03</rscale>
<asrwt>0</asrwt>
<pdfrwt beam="1">  1        4 0.51562745E-01 0.21869490E+03</pdfrwt>
<pdfrwt beam="2">  1       -4 0.22886028E-01 0.21869490E+03</pdfrwt>
<totfact> 0.11551795E+02</totfact>
</mgrwt>
</event>
<event>
 4    1  0.8478300E-009  0.3231368E+03  0.7818608E-02  0.1074215E+00
         -4   -1    0    0    0  501 -0.00000000000E+00  0.00000000000E+00  0.39510655176E+03  0.39510859285E+03  0.12700000000E+01 0.  1.
          4   -1    0    0  501    0  0.00000000000E+00 -0.00000000000E+00 -0.44145530014E+03  0.44145712693E+03  0.12700000000E+01 0.  1.
    8880022    1    1    2    0    0 -0.12927905270E+02 -0.28435647916E+03 -0.28816806798E+03  0.43296446319E+03  0.15294330000E+03 0.  0.
    8880022    1    1    2    0    0  0.12927905270E+02  0.28435647916E+03  0.24181931960E+03  0.40360125659E+03  0.15294330000E+03 0.  0.
<mgrwt>
<rscale>  0 0.32313680E+03</rscale>
<asrwt>0</asrwt>
<pdfrwt beam="1">  1        4 0.67916497E-01 0.32313680E+03</pdfrwt>
<pdfrwt beam="2">  1       -4 0.60785921E-01 0.32313680E+03</pdfrwt>
<totfact> 0.96698762E+00</totfact>
</mgrwt>
</event>
<event>
 4    1  0.8478300E-009  0.2360685E+03  0.7818608E-02  0.1122440E+00
          4   -1    0    0  501    0  0.00000000000E+00  0.00000000000E+00  0.15657176537E+03  0.15657691595E+03  0.12700000000E+01 0. -1.
         -4   -1    0    0    0  501 -0.00000000000E+00 -0.00000000000E+00 -0.39555560146E+03  0.39555764023E+03  0.12700000000E+01 0. -1.
    8880022    1    1    2    0    0  0.17838281981E+03  0.22720948436E+02 -0.32100092154E+02  0.23824093022E+03  0.15294330000E+03 0.  0.
    8880022    1    1    2    0    0 -0.17838281981E+03 -0.22720948436E+02 -0.20688374394E+03  0.31389362597E+03  0.15294330000E+03 0.  0.
<mgrwt>
<rscale>  0 0.23606848E+03</rscale>
<asrwt>0</asrwt>
<pdfrwt beam="1">  1        4 0.24088517E-01 0.23606848E+03</pdfrwt>
<pdfrwt beam="2">  1       -4 0.60855260E-01 0.23606848E+03</pdfrwt>
<totfact> 0.74951090E+01</totfact>
</mgrwt>
</event>
<event>
 4    1  0.8478300E-009  0.1722726E+03  0.7818608E-02  0.1175498E+00
         -4   -1    0    0    0  501 -0.00000000000E+00  0.00000000000E+00  0.74290021534E+03  0.74290130088E+03  0.12700000000E+01 0. -1.
          4   -1    0    0  501    0  0.00000000000E+00 -0.00000000000E+00 -0.59004170187E+02  0.59017836283E+02  0.12700000000E+01 0. -1.
    8880022    1    1    2    0    0 -0.52645177554E+02 -0.59284666790E+02  0.11405482156E+03  0.20660673215E+03  0.15294330000E+03 0.  0.
    8880022    1    1    2    0    0  0.52645177554E+02  0.59284666790E+02  0.56984122360E+03  0.59531240501E+03  0.15294330000E+03 0.  0.
<mgrwt>
<rscale>  0 0.17227257E+03</rscale>
<asrwt>0</asrwt>
<pdfrwt beam="1">  1        4 0.90786992E-02 0.17227257E+03</pdfrwt>
<pdfrwt beam="2">  1       -4 0.11429348E+00 0.17227257E+03</pdfrwt>
<totfact> 0.97017725E+01</totfact>
</mgrwt>
</event>
<event>
 4    1  0.8478300E-009  0.1639963E+03  0.7818608E-02  0.1184257E+00
         -4   -1    0    0    0  501 -0.00000000000E+00  0.00000000000E+00  0.67372080712E+03  0.67372200413E+03  0.12700000000E+01 0.  1.
          4   -1    0    0  501    0  0.00000000000E+00 -0.00000000000E+00 -0.41358827373E+02  0.41378321639E+02  0.12700000000E+01 0.  1.
    8880022    1    1    2    0    0  0.57195913942E+02  0.15223553177E+02  0.24924119075E+03  0.29835541444E+03  0.15294330000E+03 0.  1.
    8880022    1    1    2    0    0 -0.57195913942E+02 -0.15223553177E+02  0.38312078899E+03  0.41674491133E+03  0.15294330000E+03 0.  1.
<mgrwt>
<rscale>  0 0.16399629E+03</rscale>
<asrwt>0</asrwt>
<pdfrwt beam="1">  1        4 0.63644884E-02 0.16399629E+03</pdfrwt>
<pdfrwt beam="2">  1       -4 0.10365094E+00 0.16399629E+03</pdfrwt>
<totfact> 0.21871495E+02</totfact>
</mgrwt>
</event>
<event>
 4    1  0.8478300E-009  0.1712459E+03  0.7818608E-02  0.1176555E+00
         -4   -1    0    0    0  501 -0.00000000000E+00  0.00000000000E+00  0.19978699844E+03  0.19979103495E+03  0.12700000000E+01 0. -1.
          4   -1    0    0  501    0  0.00000000000E+00 -0.00000000000E+00 -0.16192518306E+03  0.16193016337E+03  0.12700000000E+01 0. -1.
    8880022    1    1    2    0    0 -0.73904696204E+02 -0.21716628151E+02  0.74253050498E+02  0.18665123783E+03  0.15294330000E+03 0.  0.
    8880022    1    1    2    0    0  0.73904696204E+02  0.21716628151E+02 -0.36391235113E+02  0.17506996049E+03  0.15294330000E+03 0.  0.
<mgrwt>
<rscale>  0 0.17124593E+03</rscale>
<asrwt>0</asrwt>
<pdfrwt beam="1">  1        4 0.24912260E-01 0.17124593E+03</pdfrwt>
<pdfrwt beam="2">  1       -4 0.30737155E-01 0.17124593E+03</pdfrwt>
<totfact> 0.26554458E+02</totfact>
</mgrwt>
</event>
<event>
 4    1  0.8478300E-009  0.3016314E+03  0.7818608E-02  0.1084428E+00
          4   -1    0    0  501    0  0.00000000000E+00  0.00000000000E+00  0.52598236639E+03  0.52598389961E+03  0.12700000000E+01 0. -1.
         -4   -1    0    0    0  501 -0.00000000000E+00 -0.00000000000E+00 -0.17379528246E+03  0.17379992262E+03  0.12700000000E+01 0. -1.
    8880022    1    1    2    0    0  0.20939998223E+03 -0.15408279977E+03  0.20019917860E+03  0.36202379186E+03  0.15294330000E+03 0.  0.
    8880022    1    1    2    0    0 -0.20939998223E+03  0.15408279977E+03  0.15198790533E+03  0.33776003038E+03  0.15294330000E+03 0.  0.
<mgrwt>
<rscale>  0 0.30163142E+03</rscale>
<asrwt>0</asrwt>
<pdfrwt beam="1">  1        4 0.80920837E-01 0.30163142E+03</pdfrwt>
<pdfrwt beam="2">  1       -4 0.26738211E-01 0.30163142E+03</pdfrwt>
<totfact> 0.33888472E+01</totfact>
</mgrwt>
</event>
<event>
 4    1  0.8478300E-009  0.1941925E+03  0.7818608E-02  0.1154733E+00
          4   -1    0    0  501    0  0.00000000000E+00  0.00000000000E+00  0.59510176847E+03  0.59510312362E+03  0.12700000000E+01 0.  1.
         -4   -1    0    0    0  501 -0.00000000000E+00 -0.00000000000E+00 -0.72857806858E+02  0.72868874838E+02  0.12700000000E+01 0.  1.
    8880022    1    1    2    0    0 -0.13922374307E+02  0.11884967802E+03  0.14055033082E+03  0.23971884986E+03  0.15294330000E+03 0.  0.
    8880022    1    1    2    0    0  0.13922374307E+02 -0.11884967802E+03  0.38169363080E+03  0.42825314859E+03  0.15294330000E+03 0.  0.
<mgrwt>
<rscale>  0 0.19419251E+03</rscale>
<asrwt>0</asrwt>
<pdfrwt beam="1">  1        4 0.91555072E-01 0.19419251E+03</pdfrwt>
<pdfrwt beam="2">  1       -4 0.11209849E-01 0.19419251E+03</pdfrwt>
<totfact> 0.11592771E+02</totfact>
</mgrwt>
</event>
<event>
 4    1  0.8478300E-009  0.5810852E+03  0.7818608E-02  0.9945444E-01
         -4   -1    0    0    0  501 -0.00000000000E+00  0.00000000000E+00  0.95787482796E+03  0.95787566988E+03  0.12700000000E+01 0. -1.
          4   -1    0    0  501    0  0.00000000000E+00 -0.00000000000E+00 -0.40608734185E+03  0.40608932775E+03  0.12700000000E+01 0. -1.
    8880022    1    1    2    0    0  0.31302903894E+02 -0.55972181557E+03  0.52361481198E+03  0.78219723021E+03  0.15294330000E+03 0.  0.
    8880022    1    1    2    0    0 -0.31302903894E+02  0.55972181557E+03  0.28172674135E+02  0.58176776741E+03  0.15294330000E+03 0.  0.
<mgrwt>
<rscale>  0 0.58108522E+03</rscale>
<asrwt>0</asrwt>
<pdfrwt beam="1">  1        4 0.62475194E-01 0.58108522E+03</pdfrwt>
<pdfrwt beam="2">  1       -4 0.14736557E+00 0.58108522E+03</pdfrwt>
<totfact> 0.14719547E+00</totfact>
</mgrwt>
</event>
<event>
 4    1  0.8478300E-009  0.2009814E+03  0.7818608E-02  0.1148914E+00
          4   -1    0    0  501    0  0.00000000000E+00  0.00000000000E+00  0.12781546927E+04  0.12781553236E+04  0.12700000000E+01 0.  1.
         -4   -1    0    0    0  501 -0.00000000000E+00 -0.00000000000E+00 -0.36986482284E+02  0.37008279773E+02  0.12700000000E+01 0.  1.
    8880022    1    1    2    0    0  0.28953668530E+02 -0.12713597057E+03  0.36947809602E+03  0.42060383544E+03  0.15294330000E+03 0.  0.
    8880022    1    1    2    0    0 -0.28953668530E+02  0.12713597057E+03  0.87169011437E+03  0.89455976795E+03  0.15294330000E+03 0.  0.
<mgrwt>
<rscale>  0 0.20098140E+03</rscale>
<asrwt>0</asrwt>
<pdfrwt beam="1">  1        4 0.19664093E+00 0.20098140E+03</pdfrwt>
<pdfrwt beam="2">  1       -4 0.56919527E-02 0.20098140E+03</pdfrwt>
<totfact> 0.52474974E+01</totfact>
</mgrwt>
</event>
<event>
 4    1  0.8478300E-009  0.2062602E+03  0.7818608E-02  0.1144562E+00
          4   -1    0    0  501    0  0.00000000000E+00  0.00000000000E+00  0.10853273979E+03  0.10854017002E+03  0.12700000000E+01 0. -1.
         -4   -1    0    0    0  501 -0.00000000000E+00 -0.00000000000E+00 -0.77110378173E+03  0.77110482757E+03  0.12700000000E+01 0. -1.
    8880022    1    1    2    0    0  0.31350982883E+02 -0.13479151735E+03 -0.63968826300E+03  0.67211930794E+03  0.15294330000E+03 0.  0.
    8880022    1    1    2    0    0 -0.31350982883E+02  0.13479151735E+03 -0.22882778941E+02  0.20752568965E+03  0.15294330000E+03 0.  0.
<mgrwt>
<rscale>  0 0.20626025E+03</rscale>
<asrwt>0</asrwt>
<pdfrwt beam="1">  1        4 0.16697997E-01 0.20626025E+03</pdfrwt>
<pdfrwt beam="2">  1       -4 0.11863200E+00 0.20626025E+03</pdfrwt>
<totfact> 0.31666781E+01</totfact>
</mgrwt>
</event>
<event>
 4    1  0.8478300E-009  0.2035531E+03  0.7818608E-02  0.1146775E+00
         -4   -1    0    0    0  501 -0.00000000000E+00  0.00000000000E+00  0.74280653086E+02  0.74291509090E+02  0.12700000000E+01 0. -1.
          4   -1    0    0  501    0  0.00000000000E+00 -0.00000000000E+00 -0.63396530315E+03  0.63396657522E+03  0.12700000000E+01 0. -1.
    8880022    1    1    2    0    0 -0.13228955968E+03 -0.23274464517E+02 -0.40262787584E+03  0.45115749769E+03  0.15294330000E+03 0. -1.
    8880022    1    1    2    0    0  0.13228955968E+03  0.23274464517E+02 -0.15705677422E+03  0.25710058662E+03  0.15294330000E+03 0. -1.
<mgrwt>
<rscale>  0 0.20355314E+03</rscale>
<asrwt>0</asrwt>
<pdfrwt beam="1">  1        4 0.97534053E-01 0.20355314E+03</pdfrwt>
<pdfrwt beam="2">  1       -4 0.11428726E-01 0.20355314E+03</pdfrwt>
<totfact> 0.97550736E+01</totfact>
</mgrwt>
</event>
<event>
 4    1  0.8478300E-009  0.2033084E+03  0.7818608E-02  0.1146977E+00
         -4   -1    0    0    0  501 -0.00000000000E+00  0.00000000000E+00  0.10524056572E+03  0.10524822836E+03  0.12700000000E+01 0.  1.
          4   -1    0    0  501    0  0.00000000000E+00 -0.00000000000E+00 -0.42170050367E+03  0.42170241604E+03  0.12700000000E+01 0.  1.
    8880022    1    1    2    0    0  0.89105811519E+02 -0.10001410662E+03 -0.22727872137E+03  0.30494251487E+03  0.15294330000E+03 0.  1.
    8880022    1    1    2    0    0 -0.89105811519E+02  0.10001410662E+03 -0.89181216579E+02  0.22200812953E+03  0.15294330000E+03 0.  1.
<mgrwt>
<rscale>  0 0.20330844E+03</rscale>
<asrwt>0</asrwt>
<pdfrwt beam="1">  1        4 0.64877736E-01 0.20330844E+03</pdfrwt>
<pdfrwt beam="2">  1       -4 0.16191593E-01 0.20330844E+03</pdfrwt>
<totfact> 0.13180500E+02</totfact>
</mgrwt>
</event>
<event>
 4    1  0.8478300E-009  0.4980261E+03  0.7818608E-02  0.1014295E+00
         -4   -1    0    0    0  501 -0.00000000000E+00  0.00000000000E+00  0.58810974925E+03  0.58811112051E+03  0.12700000000E+01 0.  1.
          4   -1    0    0  501    0  0.00000000000E+00 -0.00000000000E+00 -0.46959590161E+03  0.46959761893E+03  0.12700000000E+01 0.  1.
    8880022    1    1    2    0    0  0.47093544137E+03 -0.53462033799E+02  0.22808636573E+03  0.54777132295E+03  0.15294330000E+03 0.  0.
    8880022    1    1    2    0    0 -0.47093544137E+03  0.53462033799E+02 -0.10957251809E+03  0.50993741649E+03  0.15294330000E+03 0.  0.
<mgrwt>
<rscale>  0 0.49802614E+03</rscale>
<asrwt>0</asrwt>
<pdfrwt beam="1">  1        4 0.72245761E-01 0.49802614E+03</pdfrwt>
<pdfrwt beam="2">  1       -4 0.90478661E-01 0.49802614E+03</pdfrwt>
<totfact> 0.35515289E+00</totfact>
</mgrwt>
</event>
<event>
 4    1  0.8478300E-009  0.2277034E+03  0.7818608E-02  0.1128267E+00
         -4   -1    0    0    0  501 -0.00000000000E+00  0.00000000000E+00  0.59198570901E+03  0.59198707129E+03  0.12700000000E+01 0. -1.
          4   -1    0    0  501    0  0.00000000000E+00 -0.00000000000E+00 -0.88077338007E+02  0.88086493689E+02  0.12700000000E+01 0. -1.
    8880022    1    1    2    0    0 -0.13692818890E+03 -0.98528526455E+02  0.22636727718E+03  0.32107786693E+03  0.15294330000E+03 0.  0.
    8880022    1    1    2    0    0  0.13692818890E+03  0.98528526455E+02  0.27754109382E+03  0.35899569805E+03  0.15294330000E+03 0.  0.
<mgrwt>
<rscale>  0 0.22770343E+03</rscale>
<asrwt>0</asrwt>
<pdfrwt beam="1">  1        4 0.13551169E-01 0.22770343E+03</pdfrwt>
<pdfrwt beam="2">  1       -4 0.91075534E-01 0.22770343E+03</pdfrwt>
<totfact> 0.86282258E+01</totfact>
</mgrwt>
</event>
<event>
 4    1  0.8478300E-009  0.1757575E+03  0.7818608E-02  0.1171973E+00
         -4   -1    0    0    0  501 -0.00000000000E+00  0.00000000000E+00  0.94615929423E+03  0.94616014657E+03  0.12700000000E+01 0.  1.
          4   -1    0    0  501    0  0.00000000000E+00 -0.00000000000E+00 -0.32745535139E+02  0.32770153670E+02  0.12700000000E+01 0.  1.
    8880022    1    1    2    0    0 -0.86550905835E+02  0.28249129398E+01  0.48509584004E+03  0.51595413214E+03  0.15294330000E+03 0.  0.
    8880022    1    1    2    0    0  0.86550905835E+02 -0.28249129398E+01  0.42831791906E+03  0.46297616811E+03  0.15294330000E+03 0.  0.
<mgrwt>
<rscale>  0 0.17575748E+03</rscale>
<asrwt>0</asrwt>
<pdfrwt beam="1">  1        4 0.50397337E-02 0.17575748E+03</pdfrwt>
<pdfrwt beam="2">  1       -4 0.14556493E+00 0.17575748E+03</pdfrwt>
<totfact> 0.14136100E+02</totfact>
</mgrwt>
</event>
<event>
 4    1  0.8478300E-009  0.1974339E+03  0.7818608E-02  0.1151922E+00
          4   -1    0    0  501    0  0.00000000000E+00  0.00000000000E+00  0.96475235638E+02  0.96483594416E+02  0.12700000000E+01 0.  1.
         -4   -1    0    0    0  501 -0.00000000000E+00 -0.00000000000E+00 -0.53310169178E+03  0.53310320453E+03  0.12700000000E+01 0.  1.
    8880022    1    1    2    0    0 -0.10269997153E+03  0.71001459264E+02 -0.37321460269E+03  0.42221947379E+03  0.15294330000E+03 0.  1.
    8880022    1    1    2    0    0  0.10269997153E+03 -0.71001459264E+02 -0.63411853458E+02  0.20736732516E+03  0.15294330000E+03 0.  1.
<mgrwt>
<rscale>  0 0.19743390E+03</rscale>
<asrwt>0</asrwt>
<pdfrwt beam="1">  1        4 0.14843103E-01 0.19743390E+03</pdfrwt>
<pdfrwt beam="2">  1       -4 0.82016403E-01 0.19743390E+03</pdfrwt>
<totfact> 0.91562182E+01</totfact>
</mgrwt>
</event>
<event>
 4    1  0.8478300E-009  0.1570859E+03  0.7818608E-02  0.1192027E+00
          4   -1    0    0  501    0  0.00000000000E+00  0.00000000000E+00  0.89826429320E+02  0.89835406742E+02  0.12700000000E+01 0. -1.
         -4   -1    0    0    0  501 -0.00000000000E+00 -0.00000000000E+00 -0.99095623822E+03  0.99095705203E+03  0.12700000000E+01 0. -1.
    8880022    1    1    2    0    0 -0.44492269640E+01  0.35560360361E+02 -0.90999768336E+03  0.92345642647E+03  0.15294330000E+03 0.  0.
    8880022    1    1    2    0    0  0.44492269640E+01 -0.35560360361E+02  0.88678744575E+01  0.15733603231E+03  0.15294330000E+03 0.  0.
<mgrwt>
<rscale>  0 0.15708593E+03</rscale>
<asrwt>0</asrwt>
<pdfrwt beam="1">  1        4 0.13820205E-01 0.15708593E+03</pdfrwt>
<pdfrwt beam="2">  1       -4 0.15245555E+00 0.15708593E+03</pdfrwt>
<totfact> 0.22932984E+01</totfact>
</mgrwt>
</event>
<event>
 4    1  0.8478300E-009  0.2252938E+03  0.7818608E-02  0.1129997E+00
          4   -1    0    0  501    0  0.00000000000E+00  0.00000000000E+00  0.76556602032E+03  0.76556707372E+03  0.12700000000E+01 0. -1.
         -4   -1    0    0    0  501 -0.00000000000E+00 -0.00000000000E+00 -0.82402844133E+02  0.82412630229E+02  0.12700000000E+01 0. -1.
    8880022    1    1    2    0    0  0.12256043034E+03  0.11110608706E+03  0.52903632351E+03  0.57501017928E+03  0.15294330000E+03 0.  0.
    8880022    1    1    2    0    0 -0.12256043034E+03 -0.11110608706E+03  0.15412685267E+03  0.27296952467E+03  0.15294330000E+03 0.  0.
<mgrwt>
<rscale>  0 0.22529375E+03</rscale>
<asrwt>0</asrwt>
<pdfrwt beam="1">  1        4 0.11778022E+00 0.22529375E+03</pdfrwt>
<pdfrwt beam="2">  1       -4 0.12678194E-01 0.22529375E+03</pdfrwt>
<totfact> 0.52798482E+01</totfact>
</mgrwt>
</event>
<event>
 4    1  0.8478300E-009  0.1594756E+03  0.7818608E-02  0.1189290E+00
         -4   -1    0    0    0  501 -0.00000000000E+00  0.00000000000E+00  0.77945753698E+02  0.77956099309E+02  0.12700000000E+01 0. -1.
          4   -1    0    0  501    0  0.00000000000E+00 -0.00000000000E+00 -0.52748980394E+03  0.52749133278E+03  0.12700000000E+01 0. -1.
    8880022    1    1    2    0    0 -0.44204174051E+02  0.93169837484E+01 -0.37794148021E+02  0.16389284862E+03  0.15294330000E+03 0.  0.
    8880022    1    1    2    0    0  0.44204174051E+02 -0.93169837484E+01 -0.41174990222E+03  0.44155458347E+03  0.15294330000E+03 0.  0.
<mgrwt>
<rscale>  0 0.15947560E+03</rscale>
<asrwt>0</asrwt>
<pdfrwt beam="1">  1        4 0.81153189E-01 0.15947560E+03</pdfrwt>
<pdfrwt beam="2">  1       -4 0.11992568E-01 0.15947560E+03</pdfrwt>
<totfact> 0.13167464E+02</totfact>
</mgrwt>
</event>
<event>
 4    1  0.8478300E-009  0.4503258E+03  0.7818608E-02  0.1027625E+00
          4   -1    0    0  501    0  0.00000000000E+00  0.00000000000E+00  0.22435891404E+03  0.22436250847E+03  0.12700000000E+01 0.  1.
         -4   -1    0    0    0  501 -0.00000000000E+00 -0.00000000000E+00 -0.90585032388E+03  0.90585121414E+03  0.12700000000E+01 0.  1.
    8880022    1    1    2    0    0  0.28015084613E+03 -0.31767468731E+03 -0.36718178486E+03  0.58104717510E+03  0.15294330000E+03 0.  0.
    8880022    1    1    2    0    0 -0.28015084613E+03  0.31767468731E+03 -0.31430962498E+03  0.54916654752E+03  0.15294330000E+03 0.  0.
<mgrwt>
<rscale>  0 0.45032583E+03</rscale>
<asrwt>0</asrwt>
<pdfrwt beam="1">  1        4 0.34517101E-01 0.45032583E+03</pdfrwt>
<pdfrwt beam="2">  1       -4 0.13936193E+00 0.45032583E+03</pdfrwt>
<totfact> 0.57670181E+00</totfact>
</mgrwt>
</event>
<event>
 4    1  0.8478300E-009  0.3264197E+03  0.7818608E-02  0.1072732E+00
          4   -1    0    0  501    0  0.00000000000E+00  0.00000000000E+00  0.75342473063E+03  0.75342580101E+03  0.12700000000E+01 0.  1.
         -4   -1    0    0    0  501 -0.00000000000E+00 -0.00000000000E+00 -0.14448334438E+03  0.14448892589E+03  0.12700000000E+01 0.  1.
    8880022    1    1    2    0    0 -0.20871813420E+03 -0.19898473126E+03  0.23906418160E+03  0.40460044335E+03  0.15294330000E+03 0.  0.
    8880022    1    1    2    0    0  0.20871813420E+03  0.19898473126E+03  0.36987720465E+03  0.49331428355E+03  0.15294330000E+03 0.  0.
<mgrwt>
<rscale>  0 0.32641972E+03</rscale>
<asrwt>0</asrwt>
<pdfrwt beam="1">  1        4 0.11591201E+00 0.32641972E+03</pdfrwt>
<pdfrwt beam="2">  1       -4 0.22228719E-01 0.32641972E+03</pdfrwt>
<totfact> 0.20787069E+01</totfact>
</mgrwt>
</event>
<event>
 4    1  0.8478300E-009  0.1892573E+03  0.7818608E-02  0.1159133E+00
          4   -1    0    0  501    0  0.00000000000E+00  0.00000000000E+00  0.55801360507E+02  0.55815810792E+02  0.12700000000E+01 0.  1.
         -4   -1    0    0    0  501 -0.00000000000E+00 -0.00000000000E+00 -0.10965882329E+04  0.10965889683E+04  0.12700000000E+01 0.  1.
    8880022    1    1    2    0    0  0.11068031490E+03  0.13287046698E+02 -0.14932094504E+03  0.24107068540E+03  0.15294330000E+03 0.  0.
    8880022    1    1    2    0    0 -0.11068031490E+03 -0.13287046698E+02 -0.89146592733E+03  0.91133409369E+03  0.15294330000E+03 0.  0.
<mgrwt>
<rscale>  0 0.18925731E+03</rscale>
<asrwt>0</asrwt>
<pdfrwt beam="1">  1        4 0.85859936E-02 0.18925731E+03</pdfrwt>
<pdfrwt beam="2">  1       -4 0.16870703E+00 0.18925731E+03</pdfrwt>
<totfact> 0.40408667E+01</totfact>
</mgrwt>
</event>
<event>
 4    1  0.8478300E-009  0.2973814E+03  0.7818608E-02  0.1086557E+00
          4   -1    0    0  501    0  0.00000000000E+00  0.00000000000E+00  0.80025029432E+03  0.80025130206E+03  0.12700000000E+01 0. -1.
         -4   -1    0    0    0  501 -0.00000000000E+00 -0.00000000000E+00 -0.36076169946E+03  0.36076393487E+03  0.12700000000E+01 0. -1.
    8880022    1    1    2    0    0 -0.14824593199E+02  0.25460610902E+03  0.70323354446E+03  0.76352675814E+03  0.15294330000E+03 0.  0.
    8880022    1    1    2    0    0  0.14824593199E+02 -0.25460610902E+03 -0.26374494961E+03  0.39748847879E+03  0.15294330000E+03 0.  0.
<mgrwt>
<rscale>  0 0.29738139E+03</rscale>
<asrwt>0</asrwt>
<pdfrwt beam="1">  1        4 0.12311568E+00 0.29738139E+03</pdfrwt>
<pdfrwt beam="2">  1       -4 0.55502049E-01 0.29738139E+03</pdfrwt>
<totfact> 0.29453762E+00</totfact>
</mgrwt>
</event>
<event>
 4    1  0.8478300E-009  0.2466449E+03  0.7818608E-02  0.1115444E+00
         -4   -1    0    0    0  501 -0.00000000000E+00  0.00000000000E+00  0.33064550991E+03  0.33064794892E+03  0.12700000000E+01 0.  1.
          4   -1    0    0  501    0  0.00000000000E+00 -0.00000000000E+00 -0.18797088542E+03  0.18797517566E+03  0.12700000000E+01 0.  1.
    8880022    1    1    2    0    0 -0.18244111569E+03 -0.64477234500E+02  0.33551002904E+02  0.24891644637E+03  0.15294330000E+03 0.  0.
    8880022    1    1    2    0    0  0.18244111569E+03  0.64477234500E+02  0.10912362159E+03  0.26970667821E+03  0.15294330000E+03 0.  0.
<mgrwt>
<rscale>  0 0.24664494E+03</rscale>
<asrwt>0</asrwt>
<pdfrwt beam="1">  1        4 0.28919116E-01 0.24664494E+03</pdfrwt>
<pdfrwt beam="2">  1       -4 0.50869057E-01 0.24664494E+03</pdfrwt>
<totfact> 0.77811348E+01</totfact>
</mgrwt>
</event>
<event>
 4    1  0.8478300E-009  0.1764241E+03  0.7818608E-02  0.1171309E+00
          4   -1    0    0  501    0  0.00000000000E+00  0.00000000000E+00  0.93960623960E+02  0.93969206419E+02  0.12700000000E+01 0. -1.
         -4   -1    0    0    0  501 -0.00000000000E+00 -0.00000000000E+00 -0.53617721305E+03  0.53617871712E+03  0.12700000000E+01 0. -1.
    8880022    1    1    2    0    0  0.22247830465E+02 -0.85081416862E+02 -0.26317285598E+02  0.17837619233E+03  0.15294330000E+03 0.  0.
    8880022    1    1    2    0    0 -0.22247830465E+02  0.85081416862E+02 -0.41589930349E+03  0.45177173120E+03  0.15294330000E+03 0.  0.
<mgrwt>
<rscale>  0 0.17642411E+03</rscale>
<asrwt>0</asrwt>
<pdfrwt beam="1">  1        4 0.14456257E-01 0.17642411E+03</pdfrwt>
<pdfrwt beam="2">  1       -4 0.82489576E-01 0.17642411E+03</pdfrwt>
<totfact> 0.93214480E+01</totfact>
</mgrwt>
</event>
<event>
 4    1  0.8478300E-009  0.1921476E+03  0.7818608E-02  0.1156538E+00
         -4   -1    0    0    0  501 -0.00000000000E+00  0.00000000000E+00  0.99480384772E+02  0.99488491065E+02  0.12700000000E+01 0.  1.
          4   -1    0    0  501    0  0.00000000000E+00 -0.00000000000E+00 -0.53116117648E+03  0.53116269475E+03  0.12700000000E+01 0.  1.
    8880022    1    1    2    0    0 -0.15622246783E+01  0.11630397621E+03 -0.42751290639E+02  0.19684608529E+03  0.15294330000E+03 0.  0.
    8880022    1    1    2    0    0  0.15622246783E+01 -0.11630397621E+03 -0.38892950106E+03  0.43380510052E+03  0.15294330000E+03 0.  0.
<mgrwt>
<rscale>  0 0.19214762E+03</rscale>
<asrwt>0</asrwt>
<pdfrwt beam="1">  1        4 0.81717843E-01 0.19214762E+03</pdfrwt>
<pdfrwt beam="2">  1       -4 0.15305415E-01 0.19214762E+03</pdfrwt>
<totfact> 0.87151031E+01</totfact>
</mgrwt>
</event>
<event>
 4    1  0.8478300E-009  0.3559906E+03  0.7818608E-02  0.1060183E+00
         -4   -1    0    0    0  501 -0.00000000000E+00  0.00000000000E+00  0.14165808291E+03  0.14166377573E+03  0.12700000000E+01 0.  1.
          4   -1    0    0  501    0  0.00000000000E+00 -0.00000000000E+00 -0.89493764801E+03  0.89493854913E+03  0.12700000000E+01 0.  1.
    8880022    1    1    2    0    0 -0.18641711683E+03  0.26188991075E+03 -0.36642428329E+03  0.51087774976E+03  0.15294330000E+03 0.  0.
    8880022    1    1    2    0    0  0.18641711683E+03 -0.26188991075E+03 -0.38685528181E+03  0.52572457511E+03  0.15294330000E+03 0.  0.
<mgrwt>
<rscale>  0 0.35599062E+03</rscale>
<asrwt>0</asrwt>
<pdfrwt beam="1">  1        4 0.13768322E+00 0.35599062E+03</pdfrwt>
<pdfrwt beam="2">  1       -4 0.21794059E-01 0.35599062E+03</pdfrwt>
<totfact> 0.14130264E+01</totfact>
</mgrwt>
</event>
<event>
 4    1  0.8478300E-009  0.1793516E+03  0.7818608E-02  0.1168432E+00
          4   -1    0    0  501    0  0.00000000000E+00  0.00000000000E+00  0.16968142676E+02  0.17015603600E+02  0.12700000000E+01 0. -1.
         -4   -1    0    0    0  501 -0.00000000000E+00 -0.00000000000E+00 -0.21947509669E+04  0.21947513343E+04  0.12700000000E+01 0. -1.
    8880022    1    1    2    0    0  0.69104670045E+02  0.63244724486E+02 -0.67886496052E+03  0.70215713215E+03  0.15294330000E+03 0.  0.
    8880022    1    1    2    0    0 -0.69104670045E+02 -0.63244724486E+02 -0.14989178637E+04  0.15096098058E+04  0.15294330000E+03 0.  0.
<mgrwt>
<rscale>  0 0.17935162E+03</rscale>
<asrwt>0</asrwt>
<pdfrwt beam="1">  1        4 0.26141643E-02 0.17935162E+03</pdfrwt>
<pdfrwt beam="2">  1       -4 0.33765745E+00 0.17935162E+03</pdfrwt>
<totfact> 0.26157564E+01</totfact>
</mgrwt>
</event>
<event>
 4    1  0.8478300E-009  0.1775803E+03  0.7818608E-02  0.1170166E+00
          4   -1    0    0  501    0  0.00000000000E+00  0.00000000000E+00  0.24211727587E+03  0.24212060667E+03  0.12700000000E+01 0. -1.
         -4   -1    0    0    0  501 -0.00000000000E+00 -0.00000000000E+00 -0.43998140255E+03  0.43998323546E+03  0.12700000000E+01 0. -1.
    8880022    1    1    2    0    0  0.34088277469E+02  0.83552951339E+02  0.18722232522E+03  0.25804448922E+03  0.15294330000E+03 0.  1.
    8880022    1    1    2    0    0 -0.34088277469E+02 -0.83552951339E+02 -0.38508645190E+03  0.42405935291E+03  0.15294330000E+03 0.  1.
<mgrwt>
<rscale>  0 0.17758029E+03</rscale>
<asrwt>0</asrwt>
<pdfrwt beam="1">  1        4 0.37249209E-01 0.17758029E+03</pdfrwt>
<pdfrwt beam="2">  1       -4 0.67689844E-01 0.17758029E+03</pdfrwt>
<totfact> 0.25135622E+01</totfact>
</mgrwt>
</event>
<event>
 4    1  0.8478300E-009  0.2070824E+03  0.7818608E-02  0.1143897E+00
          4   -1    0    0  501    0  0.00000000000E+00  0.00000000000E+00  0.17917099789E+03  0.17917549884E+03  0.12700000000E+01 0.  1.
         -4   -1    0    0    0  501 -0.00000000000E+00 -0.00000000000E+00 -0.24539917915E+03  0.24540246541E+03  0.12700000000E+01 0.  1.
    8880022    1    1    2    0    0  0.10144566545E+03  0.95917867598E+02  0.26348393657E+00  0.20708255069E+03  0.15294330000E+03 0.  0.
    8880022    1    1    2    0    0 -0.10144566545E+03 -0.95917867598E+02 -0.66491665196E+02  0.21749541356E+03  0.15294330000E+03 0.  0.
<mgrwt>
<rscale>  0 0.20708238E+03</rscale>
<asrwt>0</asrwt>
<pdfrwt beam="1">  1        4 0.27565368E-01 0.20708238E+03</pdfrwt>
<pdfrwt beam="2">  1       -4 0.37754319E-01 0.20708238E+03</pdfrwt>
<totfact> 0.15195357E+02</totfact>
</mgrwt>
</event>
<event>
 4    1  0.8478300E-009  0.2983505E+03  0.7818608E-02  0.1086068E+00
          4   -1    0    0  501    0  0.00000000000E+00  0.00000000000E+00  0.40472397086E+03  0.40472596345E+03  0.12700000000E+01 0.  1.
         -4   -1    0    0    0  501 -0.00000000000E+00 -0.00000000000E+00 -0.22832054712E+03  0.22832407919E+03  0.12700000000E+01 0.  1.
    8880022    1    1    2    0    0 -0.73447110603E+02  0.24541162611E+03  0.27527096692E+02  0.29961765361E+03  0.15294330000E+03 0.  0.
    8880022    1    1    2    0    0  0.73447110603E+02 -0.24541162611E+03  0.14887632705E+03  0.33343238903E+03  0.15294330000E+03 0.  0.
<mgrwt>
<rscale>  0 0.29835046E+03</rscale>
<asrwt>0</asrwt>
<pdfrwt beam="1">  1        4 0.62265651E-01 0.29835046E+03</pdfrwt>
<pdfrwt beam="2">  1       -4 0.35126663E-01 0.29835046E+03</pdfrwt>
<totfact> 0.35625064E+01</totfact>
</mgrwt>
</event>
<event>
 4    1  0.8478300E-009  0.1931132E+03  0.7818608E-02  0.1155683E+00
          4   -1    0    0  501    0  0.00000000000E+00  0.00000000000E+00  0.12034078915E+04  0.12034085617E+04  0.12700000000E+01 0. -1.
         -4   -1    0    0    0  501 -0.00000000000E+00 -0.00000000000E+00 -0.46888610540E+02  0.46905806659E+02  0.12700000000E+01 0. -1.
    8880022    1    1    2    0    0  0.10982738273E+03 -0.42883722048E+02  0.21415268555E+03  0.28836451474E+03  0.15294330000E+03 0.  0.
    8880022    1    1    2    0    0 -0.10982738273E+03  0.42883722048E+02  0.94236659545E+03  0.96194985361E+03  0.15294330000E+03 0.  0.
<mgrwt>
<rscale>  0 0.19311323E+03</rscale>
<asrwt>0</asrwt>
<pdfrwt beam="1">  1        4 0.18514106E+00 0.19311323E+03</pdfrwt>
<pdfrwt beam="2">  1       -4 0.72150064E-02 0.19311323E+03</pdfrwt>
<totfact> 0.41969944E+01</totfact>
</mgrwt>
</event>
<event>
 4    1  0.8478300E-009  0.2028198E+03  0.7818608E-02  0.1147382E+00
          4   -1    0    0  501    0  0.00000000000E+00  0.00000000000E+00  0.10870311728E+04  0.10870319146E+04  0.12700000000E+01 0. -1.
         -4   -1    0    0    0  501 -0.00000000000E+00 -0.00000000000E+00 -0.75853319594E+02  0.75863950552E+02  0.12700000000E+01 0. -1.
    8880022    1    1    2    0    0 -0.12808308536E+03 -0.36591393321E+02  0.93970219898E+02  0.22353134470E+03  0.15294330000E+03 0.  0.
    8880022    1    1    2    0    0  0.12808308536E+03  0.36591393321E+02  0.91720763326E+03  0.93936452048E+03  0.15294330000E+03 0.  0.
<mgrwt>
<rscale>  0 0.20281977E+03</rscale>
<asrwt>0</asrwt>
<pdfrwt beam="1">  1        4 0.16723642E+00 0.20281977E+03</pdfrwt>
<pdfrwt beam="2">  1       -4 0.11670617E-01 0.20281977E+03</pdfrwt>
<totfact> 0.24738246E+01</totfact>
</mgrwt>
</event>
<event>
 4    1  0.8478300E-009  0.1696667E+03  0.7818608E-02  0.1178196E+00
         -4   -1    0    0    0  501 -0.00000000000E+00  0.00000000000E+00  0.92120675665E+02  0.92129429527E+02  0.12700000000E+01 0. -1.
          4   -1    0    0  501    0  0.00000000000E+00 -0.00000000000E+00 -0.35160957270E+03  0.35161186629E+03  0.12700000000E+01 0. -1.
    8880022    1    1    2    0    0 -0.58245515650E+02 -0.44750387253E+02 -0.20377274387E+03  0.26516055780E+03  0.15294330000E+03 0. -1.
    8880022    1    1    2    0    0  0.58245515650E+02  0.44750387253E+02 -0.55716153165E+02  0.17858073802E+03  0.15294330000E+03 0. -1.
<mgrwt>
<rscale>  0 0.16966670E+03</rscale>
<asrwt>0</asrwt>
<pdfrwt beam="1">  1        4 0.54094629E-01 0.16966670E+03</pdfrwt>
<pdfrwt beam="2">  1       -4 0.14173262E-01 0.16966670E+03</pdfrwt>
<totfact> 0.23783711E+02</totfact>
</mgrwt>
</event>
<event>
 4    1  0.8478300E-009  0.1935845E+03  0.7818608E-02  0.1155268E+00
         -4   -1    0    0    0  501 -0.00000000000E+00  0.00000000000E+00  0.47954552291E+03  0.47954720460E+03  0.12700000000E+01 0.  1.
          4   -1    0    0  501    0  0.00000000000E+00 -0.00000000000E+00 -0.10890292633E+03  0.10891033130E+03  0.12700000000E+01 0.  1.
    8880022    1    1    2    0    0 -0.76269889311E+02 -0.90918711624E+02  0.34169338298E+03  0.39272042107E+03  0.15294330000E+03 0.  0.
    8880022    1    1    2    0    0  0.76269889311E+02  0.90918711624E+02  0.28949213600E+02  0.19573711483E+03  0.15294330000E+03 0.  0.
<mgrwt>
<rscale>  0 0.19358451E+03</rscale>
<asrwt>0</asrwt>
<pdfrwt beam="1">  1        4 0.16754995E-01 0.19358451E+03</pdfrwt>
<pdfrwt beam="2">  1       -4 0.73776933E-01 0.19358451E+03</pdfrwt>
<totfact> 0.93223884E+01</totfact>
</mgrwt>
</event>
<event>
 4    1  0.8478300E-009  0.2504254E+03  0.7818608E-02  0.1113036E+00
          4   -1    0    0  501    0  0.00000000000E+00  0.00000000000E+00  0.47353005109E+02  0.47370032646E+02  0.12700000000E+01 0.  1.
         -4   -1    0    0    0  501 -0.00000000000E+00 -0.00000000000E+00 -0.16165446856E+04  0.16165451845E+04  0.12700000000E+01 0.  1.
    8880022    1    1    2    0    0  0.69080966080E+02  0.18587370054E+03 -0.11384436721E+04  0.11656615546E+04  0.15294330000E+03 0.  0.
    8880022    1    1    2    0    0 -0.69080966080E+02 -0.18587370054E+03 -0.43074800847E+03  0.49825366255E+03  0.15294330000E+03 0.  0.
<mgrwt>
<rscale>  0 0.25042537E+03</rscale>
<asrwt>0</asrwt>
<pdfrwt beam="1">  1        4 0.72864271E-02 0.25042537E+03</pdfrwt>
<pdfrwt beam="2">  1       -4 0.24870049E+00 0.25042537E+03</pdfrwt>
<totfact> 0.17149141E+01</totfact>
</mgrwt>
</event>
<event>
 4    1  0.8478300E-009  0.1710573E+03  0.7818608E-02  0.1176750E+00
         -4   -1    0    0    0  501 -0.00000000000E+00  0.00000000000E+00  0.34534990253E+03  0.34535223769E+03  0.12700000000E+01 0. -1.
          4   -1    0    0  501    0  0.00000000000E+00 -0.00000000000E+00 -0.96182092298E+02  0.96190476549E+02  0.12700000000E+01 0. -1.
    8880022    1    1    2    0    0 -0.46972815866E+00 -0.76607669312E+02  0.48375791158E+02  0.17776621115E+03  0.15294330000E+03 0.  1.
    8880022    1    1    2    0    0  0.46972815866E+00  0.76607669312E+02  0.20079201907E+03  0.26377650308E+03  0.15294330000E+03 0.  1.
<mgrwt>
<rscale>  0 0.17105733E+03</rscale>
<asrwt>0</asrwt>
<pdfrwt beam="1">  1        4 0.14798069E-01 0.17105733E+03</pdfrwt>
<pdfrwt beam="2">  1       -4 0.53131580E-01 0.17105733E+03</pdfrwt>
<totfact> 0.22921439E+02</totfact>
</mgrwt>
</event>
<event>
 4    1  0.8478300E-009  0.2731475E+03  0.7818608E-02  0.1099492E+00
          4   -1    0    0  501    0  0.00000000000E+00  0.00000000000E+00  0.48303474081E+02  0.48320166683E+02  0.12700000000E+01 0. -1.
         -4   -1    0    0    0  501 -0.00000000000E+00 -0.00000000000E+00 -0.15745647610E+04  0.15745652731E+04  0.12700000000E+01 0. -1.
    8880022    1    1    2    0    0 -0.22368649058E+03  0.34383913293E+02 -0.87559803002E+03  0.91721396781E+03  0.15294330000E+03 0.  0.
    8880022    1    1    2    0    0  0.22368649058E+03 -0.34383913293E+02 -0.65066325687E+03  0.70567147201E+03  0.15294330000E+03 0.  0.
<mgrwt>
<rscale>  0 0.27314749E+03</rscale>
<asrwt>0</asrwt>
<pdfrwt beam="1">  1        4 0.74326284E-02 0.27314749E+03</pdfrwt>
<pdfrwt beam="2">  1       -4 0.24224202E+00 0.27314749E+03</pdfrwt>
<totfact> 0.18216287E+01</totfact>
</mgrwt>
</event>
<event>
 4    1  0.8478300E-009  0.2556274E+03  0.7818608E-02  0.1109799E+00
         -4   -1    0    0    0  501 -0.00000000000E+00  0.00000000000E+00  0.73942828278E+03  0.73942937342E+03  0.12700000000E+01 0.  1.
          4   -1    0    0  501    0  0.00000000000E+00 -0.00000000000E+00 -0.90588715038E+02  0.90597616923E+02  0.12700000000E+01 0.  1.
    8880022    1    1    2    0    0  0.17674826537E+03  0.10350739556E+03  0.25943188727E+03  0.36421187157E+03  0.15294330000E+03 0.  0.
    8880022    1    1    2    0    0 -0.17674826537E+03 -0.10350739556E+03  0.38940768047E+03  0.46581511877E+03  0.15294330000E+03 0.  0.
<mgrwt>
<rscale>  0 0.25562743E+03</rscale>
<asrwt>0</asrwt>
<pdfrwt beam="1">  1        4 0.13937494E-01 0.25562743E+03</pdfrwt>
<pdfrwt beam="2">  1       -4 0.11375897E+00 0.25562743E+03</pdfrwt>
<totfact> 0.49324446E+01</totfact>
</mgrwt>
</event>
<event>
 4    1  0.8478300E-009  0.3479190E+03  0.7818608E-02  0.1063472E+00
          4   -1    0    0  501    0  0.00000000000E+00  0.00000000000E+00  0.13923943994E+03  0.13924523164E+03  0.12700000000E+01 0. -1.
         -4   -1    0    0    0  501 -0.00000000000E+00 -0.00000000000E+00 -0.87510224731E+03  0.87510316886E+03  0.12700000000E+01 0. -1.
    8880022    1    1    2    0    0  0.24871580762E+03  0.18919947752E+03 -0.32672122762E+03  0.47727812525E+03  0.15294330000E+03 0.  0.
    8880022    1    1    2    0    0 -0.24871580762E+03 -0.18919947752E+03 -0.40914157975E+03  0.53707027524E+03  0.15294330000E+03 0.  0.
<mgrwt>
<rscale>  0 0.34791903E+03</rscale>
<asrwt>0</asrwt>
<pdfrwt beam="1">  1        4 0.21421969E-01 0.34791903E+03</pdfrwt>
<pdfrwt beam="2">  1       -4 0.13463163E+00 0.34791903E+03</pdfrwt>
<totfact> 0.15418895E+01</totfact>
</mgrwt>
</event>
<event>
 4    1  0.8478300E-009  0.1805607E+03  0.7818608E-02  0.1167262E+00
         -4   -1    0    0    0  501 -0.00000000000E+00  0.00000000000E+00  0.10324063142E+03  0.10324844248E+03  0.12700000000E+01 0. -1.
          4   -1    0    0  501    0  0.00000000000E+00 -0.00000000000E+00 -0.83082807604E+03  0.83082904670E+03  0.12700000000E+01 0. -1.
    8880022    1    1    2    0    0 -0.95957836226E+02  0.16103406327E+01 -0.73151961044E+03  0.75347401615E+03  0.15294330000E+03 0.  0.
    8880022    1    1    2    0    0  0.95957836226E+02 -0.16103406327E+01  0.39321658159E+01  0.18060347304E+03  0.15294330000E+03 0.  0.
<mgrwt>
<rscale>  0 0.18056066E+03</rscale>
<asrwt>0</asrwt>
<pdfrwt beam="1">  1        4 0.12782038E+00 0.18056066E+03</pdfrwt>
<pdfrwt beam="2">  1       -4 0.15883850E-01 0.18056066E+03</pdfrwt>
<totfact> 0.28415613E+01</totfact>
</mgrwt>
</event>
<event>
 4    1  0.8478300E-009  0.1669793E+03  0.7818608E-02  0.1181035E+00
          4   -1    0    0  501    0  0.00000000000E+00  0.00000000000E+00  0.10254311913E+04  0.10254319777E+04  0.12700000000E+01 0.  1.
         -4   -1    0    0    0  501 -0.00000000000E+00 -0.00000000000E+00 -0.29557185187E+02  0.29584457003E+02  0.12700000000E+01 0.  1.
    8880022    1    1    2    0    0  0.30516704152E+02 -0.59658791977E+02  0.34825392273E+03  0.38621611619E+03  0.15294330000E+03 0. -1.
    8880022    1    1    2    0    0 -0.30516704152E+02  0.59658791977E+02  0.64762008334E+03  0.66880031852E+03  0.15294330000E+03 0. -1.
<mgrwt>
<rscale>  0 0.16697932E+03</rscale>
<asrwt>0</asrwt>
<pdfrwt beam="1">  1        4 0.15776077E+00 0.16697932E+03</pdfrwt>
<pdfrwt beam="2">  1       -4 0.45494185E-02 0.16697932E+03</pdfrwt>
<totfact> 0.13454576E+02</totfact>
</mgrwt>
</event>
<event>
 4    1  0.8478300E-009  0.2528631E+03  0.7818608E-02  0.1111509E+00
         -4   -1    0    0    0  501 -0.00000000000E+00  0.00000000000E+00  0.85706418190E+02  0.85715827120E+02  0.12700000000E+01 0. -1.
          4   -1    0    0  501    0  0.00000000000E+00 -0.00000000000E+00 -0.18544629088E+04  0.18544633437E+04  0.12700000000E+01 0. -1.
    8880022    1    1    2    0    0  0.13726451222E+03  0.14733143689E+03 -0.16343861014E+04  0.16538312127E+04  0.15294330000E+03 0.  0.
    8880022    1    1    2    0    0 -0.13726451222E+03 -0.14733143689E+03 -0.13437038927E+03  0.28634795816E+03  0.15294330000E+03 0.  0.
<mgrwt>
<rscale>  0 0.25286311E+03</rscale>
<asrwt>0</asrwt>
<pdfrwt beam="1">  1        4 0.28530271E+00 0.25286311E+03</pdfrwt>
<pdfrwt beam="2">  1       -4 0.13186361E-01 0.25286311E+03</pdfrwt>
<totfact> 0.38008082E+00</totfact>
</mgrwt>
</event>
<event>
 4    1  0.8478300E-009  0.2441472E+03  0.7818608E-02  0.1117061E+00
         -4   -1    0    0    0  501 -0.00000000000E+00  0.00000000000E+00  0.44407613908E+03  0.44407795510E+03  0.12700000000E+01 0. -1.
          4   -1    0    0  501    0  0.00000000000E+00 -0.00000000000E+00 -0.13705655026E+03  0.13706243420E+03  0.12700000000E+01 0. -1.
    8880022    1    1    2    0    0 -0.14636093488E+03  0.12163328725E+03  0.19528281143E+03  0.31263910389E+03  0.15294330000E+03 0.  0.
    8880022    1    1    2    0    0  0.14636093488E+03 -0.12163328725E+03  0.11173677740E+03  0.26850128540E+03  0.15294330000E+03 0.  0.
<mgrwt>
<rscale>  0 0.24414715E+03</rscale>
<asrwt>0</asrwt>
<pdfrwt beam="1">  1        4 0.21086216E-01 0.24414715E+03</pdfrwt>
<pdfrwt beam="2">  1       -4 0.68319997E-01 0.24414715E+03</pdfrwt>
<totfact> 0.74987377E+01</totfact>
</mgrwt>
</event>
<event>
 4    1  0.8478300E-009  0.1748018E+03  0.7818608E-02  0.1172931E+00
         -4   -1    0    0    0  501 -0.00000000000E+00  0.00000000000E+00  0.50726897009E+03  0.50727055987E+03  0.12700000000E+01 0. -1.
          4   -1    0    0  501    0  0.00000000000E+00 -0.00000000000E+00 -0.65458127771E+02  0.65470446702E+02  0.12700000000E+01 0. -1.
    8880022    1    1    2    0    0  0.52338621097E+02 -0.66518319644E+02  0.13996128597E+03  0.22393041931E+03  0.15294330000E+03 0. -1.
    8880022    1    1    2    0    0 -0.52338621097E+02  0.66518319644E+02  0.30184955635E+03  0.34881058727E+03  0.15294330000E+03 0. -1.
<mgrwt>
<rscale>  0 0.17480181E+03</rscale>
<asrwt>0</asrwt>
<pdfrwt beam="1">  1        4 0.10071551E-01 0.17480181E+03</pdfrwt>
<pdfrwt beam="2">  1       -4 0.78042451E-01 0.17480181E+03</pdfrwt>
<totfact> 0.19613650E+02</totfact>
</mgrwt>
</event>
<event>
 4    1  0.8478300E-009  0.3243605E+03  0.7818608E-02  0.1073660E+00
          4   -1    0    0  501    0  0.00000000000E+00  0.00000000000E+00  0.85282294836E+03  0.85282389398E+03  0.12700000000E+01 0. -1.
         -4   -1    0    0    0  501 -0.00000000000E+00 -0.00000000000E+00 -0.12459398582E+03  0.12460045828E+03  0.12700000000E+01 0. -1.
    8880022    1    1    2    0    0 -0.28114944541E+03 -0.52659686805E+02  0.41270727474E+03  0.52491618465E+03  0.15294330000E+03 0.  0.
    8880022    1    1    2    0    0  0.28114944541E+03  0.52659686805E+02  0.31552168779E+03  0.45250816761E+03  0.15294330000E+03 0.  0.
<mgrwt>
<rscale>  0 0.32436046E+03</rscale>
<asrwt>0</asrwt>
<pdfrwt beam="1">  1        4 0.13120410E+00 0.32436046E+03</pdfrwt>
<pdfrwt beam="2">  1       -4 0.19168876E-01 0.32436046E+03</pdfrwt>
<totfact> 0.20070310E+01</totfact>
</mgrwt>
</event>
<event>
 4    1  0.8478300E-009  0.1810720E+03  0.7818608E-02  0.1166770E+00
         -4   -1    0    0    0  501 -0.00000000000E+00  0.00000000000E+00  0.25230608527E+02  0.25262551467E+02  0.12700000000E+01 0. -1.
          4   -1    0    0  501    0  0.00000000000E+00 -0.00000000000E+00 -0.14506137285E+04  0.14506142844E+04  0.12700000000E+01 0. -1.
    8880022    1    1    2    0    0  0.38650967075E+02 -0.88890581761E+02 -0.95153902001E+03  0.96861426398E+03  0.15294330000E+03 0.  0.
    8880022    1    1    2    0    0 -0.38650967075E+02  0.88890581761E+02 -0.47384409993E+03  0.50726257188E+03  0.15294330000E+03 0.  0.
<mgrwt>
<rscale>  0 0.18107205E+03</rscale>
<asrwt>0</asrwt>
<pdfrwt beam="1">  1        4 0.22317378E+00 0.18107205E+03</pdfrwt>
<pdfrwt beam="2">  1       -4 0.38841331E-02 0.18107205E+03</pdfrwt>
<totfact> 0.65978649E+01</totfact>
</mgrwt>
</event>
<event>
 4    1  0.8478300E-009  0.2805638E+03  0.7818608E-02  0.1095381E+00
         -4   -1    0    0    0  501 -0.00000000000E+00  0.00000000000E+00  0.94402698460E+02  0.94411240732E+02  0.12700000000E+01 0. -1.
          4   -1    0    0  501    0  0.00000000000E+00 -0.00000000000E+00 -0.10851671303E+04  0.10851678734E+04  0.12700000000E+01 0. -1.
    8880022    1    1    2    0    0  0.22600541151E+03 -0.65160809646E+02 -0.77924830107E+03  0.82821732950E+03  0.15294330000E+03 0.  0.
    8880022    1    1    2    0    0 -0.22600541151E+03  0.65160809646E+02 -0.21151613076E+03  0.35136178468E+03  0.15294330000E+03 0.  0.
<mgrwt>
<rscale>  0 0.28056377E+03</rscale>
<asrwt>0</asrwt>
<pdfrwt beam="1">  1        4 0.16694949E+00 0.28056377E+03</pdfrwt>
<pdfrwt beam="2">  1       -4 0.14524207E-01 0.28056377E+03</pdfrwt>
<totfact> 0.17448484E+01</totfact>
</mgrwt>
</event>
<event>
 4    1  0.8478300E-009  0.2476707E+03  0.7818608E-02  0.1114786E+00
         -4   -1    0    0    0  501 -0.00000000000E+00  0.00000000000E+00  0.12027983095E+04  0.12027989800E+04  0.12700000000E+01 0.  1.
          4   -1    0    0  501    0  0.00000000000E+00 -0.00000000000E+00 -0.51085512269E+02  0.51101296106E+02  0.12700000000E+01 0.  1.
    8880022    1    1    2    0    0 -0.19424870548E+03 -0.14716090440E+02  0.54872302853E+03  0.60202802090E+03  0.15294330000E+03 0.  0.
    8880022    1    1    2    0    0  0.19424870548E+03  0.14716090440E+02  0.60298976868E+03  0.65187225516E+03  0.15294330000E+03 0.  0.
<mgrwt>
<rscale>  0 0.24767070E+03</rscale>
<asrwt>0</asrwt>
<pdfrwt beam="1">  1        4 0.78605766E-02 0.24767070E+03</pdfrwt>
<pdfrwt beam="2">  1       -4 0.18504713E+00 0.24767070E+03</pdfrwt>
<totfact> 0.37327072E+01</totfact>
</mgrwt>
</event>
<event>
 4    1  0.8478300E-009  0.1588052E+03  0.7818608E-02  0.1190052E+00
          4   -1    0    0  501    0  0.00000000000E+00  0.00000000000E+00  0.24183831081E+03  0.24184164546E+03  0.12700000000E+01 0. -1.
         -4   -1    0    0    0  501 -0.00000000000E+00 -0.00000000000E+00 -0.11526758604E+03  0.11527458216E+03  0.12700000000E+01 0. -1.
    8880022    1    1    2    0    0 -0.23804079763E+02 -0.35507986775E+02  0.11842916226E+03  0.19810242509E+03  0.15294330000E+03 0. -1.
    8880022    1    1    2    0    0  0.23804079763E+02  0.35507986775E+02  0.81415625178E+01  0.15901380252E+03  0.15294330000E+03 0. -1.
<mgrwt>
<rscale>  0 0.15880524E+03</rscale>
<asrwt>0</asrwt>
<pdfrwt beam="1">  1        4 0.37206688E-01 0.15880524E+03</pdfrwt>
<pdfrwt beam="2">  1       -4 0.17734270E-01 0.15880524E+03</pdfrwt>
<totfact> 0.33636783E+02</totfact>
</mgrwt>
</event>
<event>
 4    1  0.8478300E-009  0.2215893E+03  0.7818608E-02  0.1132704E+00
         -4   -1    0    0    0  501 -0.00000000000E+00  0.00000000000E+00  0.32080789535E+02  0.32105917791E+02  0.12700000000E+01 0.  1.
          4   -1    0    0  501    0  0.00000000000E+00 -0.00000000000E+00 -0.18280676216E+04  0.18280680627E+04  0.12700000000E+01 0.  1.
    8880022    1    1    2    0    0  0.14657912833E+03  0.64998041741E+02 -0.52239581616E+03  0.56744975817E+03  0.15294330000E+03 0.  0.
    8880022    1    1    2    0    0 -0.14657912833E+03 -0.64998041741E+02 -0.12735910159E+04  0.12927242224E+04  0.15294330000E+03 0.  0.
<mgrwt>
<rscale>  0 0.22158935E+03</rscale>
<asrwt>0</asrwt>
<pdfrwt beam="1">  1        4 0.28124306E+00 0.22158935E+03</pdfrwt>
<pdfrwt beam="2">  1       -4 0.49374744E-02 0.22158935E+03</pdfrwt>
<totfact> 0.20779374E+01</totfact>
</mgrwt>
</event>
<event>
 4    1  0.8478300E-009  0.5091990E+03  0.7818608E-02  0.1011405E+00
          4   -1    0    0  501    0  0.00000000000E+00  0.00000000000E+00  0.23724114549E+03  0.23724454475E+03  0.12700000000E+01 0.  1.
         -4   -1    0    0    0  501 -0.00000000000E+00 -0.00000000000E+00 -0.10953024070E+04  0.10953031433E+04  0.12700000000E+01 0.  1.
    8880022    1    1    2    0    0  0.23418038114E+03  0.42550153293E+03 -0.46023286684E+03  0.68636575539E+03  0.15294330000E+03 0.  0.
    8880022    1    1    2    0    0 -0.23418038114E+03 -0.42550153293E+03 -0.39782839466E+03  0.64618193262E+03  0.15294330000E+03 0.  0.
<mgrwt>
<rscale>  0 0.50919904E+03</rscale>
<asrwt>0</asrwt>
<pdfrwt beam="1">  1        4 0.36498956E-01 0.50919904E+03</pdfrwt>
<pdfrwt beam="2">  1       -4 0.16850838E+00 0.50919904E+03</pdfrwt>
<totfact> 0.31259094E+00</totfact>
</mgrwt>
</event>
<event>
 4    1  0.8478300E-009  0.1961439E+03  0.7818608E-02  0.1153034E+00
         -4   -1    0    0    0  501 -0.00000000000E+00  0.00000000000E+00  0.24476788416E+03  0.24477117889E+03  0.12700000000E+01 0. -1.
          4   -1    0    0  501    0  0.00000000000E+00 -0.00000000000E+00 -0.20507460717E+03  0.20507853960E+03  0.12700000000E+01 0. -1.
    8880022    1    1    2    0    0  0.83036507445E+02 -0.90474888618E+02  0.12855214069E+03  0.23451667943E+03  0.15294330000E+03 0.  0.
    8880022    1    1    2    0    0 -0.83036507445E+02  0.90474888618E+02 -0.88858863700E+02  0.21533303906E+03  0.15294330000E+03 0.  0.
<mgrwt>
<rscale>  0 0.19614388E+03</rscale>
<asrwt>0</asrwt>
<pdfrwt beam="1">  1        4 0.31550496E-01 0.19614388E+03</pdfrwt>
<pdfrwt beam="2">  1       -4 0.37657153E-01 0.19614388E+03</pdfrwt>
<totfact> 0.11727008E+02</totfact>
</mgrwt>
</event>
<event>
 4    1  0.8478300E-009  0.1557648E+03  0.7818608E-02  0.1193563E+00
          4   -1    0    0  501    0  0.00000000000E+00  0.00000000000E+00  0.10169008944E+03  0.10169801960E+03  0.12700000000E+01 0.  1.
         -4   -1    0    0    0  501 -0.00000000000E+00 -0.00000000000E+00 -0.33840851983E+03  0.33841090289E+03  0.12700000000E+01 0.  1.
    8880022    1    1    2    0    0  0.25473938993E+02  0.14902677209E+02 -0.23787911224E+03  0.28433982558E+03  0.15294330000E+03 0.  0.
    8880022    1    1    2    0    0 -0.25473938993E+02 -0.14902677209E+02  0.11606818524E+01  0.15576909691E+03  0.15294330000E+03 0.  0.
<mgrwt>
<rscale>  0 0.15576477E+03</rscale>
<asrwt>0</asrwt>
<pdfrwt beam="1">  1        4 0.15645423E-01 0.15576477E+03</pdfrwt>
<pdfrwt beam="2">  1       -4 0.52063642E-01 0.15576477E+03</pdfrwt>
<totfact> 0.21347338E+02</totfact>
</mgrwt>
</event>
<event>
 4    1  0.8478300E-009  0.2216531E+03  0.7818608E-02  0.1132657E+00
          4   -1    0    0  501    0  0.00000000000E+00  0.00000000000E+00  0.81119650525E+03  0.81119749940E+03  0.12700000000E+01 0.  1.
         -4   -1    0    0    0  501 -0.00000000000E+00 -0.00000000000E+00 -0.60704904783E+02  0.60718188088E+02  0.12700000000E+01 0.  1.
    8880022    1    1    2    0    0 -0.27781790177E+02  0.15800829998E+03  0.39674085273E+03  0.45445946791E+03  0.15294330000E+03 0.  0.
    8880022    1    1    2    0    0  0.27781790177E+02 -0.15800829998E+03  0.35375074774E+03  0.41745621958E+03  0.15294330000E+03 0.  0.
<mgrwt>
<rscale>  0 0.22165312E+03</rscale>
<asrwt>0</asrwt>
<pdfrwt beam="1">  1        4 0.12480056E+00 0.22165312E+03</pdfrwt>
<pdfrwt beam="2">  1       -4 0.93403146E-02 0.22165312E+03</pdfrwt>
<totfact> 0.77221424E+01</totfact>
</mgrwt>
</event>
<event>
 4    1  0.8478300E-009  0.1633569E+03  0.7818608E-02  0.1184958E+00
         -4   -1    0    0    0  501 -0.00000000000E+00  0.00000000000E+00  0.12976255989E+03  0.12976877456E+03  0.12700000000E+01 0.  1.
          4   -1    0    0  501    0  0.00000000000E+00 -0.00000000000E+00 -0.30398084217E+03  0.30398349513E+03  0.12700000000E+01 0.  1.
    8880022    1    1    2    0    0  0.64800426938E+00  0.57388222465E+02  0.36246467391E+02  0.16732987599E+03  0.15294330000E+03 0.  0.
    8880022    1    1    2    0    0 -0.64800426938E+00 -0.57388222465E+02 -0.21046474967E+03  0.26642239369E+03  0.15294330000E+03 0.  0.
<mgrwt>
<rscale>  0 0.16335691E+03</rscale>
<asrwt>0</asrwt>
<pdfrwt beam="1">  1        4 0.46766965E-01 0.16335691E+03</pdfrwt>
<pdfrwt beam="2">  1       -4 0.19964153E-01 0.16335691E+03</pdfrwt>
<totfact> 0.17345817E+02</totfact>
</mgrwt>
</event>
<event>
 4    1  0.8478300E-009  0.1737931E+03  0.7818608E-02  0.1173949E+00
          4   -1    0    0  501    0  0.00000000000E+00  0.00000000000E+00  0.15303787191E+04  0.15303792461E+04  0.12700000000E+01 0. -1.
         -4   -1    0    0    0  501 -0.00000000000E+00 -0.00000000000E+00 -0.19765966377E+02  0.19806724283E+02  0.12700000000E+01 0. -1.
    8880022    1    1    2    0    0 -0.34340353288E+02 -0.75054132861E+02  0.71612553208E+03  0.73691235126E+03  0.15294330000E+03 0.  1.
    8880022    1    1    2    0    0  0.34340353288E+02  0.75054132861E+02  0.79448722068E+03  0.81327361912E+03  0.15294330000E+03 0.  1.
<mgrwt>
<rscale>  0 0.17379308E+03</rscale>
<asrwt>0</asrwt>
<pdfrwt beam="1">  1        4 0.23544609E+00 0.17379308E+03</pdfrwt>
<pdfrwt beam="2">  1       -4 0.30440933E-02 0.17379308E+03</pdfrwt>
<totfact> 0.81694782E+01</totfact>
</mgrwt>
</event>
<event>
 4    1  0.8478300E-009  0.2631154E+03  0.7818608E-02  0.1105286E+00
          4   -1    0    0  501    0  0.00000000000E+00  0.00000000000E+00  0.10867833254E+03  0.10868575281E+03  0.12700000000E+01 0.  1.
         -4   -1    0    0    0  501 -0.00000000000E+00 -0.00000000000E+00 -0.74967755145E+03  0.74967862718E+03  0.12700000000E+01 0.  1.
    8880022    1    1    2    0    0  0.62361787756E+02 -0.20481474432E+03 -0.48689803821E+03  0.55344324432E+03  0.15294330000E+03 0.  0.
    8880022    1    1    2    0    0 -0.62361787756E+02  0.20481474432E+03 -0.15410118071E+03  0.30492113566E+03  0.15294330000E+03 0.  0.
<mgrwt>
<rscale>  0 0.26311542E+03</rscale>
<asrwt>0</asrwt>
<pdfrwt beam="1">  1        4 0.16720397E-01 0.26311542E+03</pdfrwt>
<pdfrwt beam="2">  1       -4 0.11533566E+00 0.26311542E+03</pdfrwt>
<totfact> 0.34662285E+01</totfact>
</mgrwt>
</event>
<event>
 4    1  0.8478300E-009  0.1743410E+03  0.7818608E-02  0.1173395E+00
         -4   -1    0    0    0  501 -0.00000000000E+00  0.00000000000E+00  0.59061924958E+03  0.59062061501E+03  0.12700000000E+01 0.  1.
          4   -1    0    0  501    0  0.00000000000E+00 -0.00000000000E+00 -0.11874079937E+03  0.11874759086E+03  0.12700000000E+01 0.  1.
    8880022    1    1    2    0    0 -0.77340471764E+02  0.31962136454E+02 -0.31045179554E+02  0.17708354787E+03  0.15294330000E+03 0.  0.
    8880022    1    1    2    0    0  0.77340471764E+02 -0.31962136454E+02  0.50292362977E+03  0.53228465799E+03  0.15294330000E+03 0.  0.
<mgrwt>
<rscale>  0 0.17434099E+03</rscale>
<asrwt>0</asrwt>
<pdfrwt beam="1">  1        4 0.18268443E-01 0.17434099E+03</pdfrwt>
<pdfrwt beam="2">  1       -4 0.90865127E-01 0.17434099E+03</pdfrwt>
<totfact> 0.49453509E+01</totfact>
</mgrwt>
</event>
<event>
 4    1  0.8478300E-009  0.2268604E+03  0.7818608E-02  0.1128869E+00
          4   -1    0    0  501    0  0.00000000000E+00  0.00000000000E+00  0.25693727159E+02  0.25725095050E+02  0.12700000000E+01 0.  1.
         -4   -1    0    0    0  501 -0.00000000000E+00 -0.00000000000E+00 -0.20051830085E+04  0.20051834107E+04  0.12700000000E+01 0.  1.
    8880022    1    1    2    0    0  0.13763346109E+03 -0.95556455205E+02 -0.10315141881E+04  0.10561662648E+04  0.15294330000E+03 0.  0.
    8880022    1    1    2    0    0 -0.13763346109E+03  0.95556455205E+02 -0.94797509331E+03  0.97474224095E+03  0.15294330000E+03 0.  0.
<mgrwt>
<rscale>  0 0.22686044E+03</rscale>
<asrwt>0</asrwt>
<pdfrwt beam="1">  1        4 0.39553265E-02 0.22686044E+03</pdfrwt>
<pdfrwt beam="2">  1       -4 0.30849201E+00 0.22686044E+03</pdfrwt>
<totfact> 0.20562955E+01</totfact>
</mgrwt>
</event>
<event>
 4    1  0.8478300E-009  0.1730380E+03  0.7818608E-02  0.1174716E+00
         -4   -1    0    0    0  501 -0.00000000000E+00  0.00000000000E+00  0.21075237713E+03  0.21075620362E+03  0.12700000000E+01 0.  1.
          4   -1    0    0  501    0  0.00000000000E+00 -0.00000000000E+00 -0.14891147875E+03  0.14891689429E+03  0.12700000000E+01 0.  1.
    8880022    1    1    2    0    0  0.58279617227E+02  0.56160296593E+02  0.69481063746E+02  0.18646652228E+03  0.15294330000E+03 0.  0.
    8880022    1    1    2    0    0 -0.58279617227E+02 -0.56160296593E+02 -0.76401653717E+01  0.17320657562E+03  0.15294330000E+03 0.  0.
<mgrwt>
<rscale>  0 0.17303799E+03</rscale>
<asrwt>0</asrwt>
<pdfrwt beam="1">  1        4 0.22910169E-01 0.17303799E+03</pdfrwt>
<pdfrwt beam="2">  1       -4 0.32424154E-01 0.17303799E+03</pdfrwt>
<totfact> 0.28031068E+02</totfact>
</mgrwt>
</event>
<event>
 4    1  0.8478300E-009  0.4064958E+03  0.7818608E-02  0.1041553E+00
         -4   -1    0    0    0  501 -0.00000000000E+00  0.00000000000E+00  0.12549701374E+03  0.12550343963E+03  0.12700000000E+01 0.  1.
          4   -1    0    0  501    0  0.00000000000E+00 -0.00000000000E+00 -0.13356236039E+04  0.13356242077E+04  0.12700000000E+01 0.  1.
    8880022    1    1    2    0    0 -0.35239452471E+03 -0.13291068121E+03 -0.69217258328E+03  0.80270896861E+03  0.15294330000E+03 0.  0.
    8880022    1    1    2    0    0  0.35239452471E+03  0.13291068121E+03 -0.51795400687E+03  0.65841867871E+03  0.15294330000E+03 0.  0.
<mgrwt>
<rscale>  0 0.40649576E+03</rscale>
<asrwt>0</asrwt>
<pdfrwt beam="1">  1        4 0.20548109E+00 0.40649576E+03</pdfrwt>
<pdfrwt beam="2">  1       -4 0.19307775E-01 0.40649576E+03</pdfrwt>
<totfact> 0.59053363E+00</totfact>
</mgrwt>
</event>
<event>
 4    1  0.8478300E-009  0.1963872E+03  0.7818608E-02  0.1152823E+00
         -4   -1    0    0    0  501 -0.00000000000E+00  0.00000000000E+00  0.35683185186E+03  0.35683411188E+03  0.12700000000E+01 0. -1.
          4   -1    0    0  501    0  0.00000000000E+00 -0.00000000000E+00 -0.18914834453E+03  0.18915260807E+03  0.12700000000E+01 0. -1.
    8880022    1    1    2    0    0 -0.34683865760E+02  0.11820874660E+03 -0.94877979161E+02  0.21810493406E+03  0.15294330000E+03 0.  0.
    8880022    1    1    2    0    0  0.34683865760E+02 -0.11820874660E+03  0.26256148649E+03  0.32788178589E+03  0.15294330000E+03 0.  0.
<mgrwt>
<rscale>  0 0.19638720E+03</rscale>
<asrwt>0</asrwt>
<pdfrwt beam="1">  1        4 0.29100247E-01 0.19638720E+03</pdfrwt>
<pdfrwt beam="2">  1       -4 0.54897709E-01 0.19638720E+03</pdfrwt>
<totfact> 0.63836928E+01</totfact>
</mgrwt>
</event>
<event>
 4    1  0.8478300E-009  0.2319864E+03  0.7818608E-02  0.1125249E+00
          4   -1    0    0  501    0  0.00000000000E+00  0.00000000000E+00  0.27139625739E+02  0.27169324343E+02  0.12700000000E+01 0. -1.
         -4   -1    0    0    0  501 -0.00000000000E+00 -0.00000000000E+00 -0.20304897908E+04  0.20304901880E+04  0.12700000000E+01 0. -1.
    8880022    1    1    2    0    0 -0.77843157093E+02 -0.15609769683E+03 -0.84248889902E+03  0.87384509271E+03  0.15294330000E+03 0.  0.
    8880022    1    1    2    0    0  0.77843157093E+02  0.15609769683E+03 -0.11608612661E+04  0.11838144196E+04  0.15294330000E+03 0.  0.
<mgrwt>
<rscale>  0 0.23198642E+03</rscale>
<asrwt>0</asrwt>
<pdfrwt beam="1">  1        4 0.41776437E-02 0.23198642E+03</pdfrwt>
<pdfrwt beam="2">  1       -4 0.31238524E+00 0.23198642E+03</pdfrwt>
<totfact> 0.17876415E+01</totfact>
</mgrwt>
</event>
<event>
 4    1  0.8478300E-009  0.2221079E+03  0.7818608E-02  0.1132321E+00
          4   -1    0    0  501    0  0.00000000000E+00  0.00000000000E+00  0.16579988554E+04  0.16579993418E+04  0.12700000000E+01 0.  1.
         -4   -1    0    0    0  501 -0.00000000000E+00 -0.00000000000E+00 -0.34515192810E+02  0.34538549980E+02  0.12700000000E+01 0.  1.
    8880022    1    1    2    0    0  0.93356650845E+02  0.13124324072E+03  0.49707989927E+03  0.54444497588E+03  0.15294330000E+03 0.  0.
    8880022    1    1    2    0    0 -0.93356650845E+02 -0.13124324072E+03  0.11264037633E+04  0.11480929159E+04  0.15294330000E+03 0.  0.
<mgrwt>
<rscale>  0 0.22210787E+03</rscale>
<asrwt>0</asrwt>
<pdfrwt beam="1">  1        4 0.25507857E+00 0.22210787E+03</pdfrwt>
<pdfrwt beam="2">  1       -4 0.53118641E-02 0.22210787E+03</pdfrwt>
<totfact> 0.26261867E+01</totfact>
</mgrwt>
</event>
<event>
 4    1  0.8478300E-009  0.1617961E+03  0.7818608E-02  0.1186684E+00
          4   -1    0    0  501    0  0.00000000000E+00  0.00000000000E+00  0.30217071090E+03  0.30217337975E+03  0.12700000000E+01 0.  1.
         -4   -1    0    0    0  501 -0.00000000000E+00 -0.00000000000E+00 -0.50710631719E+03  0.50710790749E+03  0.12700000000E+01 0.  1.
    8880022    1    1    2    0    0  0.39561882861E+02 -0.34945294406E+02  0.26599164071E+03  0.31133506407E+03  0.15294330000E+03 0.  0.
    8880022    1    1    2    0    0 -0.39561882861E+02  0.34945294406E+02 -0.47092724700E+03  0.49794622316E+03  0.15294330000E+03 0.  0.
<mgrwt>
<rscale>  0 0.16179607E+03</rscale>
<asrwt>0</asrwt>
<pdfrwt beam="1">  1        4 0.46488129E-01 0.16179607E+03</pdfrwt>
<pdfrwt beam="2">  1       -4 0.78016684E-01 0.16179607E+03</pdfrwt>
<totfact> 0.11747520E+01</totfact>
</mgrwt>
</event>
<event>
 4    1  0.8478300E-009  0.1623272E+03  0.7818608E-02  0.1186094E+00
         -4   -1    0    0    0  501 -0.00000000000E+00  0.00000000000E+00  0.36299785017E+03  0.36300007180E+03  0.12700000000E+01 0. -1.
          4   -1    0    0  501    0  0.00000000000E+00 -0.00000000000E+00 -0.77365950637E+02  0.77376373771E+02  0.12700000000E+01 0. -1.
    8880022    1    1    2    0    0  0.10237688181E+01 -0.54382135912E+02  0.19756328688E+03  0.25569781021E+03  0.15294330000E+03 0.  0.
    8880022    1    1    2    0    0 -0.10237688181E+01  0.54382135912E+02  0.88068612651E+02  0.18467863536E+03  0.15294330000E+03 0.  0.
<mgrwt>
<rscale>  0 0.16232719E+03</rscale>
<asrwt>0</asrwt>
<pdfrwt beam="1">  1        4 0.11903427E-01 0.16232719E+03</pdfrwt>
<pdfrwt beam="2">  1       -4 0.55846796E-01 0.16232719E+03</pdfrwt>
<totfact> 0.29887909E+02</totfact>
</mgrwt>
</event>
<event>
 4    1  0.8478300E-009  0.1814671E+03  0.7818608E-02  0.1166391E+00
          4   -1    0    0  501    0  0.00000000000E+00  0.00000000000E+00  0.77763479949E+02  0.77773849806E+02  0.12700000000E+01 0. -1.
         -4   -1    0    0    0  501 -0.00000000000E+00 -0.00000000000E+00 -0.52737853248E+03  0.52738006164E+03  0.12700000000E+01 0. -1.
    8880022    1    1    2    0    0  0.93023694433E+02  0.29753369842E+02 -0.35914050910E+03  0.40238318682E+03  0.15294330000E+03 0.  0.
    8880022    1    1    2    0    0 -0.93023694433E+02 -0.29753369842E+02 -0.90474543426E+02  0.20277072463E+03  0.15294330000E+03 0.  0.
<mgrwt>
<rscale>  0 0.18146714E+03</rscale>
<asrwt>0</asrwt>
<pdfrwt beam="1">  1        4 0.11964528E-01 0.18146714E+03</pdfrwt>
<pdfrwt beam="2">  1       -4 0.81136072E-01 0.18146714E+03</pdfrwt>
<totfact> 0.13483835E+02</totfact>
</mgrwt>
</event>
<event>
 4    1  0.8478300E-009  0.1813493E+03  0.7818608E-02  0.1166504E+00
          4   -1    0    0  501    0  0.00000000000E+00  0.00000000000E+00  0.13519898695E+04  0.13519904660E+04  0.12700000000E+01 0.  1.
         -4   -1    0    0    0  501 -0.00000000000E+00 -0.00000000000E+00 -0.26560283311E+02  0.26590628980E+02  0.12700000000E+01 0.  1.
    8880022    1    1    2    0    0  0.50393482739E+02  0.83405057244E+02  0.46211917125E+03  0.49642893562E+03  0.15294330000E+03 0. -1.
    8880022    1    1    2    0    0 -0.50393482739E+02 -0.83405057244E+02  0.86331041492E+03  0.88215215932E+03  0.15294330000E+03 0. -1.
<mgrwt>
<rscale>  0 0.18134928E+03</rscale>
<asrwt>0</asrwt>
<pdfrwt beam="1">  1        4 0.20800087E+00 0.18134928E+03</pdfrwt>
<pdfrwt beam="2">  1       -4 0.40885766E-02 0.18134928E+03</pdfrwt>
<totfact> 0.75186633E+01</totfact>
</mgrwt>
</event>
<event>
 4    1  0.8478300E-009  0.4522667E+03  0.7818608E-02  0.1027048E+00
         -4   -1    0    0    0  501 -0.00000000000E+00  0.00000000000E+00  0.31731881536E+03  0.31732135680E+03  0.12700000000E+01 0. -1.
          4   -1    0    0  501    0  0.00000000000E+00 -0.00000000000E+00 -0.64489542882E+03  0.64489667933E+03  0.12700000000E+01 0. -1.
    8880022    1    1    2    0    0  0.28384376906E+03 -0.31715328771E+03 -0.17410681540E+03  0.48462184156E+03  0.15294330000E+03 0.  0.
    8880022    1    1    2    0    0 -0.28384376906E+03  0.31715328771E+03 -0.15346979806E+03  0.47759619457E+03  0.15294330000E+03 0.  0.
<mgrwt>
<rscale>  0 0.45226668E+03</rscale>
<asrwt>0</asrwt>
<pdfrwt beam="1">  1        4 0.99214973E-01 0.45226668E+03</pdfrwt>
<pdfrwt beam="2">  1       -4 0.48818571E-01 0.45226668E+03</pdfrwt>
<totfact> 0.66151273E+00</totfact>
</mgrwt>
</event>
<event>
 4    1  0.8478300E-009  0.2503859E+03  0.7818608E-02  0.1113061E+00
         -4   -1    0    0    0  501 -0.00000000000E+00  0.00000000000E+00  0.35031421205E+03  0.35031651412E+03  0.12700000000E+01 0. -1.
          4   -1    0    0  501    0  0.00000000000E+00 -0.00000000000E+00 -0.30887248667E+03  0.30887509760E+03  0.12700000000E+01 0. -1.
    8880022    1    1    2    0    0  0.83479168446E+02  0.17981289094E+03 -0.19303490540E+03  0.31615751617E+03  0.15294330000E+03 0.  0.
    8880022    1    1    2    0    0 -0.83479168446E+02 -0.17981289094E+03  0.23447663079E+03  0.34303409555E+03  0.15294330000E+03 0.  0.
<mgrwt>
<rscale>  0 0.25038590E+03</rscale>
<asrwt>0</asrwt>
<pdfrwt beam="1">  1        4 0.47519222E-01 0.25038590E+03</pdfrwt>
<pdfrwt beam="2">  1       -4 0.53894872E-01 0.25038590E+03</pdfrwt>
<totfact> 0.25970446E+01</totfact>
</mgrwt>
</event>
<event>
 4    1  0.8478300E-009  0.2021423E+03  0.7818608E-02  0.1147944E+00
          4   -1    0    0  501    0  0.00000000000E+00  0.00000000000E+00  0.35840438749E+03  0.35840663760E+03  0.12700000000E+01 0.  1.
         -4   -1    0    0    0  501 -0.00000000000E+00 -0.00000000000E+00 -0.13096680290E+03  0.13097296042E+03  0.12700000000E+01 0.  1.
    8880022    1    1    2    0    0  0.12024719432E+03 -0.54867707228E+02  0.25659016041E+02  0.20376430295E+03  0.15294330000E+03 0.  1.
    8880022    1    1    2    0    0 -0.12024719432E+03  0.54867707228E+02  0.20177856855E+03  0.28561529507E+03  0.15294330000E+03 0.  1.
<mgrwt>
<rscale>  0 0.20214229E+03</rscale>
<asrwt>0</asrwt>
<pdfrwt beam="1">  1        4 0.55139783E-01 0.20214229E+03</pdfrwt>
<pdfrwt beam="2">  1       -4 0.20149386E-01 0.20214229E+03</pdfrwt>
<totfact> 0.12552093E+02</totfact>
</mgrwt>
</event>
<event>
 4    1  0.8478300E-009  0.2415998E+03  0.7818608E-02  0.1118732E+00
         -4   -1    0    0    0  501 -0.00000000000E+00  0.00000000000E+00  0.60140067876E+03  0.60140201971E+03  0.12700000000E+01 0.  1.
          4   -1    0    0  501    0  0.00000000000E+00 -0.00000000000E+00 -0.12297030702E+03  0.12297686493E+03  0.12700000000E+01 0.  1.
    8880022    1    1    2    0    0  0.73612563883E+02  0.17193016511E+03  0.72941173211E+02  0.25237047966E+03  0.15294330000E+03 0.  0.
    8880022    1    1    2    0    0 -0.73612563883E+02 -0.17193016511E+03  0.40548919853E+03  0.47200840499E+03  0.15294330000E+03 0.  0.
<mgrwt>
<rscale>  0 0.24159976E+03</rscale>
<asrwt>0</asrwt>
<pdfrwt beam="1">  1        4 0.18919116E-01 0.24159976E+03</pdfrwt>
<pdfrwt beam="2">  1       -4 0.92523790E-01 0.24159976E+03</pdfrwt>
<totfact> 0.46304306E+01</totfact>
</mgrwt>
</event>
<event>
 4    1  0.8478300E-009  0.4238227E+03  0.7818608E-02  0.1035829E+00
          4   -1    0    0  501    0  0.00000000000E+00  0.00000000000E+00  0.19225063950E+04  0.19225068145E+04  0.12700000000E+01 0. -1.
         -4   -1    0    0    0  501 -0.00000000000E+00 -0.00000000000E+00 -0.12651699596E+03  0.12652337004E+03  0.12700000000E+01 0. -1.
    8880022    1    1    2    0    0 -0.23313498868E+03  0.31918977194E+03  0.14219207000E+04  0.14837399245E+04  0.15294330000E+03 0.  0.
    8880022    1    1    2    0    0  0.23313498868E+03 -0.31918977194E+03  0.37406869906E+03  0.56529026003E+03  0.15294330000E+03 0.  0.
<mgrwt>
<rscale>  0 0.42382271E+03</rscale>
<asrwt>0</asrwt>
<pdfrwt beam="1">  1        4 0.29577070E+00 0.42382271E+03</pdfrwt>
<pdfrwt beam="2">  1       -4 0.19464678E-01 0.42382271E+03</pdfrwt>
<totfact> 0.16448976E+00</totfact>
</mgrwt>
</event>
<event>
 4    1  0.8478300E-009  0.1661437E+03  0.7818608E-02  0.1181930E+00
         -4   -1    0    0    0  501 -0.00000000000E+00  0.00000000000E+00  0.92262876795E+03  0.92262964202E+03  0.12700000000E+01 0. -1.
          4   -1    0    0  501    0  0.00000000000E+00 -0.00000000000E+00 -0.33624293773E+02  0.33648269372E+02  0.12700000000E+01 0. -1.
    8880022    1    1    2    0    0  0.46620266994E+02  0.45151021500E+02  0.28552488763E+03  0.33034554411E+03  0.15294330000E+03 0.  1.
    8880022    1    1    2    0    0 -0.46620266994E+02 -0.45151021500E+02  0.60347958654E+03  0.62593236729E+03  0.15294330000E+03 0.  1.
<mgrwt>
<rscale>  0 0.16614366E+03</rscale>
<asrwt>0</asrwt>
<pdfrwt beam="1">  1        4 0.51748808E-02 0.16614366E+03</pdfrwt>
<pdfrwt beam="2">  1       -4 0.14194477E+00 0.16614366E+03</pdfrwt>
<totfact> 0.14320729E+02</totfact>
</mgrwt>
</event>
<event>
 4    1  0.8478300E-009  0.2370180E+03  0.7818608E-02  0.1121795E+00
         -4   -1    0    0    0  501 -0.00000000000E+00  0.00000000000E+00  0.63184009445E+03  0.63184137080E+03  0.12700000000E+01 0. -1.
          4   -1    0    0  501    0  0.00000000000E+00 -0.00000000000E+00 -0.18312134771E+03  0.18312575157E+03  0.12700000000E+01 0. -1.
    8880022    1    1    2    0    0 -0.56879507608E+02  0.17190290775E+03  0.51663593141E+03  0.56841026267E+03  0.15294330000E+03 0.  0.
    8880022    1    1    2    0    0  0.56879507608E+02 -0.17190290775E+03 -0.67917184665E+02  0.24655685970E+03  0.15294330000E+03 0.  0.
<mgrwt>
<rscale>  0 0.23701802E+03</rscale>
<asrwt>0</asrwt>
<pdfrwt beam="1">  1        4 0.28172952E-01 0.23701802E+03</pdfrwt>
<pdfrwt beam="2">  1       -4 0.97206606E-01 0.23701802E+03</pdfrwt>
<totfact> 0.19734724E+01</totfact>
</mgrwt>
</event>
<event>
 4    1  0.8478300E-009  0.1933805E+03  0.7818608E-02  0.1155447E+00
          4   -1    0    0  501    0  0.00000000000E+00  0.00000000000E+00  0.37243307694E+02  0.37264954958E+02  0.12700000000E+01 0.  1.
         -4   -1    0    0    0  501 -0.00000000000E+00 -0.00000000000E+00 -0.15391295278E+04  0.15391300517E+04  0.12700000000E+01 0.  1.
    8880022    1    1    2    0    0 -0.27419492569E+02  0.11511959694E+03 -0.12157906444E+04  0.12310738785E+04  0.15294330000E+03 0.  0.
    8880022    1    1    2    0    0  0.27419492569E+02 -0.11511959694E+03 -0.28609557565E+03  0.34532112822E+03  0.15294330000E+03 0.  0.
<mgrwt>
<rscale>  0 0.19338046E+03</rscale>
<asrwt>0</asrwt>
<pdfrwt beam="1">  1        4 0.57314463E-02 0.19338046E+03</pdfrwt>
<pdfrwt beam="2">  1       -4 0.23679081E+00 0.19338046E+03</pdfrwt>
<totfact> 0.29413113E+01</totfact>
</mgrwt>
</event>
<event>
 4    1  0.8478300E-009  0.3243202E+03  0.7818608E-02  0.1073678E+00
          4   -1    0    0  501    0  0.00000000000E+00  0.00000000000E+00  0.19261911223E+03  0.19262329894E+03  0.12700000000E+01 0. -1.
         -4   -1    0    0    0  501 -0.00000000000E+00 -0.00000000000E+00 -0.60650344453E+03  0.60650477420E+03  0.12700000000E+01 0. -1.
    8880022    1    1    2    0    0  0.26385109807E+03  0.11033837504E+03 -0.80804815540E+02  0.33423499247E+03  0.15294330000E+03 0.  0.
    8880022    1    1    2    0    0 -0.26385109807E+03 -0.11033837504E+03 -0.33307951676E+03  0.46489308068E+03  0.15294330000E+03 0.  0.
<mgrwt>
<rscale>  0 0.32432023E+03</rscale>
<asrwt>0</asrwt>
<pdfrwt beam="1">  1        4 0.29634134E-01 0.32432023E+03</pdfrwt>
<pdfrwt beam="2">  1       -4 0.93308646E-01 0.32432023E+03</pdfrwt>
<totfact> 0.20243279E+01</totfact>
</mgrwt>
</event>
<event>
 4    1  0.8478300E-009  0.3406941E+03  0.7818608E-02  0.1066501E+00
         -4   -1    0    0    0  501 -0.00000000000E+00  0.00000000000E+00  0.62901039182E+02  0.62913858809E+02  0.12700000000E+01 0. -1.
          4   -1    0    0  501    0  0.00000000000E+00 -0.00000000000E+00 -0.22274814474E+04  0.22274818095E+04  0.12700000000E+01 0. -1.
    8880022    1    1    2    0    0 -0.30027590885E+03  0.50151956932E+02 -0.60781851210E+03  0.69678966474E+03  0.15294330000E+03 0.  0.
    8880022    1    1    2    0    0  0.30027590885E+03 -0.50151956932E+02 -0.15567618962E+04  0.15936060036E+04  0.15294330000E+03 0.  0.
<mgrwt>
<rscale>  0 0.34069413E+03</rscale>
<asrwt>0</asrwt>
<pdfrwt beam="1">  1        4 0.34269041E+00 0.34069413E+03</pdfrwt>
<pdfrwt beam="2">  1       -4 0.96780987E-02 0.34069413E+03</pdfrwt>
<totfact> 0.29303952E+00</totfact>
</mgrwt>
</event>
<event>
 4    1  0.8478300E-009  0.2024545E+03  0.7818608E-02  0.1147684E+00
          4   -1    0    0  501    0  0.00000000000E+00  0.00000000000E+00  0.13846504883E+03  0.13847087292E+03  0.12700000000E+01 0. -1.
         -4   -1    0    0    0  501 -0.00000000000E+00 -0.00000000000E+00 -0.47747378283E+03  0.47747547182E+03  0.12700000000E+01 0. -1.
    8880022    1    1    2    0    0 -0.86232935576E+02  0.10079715928E+03 -0.35936659841E+03  0.41247083723E+03  0.15294330000E+03 0.  0.
    8880022    1    1    2    0    0  0.86232935576E+02 -0.10079715928E+03  0.20357864418E+02  0.20347550751E+03  0.15294330000E+03 0.  0.
<mgrwt>
<rscale>  0 0.20245454E+03</rscale>
<asrwt>0</asrwt>
<pdfrwt beam="1">  1        4 0.21302893E-01 0.20245454E+03</pdfrwt>
<pdfrwt beam="2">  1       -4 0.73458082E-01 0.20245454E+03</pdfrwt>
<totfact> 0.61406222E+01</totfact>
</mgrwt>
</event>
<event>
 4    1  0.8478300E-009  0.1623408E+03  0.7818608E-02  0.1186079E+00
          4   -1    0    0  501    0  0.00000000000E+00  0.00000000000E+00  0.20221483932E+02  0.20261325535E+02  0.12700000000E+01 0.  1.
         -4   -1    0    0    0  501 -0.00000000000E+00 -0.00000000000E+00 -0.16055035616E+04  0.16055040639E+04  0.12700000000E+01 0.  1.
    8880022    1    1    2    0    0  0.53890750337E+02  0.76598807416E+01 -0.43919815576E+03  0.46824092067E+03  0.15294330000E+03 0.  0.
    8880022    1    1    2    0    0 -0.53890750337E+02 -0.76598807416E+01 -0.11460839219E+04  0.11575244688E+04  0.15294330000E+03 0.  0.
<mgrwt>
<rscale>  0 0.16234081E+03</rscale>
<asrwt>0</asrwt>
<pdfrwt beam="1">  1        4 0.31141022E-02 0.16234081E+03</pdfrwt>
<pdfrwt beam="2">  1       -4 0.24700355E+00 0.16234081E+03</pdfrwt>
<totfact> 0.66938863E+01</totfact>
</mgrwt>
</event>
<event>
 4    1  0.8478300E-009  0.3007491E+03  0.7818608E-02  0.1084867E+00
         -4   -1    0    0    0  501 -0.00000000000E+00  0.00000000000E+00  0.77322680943E+02  0.77333109909E+02  0.12700000000E+01 0. -1.
          4   -1    0    0  501    0  0.00000000000E+00 -0.00000000000E+00 -0.14539929410E+04  0.14539934956E+04  0.12700000000E+01 0. -1.
    8880022    1    1    2    0    0 -0.24520895371E+02 -0.25779272112E+03 -0.10269067073E+04  0.10700408403E+04  0.15294330000E+03 0.  0.
    8880022    1    1    2    0    0  0.24520895371E+02  0.25779272112E+03 -0.34976355270E+03  0.46128576521E+03  0.15294330000E+03 0.  0.
<mgrwt>
<rscale>  0 0.30074909E+03</rscale>
<asrwt>0</asrwt>
<pdfrwt beam="1">  1        4 0.22369205E+00 0.30074909E+03</pdfrwt>
<pdfrwt beam="2">  1       -4 0.11896643E-01 0.30074909E+03</pdfrwt>
<totfact> 0.10638362E+01</totfact>
</mgrwt>
</event>
<event>
 4    1  0.8478300E-009  0.3247525E+03  0.7818608E-02  0.1073483E+00
          4   -1    0    0  501    0  0.00000000000E+00  0.00000000000E+00  0.16391536573E+03  0.16392028557E+03  0.12700000000E+01 0.  1.
         -4   -1    0    0    0  501 -0.00000000000E+00 -0.00000000000E+00 -0.65676208815E+03  0.65676331607E+03  0.12700000000E+01 0.  1.
    8880022    1    1    2    0    0  0.24814118942E+03 -0.14317282592E+03 -0.30497286998E+03  0.44550265141E+03  0.15294330000E+03 0.  0.
    8880022    1    1    2    0    0 -0.24814118942E+03  0.14317282592E+03 -0.18787385244E+03  0.37518095023E+03  0.15294330000E+03 0.  0.
<mgrwt>
<rscale>  0 0.32475246E+03</rscale>
<asrwt>0</asrwt>
<pdfrwt beam="1">  1        4 0.25218222E-01 0.32475246E+03</pdfrwt>
<pdfrwt beam="2">  1       -4 0.10104079E+00 0.32475246E+03</pdfrwt>
<totfact> 0.22826593E+01</totfact>
</mgrwt>
</event>
<event>
 4    1  0.8478300E-009  0.4036837E+03  0.7818608E-02  0.1042512E+00
         -4   -1    0    0    0  501 -0.00000000000E+00  0.00000000000E+00  0.14349839410E+03  0.14350401392E+03  0.12700000000E+01 0. -1.
          4   -1    0    0  501    0  0.00000000000E+00 -0.00000000000E+00 -0.17541090579E+04  0.17541095176E+04  0.12700000000E+01 0. -1.
    8880022    1    1    2    0    0 -0.35275482065E+03  0.12301597972E+03 -0.24189809811E+03  0.47061155706E+03  0.15294330000E+03 0.  0.
    8880022    1    1    2    0    0  0.35275482065E+03 -0.12301597972E+03 -0.13687125657E+04  0.14270019745E+04  0.15294330000E+03 0.  0.
<mgrwt>
<rscale>  0 0.40368372E+03</rscale>
<asrwt>0</asrwt>
<pdfrwt beam="1">  1        4 0.26986338E+00 0.40368372E+03</pdfrwt>
<pdfrwt beam="2">  1       -4 0.22077145E-01 0.40368372E+03</pdfrwt>
<totfact> 0.18649647E+00</totfact>
</mgrwt>
</event>
<event>
 4    1  0.8478300E-009  0.1678598E+03  0.7818608E-02  0.1180098E+00
          4   -1    0    0  501    0  0.00000000000E+00  0.00000000000E+00  0.89798257421E+03  0.89798347227E+03  0.12700000000E+01 0. -1.
         -4   -1    0    0    0  501 -0.00000000000E+00 -0.00000000000E+00 -0.34477562247E+02  0.34500944893E+02  0.12700000000E+01 0. -1.
    8880022    1    1    2    0    0  0.57623247132E+02 -0.38273109541E+02  0.29169914428E+03  0.33654912467E+03  0.15294330000E+03 0.  1.
    8880022    1    1    2    0    0 -0.57623247132E+02  0.38273109541E+02  0.57180586768E+03  0.59593529250E+03  0.15294330000E+03 0.  1.
<mgrwt>
<rscale>  0 0.16785983E+03</rscale>
<asrwt>0</asrwt>
<pdfrwt beam="1">  1        4 0.13815301E+00 0.16785983E+03</pdfrwt>
<pdfrwt beam="2">  1       -4 0.53061089E-02 0.16785983E+03</pdfrwt>
<totfact> 0.14743881E+02</totfact>
</mgrwt>
</event>
<event>
 4    1  0.8478300E-009  0.2084288E+03  0.7818608E-02  0.1142816E+00
          4   -1    0    0  501    0  0.00000000000E+00  0.00000000000E+00  0.96378495127E+02  0.96386862294E+02  0.12700000000E+01 0.  1.
         -4   -1    0    0    0  501 -0.00000000000E+00 -0.00000000000E+00 -0.65277478233E+03  0.65277601775E+03  0.12700000000E+01 0.  1.
    8880022    1    1    2    0    0  0.14065803456E+03 -0.16316395339E+02 -0.48659689182E+03  0.52935724760E+03  0.15294330000E+03 0.  0.
    8880022    1    1    2    0    0 -0.14065803456E+03  0.16316395339E+02 -0.69799395383E+02  0.21980563244E+03  0.15294330000E+03 0.  0.
<mgrwt>
<rscale>  0 0.20842879E+03</rscale>
<asrwt>0</asrwt>
<pdfrwt beam="1">  1        4 0.14828200E-01 0.20842879E+03</pdfrwt>
<pdfrwt beam="2">  1       -4 0.10042763E+00 0.20842879E+03</pdfrwt>
<totfact> 0.58132324E+01</totfact>
</mgrwt>
</event>
<event>
 4    1  0.8478300E-009  0.2369176E+03  0.7818608E-02  0.1121863E+00
         -4   -1    0    0    0  501 -0.00000000000E+00  0.00000000000E+00  0.10166915679E+03  0.10167708858E+03  0.12700000000E+01 0.  1.
          4   -1    0    0  501    0  0.00000000000E+00 -0.00000000000E+00 -0.56810679260E+03  0.56810821214E+03  0.12700000000E+01 0.  1.
    8880022    1    1    2    0    0 -0.82453056742E+02  0.16105831281E+03 -0.28951276314E+03  0.37409568259E+03  0.15294330000E+03 0.  0.
    8880022    1    1    2    0    0  0.82453056742E+02 -0.16105831281E+03 -0.17692487267E+03  0.29568961814E+03  0.15294330000E+03 0.  0.
<mgrwt>
<rscale>  0 0.23691758E+03</rscale>
<asrwt>0</asrwt>
<pdfrwt beam="1">  1        4 0.87401762E-01 0.23691758E+03</pdfrwt>
<pdfrwt beam="2">  1       -4 0.15642128E-01 0.23691758E+03</pdfrwt>
<totfact> 0.73987972E+01</totfact>
</mgrwt>
</event>
<event>
 4    1  0.8478300E-009  0.2476118E+03  0.7818608E-02  0.1114823E+00
         -4   -1    0    0    0  501 -0.00000000000E+00  0.00000000000E+00  0.78234399272E+02  0.78244706718E+02  0.12700000000E+01 0. -1.
          4   -1    0    0  501    0  0.00000000000E+00 -0.00000000000E+00 -0.14184180412E+04  0.14184186097E+04  0.12700000000E+01 0. -1.
    8880022    1    1    2    0    0 -0.16096757452E+03  0.10958739449E+03 -0.11707082403E+04  0.11966074519E+04  0.15294330000E+03 0.  0.
    8880022    1    1    2    0    0  0.16096757452E+03 -0.10958739449E+03 -0.16947540163E+03  0.30005586455E+03  0.15294330000E+03 0.  0.
<mgrwt>
<rscale>  0 0.24761181E+03</rscale>
<asrwt>0</asrwt>
<pdfrwt beam="1">  1        4 0.21821898E+00 0.24761181E+03</pdfrwt>
<pdfrwt beam="2">  1       -4 0.12036899E-01 0.24761181E+03</pdfrwt>
<totfact> 0.11140999E+01</totfact>
</mgrwt>
</event>
<event>
 4    1  0.8478300E-009  0.2833913E+03  0.7818608E-02  0.1093851E+00
          4   -1    0    0  501    0  0.00000000000E+00  0.00000000000E+00  0.16218383396E+03  0.16218880633E+03  0.12700000000E+01 0.  1.
         -4   -1    0    0    0  501 -0.00000000000E+00 -0.00000000000E+00 -0.55179842817E+03  0.55179988966E+03  0.12700000000E+01 0.  1.
    8880022    1    1    2    0    0 -0.12886748020E+03  0.20077890697E+03 -0.80443676224E+02  0.29458756762E+03  0.15294330000E+03 0.  0.
    8880022    1    1    2    0    0  0.12886748020E+03 -0.20077890697E+03 -0.30917091798E+03  0.41940112837E+03  0.15294330000E+03 0.  0.
<mgrwt>
<rscale>  0 0.28339134E+03</rscale>
<asrwt>0</asrwt>
<pdfrwt beam="1">  1        4 0.24951854E-01 0.28339134E+03</pdfrwt>
<pdfrwt beam="2">  1       -4 0.84892560E-01 0.28339134E+03</pdfrwt>
<totfact> 0.34435296E+01</totfact>
</mgrwt>
</event>
<event>
 4    1  0.8478300E-009  0.3598506E+03  0.7818608E-02  0.1058643E+00
         -4   -1    0    0    0  501 -0.00000000000E+00  0.00000000000E+00  0.46798312113E+03  0.46798484437E+03  0.12700000000E+01 0. -1.
          4   -1    0    0  501    0  0.00000000000E+00 -0.00000000000E+00 -0.50043100953E+03  0.50043262104E+03  0.12700000000E+01 0. -1.
    8880022    1    1    2    0    0  0.32358951395E+03  0.37290737228E+02  0.30753542945E+03  0.47336082010E+03  0.15294330000E+03 0.  0.
    8880022    1    1    2    0    0 -0.32358951395E+03 -0.37290737228E+02 -0.33998331786E+03  0.49505664530E+03  0.15294330000E+03 0.  0.
<mgrwt>
<rscale>  0 0.35985056E+03</rscale>
<asrwt>0</asrwt>
<pdfrwt beam="1">  1        4 0.76989643E-01 0.35985056E+03</pdfrwt>
<pdfrwt beam="2">  1       -4 0.71997659E-01 0.35985056E+03</pdfrwt>
<totfact> 0.51022302E+00</totfact>
</mgrwt>
</event>
<event>
 4    1  0.8478300E-009  0.1767252E+03  0.7818608E-02  0.1171011E+00
         -4   -1    0    0    0  501 -0.00000000000E+00  0.00000000000E+00  0.61835093182E+02  0.61848133754E+02  0.12700000000E+01 0. -1.
          4   -1    0    0  501    0  0.00000000000E+00 -0.00000000000E+00 -0.79642466559E+03  0.79642567818E+03  0.12700000000E+01 0. -1.
    8880022    1    1    2    0    0 -0.61459377884E+02 -0.63740752112E+02 -0.10771452827E+03  0.20696427524E+03  0.15294330000E+03 0.  0.
    8880022    1    1    2    0    0  0.61459377884E+02  0.63740752112E+02 -0.62687504414E+03  0.65130953670E+03  0.15294330000E+03 0.  0.
<mgrwt>
<rscale>  0 0.17672519E+03</rscale>
<asrwt>0</asrwt>
<pdfrwt beam="1">  1        4 0.12252795E+00 0.17672519E+03</pdfrwt>
<pdfrwt beam="2">  1       -4 0.95141728E-02 0.17672519E+03</pdfrwt>
<totfact> 0.76083889E+01</totfact>
</mgrwt>
</event>
<event>
 4    1  0.8478300E-009  0.3227745E+03  0.7818608E-02  0.1074379E+00
          4   -1    0    0  501    0  0.00000000000E+00  0.00000000000E+00  0.12358803047E+03  0.12359455560E+03  0.12700000000E+01 0.  1.
         -4   -1    0    0    0  501 -0.00000000000E+00 -0.00000000000E+00 -0.84558450279E+03  0.84558545651E+03  0.12700000000E+01 0.  1.
    8880022    1    1    2    0    0  0.55187733857E+02  0.27882975501E+03 -0.38799580750E+03  0.50470200901E+03  0.15294330000E+03 0.  0.
    8880022    1    1    2    0    0 -0.55187733857E+02 -0.27882975501E+03 -0.33400066482E+03  0.46447800310E+03  0.15294330000E+03 0.  0.
<mgrwt>
<rscale>  0 0.32277449E+03</rscale>
<asrwt>0</asrwt>
<pdfrwt beam="1">  1        4 0.19014119E-01 0.32277449E+03</pdfrwt>
<pdfrwt beam="2">  1       -4 0.13009050E+00 0.32277449E+03</pdfrwt>
<totfact> 0.20800551E+01</totfact>
</mgrwt>
</event>
<event>
 4    1  0.8478300E-009  0.3099880E+03  0.7818608E-02  0.1080352E+00
         -4   -1    0    0    0  501 -0.00000000000E+00  0.00000000000E+00  0.10879789842E+03  0.10880531053E+03  0.12700000000E+01 0.  1.
          4   -1    0    0  501    0  0.00000000000E+00 -0.00000000000E+00 -0.97925352576E+03  0.97925434930E+03  0.12700000000E+01 0.  1.
    8880022    1    1    2    0    0 -0.23274986983E+03 -0.13611898625E+03 -0.26482787561E+03  0.40770864234E+03  0.15294330000E+03 0.  0.
    8880022    1    1    2    0    0  0.23274986983E+03  0.13611898625E+03 -0.60562775173E+03  0.68035101749E+03  0.15294330000E+03 0.  0.
<mgrwt>
<rscale>  0 0.30998796E+03</rscale>
<asrwt>0</asrwt>
<pdfrwt beam="1">  1        4 0.15065502E+00 0.30998796E+03</pdfrwt>
<pdfrwt beam="2">  1       -4 0.16738772E-01 0.30998796E+03</pdfrwt>
<totfact> 0.17936355E+01</totfact>
</mgrwt>
</event>
<event>
 4    1  0.8478300E-009  0.3278876E+03  0.7818608E-02  0.1072075E+00
         -4   -1    0    0    0  501 -0.00000000000E+00  0.00000000000E+00  0.18159449381E+03  0.18159893470E+03  0.12700000000E+01 0.  1.
          4   -1    0    0  501    0  0.00000000000E+00 -0.00000000000E+00 -0.77001473638E+03  0.77001578370E+03  0.12700000000E+01 0.  1.
    8880022    1    1    2    0    0 -0.18915867181E+03 -0.21985812258E+03 -0.65449791792E+02  0.33435598611E+03  0.15294330000E+03 0.  0.
    8880022    1    1    2    0    0  0.18915867181E+03  0.21985812258E+03 -0.52297045078E+03  0.61725873229E+03  0.15294330000E+03 0.  0.
<mgrwt>
<rscale>  0 0.32788756E+03</rscale>
<asrwt>0</asrwt>
<pdfrwt beam="1">  1        4 0.11846423E+00 0.32788756E+03</pdfrwt>
<pdfrwt beam="2">  1       -4 0.27938037E-01 0.32788756E+03</pdfrwt>
<totfact> 0.12839481E+01</totfact>
</mgrwt>
</event>
<event>
 4    1  0.8478300E-009  0.2955196E+03  0.7818608E-02  0.1087502E+00
         -4   -1    0    0    0  501 -0.00000000000E+00  0.00000000000E+00  0.12110092751E+03  0.12110758665E+03  0.12700000000E+01 0. -1.
          4   -1    0    0  501    0  0.00000000000E+00 -0.00000000000E+00 -0.88416872595E+03  0.88416963805E+03  0.12700000000E+01 0. -1.
    8880022    1    1    2    0    0  0.24862059597E+03  0.46130030080E+02 -0.16568876517E+03  0.33879876082E+03  0.15294330000E+03 0.  0.
    8880022    1    1    2    0    0 -0.24862059597E+03 -0.46130030080E+02 -0.59737903327E+03  0.66647846388E+03  0.15294330000E+03 0.  0.
<mgrwt>
<rscale>  0 0.29551960E+03</rscale>
<asrwt>0</asrwt>
<pdfrwt beam="1">  1        4 0.13602654E+00 0.29551960E+03</pdfrwt>
<pdfrwt beam="2">  1       -4 0.18631495E-01 0.29551960E+03</pdfrwt>
<totfact> 0.19163175E+01</totfact>
</mgrwt>
</event>
<event>
 4    1  0.8478300E-009  0.2445652E+03  0.7818608E-02  0.1116788E+00
         -4   -1    0    0    0  501 -0.00000000000E+00  0.00000000000E+00  0.10212606582E+03  0.10213396213E+03  0.12700000000E+01 0.  1.
          4   -1    0    0  501    0  0.00000000000E+00 -0.00000000000E+00 -0.75215671246E+03  0.75215778465E+03  0.12700000000E+01 0.  1.
    8880022    1    1    2    0    0 -0.76644375204E+02  0.17477454010E+03 -0.52599409138E+03  0.58007063130E+03  0.15294330000E+03 0.  0.
    8880022    1    1    2    0    0  0.76644375204E+02 -0.17477454010E+03 -0.12403655526E+03  0.27422111548E+03  0.15294330000E+03 0.  0.
<mgrwt>
<rscale>  0 0.24456523E+03</rscale>
<asrwt>0</asrwt>
<pdfrwt beam="1">  1        4 0.11571710E+00 0.24456523E+03</pdfrwt>
<pdfrwt beam="2">  1       -4 0.15712393E-01 0.24456523E+03</pdfrwt>
<totfact> 0.38138485E+01</totfact>
</mgrwt>
</event>
<event>
 4    1  0.8478300E-009  0.3619204E+03  0.7818608E-02  0.1057826E+00
         -4   -1    0    0    0  501 -0.00000000000E+00  0.00000000000E+00  0.27612937418E+03  0.27613229471E+03  0.12700000000E+01 0. -1.
          4   -1    0    0  501    0  0.00000000000E+00 -0.00000000000E+00 -0.56222129237E+03  0.56222272677E+03  0.12700000000E+01 0. -1.
    8880022    1    1    2    0    0 -0.28754649473E+03  0.15783461442E+03 -0.30875336356E+03  0.47572580828E+03  0.15294330000E+03 0.  0.
    8880022    1    1    2    0    0  0.28754649473E+03 -0.15783461442E+03  0.22661445367E+02  0.36262921319E+03  0.15294330000E+03 0.  0.
<mgrwt>
<rscale>  0 0.36192044E+03</rscale>
<asrwt>0</asrwt>
<pdfrwt beam="1">  1        4 0.86495918E-01 0.36192044E+03</pdfrwt>
<pdfrwt beam="2">  1       -4 0.42481777E-01 0.36192044E+03</pdfrwt>
<totfact> 0.11955757E+01</totfact>
</mgrwt>
</event>
<event>
 4    1  0.8478300E-009  0.1612500E+03  0.7818608E-02  0.1187293E+00
          4   -1    0    0  501    0  0.00000000000E+00  0.00000000000E+00  0.14949662166E+03  0.14950201600E+03  0.12700000000E+01 0.  1.
         -4   -1    0    0    0  501 -0.00000000000E+00 -0.00000000000E+00 -0.17951036570E+03  0.17951485815E+03  0.12700000000E+01 0.  1.
    8880022    1    1    2    0    0  0.49132937019E+02 -0.13995532598E+02  0.14032127079E+02  0.16185942678E+03  0.15294330000E+03 0.  0.
    8880022    1    1    2    0    0 -0.49132937019E+02  0.13995532598E+02 -0.44045871119E+02  0.16715744737E+03  0.15294330000E+03 0.  0.
<mgrwt>
<rscale>  0 0.16125003E+03</rscale>
<asrwt>0</asrwt>
<pdfrwt beam="1">  1        4 0.23000241E-01 0.16125003E+03</pdfrwt>
<pdfrwt beam="2">  1       -4 0.27617740E-01 0.16125003E+03</pdfrwt>
<totfact> 0.37290361E+02</totfact>
</mgrwt>
</event>
<event>
 4    1  0.8478300E-009  0.1556222E+03  0.7818608E-02  0.1193730E+00
         -4   -1    0    0    0  501 -0.00000000000E+00  0.00000000000E+00  0.42915371327E+02  0.42934158850E+02  0.12700000000E+01 0.  1.
          4   -1    0    0  501    0  0.00000000000E+00 -0.00000000000E+00 -0.56458783177E+03  0.56458926016E+03  0.12700000000E+01 0.  1.
    8880022    1    1    2    0    0 -0.14298692400E+01  0.28715575014E+02 -0.26896496219E+03  0.31074174595E+03  0.15294330000E+03 0. -1.
    8880022    1    1    2    0    0  0.14298692400E+01 -0.28715575014E+02 -0.25270749825E+03  0.29678167306E+03  0.15294330000E+03 0. -1.
<mgrwt>
<rscale>  0 0.15562224E+03</rscale>
<asrwt>0</asrwt>
<pdfrwt beam="1">  1        4 0.86861216E-01 0.15562224E+03</pdfrwt>
<pdfrwt beam="2">  1       -4 0.66039203E-02 0.15562224E+03</pdfrwt>
<totfact> 0.30613805E+02</totfact>
</mgrwt>
</event>
<event>
 4    1  0.8478300E-009  0.1598626E+03  0.7818608E-02  0.1188852E+00
          4   -1    0    0  501    0  0.00000000000E+00  0.00000000000E+00  0.20323113848E+03  0.20323510658E+03  0.12700000000E+01 0. -1.
         -4   -1    0    0    0  501 -0.00000000000E+00 -0.00000000000E+00 -0.15410114608E+03  0.15410637925E+03  0.12700000000E+01 0. -1.
    8880022    1    1    2    0    0 -0.43069515148E+02 -0.17590274773E+02  0.10121218483E+03  0.18920877430E+03  0.15294330000E+03 0. -1.
    8880022    1    1    2    0    0  0.43069515148E+02  0.17590274773E+02 -0.52082192428E+02  0.16813271152E+03  0.15294330000E+03 0. -1.
<mgrwt>
<rscale>  0 0.15986261E+03</rscale>
<asrwt>0</asrwt>
<pdfrwt beam="1">  1        4 0.31267037E-01 0.15986261E+03</pdfrwt>
<pdfrwt beam="2">  1       -4 0.23708576E-01 0.15986261E+03</pdfrwt>
<totfact> 0.27849086E+02</totfact>
</mgrwt>
</event>
<event>
 4    1  0.8478300E-009  0.1567104E+03  0.7818608E-02  0.1192462E+00
          4   -1    0    0  501    0  0.00000000000E+00  0.00000000000E+00  0.10998512440E+03  0.10999245651E+03  0.12700000000E+01 0.  1.
         -4   -1    0    0    0  501 -0.00000000000E+00 -0.00000000000E+00 -0.22610513729E+03  0.22610870397E+03  0.12700000000E+01 0.  1.
    8880022    1    1    2    0    0 -0.62836392672E+01  0.33570914583E+02 -0.39240753936E+02  0.16154869301E+03  0.15294330000E+03 0.  1.
    8880022    1    1    2    0    0  0.62836392672E+01 -0.33570914583E+02 -0.76879258955E+02  0.17455246747E+03  0.15294330000E+03 0.  1.
<mgrwt>
<rscale>  0 0.15671038E+03</rscale>
<asrwt>0</asrwt>
<pdfrwt beam="1">  1        4 0.16921627E-01 0.15671038E+03</pdfrwt>
<pdfrwt beam="2">  1       -4 0.34786244E-01 0.15671038E+03</pdfrwt>
<totfact> 0.41566164E+02</totfact>
</mgrwt>
</event>
<event>
 4    1  0.8478300E-009  0.1667640E+03  0.7818608E-02  0.1181265E+00
         -4   -1    0    0    0  501 -0.00000000000E+00  0.00000000000E+00  0.16527194749E+03  0.16527682695E+03  0.12700000000E+01 0.  1.
          4   -1    0    0  501    0  0.00000000000E+00 -0.00000000000E+00 -0.16839228163E+03  0.16839707068E+03  0.12700000000E+01 0.  1.
    8880022    1    1    2    0    0  0.61058265363E+02  0.26276900873E+02  0.31190399967E+01  0.16679319145E+03  0.15294330000E+03 0. -1.
    8880022    1    1    2    0    0 -0.61058265363E+02 -0.26276900873E+02 -0.62393741411E+01  0.16688070617E+03  0.15294330000E+03 0. -1.
<mgrwt>
<rscale>  0 0.16676403E+03</rscale>
<asrwt>0</asrwt>
<pdfrwt beam="1">  1        4 0.25907248E-01 0.16676403E+03</pdfrwt>
<pdfrwt beam="2">  1       -4 0.25427197E-01 0.16676403E+03</pdfrwt>
<totfact> 0.35120232E+02</totfact>
</mgrwt>
</event>
<event>
 4    1  0.8478300E-009  0.1861815E+03  0.7818608E-02  0.1161951E+00
         -4   -1    0    0    0  501 -0.00000000000E+00  0.00000000000E+00  0.99161968103E+03  0.99162049429E+03  0.12700000000E+01 0.  1.
          4   -1    0    0  501    0  0.00000000000E+00 -0.00000000000E+00 -0.15328410447E+03  0.15328936553E+03  0.12700000000E+01 0.  1.
    8880022    1    1    2    0    0 -0.76044080389E+02  0.74089217139E+02 -0.83796577785E+02  0.20417010977E+03  0.15294330000E+03 0.  0.
    8880022    1    1    2    0    0  0.76044080389E+02 -0.74089217139E+02  0.92213215434E+03  0.94073975006E+03  0.15294330000E+03 0.  0.
<mgrwt>
<rscale>  0 0.18618154E+03</rscale>
<asrwt>0</asrwt>
<pdfrwt beam="1">  1        4 0.23582638E-01 0.18618154E+03</pdfrwt>
<pdfrwt beam="2">  1       -4 0.15255734E+00 0.18618154E+03</pdfrwt>
<totfact> 0.89481720E+00</totfact>
</mgrwt>
</event>
<event>
 4    1  0.8478300E-009  0.1943791E+03  0.7818608E-02  0.1154570E+00
         -4   -1    0    0    0  501 -0.00000000000E+00  0.00000000000E+00  0.25713364568E+03  0.25713678197E+03  0.12700000000E+01 0.  1.
          4   -1    0    0  501    0  0.00000000000E+00 -0.00000000000E+00 -0.14713799375E+03  0.14714347456E+03  0.12700000000E+01 0.  1.
    8880022    1    1    2    0    0  0.35291256402E+02 -0.11465651532E+03  0.62536766473E+02  0.20419130604E+03  0.15294330000E+03 0.  0.
    8880022    1    1    2    0    0 -0.35291256402E+02  0.11465651532E+03  0.47458885460E+02  0.20008895049E+03  0.15294330000E+03 0.  0.
<mgrwt>
<rscale>  0 0.19437912E+03</rscale>
<asrwt>0</asrwt>
<pdfrwt beam="1">  1        4 0.22637278E-01 0.19437912E+03</pdfrwt>
<pdfrwt beam="2">  1       -4 0.39559685E-01 0.19437912E+03</pdfrwt>
<totfact> 0.19811842E+02</totfact>
</mgrwt>
</event>
<event>
 4    1  0.8478300E-009  0.1798441E+03  0.7818608E-02  0.1167954E+00
         -4   -1    0    0    0  501 -0.00000000000E+00  0.00000000000E+00  0.74234139572E+02  0.74245002377E+02  0.12700000000E+01 0.  1.
          4   -1    0    0  501    0  0.00000000000E+00 -0.00000000000E+00 -0.60963319440E+03  0.60963451724E+03  0.12700000000E+01 0.  1.
    8880022    1    1    2    0    0 -0.22606150669E+02 -0.91876072850E+02 -0.85034625732E+02  0.19893413834E+03  0.15294330000E+03 0.  0.
    8880022    1    1    2    0    0  0.22606150669E+02  0.91876072850E+02 -0.45036442909E+03  0.48494538127E+03  0.15294330000E+03 0.  0.
<mgrwt>
<rscale>  0 0.17984411E+03</rscale>
<asrwt>0</asrwt>
<pdfrwt beam="1">  1        4 0.93790656E-01 0.17984411E+03</pdfrwt>
<pdfrwt beam="2">  1       -4 0.11421575E-01 0.17984411E+03</pdfrwt>
<totfact> 0.10508414E+02</totfact>
</mgrwt>
</event>
<event>
 4    1  0.8478300E-009  0.2334139E+03  0.7818608E-02  0.1124260E+00
          4   -1    0    0  501    0  0.00000000000E+00  0.00000000000E+00  0.95050885062E+03  0.95050969906E+03  0.12700000000E+01 0.  1.
         -4   -1    0    0    0  501 -0.00000000000E+00 -0.00000000000E+00 -0.60903738894E+02  0.60916978842E+02  0.12700000000E+01 0.  1.
    8880022    1    1    2    0    0 -0.15866786236E+03  0.76908397134E+02  0.32198824750E+03  0.39769143395E+03  0.15294330000E+03 0.  0.
    8880022    1    1    2    0    0  0.15866786236E+03 -0.76908397134E+02  0.56761686422E+03  0.61373524394E+03  0.15294330000E+03 0.  0.
<mgrwt>
<rscale>  0 0.23341389E+03</rscale>
<asrwt>0</asrwt>
<pdfrwt beam="1">  1        4 0.14623322E+00 0.23341389E+03</pdfrwt>
<pdfrwt beam="2">  1       -4 0.93708892E-02 0.23341389E+03</pdfrwt>
<totfact> 0.51896584E+01</totfact>
</mgrwt>
</event>
<event>
 4    1  0.8478300E-009  0.2040831E+03  0.7818608E-02  0.1146339E+00
         -4   -1    0    0    0  501 -0.00000000000E+00  0.00000000000E+00  0.38704534701E+03  0.38704743061E+03  0.12700000000E+01 0. -1.
          4   -1    0    0  501    0  0.00000000000E+00 -0.00000000000E+00 -0.12994002611E+03  0.12994623228E+03  0.12700000000E+01 0. -1.
    8880022    1    1    2    0    0  0.77516108885E+02  0.11067758112E+03  0.23572273053E+03  0.31179341366E+03  0.15294330000E+03 0.  1.
    8880022    1    1    2    0    0 -0.77516108885E+02 -0.11067758112E+03  0.21382590377E+02  0.20520024923E+03  0.15294330000E+03 0.  1.
<mgrwt>
<rscale>  0 0.20408314E+03</rscale>
<asrwt>0</asrwt>
<pdfrwt beam="1">  1        4 0.19991411E-01 0.20408314E+03</pdfrwt>
<pdfrwt beam="2">  1       -4 0.59546076E-01 0.20408314E+03</pdfrwt>
<totfact> 0.10847643E+02</totfact>
</mgrwt>
</event>
<event>
 4    1  0.8478300E-009  0.2976291E+03  0.7818608E-02  0.1086432E+00
         -4   -1    0    0    0  501 -0.00000000000E+00  0.00000000000E+00  0.51866051789E+03  0.51866207276E+03  0.12700000000E+01 0.  1.
          4   -1    0    0  501    0  0.00000000000E+00 -0.00000000000E+00 -0.35599905363E+03  0.35600131894E+03  0.12700000000E+01 0.  1.
    8880022    1    1    2    0    0  0.24351352123E+03  0.76763212246E+02 -0.23410949695E+03  0.37866916346E+03  0.15294330000E+03 0.  0.
    8880022    1    1    2    0    0 -0.24351352123E+03 -0.76763212246E+02  0.39677096120E+03  0.49599422824E+03  0.15294330000E+03 0.  0.
<mgrwt>
<rscale>  0 0.29762910E+03</rscale>
<asrwt>0</asrwt>
<pdfrwt beam="1">  1        4 0.54769379E-01 0.29762910E+03</pdfrwt>
<pdfrwt beam="2">  1       -4 0.79794220E-01 0.29762910E+03</pdfrwt>
<totfact> 0.83938492E+00</totfact>
</mgrwt>
</event>
<event>
 4    1  0.8478300E-009  0.2154677E+03  0.7818608E-02  0.1137308E+00
         -4   -1    0    0    0  501 -0.00000000000E+00  0.00000000000E+00  0.34057153787E+03  0.34057390579E+03  0.12700000000E+01 0. -1.
          4   -1    0    0  501    0  0.00000000000E+00 -0.00000000000E+00 -0.13632701171E+03  0.13633292714E+03  0.12700000000E+01 0. -1.
    8880022    1    1    2    0    0 -0.35344691320E+02 -0.14759890833E+03  0.10453084957E+03  0.23948493997E+03  0.15294330000E+03 0.  0.
    8880022    1    1    2    0    0  0.35344691320E+02  0.14759890833E+03  0.99713676580E+02  0.23742189296E+03  0.15294330000E+03 0.  0.
<mgrwt>
<rscale>  0 0.21546772E+03</rscale>
<asrwt>0</asrwt>
<pdfrwt beam="1">  1        4 0.20974024E-01 0.21546772E+03</pdfrwt>
<pdfrwt beam="2">  1       -4 0.52396258E-01 0.21546772E+03</pdfrwt>
<totfact> 0.13088318E+02</totfact>
</mgrwt>
</event>
<event>
 4    1  0.8478300E-009  0.2254797E+03  0.7818608E-02  0.1129862E+00
          4   -1    0    0  501    0  0.00000000000E+00  0.00000000000E+00  0.50490163699E+03  0.50490323423E+03  0.12700000000E+01 0.  1.
         -4   -1    0    0    0  501 -0.00000000000E+00 -0.00000000000E+00 -0.23954416269E+03  0.23954752927E+03  0.12700000000E+01 0.  1.
    8880022    1    1    2    0    0  0.13004905587E+03  0.10264840123E+03 -0.15071295940E+03  0.27121117299E+03  0.15294330000E+03 0.  0.
    8880022    1    1    2    0    0 -0.13004905587E+03 -0.10264840123E+03  0.41607043370E+03  0.47323959051E+03  0.15294330000E+03 0.  0.
<mgrwt>
<rscale>  0 0.22547972E+03</rscale>
<asrwt>0</asrwt>
<pdfrwt beam="1">  1        4 0.77677557E-01 0.22547972E+03</pdfrwt>
<pdfrwt beam="2">  1       -4 0.36853330E-01 0.22547972E+03</pdfrwt>
<totfact> 0.19475086E+01</totfact>
</mgrwt>
</event>
<event>
 4    1  0.8478300E-009  0.2446438E+03  0.7818608E-02  0.1116737E+00
          4   -1    0    0  501    0  0.00000000000E+00  0.00000000000E+00  0.44047400362E+02  0.44065705244E+02  0.12700000000E+01 0. -1.
         -4   -1    0    0    0  501 -0.00000000000E+00 -0.00000000000E+00 -0.15929665951E+04  0.15929671013E+04  0.12700000000E+01 0. -1.
    8880022    1    1    2    0    0 -0.18551538856E+03  0.45199204140E+02 -0.46042002320E+03  0.52138007080E+03  0.15294330000E+03 0.  0.
    8880022    1    1    2    0    0  0.18551538856E+03 -0.45199204140E+02 -0.10884991715E+04  0.11156527358E+04  0.15294330000E+03 0.  0.
<mgrwt>
<rscale>  0 0.24464378E+03</rscale>
<asrwt>0</asrwt>
<pdfrwt beam="1">  1        4 0.67779714E-02 0.24464378E+03</pdfrwt>
<pdfrwt beam="2">  1       -4 0.24507319E+00 0.24464378E+03</pdfrwt>
<totfact> 0.20291458E+01</totfact>
</mgrwt>
</event>
<event>
 4    1  0.8478300E-009  0.1867896E+03  0.7818608E-02  0.1161389E+00
          4   -1    0    0  501    0  0.00000000000E+00  0.00000000000E+00  0.24758954742E+03  0.24759280461E+03  0.12700000000E+01 0.  1.
         -4   -1    0    0    0  501 -0.00000000000E+00 -0.00000000000E+00 -0.16003146619E+03  0.16003650543E+03  0.12700000000E+01 0.  1.
    8880022    1    1    2    0    0 -0.74208430944E+01 -0.10697492357E+03  0.11422341736E+03  0.21894598711E+03  0.15294330000E+03 0.  0.
    8880022    1    1    2    0    0  0.74208430944E+01  0.10697492357E+03 -0.26665336120E+02  0.18868332292E+03  0.15294330000E+03 0.  0.
<mgrwt>
<rscale>  0 0.18678960E+03</rscale>
<asrwt>0</asrwt>
<pdfrwt beam="1">  1        4 0.38091338E-01 0.18678960E+03</pdfrwt>
<pdfrwt beam="2">  1       -4 0.24620864E-01 0.18678960E+03</pdfrwt>
<totfact> 0.18168823E+02</totfact>
</mgrwt>
</event>
<event>
 4    1  0.8478300E-009  0.3293021E+03  0.7818608E-02  0.1071446E+00
          4   -1    0    0  501    0  0.00000000000E+00  0.00000000000E+00  0.39143945860E+03  0.39144151881E+03  0.12700000000E+01 0.  1.
         -4   -1    0    0    0  501 -0.00000000000E+00 -0.00000000000E+00 -0.30709270637E+03  0.30709533243E+03  0.12700000000E+01 0.  1.
    8880022    1    1    2    0    0  0.29153223333E+03  0.75607370513E+01  0.15146255313E+03  0.36246484771E+03  0.15294330000E+03 0.  0.
    8880022    1    1    2    0    0 -0.29153223333E+03 -0.75607370513E+01 -0.67115800891E+02  0.33607200353E+03  0.15294330000E+03 0.  0.
<mgrwt>
<rscale>  0 0.32930208E+03</rscale>
<asrwt>0</asrwt>
<pdfrwt beam="1">  1        4 0.60221816E-01 0.32930208E+03</pdfrwt>
<pdfrwt beam="2">  1       -4 0.47245392E-01 0.32930208E+03</pdfrwt>
<totfact> 0.21298646E+01</totfact>
</mgrwt>
</event>
<event>
 4    1  0.8478300E-009  0.1828893E+03  0.7818608E-02  0.1165036E+00
          4   -1    0    0  501    0  0.00000000000E+00  0.00000000000E+00  0.49397607302E+03  0.49397770559E+03  0.12700000000E+01 0. -1.
         -4   -1    0    0    0  501 -0.00000000000E+00 -0.00000000000E+00 -0.93421968391E+02  0.93430600330E+02  0.12700000000E+01 0. -1.
    8880022    1    1    2    0    0  0.45681048655E+02  0.89275399874E+02  0.35436435828E+03  0.39877638680E+03  0.15294330000E+03 0.  0.
    8880022    1    1    2    0    0 -0.45681048655E+02 -0.89275399874E+02  0.46189746345E+02  0.18863191912E+03  0.15294330000E+03 0.  0.
<mgrwt>
<rscale>  0 0.18288933E+03</rscale>
<asrwt>0</asrwt>
<pdfrwt beam="1">  1        4 0.75997106E-01 0.18288933E+03</pdfrwt>
<pdfrwt beam="2">  1       -4 0.14373401E-01 0.18288933E+03</pdfrwt>
<totfact> 0.11353579E+02</totfact>
</mgrwt>
</event>
<event>
 4    1  0.8478300E-009  0.2398828E+03  0.7818608E-02  0.1119871E+00
         -4   -1    0    0    0  501 -0.00000000000E+00  0.00000000000E+00  0.62270684352E+03  0.62270813859E+03  0.12700000000E+01 0. -1.
          4   -1    0    0  501    0  0.00000000000E+00 -0.00000000000E+00 -0.26487453758E+03  0.26487758222E+03  0.12700000000E+01 0. -1.
    8880022    1    1    2    0    0  0.36067969027E+02 -0.18124902870E+03 -0.17919070325E+03  0.29942122493E+03  0.15294330000E+03 0.  0.
    8880022    1    1    2    0    0 -0.36067969027E+02  0.18124902870E+03  0.53702300919E+03  0.58816449588E+03  0.15294330000E+03 0.  0.
<mgrwt>
<rscale>  0 0.23988281E+03</rscale>
<asrwt>0</asrwt>
<pdfrwt beam="1">  1        4 0.40750263E-01 0.23988281E+03</pdfrwt>
<pdfrwt beam="2">  1       -4 0.95801386E-01 0.23988281E+03</pdfrwt>
<totfact> 0.99714067E+00</totfact>
</mgrwt>
</event>
<event>
 4    1  0.8478300E-009  0.2226785E+03  0.7818608E-02  0.1131902E+00
         -4   -1    0    0    0  501 -0.00000000000E+00  0.00000000000E+00  0.67046744545E+03  0.67046864827E+03  0.12700000000E+01 0.  1.
          4   -1    0    0  501    0  0.00000000000E+00 -0.00000000000E+00 -0.10611155221E+03  0.10611915196E+03  0.12700000000E+01 0.  1.
    8880022    1    1    2    0    0 -0.57522066901E+02 -0.15127879840E+03  0.68418699562E+02  0.23295242967E+03  0.15294330000E+03 0.  0.
    8880022    1    1    2    0    0  0.57522066901E+02  0.15127879840E+03  0.49593719368E+03  0.54363537055E+03  0.15294330000E+03 0.  0.
<mgrwt>
<rscale>  0 0.22267850E+03</rscale>
<asrwt>0</asrwt>
<pdfrwt beam="1">  1        4 0.16325532E-01 0.22267850E+03</pdfrwt>
<pdfrwt beam="2">  1       -4 0.10314951E+00 0.22267850E+03</pdfrwt>
<totfact> 0.46404205E+01</totfact>
</mgrwt>
</event>
<event>
 4    1  0.8478300E-009  0.1921555E+03  0.7818608E-02  0.1156531E+00
          4   -1    0    0  501    0  0.00000000000E+00  0.00000000000E+00  0.28986111579E+03  0.28986389797E+03  0.12700000000E+01 0. -1.
         -4   -1    0    0    0  501 -0.00000000000E+00 -0.00000000000E+00 -0.12797478400E+03  0.12798108548E+03  0.12700000000E+01 0. -1.
    8880022    1    1    2    0    0  0.11548809346E+03  0.13949266470E+02  0.66672765389E+02  0.20339368826E+03  0.15294330000E+03 0.  0.
    8880022    1    1    2    0    0 -0.11548809346E+03 -0.13949266470E+02  0.95213566397E+02  0.21445129519E+03  0.15294330000E+03 0.  0.
<mgrwt>
<rscale>  0 0.19215550E+03</rscale>
<asrwt>0</asrwt>
<pdfrwt beam="1">  1        4 0.44594716E-01 0.19215550E+03</pdfrwt>
<pdfrwt beam="2">  1       -4 0.19689127E-01 0.19215550E+03</pdfrwt>
<totfact> 0.20079775E+02</totfact>
</mgrwt>
</event>
<event>
 4    1  0.8478300E-009  0.1868176E+03  0.7818608E-02  0.1161363E+00
          4   -1    0    0  501    0  0.00000000000E+00  0.00000000000E+00  0.28797955653E+03  0.28798235689E+03  0.12700000000E+01 0.  1.
         -4   -1    0    0    0  501 -0.00000000000E+00 -0.00000000000E+00 -0.13022522861E+03  0.13023142119E+03  0.12700000000E+01 0.  1.
    8880022    1    1    2    0    0 -0.36991668391E+01 -0.10721690945E+03  0.23785025833E+02  0.18832559565E+03  0.15294330000E+03 0.  1.
    8880022    1    1    2    0    0  0.36991668391E+01  0.10721690945E+03  0.13396930209E+03  0.22988818244E+03  0.15294330000E+03 0.  1.
<mgrwt>
<rscale>  0 0.18681756E+03</rscale>
<asrwt>0</asrwt>
<pdfrwt beam="1">  1        4 0.44305238E-01 0.18681756E+03</pdfrwt>
<pdfrwt beam="2">  1       -4 0.20035343E-01 0.18681756E+03</pdfrwt>
<totfact> 0.19626589E+02</totfact>
</mgrwt>
</event>
<event>
 4    1  0.8478300E-009  0.1583181E+03  0.7818608E-02  0.1190609E+00
         -4   -1    0    0    0  501 -0.00000000000E+00  0.00000000000E+00  0.16731904560E+03  0.16732386537E+03  0.12700000000E+01 0. -1.
          4   -1    0    0  501    0  0.00000000000E+00 -0.00000000000E+00 -0.18874727383E+03  0.18875154643E+03  0.12700000000E+01 0. -1.
    8880022    1    1    2    0    0  0.99505113432E+01 -0.39673144875E+02  0.70166656974E+02  0.17317038969E+03  0.15294330000E+03 0.  0.
    8880022    1    1    2    0    0 -0.99505113432E+01  0.39673144875E+02 -0.91594885203E+02  0.18290502210E+03  0.15294330000E+03 0.  0.
<mgrwt>
<rscale>  0 0.15831811E+03</rscale>
<asrwt>0</asrwt>
<pdfrwt beam="1">  1        4 0.29038742E-01 0.15831811E+03</pdfrwt>
<pdfrwt beam="2">  1       -4 0.25742091E-01 0.15831811E+03</pdfrwt>
<totfact> 0.27472043E+02</totfact>
</mgrwt>
</event>
<event>
 4    1  0.8478300E-009  0.1608304E+03  0.7818608E-02  0.1187762E+00
         -4   -1    0    0    0  501 -0.00000000000E+00  0.00000000000E+00  0.13858102168E+03  0.13858684090E+03  0.12700000000E+01 0.  1.
          4   -1    0    0  501    0  0.00000000000E+00 -0.00000000000E+00 -0.20345051861E+03  0.20345448244E+03  0.12700000000E+01 0.  1.
    8880022    1    1    2    0    0  0.18130016453E+02  0.46325619736E+02  0.16723777056E+02  0.16169755185E+03  0.15294330000E+03 0. -1.
    8880022    1    1    2    0    0 -0.18130016453E+02 -0.46325619736E+02 -0.81593273985E+02  0.18034377149E+03  0.15294330000E+03 0. -1.
<mgrwt>
<rscale>  0 0.16083039E+03</rscale>
<asrwt>0</asrwt>
<pdfrwt beam="1">  1        4 0.31300832E-01 0.16083039E+03</pdfrwt>
<pdfrwt beam="2">  1       -4 0.21320910E-01 0.16083039E+03</pdfrwt>
<totfact> 0.33782502E+02</totfact>
</mgrwt>
</event>
<event>
 4    1  0.8478300E-009  0.1744210E+03  0.7818608E-02  0.1173314E+00
          4   -1    0    0  501    0  0.00000000000E+00  0.00000000000E+00  0.33357333486E+02  0.33381500825E+02  0.12700000000E+01 0.  1.
         -4   -1    0    0    0  501 -0.00000000000E+00 -0.00000000000E+00 -0.93121600165E+03  0.93121686767E+03  0.12700000000E+01 0.  1.
    8880022    1    1    2    0    0  0.94663208185E+01 -0.83315175379E+02 -0.51880502420E+03  0.54734023772E+03  0.15294330000E+03 0.  1.
    8880022    1    1    2    0    0 -0.94663208185E+01  0.83315175379E+02 -0.37905364396E+03  0.41725813077E+03  0.15294330000E+03 0.  1.
<mgrwt>
<rscale>  0 0.17442099E+03</rscale>
<asrwt>0</asrwt>
<pdfrwt beam="1">  1        4 0.51338238E-02 0.17442099E+03</pdfrwt>
<pdfrwt beam="2">  1       -4 0.14326591E+00 0.17442099E+03</pdfrwt>
<totfact> 0.14270026E+02</totfact>
</mgrwt>
</event>
<event>
 4    1  0.8478300E-009  0.2512779E+03  0.7818608E-02  0.1112500E+00
          4   -1    0    0  501    0  0.00000000000E+00  0.00000000000E+00  0.41387250099E+03  0.41387444953E+03  0.12700000000E+01 0. -1.
         -4   -1    0    0    0  501 -0.00000000000E+00 -0.00000000000E+00 -0.20259175270E+03  0.20259573333E+03  0.12700000000E+01 0. -1.
    8880022    1    1    2    0    0 -0.29604144280E+02  0.19716112104E+03 -0.47541236065E+02  0.25573567438E+03  0.15294330000E+03 0.  1.
    8880022    1    1    2    0    0  0.29604144280E+02 -0.19716112104E+03  0.25882198435E+03  0.36073450848E+03  0.15294330000E+03 0.  1.
<mgrwt>
<rscale>  0 0.25127787E+03</rscale>
<asrwt>0</asrwt>
<pdfrwt beam="1">  1        4 0.63673148E-01 0.25127787E+03</pdfrwt>
<pdfrwt beam="2">  1       -4 0.31168418E-01 0.25127787E+03</pdfrwt>
<totfact> 0.42097593E+01</totfact>
</mgrwt>
</event>
<event>
 4    1  0.8478300E-009  0.3961460E+03  0.7818608E-02  0.1045122E+00
         -4   -1    0    0    0  501 -0.00000000000E+00  0.00000000000E+00  0.44790798640E+03  0.44790978688E+03  0.12700000000E+01 0. -1.
          4   -1    0    0  501    0  0.00000000000E+00 -0.00000000000E+00 -0.35248518177E+03  0.35248746966E+03  0.12700000000E+01 0. -1.
    8880022    1    1    2    0    0  0.32471929208E+03 -0.16762264949E+03  0.78770228582E+02  0.40390143995E+03  0.15294330000E+03 0.  0.
    8880022    1    1    2    0    0 -0.32471929208E+03  0.16762264949E+03  0.16652576049E+02  0.39649581659E+03  0.15294330000E+03 0.  0.
<mgrwt>
<rscale>  0 0.39614596E+03</rscale>
<asrwt>0</asrwt>
<pdfrwt beam="1">  1        4 0.54228804E-01 0.39614596E+03</pdfrwt>
<pdfrwt beam="2">  1       -4 0.68909236E-01 0.39614596E+03</pdfrwt>
<totfact> 0.12097122E+01</totfact>
</mgrwt>
</event>
<event>
 4    1  0.8478300E-009  0.3956816E+03  0.7818608E-02  0.1045285E+00
         -4   -1    0    0    0  501 -0.00000000000E+00  0.00000000000E+00  0.73328860921E+03  0.73328970898E+03  0.12700000000E+01 0. -1.
          4   -1    0    0  501    0  0.00000000000E+00 -0.00000000000E+00 -0.21513116703E+03  0.21513491564E+03  0.12700000000E+01 0. -1.
    8880022    1    1    2    0    0  0.36457725503E+03 -0.15990753797E+02  0.30029283934E+03  0.49672902217E+03  0.15294330000E+03 0.  0.
    8880022    1    1    2    0    0 -0.36457725503E+03  0.15990753797E+02  0.21786460284E+03  0.45169560245E+03  0.15294330000E+03 0.  0.
<mgrwt>
<rscale>  0 0.39568160E+03</rscale>
<asrwt>0</asrwt>
<pdfrwt beam="1">  1        4 0.33097476E-01 0.39568160E+03</pdfrwt>
<pdfrwt beam="2">  1       -4 0.11281400E+00 0.39568160E+03</pdfrwt>
<totfact> 0.10551183E+01</totfact>
</mgrwt>
</event>
<event>
 4    1  0.8478300E-009  0.4865577E+03  0.7818608E-02  0.1017348E+00
         -4   -1    0    0    0  501 -0.00000000000E+00  0.00000000000E+00  0.11951348249E+03  0.11952023007E+03  0.12700000000E+01 0. -1.
          4   -1    0    0  501    0  0.00000000000E+00 -0.00000000000E+00 -0.19832943923E+04  0.19832947989E+04  0.12700000000E+01 0. -1.
    8880022    1    1    2    0    0 -0.35047284836E+03  0.30085803283E+03 -0.96926462816E+03  0.10845332387E+04  0.15294330000E+03 0.  0.
    8880022    1    1    2    0    0  0.35047284836E+03 -0.30085803283E+03 -0.89451628165E+03  0.10182817903E+04  0.15294330000E+03 0.  0.
<mgrwt>
<rscale>  0 0.48655773E+03</rscale>
<asrwt>0</asrwt>
<pdfrwt beam="1">  1        4 0.30512274E+00 0.48655773E+03</pdfrwt>
<pdfrwt beam="2">  1       -4 0.18387241E-01 0.48655773E+03</pdfrwt>
<totfact> 0.15993586E+00</totfact>
</mgrwt>
</event>
<event>
 4    1  0.8478300E-009  0.4379674E+03  0.7818608E-02  0.1031372E+00
         -4   -1    0    0    0  501 -0.00000000000E+00  0.00000000000E+00  0.67756516631E+03  0.67756635653E+03  0.12700000000E+01 0.  1.
          4   -1    0    0  501    0  0.00000000000E+00 -0.00000000000E+00 -0.28730596361E+03  0.28730877053E+03  0.12700000000E+01 0.  1.
    8880022    1    1    2    0    0  0.14369559574E+03  0.38441567276E+03  0.13670567817E+03  0.45880707183E+03  0.15294330000E+03 0.  0.
    8880022    1    1    2    0    0 -0.14369559574E+03 -0.38441567276E+03  0.25355352453E+03  0.50606805523E+03  0.15294330000E+03 0.  0.
<mgrwt>
<rscale>  0 0.43796745E+03</rscale>
<asrwt>0</asrwt>
<pdfrwt beam="1">  1        4 0.44201225E-01 0.43796745E+03</pdfrwt>
<pdfrwt beam="2">  1       -4 0.10424110E+00 0.43796745E+03</pdfrwt>
<totfact> 0.72028698E+00</totfact>
</mgrwt>
</event>
<event>
 4    1  0.8478300E-009  0.2619033E+03  0.7818608E-02  0.1106005E+00
         -4   -1    0    0    0  501 -0.00000000000E+00  0.00000000000E+00  0.95590555906E+02  0.95598992037E+02  0.12700000000E+01 0.  1.
          4   -1    0    0  501    0  0.00000000000E+00 -0.00000000000E+00 -0.75194758017E+03  0.75194865265E+03  0.12700000000E+01 0.  1.
    8880022    1    1    2    0    0 -0.13134865441E+02  0.21220076321E+03 -0.41883602049E+03  0.49398072197E+03  0.15294330000E+03 0.  0.
    8880022    1    1    2    0    0  0.13134865441E+02 -0.21220076321E+03 -0.23752100377E+03  0.35356692272E+03  0.15294330000E+03 0.  0.
<mgrwt>
<rscale>  0 0.26190331E+03</rscale>
<asrwt>0</asrwt>
<pdfrwt beam="1">  1        4 0.11568497E+00 0.26190331E+03</pdfrwt>
<pdfrwt beam="2">  1       -4 0.14706971E-01 0.26190331E+03</pdfrwt>
<totfact> 0.43200647E+01</totfact>
</mgrwt>
</event>
<event>
 4    1  0.8478300E-009  0.2799576E+03  0.7818608E-02  0.1095712E+00
          4   -1    0    0  501    0  0.00000000000E+00  0.00000000000E+00  0.63643247577E+02  0.63655917731E+02  0.12700000000E+01 0.  1.
         -4   -1    0    0    0  501 -0.00000000000E+00 -0.00000000000E+00 -0.12315947373E+04  0.12315953921E+04  0.12700000000E+01 0.  1.
    8880022    1    1    2    0    0  0.16500468780E+03  0.16660743177E+03 -0.59295870315E+03  0.65572575058E+03  0.15294330000E+03 0.  0.
    8880022    1    1    2    0    0 -0.16500468780E+03 -0.16660743177E+03 -0.57499278658E+03  0.63952555927E+03  0.15294330000E+03 0.  0.
<mgrwt>
<rscale>  0 0.27995756E+03</rscale>
<asrwt>0</asrwt>
<pdfrwt beam="1">  1        4 0.97922948E-02 0.27995756E+03</pdfrwt>
<pdfrwt beam="2">  1       -4 0.18947712E+00 0.27995756E+03</pdfrwt>
<totfact> 0.24326458E+01</totfact>
</mgrwt>
</event>
<event>
 4    1  0.8478300E-009  0.1867954E+03  0.7818608E-02  0.1161384E+00
         -4   -1    0    0    0  501 -0.00000000000E+00  0.00000000000E+00  0.80351328339E+03  0.80351428704E+03  0.12700000000E+01 0. -1.
          4   -1    0    0  501    0  0.00000000000E+00 -0.00000000000E+00 -0.80775611610E+02  0.80785594823E+02  0.12700000000E+01 0. -1.
    8880022    1    1    2    0    0 -0.10225452713E+03  0.32324810128E+02  0.66204389889E+03  0.68789145855E+03  0.15294330000E+03 0.  0.
    8880022    1    1    2    0    0  0.10225452713E+03 -0.32324810128E+02  0.60693772889E+02  0.19640842332E+03  0.15294330000E+03 0.  0.
<mgrwt>
<rscale>  0 0.18679544E+03</rscale>
<asrwt>0</asrwt>
<pdfrwt beam="1">  1        4 0.12427862E-01 0.18679544E+03</pdfrwt>
<pdfrwt beam="2">  1       -4 0.12361827E+00 0.18679544E+03</pdfrwt>
<totfact> 0.47529642E+01</totfact>
</mgrwt>
</event>
<event>
 4    1  0.8478300E-009  0.1868852E+03  0.7818608E-02  0.1161301E+00
         -4   -1    0    0    0  501 -0.00000000000E+00  0.00000000000E+00  0.29362902144E+03  0.29363176792E+03  0.12700000000E+01 0. -1.
          4   -1    0    0  501    0  0.00000000000E+00 -0.00000000000E+00 -0.12280131792E+03  0.12280788486E+03  0.12700000000E+01 0. -1.
    8880022    1    1    2    0    0 -0.90965375431E+02 -0.57094069369E+02  0.12233658586E+03  0.22336590057E+03  0.15294330000E+03 0.  1.
    8880022    1    1    2    0    0  0.90965375431E+02  0.57094069369E+02  0.48491117659E+02  0.19307375221E+03  0.15294330000E+03 0.  1.
<mgrwt>
<rscale>  0 0.18688522E+03</rscale>
<asrwt>0</asrwt>
<pdfrwt beam="1">  1        4 0.18893227E-01 0.18688522E+03</pdfrwt>
<pdfrwt beam="2">  1       -4 0.45174412E-01 0.18688522E+03</pdfrwt>
<totfact> 0.20984153E+02</totfact>
</mgrwt>
</event>
<event>
 4    1  0.8478300E-009  0.2419582E+03  0.7818608E-02  0.1118495E+00
         -4   -1    0    0    0  501 -0.00000000000E+00  0.00000000000E+00  0.77400548597E+03  0.77400652788E+03  0.12700000000E+01 0. -1.
          4   -1    0    0  501    0  0.00000000000E+00 -0.00000000000E+00 -0.15748665011E+03  0.15749177078E+03  0.12700000000E+01 0. -1.
    8880022    1    1    2    0    0  0.42132463678E+02  0.18269365961E+03  0.64402969324E+03  0.68798111642E+03  0.15294330000E+03 0.  0.
    8880022    1    1    2    0    0 -0.42132463678E+02 -0.18269365961E+03 -0.27510857390E+02  0.24351718224E+03  0.15294330000E+03 0.  0.
<mgrwt>
<rscale>  0 0.24195820E+03</rscale>
<asrwt>0</asrwt>
<pdfrwt beam="1">  1        4 0.24229189E-01 0.24195820E+03</pdfrwt>
<pdfrwt beam="2">  1       -4 0.11907824E+00 0.24195820E+03</pdfrwt>
<totfact> 0.16192260E+01</totfact>
</mgrwt>
</event>
<event>
 4    1  0.8478300E-009  0.5503344E+03  0.7818608E-02  0.1001417E+00
          4   -1    0    0  501    0  0.00000000000E+00  0.00000000000E+00  0.14716989681E+04  0.14716995161E+04  0.12700000000E+01 0. -1.
         -4   -1    0    0    0  501 -0.00000000000E+00 -0.00000000000E+00 -0.36993252122E+03  0.36993470121E+03  0.12700000000E+01 0.  1.
    8880022    1    1    2    0    0 -0.52054371013E+03 -0.92252449933E+02 -0.62479876762E+02  0.55386971094E+03  0.15294330000E+03 0.  0.
    8880022    1    1    2    0    0  0.52054371013E+03  0.92252449933E+02  0.11642463237E+04  0.12877645064E+04  0.15294330000E+03 0.  0.
<mgrwt>
<rscale>  0 0.55033437E+03</rscale>
<asrwt>0</asrwt>
<pdfrwt beam="1">  1        4 0.22641543E+00 0.55033437E+03</pdfrwt>
<pdfrwt beam="2">  1       -4 0.56912906E-01 0.55033437E+03</pdfrwt>
<totfact> 0.52044726E-01</totfact>
</mgrwt>
</event>
<event>
 4    1  0.8478300E-009  0.1820078E+03  0.7818608E-02  0.1165874E+00
         -4   -1    0    0    0  501 -0.00000000000E+00  0.00000000000E+00  0.75248689645E+02  0.75259406012E+02  0.12700000000E+01 0.  1.
          4   -1    0    0  501    0  0.00000000000E+00 -0.00000000000E+00 -0.46086910995E+03  0.46087085980E+03  0.12700000000E+01 0.  1.
    8880022    1    1    2    0    0 -0.31013321363E+02 -0.93666182443E+02 -0.13602587312E+03  0.22722207421E+03  0.15294330000E+03 0.  1.
    8880022    1    1    2    0    0  0.31013321363E+02  0.93666182443E+02 -0.24959454719E+03  0.30890819160E+03  0.15294330000E+03 0.  1.
<mgrwt>
<rscale>  0 0.18200778E+03</rscale>
<asrwt>0</asrwt>
<pdfrwt beam="1">  1        4 0.70903897E-01 0.18200778E+03</pdfrwt>
<pdfrwt beam="2">  1       -4 0.11577681E-01 0.18200778E+03</pdfrwt>
<totfact> 0.19209783E+02</totfact>
</mgrwt>
</event>
<event>
 4    1  0.8478300E-009  0.3668258E+03  0.7818608E-02  0.1055913E+00
         -4   -1    0    0    0  501 -0.00000000000E+00  0.00000000000E+00  0.48983620883E+03  0.48983785520E+03  0.12700000000E+01 0. -1.
          4   -1    0    0  501    0  0.00000000000E+00 -0.00000000000E+00 -0.28925400279E+03  0.28925679081E+03  0.12700000000E+01 0. -1.
    8880022    1    1    2    0    0 -0.32965299237E+03  0.49984176441E+02  0.12920469860E+02  0.36705327247E+03  0.15294330000E+03 0.  0.
    8880022    1    1    2    0    0  0.32965299237E+03 -0.49984176441E+02  0.18766173618E+03  0.41204137355E+03  0.15294330000E+03 0.  0.
<mgrwt>
<rscale>  0 0.36682580E+03</rscale>
<asrwt>0</asrwt>
<pdfrwt beam="1">  1        4 0.44500957E-01 0.36682580E+03</pdfrwt>
<pdfrwt beam="2">  1       -4 0.75359758E-01 0.36682580E+03</pdfrwt>
<totfact> 0.14870186E+01</totfact>
</mgrwt>
</event>
<event>
 4    1  0.8478300E-009  0.1818717E+03  0.7818608E-02  0.1166004E+00
         -4   -1    0    0    0  501 -0.00000000000E+00  0.00000000000E+00  0.39653062668E+03  0.39653266044E+03  0.12700000000E+01 0.  1.
          4   -1    0    0  501    0  0.00000000000E+00 -0.00000000000E+00 -0.84395630375E+02  0.84405185423E+02  0.12700000000E+01 0.  1.
    8880022    1    1    2    0    0 -0.39262121117E+02  0.90244852345E+02  0.18205692355E+03  0.25733640232E+03  0.15294330000E+03 0.  1.
    8880022    1    1    2    0    0  0.39262121117E+02 -0.90244852345E+02  0.13007807275E+03  0.22360144354E+03  0.15294330000E+03 0.  1.
<mgrwt>
<rscale>  0 0.18187166E+03</rscale>
<asrwt>0</asrwt>
<pdfrwt beam="1">  1        4 0.12984834E-01 0.18187166E+03</pdfrwt>
<pdfrwt beam="2">  1       -4 0.61005604E-01 0.18187166E+03</pdfrwt>
<totfact> 0.21767263E+02</totfact>
</mgrwt>
</event>
<event>
 4    1  0.8478300E-009  0.1828991E+03  0.7818608E-02  0.1165026E+00
         -4   -1    0    0    0  501 -0.00000000000E+00  0.00000000000E+00  0.39218285699E+03  0.39218491330E+03  0.12700000000E+01 0. -1.
          4   -1    0    0  501    0  0.00000000000E+00 -0.00000000000E+00 -0.11509238161E+03  0.11509938838E+03  0.12700000000E+01 0. -1.
    8880022    1    1    2    0    0  0.31611673397E+02  0.95189939550E+02  0.26760868473E+03  0.32413960517E+03  0.15294330000E+03 0.  0.
    8880022    1    1    2    0    0 -0.31611673397E+02 -0.95189939550E+02  0.94817906549E+01  0.18314469650E+03  0.15294330000E+03 0.  0.
<mgrwt>
<rscale>  0 0.18289909E+03</rscale>
<asrwt>0</asrwt>
<pdfrwt beam="1">  1        4 0.17707217E-01 0.18289909E+03</pdfrwt>
<pdfrwt beam="2">  1       -4 0.60336521E-01 0.18289909E+03</pdfrwt>
<totfact> 0.12923293E+02</totfact>
</mgrwt>
</event>
<event>
 4    1  0.8478300E-009  0.1628893E+03  0.7818608E-02  0.1185473E+00
          4   -1    0    0  501    0  0.00000000000E+00  0.00000000000E+00  0.54554100534E+03  0.54554248360E+03  0.12700000000E+01 0. -1.
         -4   -1    0    0    0  501 -0.00000000000E+00 -0.00000000000E+00 -0.48857209933E+02  0.48873713409E+02  0.12700000000E+01 0. -1.
    8880022    1    1    2    0    0  0.21092870570E+02  0.51926359652E+02  0.22790548370E+03  0.28013178779E+03  0.15294330000E+03 0.  1.
    8880022    1    1    2    0    0 -0.21092870570E+02 -0.51926359652E+02  0.26877831171E+03  0.31428440922E+03  0.15294330000E+03 0.  1.
<mgrwt>
<rscale>  0 0.16288925E+03</rscale>
<asrwt>0</asrwt>
<pdfrwt beam="1">  1        4 0.83930769E-01 0.16288925E+03</pdfrwt>
<pdfrwt beam="2">  1       -4 0.75178770E-02 0.16288925E+03</pdfrwt>
<totfact> 0.26915961E+02</totfact>
</mgrwt>
</event>
<event>
 4    1  0.8478300E-009  0.4256177E+03  0.7818608E-02  0.1035253E+00
         -4   -1    0    0    0  501 -0.00000000000E+00  0.00000000000E+00  0.26965271365E+03  0.26965570433E+03  0.12700000000E+01 0.  1.
          4   -1    0    0  501    0  0.00000000000E+00 -0.00000000000E+00 -0.71308630512E+03  0.71308743605E+03  0.12700000000E+01 0.  1.
    8880022    1    1    2    0    0 -0.22032475681E+03 -0.33047814048E+03 -0.10346087858E+03  0.43801210738E+03  0.15294330000E+03 0.  0.
    8880022    1    1    2    0    0  0.22032475681E+03  0.33047814048E+03 -0.33997271289E+03  0.54473103301E+03  0.15294330000E+03 0.  0.
<mgrwt>
<rscale>  0 0.42561773E+03</rscale>
<asrwt>0</asrwt>
<pdfrwt beam="1">  1        4 0.10970590E+00 0.42561773E+03</pdfrwt>
<pdfrwt beam="2">  1       -4 0.41485350E-01 0.42561773E+03</pdfrwt>
<totfact> 0.72347198E+00</totfact>
</mgrwt>
</event>
<event>
 4    1  0.8478300E-009  0.2042524E+03  0.7818608E-02  0.1146200E+00
          4   -1    0    0  501    0  0.00000000000E+00  0.00000000000E+00  0.12638390122E+04  0.12638396503E+04  0.12700000000E+01 0.  1.
         -4   -1    0    0    0  501 -0.00000000000E+00 -0.00000000000E+00 -0.34065899372E+02  0.34089564386E+02  0.12700000000E+01 0.  1.
    8880022    1    1    2    0    0  0.11141158547E+03  0.76907969479E+02  0.49996759965E+03  0.54008020781E+03  0.15294330000E+03 0.  0.
    8880022    1    1    2    0    0 -0.11141158547E+03 -0.76907969479E+02  0.72980551315E+03  0.75784900685E+03  0.15294330000E+03 0.  0.
<mgrwt>
<rscale>  0 0.20425237E+03</rscale>
<asrwt>0</asrwt>
<pdfrwt beam="1">  1        4 0.19443867E+00 0.20425237E+03</pdfrwt>
<pdfrwt beam="2">  1       -4 0.52427762E-02 0.20425237E+03</pdfrwt>
<totfact> 0.62070235E+01</totfact>
</mgrwt>
</event>
<event>
 4    1  0.8478300E-009  0.1952318E+03  0.7818608E-02  0.1153825E+00
          4   -1    0    0  501    0  0.00000000000E+00  0.00000000000E+00  0.85227077983E+03  0.85227172607E+03  0.12700000000E+01 0.  1.
         -4   -1    0    0    0  501 -0.00000000000E+00 -0.00000000000E+00 -0.62429072656E+02  0.62441989179E+02  0.12700000000E+01 0.  1.
    8880022    1    1    2    0    0  0.99723117616E+02 -0.69131165687E+02  0.63853210673E+03  0.66771155643E+03  0.15294330000E+03 0.  0.
    8880022    1    1    2    0    0 -0.99723117616E+02  0.69131165687E+02  0.15130960045E+03  0.24700215881E+03  0.15294330000E+03 0.  0.
<mgrwt>
<rscale>  0 0.19523184E+03</rscale>
<asrwt>0</asrwt>
<pdfrwt beam="1">  1        4 0.13111964E+00 0.19523184E+03</pdfrwt>
<pdfrwt beam="2">  1       -4 0.96055395E-02 0.19523184E+03</pdfrwt>
<totfact> 0.64207683E+01</totfact>
</mgrwt>
</event>
<event>
 4    1  0.8478300E-009  0.2188566E+03  0.7818608E-02  0.1134738E+00
         -4   -1    0    0    0  501 -0.00000000000E+00  0.00000000000E+00  0.63687799712E+03  0.63687926337E+03  0.12700000000E+01 0. -1.
          4   -1    0    0  501    0  0.00000000000E+00 -0.00000000000E+00 -0.14379932615E+03  0.14380493421E+03  0.12700000000E+01 0. -1.
    8880022    1    1    2    0    0 -0.13695018615E+03  0.75836713355E+02  0.51613262250E+03  0.56061671185E+03  0.15294330000E+03 0.  0.
    8880022    1    1    2    0    0  0.13695018615E+03 -0.75836713355E+02 -0.23053951536E+02  0.22006748573E+03  0.15294330000E+03 0.  0.
<mgrwt>
<rscale>  0 0.21885661E+03</rscale>
<asrwt>0</asrwt>
<pdfrwt beam="1">  1        4 0.22123502E-01 0.21885661E+03</pdfrwt>
<pdfrwt beam="2">  1       -4 0.97981761E-01 0.21885661E+03</pdfrwt>
<totfact> 0.30169537E+01</totfact>
</mgrwt>
</event>
<event>
 4    1  0.8478300E-009  0.2478290E+03  0.7818608E-02  0.1114685E+00
          4   -1    0    0  501    0  0.00000000000E+00  0.00000000000E+00  0.73489985849E+03  0.73490095585E+03  0.12700000000E+01 0. -1.
         -4   -1    0    0    0  501 -0.00000000000E+00 -0.00000000000E+00 -0.13750935086E+03  0.13751521543E+03  0.12700000000E+01 0. -1.
    8880022    1    1    2    0    0  0.16334694331E+03 -0.10651445946E+03  0.25501540310E+02  0.24913758355E+03  0.15294330000E+03 0.  0.
    8880022    1    1    2    0    0 -0.16334694331E+03  0.10651445946E+03  0.57188896732E+03  0.62327858773E+03  0.15294330000E+03 0.  0.
<mgrwt>
<rscale>  0 0.24782899E+03</rscale>
<asrwt>0</asrwt>
<pdfrwt beam="1">  1        4 0.11306205E+00 0.24782899E+03</pdfrwt>
<pdfrwt beam="2">  1       -4 0.21155820E-01 0.24782899E+03</pdfrwt>
<totfact> 0.23621303E+01</totfact>
</mgrwt>
</event>
<event>
 4    1  0.8478300E-009  0.1712126E+03  0.7818608E-02  0.1176589E+00
          4   -1    0    0  501    0  0.00000000000E+00  0.00000000000E+00  0.88243870746E+03  0.88243962135E+03  0.12700000000E+01 0. -1.
         -4   -1    0    0    0  501 -0.00000000000E+00 -0.00000000000E+00 -0.33214197559E+02  0.33238468970E+02  0.12700000000E+01 0. -1.
    8880022    1    1    2    0    0  0.72610403728E+02  0.25491798375E+02  0.41740364861E+03  0.45115358959E+03  0.15294330000E+03 0.  0.
    8880022    1    1    2    0    0 -0.72610403728E+02 -0.25491798375E+02  0.43182086130E+03  0.46452450073E+03  0.15294330000E+03 0.  0.
<mgrwt>
<rscale>  0 0.17121260E+03</rscale>
<asrwt>0</asrwt>
<pdfrwt beam="1">  1        4 0.13576172E+00 0.17121260E+03</pdfrwt>
<pdfrwt beam="2">  1       -4 0.51118146E-02 0.17121260E+03</pdfrwt>
<totfact> 0.16407611E+02</totfact>
</mgrwt>
</event>
<event>
 4    1  0.8478300E-009  0.3401185E+03  0.7818608E-02  0.1066745E+00
         -4   -1    0    0    0  501 -0.00000000000E+00  0.00000000000E+00  0.43468060555E+03  0.43468246082E+03  0.12700000000E+01 0. -1.
          4   -1    0    0  501    0  0.00000000000E+00 -0.00000000000E+00 -0.58345025508E+03  0.58345163729E+03  0.12700000000E+01 0. -1.
    8880022    1    1    2    0    0  0.15106876813E+03  0.26356625670E+03  0.30104143752E+03  0.45420980228E+03  0.15294330000E+03 0.  0.
    8880022    1    1    2    0    0 -0.15106876813E+03 -0.26356625670E+03 -0.44981108705E+03  0.56392429582E+03  0.15294330000E+03 0.  0.
<mgrwt>
<rscale>  0 0.34011850E+03</rscale>
<asrwt>0</asrwt>
<pdfrwt beam="1">  1        4 0.89761827E-01 0.34011850E+03</pdfrwt>
<pdfrwt beam="2">  1       -4 0.66874188E-01 0.34011850E+03</pdfrwt>
<totfact> 0.42225095E+00</totfact>
</mgrwt>
</event>
<event>
 4    1  0.8478300E-009  0.3302278E+03  0.7818608E-02  0.1071036E+00
         -4   -1    0    0    0  501 -0.00000000000E+00  0.00000000000E+00  0.58790707889E+03  0.58790845062E+03  0.12700000000E+01 0. -1.
          4   -1    0    0  501    0  0.00000000000E+00 -0.00000000000E+00 -0.26901257633E+03  0.26901557413E+03  0.12700000000E+01 0. -1.
    8880022    1    1    2    0    0  0.28910946838E+03 -0.45546051172E+02 -0.79298640785E+02  0.33961545155E+03  0.15294330000E+03 0.  0.
    8880022    1    1    2    0    0 -0.28910946838E+03  0.45546051172E+02  0.39819314334E+03  0.51730857320E+03  0.15294330000E+03 0.  0.
<mgrwt>
<rscale>  0 0.33022777E+03</rscale>
<asrwt>0</asrwt>
<pdfrwt beam="1">  1        4 0.41386886E-01 0.33022777E+03</pdfrwt>
<pdfrwt beam="2">  1       -4 0.90447579E-01 0.33022777E+03</pdfrwt>
<totfact> 0.11304139E+01</totfact>
</mgrwt>
</event>
<event>
 4    1  0.8478300E-009  0.1997196E+03  0.7818608E-02  0.1149976E+00
         -4   -1    0    0    0  501 -0.00000000000E+00  0.00000000000E+00  0.87576081954E+02  0.87585290034E+02  0.12700000000E+01 0.  1.
          4   -1    0    0  501    0  0.00000000000E+00 -0.00000000000E+00 -0.52609718640E+03  0.52609871929E+03  0.12700000000E+01 0.  1.
    8880022    1    1    2    0    0 -0.69393153195E+02 -0.10807806918E+03 -0.10680521654E+03  0.22648462651E+03  0.15294330000E+03 0.  0.
    8880022    1    1    2    0    0  0.69393153195E+02  0.10807806918E+03 -0.33171588791E+03  0.38719938282E+03  0.15294330000E+03 0.  0.
<mgrwt>
<rscale>  0 0.19971963E+03</rscale>
<asrwt>0</asrwt>
<pdfrwt beam="1">  1        4 0.80938853E-01 0.19971963E+03</pdfrwt>
<pdfrwt beam="2">  1       -4 0.13474070E-01 0.19971963E+03</pdfrwt>
<totfact> 0.11188331E+02</totfact>
</mgrwt>
</event>
<event>
 4    1  0.8478300E-009  0.1791258E+03  0.7818608E-02  0.1168652E+00
          4   -1    0    0  501    0  0.00000000000E+00  0.00000000000E+00  0.37354131642E+02  0.37375714718E+02  0.12700000000E+01 0.  1.
         -4   -1    0    0    0  501 -0.00000000000E+00 -0.00000000000E+00 -0.89586820252E+03  0.89586910270E+03  0.12700000000E+01 0.  1.
    8880022    1    1    2    0    0 -0.17899447661E+02  0.91509631595E+02 -0.52430179437E+03  0.55405633964E+03  0.15294330000E+03 0.  1.
    8880022    1    1    2    0    0  0.17899447661E+02 -0.91509631595E+02 -0.33421227650E+03  0.37918847778E+03  0.15294330000E+03 0.  1.
<mgrwt>
<rscale>  0 0.17912581E+03</rscale>
<asrwt>0</asrwt>
<pdfrwt beam="1">  1        4 0.57485197E-02 0.17912581E+03</pdfrwt>
<pdfrwt beam="2">  1       -4 0.13782759E+00 0.17912581E+03</pdfrwt>
<totfact> 0.13143869E+02</totfact>
</mgrwt>
</event>
<event>
 4    1  0.8478300E-009  0.1570779E+03  0.7818608E-02  0.1192036E+00
          4   -1    0    0  501    0  0.00000000000E+00  0.00000000000E+00  0.10274824460E+03  0.10275609310E+03  0.12700000000E+01 0.  1.
         -4   -1    0    0    0  501 -0.00000000000E+00 -0.00000000000E+00 -0.29139439914E+03  0.29139716668E+03  0.12700000000E+01 0.  1.
    8880022    1    1    2    0    0  0.33957531892E+02  0.11345266848E+02 -0.17699366341E+03  0.23664369620E+03  0.15294330000E+03 0.  1.
    8880022    1    1    2    0    0 -0.33957531892E+02 -0.11345266848E+02 -0.11652491130E+02  0.15750956357E+03  0.15294330000E+03 0.  1.
<mgrwt>
<rscale>  0 0.15707795E+03</rscale>
<asrwt>0</asrwt>
<pdfrwt beam="1">  1        4 0.15808239E-01 0.15707795E+03</pdfrwt>
<pdfrwt beam="2">  1       -4 0.44830724E-01 0.15707795E+03</pdfrwt>
<totfact> 0.28448687E+02</totfact>
</mgrwt>
</event>
<event>
 4    1  0.8478300E-009  0.2092001E+03  0.7818608E-02  0.1142201E+00
          4   -1    0    0  501    0  0.00000000000E+00  0.00000000000E+00  0.62983905008E+03  0.62984033048E+03  0.12700000000E+01 0. -1.
         -4   -1    0    0    0  501 -0.00000000000E+00 -0.00000000000E+00 -0.14320098289E+03  0.14320661438E+03  0.12700000000E+01 0. -1.
    8880022    1    1    2    0    0 -0.50189563928E+02  0.13361901160E+03 -0.34005488411E+02  0.21194588660E+03  0.15294330000E+03 0.  0.
    8880022    1    1    2    0    0  0.50189563928E+02 -0.13361901160E+03  0.52064355559E+03  0.56110105826E+03  0.15294330000E+03 0.  0.
<mgrwt>
<rscale>  0 0.20920011E+03</rscale>
<asrwt>0</asrwt>
<pdfrwt beam="1">  1        4 0.96898846E-01 0.20920011E+03</pdfrwt>
<pdfrwt beam="2">  1       -4 0.22031452E-01 0.20920011E+03</pdfrwt>
<totfact> 0.31045592E+01</totfact>
</mgrwt>
</event>
<event>
 4    1  0.8478300E-009  0.2516588E+03  0.7818608E-02  0.1112261E+00
          4   -1    0    0  501    0  0.00000000000E+00  0.00000000000E+00  0.10192531310E+04  0.10192539222E+04  0.12700000000E+01 0. -1.
         -4   -1    0    0    0  501 -0.00000000000E+00 -0.00000000000E+00 -0.63373267401E+02  0.63385991521E+02  0.12700000000E+01 0. -1.
    8880022    1    1    2    0    0 -0.15261313960E+03  0.12903373441E+03  0.55379697103E+03  0.60829533380E+03  0.15294330000E+03 0.  0.
    8880022    1    1    2    0    0  0.15261313960E+03 -0.12903373441E+03  0.40208289254E+03  0.47434457990E+03  0.15294330000E+03 0.  0.
<mgrwt>
<rscale>  0 0.25165875E+03</rscale>
<asrwt>0</asrwt>
<pdfrwt beam="1">  1        4 0.15680922E+00 0.25165875E+03</pdfrwt>
<pdfrwt beam="2">  1       -4 0.97507728E-02 0.25165875E+03</pdfrwt>
<totfact> 0.40760956E+01</totfact>
</mgrwt>
</event>
<event>
 4    1  0.8478300E-009  0.1546409E+03  0.7818608E-02  0.1194883E+00
          4   -1    0    0  501    0  0.00000000000E+00  0.00000000000E+00  0.11866035698E+04  0.11866042494E+04  0.12700000000E+01 0. -1.
         -4   -1    0    0    0  501 -0.00000000000E+00 -0.00000000000E+00 -0.27841245231E+02  0.27870196197E+02  0.12700000000E+01 0. -1.
    8880022    1    1    2    0    0 -0.35956247205E+01  0.22566287339E+02  0.89870592790E+03  0.91191346284E+03  0.15294330000E+03 0.  0.
    8880022    1    1    2    0    0  0.35956247205E+01 -0.22566287339E+02  0.26005639664E+03  0.30256098276E+03  0.15294330000E+03 0.  0.
<mgrwt>
<rscale>  0 0.15464094E+03</rscale>
<asrwt>0</asrwt>
<pdfrwt beam="1">  1        4 0.18255664E+00 0.15464094E+03</pdfrwt>
<pdfrwt beam="2">  1       -4 0.42855486E-02 0.15464094E+03</pdfrwt>
<totfact> 0.99101119E+01</totfact>
</mgrwt>
</event>
<event>
 4    1  0.8478300E-009  0.5183800E+03  0.7818608E-02  0.1009090E+00
          4   -1    0    0  501    0  0.00000000000E+00  0.00000000000E+00  0.43145655439E+03  0.43145842352E+03  0.12700000000E+01 0. -1.
         -4   -1    0    0    0  501 -0.00000000000E+00 -0.00000000000E+00 -0.62282155133E+03  0.62282284616E+03  0.12700000000E+01 0. -1.
    8880022    1    1    2    0    0 -0.27746523548E+03  0.41029155963E+03 -0.93565366562E+02  0.52675634940E+03  0.15294330000E+03 0.  0.
    8880022    1    1    2    0    0  0.27746523548E+03 -0.41029155963E+03 -0.97799630379E+02  0.52752492028E+03  0.15294330000E+03 0.  0.
<mgrwt>
<rscale>  0 0.51837995E+03</rscale>
<asrwt>0</asrwt>
<pdfrwt beam="1">  1        4 0.66378175E-01 0.51837995E+03</pdfrwt>
<pdfrwt beam="2">  1       -4 0.95818944E-01 0.51837995E+03</pdfrwt>
<totfact> 0.37494019E+00</totfact>
</mgrwt>
</event>
<event>
 4    1  0.8478300E-009  0.2551778E+03  0.7818608E-02  0.1110076E+00
         -4   -1    0    0    0  501 -0.00000000000E+00  0.00000000000E+00  0.10858280742E+04  0.10858288169E+04  0.12700000000E+01 0. -1.
          4   -1    0    0  501    0  0.00000000000E+00 -0.00000000000E+00 -0.60055456424E+02  0.60068883345E+02  0.12700000000E+01 0. -1.
    8880022    1    1    2    0    0  0.12771986939E+03  0.15941038656E+03  0.53558144177E+03  0.59326483982E+03  0.15294330000E+03 0.  0.
    8880022    1    1    2    0    0 -0.12771986939E+03 -0.15941038656E+03  0.49019117600E+03  0.55263286042E+03  0.15294330000E+03 0.  0.
<mgrwt>
<rscale>  0 0.25517776E+03</rscale>
<asrwt>0</asrwt>
<pdfrwt beam="1">  1        4 0.92403917E-02 0.25517776E+03</pdfrwt>
<pdfrwt beam="2">  1       -4 0.16705155E+00 0.25517776E+03</pdfrwt>
<totfact> 0.37773184E+01</totfact>
</mgrwt>
</event>
<event>
 4    1  0.8478300E-009  0.2153120E+03  0.7818608E-02  0.1137427E+00
         -4   -1    0    0    0  501 -0.00000000000E+00  0.00000000000E+00  0.11213084298E+03  0.11213803479E+03  0.12700000000E+01 0. -1.
          4   -1    0    0  501    0  0.00000000000E+00 -0.00000000000E+00 -0.51847427616E+03  0.51847583158E+03  0.12700000000E+01 0. -1.
    8880022    1    1    2    0    0  0.13951796156E+03  0.59180615993E+02 -0.34510299517E+03  0.40676201543E+03  0.15294330000E+03 0.  0.
    8880022    1    1    2    0    0 -0.13951796156E+03 -0.59180615993E+02 -0.61240438011E+02  0.22385185094E+03  0.15294330000E+03 0.  0.
<mgrwt>
<rscale>  0 0.21531201E+03</rscale>
<asrwt>0</asrwt>
<pdfrwt beam="1">  1        4 0.79765945E-01 0.21531201E+03</pdfrwt>
<pdfrwt beam="2">  1       -4 0.17251572E-01 0.21531201E+03</pdfrwt>
<totfact> 0.75476647E+01</totfact>
</mgrwt>
</event>
<event>
 4    1  0.8478300E-009  0.1694677E+03  0.7818608E-02  0.1178404E+00
          4   -1    0    0  501    0  0.00000000000E+00  0.00000000000E+00  0.78795275962E+03  0.78795378310E+03  0.12700000000E+01 0.  1.
         -4   -1    0    0    0  501 -0.00000000000E+00 -0.00000000000E+00 -0.39306075177E+02  0.39326587009E+02  0.12700000000E+01 0.  1.
    8880022    1    1    2    0    0  0.21317928249E+02  0.69808149245E+02  0.26257884362E+03  0.31251709377E+03  0.15294330000E+03 0. -1.
    8880022    1    1    2    0    0 -0.21317928249E+02 -0.69808149245E+02  0.48606784083E+03  0.51476327634E+03  0.15294330000E+03 0. -1.
<mgrwt>
<rscale>  0 0.16946765E+03</rscale>
<asrwt>0</asrwt>
<pdfrwt beam="1">  1        4 0.12122515E+00 0.16946765E+03</pdfrwt>
<pdfrwt beam="2">  1       -4 0.60487453E-02 0.16946765E+03</pdfrwt>
<totfact> 0.16459456E+02</totfact>
</mgrwt>
</event>
<event>
 4    1  0.8478300E-009  0.3108847E+03  0.7818608E-02  0.1079923E+00
          4   -1    0    0  501    0  0.00000000000E+00  0.00000000000E+00  0.10823714651E+04  0.10823722102E+04  0.12700000000E+01 0. -1.
         -4   -1    0    0    0  501 -0.00000000000E+00 -0.00000000000E+00 -0.10205744384E+03  0.10206534546E+03  0.12700000000E+01 0. -1.
    8880022    1    1    2    0    0 -0.12402857970E+03 -0.24057127380E+03  0.69962330388E+03  0.76558608054E+03  0.15294330000E+03 0.  0.
    8880022    1    1    2    0    0  0.12402857970E+03  0.24057127380E+03  0.28069071739E+03  0.41885147511E+03  0.15294330000E+03 0.  0.
<mgrwt>
<rscale>  0 0.31088467E+03</rscale>
<asrwt>0</asrwt>
<pdfrwt beam="1">  1        4 0.16651935E+00 0.31088467E+03</pdfrwt>
<pdfrwt beam="2">  1       -4 0.15701810E-01 0.31088467E+03</pdfrwt>
<totfact> 0.15409300E+01</totfact>
</mgrwt>
</event>
<event>
 4    1  0.8478300E-009  0.3321226E+03  0.7818608E-02  0.1070202E+00
          4   -1    0    0  501    0  0.00000000000E+00  0.00000000000E+00  0.55009926907E+03  0.55010073508E+03  0.12700000000E+01 0. -1.
         -4   -1    0    0    0  501 -0.00000000000E+00 -0.00000000000E+00 -0.23403589880E+03  0.23403934461E+03  0.12700000000E+01 0. -1.
    8880022    1    1    2    0    0 -0.22099484264E+03 -0.19512822503E+03  0.30641096665E+03  0.45187728221E+03  0.15294330000E+03 0.  0.
    8880022    1    1    2    0    0  0.22099484264E+03  0.19512822503E+03  0.96524036163E+01  0.33226279748E+03  0.15294330000E+03 0.  0.
<mgrwt>
<rscale>  0 0.33212256E+03</rscale>
<asrwt>0</asrwt>
<pdfrwt beam="1">  1        4 0.84631034E-01 0.33212256E+03</pdfrwt>
<pdfrwt beam="2">  1       -4 0.36005901E-01 0.33212256E+03</pdfrwt>
<totfact> 0.17379405E+01</totfact>
</mgrwt>
</event>
<event>
 4    1  0.8478300E-009  0.2147545E+03  0.7818608E-02  0.1137855E+00
          4   -1    0    0  501    0  0.00000000000E+00  0.00000000000E+00  0.18491124054E+03  0.18491560177E+03  0.12700000000E+01 0.  1.
         -4   -1    0    0    0  501 -0.00000000000E+00 -0.00000000000E+00 -0.25411299796E+03  0.25411617153E+03  0.12700000000E+01 0.  1.
    8880022    1    1    2    0    0 -0.77925146716E+02  0.12905630764E+03 -0.64478465636E+02  0.22422529870E+03  0.15294330000E+03 0.  0.
    8880022    1    1    2    0    0  0.77925146716E+02 -0.12905630764E+03 -0.47232917836E+01  0.21480647460E+03  0.15294330000E+03 0.  0.
<mgrwt>
<rscale>  0 0.21475454E+03</rscale>
<asrwt>0</asrwt>
<pdfrwt beam="1">  1        4 0.28448463E-01 0.21475454E+03</pdfrwt>
<pdfrwt beam="2">  1       -4 0.39094887E-01 0.21475454E+03</pdfrwt>
<totfact> 0.13431325E+02</totfact>
</mgrwt>
</event>
<event>
 4    1  0.8478300E-009  0.3937321E+03  0.7818608E-02  0.1045972E+00
         -4   -1    0    0    0  501 -0.00000000000E+00  0.00000000000E+00  0.60063373961E+03  0.60063508227E+03  0.12700000000E+01 0.  1.
          4   -1    0    0  501    0  0.00000000000E+00 -0.00000000000E+00 -0.27151589494E+03  0.27151886510E+03  0.12700000000E+01 0.  1.
    8880022    1    1    2    0    0  0.33951832710E+03 -0.12790860775E+03  0.26149513259E+03  0.47265702550E+03  0.15294330000E+03 0.  0.
    8880022    1    1    2    0    0 -0.33951832710E+03  0.12790860775E+03  0.67622712084E+02  0.39949692187E+03  0.15294330000E+03 0.  0.
<mgrwt>
<rscale>  0 0.39373209E+03</rscale>
<asrwt>0</asrwt>
<pdfrwt beam="1">  1        4 0.41772008E-01 0.39373209E+03</pdfrwt>
<pdfrwt beam="2">  1       -4 0.92405522E-01 0.39373209E+03</pdfrwt>
<totfact> 0.10677448E+01</totfact>
</mgrwt>
</event>
<event>
 4    1  0.8478300E-009  0.2684462E+03  0.7818608E-02  0.1102172E+00
          4   -1    0    0  501    0  0.00000000000E+00  0.00000000000E+00  0.65453301752E+02  0.65465621591E+02  0.12700000000E+01 0. -1.
         -4   -1    0    0    0  501 -0.00000000000E+00 -0.00000000000E+00 -0.12108134754E+04  0.12108141414E+04  0.12700000000E+01 0. -1.
    8880022    1    1    2    0    0 -0.95007236099E+02  0.19911129969E+03 -0.38039077437E+03  0.46557542763E+03  0.15294330000E+03 0.  0.
    8880022    1    1    2    0    0  0.95007236099E+02 -0.19911129969E+03 -0.76496939924E+03  0.81070433535E+03  0.15294330000E+03 0.  0.
<mgrwt>
<rscale>  0 0.26844615E+03</rscale>
<asrwt>0</asrwt>
<pdfrwt beam="1">  1        4 0.10070739E-01 0.26844615E+03</pdfrwt>
<pdfrwt beam="2">  1       -4 0.18627998E+00 0.26844615E+03</pdfrwt>
<totfact> 0.24257191E+01</totfact>
</mgrwt>
</event>
<event>
 4    1  0.8478300E-009  0.6442908E+03  0.7818608E-02  0.9817551E-01
          4   -1    0    0  501    0  0.00000000000E+00  0.00000000000E+00  0.26121690362E+04  0.26121693449E+04  0.12700000000E+01 0.  1.
         -4   -1    0    0    0  501 -0.00000000000E+00 -0.00000000000E+00 -0.19873435478E+03  0.19873841267E+03  0.12700000000E+01 0.  1.
    8880022    1    1    2    0    0  0.40395274134E+03  0.47805978042E+03  0.57758485791E+03  0.86528312823E+03  0.15294330000E+03 0.  0.
    8880022    1    1    2    0    0 -0.40395274134E+03 -0.47805978042E+03  0.18358498235E+04  0.19456246294E+04  0.15294330000E+03 0.  0.
<mgrwt>
<rscale>  0 0.64429079E+03</rscale>
<asrwt>0</asrwt>
<pdfrwt beam="1">  1        4 0.40187249E+00 0.64429079E+03</pdfrwt>
<pdfrwt beam="2">  1       -4 0.30574852E-01 0.64429079E+03</pdfrwt>
<totfact> 0.14464321E-01</totfact>
</mgrwt>
</event>
<event>
 4    1  0.8478300E-009  0.2003882E+03  0.7818608E-02  0.1149412E+00
          4   -1    0    0  501    0  0.00000000000E+00  0.00000000000E+00  0.49693759047E+03  0.49693921331E+03  0.12700000000E+01 0. -1.
         -4   -1    0    0    0  501 -0.00000000000E+00 -0.00000000000E+00 -0.81067207669E+02  0.81077154978E+02  0.12700000000E+01 0. -1.
    8880022    1    1    2    0    0  0.82294180259E+02 -0.99957181796E+02  0.22455683540E+03  0.30096710059E+03  0.15294330000E+03 0.  0.
    8880022    1    1    2    0    0 -0.82294180259E+02  0.99957181796E+02  0.19131354740E+03  0.27704926769E+03  0.15294330000E+03 0.  0.
<mgrwt>
<rscale>  0 0.20038818E+03</rscale>
<asrwt>0</asrwt>
<pdfrwt beam="1">  1        4 0.76452826E-01 0.20038818E+03</pdfrwt>
<pdfrwt beam="2">  1       -4 0.12472768E-01 0.20038818E+03</pdfrwt>
<totfact> 0.14528611E+02</totfact>
</mgrwt>
</event>
<event>
 4    1  0.8478300E-009  0.3605665E+03  0.7818608E-02  0.1058360E+00
         -4   -1    0    0    0  501 -0.00000000000E+00  0.00000000000E+00  0.42090765471E+03  0.42090957069E+03  0.12700000000E+01 0. -1.
          4   -1    0    0  501    0  0.00000000000E+00 -0.00000000000E+00 -0.30970629060E+03  0.30970889451E+03  0.12700000000E+01 0. -1.
    8880022    1    1    2    0    0  0.15728172569E+03 -0.28614508098E+03  0.74561866608E+02  0.36819515691E+03  0.15294330000E+03 0.  0.
    8880022    1    1    2    0    0 -0.15728172569E+03  0.28614508098E+03  0.36639497500E+02  0.36242330829E+03  0.15294330000E+03 0.  0.
<mgrwt>
<rscale>  0 0.36056650E+03</rscale>
<asrwt>0</asrwt>
<pdfrwt beam="1">  1        4 0.47647469E-01 0.36056650E+03</pdfrwt>
<pdfrwt beam="2">  1       -4 0.64755372E-01 0.36056650E+03</pdfrwt>
<totfact> 0.18026081E+01</totfact>
</mgrwt>
</event>
<event>
 4    1  0.8478300E-009  0.2174500E+03  0.7818608E-02  0.1135799E+00
         -4   -1    0    0    0  501 -0.00000000000E+00  0.00000000000E+00  0.11547553017E+03  0.11548251368E+03  0.12700000000E+01 0.  1.
          4   -1    0    0  501    0  0.00000000000E+00 -0.00000000000E+00 -0.44446531939E+03  0.44446713381E+03  0.12700000000E+01 0.  1.
    8880022    1    1    2    0    0  0.65133251673E+02 -0.14018027247E+03 -0.24307042821E+03  0.32614066804E+03  0.15294330000E+03 0.  0.
    8880022    1    1    2    0    0 -0.65133251673E+02  0.14018027247E+03 -0.85919361018E+02  0.23380897946E+03  0.15294330000E+03 0.  0.
<mgrwt>
<rscale>  0 0.21745000E+03</rscale>
<asrwt>0</asrwt>
<pdfrwt beam="1">  1        4 0.68379956E-01 0.21745000E+03</pdfrwt>
<pdfrwt beam="2">  1       -4 0.17766143E-01 0.21745000E+03</pdfrwt>
<totfact> 0.10062558E+02</totfact>
</mgrwt>
</event>
<event>
 4    1  0.8478300E-009  0.1681405E+03  0.7818608E-02  0.1179801E+00
          4   -1    0    0  501    0  0.00000000000E+00  0.00000000000E+00  0.92319760417E+02  0.92328495403E+02  0.12700000000E+01 0. -1.
         -4   -1    0    0    0  501 -0.00000000000E+00 -0.00000000000E+00 -0.30625934402E+03  0.30626197724E+03  0.12700000000E+01 0. -1.
    8880022    1    1    2    0    0  0.67464890420E+02  0.18112256188E+02 -0.10957628643E+03  0.20069424712E+03  0.15294330000E+03 0.  1.
    8880022    1    1    2    0    0 -0.67464890420E+02 -0.18112256188E+02 -0.10436329717E+03  0.19789622552E+03  0.15294330000E+03 0.  1.
<mgrwt>
<rscale>  0 0.16814047E+03</rscale>
<asrwt>0</asrwt>
<pdfrwt beam="1">  1        4 0.14203915E-01 0.16814047E+03</pdfrwt>
<pdfrwt beam="2">  1       -4 0.47117696E-01 0.16814047E+03</pdfrwt>
<totfact> 0.31398967E+02</totfact>
</mgrwt>
</event>
<event>
 4    1  0.8478300E-009  0.1831796E+03  0.7818608E-02  0.1164761E+00
         -4   -1    0    0    0  501 -0.00000000000E+00  0.00000000000E+00  0.59509000413E+03  0.59509135930E+03  0.12700000000E+01 0. -1.
          4   -1    0    0  501    0  0.00000000000E+00 -0.00000000000E+00 -0.56771330204E+02  0.56785533661E+02  0.12700000000E+01 0. -1.
    8880022    1    1    2    0    0  0.88491571908E+02 -0.48294361714E+02  0.29630459710E+03  0.34835494965E+03  0.15294330000E+03 0.  0.
    8880022    1    1    2    0    0 -0.88491571908E+02  0.48294361714E+02  0.24201407683E+03  0.30352194331E+03  0.15294330000E+03 0.  0.
<mgrwt>
<rscale>  0 0.18317957E+03</rscale>
<asrwt>0</asrwt>
<pdfrwt beam="1">  1        4 0.87352476E-02 0.18317957E+03</pdfrwt>
<pdfrwt beam="2">  1       -4 0.91553505E-01 0.18317957E+03</pdfrwt>
<totfact> 0.17542754E+02</totfact>
</mgrwt>
</event>
<event>
 4    1  0.8478300E-009  0.1776417E+03  0.7818608E-02  0.1170105E+00
          4   -1    0    0  501    0  0.00000000000E+00  0.00000000000E+00  0.10931573498E+03  0.10932311198E+03  0.12700000000E+01 0. -1.
         -4   -1    0    0    0  501 -0.00000000000E+00 -0.00000000000E+00 -0.29174754434E+03  0.29175030853E+03  0.12700000000E+01 0. -1.
    8880022    1    1    2    0    0  0.75081043927E+02  0.50276904106E+02 -0.70570469223E+02  0.19114595048E+03  0.15294330000E+03 0.  0.
    8880022    1    1    2    0    0 -0.75081043927E+02 -0.50276904106E+02 -0.11186134014E+03  0.20992747004E+03  0.15294330000E+03 0.  0.
<mgrwt>
<rscale>  0 0.17764173E+03</rscale>
<asrwt>0</asrwt>
<pdfrwt beam="1">  1        4 0.16818586E-01 0.17764173E+03</pdfrwt>
<pdfrwt beam="2">  1       -4 0.44885017E-01 0.17764173E+03</pdfrwt>
<totfact> 0.25958904E+02</totfact>
</mgrwt>
</event>
<event>
 4    1  0.8478300E-009  0.1799437E+03  0.7818608E-02  0.1167858E+00
          4   -1    0    0  501    0  0.00000000000E+00  0.00000000000E+00  0.16484570221E+03  0.16485059429E+03  0.12700000000E+01 0. -1.
         -4   -1    0    0    0  501 -0.00000000000E+00 -0.00000000000E+00 -0.20720026895E+03  0.20720416104E+03  0.12700000000E+01 0. -1.
    8880022    1    1    2    0    0 -0.13847118022E+02 -0.93788830642E+02  0.21264576647E+02  0.18119581305E+03  0.15294330000E+03 0.  0.
    8880022    1    1    2    0    0  0.13847118022E+02  0.93788830642E+02 -0.63619143387E+02  0.19085894229E+03  0.15294330000E+03 0.  0.
<mgrwt>
<rscale>  0 0.17994371E+03</rscale>
<asrwt>0</asrwt>
<pdfrwt beam="1">  1        4 0.25361553E-01 0.17994371E+03</pdfrwt>
<pdfrwt beam="2">  1       -4 0.31877640E-01 0.17994371E+03</pdfrwt>
<totfact> 0.24153070E+02</totfact>
</mgrwt>
</event>
<event>
 4    1  0.8478300E-009  0.2753723E+03  0.7818608E-02  0.1098244E+00
         -4   -1    0    0    0  501 -0.00000000000E+00  0.00000000000E+00  0.62915533706E+03  0.62915661885E+03  0.12700000000E+01 0. -1.
          4   -1    0    0  501    0  0.00000000000E+00 -0.00000000000E+00 -0.13133891971E+03  0.13134505979E+03  0.12700000000E+01 0. -1.
    8880022    1    1    2    0    0 -0.14138113185E+03 -0.18013772517E+03  0.13978478517E+03  0.30881979155E+03  0.15294330000E+03 0.  0.
    8880022    1    1    2    0    0  0.14138113185E+03  0.18013772517E+03  0.35803163218E+03  0.45168188709E+03  0.15294330000E+03 0.  0.
<mgrwt>
<rscale>  0 0.27537225E+03</rscale>
<asrwt>0</asrwt>
<pdfrwt beam="1">  1        4 0.20206558E-01 0.27537225E+03</pdfrwt>
<pdfrwt beam="2">  1       -4 0.96793700E-01 0.27537225E+03</pdfrwt>
<totfact> 0.37508289E+01</totfact>
</mgrwt>
</event>
<event>
 4    1  0.8478300E-009  0.1532377E+03  0.7818608E-02  0.1196550E+00
         -4   -1    0    0    0  501 -0.00000000000E+00  0.00000000000E+00  0.13988164239E+03  0.13988740750E+03  0.12700000000E+01 0.  1.
          4   -1    0    0  501    0  0.00000000000E+00 -0.00000000000E+00 -0.42239238348E+03  0.42239429272E+03  0.12700000000E+01 0.  1.
    8880022    1    1    2    0    0  0.94091618323E+01 -0.12718227567E+01  0.76984913442E+02  0.17148900773E+03  0.15294330000E+03 0.  0.
    8880022    1    1    2    0    0 -0.94091618323E+01  0.12718227567E+01 -0.35949565453E+03  0.39079269249E+03  0.15294330000E+03 0.  0.
<mgrwt>
<rscale>  0 0.15323773E+03</rscale>
<asrwt>0</asrwt>
<pdfrwt beam="1">  1        4 0.64984033E-01 0.15323773E+03</pdfrwt>
<pdfrwt beam="2">  1       -4 0.21520843E-01 0.15323773E+03</pdfrwt>
<totfact> 0.75689274E+01</totfact>
</mgrwt>
</event>
<event>
 4    1  0.8478300E-009  0.2042936E+03  0.7818608E-02  0.1146166E+00
          4   -1    0    0  501    0  0.00000000000E+00  0.00000000000E+00  0.97743982107E+02  0.97752232394E+02  0.12700000000E+01 0. -1.
         -4   -1    0    0    0  501 -0.00000000000E+00 -0.00000000000E+00 -0.46660204958E+03  0.46660377792E+03  0.12700000000E+01 0. -1.
    8880022    1    1    2    0    0 -0.87118003782E+02  0.10370466411E+03 -0.10218596341E+03  0.22842466608E+03  0.15294330000E+03 0.  0.
    8880022    1    1    2    0    0  0.87118003782E+02 -0.10370466411E+03 -0.26667210407E+03  0.33593134424E+03  0.15294330000E+03 0.  0.
<mgrwt>
<rscale>  0 0.20429356E+03</rscale>
<asrwt>0</asrwt>
<pdfrwt beam="1">  1        4 0.15038304E-01 0.20429356E+03</pdfrwt>
<pdfrwt beam="2">  1       -4 0.71785697E-01 0.20429356E+03</pdfrwt>
<totfact> 0.12070803E+02</totfact>
</mgrwt>
</event>
<event>
 4    1  0.8478300E-009  0.4021222E+03  0.7818608E-02  0.1043047E+00
         -4   -1    0    0    0  501 -0.00000000000E+00  0.00000000000E+00  0.19039412654E+03  0.19039836218E+03  0.12700000000E+01 0.  1.
          4   -1    0    0  501    0  0.00000000000E+00 -0.00000000000E+00 -0.84944116431E+03  0.84944211370E+03  0.12700000000E+01 0.  1.
    8880022    1    1    2    0    0  0.20871594046E+03  0.30781203331E+03 -0.32255428733E+03  0.51550316482E+03  0.15294330000E+03 0.  0.
    8880022    1    1    2    0    0 -0.20871594046E+03 -0.30781203331E+03 -0.33649275045E+03  0.52433731106E+03  0.15294330000E+03 0.  0.
<mgrwt>
<rscale>  0 0.40212218E+03</rscale>
<asrwt>0</asrwt>
<pdfrwt beam="1">  1        4 0.13068365E+00 0.40212218E+03</pdfrwt>
<pdfrwt beam="2">  1       -4 0.29291803E-01 0.40212218E+03</pdfrwt>
<totfact> 0.93010565E+00</totfact>
</mgrwt>
</event>
<event>
 4    1  0.8478300E-009  0.2114518E+03  0.7818608E-02  0.1140421E+00
          4   -1    0    0  501    0  0.00000000000E+00  0.00000000000E+00  0.10200067257E+03  0.10200857859E+03  0.12700000000E+01 0.  1.
         -4   -1    0    0    0  501 -0.00000000000E+00 -0.00000000000E+00 -0.90522258891E+03  0.90522347980E+03  0.12700000000E+01 0.  1.
    8880022    1    1    2    0    0  0.10758645275E+03  0.98718687686E+02 -0.39925240507E+02  0.21518806184E+03  0.15294330000E+03 0.  0.
    8880022    1    1    2    0    0 -0.10758645275E+03 -0.98718687686E+02 -0.76329667583E+03  0.79204399655E+03  0.15294330000E+03 0.  0.
<mgrwt>
<rscale>  0 0.21145183E+03</rscale>
<asrwt>0</asrwt>
<pdfrwt beam="1">  1        4 0.15693088E-01 0.21145183E+03</pdfrwt>
<pdfrwt beam="2">  1       -4 0.13926569E+00 0.21145183E+03</pdfrwt>
<totfact> 0.23840715E+01</totfact>
</mgrwt>
</event>
<event>
 4    1  0.8478300E-009  0.3208116E+03  0.7818608E-02  0.1075276E+00
         -4   -1    0    0    0  501 -0.00000000000E+00  0.00000000000E+00  0.12632510682E+03  0.12633149059E+03  0.12700000000E+01 0.  1.
          4   -1    0    0  501    0  0.00000000000E+00 -0.00000000000E+00 -0.10374819438E+04  0.10374827211E+04  0.12700000000E+01 0.  1.
    8880022    1    1    2    0    0  0.22084879744E+03  0.17536881196E+03 -0.18592527844E+03  0.37079411231E+03  0.15294330000E+03 0.  0.
    8880022    1    1    2    0    0 -0.22084879744E+03 -0.17536881196E+03 -0.72523155854E+03  0.79302009940E+03  0.15294330000E+03 0.  0.
<mgrwt>
<rscale>  0 0.32081157E+03</rscale>
<asrwt>0</asrwt>
<pdfrwt beam="1">  1        4 0.15961315E+00 0.32081157E+03</pdfrwt>
<pdfrwt beam="2">  1       -4 0.19435183E-01 0.32081157E+03</pdfrwt>
<totfact> 0.11781753E+01</totfact>
</mgrwt>
</event>
<event>
 4    1  0.8478300E-009  0.1549740E+03  0.7818608E-02  0.1194491E+00
          4   -1    0    0  501    0  0.00000000000E+00  0.00000000000E+00  0.10535289923E+03  0.10536055371E+03  0.12700000000E+01 0. -1.
         -4   -1    0    0    0  501 -0.00000000000E+00 -0.00000000000E+00 -0.22887252241E+03  0.22887604596E+03  0.12700000000E+01 0. -1.
    8880022    1    1    2    0    0  0.36750933376E+00 -0.25002805556E+02 -0.72376665847E+02  0.17104183735E+03  0.15294330000E+03 0.  1.
    8880022    1    1    2    0    0 -0.36750933376E+00  0.25002805556E+02 -0.51142957326E+02  0.16319476232E+03  0.15294330000E+03 0.  1.
<mgrwt>
<rscale>  0 0.15497396E+03</rscale>
<asrwt>0</asrwt>
<pdfrwt beam="1">  1        4 0.16208998E-01 0.15497396E+03</pdfrwt>
<pdfrwt beam="2">  1       -4 0.35212017E-01 0.15497396E+03</pdfrwt>
<totfact> 0.43718077E+02</totfact>
</mgrwt>
</event>
<event>
 4    1  0.8478300E-009  0.1990514E+03  0.7818608E-02  0.1150542E+00
          4   -1    0    0  501    0  0.00000000000E+00  0.00000000000E+00  0.77712470244E+02  0.77722846907E+02  0.12700000000E+01 0.  1.
         -4   -1    0    0    0  501 -0.00000000000E+00 -0.00000000000E+00 -0.51382792941E+03  0.51382949890E+03  0.12700000000E+01 0.  1.
    8880022    1    1    2    0    0 -0.12730549056E+03 -0.48084195276E+01 -0.19187596471E+03  0.27647395478E+03  0.15294330000E+03 0.  0.
    8880022    1    1    2    0    0  0.12730549056E+03  0.48084195276E+01 -0.24423949445E+03  0.31507839102E+03  0.15294330000E+03 0.  0.
<mgrwt>
<rscale>  0 0.19905141E+03</rscale>
<asrwt>0</asrwt>
<pdfrwt beam="1">  1        4 0.11956684E-01 0.19905141E+03</pdfrwt>
<pdfrwt beam="2">  1       -4 0.79051367E-01 0.19905141E+03</pdfrwt>
<totfact> 0.14498137E+02</totfact>
</mgrwt>
</event>
<event>
 4    1  0.8478300E-009  0.1688815E+03  0.7818608E-02  0.1179019E+00
         -4   -1    0    0    0  501 -0.00000000000E+00  0.00000000000E+00  0.12355962390E+04  0.12355968917E+04  0.12700000000E+01 0.  1.
          4   -1    0    0  501    0  0.00000000000E+00 -0.00000000000E+00 -0.11479168945E+03  0.11479871457E+03  0.12700000000E+01 0.  1.
    8880022    1    1    2    0    0  0.22968743171E+02  0.67836086989E+02  0.11639111282E+04  0.11760995133E+04  0.15294330000E+03 0.  0.
    8880022    1    1    2    0    0 -0.22968743171E+02 -0.67836086989E+02 -0.43106578687E+02  0.17429609290E+03  0.15294330000E+03 0.  0.
<mgrwt>
<rscale>  0 0.16888147E+03</rscale>
<asrwt>0</asrwt>
<pdfrwt beam="1">  1        4 0.17660851E-01 0.16888147E+03</pdfrwt>
<pdfrwt beam="2">  1       -4 0.19009232E+00 0.16888147E+03</pdfrwt>
<totfact> 0.82966158E+00</totfact>
</mgrwt>
</event>
<event>
 4    1  0.8478300E-009  0.1579012E+03  0.7818608E-02  0.1191087E+00
         -4   -1    0    0    0  501 -0.00000000000E+00  0.00000000000E+00  0.16637052149E+03  0.16637536874E+03  0.12700000000E+01 0.  1.
          4   -1    0    0  501    0  0.00000000000E+00 -0.00000000000E+00 -0.28472340483E+03  0.28472623721E+03  0.12700000000E+01 0.  1.
    8880022    1    1    2    0    0 -0.38016015876E+02 -0.97943050195E+01 -0.21440932205E+03  0.26627834360E+03  0.15294330000E+03 0.  0.
    8880022    1    1    2    0    0  0.38016015876E+02  0.97943050195E+01  0.96056438712E+02  0.18482326235E+03  0.15294330000E+03 0.  0.
<mgrwt>
<rscale>  0 0.15790123E+03</rscale>
<asrwt>0</asrwt>
<pdfrwt beam="1">  1        4 0.43804191E-01 0.15790123E+03</pdfrwt>
<pdfrwt beam="2">  1       -4 0.25596056E-01 0.15790123E+03</pdfrwt>
<totfact> 0.12488136E+02</totfact>
</mgrwt>
</event>
<event>
 4    1  0.8478300E-009  0.1637679E+03  0.7818608E-02  0.1184507E+00
         -4   -1    0    0    0  501 -0.00000000000E+00  0.00000000000E+00  0.28806300495E+03  0.28806580449E+03  0.12700000000E+01 0. -1.
          4   -1    0    0  501    0  0.00000000000E+00 -0.00000000000E+00 -0.94126878187E+02  0.94135445488E+02  0.12700000000E+01 0. -1.
    8880022    1    1    2    0    0 -0.48438565809E+02 -0.32893561889E+02  0.76978199111E+02  0.18095739063E+03  0.15294330000E+03 0.  0.
    8880022    1    1    2    0    0  0.48438565809E+02  0.32893561889E+02  0.11695792765E+03  0.20124385935E+03  0.15294330000E+03 0.  0.
<mgrwt>
<rscale>  0 0.16376793E+03</rscale>
<asrwt>0</asrwt>
<pdfrwt beam="1">  1        4 0.14481933E-01 0.16376793E+03</pdfrwt>
<pdfrwt beam="2">  1       -4 0.44318259E-01 0.16376793E+03</pdfrwt>
<totfact> 0.34193024E+02</totfact>
</mgrwt>
</event>
<event>
 4    1  0.8478300E-009  0.1571074E+03  0.7818608E-02  0.1192002E+00
         -4   -1    0    0    0  501 -0.00000000000E+00  0.00000000000E+00  0.20620741927E+03  0.20621133010E+03  0.12700000000E+01 0. -1.
          4   -1    0    0  501    0  0.00000000000E+00 -0.00000000000E+00 -0.18496363575E+03  0.18496799574E+03  0.12700000000E+01 0. -1.
    8880022    1    1    2    0    0  0.33122793649E+02 -0.13926821082E+02  0.12680956967E+03  0.20189946949E+03  0.15294330000E+03 0.  0.
    8880022    1    1    2    0    0 -0.33122793649E+02  0.13926821082E+02 -0.10556578614E+03  0.18927985636E+03  0.15294330000E+03 0.  0.
<mgrwt>
<rscale>  0 0.15710738E+03</rscale>
<asrwt>0</asrwt>
<pdfrwt beam="1">  1        4 0.28456580E-01 0.15710738E+03</pdfrwt>
<pdfrwt beam="2">  1       -4 0.31724855E-01 0.15710738E+03</pdfrwt>
<totfact> 0.19227597E+02</totfact>
</mgrwt>
</event>
<event>
 4    1  0.8478300E-009  0.1650540E+03  0.7818608E-02  0.1183106E+00
         -4   -1    0    0    0  501 -0.00000000000E+00  0.00000000000E+00  0.35275942175E+03  0.35276170786E+03  0.12700000000E+01 0.  1.
          4   -1    0    0  501    0  0.00000000000E+00 -0.00000000000E+00 -0.96189957620E+02  0.96198341186E+02  0.12700000000E+01 0.  1.
    8880022    1    1    2    0    0  0.14023783851E+02  0.60452413922E+02  0.22796742847E+03  0.28144619792E+03  0.15294330000E+03 0.  1.
    8880022    1    1    2    0    0 -0.14023783851E+02 -0.60452413922E+02  0.28602035660E+02  0.16751385113E+03  0.15294330000E+03 0.  1.
<mgrwt>
<rscale>  0 0.16505397E+03</rscale>
<asrwt>0</asrwt>
<pdfrwt beam="1">  1        4 0.14799276E-01 0.16505397E+03</pdfrwt>
<pdfrwt beam="2">  1       -4 0.54271501E-01 0.16505397E+03</pdfrwt>
<totfact> 0.21807802E+02</totfact>
</mgrwt>
</event>
<event>
 4    1  0.8478300E-009  0.3453906E+03  0.7818608E-02  0.1064523E+00
         -4   -1    0    0    0  501 -0.00000000000E+00  0.00000000000E+00  0.28670497187E+03  0.28670778468E+03  0.12700000000E+01 0. -1.
          4   -1    0    0  501    0  0.00000000000E+00 -0.00000000000E+00 -0.54905198501E+03  0.54905345381E+03  0.12700000000E+01 0. -1.
    8880022    1    1    2    0    0  0.22172926777E+03 -0.21619236066E+03 -0.33681905921E+03  0.48243314216E+03  0.15294330000E+03 0.  0.
    8880022    1    1    2    0    0 -0.22172926777E+03  0.21619236066E+03  0.74472046074E+02  0.35332809633E+03  0.15294330000E+03 0.  0.
<mgrwt>
<rscale>  0 0.34539059E+03</rscale>
<asrwt>0</asrwt>
<pdfrwt beam="1">  1        4 0.84469865E-01 0.34539059E+03</pdfrwt>
<pdfrwt beam="2">  1       -4 0.44108787E-01 0.34539059E+03</pdfrwt>
<totfact> 0.11658991E+01</totfact>
</mgrwt>
</event>
<event>
 4    1  0.8478300E-009  0.1859588E+03  0.7818608E-02  0.1162158E+00
          4   -1    0    0  501    0  0.00000000000E+00  0.00000000000E+00  0.20604769917E+03  0.20605161303E+03  0.12700000000E+01 0. -1.
         -4   -1    0    0    0  501 -0.00000000000E+00 -0.00000000000E+00 -0.21752966954E+03  0.21753337682E+03  0.12700000000E+01 0. -1.
    8880022    1    1    2    0    0  0.10476540092E+03  0.14602769001E+02  0.95501052770E+02  0.20904816237E+03  0.15294330000E+03 0.  0.
    8880022    1    1    2    0    0 -0.10476540092E+03 -0.14602769001E+02 -0.10698302314E+03  0.21453682749E+03  0.15294330000E+03 0.  0.
<mgrwt>
<rscale>  0 0.18595882E+03</rscale>
<asrwt>0</asrwt>
<pdfrwt beam="1">  1        4 0.31700232E-01 0.18595882E+03</pdfrwt>
<pdfrwt beam="2">  1       -4 0.33466689E-01 0.18595882E+03</pdfrwt>
<totfact> 0.14510114E+02</totfact>
</mgrwt>
</event>
<event>
 4    1  0.8478300E-009  0.1950951E+03  0.7818608E-02  0.1153944E+00
          4   -1    0    0  501    0  0.00000000000E+00  0.00000000000E+00  0.65546091354E+02  0.65558393755E+02  0.12700000000E+01 0.  1.
         -4   -1    0    0    0  501 -0.00000000000E+00 -0.00000000000E+00 -0.66729989407E+03  0.66730110259E+03  0.12700000000E+01 0.  1.
    8880022    1    1    2    0    0 -0.68326043666E+01  0.12092878184E+03 -0.16881638086E+03  0.25799433758E+03  0.15294330000E+03 0.  0.
    8880022    1    1    2    0    0  0.68326043666E+01 -0.12092878184E+03 -0.43293742185E+03  0.47486515877E+03  0.15294330000E+03 0.  0.
<mgrwt>
<rscale>  0 0.19509512E+03</rscale>
<asrwt>0</asrwt>
<pdfrwt beam="1">  1        4 0.10085054E-01 0.19509512E+03</pdfrwt>
<pdfrwt beam="2">  1       -4 0.10266256E+00 0.19509512E+03</pdfrwt>
<totfact> 0.10656638E+02</totfact>
</mgrwt>
</event>
<event>
 4    1  0.8478300E-009  0.1857210E+03  0.7818608E-02  0.1162378E+00
          4   -1    0    0  501    0  0.00000000000E+00  0.00000000000E+00  0.27089466461E+02  0.27119219995E+02  0.12700000000E+01 0.  1.
         -4   -1    0    0    0  501 -0.00000000000E+00 -0.00000000000E+00 -0.12900526947E+04  0.12900533199E+04  0.12700000000E+01 0.  1.
    8880022    1    1    2    0    0 -0.92041772227E+02  0.51273160578E+02 -0.70820605174E+03  0.73215305064E+03  0.15294330000E+03 0.  0.
    8880022    1    1    2    0    0  0.92041772227E+02 -0.51273160578E+02 -0.55475717653E+03  0.58501948921E+03  0.15294330000E+03 0.  0.
<mgrwt>
<rscale>  0 0.18572097E+03</rscale>
<asrwt>0</asrwt>
<pdfrwt beam="1">  1        4 0.41699480E-02 0.18572097E+03</pdfrwt>
<pdfrwt beam="2">  1       -4 0.19847193E+00 0.18572097E+03</pdfrwt>
<totfact> 0.83762353E+01</totfact>
</mgrwt>
</event>
<event>
 4    1  0.8478300E-009  0.1614414E+03  0.7818608E-02  0.1187079E+00
          4   -1    0    0  501    0  0.00000000000E+00  0.00000000000E+00  0.23037560199E+03  0.23037910255E+03  0.12700000000E+01 0.  1.
         -4   -1    0    0    0  501 -0.00000000000E+00 -0.00000000000E+00 -0.13288356232E+03  0.13288963103E+03  0.12700000000E+01 0.  1.
    8880022    1    1    2    0    0  0.78926942635E+01  0.51082030050E+02 -0.21288370813E+02  0.16283892705E+03  0.15294330000E+03 0.  0.
    8880022    1    1    2    0    0 -0.78926942635E+01 -0.51082030050E+02  0.11878041048E+03  0.20042980653E+03  0.15294330000E+03 0.  0.
<mgrwt>
<rscale>  0 0.16144139E+03</rscale>
<asrwt>0</asrwt>
<pdfrwt beam="1">  1        4 0.35443136E-01 0.16144139E+03</pdfrwt>
<pdfrwt beam="2">  1       -4 0.20444361E-01 0.16144139E+03</pdfrwt>
<totfact> 0.28721793E+02</totfact>
</mgrwt>
</event>
<event>
 4    1  0.8478300E-009  0.2079667E+03  0.7818608E-02  0.1143186E+00
          4   -1    0    0  501    0  0.00000000000E+00  0.00000000000E+00  0.21630555295E+03  0.21630928121E+03  0.12700000000E+01 0. -1.
         -4   -1    0    0    0  501 -0.00000000000E+00 -0.00000000000E+00 -0.23624231703E+03  0.23624573066E+03  0.12700000000E+01 0. -1.
    8880022    1    1    2    0    0  0.48080773244E+02 -0.13246410331E+03  0.78729176494E+02  0.22237004220E+03  0.15294330000E+03 0.  0.
    8880022    1    1    2    0    0 -0.48080773244E+02  0.13246410331E+03 -0.98665940572E+02  0.23018496968E+03  0.15294330000E+03 0.  0.
<mgrwt>
<rscale>  0 0.20796671E+03</rscale>
<asrwt>0</asrwt>
<pdfrwt beam="1">  1        4 0.33278327E-01 0.20796671E+03</pdfrwt>
<pdfrwt beam="2">  1       -4 0.36345521E-01 0.20796671E+03</pdfrwt>
<totfact> 0.11435130E+02</totfact>
</mgrwt>
</event>
<event>
 4    1  0.8478300E-009  0.3911267E+03  0.7818608E-02  0.1046896E+00
         -4   -1    0    0    0  501 -0.00000000000E+00  0.00000000000E+00  0.89680098694E+02  0.89689090762E+02  0.12700000000E+01 0.  1.
          4   -1    0    0  501    0  0.00000000000E+00 -0.00000000000E+00 -0.18535139745E+04  0.18535144096E+04  0.12700000000E+01 0.  1.
    8880022    1    1    2    0    0  0.35958636525E+03 -0.16913711132E+02 -0.60758426426E+03  0.72259166816E+03  0.15294330000E+03 0.  0.
    8880022    1    1    2    0    0 -0.35958636525E+03  0.16913711132E+02 -0.11562496116E+04  0.12206118322E+04  0.15294330000E+03 0.  0.
<mgrwt>
<rscale>  0 0.39112668E+03</rscale>
<asrwt>0</asrwt>
<pdfrwt beam="1">  1        4 0.28515669E+00 0.39112668E+03</pdfrwt>
<pdfrwt beam="2">  1       -4 0.13797665E-01 0.39112668E+03</pdfrwt>
<totfact> 0.35380151E+00</totfact>
</mgrwt>
</event>
<event>
 4    1  0.8478300E-009  0.2041344E+03  0.7818608E-02  0.1146297E+00
          4   -1    0    0  501    0  0.00000000000E+00  0.00000000000E+00  0.41611456562E+02  0.41630832530E+02  0.12700000000E+01 0. -1.
         -4   -1    0    0    0  501 -0.00000000000E+00 -0.00000000000E+00 -0.15217511903E+04  0.15217517202E+04  0.12700000000E+01 0. -1.
    8880022    1    1    2    0    0 -0.10675672045E+03  0.82958934426E+02 -0.11972665864E+04  0.12145444060E+04  0.15294330000E+03 0.  0.
    8880022    1    1    2    0    0  0.10675672045E+03 -0.82958934426E+02 -0.28287314732E+03  0.34883814678E+03  0.15294330000E+03 0.  0.
<mgrwt>
<rscale>  0 0.20413436E+03</rscale>
<asrwt>0</asrwt>
<pdfrwt beam="1">  1        4 0.64032949E-02 0.20413436E+03</pdfrwt>
<pdfrwt beam="2">  1       -4 0.23411706E+00 0.20413436E+03</pdfrwt>
<totfact> 0.25551721E+01</totfact>
</mgrwt>
</event>
<event>
 4    1  0.8478300E-009  0.1597472E+03  0.7818608E-02  0.1188982E+00
         -4   -1    0    0    0  501 -0.00000000000E+00  0.00000000000E+00  0.23082280058E+03  0.23082629436E+03  0.12700000000E+01 0.  1.
          4   -1    0    0  501    0  0.00000000000E+00 -0.00000000000E+00 -0.21243310301E+03  0.21243689923E+03  0.12700000000E+01 0.  1.
    8880022    1    1    2    0    0 -0.46009198850E+02 -0.32658381092E+01 -0.14428935510E+03  0.21526398465E+03  0.15294330000E+03 0.  0.
    8880022    1    1    2    0    0  0.46009198850E+02  0.32658381092E+01  0.16267905268E+03  0.22799920893E+03  0.15294330000E+03 0.  0.
<mgrwt>
<rscale>  0 0.15974719E+03</rscale>
<asrwt>0</asrwt>
<pdfrwt beam="1">  1        4 0.32682577E-01 0.15974719E+03</pdfrwt>
<pdfrwt beam="2">  1       -4 0.35511761E-01 0.15974719E+03</pdfrwt>
<totfact> 0.11927936E+02</totfact>
</mgrwt>
</event>
<event>
 4    1  0.8478300E-009  0.3883674E+03  0.7818608E-02  0.1047884E+00
         -4   -1    0    0    0  501 -0.00000000000E+00  0.00000000000E+00  0.40308109668E+03  0.40308309739E+03  0.12700000000E+01 0.  1.
          4   -1    0    0  501    0  0.00000000000E+00 -0.00000000000E+00 -0.41397027614E+03  0.41397222423E+03  0.12700000000E+01 0.  1.
    8880022    1    1    2    0    0  0.23110151895E+03 -0.27208392577E+03  0.12119990141E+03  0.40683982578E+03  0.15294330000E+03 0.  0.
    8880022    1    1    2    0    0 -0.23110151895E+03  0.27208392577E+03 -0.13208908087E+03  0.41021549584E+03  0.15294330000E+03 0.  0.
<mgrwt>
<rscale>  0 0.38836739E+03</rscale>
<asrwt>0</asrwt>
<pdfrwt beam="1">  1        4 0.63688038E-01 0.38836739E+03</pdfrwt>
<pdfrwt beam="2">  1       -4 0.62012780E-01 0.38836739E+03</pdfrwt>
<totfact> 0.10780404E+01</totfact>
</mgrwt>
</event>
<event>
 4    1  0.8478300E-009  0.1575552E+03  0.7818608E-02  0.1191485E+00
         -4   -1    0    0    0  501 -0.00000000000E+00  0.00000000000E+00  0.43683358440E+02  0.43701815804E+02  0.12700000000E+01 0. -1.
          4   -1    0    0  501    0  0.00000000000E+00 -0.00000000000E+00 -0.57811475340E+03  0.57811614836E+03  0.12700000000E+01 0. -1.
    8880022    1    1    2    0    0  0.30198375334E+01  0.37720740371E+02 -0.30808779512E+03  0.34603716013E+03  0.15294330000E+03 0.  1.
    8880022    1    1    2    0    0 -0.30198375334E+01 -0.37720740371E+02 -0.22634359984E+03  0.27578080404E+03  0.15294330000E+03 0.  1.
<mgrwt>
<rscale>  0 0.15755515E+03</rscale>
<asrwt>0</asrwt>
<pdfrwt beam="1">  1        4 0.88942253E-01 0.15755515E+03</pdfrwt>
<pdfrwt beam="2">  1       -4 0.67220442E-02 0.15755515E+03</pdfrwt>
<totfact> 0.28249892E+02</totfact>
</mgrwt>
</event>
<event>
 4    1  0.8478300E-009  0.1681108E+03  0.7818608E-02  0.1179832E+00
         -4   -1    0    0    0  501 -0.00000000000E+00  0.00000000000E+00  0.10336393072E+04  0.10336400874E+04  0.12700000000E+01 0. -1.
          4   -1    0    0  501    0  0.00000000000E+00 -0.00000000000E+00 -0.31306064235E+02  0.31331813830E+02  0.12700000000E+01 0. -1.
    8880022    1    1    2    0    0  0.36376112675E+02  0.59551259557E+02  0.31138886593E+03  0.35387039001E+03  0.15294330000E+03 0.  0.
    8880022    1    1    2    0    0 -0.36376112675E+02 -0.59551259557E+02  0.69094437703E+03  0.71110151121E+03  0.15294330000E+03 0.  0.
<mgrwt>
<rscale>  0 0.16811076E+03</rscale>
<asrwt>0</asrwt>
<pdfrwt beam="1">  1        4 0.48183586E-02 0.16811076E+03</pdfrwt>
<pdfrwt beam="2">  1       -4 0.15902346E+00 0.16811076E+03</pdfrwt>
<totfact> 0.12025276E+02</totfact>
</mgrwt>
</event>
<event>
 4    1  0.8478300E-009  0.2357013E+03  0.7818608E-02  0.1122690E+00
          4   -1    0    0  501    0  0.00000000000E+00  0.00000000000E+00  0.51653239394E+03  0.51653395521E+03  0.12700000000E+01 0.  1.
         -4   -1    0    0    0  501 -0.00000000000E+00 -0.00000000000E+00 -0.11351294484E+03  0.11352004910E+03  0.12700000000E+01 0.  1.
    8880022    1    1    2    0    0  0.57092256056E+02 -0.17001151267E+03  0.12930021233E+03  0.26883756818E+03  0.15294330000E+03 0.  1.
    8880022    1    1    2    0    0 -0.57092256056E+02  0.17001151267E+03  0.27371923677E+03  0.36121643613E+03  0.15294330000E+03 0.  1.
<mgrwt>
<rscale>  0 0.23570128E+03</rscale>
<asrwt>0</asrwt>
<pdfrwt beam="1">  1        4 0.79467191E-01 0.23570128E+03</pdfrwt>
<pdfrwt beam="2">  1       -4 0.17464196E-01 0.23570128E+03</pdfrwt>
<totfact> 0.75299388E+01</totfact>
</mgrwt>
</event>
<event>
 4    1  0.8478300E-009  0.1620378E+03  0.7818608E-02  0.1186415E+00
          4   -1    0    0  501    0  0.00000000000E+00  0.00000000000E+00  0.16296169742E+03  0.16296664605E+03  0.12700000000E+01 0.  1.
         -4   -1    0    0    0  501 -0.00000000000E+00 -0.00000000000E+00 -0.16380916127E+03  0.16381408430E+03  0.12700000000E+01 0.  1.
    8880022    1    1    2    0    0  0.37293974978E+02  0.38389704730E+02  0.20551773523E+02  0.16333596790E+03  0.15294330000E+03 0. -1.
    8880022    1    1    2    0    0 -0.37293974978E+02 -0.38389704730E+02 -0.21399237378E+02  0.16344476246E+03  0.15294330000E+03 0. -1.
<mgrwt>
<rscale>  0 0.16203784E+03</rscale>
<asrwt>0</asrwt>
<pdfrwt beam="1">  1        4 0.25071790E-01 0.16203784E+03</pdfrwt>
<pdfrwt beam="2">  1       -4 0.25202169E-01 0.16203784E+03</pdfrwt>
<totfact> 0.37761115E+02</totfact>
</mgrwt>
</event>
<event>
 4    1  0.8478300E-009  0.3264885E+03  0.7818608E-02  0.1072701E+00
         -4   -1    0    0    0  501 -0.00000000000E+00  0.00000000000E+00  0.14572745595E+03  0.14573298980E+03  0.12700000000E+01 0. -1.
          4   -1    0    0  501    0  0.00000000000E+00 -0.00000000000E+00 -0.93929926383E+03  0.93930012240E+03  0.12700000000E+01 0. -1.
    8880022    1    1    2    0    0 -0.10707658562E+03  0.26783889551E+03 -0.65198996922E+03  0.72916777364E+03  0.15294330000E+03 0.  0.
    8880022    1    1    2    0    0  0.10707658562E+03 -0.26783889551E+03 -0.14158183867E+03  0.35586533856E+03  0.15294330000E+03 0.  0.
<mgrwt>
<rscale>  0 0.32648847E+03</rscale>
<asrwt>0</asrwt>
<pdfrwt beam="1">  1        4 0.14450807E+00 0.32648847E+03</pdfrwt>
<pdfrwt beam="2">  1       -4 0.22420101E-01 0.32648847E+03</pdfrwt>
<totfact> 0.11774393E+01</totfact>
</mgrwt>
</event>
<event>
 4    1  0.8478300E-009  0.6068802E+03  0.7818608E-02  0.9891234E-01
         -4   -1    0    0    0  501 -0.00000000000E+00  0.00000000000E+00  0.17329030498E+04  0.17329035152E+04  0.12700000000E+01 0.  1.
          4   -1    0    0  501    0  0.00000000000E+00 -0.00000000000E+00 -0.29235207900E+03  0.29235483748E+03  0.12700000000E+01 0. -1.
    8880022    1    1    2    0    0  0.54673808252E+03 -0.21445131798E+03  0.12493872415E+04  0.13889823724E+04  0.15294330000E+03 0.  0.
    8880022    1    1    2    0    0 -0.54673808252E+03  0.21445131798E+03  0.19116372936E+03  0.63627598029E+03  0.15294330000E+03 0.  0.
<mgrwt>
<rscale>  0 0.60688018E+03</rscale>
<asrwt>0</asrwt>
<pdfrwt beam="1">  1        4 0.44977490E-01 0.60688018E+03</pdfrwt>
<pdfrwt beam="2">  1       -4 0.26660072E+00 0.60688018E+03</pdfrwt>
<totfact> 0.48301440E-01</totfact>
</mgrwt>
</event>
<event>
 4    1  0.8478300E-009  0.2454491E+03  0.7818608E-02  0.1116215E+00
          4   -1    0    0  501    0  0.00000000000E+00  0.00000000000E+00  0.26663865898E+03  0.26664168347E+03  0.12700000000E+01 0. -1.
         -4   -1    0    0    0  501 -0.00000000000E+00 -0.00000000000E+00 -0.37851270008E+03  0.37851483065E+03  0.12700000000E+01 0. -1.
    8880022    1    1    2    0    0  0.45954051883E+02  0.18639163623E+03 -0.26073874360E+03  0.35809211437E+03  0.15294330000E+03 0.  0.
    8880022    1    1    2    0    0 -0.45954051883E+02 -0.18639163623E+03  0.14886470250E+03  0.28706439976E+03  0.15294330000E+03 0.  0.
<mgrwt>
<rscale>  0 0.24544912E+03</rscale>
<asrwt>0</asrwt>
<pdfrwt beam="1">  1        4 0.41021728E-01 0.24544912E+03</pdfrwt>
<pdfrwt beam="2">  1       -4 0.58233120E-01 0.24544912E+03</pdfrwt>
<totfact> 0.29655086E+01</totfact>
</mgrwt>
</event>
<event>
 4    1  0.8478300E-009  0.3321553E+03  0.7818608E-02  0.1070187E+00
          4   -1    0    0  501    0  0.00000000000E+00  0.00000000000E+00  0.51168663826E+03  0.51168821432E+03  0.12700000000E+01 0.  1.
         -4   -1    0    0    0  501 -0.00000000000E+00 -0.00000000000E+00 -0.22351594891E+03  0.22351955690E+03  0.12700000000E+01 0.  1.
    8880022    1    1    2    0    0 -0.23884017111E+03  0.17288969707E+03  0.21321656206E+03  0.39470043076E+03  0.15294330000E+03 0.  0.
    8880022    1    1    2    0    0  0.23884017111E+03 -0.17288969707E+03  0.74954127291E+02  0.34050734046E+03  0.15294330000E+03 0.  0.
<mgrwt>
<rscale>  0 0.33215528E+03</rscale>
<asrwt>0</asrwt>
<pdfrwt beam="1">  1        4 0.78721420E-01 0.33215528E+03</pdfrwt>
<pdfrwt beam="2">  1       -4 0.34387468E-01 0.33215528E+03</pdfrwt>
<totfact> 0.22406413E+01</totfact>
</mgrwt>
</event>
<event>
 4    1  0.8478300E-009  0.2128351E+03  0.7818608E-02  0.1139340E+00
         -4   -1    0    0    0  501 -0.00000000000E+00  0.00000000000E+00  0.57849331131E+02  0.57863269976E+02  0.12700000000E+01 0. -1.
          4   -1    0    0  501    0  0.00000000000E+00 -0.00000000000E+00 -0.79312656009E+03  0.79312757689E+03  0.12700000000E+01 0. -1.
    8880022    1    1    2    0    0  0.13158797928E+03  0.67762403786E+02 -0.31941566324E+03  0.38382959578E+03  0.15294330000E+03 0.  0.
    8880022    1    1    2    0    0 -0.13158797928E+03 -0.67762403786E+02 -0.41586156572E+03  0.46716125109E+03  0.15294330000E+03 0.  0.
<mgrwt>
<rscale>  0 0.21283513E+03</rscale>
<asrwt>0</asrwt>
<pdfrwt beam="1">  1        4 0.12202061E+00 0.21283513E+03</pdfrwt>
<pdfrwt beam="2">  1       -4 0.89010481E-02 0.21283513E+03</pdfrwt>
<totfact> 0.88084486E+01</totfact>
</mgrwt>
</event>
<event>
 4    1  0.8478300E-009  0.2297618E+03  0.7818608E-02  0.1126808E+00
          4   -1    0    0  501    0  0.00000000000E+00  0.00000000000E+00  0.80253270741E+02  0.80263318924E+02  0.12700000000E+01 0.  1.
         -4   -1    0    0    0  501 -0.00000000000E+00 -0.00000000000E+00 -0.74284371500E+03  0.74284480062E+03  0.12700000000E+01 0.  1.
    8880022    1    1    2    0    0  0.97063780972E+01  0.17118587007E+03 -0.47058926348E+03  0.52368380136E+03  0.15294330000E+03 0.  0.
    8880022    1    1    2    0    0 -0.97063780972E+01 -0.17118587007E+03 -0.19200118077E+03  0.29942431819E+03  0.15294330000E+03 0.  0.
<mgrwt>
<rscale>  0 0.22976177E+03</rscale>
<asrwt>0</asrwt>
<pdfrwt beam="1">  1        4 0.12347514E-01 0.22976177E+03</pdfrwt>
<pdfrwt beam="2">  1       -4 0.11428450E+00 0.22976177E+03</pdfrwt>
<totfact> 0.59567390E+01</totfact>
</mgrwt>
</event>
<event>
 4    1  0.8478300E-009  0.5561674E+03  0.7818608E-02  0.1000076E+00
          4   -1    0    0  501    0  0.00000000000E+00  0.00000000000E+00  0.52760681941E+03  0.52760834791E+03  0.12700000000E+01 0.  1.
         -4   -1    0    0    0  501 -0.00000000000E+00 -0.00000000000E+00 -0.66320731014E+03  0.66320852612E+03  0.12700000000E+01 0.  1.
    8880022    1    1    2    0    0  0.23920732059E+03  0.47823672972E+03 -0.27059431251E+03  0.61850096755E+03  0.15294330000E+03 0.  0.
    8880022    1    1    2    0    0 -0.23920732059E+03 -0.47823672972E+03  0.13499382178E+03  0.57231590649E+03  0.15294330000E+03 0.  0.
<mgrwt>
<rscale>  0 0.55616739E+03</rscale>
<asrwt>0</asrwt>
<pdfrwt beam="1">  1        4 0.81170490E-01 0.55616739E+03</pdfrwt>
<pdfrwt beam="2">  1       -4 0.10203211E+00 0.55616739E+03</pdfrwt>
<totfact> 0.20630111E+00</totfact>
</mgrwt>
</event>
<event>
 4    1  0.8478300E-009  0.1909248E+03  0.7818608E-02  0.1157630E+00
         -4   -1    0    0    0  501 -0.00000000000E+00  0.00000000000E+00  0.24110441916E+03  0.24110776395E+03  0.12700000000E+01 0. -1.
          4   -1    0    0  501    0  0.00000000000E+00 -0.00000000000E+00 -0.31246035473E+03  0.31246293568E+03  0.12700000000E+01 0. -1.
    8880022    1    1    2    0    0  0.11403584726E+03  0.75129681923E+01  0.16317361133E+03  0.25115313974E+03  0.15294330000E+03 0. -1.
    8880022    1    1    2    0    0 -0.11403584726E+03 -0.75129681923E+01 -0.23452954689E+03  0.30241755990E+03  0.15294330000E+03 0. -1.
<mgrwt>
<rscale>  0 0.19092478E+03</rscale>
<asrwt>0</asrwt>
<pdfrwt beam="1">  1        4 0.48071280E-01 0.19092478E+03</pdfrwt>
<pdfrwt beam="2">  1       -4 0.37093443E-01 0.19092478E+03</pdfrwt>
<totfact> 0.52390048E+01</totfact>
</mgrwt>
</event>
<event>
 4    1  0.8478300E-009  0.2204597E+03  0.7818608E-02  0.1133541E+00
          4   -1    0    0  501    0  0.00000000000E+00  0.00000000000E+00  0.14052833634E+04  0.14052839372E+04  0.12700000000E+01 0. -1.
         -4   -1    0    0    0  501 -0.00000000000E+00 -0.00000000000E+00 -0.34643729097E+02  0.34666999664E+02  0.12700000000E+01 0. -1.
    8880022    1    1    2    0    0  0.79590268344E+02 -0.13739070091E+03  0.65286602174E+03  0.68908381991E+03  0.15294330000E+03 0.  1.
    8880022    1    1    2    0    0 -0.79590268344E+02  0.13739070091E+03  0.71777361253E+03  0.75086711698E+03  0.15294330000E+03 0.  1.
<mgrwt>
<rscale>  0 0.22045968E+03</rscale>
<asrwt>0</asrwt>
<pdfrwt beam="1">  1        4 0.21619927E+00 0.22045968E+03</pdfrwt>
<pdfrwt beam="2">  1       -4 0.53316389E-02 0.22045968E+03</pdfrwt>
<totfact> 0.44511185E+01</totfact>
</mgrwt>
</event>
<event>
 4    1  0.8478300E-009  0.1649308E+03  0.7818608E-02  0.1183240E+00
          4   -1    0    0  501    0  0.00000000000E+00  0.00000000000E+00  0.10136275037E+04  0.10136282993E+04  0.12700000000E+01 0. -1.
         -4   -1    0    0    0  501 -0.00000000000E+00 -0.00000000000E+00 -0.32679060625E+02  0.32703729196E+02  0.12700000000E+01 0. -1.
    8880022    1    1    2    0    0 -0.61339992189E+02 -0.69231756305E+01  0.71188986244E+03  0.73074575213E+03  0.15294330000E+03 0.  0.
    8880022    1    1    2    0    0  0.61339992189E+02  0.69231756305E+01  0.26905858061E+03  0.31558627635E+03  0.15294330000E+03 0.  0.
<mgrwt>
<rscale>  0 0.16493083E+03</rscale>
<asrwt>0</asrwt>
<pdfrwt beam="1">  1        4 0.15594465E+00 0.16493083E+03</pdfrwt>
<pdfrwt beam="2">  1       -4 0.50295067E-02 0.16493083E+03</pdfrwt>
<totfact> 0.11777779E+02</totfact>
</mgrwt>
</event>
<event>
 4    1  0.8478300E-009  0.1915043E+03  0.7818608E-02  0.1157111E+00
         -4   -1    0    0    0  501 -0.00000000000E+00  0.00000000000E+00  0.11602596642E+03  0.11603291682E+03  0.12700000000E+01 0. -1.
          4   -1    0    0  501    0  0.00000000000E+00 -0.00000000000E+00 -0.44953109678E+03  0.44953289076E+03  0.12700000000E+01 0. -1.
    8880022    1    1    2    0    0  0.11413837330E+03 -0.15958973014E+02 -0.32083488491E+03  0.37364278860E+03  0.15294330000E+03 0.  1.
    8880022    1    1    2    0    0 -0.11413837330E+03  0.15958973014E+02 -0.12670245443E+02  0.19192301898E+03  0.15294330000E+03 0.  1.
<mgrwt>
<rscale>  0 0.19150433E+03</rscale>
<asrwt>0</asrwt>
<pdfrwt beam="1">  1        4 0.69159302E-01 0.19150433E+03</pdfrwt>
<pdfrwt beam="2">  1       -4 0.17850822E-01 0.19150433E+03</pdfrwt>
<totfact> 0.95730260E+01</totfact>
</mgrwt>
</event>
<event>
 4    1  0.8478300E-009  0.1603884E+03  0.7818608E-02  0.1188259E+00
         -4   -1    0    0    0  501 -0.00000000000E+00  0.00000000000E+00  0.20854306238E+02  0.20892941121E+02  0.12700000000E+01 0. -1.
          4   -1    0    0  501    0  0.00000000000E+00 -0.00000000000E+00 -0.18198832479E+04  0.18198836911E+04  0.12700000000E+01 0. -1.
    8880022    1    1    2    0    0  0.39439993282E+02  0.27879384023E+02 -0.14224652734E+04  0.14314789136E+04  0.15294330000E+03 0. -1.
    8880022    1    1    2    0    0 -0.39439993282E+02 -0.27879384023E+02 -0.37656366833E+03  0.40929771859E+03  0.15294330000E+03 0. -1.
<mgrwt>
<rscale>  0 0.16038836E+03</rscale>
<asrwt>0</asrwt>
<pdfrwt beam="1">  1        4 0.27998492E+00 0.16038836E+03</pdfrwt>
<pdfrwt beam="2">  1       -4 0.32113622E-02 0.16038836E+03</pdfrwt>
<totfact> 0.41032674E+01</totfact>
</mgrwt>
</event>
<event>
 4    1  0.8478300E-009  0.2076139E+03  0.7818608E-02  0.1143470E+00
         -4   -1    0    0    0  501 -0.00000000000E+00  0.00000000000E+00  0.77690372355E+03  0.77690476158E+03  0.12700000000E+01 0. -1.
          4   -1    0    0  501    0  0.00000000000E+00 -0.00000000000E+00 -0.65055373290E+02  0.65067768472E+02  0.12700000000E+01 0. -1.
    8880022    1    1    2    0    0  0.13097283089E+03 -0.50576493264E+02  0.51747854219E+03  0.55757291787E+03  0.15294330000E+03 0.  0.
    8880022    1    1    2    0    0 -0.13097283089E+03  0.50576493264E+02  0.19436980807E+03  0.28439961218E+03  0.15294330000E+03 0.  0.
<mgrwt>
<rscale>  0 0.20761387E+03</rscale>
<asrwt>0</asrwt>
<pdfrwt beam="1">  1        4 0.10009552E-01 0.20761387E+03</pdfrwt>
<pdfrwt beam="2">  1       -4 0.11952468E+00 0.20761387E+03</pdfrwt>
<totfact> 0.75718692E+01</totfact>
</mgrwt>
</event>
<event>
 4    1  0.8478300E-009  0.2147116E+03  0.7818608E-02  0.1137888E+00
         -4   -1    0    0    0  501 -0.00000000000E+00  0.00000000000E+00  0.30938255718E+04  0.30938258325E+04  0.12700000000E+01 0. -1.
          4   -1    0    0  501    0  0.00000000000E+00 -0.00000000000E+00 -0.14878813890E+02  0.14932916754E+02  0.12700000000E+01 0. -1.
    8880022    1    1    2    0    0 -0.13320173891E+03 -0.70474840558E+02  0.15683319306E+04  0.15829611821E+04  0.15294330000E+03 0.  0.
    8880022    1    1    2    0    0  0.13320173891E+03  0.70474840558E+02  0.15106148273E+04  0.15257975671E+04  0.15294330000E+03 0.  0.
<mgrwt>
<rscale>  0 0.21471157E+03</rscale>
<asrwt>0</asrwt>
<pdfrwt beam="1">  1        4 0.22932312E-02 0.21471157E+03</pdfrwt>
<pdfrwt beam="2">  1       -4 0.47597712E+00 0.21471157E+03</pdfrwt>
<totfact> 0.37657703E+00</totfact>
</mgrwt>
</event>
<event>
 4    1  0.8478300E-009  0.3381344E+03  0.7818608E-02  0.1067593E+00
          4   -1    0    0  501    0  0.00000000000E+00  0.00000000000E+00  0.13264218988E+03  0.13264826964E+03  0.12700000000E+01 0.  1.
         -4   -1    0    0    0  501 -0.00000000000E+00 -0.00000000000E+00 -0.10082129048E+04  0.10082137047E+04  0.12700000000E+01 0.  1.
    8880022    1    1    2    0    0  0.28993961760E+03 -0.82935071157E+02 -0.22052139421E+03  0.40368867485E+03  0.15294330000E+03 0.  0.
    8880022    1    1    2    0    0 -0.28993961760E+03  0.82935071157E+02 -0.65504932075E+03  0.73717329951E+03  0.15294330000E+03 0.  0.
<mgrwt>
<rscale>  0 0.33813438E+03</rscale>
<asrwt>0</asrwt>
<pdfrwt beam="1">  1        4 0.20407021E-01 0.33813438E+03</pdfrwt>
<pdfrwt beam="2">  1       -4 0.15511020E+00 0.33813438E+03</pdfrwt>
<totfact> 0.11667520E+01</totfact>
</mgrwt>
</event>
<event>
 4    1  0.8478300E-009  0.5208561E+03  0.7818608E-02  0.1008474E+00
         -4   -1    0    0    0  501 -0.00000000000E+00  0.00000000000E+00  0.31018562271E+03  0.31018822259E+03  0.12700000000E+01 0. -1.
          4   -1    0    0  501    0  0.00000000000E+00 -0.00000000000E+00 -0.95094858110E+03  0.95094942915E+03  0.12700000000E+01 0. -1.
    8880022    1    1    2    0    0  0.37106429182E+03  0.33197991776E+03 -0.14171288994E+03  0.53979030248E+03  0.15294330000E+03 0.  0.
    8880022    1    1    2    0    0 -0.37106429182E+03 -0.33197991776E+03 -0.49905006845E+03  0.72134734927E+03  0.15294330000E+03 0.  0.
<mgrwt>
<rscale>  0 0.52085605E+03</rscale>
<asrwt>0</asrwt>
<pdfrwt beam="1">  1        4 0.14630005E+00 0.52085605E+03</pdfrwt>
<pdfrwt beam="2">  1       -4 0.47721131E-01 0.52085605E+03</pdfrwt>
<totfact> 0.26532232E+00</totfact>
</mgrwt>
</event>
<event>
 4    1  0.8478300E-009  0.2174159E+03  0.7818608E-02  0.1135824E+00
         -4   -1    0    0    0  501 -0.00000000000E+00  0.00000000000E+00  0.49647793137E+03  0.49647955571E+03  0.12700000000E+01 0. -1.
          4   -1    0    0  501    0  0.00000000000E+00 -0.00000000000E+00 -0.25980823919E+03  0.25981134319E+03  0.12700000000E+01 0. -1.
    8880022    1    1    2    0    0 -0.71160937565E+02 -0.13716460323E+03  0.41932116906E+03  0.47233452473E+03  0.15294330000E+03 0.  0.
    8880022    1    1    2    0    0  0.71160937565E+02  0.13716460323E+03 -0.18265147687E+03  0.28395637417E+03  0.15294330000E+03 0.  0.
<mgrwt>
<rscale>  0 0.21741587E+03</rscale>
<asrwt>0</asrwt>
<pdfrwt beam="1">  1        4 0.39970863E-01 0.21741587E+03</pdfrwt>
<pdfrwt beam="2">  1       -4 0.76381583E-01 0.21741587E+03</pdfrwt>
<totfact> 0.17158895E+01</totfact>
</mgrwt>
</event>
<event>
 4    1  0.8478300E-009  0.2727320E+03  0.7818608E-02  0.1099726E+00
         -4   -1    0    0    0  501 -0.00000000000E+00  0.00000000000E+00  0.10983865580E+04  0.10983872922E+04  0.12700000000E+01 0. -1.
          4   -1    0    0  501    0  0.00000000000E+00 -0.00000000000E+00 -0.74810018423E+02  0.74820797619E+02  0.12700000000E+01 0. -1.
    8880022    1    1    2    0    0 -0.22581164317E+03  0.45045298634E+00  0.69244693174E+03  0.74422141020E+03  0.15294330000E+03 0.  0.
    8880022    1    1    2    0    0  0.22581164317E+03 -0.45045298634E+00  0.33112960780E+03  0.42898667960E+03  0.15294330000E+03 0.  0.
<mgrwt>
<rscale>  0 0.27273202E+03</rscale>
<asrwt>0</asrwt>
<pdfrwt beam="1">  1        4 0.11510119E-01 0.27273202E+03</pdfrwt>
<pdfrwt beam="2">  1       -4 0.16898344E+00 0.27273202E+03</pdfrwt>
<totfact> 0.25289783E+01</totfact>
</mgrwt>
</event>
<event>
 4    1  0.8478300E-009  0.2347654E+03  0.7818608E-02  0.1123330E+00
         -4   -1    0    0    0  501 -0.00000000000E+00  0.00000000000E+00  0.32094458831E+03  0.32094710104E+03  0.12700000000E+01 0.  1.
          4   -1    0    0  501    0  0.00000000000E+00 -0.00000000000E+00 -0.19320563722E+03  0.19320981123E+03  0.12700000000E+01 0.  1.
    8880022    1    1    2    0    0  0.11728754483E+03 -0.13404012133E+03 -0.21855952872E+02  0.23578052928E+03  0.15294330000E+03 0.  0.
    8880022    1    1    2    0    0 -0.11728754483E+03  0.13404012133E+03  0.14959490396E+03  0.27837638299E+03  0.15294330000E+03 0.  0.
<mgrwt>
<rscale>  0 0.23476536E+03</rscale>
<asrwt>0</asrwt>
<pdfrwt beam="1">  1        4 0.29724459E-01 0.23476536E+03</pdfrwt>
<pdfrwt beam="2">  1       -4 0.49376605E-01 0.23476536E+03</pdfrwt>
<totfact> 0.78065396E+01</totfact>
</mgrwt>
</event>
<event>
 4    1  0.8478300E-009  0.1644614E+03  0.7818608E-02  0.1183750E+00
          4   -1    0    0  501    0  0.00000000000E+00  0.00000000000E+00  0.33250510902E+03  0.33250753438E+03  0.12700000000E+01 0.  1.
         -4   -1    0    0    0  501 -0.00000000000E+00 -0.00000000000E+00 -0.91571278103E+02  0.91580084481E+02  0.12700000000E+01 0.  1.
    8880022    1    1    2    0    0  0.43619900965E+02  0.41871165876E+02  0.49583403885E+02  0.17177327280E+03  0.15294330000E+03 0.  0.
    8880022    1    1    2    0    0 -0.43619900965E+02 -0.41871165876E+02  0.19135042703E+03  0.25231434607E+03  0.15294330000E+03 0.  0.
<mgrwt>
<rscale>  0 0.16446137E+03</rscale>
<asrwt>0</asrwt>
<pdfrwt beam="1">  1        4 0.51155496E-01 0.16446137E+03</pdfrwt>
<pdfrwt beam="2">  1       -4 0.14088753E-01 0.16446137E+03</pdfrwt>
<totfact> 0.26832175E+02</totfact>
</mgrwt>
</event>
<event>
 4    1  0.8478300E-009  0.5841118E+03  0.7818608E-02  0.9938929E-01
          4   -1    0    0  501    0  0.00000000000E+00  0.00000000000E+00  0.80437178161E+03  0.80437278419E+03  0.12700000000E+01 0.  1.
         -4   -1    0    0    0  501 -0.00000000000E+00 -0.00000000000E+00 -0.42466611538E+03  0.42466801439E+03  0.12700000000E+01 0.  1.
    8880022    1    1    2    0    0  0.40731176486E+03 -0.38973331306E+03  0.21100319406E+03  0.62105469165E+03  0.15294330000E+03 0.  0.
    8880022    1    1    2    0    0 -0.40731176486E+03  0.38973331306E+03  0.16870247218E+03  0.60798610694E+03  0.15294330000E+03 0.  0.
<mgrwt>
<rscale>  0 0.58411179E+03</rscale>
<asrwt>0</asrwt>
<pdfrwt beam="1">  1        4 0.12374973E+00 0.58411179E+03</pdfrwt>
<pdfrwt beam="2">  1       -4 0.65333472E-01 0.58411179E+03</pdfrwt>
<totfact> 0.20913207E+00</totfact>
</mgrwt>
</event>
<event>
 4    1  0.8478300E-009  0.2424506E+03  0.7818608E-02  0.1118171E+00
          4   -1    0    0  501    0  0.00000000000E+00  0.00000000000E+00  0.54756885977E+02  0.54771611825E+02  0.12700000000E+01 0. -1.
         -4   -1    0    0    0  501 -0.00000000000E+00 -0.00000000000E+00 -0.12151489775E+04  0.12151496411E+04  0.12700000000E+01 0. -1.
    8880022    1    1    2    0    0 -0.16414488139E+03  0.91908224842E+02 -0.36329686972E+03  0.43676874023E+03  0.15294330000E+03 0.  0.
    8880022    1    1    2    0    0  0.16414488139E+03 -0.91908224842E+02 -0.79709522177E+03  0.83315251273E+03  0.15294330000E+03 0.  0.
<mgrwt>
<rscale>  0 0.24245065E+03</rscale>
<asrwt>0</asrwt>
<pdfrwt beam="1">  1        4 0.84253210E-02 0.24245065E+03</pdfrwt>
<pdfrwt beam="2">  1       -4 0.18694716E+00 0.24245065E+03</pdfrwt>
<totfact> 0.32221931E+01</totfact>
</mgrwt>
</event>
<event>
 4    1  0.8478300E-009  0.1942324E+03  0.7818608E-02  0.1154698E+00
         -4   -1    0    0    0  501 -0.00000000000E+00  0.00000000000E+00  0.12716836183E+03  0.12717470327E+03  0.12700000000E+01 0.  1.
          4   -1    0    0  501    0  0.00000000000E+00 -0.00000000000E+00 -0.81993426265E+03  0.81993524621E+03  0.12700000000E+01 0.  1.
    8880022    1    1    2    0    0  0.86125338275E+02  0.83168524854E+02 -0.72469323992E+03  0.75027096600E+03  0.15294330000E+03 0.  0.
    8880022    1    1    2    0    0 -0.86125338275E+02 -0.83168524854E+02  0.31927339095E+02  0.19683898348E+03  0.15294330000E+03 0.  0.
<mgrwt>
<rscale>  0 0.19423241E+03</rscale>
<asrwt>0</asrwt>
<pdfrwt beam="1">  1        4 0.12614429E+00 0.19423241E+03</pdfrwt>
<pdfrwt beam="2">  1       -4 0.19564927E-01 0.19423241E+03</pdfrwt>
<totfact> 0.20388274E+01</totfact>
</mgrwt>
</event>
<event>
 4    1  0.8478300E-009  0.2022399E+03  0.7818608E-02  0.1147863E+00
          4   -1    0    0  501    0  0.00000000000E+00  0.00000000000E+00  0.34525008463E+03  0.34525242046E+03  0.12700000000E+01 0.  1.
         -4   -1    0    0    0  501 -0.00000000000E+00 -0.00000000000E+00 -0.28966400975E+03  0.28966679383E+03  0.12700000000E+01 0.  1.
    8880022    1    1    2    0    0 -0.23231172773E+02 -0.13026750221E+03 -0.21626376884E+03  0.29609285748E+03  0.15294330000E+03 0.  0.
    8880022    1    1    2    0    0  0.23231172773E+02  0.13026750221E+03  0.27184984372E+03  0.33882635681E+03  0.15294330000E+03 0.  0.
<mgrwt>
<rscale>  0 0.20223986E+03</rscale>
<asrwt>0</asrwt>
<pdfrwt beam="1">  1        4 0.53115792E-01 0.20223986E+03</pdfrwt>
<pdfrwt beam="2">  1       -4 0.44564087E-01 0.20223986E+03</pdfrwt>
<totfact> 0.29830125E+01</totfact>
</mgrwt>
</event>
<event>
 4    1  0.8478300E-009  0.2928638E+03  0.7818608E-02  0.1088863E+00
          4   -1    0    0  501    0  0.00000000000E+00  0.00000000000E+00  0.36425831541E+03  0.36426052936E+03  0.12700000000E+01 0.  1.
         -4   -1    0    0    0  501 -0.00000000000E+00 -0.00000000000E+00 -0.24651341185E+03  0.24651668325E+03  0.12700000000E+01 0.  1.
    8880022    1    1    2    0    0  0.79802692131E+02 -0.23666232783E+03 -0.57997364509E+01  0.29292117889E+03  0.15294330000E+03 0.  0.
    8880022    1    1    2    0    0 -0.79802692131E+02  0.23666232783E+03  0.12354464001E+03  0.31785603372E+03  0.15294330000E+03 0.  0.
<mgrwt>
<rscale>  0 0.29286376E+03</rscale>
<asrwt>0</asrwt>
<pdfrwt beam="1">  1        4 0.56040162E-01 0.29286376E+03</pdfrwt>
<pdfrwt beam="2">  1       -4 0.37925563E-01 0.29286376E+03</pdfrwt>
<totfact> 0.38254978E+01</totfact>
</mgrwt>
</event>
<event>
 4    1  0.8478300E-009  0.1601233E+03  0.7818608E-02  0.1188558E+00
         -4   -1    0    0    0  501 -0.00000000000E+00  0.00000000000E+00  0.18245320978E+03  0.18245762977E+03  0.12700000000E+01 0. -1.
          4   -1    0    0  501    0  0.00000000000E+00 -0.00000000000E+00 -0.21400660544E+03  0.21401037374E+03  0.12700000000E+01 0. -1.
    8880022    1    1    2    0    0 -0.21324175620E+02  0.42345062896E+02  0.10038614811E+03  0.18898903821E+03  0.15294330000E+03 0.  0.
    8880022    1    1    2    0    0  0.21324175620E+02 -0.42345062896E+02 -0.13193954376E+03  0.20747896530E+03  0.15294330000E+03 0.  0.
<mgrwt>
<rscale>  0 0.16012332E+03</rscale>
<asrwt>0</asrwt>
<pdfrwt beam="1">  1        4 0.32924723E-01 0.16012332E+03</pdfrwt>
<pdfrwt beam="2">  1       -4 0.28070355E-01 0.16012332E+03</pdfrwt>
<totfact> 0.18432921E+02</totfact>
</mgrwt>
</event>
<event>
 4    1  0.8478300E-009  0.1691010E+03  0.7818608E-02  0.1178789E+00
         -4   -1    0    0    0  501 -0.00000000000E+00  0.00000000000E+00  0.23047059046E+03  0.23047408957E+03  0.12700000000E+01 0.  1.
          4   -1    0    0  501    0  0.00000000000E+00 -0.00000000000E+00 -0.16429397814E+03  0.16429888665E+03  0.12700000000E+01 0.  1.
    8880022    1    1    2    0    0  0.70733866819E+02  0.14149475336E+02 -0.64582131219E+02  0.18101379023E+03  0.15294330000E+03 0.  1.
    8880022    1    1    2    0    0 -0.70733866819E+02 -0.14149475336E+02  0.13075874353E+03  0.21375918599E+03  0.15294330000E+03 0.  1.
<mgrwt>
<rscale>  0 0.16910098E+03</rscale>
<asrwt>0</asrwt>
<pdfrwt beam="1">  1        4 0.25276644E-01 0.16910098E+03</pdfrwt>
<pdfrwt beam="2">  1       -4 0.35457660E-01 0.16910098E+03</pdfrwt>
<totfact> 0.19598144E+02</totfact>
</mgrwt>
</event>
<event>
 4    1  0.8478300E-009  0.2435012E+03  0.7818608E-02  0.1117482E+00
          4   -1    0    0  501    0  0.00000000000E+00  0.00000000000E+00  0.31993552850E+03  0.31993804915E+03  0.12700000000E+01 0.  1.
         -4   -1    0    0    0  501 -0.00000000000E+00 -0.00000000000E+00 -0.18791245962E+03  0.18791675119E+03  0.12700000000E+01 0.  1.
    8880022    1    1    2    0    0 -0.16089474843E+03  0.10007023990E+03  0.95825026345E+02  0.26167778216E+03  0.15294330000E+03 0.  0.
    8880022    1    1    2    0    0  0.16089474843E+03 -0.10007023990E+03  0.36198042538E+02  0.24617701819E+03  0.15294330000E+03 0.  0.
<mgrwt>
<rscale>  0 0.24350118E+03</rscale>
<asrwt>0</asrwt>
<pdfrwt beam="1">  1        4 0.49221374E-01 0.24350118E+03</pdfrwt>
<pdfrwt beam="2">  1       -4 0.28910133E-01 0.24350118E+03</pdfrwt>
<totfact> 0.83200479E+01</totfact>
</mgrwt>
</event>
<event>
 4    1  0.8478300E-009  0.2904363E+03  0.7818608E-02  0.1090122E+00
          4   -1    0    0  501    0  0.00000000000E+00  0.00000000000E+00  0.12625054504E+03  0.12625693257E+03  0.12700000000E+01 0. -1.
         -4   -1    0    0    0  501 -0.00000000000E+00 -0.00000000000E+00 -0.70733975658E+03  0.70734089670E+03  0.12700000000E+01 0. -1.
    8880022    1    1    2    0    0 -0.20502250900E+03  0.13757682573E+03 -0.19239822015E+03  0.34838246268E+03  0.15294330000E+03 0.  0.
    8880022    1    1    2    0    0  0.20502250900E+03 -0.13757682573E+03 -0.38869099139E+03  0.48521536659E+03  0.15294330000E+03 0.  0.
<mgrwt>
<rscale>  0 0.29043634E+03</rscale>
<asrwt>0</asrwt>
<pdfrwt beam="1">  1        4 0.19423740E-01 0.29043634E+03</pdfrwt>
<pdfrwt beam="2">  1       -4 0.10882208E+00 0.29043634E+03</pdfrwt>
<totfact> 0.30702847E+01</totfact>
</mgrwt>
</event>
<event>
 4    1  0.8478300E-009  0.2820943E+03  0.7818608E-02  0.1094551E+00
          4   -1    0    0  501    0  0.00000000000E+00  0.00000000000E+00  0.18709992676E+03  0.18710423697E+03  0.12700000000E+01 0.  1.
         -4   -1    0    0    0  501 -0.00000000000E+00 -0.00000000000E+00 -0.43535782123E+03  0.43535967361E+03  0.12700000000E+01 0.  1.
    8880022    1    1    2    0    0 -0.19088645021E+03 -0.14052730692E+03 -0.17141269965E+03  0.33009018083E+03  0.15294330000E+03 0.  0.
    8880022    1    1    2    0    0  0.19088645021E+03  0.14052730692E+03 -0.76845194816E+02  0.29237372975E+03  0.15294330000E+03 0.  0.
<mgrwt>
<rscale>  0 0.28209434E+03</rscale>
<asrwt>0</asrwt>
<pdfrwt beam="1">  1        4 0.28785078E-01 0.28209434E+03</pdfrwt>
<pdfrwt beam="2">  1       -4 0.66978600E-01 0.28209434E+03</pdfrwt>
<totfact> 0.44481365E+01</totfact>
</mgrwt>
</event>
<event>
 4    1  0.8478300E-009  0.1610395E+03  0.7818608E-02  0.1187528E+00
         -4   -1    0    0    0  501 -0.00000000000E+00  0.00000000000E+00  0.61441808994E+03  0.61441940248E+03  0.12700000000E+01 0.  1.
          4   -1    0    0  501    0  0.00000000000E+00 -0.00000000000E+00 -0.42684145900E+02  0.42703035152E+02  0.12700000000E+01 0.  1.
    8880022    1    1    2    0    0  0.45851553878E+02  0.20969092655E+02  0.32093462287E+03  0.35907207217E+03  0.15294330000E+03 0.  0.
    8880022    1    1    2    0    0 -0.45851553878E+02 -0.20969092655E+02  0.25079932117E+03  0.29805036547E+03  0.15294330000E+03 0.  0.
<mgrwt>
<rscale>  0 0.16103950E+03</rscale>
<asrwt>0</asrwt>
<pdfrwt beam="1">  1        4 0.65683466E-02 0.16103950E+03</pdfrwt>
<pdfrwt beam="2">  1       -4 0.94527401E-01 0.16103950E+03</pdfrwt>
<totfact> 0.25639123E+02</totfact>
</mgrwt>
</event>
<event>
 4    1  0.8478300E-009  0.2290500E+03  0.7818608E-02  0.1127310E+00
         -4   -1    0    0    0  501 -0.00000000000E+00  0.00000000000E+00  0.10239261861E+03  0.10240049437E+03  0.12700000000E+01 0. -1.
          4   -1    0    0  501    0  0.00000000000E+00 -0.00000000000E+00 -0.61254844461E+03  0.61254976116E+03  0.12700000000E+01 0. -1.
    8880022    1    1    2    0    0 -0.17040761180E+03  0.57890620289E+01 -0.11050082995E+03  0.25431152910E+03  0.15294330000E+03 0.  0.
    8880022    1    1    2    0    0  0.17040761180E+03 -0.57890620289E+01 -0.39965499605E+03  0.46063872642E+03  0.15294330000E+03 0.  0.
<mgrwt>
<rscale>  0 0.22905004E+03</rscale>
<asrwt>0</asrwt>
<pdfrwt beam="1">  1        4 0.94238927E-01 0.22905004E+03</pdfrwt>
<pdfrwt beam="2">  1       -4 0.15753418E-01 0.22905004E+03</pdfrwt>
<totfact> 0.61238964E+01</totfact>
</mgrwt>
</event>
<event>
 4    1  0.8478300E-009  0.3121245E+03  0.7818608E-02  0.1079332E+00
          4   -1    0    0  501    0  0.00000000000E+00  0.00000000000E+00  0.58248929592E+03  0.58249068041E+03  0.12700000000E+01 0. -1.
         -4   -1    0    0    0  501 -0.00000000000E+00 -0.00000000000E+00 -0.18901989931E+03  0.18902416575E+03  0.12700000000E+01 0. -1.
    8880022    1    1    2    0    0 -0.25410563204E+03 -0.97264485657E+02  0.65811858146E+02  0.31898731337E+03  0.15294330000E+03 0.  0.
    8880022    1    1    2    0    0  0.25410563204E+03  0.97264485657E+02  0.32765753846E+03  0.45252753278E+03  0.15294330000E+03 0.  0.
<mgrwt>
<rscale>  0 0.31212450E+03</rscale>
<asrwt>0</asrwt>
<pdfrwt beam="1">  1        4 0.89614173E-01 0.31212450E+03</pdfrwt>
<pdfrwt beam="2">  1       -4 0.29080419E-01 0.31212450E+03</pdfrwt>
<totfact> 0.22968646E+01</totfact>
</mgrwt>
</event>
<event>
 4    1  0.8478300E-009  0.2105575E+03  0.7818608E-02  0.1141125E+00
         -4   -1    0    0    0  501 -0.00000000000E+00  0.00000000000E+00  0.46817961465E+03  0.46818133717E+03  0.12700000000E+01 0. -1.
          4   -1    0    0  501    0  0.00000000000E+00 -0.00000000000E+00 -0.96010208246E+02  0.96018607506E+02  0.12700000000E+01 0. -1.
    8880022    1    1    2    0    0 -0.14240892710E+03 -0.25739480646E+02  0.15299754505E+03  0.26027432679E+03  0.15294330000E+03 0. -1.
    8880022    1    1    2    0    0  0.14240892710E+03  0.25739480646E+02  0.21917186136E+03  0.30392561789E+03  0.15294330000E+03 0. -1.
<mgrwt>
<rscale>  0 0.21055754E+03</rscale>
<asrwt>0</asrwt>
<pdfrwt beam="1">  1        4 0.14771580E-01 0.21055754E+03</pdfrwt>
<pdfrwt beam="2">  1       -4 0.72028413E-01 0.21055754E+03</pdfrwt>
<totfact> 0.12416064E+02</totfact>
</mgrwt>
</event>
<event>
 4    1  0.8478300E-009  0.2183861E+03  0.7818608E-02  0.1135092E+00
          4   -1    0    0  501    0  0.00000000000E+00  0.00000000000E+00  0.47867515489E+02  0.47884360068E+02  0.12700000000E+01 0.  1.
         -4   -1    0    0    0  501 -0.00000000000E+00 -0.00000000000E+00 -0.10316235495E+04  0.10316243312E+04  0.12700000000E+01 0.  1.
    8880022    1    1    2    0    0  0.32289372010E+02  0.15250648483E+03 -0.59196523252E+03  0.63096380323E+03  0.15294330000E+03 0.  0.
    8880022    1    1    2    0    0 -0.32289372010E+02 -0.15250648483E+03 -0.39179080145E+03  0.44854488803E+03  0.15294330000E+03 0.  0.
<mgrwt>
<rscale>  0 0.21838609E+03</rscale>
<asrwt>0</asrwt>
<pdfrwt beam="1">  1        4 0.73655898E-02 0.21838609E+03</pdfrwt>
<pdfrwt beam="2">  1       -4 0.15871265E+00 0.21838609E+03</pdfrwt>
<totfact> 0.62370075E+01</totfact>
</mgrwt>
</event>
<event>
 4    1  0.8478300E-009  0.2195092E+03  0.7818608E-02  0.1134250E+00
         -4   -1    0    0    0  501 -0.00000000000E+00  0.00000000000E+00  0.21986051578E+03  0.21986418376E+03  0.12700000000E+01 0.  1.
          4   -1    0    0  501    0  0.00000000000E+00 -0.00000000000E+00 -0.32783067530E+03  0.32783313525E+03  0.12700000000E+01 0.  1.
    8880022    1    1    2    0    0  0.15643553079E+03  0.17903956400E+02  0.10368721578E+03  0.24276597513E+03  0.15294330000E+03 0.  0.
    8880022    1    1    2    0    0 -0.15643553079E+03 -0.17903956400E+02 -0.21165737529E+03  0.30493134388E+03  0.15294330000E+03 0.  0.
<mgrwt>
<rscale>  0 0.21950918E+03</rscale>
<asrwt>0</asrwt>
<pdfrwt beam="1">  1        4 0.50435960E-01 0.21950918E+03</pdfrwt>
<pdfrwt beam="2">  1       -4 0.33825166E-01 0.21950918E+03</pdfrwt>
<totfact> 0.57802736E+01</totfact>
</mgrwt>
</event>
<event>
 4    1  0.8478300E-009  0.1737544E+03  0.7818608E-02  0.1173988E+00
          4   -1    0    0  501    0  0.00000000000E+00  0.00000000000E+00  0.46868448977E+03  0.46868621044E+03  0.12700000000E+01 0.  1.
         -4   -1    0    0    0  501 -0.00000000000E+00 -0.00000000000E+00 -0.68504207762E+02  0.68515979021E+02  0.12700000000E+01 0.  1.
    8880022    1    1    2    0    0  0.79534624593E+02  0.21752639844E+02  0.13441163182E+03  0.21967492719E+03  0.15294330000E+03 0.  1.
    8880022    1    1    2    0    0 -0.79534624593E+02 -0.21752639844E+02  0.26576865019E+03  0.31752726227E+03  0.15294330000E+03 0.  1.
<mgrwt>
<rscale>  0 0.17375439E+03</rscale>
<asrwt>0</asrwt>
<pdfrwt beam="1">  1        4 0.72106341E-01 0.17375439E+03</pdfrwt>
<pdfrwt beam="2">  1       -4 0.10540147E-01 0.17375439E+03</pdfrwt>
<totfact> 0.21582170E+02</totfact>
</mgrwt>
</event>
<event>
 4    1  0.8478300E-009  0.6791215E+03  0.7818608E-02  0.9753619E-01
         -4   -1    0    0    0  501 -0.00000000000E+00  0.00000000000E+00  0.14778344550E+04  0.14778350007E+04  0.12700000000E+01 0.  1.
          4   -1    0    0  501    0  0.00000000000E+00 -0.00000000000E+00 -0.58732287196E+03  0.58732424505E+03  0.12700000000E+01 0. -1.
    8880022    1    1    2    0    0 -0.55544882297E+03  0.35957051612E+03 -0.26161797789E+03  0.72777054789E+03  0.15294330000E+03 0.  0.
    8880022    1    1    2    0    0  0.55544882297E+03 -0.35957051612E+03  0.11521295610E+04  0.13373886979E+04  0.15294330000E+03 0.  0.
<mgrwt>
<rscale>  0 0.67912149E+03</rscale>
<asrwt>0</asrwt>
<pdfrwt beam="1">  1        4 0.90357512E-01 0.67912149E+03</pdfrwt>
<pdfrwt beam="2">  1       -4 0.22735929E+00 0.67912149E+03</pdfrwt>
<totfact> 0.18163866E-01</totfact>
</mgrwt>
</event>
<event>
 4    1  0.8478300E-009  0.3412703E+03  0.7818608E-02  0.1066256E+00
          4   -1    0    0  501    0  0.00000000000E+00  0.00000000000E+00  0.20754681904E+03  0.20755070463E+03  0.12700000000E+01 0. -1.
         -4   -1    0    0    0  501 -0.00000000000E+00 -0.00000000000E+00 -0.89855847808E+03  0.89855937557E+03  0.12700000000E+01 0. -1.
    8880022    1    1    2    0    0  0.22433865771E+03  0.20675094352E+03 -0.66018876364E+01  0.34133418218E+03  0.15294330000E+03 0.  0.
    8880022    1    1    2    0    0 -0.22433865771E+03 -0.20675094352E+03 -0.68440977141E+03  0.76477589802E+03  0.15294330000E+03 0.  0.
<mgrwt>
<rscale>  0 0.34127033E+03</rscale>
<asrwt>0</asrwt>
<pdfrwt beam="1">  1        4 0.31930648E-01 0.34127033E+03</pdfrwt>
<pdfrwt beam="2">  1       -4 0.13824013E+00 0.34127033E+03</pdfrwt>
<totfact> 0.67696343E+00</totfact>
</mgrwt>
</event>
<event>
 4    1  0.8478300E-009  0.1812920E+03  0.7818608E-02  0.1166558E+00
          4   -1    0    0  501    0  0.00000000000E+00  0.00000000000E+00  0.39532813797E+02  0.39553208046E+02  0.12700000000E+01 0. -1.
         -4   -1    0    0    0  501 -0.00000000000E+00 -0.00000000000E+00 -0.10052724440E+04  0.10052732462E+04  0.12700000000E+01 0. -1.
    8880022    1    1    2    0    0  0.85410173568E+02  0.46693094428E+02 -0.70029080482E+03  0.72337680854E+03  0.15294330000E+03 0.  1.
    8880022    1    1    2    0    0 -0.85410173568E+02 -0.46693094428E+02 -0.26544882535E+03  0.32144964569E+03  0.15294330000E+03 0.  1.
<mgrwt>
<rscale>  0 0.18129202E+03</rscale>
<asrwt>0</asrwt>
<pdfrwt beam="1">  1        4 0.60836026E-02 0.18129202E+03</pdfrwt>
<pdfrwt beam="2">  1       -4 0.15465891E+00 0.18129202E+03</pdfrwt>
<totfact> 0.89464112E+01</totfact>
</mgrwt>
</event>
<event>
 4    1  0.8478300E-009  0.1993133E+03  0.7818608E-02  0.1150320E+00
          4   -1    0    0  501    0  0.00000000000E+00  0.00000000000E+00  0.65788660935E+03  0.65788783517E+03  0.12700000000E+01 0.  1.
         -4   -1    0    0    0  501 -0.00000000000E+00 -0.00000000000E+00 -0.62594309355E+02  0.62607191789E+02  0.12700000000E+01 0.  1.
    8880022    1    1    2    0    0  0.12343928535E+03 -0.33119120935E+02  0.36545661008E+03  0.41627433287E+03  0.15294330000E+03 0.  0.
    8880022    1    1    2    0    0 -0.12343928535E+03  0.33119120935E+02  0.22983568991E+03  0.30422069409E+03  0.15294330000E+03 0.  0.
<mgrwt>
<rscale>  0 0.19931329E+03</rscale>
<asrwt>0</asrwt>
<pdfrwt beam="1">  1        4 0.10121441E+00 0.19931329E+03</pdfrwt>
<pdfrwt beam="2">  1       -4 0.96309791E-02 0.19931329E+03</pdfrwt>
<totfact> 0.11947381E+02</totfact>
</mgrwt>
</event>
<event>
 4    1  0.8478300E-009  0.2268373E+03  0.7818608E-02  0.1128886E+00
          4   -1    0    0  501    0  0.00000000000E+00  0.00000000000E+00  0.44672664760E+03  0.44672845284E+03  0.12700000000E+01 0. -1.
         -4   -1    0    0    0  501 -0.00000000000E+00 -0.00000000000E+00 -0.20096370986E+03  0.20096772273E+03  0.12700000000E+01 0. -1.
    8880022    1    1    2    0    0  0.16272887825E+03  0.39784597551E+02  0.33446621929E+03  0.40413216512E+03  0.15294330000E+03 0.  0.
    8880022    1    1    2    0    0 -0.16272887825E+03 -0.39784597551E+02 -0.88703281549E+02  0.24356401046E+03  0.15294330000E+03 0.  0.
<mgrwt>
<rscale>  0 0.22683729E+03</rscale>
<asrwt>0</asrwt>
<pdfrwt beam="1">  1        4 0.68727623E-01 0.22683729E+03</pdfrwt>
<pdfrwt beam="2">  1       -4 0.30917942E-01 0.22683729E+03</pdfrwt>
<totfact> 0.35857807E+01</totfact>
</mgrwt>
</event>
<event>
 4    1  0.8478300E-009  0.1616128E+03  0.7818608E-02  0.1186888E+00
          4   -1    0    0  501    0  0.00000000000E+00  0.00000000000E+00  0.43582768182E+03  0.43582953220E+03  0.12700000000E+01 0. -1.
         -4   -1    0    0    0  501 -0.00000000000E+00 -0.00000000000E+00 -0.59931825912E+02  0.59945280524E+02  0.12700000000E+01 0. -1.
    8880022    1    1    2    0    0  0.17241805333E+02 -0.49292676056E+02  0.19139167291E+03  0.25049844957E+03  0.15294330000E+03 0.  1.
    8880022    1    1    2    0    0 -0.17241805333E+02  0.49292676056E+02  0.18450418299E+03  0.24527636315E+03  0.15294330000E+03 0.  1.
<mgrwt>
<rscale>  0 0.16161281E+03</rscale>
<asrwt>0</asrwt>
<pdfrwt beam="1">  1        4 0.67051587E-01 0.16161281E+03</pdfrwt>
<pdfrwt beam="2">  1       -4 0.92214587E-02 0.16161281E+03</pdfrwt>
<totfact> 0.31291654E+02</totfact>
</mgrwt>
</event>
<event>
 4    1  0.8478300E-009  0.1806979E+03  0.7818608E-02  0.1167129E+00
          4   -1    0    0  501    0  0.00000000000E+00  0.00000000000E+00  0.40120929450E+02  0.40141024899E+02  0.12700000000E+01 0.  1.
         -4   -1    0    0    0  501 -0.00000000000E+00 -0.00000000000E+00 -0.83632427467E+03  0.83632523895E+03  0.12700000000E+01 0.  1.
    8880022    1    1    2    0    0 -0.25403146108E+02 -0.92815627510E+02 -0.47032544927E+03  0.50384297334E+03  0.15294330000E+03 0.  0.
    8880022    1    1    2    0    0  0.25403146108E+02  0.92815627510E+02 -0.32587789596E+03  0.37262329051E+03  0.15294330000E+03 0.  0.
<mgrwt>
<rscale>  0 0.18069785E+03</rscale>
<asrwt>0</asrwt>
<pdfrwt beam="1">  1        4 0.61740713E-02 0.18069785E+03</pdfrwt>
<pdfrwt beam="2">  1       -4 0.12866688E+00 0.18069785E+03</pdfrwt>
<totfact> 0.13889243E+02</totfact>
</mgrwt>
</event>
<event>
 4    1  0.8478300E-009  0.2098304E+03  0.7818608E-02  0.1141700E+00
          4   -1    0    0  501    0  0.00000000000E+00  0.00000000000E+00  0.54067152759E+03  0.54067301916E+03  0.12700000000E+01 0.  1.
         -4   -1    0    0    0  501 -0.00000000000E+00 -0.00000000000E+00 -0.92074611524E+02  0.92083369765E+02  0.12700000000E+01 0.  1.
    8880022    1    1    2    0    0 -0.11321374857E+03  0.88429679083E+02  0.33187976799E+03  0.39264869084E+03  0.15294330000E+03 0.  0.
    8880022    1    1    2    0    0  0.11321374857E+03 -0.88429679083E+02  0.11671714808E+03  0.24010769808E+03  0.15294330000E+03 0.  0.
<mgrwt>
<rscale>  0 0.20983044E+03</rscale>
<asrwt>0</asrwt>
<pdfrwt beam="1">  1        4 0.83181022E-01 0.20983044E+03</pdfrwt>
<pdfrwt beam="2">  1       -4 0.14166114E-01 0.20983044E+03</pdfrwt>
<totfact> 0.97049986E+01</totfact>
</mgrwt>
</event>
<event>
 4    1  0.8478300E-009  0.1793307E+03  0.7818608E-02  0.1168452E+00
         -4   -1    0    0    0  501 -0.00000000000E+00  0.00000000000E+00  0.41506200238E+02  0.41525625320E+02  0.12700000000E+01 0. -1.
          4   -1    0    0  501    0  0.00000000000E+00 -0.00000000000E+00 -0.87651208058E+03  0.87651300065E+03  0.12700000000E+01 0. -1.
    8880022    1    1    2    0    0 -0.85493087748E+02 -0.38194159428E+02 -0.57401079339E+03  0.60137168691E+03  0.15294330000E+03 0.  0.
    8880022    1    1    2    0    0  0.85493087748E+02  0.38194159428E+02 -0.26099508695E+03  0.31666693906E+03  0.15294330000E+03 0.  0.
<mgrwt>
<rscale>  0 0.17933074E+03</rscale>
<asrwt>0</asrwt>
<pdfrwt beam="1">  1        4 0.13484956E+00 0.17933074E+03</pdfrwt>
<pdfrwt beam="2">  1       -4 0.63871349E-02 0.17933074E+03</pdfrwt>
<totfact> 0.11685575E+02</totfact>
</mgrwt>
</event>
<event>
 4    1  0.8478300E-009  0.1799767E+03  0.7818608E-02  0.1167826E+00
         -4   -1    0    0    0  501 -0.00000000000E+00  0.00000000000E+00  0.70218159560E+02  0.70229643542E+02  0.12700000000E+01 0.  1.
          4   -1    0    0  501    0  0.00000000000E+00 -0.00000000000E+00 -0.46348593310E+03  0.46348767307E+03  0.12700000000E+01 0.  1.
    8880022    1    1    2    0    0  0.92584438417E+02 -0.20690363526E+02 -0.21516979789E+03  0.28051678081E+03  0.15294330000E+03 0.  0.
    8880022    1    1    2    0    0 -0.92584438417E+02  0.20690363526E+02 -0.17809797566E+03  0.25320053580E+03  0.15294330000E+03 0.  0.
<mgrwt>
<rscale>  0 0.17997673E+03</rscale>
<asrwt>0</asrwt>
<pdfrwt beam="1">  1        4 0.71306543E-01 0.17997673E+03</pdfrwt>
<pdfrwt beam="2">  1       -4 0.10803811E-01 0.17997673E+03</pdfrwt>
<totfact> 0.21320283E+02</totfact>
</mgrwt>
</event>
<event>
 4    1  0.8478300E-009  0.1853089E+03  0.7818608E-02  0.1162762E+00
         -4   -1    0    0    0  501 -0.00000000000E+00  0.00000000000E+00  0.22865452713E+04  0.22865456240E+04  0.12700000000E+01 0. -1.
          4   -1    0    0  501    0  0.00000000000E+00 -0.00000000000E+00 -0.35863608802E+02  0.35886088340E+02  0.12700000000E+01 0. -1.
    8880022    1    1    2    0    0  0.87040216023E+02 -0.58066522233E+02  0.23993241290E+03  0.30316156746E+03  0.15294330000E+03 0.  0.
    8880022    1    1    2    0    0 -0.87040216023E+02  0.58066522233E+02  0.20107492496E+04  0.20192701448E+04  0.15294330000E+03 0.  0.
<mgrwt>
<rscale>  0 0.18530886E+03</rscale>
<asrwt>0</asrwt>
<pdfrwt beam="1">  1        4 0.55192332E-02 0.18530886E+03</pdfrwt>
<pdfrwt beam="2">  1       -4 0.35177804E+00 0.18530886E+03</pdfrwt>
<totfact> 0.65225239E+00</totfact>
</mgrwt>
</event>
<event>
 4    1  0.8478300E-009  0.3866099E+03  0.7818608E-02  0.1048517E+00
          4   -1    0    0  501    0  0.00000000000E+00  0.00000000000E+00  0.50730407951E+03  0.50730566919E+03  0.12700000000E+01 0.  1.
         -4   -1    0    0    0  501 -0.00000000000E+00 -0.00000000000E+00 -0.36554564249E+03  0.36554784863E+03  0.12700000000E+01 0.  1.
    8880022    1    1    2    0    0  0.14428026871E+03  0.32443605087E+03 -0.12134957648E+03  0.40520725532E+03  0.15294330000E+03 0.  0.
    8880022    1    1    2    0    0 -0.14428026871E+03 -0.32443605087E+03  0.26310801351E+03  0.46764626250E+03  0.15294330000E+03 0.  0.
<mgrwt>
<rscale>  0 0.38660988E+03</rscale>
<asrwt>0</asrwt>
<pdfrwt beam="1">  1        4 0.78047073E-01 0.38660988E+03</pdfrwt>
<pdfrwt beam="2">  1       -4 0.56238084E-01 0.38660988E+03</pdfrwt>
<totfact> 0.84803171E+00</totfact>
</mgrwt>
</event>
<event>
 4    1  0.8478300E-009  0.1756519E+03  0.7818608E-02  0.1172079E+00
          4   -1    0    0  501    0  0.00000000000E+00  0.00000000000E+00  0.48024030323E+03  0.48024198249E+03  0.12700000000E+01 0.  1.
         -4   -1    0    0    0  501 -0.00000000000E+00 -0.00000000000E+00 -0.87696462253E+02  0.87705657695E+02  0.12700000000E+01 0.  1.
    8880022    1    1    2    0    0  0.79228443676E+02 -0.34420535062E+02  0.34313260339E+03  0.38547834705E+03  0.15294330000E+03 0.  0.
    8880022    1    1    2    0    0 -0.79228443676E+02  0.34420535062E+02  0.49411237584E+02  0.18246929313E+03  0.15294330000E+03 0.  0.
<mgrwt>
<rscale>  0 0.17565185E+03</rscale>
<asrwt>0</asrwt>
<pdfrwt beam="1">  1        4 0.73883959E-01 0.17565185E+03</pdfrwt>
<pdfrwt beam="2">  1       -4 0.13492600E-01 0.17565185E+03</pdfrwt>
<totfact> 0.13408128E+02</totfact>
</mgrwt>
</event>
<event>
 4    1  0.8478300E-009  0.2143289E+03  0.7818608E-02  0.1138183E+00
         -4   -1    0    0    0  501 -0.00000000000E+00  0.00000000000E+00  0.31210009844E+03  0.31210268238E+03  0.12700000000E+01 0. -1.
          4   -1    0    0  501    0  0.00000000000E+00 -0.00000000000E+00 -0.19412334541E+03  0.19412749969E+03  0.12700000000E+01 0. -1.
    8880022    1    1    2    0    0  0.56818858321E+02 -0.13898510608E+03 -0.65479033769E+02  0.22410800800E+03  0.15294330000E+03 0.  0.
    8880022    1    1    2    0    0 -0.56818858321E+02  0.13898510608E+03  0.18345578680E+03  0.28212217406E+03  0.15294330000E+03 0.  0.
<mgrwt>
<rscale>  0 0.21432894E+03</rscale>
<asrwt>0</asrwt>
<pdfrwt beam="1">  1        4 0.29865648E-01 0.21432894E+03</pdfrwt>
<pdfrwt beam="2">  1       -4 0.48015918E-01 0.21432894E+03</pdfrwt>
<totfact> 0.80987760E+01</totfact>
</mgrwt>
</event>
<event>
 4    1  0.8478300E-009  0.1571093E+03  0.7818608E-02  0.1191999E+00
          4   -1    0    0  501    0  0.00000000000E+00  0.00000000000E+00  0.53217185580E+03  0.53217337119E+03  0.12700000000E+01 0.  1.
         -4   -1    0    0    0  501 -0.00000000000E+00 -0.00000000000E+00 -0.16451115983E+03  0.16451606185E+03  0.12700000000E+01 0.  1.
    8880022    1    1    2    0    0  0.15604192148E+02 -0.32375930175E+02  0.47901363416E+03  0.50412042846E+03  0.15294330000E+03 0.  0.
    8880022    1    1    2    0    0 -0.15604192148E+02  0.32375930175E+02 -0.11135293819E+03  0.19256900458E+03  0.15294330000E+03 0.  0.
<mgrwt>
<rscale>  0 0.15710934E+03</rscale>
<asrwt>0</asrwt>
<pdfrwt beam="1">  1        4 0.81873087E-01 0.15710934E+03</pdfrwt>
<pdfrwt beam="2">  1       -4 0.25309903E-01 0.15710934E+03</pdfrwt>
<totfact> 0.34076097E+01</totfact>
</mgrwt>
</event>
<event>
 4    1  0.8478300E-009  0.1590946E+03  0.7818608E-02  0.1189723E+00
         -4   -1    0    0    0  501 -0.00000000000E+00  0.00000000000E+00  0.20829029449E+04  0.20829033321E+04  0.12700000000E+01 0. -1.
          4   -1    0    0  501    0  0.00000000000E+00 -0.00000000000E+00 -0.12794488322E+02  0.12857364870E+02  0.12700000000E+01 0. -1.
    8880022    1    1    2    0    0 -0.42127765967E+02 -0.12029035106E+02  0.79475948241E+03  0.81052682513E+03  0.15294330000E+03 0.  0.
    8880022    1    1    2    0    0  0.42127765967E+02  0.12029035106E+02  0.12753489742E+04  0.12852338718E+04  0.15294330000E+03 0.  0.
<mgrwt>
<rscale>  0 0.15909462E+03</rscale>
<asrwt>0</asrwt>
<pdfrwt beam="1">  1        4 0.19732498E-02 0.15909462E+03</pdfrwt>
<pdfrwt beam="2">  1       -4 0.32045139E+00 0.15909462E+03</pdfrwt>
<totfact> 0.50902368E+01</totfact>
</mgrwt>
</event>
<event>
 4    1  0.8478300E-009  0.4120317E+03  0.7818608E-02  0.1039691E+00
         -4   -1    0    0    0  501 -0.00000000000E+00  0.00000000000E+00  0.21242029384E+03  0.21242409029E+03  0.12700000000E+01 0. -1.
          4   -1    0    0  501    0  0.00000000000E+00 -0.00000000000E+00 -0.81733067264E+03  0.81733165933E+03  0.12700000000E+01 0. -1.
    8880022    1    1    2    0    0 -0.90615633325E+02 -0.37170857404E+03 -0.22578382955E+03  0.46983874650E+03  0.15294330000E+03 0.  0.
    8880022    1    1    2    0    0  0.90615633325E+02  0.37170857404E+03 -0.37912654925E+03  0.55991700312E+03  0.15294330000E+03 0.  0.
<mgrwt>
<rscale>  0 0.41203169E+03</rscale>
<asrwt>0</asrwt>
<pdfrwt beam="1">  1        4 0.12574355E+00 0.41203169E+03</pdfrwt>
<pdfrwt beam="2">  1       -4 0.32680414E-01 0.41203169E+03</pdfrwt>
<totfact> 0.82982352E+00</totfact>
</mgrwt>
</event>
<event>
 4    1  0.8478300E-009  0.1882108E+03  0.7818608E-02  0.1160085E+00
          4   -1    0    0  501    0  0.00000000000E+00  0.00000000000E+00  0.10465625066E+04  0.10465632771E+04  0.12700000000E+01 0.  1.
         -4   -1    0    0    0  501 -0.00000000000E+00 -0.00000000000E+00 -0.36570081062E+02  0.36592126597E+02  0.12700000000E+01 0.  1.
    8880022    1    1    2    0    0  0.78082958220E+02 -0.77036932008E+02  0.65306910025E+03  0.67964883578E+03  0.15294330000E+03 0.  0.
    8880022    1    1    2    0    0 -0.78082958220E+02  0.77036932008E+02  0.35692332524E+03  0.40350656795E+03  0.15294330000E+03 0.  0.
<mgrwt>
<rscale>  0 0.18821076E+03</rscale>
<asrwt>0</asrwt>
<pdfrwt beam="1">  1        4 0.16101137E+00 0.18821076E+03</pdfrwt>
<pdfrwt beam="2">  1       -4 0.56279214E-02 0.18821076E+03</pdfrwt>
<totfact> 0.91873609E+01</totfact>
</mgrwt>
</event>
<event>
 4    1  0.8478300E-009  0.2063082E+03  0.7818608E-02  0.1144523E+00
          4   -1    0    0  501    0  0.00000000000E+00  0.00000000000E+00  0.30613335412E+03  0.30613598842E+03  0.12700000000E+01 0.  1.
         -4   -1    0    0    0  501 -0.00000000000E+00 -0.00000000000E+00 -0.30256436061E+03  0.30256702599E+03  0.12700000000E+01 0.  1.
    8880022    1    1    2    0    0 -0.94576521886E+02 -0.10112725552E+03  0.22553722486E+03  0.30566343110E+03  0.15294330000E+03 0.  0.
    8880022    1    1    2    0    0  0.94576521886E+02  0.10112725552E+03 -0.22196823135E+03  0.30303958330E+03  0.15294330000E+03 0.  0.
<mgrwt>
<rscale>  0 0.20630825E+03</rscale>
<asrwt>0</asrwt>
<pdfrwt beam="1">  1        4 0.47097847E-01 0.20630825E+03</pdfrwt>
<pdfrwt beam="2">  1       -4 0.46548771E-01 0.20630825E+03</pdfrwt>
<totfact> 0.35042106E+01</totfact>
</mgrwt>
</event>
<event>
 4    1  0.8478300E-009  0.2758275E+03  0.7818608E-02  0.1097990E+00
         -4   -1    0    0    0  501 -0.00000000000E+00  0.00000000000E+00  0.11523382487E+04  0.11523389486E+04  0.12700000000E+01 0. -1.
          4   -1    0    0  501    0  0.00000000000E+00 -0.00000000000E+00 -0.70296072225E+02  0.70307543480E+02  0.12700000000E+01 0. -1.
    8880022    1    1    2    0    0  0.18389033449E+03 -0.13738080527E+03  0.69185011898E+03  0.74480694205E+03  0.15294330000E+03 0.  0.
    8880022    1    1    2    0    0 -0.18389033449E+03  0.13738080527E+03  0.39019205753E+03  0.47783955001E+03  0.15294330000E+03 0.  0.
<mgrwt>
<rscale>  0 0.27582747E+03</rscale>
<asrwt>0</asrwt>
<pdfrwt beam="1">  1        4 0.10815717E-01 0.27582747E+03</pdfrwt>
<pdfrwt beam="2">  1       -4 0.17728374E+00 0.27582747E+03</pdfrwt>
<totfact> 0.24708275E+01</totfact>
</mgrwt>
</event>
<event>
 4    1  0.8478300E-009  0.1841685E+03  0.7818608E-02  0.1163829E+00
          4   -1    0    0  501    0  0.00000000000E+00  0.00000000000E+00  0.38067706625E+03  0.38067918470E+03  0.12700000000E+01 0. -1.
         -4   -1    0    0    0  501 -0.00000000000E+00 -0.00000000000E+00 -0.10700520875E+03  0.10701274503E+03  0.12700000000E+01 0. -1.
    8880022    1    1    2    0    0  0.61915613265E+01 -0.10241114294E+03  0.37071740676E+02  0.18786256839E+03  0.15294330000E+03 0.  0.
    8880022    1    1    2    0    0 -0.61915613265E+01  0.10241114294E+03  0.23660011682E+03  0.29982936135E+03  0.15294330000E+03 0.  0.
<mgrwt>
<rscale>  0 0.18416848E+03</rscale>
<asrwt>0</asrwt>
<pdfrwt beam="1">  1        4 0.58566444E-01 0.18416848E+03</pdfrwt>
<pdfrwt beam="2">  1       -4 0.16463083E-01 0.18416848E+03</pdfrwt>
<totfact> 0.15682207E+02</totfact>
</mgrwt>
</event>
<event>
 4    1  0.8478300E-009  0.2186780E+03  0.7818608E-02  0.1134872E+00
          4   -1    0    0  501    0  0.00000000000E+00  0.00000000000E+00  0.40339780406E+03  0.40339980320E+03  0.12700000000E+01 0. -1.
         -4   -1    0    0    0  501 -0.00000000000E+00 -0.00000000000E+00 -0.12076000697E+03  0.12076668490E+03  0.12700000000E+01 0. -1.
    8880022    1    1    2    0    0 -0.33676278010E+01 -0.15625967056E+03  0.10576558435E+03  0.24291240686E+03  0.15294330000E+03 0.  0.
    8880022    1    1    2    0    0  0.33676278010E+01  0.15625967056E+03  0.17687221274E+03  0.28125408124E+03  0.15294330000E+03 0.  0.
<mgrwt>
<rscale>  0 0.21867802E+03</rscale>
<asrwt>0</asrwt>
<pdfrwt beam="1">  1        4 0.62061867E-01 0.21867802E+03</pdfrwt>
<pdfrwt beam="2">  1       -4 0.18579131E-01 0.21867802E+03</pdfrwt>
<totfact> 0.11447044E+02</totfact>
</mgrwt>
</event>
<event>
 4    1  0.8478300E-009  0.2910553E+03  0.7818608E-02  0.1089799E+00
         -4   -1    0    0    0  501 -0.00000000000E+00  0.00000000000E+00  0.12924365516E+03  0.12924989478E+03  0.12700000000E+01 0. -1.
          4   -1    0    0  501    0  0.00000000000E+00 -0.00000000000E+00 -0.80111726244E+03  0.80111826910E+03  0.12700000000E+01 0. -1.
    8880022    1    1    2    0    0 -0.89681978724E+02  0.23082172229E+03 -0.53431077886E+03  0.60844160460E+03  0.15294330000E+03 0.  0.
    8880022    1    1    2    0    0  0.89681978724E+02 -0.23082172229E+03 -0.13756282842E+03  0.32192655928E+03  0.15294330000E+03 0.  0.
<mgrwt>
<rscale>  0 0.29105528E+03</rscale>
<asrwt>0</asrwt>
<pdfrwt beam="1">  1        4 0.12324936E+00 0.29105528E+03</pdfrwt>
<pdfrwt beam="2">  1       -4 0.19884197E-01 0.29105528E+03</pdfrwt>
<totfact> 0.21750506E+01</totfact>
</mgrwt>
</event>
<event>
 4    1  0.8478300E-009  0.1742341E+03  0.7818608E-02  0.1173503E+00
         -4   -1    0    0    0  501 -0.00000000000E+00  0.00000000000E+00  0.38950766136E+03  0.38950973179E+03  0.12700000000E+01 0. -1.
          4   -1    0    0  501    0  0.00000000000E+00 -0.00000000000E+00 -0.10912633123E+03  0.10913372104E+03  0.12700000000E+01 0. -1.
    8880022    1    1    2    0    0  0.36022974459E+02 -0.75287571278E+02  0.27348758998E+03  0.32427301455E+03  0.15294330000E+03 0.  0.
    8880022    1    1    2    0    0 -0.36022974459E+02  0.75287571278E+02  0.68937401494E+01  0.17437043828E+03  0.15294330000E+03 0.  0.
<mgrwt>
<rscale>  0 0.17423411E+03</rscale>
<asrwt>0</asrwt>
<pdfrwt beam="1">  1        4 0.16789394E-01 0.17423411E+03</pdfrwt>
<pdfrwt beam="2">  1       -4 0.59924982E-01 0.17423411E+03</pdfrwt>
<totfact> 0.14310800E+02</totfact>
</mgrwt>
</event>
<event>
 4    1  0.8478300E-009  0.3102515E+03  0.7818608E-02  0.1080225E+00
         -4   -1    0    0    0  501 -0.00000000000E+00  0.00000000000E+00  0.25115501419E+03  0.25115822514E+03  0.12700000000E+01 0. -1.
          4   -1    0    0  501    0  0.00000000000E+00 -0.00000000000E+00 -0.38721706133E+03  0.38721914401E+03  0.12700000000E+01 0. -1.
    8880022    1    1    2    0    0 -0.76821150337E+02 -0.25877182011E+03 -0.10035215056E+03  0.32607752324E+03  0.15294330000E+03 0.  0.
    8880022    1    1    2    0    0  0.76821150337E+02  0.25877182011E+03 -0.35709896578E+02  0.31229984591E+03  0.15294330000E+03 0.  0.
<mgrwt>
<rscale>  0 0.31025151E+03</rscale>
<asrwt>0</asrwt>
<pdfrwt beam="1">  1        4 0.59572263E-01 0.31025151E+03</pdfrwt>
<pdfrwt beam="2">  1       -4 0.38639640E-01 0.31025151E+03</pdfrwt>
<totfact> 0.32557867E+01</totfact>
</mgrwt>
</event>
<event>
 4    1  0.8478300E-009  0.2082683E+03  0.7818608E-02  0.1142945E+00
          4   -1    0    0  501    0  0.00000000000E+00  0.00000000000E+00  0.42677944365E+03  0.42678133326E+03  0.12700000000E+01 0. -1.
         -4   -1    0    0    0  501 -0.00000000000E+00 -0.00000000000E+00 -0.20442369292E+03  0.20442763787E+03  0.12700000000E+01 0. -1.
    8880022    1    1    2    0    0  0.55637537343E+02 -0.12995568254E+03  0.33497528547E+03  0.39444151642E+03  0.15294330000E+03 0.  0.
    8880022    1    1    2    0    0 -0.55637537343E+02  0.12995568254E+03 -0.11261953474E+03  0.23676745470E+03  0.15294330000E+03 0.  0.
<mgrwt>
<rscale>  0 0.20826826E+03</rscale>
<asrwt>0</asrwt>
<pdfrwt beam="1">  1        4 0.65658825E-01 0.20826826E+03</pdfrwt>
<pdfrwt beam="2">  1       -4 0.31450248E-01 0.20826826E+03</pdfrwt>
<totfact> 0.37942452E+01</totfact>
</mgrwt>
</event>
<event>
 4    1  0.8478300E-009  0.1570004E+03  0.7818608E-02  0.1192126E+00
          4   -1    0    0  501    0  0.00000000000E+00  0.00000000000E+00  0.67796860967E+02  0.67808755017E+02  0.12700000000E+01 0. -1.
         -4   -1    0    0    0  501 -0.00000000000E+00 -0.00000000000E+00 -0.40961163077E+03  0.40961359959E+03  0.12700000000E+01 0. -1.
    8880022    1    1    2    0    0 -0.24267166382E+02 -0.25856578583E+02 -0.90840702134E+02  0.18138672553E+03  0.15294330000E+03 0. -1.
    8880022    1    1    2    0    0  0.24267166382E+02  0.25856578583E+02 -0.25097406767E+03  0.29603562907E+03  0.15294330000E+03 0. -1.
<mgrwt>
<rscale>  0 0.15700035E+03</rscale>
<asrwt>0</asrwt>
<pdfrwt beam="1">  1        4 0.10431353E-01 0.15700035E+03</pdfrwt>
<pdfrwt beam="2">  1       -4 0.63018239E-01 0.15700035E+03</pdfrwt>
<totfact> 0.28869467E+02</totfact>
</mgrwt>
</event>
<event>
 4    1  0.8478300E-009  0.1569671E+03  0.7818608E-02  0.1192164E+00
         -4   -1    0    0    0  501 -0.00000000000E+00  0.00000000000E+00  0.26566200072E+02  0.26596538991E+02  0.12700000000E+01 0.  1.
          4   -1    0    0  501    0  0.00000000000E+00 -0.00000000000E+00 -0.10371429736E+04  0.10371437511E+04  0.12700000000E+01 0.  1.
    8880022    1    1    2    0    0 -0.21830428245E+01  0.35245705475E+02 -0.67870299789E+03  0.69661785636E+03  0.15294330000E+03 0.  0.
    8880022    1    1    2    0    0  0.21830428245E+01 -0.35245705475E+02 -0.33187377561E+03  0.36712243377E+03  0.15294330000E+03 0.  0.
<mgrwt>
<rscale>  0 0.15696713E+03</rscale>
<asrwt>0</asrwt>
<pdfrwt beam="1">  1        4 0.15956282E+00 0.15696713E+03</pdfrwt>
<pdfrwt beam="2">  1       -4 0.40895021E-02 0.15696713E+03</pdfrwt>
<totfact> 0.15351645E+02</totfact>
</mgrwt>
</event>
<event>
 4    1  0.8478300E-009  0.3429171E+03  0.7818608E-02  0.1065560E+00
         -4   -1    0    0    0  501 -0.00000000000E+00  0.00000000000E+00  0.10230703621E+04  0.10230711503E+04  0.12700000000E+01 0. -1.
          4   -1    0    0  501    0  0.00000000000E+00 -0.00000000000E+00 -0.11660302595E+03  0.11660994195E+03  0.12700000000E+01 0. -1.
    8880022    1    1    2    0    0  0.22063430677E+03  0.21335650691E+03  0.52136443595E+03  0.62402966633E+03  0.15294330000E+03 0.  0.
    8880022    1    1    2    0    0 -0.22063430677E+03 -0.21335650691E+03  0.38510290017E+03  0.51565142596E+03  0.15294330000E+03 0.  0.
<mgrwt>
<rscale>  0 0.34291712E+03</rscale>
<asrwt>0</asrwt>
<pdfrwt beam="1">  1        4 0.17939519E-01 0.34291712E+03</pdfrwt>
<pdfrwt beam="2">  1       -4 0.15739604E+00 0.34291712E+03</pdfrwt>
<totfact> 0.14205103E+01</totfact>
</mgrwt>
</event>
<event>
 4    1  0.8478300E-009  0.1563458E+03  0.7818608E-02  0.1192885E+00
         -4   -1    0    0    0  501 -0.00000000000E+00  0.00000000000E+00  0.35568623706E+02  0.35591289557E+02  0.12700000000E+01 0. -1.
          4   -1    0    0  501    0  0.00000000000E+00 -0.00000000000E+00 -0.95066159416E+03  0.95066244246E+03  0.12700000000E+01 0. -1.
    8880022    1    1    2    0    0 -0.17211646919E+01 -0.32394108562E+02 -0.71724521495E+03  0.73408765966E+03  0.15294330000E+03 0.  0.
    8880022    1    1    2    0    0  0.17211646919E+01  0.32394108562E+02 -0.19784775549E+03  0.25216607235E+03  0.15294330000E+03 0.  0.
<mgrwt>
<rscale>  0 0.15634575E+03</rscale>
<asrwt>0</asrwt>
<pdfrwt beam="1">  1        4 0.14625742E+00 0.15634575E+03</pdfrwt>
<pdfrwt beam="2">  1       -4 0.54739055E-02 0.15634575E+03</pdfrwt>
<totfact> 0.12013442E+02</totfact>
</mgrwt>
</event>
<event>
 4    1  0.8478300E-009  0.2479082E+03  0.7818608E-02  0.1114634E+00
         -4   -1    0    0    0  501 -0.00000000000E+00  0.00000000000E+00  0.41182281817E+03  0.41182477641E+03  0.12700000000E+01 0. -1.
          4   -1    0    0  501    0  0.00000000000E+00 -0.00000000000E+00 -0.36233514186E+03  0.36233736755E+03  0.12700000000E+01 0. -1.
    8880022    1    1    2    0    0 -0.56893980419E+01 -0.19502421933E+03 -0.27210817837E+03  0.36810505175E+03  0.15294330000E+03 0.  0.
    8880022    1    1    2    0    0  0.56893980419E+01  0.19502421933E+03  0.32159585468E+03  0.40605709222E+03  0.15294330000E+03 0.  0.
<mgrwt>
<rscale>  0 0.24790819E+03</rscale>
<asrwt>0</asrwt>
<pdfrwt beam="1">  1        4 0.55744190E-01 0.24790819E+03</pdfrwt>
<pdfrwt beam="2">  1       -4 0.63357678E-01 0.24790819E+03</pdfrwt>
<totfact> 0.13236081E+01</totfact>
</mgrwt>
</event>
<event>
 4    1  0.8478300E-009  0.3542985E+03  0.7818608E-02  0.1060864E+00
          4   -1    0    0  501    0  0.00000000000E+00  0.00000000000E+00  0.13716017197E+03  0.13716605146E+03  0.12700000000E+01 0. -1.
         -4   -1    0    0    0  501 -0.00000000000E+00 -0.00000000000E+00 -0.93294645015E+03  0.93294731456E+03  0.12700000000E+01 0. -1.
    8880022    1    1    2    0    0  0.25682762817E+03 -0.19019815594E+03 -0.32402072596E+03  0.48012170643E+03  0.15294330000E+03 0.  0.
    8880022    1    1    2    0    0 -0.25682762817E+03  0.19019815594E+03 -0.47176555222E+03  0.58999165960E+03  0.15294330000E+03 0.  0.
<mgrwt>
<rscale>  0 0.35429849E+03</rscale>
<asrwt>0</asrwt>
<pdfrwt beam="1">  1        4 0.21102084E-01 0.35429849E+03</pdfrwt>
<pdfrwt beam="2">  1       -4 0.14353074E+00 0.35429849E+03</pdfrwt>
<totfact> 0.13472188E+01</totfact>
</mgrwt>
</event>
<event>
 4    1  0.8478300E-009  0.4880425E+03  0.7818608E-02  0.1016948E+00
          4   -1    0    0  501    0  0.00000000000E+00  0.00000000000E+00  0.26795305786E+03  0.26795606752E+03  0.12700000000E+01 0. -1.
         -4   -1    0    0    0  501 -0.00000000000E+00 -0.00000000000E+00 -0.90664734773E+03  0.90664823721E+03  0.12700000000E+01 0. -1.
    8880022    1    1    2    0    0  0.26364623519E+03  0.38116198334E+03 -0.23717559657E+03  0.54262114914E+03  0.15294330000E+03 0.  0.
    8880022    1    1    2    0    0 -0.26364623519E+03 -0.38116198334E+03 -0.40151869329E+03  0.63198315559E+03  0.15294330000E+03 0.  0.
<mgrwt>
<rscale>  0 0.48804247E+03</rscale>
<asrwt>0</asrwt>
<pdfrwt beam="1">  1        4 0.41223848E-01 0.48804247E+03</pdfrwt>
<pdfrwt beam="2">  1       -4 0.13948451E+00 0.48804247E+03</pdfrwt>
<totfact> 0.40482840E+00</totfact>
</mgrwt>
</event>
<event>
 4    1  0.8478300E-009  0.1551783E+03  0.7818608E-02  0.1194251E+00
          4   -1    0    0  501    0  0.00000000000E+00  0.00000000000E+00  0.42958569841E+03  0.42958757568E+03  0.12700000000E+01 0. -1.
         -4   -1    0    0    0  501 -0.00000000000E+00 -0.00000000000E+00 -0.58642305740E+02  0.58656056145E+02  0.12700000000E+01 0. -1.
    8880022    1    1    2    0    0  0.16514190334E+02  0.20394174397E+02  0.23683606053E+03  0.28314592248E+03  0.15294330000E+03 0.  0.
    8880022    1    1    2    0    0 -0.16514190334E+02 -0.20394174397E+02  0.13410733214E+03  0.20509770935E+03  0.15294330000E+03 0.  0.
<mgrwt>
<rscale>  0 0.15517826E+03</rscale>
<asrwt>0</asrwt>
<pdfrwt beam="1">  1        4 0.66091311E-01 0.15517826E+03</pdfrwt>
<pdfrwt beam="2">  1       -4 0.90230951E-02 0.15517826E+03</pdfrwt>
<totfact> 0.33236863E+02</totfact>
</mgrwt>
</event>
<event>
 4    1  0.8478300E-009  0.1620491E+03  0.7818608E-02  0.1186403E+00
          4   -1    0    0  501    0  0.00000000000E+00  0.00000000000E+00  0.11649125788E+03  0.11649818051E+03  0.12700000000E+01 0.  1.
         -4   -1    0    0    0  501 -0.00000000000E+00 -0.00000000000E+00 -0.86561231709E+03  0.86561324874E+03  0.12700000000E+01 0.  1.
    8880022    1    1    2    0    0 -0.49936213264E+02 -0.19355746094E+02  0.47744115246E+02  0.16893615320E+03  0.15294330000E+03 0.  0.
    8880022    1    1    2    0    0  0.49936213264E+02  0.19355746094E+02 -0.79686517446E+03  0.81317527605E+03  0.15294330000E+03 0.  0.
<mgrwt>
<rscale>  0 0.16204914E+03</rscale>
<asrwt>0</asrwt>
<pdfrwt beam="1">  1        4 0.17922337E-01 0.16204914E+03</pdfrwt>
<pdfrwt beam="2">  1       -4 0.13317173E+00 0.16204914E+03</pdfrwt>
<totfact> 0.20484248E+01</totfact>
</mgrwt>
</event>
<event>
 4    1  0.8478300E-009  0.2176008E+03  0.7818608E-02  0.1135684E+00
          4   -1    0    0  501    0  0.00000000000E+00  0.00000000000E+00  0.12327319322E+04  0.12327325864E+04  0.12700000000E+01 0.  1.
         -4   -1    0    0    0  501 -0.00000000000E+00 -0.00000000000E+00 -0.11744422701E+03  0.11745109347E+03  0.12700000000E+01 0.  1.
    8880022    1    1    2    0    0  0.41187693829E+02  0.14920468794E+03  0.11114481940E+04  0.11325489862E+04  0.15294330000E+03 0.  0.
    8880022    1    1    2    0    0 -0.41187693829E+02 -0.14920468794E+03  0.38395111153E+01  0.21763469367E+03  0.15294330000E+03 0.  0.
<mgrwt>
<rscale>  0 0.21760082E+03</rscale>
<asrwt>0</asrwt>
<pdfrwt beam="1">  1        4 0.18965164E+00 0.21760082E+03</pdfrwt>
<pdfrwt beam="2">  1       -4 0.18068922E-01 0.21760082E+03</pdfrwt>
<totfact> 0.81656428E+00</totfact>
</mgrwt>
</event>
<event>
 4    1  0.8478300E-009  0.2247392E+03  0.7818608E-02  0.1130398E+00
         -4   -1    0    0    0  501 -0.00000000000E+00  0.00000000000E+00  0.94444399386E+02  0.94452937886E+02  0.12700000000E+01 0.  1.
          4   -1    0    0  501    0  0.00000000000E+00 -0.00000000000E+00 -0.57866858476E+03  0.57866997838E+03  0.12700000000E+01 0.  1.
    8880022    1    1    2    0    0  0.49564913997E+02  0.15703310058E+03 -0.14939760791E+03  0.26986547323E+03  0.15294330000E+03 0.  0.
    8880022    1    1    2    0    0 -0.49564913997E+02 -0.15703310058E+03 -0.33482657746E+03  0.40325744304E+03  0.15294330000E+03 0.  0.
<mgrwt>
<rscale>  0 0.22473925E+03</rscale>
<asrwt>0</asrwt>
<pdfrwt beam="1">  1        4 0.89026698E-01 0.22473925E+03</pdfrwt>
<pdfrwt beam="2">  1       -4 0.14530672E-01 0.22473925E+03</pdfrwt>
<totfact> 0.80290536E+01</totfact>
</mgrwt>
</event>
<event>
 4    1  0.8478300E-009  0.1551662E+03  0.7818608E-02  0.1194265E+00
          4   -1    0    0  501    0  0.00000000000E+00  0.00000000000E+00  0.57148952786E+03  0.57149093900E+03  0.12700000000E+01 0. -1.
         -4   -1    0    0    0  501 -0.00000000000E+00 -0.00000000000E+00 -0.52778928546E+02  0.52794206107E+02  0.12700000000E+01 0. -1.
    8880022    1    1    2    0    0  0.22570212436E+02 -0.13247413190E+02  0.11909511991E+03  0.19560217035E+03  0.15294330000E+03 0.  1.
    8880022    1    1    2    0    0 -0.22570212436E+02  0.13247413190E+02  0.39961547940E+03  0.42868297475E+03  0.15294330000E+03 0.  1.
<mgrwt>
<rscale>  0 0.15516624E+03</rscale>
<asrwt>0</asrwt>
<pdfrwt beam="1">  1        4 0.87922752E-01 0.15516624E+03</pdfrwt>
<pdfrwt beam="2">  1       -4 0.81211187E-02 0.15516624E+03</pdfrwt>
<totfact> 0.21159113E+02</totfact>
</mgrwt>
</event>
<event>
 4    1  0.8478300E-009  0.2847967E+03  0.7818608E-02  0.1093098E+00
          4   -1    0    0  501    0  0.00000000000E+00  0.00000000000E+00  0.21559328709E+03  0.21559702767E+03  0.12700000000E+01 0. -1.
         -4   -1    0    0    0  501 -0.00000000000E+00 -0.00000000000E+00 -0.38197458591E+03  0.38197669717E+03  0.12700000000E+01 0. -1.
    8880022    1    1    2    0    0  0.11489346085E+03 -0.21099051649E+03 -0.46471890955E+02  0.28856332937E+03  0.15294330000E+03 0.  0.
    8880022    1    1    2    0    0 -0.11489346085E+03  0.21099051649E+03 -0.11990940787E+03  0.30901039547E+03  0.15294330000E+03 0.  0.
<mgrwt>
<rscale>  0 0.28479670E+03</rscale>
<asrwt>0</asrwt>
<pdfrwt beam="1">  1        4 0.33168648E-01 0.28479670E+03</pdfrwt>
<pdfrwt beam="2">  1       -4 0.58765771E-01 0.28479670E+03</pdfrwt>
<totfact> 0.44886117E+01</totfact>
</mgrwt>
</event>
<event>
 4    1  0.8478300E-009  0.1625504E+03  0.7818608E-02  0.1185847E+00
          4   -1    0    0  501    0  0.00000000000E+00  0.00000000000E+00  0.12723702632E+03  0.12724336433E+03  0.12700000000E+01 0.  1.
         -4   -1    0    0    0  501 -0.00000000000E+00 -0.00000000000E+00 -0.25149762890E+03  0.25150083547E+03  0.12700000000E+01 0.  1.
    8880022    1    1    2    0    0 -0.25374394205E+02  0.48858298904E+02  0.16938854752E+02  0.16343063075E+03  0.15294330000E+03 0. -1.
    8880022    1    1    2    0    0  0.25374394205E+02 -0.48858298904E+02 -0.14119945733E+03  0.21531356905E+03  0.15294330000E+03 0. -1.
<mgrwt>
<rscale>  0 0.16255044E+03</rscale>
<asrwt>0</asrwt>
<pdfrwt beam="1">  1        4 0.19575661E-01 0.16255044E+03</pdfrwt>
<pdfrwt beam="2">  1       -4 0.38692677E-01 0.16255044E+03</pdfrwt>
<totfact> 0.26203585E+02</totfact>
</mgrwt>
</event>
<event>
 4    1  0.8478300E-009  0.1978625E+03  0.7818608E-02  0.1151555E+00
          4   -1    0    0  501    0  0.00000000000E+00  0.00000000000E+00  0.18708359782E+03  0.18708790841E+03  0.12700000000E+01 0. -1.
         -4   -1    0    0    0  501 -0.00000000000E+00 -0.00000000000E+00 -0.20937652289E+03  0.20938037452E+03  0.12700000000E+01 0. -1.
    8880022    1    1    2    0    0 -0.89609659016E+02 -0.87909154968E+02 -0.63464071207E+01  0.19796424024E+03  0.15294330000E+03 0.  0.
    8880022    1    1    2    0    0  0.89609659016E+02  0.87909154968E+02 -0.15946517946E+02  0.19850404269E+03  0.15294330000E+03 0.  0.
<mgrwt>
<rscale>  0 0.19786249E+03</rscale>
<asrwt>0</asrwt>
<pdfrwt beam="1">  1        4 0.28782720E-01 0.19786249E+03</pdfrwt>
<pdfrwt beam="2">  1       -4 0.32212400E-01 0.19786249E+03</pdfrwt>
<totfact> 0.18945627E+02</totfact>
</mgrwt>
</event>
<event>
 4    1  0.8478300E-009  0.1930998E+03  0.7818608E-02  0.1155695E+00
          4   -1    0    0  501    0  0.00000000000E+00  0.00000000000E+00  0.34860228333E+03  0.34860459670E+03  0.12700000000E+01 0. -1.
         -4   -1    0    0    0  501 -0.00000000000E+00 -0.00000000000E+00 -0.11272942111E+03  0.11273657474E+03  0.12700000000E+01 0. -1.
    8880022    1    1    2    0    0 -0.63518298727E+01  0.11770951611E+03  0.17013424348E+03  0.25735809633E+03  0.15294330000E+03 0.  0.
    8880022    1    1    2    0    0  0.63518298727E+01 -0.11770951611E+03  0.65738618738E+02  0.20398307512E+03  0.15294330000E+03 0.  0.
<mgrwt>
<rscale>  0 0.19309979E+03</rscale>
<asrwt>0</asrwt>
<pdfrwt beam="1">  1        4 0.53631847E-01 0.19309979E+03</pdfrwt>
<pdfrwt beam="2">  1       -4 0.17343717E-01 0.19309979E+03</pdfrwt>
<totfact> 0.17304989E+02</totfact>
</mgrwt>
</event>
<event>
 4    1  0.8478300E-009  0.3583541E+03  0.7818608E-02  0.1059237E+00
         -4   -1    0    0    0  501 -0.00000000000E+00  0.00000000000E+00  0.93967635252E+03  0.93967721074E+03  0.12700000000E+01 0. -1.
          4   -1    0    0  501    0  0.00000000000E+00 -0.00000000000E+00 -0.15103241974E+03  0.15103775923E+03  0.12700000000E+01 0. -1.
    8880022    1    1    2    0    0  0.28708904718E+03 -0.15035263541E+03  0.56256453388E+03  0.66700565498E+03  0.15294330000E+03 0.  0.
    8880022    1    1    2    0    0 -0.28708904718E+03  0.15035263541E+03  0.22607939891E+03  0.42370931499E+03  0.15294330000E+03 0.  0.
<mgrwt>
<rscale>  0 0.35835414E+03</rscale>
<asrwt>0</asrwt>
<pdfrwt beam="1">  1        4 0.23236234E-01 0.35835414E+03</pdfrwt>
<pdfrwt beam="2">  1       -4 0.14456607E+00 0.35835414E+03</pdfrwt>
<totfact> 0.11068344E+01</totfact>
</mgrwt>
</event>
<event>
 4    1  0.8478300E-009  0.2683409E+03  0.7818608E-02  0.1102233E+00
         -4   -1    0    0    0  501 -0.00000000000E+00  0.00000000000E+00  0.26733222344E+03  0.26733524008E+03  0.12700000000E+01 0.  1.
          4   -1    0    0  501    0  0.00000000000E+00 -0.00000000000E+00 -0.29161012978E+03  0.29161289528E+03  0.12700000000E+01 0.  1.
    8880022    1    1    2    0    0 -0.41566269599E+02 -0.21653506489E+03 -0.89358171211E+02  0.28282808360E+03  0.15294330000E+03 0.  0.
    8880022    1    1    2    0    0  0.41566269599E+02  0.21653506489E+03  0.65080264871E+02  0.27612005176E+03  0.15294330000E+03 0.  0.
<mgrwt>
<rscale>  0 0.26834091E+03</rscale>
<asrwt>0</asrwt>
<pdfrwt beam="1">  1        4 0.44863542E-01 0.26834091E+03</pdfrwt>
<pdfrwt beam="2">  1       -4 0.41128479E-01 0.26834091E+03</pdfrwt>
<totfact> 0.51103053E+01</totfact>
</mgrwt>
</event>
<event>
 4    1  0.8478300E-009  0.4268902E+03  0.7818608E-02  0.1034847E+00
         -4   -1    0    0    0  501 -0.00000000000E+00  0.00000000000E+00  0.13449346604E+03  0.13449946211E+03  0.12700000000E+01 0. -1.
          4   -1    0    0  501    0  0.00000000000E+00 -0.00000000000E+00 -0.14566250232E+04  0.14566255769E+04  0.12700000000E+01 0. -1.
    8880022    1    1    2    0    0  0.37407833728E+03  0.13750991203E+03 -0.87126542612E+03  0.97022609431E+03  0.15294330000E+03 0.  0.
    8880022    1    1    2    0    0 -0.37407833728E+03 -0.13750991203E+03 -0.45086613107E+03  0.62089894467E+03  0.15294330000E+03 0.  0.
<mgrwt>
<rscale>  0 0.42689019E+03</rscale>
<asrwt>0</asrwt>
<pdfrwt beam="1">  1        4 0.22409665E+00 0.42689019E+03</pdfrwt>
<pdfrwt beam="2">  1       -4 0.20691807E-01 0.42689019E+03</pdfrwt>
<totfact> 0.39794764E+00</totfact>
</mgrwt>
</event>
<event>
 4    1  0.8478300E-009  0.2462691E+03  0.7818608E-02  0.1115686E+00
         -4   -1    0    0    0  501 -0.00000000000E+00  0.00000000000E+00  0.89318444679E+02  0.89327473153E+02  0.12700000000E+01 0. -1.
          4   -1    0    0  501    0  0.00000000000E+00 -0.00000000000E+00 -0.87783249551E+03  0.87783341419E+03  0.12700000000E+01 0. -1.
    8880022    1    1    2    0    0 -0.11900800284E+03  0.15196677626E+03 -0.62442080172E+03  0.67123006224E+03  0.15294330000E+03 0.  0.
    8880022    1    1    2    0    0  0.11900800284E+03 -0.15196677626E+03 -0.16409324911E+03  0.29593082510E+03  0.15294330000E+03 0.  0.
<mgrwt>
<rscale>  0 0.24626908E+03</rscale>
<asrwt>0</asrwt>
<pdfrwt beam="1">  1        4 0.13505191E+00 0.24626908E+03</pdfrwt>
<pdfrwt beam="2">  1       -4 0.13742065E-01 0.24626908E+03</pdfrwt>
<totfact> 0.33030510E+01</totfact>
</mgrwt>
</event>
<event>
 4    1  0.8478300E-009  0.2071103E+03  0.7818608E-02  0.1143875E+00
         -4   -1    0    0    0  501 -0.00000000000E+00  0.00000000000E+00  0.52425217504E+02  0.52440598112E+02  0.12700000000E+01 0.  1.
          4   -1    0    0  501    0  0.00000000000E+00 -0.00000000000E+00 -0.12635532832E+04  0.12635539215E+04  0.12700000000E+01 0. -1.
    8880022    1    1    2    0    0  0.13205900303E+03 -0.45425334985E+02 -0.21486750860E+03  0.29843381277E+03  0.15294330000E+03 0.  0.
    8880022    1    1    2    0    0 -0.13205900303E+03  0.45425334985E+02 -0.99626055712E+03  0.10175607068E+04  0.15294330000E+03 0.  1.
<mgrwt>
<rscale>  0 0.20711034E+03</rscale>
<asrwt>0</asrwt>
<pdfrwt beam="1">  1        4 0.19439402E+00 0.20711034E+03</pdfrwt>
<pdfrwt beam="2">  1       -4 0.80666512E-02 0.20711034E+03</pdfrwt>
<totfact> 0.30578616E+01</totfact>
</mgrwt>
</event>
<event>
 4    1  0.8478300E-009  0.7733281E+03  0.7818608E-02  0.9599447E-01
         -4   -1    0    0    0  501 -0.00000000000E+00  0.00000000000E+00  0.35650705992E+03  0.35650932200E+03  0.12700000000E+01 0. -1.
          4   -1    0    0  501    0  0.00000000000E+00 -0.00000000000E+00 -0.16819362230E+04  0.16819367025E+04  0.12700000000E+01 0. -1.
    8880022    1    1    2    0    0 -0.39755605214E+03 -0.64544087826E+03 -0.71517455513E+03  0.10533332992E+04  0.15294330000E+03 0.  0.
    8880022    1    1    2    0    0  0.39755605214E+03  0.64544087826E+03 -0.61025460795E+03  0.98511272526E+03  0.15294330000E+03 0.  0.
<mgrwt>
<rscale>  0 0.77332813E+03</rscale>
<asrwt>0</asrwt>
<pdfrwt beam="1">  1        4 0.25875963E+00 0.77332813E+03</pdfrwt>
<pdfrwt beam="2">  1       -4 0.54847452E-01 0.77332813E+03</pdfrwt>
<totfact> 0.35251054E-01</totfact>
</mgrwt>
</event>
<event>
 4    1  0.8478300E-009  0.4669726E+03  0.7818608E-02  0.1022778E+00
          4   -1    0    0  501    0  0.00000000000E+00  0.00000000000E+00  0.48253214057E+03  0.48253381186E+03  0.12700000000E+01 0.  1.
         -4   -1    0    0    0  501 -0.00000000000E+00 -0.00000000000E+00 -0.57502611837E+03  0.57502752083E+03  0.12700000000E+01 0.  1.
    8880022    1    1    2    0    0 -0.88744054149E+02 -0.43219930303E+03 -0.29091968549E+03  0.55017966257E+03  0.15294330000E+03 0.  0.
    8880022    1    1    2    0    0  0.88744054149E+02  0.43219930303E+03  0.19842570770E+03  0.50738167012E+03  0.15294330000E+03 0.  0.
<mgrwt>
<rscale>  0 0.46697259E+03</rscale>
<asrwt>0</asrwt>
<pdfrwt beam="1">  1        4 0.74235951E-01 0.46697259E+03</pdfrwt>
<pdfrwt beam="2">  1       -4 0.88465793E-01 0.46697259E+03</pdfrwt>
<totfact> 0.35135874E+00</totfact>
</mgrwt>
</event>
<event>
 4    1  0.8478300E-009  0.1690182E+03  0.7818608E-02  0.1178876E+00
          4   -1    0    0  501    0  0.00000000000E+00  0.00000000000E+00  0.30129197083E+03  0.30129464746E+03  0.12700000000E+01 0.  1.
         -4   -1    0    0    0  501 -0.00000000000E+00 -0.00000000000E+00 -0.96117341994E+02  0.96125731893E+02  0.12700000000E+01 0.  1.
    8880022    1    1    2    0    0  0.31316632555E+02 -0.64766970945E+02  0.12577716928E+03  0.21068232324E+03  0.15294330000E+03 0.  0.
    8880022    1    1    2    0    0 -0.31316632555E+02  0.64766970945E+02  0.79397459554E+02  0.18673805611E+03  0.15294330000E+03 0.  0.
<mgrwt>
<rscale>  0 0.16901818E+03</rscale>
<asrwt>0</asrwt>
<pdfrwt beam="1">  1        4 0.46353461E-01 0.16901818E+03</pdfrwt>
<pdfrwt beam="2">  1       -4 0.14788135E-01 0.16901818E+03</pdfrwt>
<totfact> 0.30273711E+02</totfact>
</mgrwt>
</event>
<event>
 4    1  0.8478300E-009  0.1904525E+03  0.7818608E-02  0.1158054E+00
          4   -1    0    0  501    0  0.00000000000E+00  0.00000000000E+00  0.91699994391E+03  0.91700082335E+03  0.12700000000E+01 0.  1.
         -4   -1    0    0    0  501 -0.00000000000E+00 -0.00000000000E+00 -0.78569463160E+02  0.78579726656E+02  0.12700000000E+01 0.  1.
    8880022    1    1    2    0    0 -0.44117635150E+02 -0.10456647211E+03  0.68424706300E+02  0.20237120909E+03  0.15294330000E+03 0.  0.
    8880022    1    1    2    0    0  0.44117635150E+02  0.10456647211E+03  0.77000577445E+03  0.79320934092E+03  0.15294330000E+03 0.  0.
<mgrwt>
<rscale>  0 0.19045253E+03</rscale>
<asrwt>0</asrwt>
<pdfrwt beam="1">  1        4 0.14107776E+00 0.19045253E+03</pdfrwt>
<pdfrwt beam="2">  1       -4 0.12088468E-01 0.19045253E+03</pdfrwt>
<totfact> 0.36000626E+01</totfact>
</mgrwt>
</event>
<event>
 4    1  0.8478300E-009  0.2078715E+03  0.7818608E-02  0.1143263E+00
         -4   -1    0    0    0  501 -0.00000000000E+00  0.00000000000E+00  0.48306452438E+03  0.48306619382E+03  0.12700000000E+01 0.  1.
          4   -1    0    0  501    0  0.00000000000E+00 -0.00000000000E+00 -0.31959692337E+03  0.31959944669E+03  0.12700000000E+01 0.  1.
    8880022    1    1    2    0    0  0.14059624581E+03  0.71843485129E+01 -0.25883590105E+03  0.33197378795E+03  0.15294330000E+03 0.  0.
    8880022    1    1    2    0    0 -0.14059624581E+03 -0.71843485129E+01  0.42230350206E+03  0.47069185256E+03  0.15294330000E+03 0.  0.
<mgrwt>
<rscale>  0 0.20787153E+03</rscale>
<asrwt>0</asrwt>
<pdfrwt beam="1">  1        4 0.49169080E-01 0.20787153E+03</pdfrwt>
<pdfrwt beam="2">  1       -4 0.74317942E-01 0.20787153E+03</pdfrwt>
<totfact> 0.11952987E+01</totfact>
</mgrwt>
</event>
<event>
 4    1  0.8478300E-009  0.1760297E+03  0.7818608E-02  0.1171702E+00
         -4   -1    0    0    0  501 -0.00000000000E+00  0.00000000000E+00  0.63483366474E+03  0.63483493507E+03  0.12700000000E+01 0.  1.
          4   -1    0    0  501    0  0.00000000000E+00 -0.00000000000E+00 -0.93039743230E+02  0.93048410628E+02  0.12700000000E+01 0.  1.
    8880022    1    1    2    0    0  0.56222072194E+02  0.66587329488E+02  0.19958200063E+02  0.17715749099E+03  0.15294330000E+03 0.  0.
    8880022    1    1    2    0    0 -0.56222072194E+02 -0.66587329488E+02  0.52183572145E+03  0.55072585471E+03  0.15294330000E+03 0.  0.
<mgrwt>
<rscale>  0 0.17602968E+03</rscale>
<asrwt>0</asrwt>
<pdfrwt beam="1">  1        4 0.14314571E-01 0.17602968E+03</pdfrwt>
<pdfrwt beam="2">  1       -4 0.97667483E-01 0.17602968E+03</pdfrwt>
<totfact> 0.64584037E+01</totfact>
</mgrwt>
</event>
<event>
 4    1  0.8478300E-009  0.3222954E+03  0.7818608E-02  0.1074598E+00
          4   -1    0    0  501    0  0.00000000000E+00  0.00000000000E+00  0.45933072765E+03  0.45933248335E+03  0.12700000000E+01 0.  1.
         -4   -1    0    0    0  501 -0.00000000000E+00 -0.00000000000E+00 -0.25867216883E+03  0.25867528647E+03  0.12700000000E+01 0.  1.
    8880022    1    1    2    0    0  0.17953685450E+03 -0.21965700878E+03  0.22764567790E+03  0.39458445396E+03  0.15294330000E+03 0.  0.
    8880022    1    1    2    0    0 -0.17953685450E+03  0.21965700878E+03 -0.26987119079E+02  0.32342331586E+03  0.15294330000E+03 0.  0.
<mgrwt>
<rscale>  0 0.32229542E+03</rscale>
<asrwt>0</asrwt>
<pdfrwt beam="1">  1        4 0.70666640E-01 0.32229542E+03</pdfrwt>
<pdfrwt beam="2">  1       -4 0.39796093E-01 0.32229542E+03</pdfrwt>
<totfact> 0.21278406E+01</totfact>
</mgrwt>
</event>
<event>
 4    1  0.8478300E-009  0.1640105E+03  0.7818608E-02  0.1184242E+00
         -4   -1    0    0    0  501 -0.00000000000E+00  0.00000000000E+00  0.49105771531E+03  0.49105935758E+03  0.12700000000E+01 0.  1.
          4   -1    0    0  501    0  0.00000000000E+00 -0.00000000000E+00 -0.67194192254E+02  0.67206192964E+02  0.12700000000E+01 0.  1.
    8880022    1    1    2    0    0  0.55241378870E+01 -0.58968371846E+02  0.91915583342E+02  0.18801040517E+03  0.15294330000E+03 0.  1.
    8880022    1    1    2    0    0 -0.55241378870E+01  0.58968371846E+02  0.33194793972E+03  0.37025514537E+03  0.15294330000E+03 0.  1.
<mgrwt>
<rscale>  0 0.16401048E+03</rscale>
<asrwt>0</asrwt>
<pdfrwt beam="1">  1        4 0.10338618E-01 0.16401048E+03</pdfrwt>
<pdfrwt beam="2">  1       -4 0.75548390E-01 0.16401048E+03</pdfrwt>
<totfact> 0.19954686E+02</totfact>
</mgrwt>
</event>
<event>
 4    1  0.8478300E-009  0.2356096E+03  0.7818608E-02  0.1122753E+00
         -4   -1    0    0    0  501 -0.00000000000E+00  0.00000000000E+00  0.10135907185E+04  0.10135915141E+04  0.12700000000E+01 0. -1.
          4   -1    0    0  501    0  0.00000000000E+00 -0.00000000000E+00 -0.84256876970E+02  0.84266447752E+02  0.12700000000E+01 0. -1.
    8880022    1    1    2    0    0  0.17125745952E+03 -0.52830825893E+02  0.13989918367E+03  0.27401395624E+03  0.15294330000E+03 0.  0.
    8880022    1    1    2    0    0 -0.17125745952E+03  0.52830825893E+02  0.78943465782E+03  0.82384400561E+03  0.15294330000E+03 0.  0.
<mgrwt>
<rscale>  0 0.23560956E+03</rscale>
<asrwt>0</asrwt>
<pdfrwt beam="1">  1        4 0.12963394E-01 0.23560956E+03</pdfrwt>
<pdfrwt beam="2">  1       -4 0.15593782E+00 0.23560956E+03</pdfrwt>
<totfact> 0.25184223E+01</totfact>
</mgrwt>
</event>
<event>
 4    1  0.8478300E-009  0.1854823E+03  0.7818608E-02  0.1162600E+00
         -4   -1    0    0    0  501 -0.00000000000E+00  0.00000000000E+00  0.15286289670E+04  0.15286294946E+04  0.12700000000E+01 0. -1.
          4   -1    0    0  501    0  0.00000000000E+00 -0.00000000000E+00 -0.32971309202E+02  0.32995759281E+02  0.12700000000E+01 0. -1.
    8880022    1    1    2    0    0  0.89293949851E+02 -0.55123777498E+02  0.30775017360E+03  0.35932417494E+03  0.15294330000E+03 0.  0.
    8880022    1    1    2    0    0 -0.89293949851E+02  0.55123777498E+02  0.11879074842E+04  0.12023010789E+04  0.15294330000E+03 0.  0.
<mgrwt>
<rscale>  0 0.18548233E+03</rscale>
<asrwt>0</asrwt>
<pdfrwt beam="1">  1        4 0.50744319E-02 0.18548233E+03</pdfrwt>
<pdfrwt beam="2">  1       -4 0.23517554E+00 0.18548233E+03</pdfrwt>
<totfact> 0.36509846E+01</totfact>
</mgrwt>
</event>
<event>
 4    1  0.8478300E-009  0.1553863E+03  0.7818608E-02  0.1194006E+00
          4   -1    0    0  501    0  0.00000000000E+00  0.00000000000E+00  0.61664425711E+02  0.61677502367E+02  0.12700000000E+01 0.  1.
         -4   -1    0    0    0  501 -0.00000000000E+00 -0.00000000000E+00 -0.39513853085E+03  0.39514057177E+03  0.12700000000E+01 0.  1.
    8880022    1    1    2    0    0  0.17794844896E+02 -0.20894439117E+02 -0.18866273932E+03  0.24441464013E+03  0.15294330000E+03 0.  0.
    8880022    1    1    2    0    0 -0.17794844896E+02  0.20894439117E+02 -0.14481136582E+03  0.21240343400E+03  0.15294330000E+03 0.  0.
<mgrwt>
<rscale>  0 0.15538625E+03</rscale>
<asrwt>0</asrwt>
<pdfrwt beam="1">  1        4 0.94879978E-02 0.15538625E+03</pdfrwt>
<pdfrwt beam="2">  1       -4 0.60791705E-01 0.15538625E+03</pdfrwt>
<totfact> 0.36496940E+02</totfact>
</mgrwt>
</event>
<event>
 4    1  0.8478300E-009  0.1538217E+03  0.7818608E-02  0.1195854E+00
         -4   -1    0    0    0  501 -0.00000000000E+00  0.00000000000E+00  0.60764408571E+03  0.60764541288E+03  0.12700000000E+01 0.  1.
          4   -1    0    0  501    0  0.00000000000E+00 -0.00000000000E+00 -0.44001745054E+02  0.44020068921E+02  0.12700000000E+01 0.  1.
    8880022    1    1    2    0    0  0.13907071750E+02 -0.87204444397E+01  0.39244497031E+03  0.42151412851E+03  0.15294330000E+03 0.  0.
    8880022    1    1    2    0    0 -0.13907071750E+02  0.87204444397E+01  0.17119737035E+03  0.23015135330E+03  0.15294330000E+03 0.  0.
<mgrwt>
<rscale>  0 0.15382167E+03</rscale>
<asrwt>0</asrwt>
<pdfrwt beam="1">  1        4 0.67710111E-02 0.15382167E+03</pdfrwt>
<pdfrwt beam="2">  1       -4 0.93485214E-01 0.15382167E+03</pdfrwt>
<totfact> 0.24823313E+02</totfact>
</mgrwt>
</event>
<event>
 4    1  0.8478300E-009  0.1678764E+03  0.7818608E-02  0.1180081E+00
         -4   -1    0    0    0  501 -0.00000000000E+00  0.00000000000E+00  0.88326154612E+02  0.88335284505E+02  0.12700000000E+01 0. -1.
          4   -1    0    0  501    0  0.00000000000E+00 -0.00000000000E+00 -0.33568349311E+03  0.33568589551E+03  0.12700000000E+01 0. -1.
    8880022    1    1    2    0    0  0.63351961091E+02  0.27880975427E+02 -0.76479951845E+02  0.18447670805E+03  0.15294330000E+03 0.  0.
    8880022    1    1    2    0    0 -0.63351961091E+02 -0.27880975427E+02 -0.17087738665E+03  0.23954447196E+03  0.15294330000E+03 0.  0.
<mgrwt>
<rscale>  0 0.16787636E+03</rscale>
<asrwt>0</asrwt>
<pdfrwt beam="1">  1        4 0.51644501E-01 0.16787636E+03</pdfrwt>
<pdfrwt beam="2">  1       -4 0.13589526E-01 0.16787636E+03</pdfrwt>
<totfact> 0.28112429E+02</totfact>
</mgrwt>
</event>
<event>
 4    1  0.8478300E-009  0.4294806E+03  0.7818608E-02  0.1034024E+00
          4   -1    0    0  501    0  0.00000000000E+00  0.00000000000E+00  0.78942830081E+03  0.78942932238E+03  0.12700000000E+01 0.  1.
         -4   -1    0    0    0  501 -0.00000000000E+00 -0.00000000000E+00 -0.23450438421E+03  0.23450782314E+03  0.12700000000E+01 0.  1.
    8880022    1    1    2    0    0 -0.23406362780E+03 -0.32600017414E+03  0.30833356013E+03  0.52869947296E+03  0.15294330000E+03 0.  0.
    8880022    1    1    2    0    0  0.23406362780E+03  0.32600017414E+03  0.24659035648E+03  0.49523767255E+03  0.15294330000E+03 0.  0.
<mgrwt>
<rscale>  0 0.42948056E+03</rscale>
<asrwt>0</asrwt>
<pdfrwt beam="1">  1        4 0.12145085E+00 0.42948056E+03</pdfrwt>
<pdfrwt beam="2">  1       -4 0.36077940E-01 0.42948056E+03</pdfrwt>
<totfact> 0.74642465E+00</totfact>
</mgrwt>
</event>
<event>
 4    1  0.8478300E-009  0.1966412E+03  0.7818608E-02  0.1152604E+00
          4   -1    0    0  501    0  0.00000000000E+00  0.00000000000E+00  0.45814993844E+03  0.45815169867E+03  0.12700000000E+01 0.  1.
         -4   -1    0    0    0  501 -0.00000000000E+00 -0.00000000000E+00 -0.91457608504E+02  0.91466425825E+02  0.12700000000E+01 0.  1.
    8880022    1    1    2    0    0  0.94248156712E+02  0.79958665890E+02  0.25971858960E+03  0.32576295383E+03  0.15294330000E+03 0.  0.
    8880022    1    1    2    0    0 -0.94248156712E+02 -0.79958665890E+02  0.10697374034E+03  0.22385517066E+03  0.15294330000E+03 0.  0.
<mgrwt>
<rscale>  0 0.19664119E+03</rscale>
<asrwt>0</asrwt>
<pdfrwt beam="1">  1        4 0.70485420E-01 0.19664119E+03</pdfrwt>
<pdfrwt beam="2">  1       -4 0.14071215E-01 0.19664119E+03</pdfrwt>
<totfact> 0.14042387E+02</totfact>
</mgrwt>
</event>
<event>
 4    1  0.8478300E-009  0.2528448E+03  0.7818608E-02  0.1111520E+00
         -4   -1    0    0    0  501 -0.00000000000E+00  0.00000000000E+00  0.89835643162E+02  0.89844619662E+02  0.12700000000E+01 0.  1.
          4   -1    0    0  501    0  0.00000000000E+00 -0.00000000000E+00 -0.73167983678E+03  0.73168093897E+03  0.12700000000E+01 0.  1.
    8880022    1    1    2    0    0 -0.11067460077E+03 -0.16819630021E+03 -0.25286438536E+03  0.35759042641E+03  0.15294330000E+03 0.  0.
    8880022    1    1    2    0    0  0.11067460077E+03  0.16819630021E+03 -0.38897980826E+03  0.46393513222E+03  0.15294330000E+03 0.  0.
<mgrwt>
<rscale>  0 0.25284485E+03</rscale>
<asrwt>0</asrwt>
<pdfrwt beam="1">  1        4 0.11256690E+00 0.25284485E+03</pdfrwt>
<pdfrwt beam="2">  1       -4 0.13821644E-01 0.25284485E+03</pdfrwt>
<totfact> 0.51276412E+01</totfact>
</mgrwt>
</event>
<event>
 4    1  0.8478300E-009  0.2683648E+03  0.7818608E-02  0.1102219E+00
          4   -1    0    0  501    0  0.00000000000E+00  0.00000000000E+00  0.84336669466E+02  0.84346231194E+02  0.12700000000E+01 0.  1.
         -4   -1    0    0    0  501 -0.00000000000E+00 -0.00000000000E+00 -0.15235091221E+04  0.15235096514E+04  0.12700000000E+01 0.  1.
    8880022    1    1    2    0    0 -0.98588883191E+02  0.19725170079E+03 -0.12525591873E+04  0.12809856252E+04  0.15294330000E+03 0.  0.
    8880022    1    1    2    0    0  0.98588883191E+02 -0.19725170079E+03 -0.18661326532E+03  0.32687025738E+03  0.15294330000E+03 0.  0.
<mgrwt>
<rscale>  0 0.26836478E+03</rscale>
<asrwt>0</asrwt>
<pdfrwt beam="1">  1        4 0.12975650E-01 0.26836478E+03</pdfrwt>
<pdfrwt beam="2">  1       -4 0.23438678E+00 0.26836478E+03</pdfrwt>
<totfact> 0.78367631E+00</totfact>
</mgrwt>
</event>
<event>
 4    1  0.8478300E-009  0.1686561E+03  0.7818608E-02  0.1179257E+00
         -4   -1    0    0    0  501 -0.00000000000E+00  0.00000000000E+00  0.45764001956E+03  0.45764178175E+03  0.12700000000E+01 0.  1.
          4   -1    0    0  501    0  0.00000000000E+00 -0.00000000000E+00 -0.83072192190E+02  0.83081899444E+02  0.12700000000E+01 0.  1.
    8880022    1    1    2    0    0 -0.37966859810E+02  0.60097677169E+02  0.32296402235E+03  0.36434959310E+03  0.15294330000E+03 0.  0.
    8880022    1    1    2    0    0  0.37966859810E+02 -0.60097677169E+02  0.51603805026E+02  0.17637408810E+03  0.15294330000E+03 0.  0.
<mgrwt>
<rscale>  0 0.16865606E+03</rscale>
<asrwt>0</asrwt>
<pdfrwt beam="1">  1        4 0.12781219E-01 0.16865606E+03</pdfrwt>
<pdfrwt beam="2">  1       -4 0.70407041E-01 0.16865606E+03</pdfrwt>
<totfact> 0.16259764E+02</totfact>
</mgrwt>
</event>
<event>
 4    1  0.8478300E-009  0.2605195E+03  0.7818608E-02  0.1106831E+00
          4   -1    0    0  501    0  0.00000000000E+00  0.00000000000E+00  0.12077365298E+03  0.12078033016E+03  0.12700000000E+01 0.  1.
         -4   -1    0    0    0  501 -0.00000000000E+00 -0.00000000000E+00 -0.63835005813E+03  0.63835132146E+03  0.12700000000E+01 0.  1.
    8880022    1    1    2    0    0  0.21085789365E+03  0.42086610493E+01 -0.12746913162E+03  0.29003240625E+03  0.15294330000E+03 0.  0.
    8880022    1    1    2    0    0 -0.21085789365E+03 -0.42086610493E+01 -0.39010727352E+03  0.46909924538E+03  0.15294330000E+03 0.  0.
<mgrwt>
<rscale>  0 0.26051951E+03</rscale>
<asrwt>0</asrwt>
<pdfrwt beam="1">  1        4 0.18581173E-01 0.26051951E+03</pdfrwt>
<pdfrwt beam="2">  1       -4 0.98208310E-01 0.26051951E+03</pdfrwt>
<totfact> 0.41991059E+01</totfact>
</mgrwt>
</event>
<event>
 4    1  0.8478300E-009  0.2122497E+03  0.7818608E-02  0.1139797E+00
          4   -1    0    0  501    0  0.00000000000E+00  0.00000000000E+00  0.37806803690E+02  0.37828128493E+02  0.12700000000E+01 0.  1.
         -4   -1    0    0    0  501 -0.00000000000E+00 -0.00000000000E+00 -0.13428973495E+04  0.13428979500E+04  0.12700000000E+01 0.  1.
    8880022    1    1    2    0    0  0.13362395262E+03  0.61667675286E+02 -0.42053547575E+03  0.47106263094E+03  0.15294330000E+03 0.  0.
    8880022    1    1    2    0    0 -0.13362395262E+03 -0.61667675286E+02 -0.88455507007E+03  0.90966344760E+03  0.15294330000E+03 0.  0.
<mgrwt>
<rscale>  0 0.21224965E+03</rscale>
<asrwt>0</asrwt>
<pdfrwt beam="1">  1        4 0.58181189E-02 0.21224965E+03</pdfrwt>
<pdfrwt beam="2">  1       -4 0.20660124E+00 0.21224965E+03</pdfrwt>
<totfact> 0.44071900E+01</totfact>
</mgrwt>
</event>
<event>
 4    1  0.8478300E-009  0.1566065E+03  0.7818608E-02  0.1192582E+00
         -4   -1    0    0    0  501 -0.00000000000E+00  0.00000000000E+00  0.10588989755E+03  0.10589751321E+03  0.12700000000E+01 0. -1.
          4   -1    0    0  501    0  0.00000000000E+00 -0.00000000000E+00 -0.29582527046E+03  0.29582799655E+03  0.12700000000E+01 0. -1.
    8880022    1    1    2    0    0  0.87562079783E+01  0.32515849025E+02 -0.18855966808E+03  0.24511293939E+03  0.15294330000E+03 0.  0.
    8880022    1    1    2    0    0 -0.87562079783E+01 -0.32515849025E+02 -0.13757048264E+01  0.15661257036E+03  0.15294330000E+03 0.  0.
<mgrwt>
<rscale>  0 0.15660653E+03</rscale>
<asrwt>0</asrwt>
<pdfrwt beam="1">  1        4 0.45512375E-01 0.15660653E+03</pdfrwt>
<pdfrwt beam="2">  1       -4 0.16291549E-01 0.15660653E+03</pdfrwt>
<totfact> 0.26157751E+02</totfact>
</mgrwt>
</event>
<event>
 4    1  0.8478300E-009  0.1592691E+03  0.7818608E-02  0.1189524E+00
         -4   -1    0    0    0  501 -0.00000000000E+00  0.00000000000E+00  0.98025661961E+03  0.98025744231E+03  0.12700000000E+01 0. -1.
          4   -1    0    0  501    0  0.00000000000E+00 -0.00000000000E+00 -0.72446288158E+02  0.72457418998E+02  0.12700000000E+01 0. -1.
    8880022    1    1    2    0    0  0.39754393664E+02 -0.19863836954E+02  0.31887504011E+02  0.16242983027E+03  0.15294330000E+03 0.  0.
    8880022    1    1    2    0    0 -0.39754393664E+02  0.19863836954E+02  0.87592282744E+03  0.89028503104E+03  0.15294330000E+03 0.  0.
<mgrwt>
<rscale>  0 0.15926907E+03</rscale>
<asrwt>0</asrwt>
<pdfrwt beam="1">  1        4 0.11146503E-01 0.15926907E+03</pdfrwt>
<pdfrwt beam="2">  1       -4 0.15080962E+00 0.15926907E+03</pdfrwt>
<totfact> 0.34197219E+01</totfact>
</mgrwt>
</event>
<event>
 4    1  0.8478300E-009  0.1735068E+03  0.7818608E-02  0.1174239E+00
         -4   -1    0    0    0  501 -0.00000000000E+00  0.00000000000E+00  0.68350246792E+03  0.68350364779E+03  0.12700000000E+01 0. -1.
          4   -1    0    0  501    0  0.00000000000E+00 -0.00000000000E+00 -0.50941432934E+02  0.50957261400E+02  0.12700000000E+01 0. -1.
    8880022    1    1    2    0    0  0.66929656403E+02 -0.47258668046E+02  0.18108086346E+03  0.25078854188E+03  0.15294330000E+03 0.  0.
    8880022    1    1    2    0    0 -0.66929656403E+02  0.47258668046E+02  0.45148017152E+03  0.48367236731E+03  0.15294330000E+03 0.  0.
<mgrwt>
<rscale>  0 0.17350681E+03</rscale>
<asrwt>0</asrwt>
<pdfrwt beam="1">  1        4 0.78384519E-02 0.17350681E+03</pdfrwt>
<pdfrwt beam="2">  1       -4 0.10515553E+00 0.17350681E+03</pdfrwt>
<totfact> 0.15123870E+02</totfact>
</mgrwt>
</event>
<event>
 4    1  0.8478300E-009  0.1825864E+03  0.7818608E-02  0.1165323E+00
          4   -1    0    0  501    0  0.00000000000E+00  0.00000000000E+00  0.47075110897E+03  0.47075282208E+03  0.12700000000E+01 0. -1.
         -4   -1    0    0    0  501 -0.00000000000E+00 -0.00000000000E+00 -0.11235878879E+03  0.11236596602E+03  0.12700000000E+01 0. -1.
    8880022    1    1    2    0    0  0.85908020596E+02 -0.50655106095E+02  0.19088731703E+01  0.18259634330E+03  0.15294330000E+03 0. -1.
    8880022    1    1    2    0    0 -0.85908020596E+02  0.50655106095E+02  0.35648344700E+03  0.40052244479E+03  0.15294330000E+03 0. -1.
<mgrwt>
<rscale>  0 0.18258637E+03</rscale>
<asrwt>0</asrwt>
<pdfrwt beam="1">  1        4 0.72423932E-01 0.18258637E+03</pdfrwt>
<pdfrwt beam="2">  1       -4 0.17286651E-01 0.18258637E+03</pdfrwt>
<totfact> 0.91082464E+01</totfact>
</mgrwt>
</event>
<event>
 4    1  0.8478300E-009  0.2537741E+03  0.7818608E-02  0.1110943E+00
          4   -1    0    0  501    0  0.00000000000E+00  0.00000000000E+00  0.13594163026E+03  0.13594756246E+03  0.12700000000E+01 0.  1.
         -4   -1    0    0    0  501 -0.00000000000E+00 -0.00000000000E+00 -0.52968281817E+03  0.52968434068E+03  0.12700000000E+01 0.  1.
    8880022    1    1    2    0    0 -0.19094001813E+03  0.67465067352E+02 -0.88696465477E+02  0.26882771777E+03  0.15294330000E+03 0.  0.
    8880022    1    1    2    0    0  0.19094001813E+03 -0.67465067352E+02 -0.30504472243E+03  0.39680418538E+03  0.15294330000E+03 0.  0.
<mgrwt>
<rscale>  0 0.25377407E+03</rscale>
<asrwt>0</asrwt>
<pdfrwt beam="1">  1        4 0.20914671E-01 0.25377407E+03</pdfrwt>
<pdfrwt beam="2">  1       -4 0.81490236E-01 0.25377407E+03</pdfrwt>
<totfact> 0.51771626E+01</totfact>
</mgrwt>
</event>
<event>
 4    1  0.8478300E-009  0.1529487E+03  0.7818608E-02  0.1196896E+00
          4   -1    0    0  501    0  0.00000000000E+00  0.00000000000E+00  0.96848377468E+03  0.96848460737E+03  0.12700000000E+01 0.  1.
         -4   -1    0    0    0  501 -0.00000000000E+00 -0.00000000000E+00 -0.37393765156E+02  0.37415325370E+02  0.12700000000E+01 0.  1.
    8880022    1    1    2    0    0 -0.11785245873E+01 -0.51502944482E+00  0.16619508733E+03  0.22586304311E+03  0.15294330000E+03 0.  0.
    8880022    1    1    2    0    0  0.11785245873E+01  0.51502944482E+00  0.76489492220E+03  0.78003688963E+03  0.15294330000E+03 0.  0.
<mgrwt>
<rscale>  0 0.15294871E+03</rscale>
<asrwt>0</asrwt>
<pdfrwt beam="1">  1        4 0.14899921E+00 0.15294871E+03</pdfrwt>
<pdfrwt beam="2">  1       -4 0.57546102E-02 0.15294871E+03</pdfrwt>
<totfact> 0.10530982E+02</totfact>
</mgrwt>
</event>
<event>
 4    1  0.8478300E-009  0.2908635E+03  0.7818608E-02  0.1089899E+00
          4   -1    0    0  501    0  0.00000000000E+00  0.00000000000E+00  0.33416679471E+03  0.33416920802E+03  0.12700000000E+01 0. -1.
         -4   -1    0    0    0  501 -0.00000000000E+00 -0.00000000000E+00 -0.29448673594E+03  0.29448947442E+03  0.12700000000E+01 0. -1.
    8880022    1    1    2    0    0 -0.24678794386E+03 -0.17482429745E+02  0.13758110054E+03  0.32176099333E+03  0.15294330000E+03 0.  0.
    8880022    1    1    2    0    0  0.24678794386E+03  0.17482429745E+02 -0.97901041766E+02  0.30689768911E+03  0.15294330000E+03 0.  0.
<mgrwt>
<rscale>  0 0.29086350E+03</rscale>
<asrwt>0</asrwt>
<pdfrwt beam="1">  1        4 0.51410672E-01 0.29086350E+03</pdfrwt>
<pdfrwt beam="2">  1       -4 0.45306048E-01 0.29086350E+03</pdfrwt>
<totfact> 0.32037529E+01</totfact>
</mgrwt>
</event>
<event>
 4    1  0.8478300E-009  0.3174610E+03  0.7818608E-02  0.1076824E+00
          4   -1    0    0  501    0  0.00000000000E+00  0.00000000000E+00  0.15257008130E+04  0.15257013416E+04  0.12700000000E+01 0.  1.
         -4   -1    0    0    0  501 -0.00000000000E+00 -0.00000000000E+00 -0.42685097749E+03  0.42685286678E+03  0.12700000000E+01 0.  1.
    8880022    1    1    2    0    0  0.24470028685E+03  0.13233146869E+03  0.14469889182E+04  0.14814042090E+04  0.15294330000E+03 0.  0.
    8880022    1    1    2    0    0 -0.24470028685E+03 -0.13233146869E+03 -0.34813908269E+03  0.47114999937E+03  0.15294330000E+03 0.  0.
<mgrwt>
<rscale>  0 0.31746102E+03</rscale>
<asrwt>0</asrwt>
<pdfrwt beam="1">  1        4 0.23472339E+00 0.31746102E+03</pdfrwt>
<pdfrwt beam="2">  1       -4 0.65669567E-01 0.31746102E+03</pdfrwt>
<totfact> 0.34378011E-01</totfact>
</mgrwt>
</event>
<event>
 4    1  0.8478300E-009  0.1976686E+03  0.7818608E-02  0.1151721E+00
          4   -1    0    0  501    0  0.00000000000E+00  0.00000000000E+00  0.14533163630E+03  0.14533718523E+03  0.12700000000E+01 0. -1.
         -4   -1    0    0    0  501 -0.00000000000E+00 -0.00000000000E+00 -0.29488035591E+03  0.29488309073E+03  0.12700000000E+01 0. -1.
    8880022    1    1    2    0    0 -0.60686572473E+02 -0.10953703470E+03 -0.93671061841E+01  0.19789041852E+03  0.15294330000E+03 0.  0.
    8880022    1    1    2    0    0  0.60686572473E+02  0.10953703470E+03 -0.14018161342E+03  0.24232985744E+03  0.15294330000E+03 0.  0.
<mgrwt>
<rscale>  0 0.19766860E+03</rscale>
<asrwt>0</asrwt>
<pdfrwt beam="1">  1        4 0.22359351E-01 0.19766860E+03</pdfrwt>
<pdfrwt beam="2">  1       -4 0.45366846E-01 0.19766860E+03</pdfrwt>
<totfact> 0.15447499E+02</totfact>
</mgrwt>
</event>
<event>
 4    1  0.8478300E-009  0.1702537E+03  0.7818608E-02  0.1177584E+00
          4   -1    0    0  501    0  0.00000000000E+00  0.00000000000E+00  0.14678009975E+04  0.14678015469E+04  0.12700000000E+01 0.  1.
         -4   -1    0    0    0  501 -0.00000000000E+00 -0.00000000000E+00 -0.35915562699E+02  0.35938009739E+02  0.12700000000E+01 0.  1.
    8880022    1    1    2    0    0  0.17390829291E+02 -0.72747621777E+02  0.21138726636E+03  0.27142381401E+03  0.15294330000E+03 0. -1.
    8880022    1    1    2    0    0 -0.17390829291E+02  0.72747621777E+02  0.12204981684E+04  0.12323157427E+04  0.15294330000E+03 0. -1.
<mgrwt>
<rscale>  0 0.17025366E+03</rscale>
<asrwt>0</asrwt>
<pdfrwt beam="1">  1        4 0.22581726E+00 0.17025366E+03</pdfrwt>
<pdfrwt beam="2">  1       -4 0.55272413E-02 0.17025366E+03</pdfrwt>
<totfact> 0.35827026E+01</totfact>
</mgrwt>
</event>
<event>
 4    1  0.8478300E-009  0.2647913E+03  0.7818608E-02  0.1104298E+00
          4   -1    0    0  501    0  0.00000000000E+00  0.00000000000E+00  0.12576149787E+03  0.12576791025E+03  0.12700000000E+01 0.  1.
         -4   -1    0    0    0  501 -0.00000000000E+00 -0.00000000000E+00 -0.69087449553E+03  0.69087566282E+03  0.12700000000E+01 0.  1.
    8880022    1    1    2    0    0  0.75118519562E+02 -0.20268197880E+03 -0.10314895493E+03  0.28417272288E+03  0.15294330000E+03 0.  0.
    8880022    1    1    2    0    0 -0.75118519562E+02  0.20268197880E+03 -0.46196404273E+03  0.53247085019E+03  0.15294330000E+03 0.  0.
<mgrwt>
<rscale>  0 0.26479129E+03</rscale>
<asrwt>0</asrwt>
<pdfrwt beam="1">  1        4 0.19348506E-01 0.26479129E+03</pdfrwt>
<pdfrwt beam="2">  1       -4 0.10628896E+00 0.26479129E+03</pdfrwt>
<totfact> 0.32427787E+01</totfact>
</mgrwt>
</event>
<event>
 4    1  0.8478300E-009  0.2135582E+03  0.7818608E-02  0.1138779E+00
         -4   -1    0    0    0  501 -0.00000000000E+00  0.00000000000E+00  0.39401787332E+03  0.39401992005E+03  0.12700000000E+01 0. -1.
          4   -1    0    0  501    0  0.00000000000E+00 -0.00000000000E+00 -0.13699731761E+03  0.13700320410E+03  0.12700000000E+01 0. -1.
    8880022    1    1    2    0    0 -0.13440871698E+03 -0.64418629967E+02  0.23308756091E+03  0.31612802336E+03  0.15294330000E+03 0.  0.
    8880022    1    1    2    0    0  0.13440871698E+03  0.64418629967E+02  0.23932994798E+02  0.21489510078E+03  0.15294330000E+03 0.  0.
<mgrwt>
<rscale>  0 0.21355823E+03</rscale>
<asrwt>0</asrwt>
<pdfrwt beam="1">  1        4 0.21077121E-01 0.21355823E+03</pdfrwt>
<pdfrwt beam="2">  1       -4 0.60618743E-01 0.21355823E+03</pdfrwt>
<totfact> 0.95434176E+01</totfact>
</mgrwt>
</event>
<event>
 4    1  0.8478300E-009  0.3152114E+03  0.7818608E-02  0.1077874E+00
          4   -1    0    0  501    0  0.00000000000E+00  0.00000000000E+00  0.66033988933E+03  0.66034111059E+03  0.12700000000E+01 0. -1.
         -4   -1    0    0    0  501 -0.00000000000E+00 -0.00000000000E+00 -0.20631471198E+03  0.20631862078E+03  0.12700000000E+01 0. -1.
    8880022    1    1    2    0    0  0.25024432048E+03 -0.11551789955E+03  0.15511560703E+01  0.31521526636E+03  0.15294330000E+03 0.  0.
    8880022    1    1    2    0    0 -0.25024432048E+03  0.11551789955E+03  0.45247402128E+03  0.55144446501E+03  0.15294330000E+03 0.  0.
<mgrwt>
<rscale>  0 0.31521145E+03</rscale>
<asrwt>0</asrwt>
<pdfrwt beam="1">  1        4 0.10159115E+00 0.31521145E+03</pdfrwt>
<pdfrwt beam="2">  1       -4 0.31741119E-01 0.31521145E+03</pdfrwt>
<totfact> 0.14497871E+01</totfact>
</mgrwt>
</event>
<event>
 4    1  0.8478300E-009  0.1782679E+03  0.7818608E-02  0.1169490E+00
          4   -1    0    0  501    0  0.00000000000E+00  0.00000000000E+00  0.24341000172E+02  0.24374108997E+02  0.12700000000E+01 0.  1.
         -4   -1    0    0    0  501 -0.00000000000E+00 -0.00000000000E+00 -0.13168744852E+04  0.13168750976E+04  0.12700000000E+01 0.  1.
    8880022    1    1    2    0    0 -0.91485367844E+02  0.42672915557E+01 -0.58171254325E+03  0.60841508717E+03  0.15294330000E+03 0. -1.
    8880022    1    1    2    0    0  0.91485367844E+02 -0.42672915557E+01 -0.71082094178E+03  0.73283411943E+03  0.15294330000E+03 0. -1.
<mgrwt>
<rscale>  0 0.17826788E+03</rscale>
<asrwt>0</asrwt>
<pdfrwt beam="1">  1        4 0.37473642E-02 0.17826788E+03</pdfrwt>
<pdfrwt beam="2">  1       -4 0.20259861E+00 0.17826788E+03</pdfrwt>
<totfact> 0.93134786E+01</totfact>
</mgrwt>
</event>
<event>
 4    1  0.8478300E-009  0.2379065E+03  0.7818608E-02  0.1121195E+00
          4   -1    0    0  501    0  0.00000000000E+00  0.00000000000E+00  0.16995614895E+03  0.16996089393E+03  0.12700000000E+01 0. -1.
         -4   -1    0    0    0  501 -0.00000000000E+00 -0.00000000000E+00 -0.33830028787E+03  0.33830267169E+03  0.12700000000E+01 0. -1.
    8880022    1    1    2    0    0 -0.80880661817E+02  0.16329783306E+03 -0.11594035181E+03  0.26465389083E+03  0.15294330000E+03 0.  0.
    8880022    1    1    2    0    0  0.80880661817E+02 -0.16329783306E+03 -0.52403787116E+02  0.24360967480E+03  0.15294330000E+03 0.  0.
<mgrwt>
<rscale>  0 0.23790653E+03</rscale>
<asrwt>0</asrwt>
<pdfrwt beam="1">  1        4 0.26147648E-01 0.23790653E+03</pdfrwt>
<pdfrwt beam="2">  1       -4 0.52046746E-01 0.23790653E+03</pdfrwt>
<totfact> 0.89394229E+01</totfact>
</mgrwt>
</event>
<event>
 4    1  0.8478300E-009  0.1569265E+03  0.7818608E-02  0.1192211E+00
         -4   -1    0    0    0  501 -0.00000000000E+00  0.00000000000E+00  0.17915533446E+03  0.17915983581E+03  0.12700000000E+01 0. -1.
          4   -1    0    0  501    0  0.00000000000E+00 -0.00000000000E+00 -0.14432356121E+03  0.14432914890E+03  0.12700000000E+01 0. -1.
    8880022    1    1    2    0    0 -0.10232724914E+02  0.33608877707E+02  0.52721711395E+02  0.16554605760E+03  0.15294330000E+03 0.  0.
    8880022    1    1    2    0    0  0.10232724914E+02 -0.33608877707E+02 -0.17889938144E+02  0.15794292710E+03  0.15294330000E+03 0.  0.
<mgrwt>
<rscale>  0 0.15692647E+03</rscale>
<asrwt>0</asrwt>
<pdfrwt beam="1">  1        4 0.22204401E-01 0.15692647E+03</pdfrwt>
<pdfrwt beam="2">  1       -4 0.27563135E-01 0.15692647E+03</pdfrwt>
<totfact> 0.39726773E+02</totfact>
</mgrwt>
</event>
<event>
 4    1  0.8478300E-009  0.6313471E+03  0.7818608E-02  0.9842424E-01
          4   -1    0    0  501    0  0.00000000000E+00  0.00000000000E+00  0.22443157320E+03  0.22443516647E+03  0.12700000000E+01 0.  1.
         -4   -1    0    0    0  501 -0.00000000000E+00 -0.00000000000E+00 -0.17967673013E+04  0.17967677502E+04  0.12700000000E+01 0.  1.
    8880022    1    1    2    0    0  0.29841944752E+03  0.53493305010E+03 -0.67757380342E+03  0.92612388310E+03  0.15294330000E+03 0.  0.
    8880022    1    1    2    0    0 -0.29841944752E+03 -0.53493305010E+03 -0.89476192470E+03  0.10950790335E+04  0.15294330000E+03 0.  0.
<mgrwt>
<rscale>  0 0.63134712E+03</rscale>
<asrwt>0</asrwt>
<pdfrwt beam="1">  1        4 0.34528246E-01 0.63134712E+03</pdfrwt>
<pdfrwt beam="2">  1       -4 0.27642604E+00 0.63134712E+03</pdfrwt>
<totfact> 0.71728712E-01</totfact>
</mgrwt>
</event>
<event>
 4    1  0.8478300E-009  0.1554192E+03  0.7818608E-02  0.1193968E+00
          4   -1    0    0  501    0  0.00000000000E+00  0.00000000000E+00  0.35581599513E+02  0.35604257104E+02  0.12700000000E+01 0. -1.
         -4   -1    0    0    0  501 -0.00000000000E+00 -0.00000000000E+00 -0.10940028938E+04  0.10940036309E+04  0.12700000000E+01 0. -1.
    8880022    1    1    2    0    0  0.71177620475E+01 -0.26698763629E+02 -0.18119033543E+03  0.23871547328E+03  0.15294330000E+03 0.  0.
    8880022    1    1    2    0    0 -0.71177620475E+01  0.26698763629E+02 -0.87723095885E+03  0.89089241477E+03  0.15294330000E+03 0.  0.
<mgrwt>
<rscale>  0 0.15541924E+03</rscale>
<asrwt>0</asrwt>
<pdfrwt beam="1">  1        4 0.54758927E-02 0.15541924E+03</pdfrwt>
<pdfrwt beam="2">  1       -4 0.16830991E+00 0.15541924E+03</pdfrwt>
<totfact> 0.83284444E+01</totfact>
</mgrwt>
</event>
<event>
 4    1  0.8478300E-009  0.3279669E+03  0.7818608E-02  0.1072040E+00
          4   -1    0    0  501    0  0.00000000000E+00  0.00000000000E+00  0.13883783206E+03  0.13884364051E+03  0.12700000000E+01 0.  1.
         -4   -1    0    0    0  501 -0.00000000000E+00 -0.00000000000E+00 -0.15472683219E+04  0.15472688431E+04  0.12700000000E+01 0.  1.
    8880022    1    1    2    0    0 -0.14483388448E+03  0.25138376783E+03 -0.10850070499E+03  0.34544856176E+03  0.15294330000E+03 0.  0.
    8880022    1    1    2    0    0  0.14483388448E+03 -0.25138376783E+03 -0.12999297848E+04  0.13406639219E+04  0.15294330000E+03 0.  0.
<mgrwt>
<rscale>  0 0.32796693E+03</rscale>
<asrwt>0</asrwt>
<pdfrwt beam="1">  1        4 0.21360154E-01 0.32796693E+03</pdfrwt>
<pdfrwt beam="2">  1       -4 0.23804175E+00 0.32796693E+03</pdfrwt>
<totfact> 0.30689801E+00</totfact>
</mgrwt>
</event>
<event>
 4    1  0.8478300E-009  0.2190575E+03  0.7818608E-02  0.1134588E+00
         -4   -1    0    0    0  501 -0.00000000000E+00  0.00000000000E+00  0.52045366682E+03  0.52045521633E+03  0.12700000000E+01 0. -1.
          4   -1    0    0  501    0  0.00000000000E+00 -0.00000000000E+00 -0.92240990249E+02  0.92249732694E+02  0.12700000000E+01 0. -1.
    8880022    1    1    2    0    0 -0.13308902083E+03  0.82956916025E+02  0.22097354512E+03  0.31115188902E+03  0.15294330000E+03 0.  1.
    8880022    1    1    2    0    0  0.13308902083E+03 -0.82956916025E+02  0.20723913145E+03  0.30155306001E+03  0.15294330000E+03 0.  1.
<mgrwt>
<rscale>  0 0.21905750E+03</rscale>
<asrwt>0</asrwt>
<pdfrwt beam="1">  1        4 0.14191713E-01 0.21905750E+03</pdfrwt>
<pdfrwt beam="2">  1       -4 0.80070587E-01 0.21905750E+03</pdfrwt>
<totfact> 0.10596574E+02</totfact>
</mgrwt>
</event>
<event>
 4    1  0.8478300E-009  0.3386296E+03  0.7818608E-02  0.1067381E+00
         -4   -1    0    0    0  501 -0.00000000000E+00  0.00000000000E+00  0.10667517267E+04  0.10667524827E+04  0.12700000000E+01 0.  1.
          4   -1    0    0  501    0  0.00000000000E+00 -0.00000000000E+00 -0.14362105942E+03  0.14362667443E+03  0.12700000000E+01 0.  1.
    8880022    1    1    2    0    0 -0.26808429457E+03 -0.13931685723E+03  0.15802845886E+03  0.37368840299E+03  0.15294330000E+03 0.  0.
    8880022    1    1    2    0    0  0.26808429457E+03  0.13931685723E+03  0.76510220844E+03  0.83669075415E+03  0.15294330000E+03 0.  0.
<mgrwt>
<rscale>  0 0.33862963E+03</rscale>
<asrwt>0</asrwt>
<pdfrwt beam="1">  1        4 0.22096038E-01 0.33862963E+03</pdfrwt>
<pdfrwt beam="2">  1       -4 0.16411614E+00 0.33862963E+03</pdfrwt>
<totfact> 0.86644625E+00</totfact>
</mgrwt>
</event>
<event>
 4    1  0.8478300E-009  0.2021612E+03  0.7818608E-02  0.1147928E+00
         -4   -1    0    0    0  501 -0.00000000000E+00  0.00000000000E+00  0.81560056396E+03  0.81560155274E+03  0.12700000000E+01 0.  1.
          4   -1    0    0  501    0  0.00000000000E+00 -0.00000000000E+00 -0.90712385078E+02  0.90721274828E+02  0.12700000000E+01 0.  1.
    8880022    1    1    2    0    0 -0.28404451693E+02  0.12911498342E+03  0.66563455981E+03  0.69565689248E+03  0.15294330000E+03 0.  0.
    8880022    1    1    2    0    0  0.28404451693E+02 -0.12911498342E+03  0.59253619069E+02  0.21066593509E+03  0.15294330000E+03 0.  0.
<mgrwt>
<rscale>  0 0.20216119E+03</rscale>
<asrwt>0</asrwt>
<pdfrwt beam="1">  1        4 0.13956513E-01 0.20216119E+03</pdfrwt>
<pdfrwt beam="2">  1       -4 0.12547776E+00 0.20216119E+03</pdfrwt>
<totfact> 0.37800095E+01</totfact>
</mgrwt>
</event>
<event>
 4    1  0.8478300E-009  0.2860080E+03  0.7818608E-02  0.1092452E+00
         -4   -1    0    0    0  501 -0.00000000000E+00  0.00000000000E+00  0.25869471743E+03  0.25869783479E+03  0.12700000000E+01 0. -1.
          4   -1    0    0  501    0  0.00000000000E+00 -0.00000000000E+00 -0.32288247873E+03  0.32288497638E+03  0.12700000000E+01 0. -1.
    8880022    1    1    2    0    0  0.22038153225E+03  0.99201256752E+02 -0.73931466837E+02  0.29540890965E+03  0.15294330000E+03 0.  0.
    8880022    1    1    2    0    0 -0.22038153225E+03 -0.99201256752E+02  0.97437055370E+01  0.28617390152E+03  0.15294330000E+03 0.  0.
<mgrwt>
<rscale>  0 0.28600798E+03</rscale>
<asrwt>0</asrwt>
<pdfrwt beam="1">  1        4 0.49674659E-01 0.28600798E+03</pdfrwt>
<pdfrwt beam="2">  1       -4 0.39799619E-01 0.28600798E+03</pdfrwt>
<totfact> 0.44595192E+01</totfact>
</mgrwt>
</event>
<event>
 4    1  0.8478300E-009  0.4539158E+03  0.7818608E-02  0.1026561E+00
         -4   -1    0    0    0  501 -0.00000000000E+00  0.00000000000E+00  0.13064404167E+03  0.13065021441E+03  0.12700000000E+01 0. -1.
          4   -1    0    0  501    0  0.00000000000E+00 -0.00000000000E+00 -0.17680242820E+04  0.17680247381E+04  0.12700000000E+01 0. -1.
    8880022    1    1    2    0    0  0.25990945652E+02  0.42658224071E+03 -0.11306856462E+04  0.12183963316E+04  0.15294330000E+03 0.  0.
    8880022    1    1    2    0    0 -0.25990945652E+02 -0.42658224071E+03 -0.50669459409E+03  0.68027862089E+03  0.15294330000E+03 0.  0.
<mgrwt>
<rscale>  0 0.45391584E+03</rscale>
<asrwt>0</asrwt>
<pdfrwt beam="1">  1        4 0.27200423E+00 0.45391584E+03</pdfrwt>
<pdfrwt beam="2">  1       -4 0.20099595E-01 0.45391584E+03</pdfrwt>
<totfact> 0.21530209E+00</totfact>
</mgrwt>
</event>
<event>
 4    1  0.8478300E-009  0.1584297E+03  0.7818608E-02  0.1190481E+00
          4   -1    0    0  501    0  0.00000000000E+00  0.00000000000E+00  0.11098427461E+04  0.11098434728E+04  0.12700000000E+01 0.  1.
         -4   -1    0    0    0  501 -0.00000000000E+00 -0.00000000000E+00 -0.35186338820E+02  0.35209250767E+02  0.12700000000E+01 0.  1.
    8880022    1    1    2    0    0  0.41319288856E+02  0.10131113874E+01  0.19501710133E+03  0.25126009005E+03  0.15294330000E+03 0.  1.
    8880022    1    1    2    0    0 -0.41319288856E+02 -0.10131113874E+01  0.87963930598E+03  0.89379263349E+03  0.15294330000E+03 0.  1.
<mgrwt>
<rscale>  0 0.15842968E+03</rscale>
<asrwt>0</asrwt>
<pdfrwt beam="1">  1        4 0.17074686E+00 0.15842968E+03</pdfrwt>
<pdfrwt beam="2">  1       -4 0.54151013E-02 0.15842968E+03</pdfrwt>
<totfact> 0.81830105E+01</totfact>
</mgrwt>
</event>
<event>
 4    1  0.8478300E-009  0.2160998E+03  0.7818608E-02  0.1136825E+00
          4   -1    0    0  501    0  0.00000000000E+00  0.00000000000E+00  0.32935071622E+03  0.32935316482E+03  0.12700000000E+01 0.  1.
         -4   -1    0    0    0  501 -0.00000000000E+00 -0.00000000000E+00 -0.14270187956E+03  0.14270753074E+03  0.12700000000E+01 0.  1.
    8880022    1    1    2    0    0  0.15090925178E+03  0.23106036877E+02  0.11223595565E+03  0.24350781090E+03  0.15294330000E+03 0.  0.
    8880022    1    1    2    0    0 -0.15090925178E+03 -0.23106036877E+02  0.74412881009E+02  0.22855288466E+03  0.15294330000E+03 0.  0.
<mgrwt>
<rscale>  0 0.21609985E+03</rscale>
<asrwt>0</asrwt>
<pdfrwt beam="1">  1        4 0.50669964E-01 0.21609985E+03</pdfrwt>
<pdfrwt beam="2">  1       -4 0.21954759E-01 0.21609985E+03</pdfrwt>
<totfact> 0.12906144E+02</totfact>
</mgrwt>
</event>
<event>
 4    1  0.8478300E-009  0.2889774E+03  0.7818608E-02  0.1090884E+00
         -4   -1    0    0    0  501 -0.00000000000E+00  0.00000000000E+00  0.13260154680E+03  0.13260762842E+03  0.12700000000E+01 0.  1.
          4   -1    0    0  501    0  0.00000000000E+00 -0.00000000000E+00 -0.13654338762E+04  0.13654344668E+04  0.12700000000E+01 0.  1.
    8880022    1    1    2    0    0  0.18858721366E+03  0.15668798840E+03 -0.66616110511E+02  0.29655627132E+03  0.15294330000E+03 0.  0.
    8880022    1    1    2    0    0 -0.18858721366E+03 -0.15668798840E+03 -0.11662162189E+04  0.12014858239E+04  0.15294330000E+03 0.  0.
<mgrwt>
<rscale>  0 0.28897736E+03</rscale>
<asrwt>0</asrwt>
<pdfrwt beam="1">  1        4 0.21006725E+00 0.28897736E+03</pdfrwt>
<pdfrwt beam="2">  1       -4 0.20400752E-01 0.28897736E+03</pdfrwt>
<totfact> 0.49344192E+00</totfact>
</mgrwt>
</event>
<event>
 4    1  0.8478300E-009  0.1866666E+03  0.7818608E-02  0.1161503E+00
          4   -1    0    0  501    0  0.00000000000E+00  0.00000000000E+00  0.92222504854E+03  0.92222592300E+03  0.12700000000E+01 0.  1.
         -4   -1    0    0    0  501 -0.00000000000E+00 -0.00000000000E+00 -0.37802141841E+02  0.37823469272E+02  0.12700000000E+01 0.  1.
    8880022    1    1    2    0    0  0.35740331510E+02 -0.10087309512E+03  0.45589418888E+03  0.49262959420E+03  0.15294330000E+03 0.  1.
    8880022    1    1    2    0    0 -0.35740331510E+02  0.10087309512E+03  0.42852871782E+03  0.46741979807E+03  0.15294330000E+03 0.  1.
<mgrwt>
<rscale>  0 0.18666656E+03</rscale>
<asrwt>0</asrwt>
<pdfrwt beam="1">  1        4 0.14188247E+00 0.18666656E+03</pdfrwt>
<pdfrwt beam="2">  1       -4 0.58174225E-02 0.18666656E+03</pdfrwt>
<totfact> 0.12051004E+02</totfact>
</mgrwt>
</event>
<event>
 4    1  0.8478300E-009  0.1615738E+03  0.7818608E-02  0.1186931E+00
          4   -1    0    0  501    0  0.00000000000E+00  0.00000000000E+00  0.28052742982E+03  0.28053030456E+03  0.12700000000E+01 0. -1.
         -4   -1    0    0    0  501 -0.00000000000E+00 -0.00000000000E+00 -0.14855719779E+03  0.14856262624E+03  0.12700000000E+01 0. -1.
    8880022    1    1    2    0    0 -0.35947293445E+02  0.37712317277E+02 -0.65151162771E+02  0.17421467735E+03  0.15294330000E+03 0.  0.
    8880022    1    1    2    0    0  0.35947293445E+02 -0.37712317277E+02  0.19712139480E+03  0.25487825345E+03  0.15294330000E+03 0.  0.
<mgrwt>
<rscale>  0 0.16157376E+03</rscale>
<asrwt>0</asrwt>
<pdfrwt beam="1">  1        4 0.43158705E-01 0.16157376E+03</pdfrwt>
<pdfrwt beam="2">  1       -4 0.22855592E-01 0.16157376E+03</pdfrwt>
<totfact> 0.15911054E+02</totfact>
</mgrwt>
</event>
<event>
 4    1  0.8478300E-009  0.2841387E+03  0.7818608E-02  0.1093450E+00
         -4   -1    0    0    0  501 -0.00000000000E+00  0.00000000000E+00  0.21589315140E+04  0.21589318875E+04  0.12700000000E+01 0.  1.
          4   -1    0    0  501    0  0.00000000000E+00 -0.00000000000E+00 -0.37508213914E+02  0.37529708379E+02  0.12700000000E+01 0.  1.
    8880022    1    1    2    0    0 -0.13463771978E+03 -0.19802990190E+03  0.11237488341E+04  0.11591144261E+04  0.15294330000E+03 0.  0.
    8880022    1    1    2    0    0  0.13463771978E+03  0.19802990190E+03  0.99767446596E+03  0.10373471698E+04  0.15294330000E+03 0.  0.
<mgrwt>
<rscale>  0 0.28413872E+03</rscale>
<asrwt>0</asrwt>
<pdfrwt beam="1">  1        4 0.57721746E-02 0.28413872E+03</pdfrwt>
<pdfrwt beam="2">  1       -4 0.33214511E+00 0.28413872E+03</pdfrwt>
<totfact> 0.80843913E+00</totfact>
</mgrwt>
</event>
<event>
 4    1  0.8478300E-009  0.1540785E+03  0.7818608E-02  0.1195549E+00
         -4   -1    0    0    0  501 -0.00000000000E+00  0.00000000000E+00  0.33616746945E+02  0.33640727923E+02  0.12700000000E+01 0. -1.
          4   -1    0    0  501    0  0.00000000000E+00 -0.00000000000E+00 -0.77911055586E+03  0.77911159095E+03  0.12700000000E+01 0. -1.
    8880022    1    1    2    0    0 -0.77360596106E+01 -0.16990872022E+02 -0.24819951682E+03  0.29213556702E+03  0.15294330000E+03 0.  0.
    8880022    1    1    2    0    0  0.77360596106E+01  0.16990872022E+02 -0.49729429210E+03  0.52061675186E+03  0.15294330000E+03 0.  0.
<mgrwt>
<rscale>  0 0.15407852E+03</rscale>
<asrwt>0</asrwt>
<pdfrwt beam="1">  1        4 0.11986507E+00 0.15407852E+03</pdfrwt>
<pdfrwt beam="2">  1       -4 0.51737321E-02 0.15407852E+03</pdfrwt>
<totfact> 0.21478164E+02</totfact>
</mgrwt>
</event>
<event>
 4    1  0.8478300E-009  0.1579441E+03  0.7818608E-02  0.1191038E+00
         -4   -1    0    0    0  501 -0.00000000000E+00  0.00000000000E+00  0.13274610337E+03  0.13275217836E+03  0.12700000000E+01 0.  1.
          4   -1    0    0  501    0  0.00000000000E+00 -0.00000000000E+00 -0.19521377943E+03  0.19521791050E+03  0.12700000000E+01 0.  1.
    8880022    1    1    2    0    0 -0.18179412722E+02 -0.34988592981E+02 -0.62946303087E+02  0.17002524158E+03  0.15294330000E+03 0. -1.
    8880022    1    1    2    0    0  0.18179412722E+02  0.34988592981E+02  0.47862702317E+00  0.15794484729E+03  0.15294330000E+03 0. -1.
<mgrwt>
<rscale>  0 0.15794412E+03</rscale>
<asrwt>0</asrwt>
<pdfrwt beam="1">  1        4 0.30033674E-01 0.15794412E+03</pdfrwt>
<pdfrwt beam="2">  1       -4 0.20423262E-01 0.15794412E+03</pdfrwt>
<totfact> 0.39382427E+02</totfact>
</mgrwt>
</event>
<event>
 4    1  0.8478300E-009  0.3983999E+03  0.7818608E-02  0.1044335E+00
          4   -1    0    0  501    0  0.00000000000E+00  0.00000000000E+00  0.11892544885E+04  0.11892551666E+04  0.12700000000E+01 0. -1.
         -4   -1    0    0    0  501 -0.00000000000E+00 -0.00000000000E+00 -0.13565608071E+03  0.13566202539E+03  0.12700000000E+01 0. -1.
    8880022    1    1    2    0    0  0.27072573960E+03  0.24907505637E+03  0.44251560059E+03  0.59543473157E+03  0.15294330000E+03 0.  0.
    8880022    1    1    2    0    0 -0.27072573960E+03 -0.24907505637E+03  0.61108280717E+03  0.72948246039E+03  0.15294330000E+03 0.  0.
<mgrwt>
<rscale>  0 0.39839988E+03</rscale>
<asrwt>0</asrwt>
<pdfrwt beam="1">  1        4 0.18296274E+00 0.39839988E+03</pdfrwt>
<pdfrwt beam="2">  1       -4 0.20870675E-01 0.39839988E+03</pdfrwt>
<totfact> 0.71804359E+00</totfact>
</mgrwt>
</event>
<event>
 4    1  0.8478300E-009  0.1701305E+03  0.7818608E-02  0.1177712E+00
          4   -1    0    0  501    0  0.00000000000E+00  0.00000000000E+00  0.21011778604E+02  0.21050124468E+02  0.12700000000E+01 0. -1.
         -4   -1    0    0    0  501 -0.00000000000E+00 -0.00000000000E+00 -0.17650902440E+04  0.17650907009E+04  0.12700000000E+01 0. -1.
    8880022    1    1    2    0    0 -0.27240861565E+02  0.69359064522E+02 -0.12912090763E+04  0.13023691013E+04  0.15294330000E+03 0.  0.
    8880022    1    1    2    0    0  0.27240861565E+02 -0.69359064522E+02 -0.45286938910E+03  0.48377172403E+03  0.15294330000E+03 0.  0.
<mgrwt>
<rscale>  0 0.17013053E+03</rscale>
<asrwt>0</asrwt>
<pdfrwt beam="1">  1        4 0.32355675E-02 0.17013053E+03</pdfrwt>
<pdfrwt beam="2">  1       -4 0.27155521E+00 0.17013053E+03</pdfrwt>
<totfact> 0.45607687E+01</totfact>
</mgrwt>
</event>
<event>
 4    1  0.8478300E-009  0.1795255E+03  0.7818608E-02  0.1168263E+00
          4   -1    0    0  501    0  0.00000000000E+00  0.00000000000E+00  0.31665145670E+03  0.31665400350E+03  0.12700000000E+01 0.  1.
         -4   -1    0    0    0  501 -0.00000000000E+00 -0.00000000000E+00 -0.10889758864E+03  0.10890499397E+03  0.12700000000E+01 0.  1.
    8880022    1    1    2    0    0  0.18897652205E+00 -0.94009211970E+02  0.15829166862E+03  0.23934425629E+03  0.15294330000E+03 0.  0.
    8880022    1    1    2    0    0 -0.18897652205E+00  0.94009211970E+02  0.49462199441E+02  0.18621474119E+03  0.15294330000E+03 0.  0.
<mgrwt>
<rscale>  0 0.17952554E+03</rscale>
<asrwt>0</asrwt>
<pdfrwt beam="1">  1        4 0.48716373E-01 0.17952554E+03</pdfrwt>
<pdfrwt beam="2">  1       -4 0.16754241E-01 0.17952554E+03</pdfrwt>
<totfact> 0.22175525E+02</totfact>
</mgrwt>
</event>
<event>
 4    1  0.8478300E-009  0.2576342E+03  0.7818608E-02  0.1108573E+00
         -4   -1    0    0    0  501 -0.00000000000E+00  0.00000000000E+00  0.13096305384E+03  0.13096921154E+03  0.12700000000E+01 0. -1.
          4   -1    0    0  501    0  0.00000000000E+00 -0.00000000000E+00 -0.50681221120E+03  0.50681380241E+03  0.12700000000E+01 0. -1.
    8880022    1    1    2    0    0  0.15645004613E+03 -0.13604082915E+03 -0.18683928958E+03  0.31825193994E+03  0.15294330000E+03 0.  0.
    8880022    1    1    2    0    0 -0.15645004613E+03  0.13604082915E+03 -0.18900986778E+03  0.31953107401E+03  0.15294330000E+03 0.  0.
<mgrwt>
<rscale>  0 0.25763419E+03</rscale>
<asrwt>0</asrwt>
<pdfrwt beam="1">  1        4 0.77971704E-01 0.25763419E+03</pdfrwt>
<pdfrwt beam="2">  1       -4 0.20148758E-01 0.25763419E+03</pdfrwt>
<totfact> 0.61283390E+01</totfact>
</mgrwt>
</event>
<event>
 4    1  0.8478300E-009  0.1826015E+03  0.7818608E-02  0.1165309E+00
         -4   -1    0    0    0  501 -0.00000000000E+00  0.00000000000E+00  0.27958229668E+02  0.27987059620E+02  0.12700000000E+01 0. -1.
          4   -1    0    0  501    0  0.00000000000E+00 -0.00000000000E+00 -0.11943285652E+04  0.11943292404E+04  0.12700000000E+01 0. -1.
    8880022    1    1    2    0    0 -0.56989502548E+02 -0.81877127752E+02 -0.61035396853E+03  0.63708342261E+03  0.15294330000E+03 0.  0.
    8880022    1    1    2    0    0  0.56989502548E+02  0.81877127752E+02 -0.55601636697E+03  0.58523287741E+03  0.15294330000E+03 0.  0.
<mgrwt>
<rscale>  0 0.18260153E+03</rscale>
<asrwt>0</asrwt>
<pdfrwt beam="1">  1        4 0.18374509E+00 0.18260153E+03</pdfrwt>
<pdfrwt beam="2">  1       -4 0.43035367E-02 0.18260153E+03</pdfrwt>
<totfact> 0.98817379E+01</totfact>
</mgrwt>
</event>
<event>
 4    1  0.8478300E-009  0.2319072E+03  0.7818608E-02  0.1125305E+00
          4   -1    0    0  501    0  0.00000000000E+00  0.00000000000E+00  0.30853014040E+03  0.30853275424E+03  0.12700000000E+01 0.  1.
         -4   -1    0    0    0  501 -0.00000000000E+00 -0.00000000000E+00 -0.18138258717E+03  0.18138703324E+03  0.12700000000E+01 0.  1.
    8880022    1    1    2    0    0 -0.39194644017E+02  0.16986188824E+03  0.15195801898E+02  0.23240448921E+03  0.15294330000E+03 0.  0.
    8880022    1    1    2    0    0  0.39194644017E+02 -0.16986188824E+03  0.11195175134E+03  0.25751529826E+03  0.15294330000E+03 0.  0.
<mgrwt>
<rscale>  0 0.23190717E+03</rscale>
<asrwt>0</asrwt>
<pdfrwt beam="1">  1        4 0.47466718E-01 0.23190717E+03</pdfrwt>
<pdfrwt beam="2">  1       -4 0.27905557E-01 0.23190717E+03</pdfrwt>
<totfact> 0.95283733E+01</totfact>
</mgrwt>
</event>
<event>
 4    1  0.8478300E-009  0.1990205E+03  0.7818608E-02  0.1150568E+00
         -4   -1    0    0    0  501 -0.00000000000E+00  0.00000000000E+00  0.48229368621E+03  0.48229535832E+03  0.12700000000E+01 0.  1.
          4   -1    0    0  501    0  0.00000000000E+00 -0.00000000000E+00 -0.20351727936E+03  0.20352124189E+03  0.12700000000E+01 0.  1.
    8880022    1    1    2    0    0  0.54837551577E+02  0.11493630752E+03  0.40422164612E+03  0.45055998941E+03  0.15294330000E+03 0.  0.
    8880022    1    1    2    0    0 -0.54837551577E+02 -0.11493630752E+03 -0.12544523928E+03  0.23525661079E+03  0.15294330000E+03 0.  0.
<mgrwt>
<rscale>  0 0.19902051E+03</rscale>
<asrwt>0</asrwt>
<pdfrwt beam="1">  1        4 0.31310784E-01 0.19902051E+03</pdfrwt>
<pdfrwt beam="2">  1       -4 0.74199462E-01 0.19902051E+03</pdfrwt>
<totfact> 0.29182960E+01</totfact>
</mgrwt>
</event>
<event>
 4    1  0.8478300E-009  0.1932043E+03  0.7818608E-02  0.1155603E+00
         -4   -1    0    0    0  501 -0.00000000000E+00  0.00000000000E+00  0.73375985435E+03  0.73376095342E+03  0.12700000000E+01 0.  1.
          4   -1    0    0  501    0  0.00000000000E+00 -0.00000000000E+00 -0.50868671639E+02  0.50884522738E+02  0.12700000000E+01 0.  1.
    8880022    1    1    2    0    0 -0.11690594851E+03  0.16409296849E+02  0.33732406980E+03  0.38873570315E+03  0.15294330000E+03 0.  1.
    8880022    1    1    2    0    0  0.11690594851E+03 -0.16409296849E+02  0.34556711291E+03  0.39590977301E+03  0.15294330000E+03 0.  1.
<mgrwt>
<rscale>  0 0.19320434E+03</rscale>
<asrwt>0</asrwt>
<pdfrwt beam="1">  1        4 0.78272537E-02 0.19320434E+03</pdfrwt>
<pdfrwt beam="2">  1       -4 0.11288743E+00 0.19320434E+03</pdfrwt>
<totfact> 0.13016601E+02</totfact>
</mgrwt>
</event>
<event>
 4    1  0.8478300E-009  0.1966839E+03  0.7818608E-02  0.1152567E+00
          4   -1    0    0  501    0  0.00000000000E+00  0.00000000000E+00  0.27144193933E+03  0.27144491030E+03  0.12700000000E+01 0. -1.
         -4   -1    0    0    0  501 -0.00000000000E+00 -0.00000000000E+00 -0.16376659742E+03  0.16377152173E+03  0.12700000000E+01 0. -1.
    8880022    1    1    2    0    0  0.12079894427E+03  0.26467518234E+02  0.13223729023E+03  0.23700478560E+03  0.15294330000E+03 0.  0.
    8880022    1    1    2    0    0 -0.12079894427E+03 -0.26467518234E+02 -0.24561948317E+02  0.19821164642E+03  0.15294330000E+03 0.  0.
<mgrwt>
<rscale>  0 0.19668393E+03</rscale>
<asrwt>0</asrwt>
<pdfrwt beam="1">  1        4 0.41760905E-01 0.19668393E+03</pdfrwt>
<pdfrwt beam="2">  1       -4 0.25195469E-01 0.19668393E+03</pdfrwt>
<totfact> 0.14618885E+02</totfact>
</mgrwt>
</event>
<event>
 4    1  0.8478300E-009  0.1712152E+03  0.7818608E-02  0.1176586E+00
          4   -1    0    0  501    0  0.00000000000E+00  0.00000000000E+00  0.37079787150E+03  0.37080004640E+03  0.12700000000E+01 0.  1.
         -4   -1    0    0    0  501 -0.00000000000E+00 -0.00000000000E+00 -0.79297904612E+02  0.79308073838E+02  0.12700000000E+01 0.  1.
    8880022    1    1    2    0    0  0.63409002920E+02 -0.43615343099E+02  0.13318792585E+03  0.21691859398E+03  0.15294330000E+03 0. -1.
    8880022    1    1    2    0    0 -0.63409002920E+02  0.43615343099E+02  0.15831204103E+03  0.23318952626E+03  0.15294330000E+03 0. -1.
<mgrwt>
<rscale>  0 0.17121522E+03</rscale>
<asrwt>0</asrwt>
<pdfrwt beam="1">  1        4 0.57046776E-01 0.17121522E+03</pdfrwt>
<pdfrwt beam="2">  1       -4 0.12200627E-01 0.17121522E+03</pdfrwt>
<totfact> 0.27647061E+02</totfact>
</mgrwt>
</event>
<event>
 4    1  0.8478300E-009  0.1937765E+03  0.7818608E-02  0.1155099E+00
         -4   -1    0    0    0  501 -0.00000000000E+00  0.00000000000E+00  0.16540627518E+03  0.16541115068E+03  0.12700000000E+01 0.  1.
          4   -1    0    0  501    0  0.00000000000E+00 -0.00000000000E+00 -0.22870600950E+03  0.22870953562E+03  0.12700000000E+01 0.  1.
    8880022    1    1    2    0    0  0.96588499751E+02  0.69486137611E+02 -0.48656056711E+02  0.19979170772E+03  0.15294330000E+03 0.  1.
    8880022    1    1    2    0    0 -0.96588499751E+02 -0.69486137611E+02 -0.14643677615E+02  0.19432897857E+03  0.15294330000E+03 0.  1.
<mgrwt>
<rscale>  0 0.19377646E+03</rscale>
<asrwt>0</asrwt>
<pdfrwt beam="1">  1        4 0.35186186E-01 0.19377646E+03</pdfrwt>
<pdfrwt beam="2">  1       -4 0.25447766E-01 0.19377646E+03</pdfrwt>
<totfact> 0.20067636E+02</totfact>
</mgrwt>
</event>
<event>
 4    1  0.8478300E-009  0.2010643E+03  0.7818608E-02  0.1148844E+00
          4   -1    0    0  501    0  0.00000000000E+00  0.00000000000E+00  0.25400607628E+03  0.25400925119E+03  0.12700000000E+01 0. -1.
         -4   -1    0    0    0  501 -0.00000000000E+00 -0.00000000000E+00 -0.16117692699E+03  0.16118193042E+03  0.12700000000E+01 0. -1.
    8880022    1    1    2    0    0  0.39535736464E+02 -0.12438706434E+03  0.69691878934E+02  0.21279997001E+03  0.15294330000E+03 0.  0.
    8880022    1    1    2    0    0 -0.39535736464E+02  0.12438706434E+03  0.23137270362E+02  0.20239121159E+03  0.15294330000E+03 0.  0.
<mgrwt>
<rscale>  0 0.20106434E+03</rscale>
<asrwt>0</asrwt>
<pdfrwt beam="1">  1        4 0.39078487E-01 0.20106434E+03</pdfrwt>
<pdfrwt beam="2">  1       -4 0.24797079E-01 0.20106434E+03</pdfrwt>
<totfact> 0.17234876E+02</totfact>
</mgrwt>
</event>
<event>
 4    1  0.8478300E-009  0.1820016E+03  0.7818608E-02  0.1165880E+00
         -4   -1    0    0    0  501 -0.00000000000E+00  0.00000000000E+00  0.12837452469E+03  0.12838080655E+03  0.12700000000E+01 0.  1.
          4   -1    0    0  501    0  0.00000000000E+00 -0.00000000000E+00 -0.65314285038E+03  0.65314408510E+03  0.12700000000E+01 0.  1.
    8880022    1    1    2    0    0  0.96071389036E+02  0.22432379651E+02 -0.56631436322E+03  0.59484160451E+03  0.15294330000E+03 0. -1.
    8880022    1    1    2    0    0 -0.96071389036E+02 -0.22432379651E+02  0.41546037532E+02  0.18668328714E+03  0.15294330000E+03 0. -1.
<mgrwt>
<rscale>  0 0.18200158E+03</rscale>
<asrwt>0</asrwt>
<pdfrwt beam="1">  1        4 0.10048409E+00 0.18200158E+03</pdfrwt>
<pdfrwt beam="2">  1       -4 0.19750505E-01 0.18200158E+03</pdfrwt>
<totfact> 0.34272909E+01</totfact>
</mgrwt>
</event>
<event>
 4    1  0.8478300E-009  0.2707810E+03  0.7818608E-02  0.1100833E+00
         -4   -1    0    0    0  501 -0.00000000000E+00  0.00000000000E+00  0.56941829599E+02  0.56955990537E+02  0.12700000000E+01 0. -1.
          4   -1    0    0  501    0  0.00000000000E+00 -0.00000000000E+00 -0.22787674964E+04  0.22787678503E+04  0.12700000000E+01 0. -1.
    8880022    1    1    2    0    0  0.16463871299E+03 -0.15107883507E+03 -0.34065488021E+03  0.43516447539E+03  0.15294330000E+03 0.  0.
    8880022    1    1    2    0    0 -0.16463871299E+03  0.15107883507E+03 -0.18811707866E+04  0.19005593654E+04  0.15294330000E+03 0.  0.
<mgrwt>
<rscale>  0 0.27078104E+03</rscale>
<asrwt>0</asrwt>
<pdfrwt beam="1">  1        4 0.35058066E+00 0.27078104E+03</pdfrwt>
<pdfrwt beam="2">  1       -4 0.87613998E-02 0.27078104E+03</pdfrwt>
<totfact> 0.31009476E+00</totfact>
</mgrwt>
</event>
<event>
 4    1  0.8478300E-009  0.1835268E+03  0.7818608E-02  0.1164433E+00
         -4   -1    0    0    0  501 -0.00000000000E+00  0.00000000000E+00  0.30358949407E+03  0.30359215045E+03  0.12700000000E+01 0. -1.
          4   -1    0    0  501    0  0.00000000000E+00 -0.00000000000E+00 -0.11095283320E+03  0.11096010137E+03  0.12700000000E+01 0. -1.
    8880022    1    1    2    0    0  0.46059446188E+02 -0.90382370078E+02  0.94039090869E+02  0.20621699501E+03  0.15294330000E+03 0.  0.
    8880022    1    1    2    0    0 -0.46059446188E+02  0.90382370078E+02  0.98597570001E+02  0.20833525681E+03  0.15294330000E+03 0.  0.
<mgrwt>
<rscale>  0 0.18352683E+03</rscale>
<asrwt>0</asrwt>
<pdfrwt beam="1">  1        4 0.17070430E-01 0.18352683E+03</pdfrwt>
<pdfrwt beam="2">  1       -4 0.46706839E-01 0.18352683E+03</pdfrwt>
<totfact> 0.23451752E+02</totfact>
</mgrwt>
</event>
<event>
 4    1  0.8478300E-009  0.2321118E+03  0.7818608E-02  0.1125162E+00
         -4   -1    0    0    0  501 -0.00000000000E+00  0.00000000000E+00  0.90050811710E+03  0.90050901265E+03  0.12700000000E+01 0.  1.
          4   -1    0    0  501    0  0.00000000000E+00 -0.00000000000E+00 -0.75333490490E+02  0.75344194796E+02  0.12700000000E+01 0.  1.
    8880022    1    1    2    0    0  0.17198822775E+03  0.30071642752E+02  0.19119205608E+03  0.30071632730E+03  0.15294330000E+03 0.  0.
    8880022    1    1    2    0    0 -0.17198822775E+03 -0.30071642752E+02  0.63398257053E+03  0.67513688014E+03  0.15294330000E+03 0.  0.
<mgrwt>
<rscale>  0 0.23211184E+03</rscale>
<asrwt>0</asrwt>
<pdfrwt beam="1">  1        4 0.11590659E-01 0.23211184E+03</pdfrwt>
<pdfrwt beam="2">  1       -4 0.13854061E+00 0.23211184E+03</pdfrwt>
<totfact> 0.41398456E+01</totfact>
</mgrwt>
</event>
<event>
 4    1  0.8478300E-009  0.4164238E+03  0.7818608E-02  0.1038237E+00
          4   -1    0    0  501    0  0.00000000000E+00  0.00000000000E+00  0.75600229128E+03  0.75600335801E+03  0.12700000000E+01 0.  1.
         -4   -1    0    0    0  501 -0.00000000000E+00 -0.00000000000E+00 -0.24153610226E+03  0.24153944108E+03  0.12700000000E+01 0.  1.
    8880022    1    1    2    0    0  0.20274372335E+03  0.33001829077E+03  0.14530751988E+03  0.44104763683E+03  0.15294330000E+03 0.  0.
    8880022    1    1    2    0    0 -0.20274372335E+03 -0.33001829077E+03  0.36915866914E+03  0.55649516226E+03  0.15294330000E+03 0.  0.
<mgrwt>
<rscale>  0 0.41642375E+03</rscale>
<asrwt>0</asrwt>
<pdfrwt beam="1">  1        4 0.11630838E+00 0.41642375E+03</pdfrwt>
<pdfrwt beam="2">  1       -4 0.37159740E-01 0.41642375E+03</pdfrwt>
<totfact> 0.78196965E+00</totfact>
</mgrwt>
</event>
<event>
 4    1  0.8478300E-009  0.1943631E+03  0.7818608E-02  0.1154584E+00
         -4   -1    0    0    0  501 -0.00000000000E+00  0.00000000000E+00  0.18109621091E+04  0.18109625545E+04  0.12700000000E+01 0.  1.
          4   -1    0    0  501    0  0.00000000000E+00 -0.00000000000E+00 -0.72448738187E+02  0.72459868651E+02  0.12700000000E+01 0.  1.
    8880022    1    1    2    0    0  0.80482633084E+02  0.88926495713E+02  0.16639256283E+04  0.16752389458E+04  0.15294330000E+03 0.  0.
    8880022    1    1    2    0    0 -0.80482633084E+02 -0.88926495713E+02  0.74587742642E+02  0.20818347733E+03  0.15294330000E+03 0.  0.
<mgrwt>
<rscale>  0 0.19436314E+03</rscale>
<asrwt>0</asrwt>
<pdfrwt beam="1">  1        4 0.11146851E-01 0.19436314E+03</pdfrwt>
<pdfrwt beam="2">  1       -4 0.27861042E+00 0.19436314E+03</pdfrwt>
<totfact> 0.55169549E+00</totfact>
</mgrwt>
</event>
<event>
 4    1  0.8478300E-009  0.2102698E+03  0.7818608E-02  0.1141353E+00
          4   -1    0    0  501    0  0.00000000000E+00  0.00000000000E+00  0.26557520084E+02  0.26587868907E+02  0.12700000000E+01 0.  1.
         -4   -1    0    0    0  501 -0.00000000000E+00 -0.00000000000E+00 -0.25273212519E+04  0.25273215710E+04  0.12700000000E+01 0.  1.
    8880022    1    1    2    0    0  0.13883729149E+03  0.39318332353E+02 -0.50398384442E+03  0.54608890596E+03  0.15294330000E+03 0.  0.
    8880022    1    1    2    0    0 -0.13883729149E+03 -0.39318332353E+02 -0.19967798874E+04  0.20078205340E+04  0.15294330000E+03 0.  0.
<mgrwt>
<rscale>  0 0.21026977E+03</rscale>
<asrwt>0</asrwt>
<pdfrwt beam="1">  1        4 0.40881334E-02 0.21026977E+03</pdfrwt>
<pdfrwt beam="2">  1       -4 0.38882082E+00 0.21026977E+03</pdfrwt>
<totfact> 0.61795432E+00</totfact>
</mgrwt>
</event>
<event>
 4    1  0.8478300E-009  0.3125073E+03  0.7818608E-02  0.1079150E+00
         -4   -1    0    0    0  501 -0.00000000000E+00  0.00000000000E+00  0.33144166308E+03  0.33144409623E+03  0.12700000000E+01 0.  1.
          4   -1    0    0  501    0  0.00000000000E+00 -0.00000000000E+00 -0.33869162819E+03  0.33869400925E+03  0.12700000000E+01 0.  1.
    8880022    1    1    2    0    0  0.26636973654E+03 -0.57587570278E+02 -0.12445138903E+03  0.33637622693E+03  0.15294330000E+03 0.  0.
    8880022    1    1    2    0    0 -0.26636973654E+03  0.57587570278E+02  0.11720142392E+03  0.33376187856E+03  0.15294330000E+03 0.  0.
<mgrwt>
<rscale>  0 0.31250731E+03</rscale>
<asrwt>0</asrwt>
<pdfrwt beam="1">  1        4 0.52106774E-01 0.31250731E+03</pdfrwt>
<pdfrwt beam="2">  1       -4 0.50991396E-01 0.31250731E+03</pdfrwt>
<totfact> 0.24586399E+01</totfact>
</mgrwt>
</event>
<event>
 4    1  0.8478300E-009  0.2059238E+03  0.7818608E-02  0.1144835E+00
         -4   -1    0    0    0  501 -0.00000000000E+00  0.00000000000E+00  0.30389715044E+02  0.30416240407E+02  0.12700000000E+01 0.  1.
          4   -1    0    0  501    0  0.00000000000E+00 -0.00000000000E+00 -0.13999014517E+04  0.13999020278E+04  0.12700000000E+01 0.  1.
    8880022    1    1    2    0    0 -0.13335660239E+03  0.35056980570E+02 -0.72824075151E+03  0.75679536235E+03  0.15294330000E+03 0.  0.
    8880022    1    1    2    0    0  0.13335660239E+03 -0.35056980570E+02 -0.64127098517E+03  0.67352290587E+03  0.15294330000E+03 0.  0.
<mgrwt>
<rscale>  0 0.20592384E+03</rscale>
<asrwt>0</asrwt>
<pdfrwt beam="1">  1        4 0.21537149E+00 0.20592384E+03</pdfrwt>
<pdfrwt beam="2">  1       -4 0.46774266E-02 0.20592384E+03</pdfrwt>
<totfact> 0.55324282E+01</totfact>
</mgrwt>
</event>
<event>
 4    1  0.8478300E-009  0.1900489E+03  0.7818608E-02  0.1158417E+00
          4   -1    0    0  501    0  0.00000000000E+00  0.00000000000E+00  0.33647177538E+03  0.33647417216E+03  0.12700000000E+01 0. -1.
         -4   -1    0    0    0  501 -0.00000000000E+00 -0.00000000000E+00 -0.11401734534E+03  0.11402441817E+03  0.12700000000E+01 0. -1.
    8880022    1    1    2    0    0 -0.93803405091E+02  0.62672698742E+02  0.16574119246E+03  0.25216808257E+03  0.15294330000E+03 0.  0.
    8880022    1    1    2    0    0  0.93803405091E+02 -0.62672698742E+02  0.56713237588E+02  0.19833050776E+03  0.15294330000E+03 0.  0.
<mgrwt>
<rscale>  0 0.19004894E+03</rscale>
<asrwt>0</asrwt>
<pdfrwt beam="1">  1        4 0.51765615E-01 0.19004894E+03</pdfrwt>
<pdfrwt beam="2">  1       -4 0.17541859E-01 0.19004894E+03</pdfrwt>
<totfact> 0.18202521E+02</totfact>
</mgrwt>
</event>
<event>
 4    1  0.8478300E-009  0.1590282E+03  0.7818608E-02  0.1189798E+00
          4   -1    0    0  501    0  0.00000000000E+00  0.00000000000E+00  0.84679686997E+03  0.84679782232E+03  0.12700000000E+01 0.  1.
         -4   -1    0    0    0  501 -0.00000000000E+00 -0.00000000000E+00 -0.35392511855E+02  0.35415290418E+02  0.12700000000E+01 0.  1.
    8880022    1    1    2    0    0 -0.14180386164E+02  0.41197412702E+02  0.58018174297E+03  0.60158192963E+03  0.15294330000E+03 0.  0.
    8880022    1    1    2    0    0  0.14180386164E+02 -0.41197412702E+02  0.23122261514E+03  0.28063118311E+03  0.15294330000E+03 0.  0.
<mgrwt>
<rscale>  0 0.15902818E+03</rscale>
<asrwt>0</asrwt>
<pdfrwt beam="1">  1        4 0.13027827E+00 0.15902818E+03</pdfrwt>
<pdfrwt beam="2">  1       -4 0.54468272E-02 0.15902818E+03</pdfrwt>
<totfact> 0.16213150E+02</totfact>
</mgrwt>
</event>
<event>
 4    1  0.8478300E-009  0.2776579E+03  0.7818608E-02  0.1096975E+00
         -4   -1    0    0    0  501 -0.00000000000E+00  0.00000000000E+00  0.22419898230E+03  0.22420257930E+03  0.12700000000E+01 0.  1.
          4   -1    0    0  501    0  0.00000000000E+00 -0.00000000000E+00 -0.67469472055E+03  0.67469591583E+03  0.12700000000E+01 0.  1.
    8880022    1    1    2    0    0 -0.18011015833E+03  0.14581702414E+03  0.89478567835E+02  0.29171962700E+03  0.15294330000E+03 0.  0.
    8880022    1    1    2    0    0  0.18011015833E+03 -0.14581702414E+03 -0.53997430608E+03  0.60717886813E+03  0.15294330000E+03 0.  0.
<mgrwt>
<rscale>  0 0.27765793E+03</rscale>
<asrwt>0</asrwt>
<pdfrwt beam="1">  1        4 0.10379956E+00 0.27765793E+03</pdfrwt>
<pdfrwt beam="2">  1       -4 0.34492520E-01 0.27765793E+03</pdfrwt>
<totfact> 0.11611920E+01</totfact>
</mgrwt>
</event>
<event>
 4    1  0.8478300E-009  0.2994017E+03  0.7818608E-02  0.1085540E+00
         -4   -1    0    0    0  501 -0.00000000000E+00  0.00000000000E+00  0.66613909810E+03  0.66614030873E+03  0.12700000000E+01 0. -1.
          4   -1    0    0  501    0  0.00000000000E+00 -0.00000000000E+00 -0.13753192594E+03  0.13753778954E+03  0.12700000000E+01 0. -1.
    8880022    1    1    2    0    0 -0.21888438023E+03 -0.13542286012E+03  0.20527680324E+03  0.36301507119E+03  0.15294330000E+03 0.  0.
    8880022    1    1    2    0    0  0.21888438023E+03  0.13542286012E+03  0.32333036893E+03  0.44066302708E+03  0.15294330000E+03 0.  0.
<mgrwt>
<rscale>  0 0.29940170E+03</rscale>
<asrwt>0</asrwt>
<pdfrwt beam="1">  1        4 0.21159302E-01 0.29940170E+03</pdfrwt>
<pdfrwt beam="2">  1       -4 0.10248348E+00 0.29940170E+03</pdfrwt>
<totfact> 0.30373226E+01</totfact>
</mgrwt>
</event>
<event>
 4    1  0.8478300E-009  0.1558998E+03  0.7818608E-02  0.1193405E+00
         -4   -1    0    0    0  501 -0.00000000000E+00  0.00000000000E+00  0.40282940769E+03  0.40283140965E+03  0.12700000000E+01 0.  1.
          4   -1    0    0  501    0  0.00000000000E+00 -0.00000000000E+00 -0.62918480595E+02  0.62931296669E+02  0.12700000000E+01 0.  1.
    8880022    1    1    2    0    0  0.26842126920E+02  0.13877655679E+02  0.12269137634E+03  0.19838829590E+03  0.15294330000E+03 0.  0.
    8880022    1    1    2    0    0 -0.26842126920E+02 -0.13877655679E+02  0.21721955076E+03  0.26737441043E+03  0.15294330000E+03 0.  0.
<mgrwt>
<rscale>  0 0.15589978E+03</rscale>
<asrwt>0</asrwt>
<pdfrwt beam="1">  1        4 0.96809058E-02 0.15589978E+03</pdfrwt>
<pdfrwt beam="2">  1       -4 0.61974897E-01 0.15589978E+03</pdfrwt>
<totfact> 0.33891662E+02</totfact>
</mgrwt>
</event>
<event>
 4    1  0.8478300E-009  0.1631025E+03  0.7818608E-02  0.1185238E+00
          4   -1    0    0  501    0  0.00000000000E+00  0.00000000000E+00  0.53691135354E+02  0.53706153424E+02  0.12700000000E+01 0.  1.
         -4   -1    0    0    0  501 -0.00000000000E+00 -0.00000000000E+00 -0.49539068317E+03  0.49539231107E+03  0.12700000000E+01 0.  1.
    8880022    1    1    2    0    0  0.34941574055E+02 -0.44607783708E+02 -0.22166978389E+03  0.27520885536E+03  0.15294330000E+03 0.  1.
    8880022    1    1    2    0    0 -0.34941574055E+02  0.44607783708E+02 -0.22002976392E+03  0.27388960914E+03  0.15294330000E+03 0.  1.
<mgrwt>
<rscale>  0 0.16310249E+03</rscale>
<asrwt>0</asrwt>
<pdfrwt beam="1">  1        4 0.82614555E-02 0.16310249E+03</pdfrwt>
<pdfrwt beam="2">  1       -4 0.76215229E-01 0.16310249E+03</pdfrwt>
<totfact> 0.28511645E+02</totfact>
</mgrwt>
</event>
<event>
 4    1  0.8478300E-009  0.1912940E+03  0.7818608E-02  0.1157299E+00
          4   -1    0    0  501    0  0.00000000000E+00  0.00000000000E+00  0.34219777125E+03  0.34220012792E+03  0.12700000000E+01 0.  1.
         -4   -1    0    0    0  501 -0.00000000000E+00 -0.00000000000E+00 -0.10706570695E+03  0.10707323897E+03  0.12700000000E+01 0.  1.
    8880022    1    1    2    0    0 -0.91260104267E+02 -0.69809312603E+02  0.10956621468E+03  0.22044989265E+03  0.15294330000E+03 0.  1.
    8880022    1    1    2    0    0  0.91260104267E+02  0.69809312603E+02  0.12556584963E+03  0.22882347424E+03  0.15294330000E+03 0.  1.
<mgrwt>
<rscale>  0 0.19129401E+03</rscale>
<asrwt>0</asrwt>
<pdfrwt beam="1">  1        4 0.52646572E-01 0.19129401E+03</pdfrwt>
<pdfrwt beam="2">  1       -4 0.16472408E-01 0.19129401E+03</pdfrwt>
<totfact> 0.19681532E+02</totfact>
</mgrwt>
</event>
<event>
 4    1  0.8478300E-009  0.2658417E+03  0.7818608E-02  0.1103683E+00
         -4   -1    0    0    0  501 -0.00000000000E+00  0.00000000000E+00  0.34895938591E+03  0.34896169691E+03  0.12700000000E+01 0. -1.
          4   -1    0    0  501    0  0.00000000000E+00 -0.00000000000E+00 -0.20290621379E+03  0.20291018824E+03  0.12700000000E+01 0. -1.
    8880022    1    1    2    0    0 -0.15721218926E+03 -0.15021473281E+03  0.85118374206E+02  0.27913604040E+03  0.15294330000E+03 0.  1.
    8880022    1    1    2    0    0  0.15721218926E+03  0.15021473281E+03  0.60934797915E+02  0.27273584476E+03  0.15294330000E+03 0.  1.
<mgrwt>
<rscale>  0 0.26584167E+03</rscale>
<asrwt>0</asrwt>
<pdfrwt beam="1">  1        4 0.31216825E-01 0.26584167E+03</pdfrwt>
<pdfrwt beam="2">  1       -4 0.53686542E-01 0.26584167E+03</pdfrwt>
<totfact> 0.60610569E+01</totfact>
</mgrwt>
</event>
<event>
 4    1  0.8478300E-009  0.2124593E+03  0.7818608E-02  0.1139633E+00
          4   -1    0    0  501    0  0.00000000000E+00  0.00000000000E+00  0.16364782564E+03  0.16365275352E+03  0.12700000000E+01 0.  1.
         -4   -1    0    0    0  501 -0.00000000000E+00 -0.00000000000E+00 -0.29241902388E+03  0.29242178172E+03  0.12700000000E+01 0.  1.
    8880022    1    1    2    0    0 -0.12808427457E+03  0.73087181993E+02 -0.11871643115E+03  0.24337740569E+03  0.15294330000E+03 0.  0.
    8880022    1    1    2    0    0  0.12808427457E+03 -0.73087181993E+02 -0.10054767094E+02  0.21269712955E+03  0.15294330000E+03 0.  0.
<mgrwt>
<rscale>  0 0.21245934E+03</rscale>
<asrwt>0</asrwt>
<pdfrwt beam="1">  1        4 0.25177180E-01 0.21245934E+03</pdfrwt>
<pdfrwt beam="2">  1       -4 0.44988133E-01 0.21245934E+03</pdfrwt>
<totfact> 0.12740915E+02</totfact>
</mgrwt>
</event>
<event>
 4    1  0.8478300E-009  0.2029181E+03  0.7818608E-02  0.1147300E+00
         -4   -1    0    0    0  501 -0.00000000000E+00  0.00000000000E+00  0.66757210129E+03  0.66757330932E+03  0.12700000000E+01 0. -1.
          4   -1    0    0  501    0  0.00000000000E+00 -0.00000000000E+00 -0.11461126537E+03  0.11461830154E+03  0.12700000000E+01 0. -1.
    8880022    1    1    2    0    0 -0.12552098539E+03 -0.45039784277E+02  0.10691490731E+02  0.20319955938E+03  0.15294330000E+03 0.  0.
    8880022    1    1    2    0    0  0.12552098539E+03  0.45039784277E+02  0.54226934519E+03  0.57899205149E+03  0.15294330000E+03 0.  0.
<mgrwt>
<rscale>  0 0.20291809E+03</rscale>
<asrwt>0</asrwt>
<pdfrwt beam="1">  1        4 0.17633137E-01 0.20291809E+03</pdfrwt>
<pdfrwt beam="2">  1       -4 0.10270403E+00 0.20291809E+03</pdfrwt>
<totfact> 0.40433261E+01</totfact>
</mgrwt>
</event>
<event>
 4    1  0.8478300E-009  0.1803928E+03  0.7818608E-02  0.1167423E+00
          4   -1    0    0  501    0  0.00000000000E+00  0.00000000000E+00  0.91161484592E+02  0.91170330553E+02  0.12700000000E+01 0. -1.
         -4   -1    0    0    0  501 -0.00000000000E+00 -0.00000000000E+00 -0.44172667064E+03  0.44172849631E+03  0.12700000000E+01 0. -1.
    8880022    1    1    2    0    0 -0.49322817643E+02  0.81958314929E+02 -0.58548025402E+02  0.18965608353E+03  0.15294330000E+03 0.  1.
    8880022    1    1    2    0    0  0.49322817643E+02 -0.81958314929E+02 -0.29201716064E+03  0.34324274333E+03  0.15294330000E+03 0.  1.
<mgrwt>
<rscale>  0 0.18039279E+03</rscale>
<asrwt>0</asrwt>
<pdfrwt beam="1">  1        4 0.14025665E-01 0.18039279E+03</pdfrwt>
<pdfrwt beam="2">  1       -4 0.67958769E-01 0.18039279E+03</pdfrwt>
<totfact> 0.15092305E+02</totfact>
</mgrwt>
</event>
<event>
 4    1  0.8478300E-009  0.1731251E+03  0.7818608E-02  0.1174628E+00
          4   -1    0    0  501    0  0.00000000000E+00  0.00000000000E+00  0.83341689320E+02  0.83351365188E+02  0.12700000000E+01 0.  1.
         -4   -1    0    0    0  501 -0.00000000000E+00 -0.00000000000E+00 -0.41882440380E+03  0.41882632931E+03  0.12700000000E+01 0.  1.
    8880022    1    1    2    0    0  0.59318047860E+02 -0.55335499373E+02 -0.73323070364E+02  0.18801216438E+03  0.15294330000E+03 0.  1.
    8880022    1    1    2    0    0 -0.59318047860E+02  0.55335499373E+02 -0.26215964412E+03  0.31416553011E+03  0.15294330000E+03 0.  1.
<mgrwt>
<rscale>  0 0.17312510E+03</rscale>
<asrwt>0</asrwt>
<pdfrwt beam="1">  1        4 0.12822691E-01 0.17312510E+03</pdfrwt>
<pdfrwt beam="2">  1       -4 0.64435415E-01 0.17312510E+03</pdfrwt>
<totfact> 0.19648608E+02</totfact>
</mgrwt>
</event>
<event>
 4    1  0.8478300E-009  0.5455104E+03  0.7818608E-02  0.1002538E+00
          4   -1    0    0  501    0  0.00000000000E+00  0.00000000000E+00  0.21966448278E+04  0.21966451949E+04  0.12700000000E+01 0. -1.
         -4   -1    0    0    0  501 -0.00000000000E+00 -0.00000000000E+00 -0.62428200788E+03  0.62428329969E+03  0.12700000000E+01 0.  1.
    8880022    1    1    2    0    0 -0.28156184751E+02 -0.52287399612E+03 -0.46189814992E+03  0.71479475409E+03  0.15294330000E+03 0.  0.
    8880022    1    1    2    0    0  0.28156184751E+02  0.52287399612E+03  0.20342609698E+04  0.21061337405E+04  0.15294330000E+03 0. -1.
<mgrwt>
<rscale>  0 0.54551044E+03</rscale>
<asrwt>0</asrwt>
<pdfrwt beam="1">  1        4 0.33794548E+00 0.54551044E+03</pdfrwt>
<pdfrwt beam="2">  1       -4 0.96043514E-01 0.54551044E+03</pdfrwt>
<totfact> 0.33533656E-02</totfact>
</mgrwt>
</event>
<event>
 4    1  0.8478300E-009  0.1551188E+03  0.7818608E-02  0.1194320E+00
         -4   -1    0    0    0  501 -0.00000000000E+00  0.00000000000E+00  0.25393641945E+03  0.25393959522E+03  0.12700000000E+01 0.  1.
          4   -1    0    0  501    0  0.00000000000E+00 -0.00000000000E+00 -0.10789984882E+03  0.10790732263E+03  0.12700000000E+01 0.  1.
    8880022    1    1    2    0    0  0.18646051322E+02 -0.17958713512E+02  0.13618174539E+03  0.20641538560E+03  0.15294330000E+03 0. -1.
    8880022    1    1    2    0    0 -0.18646051322E+02  0.17958713512E+02  0.98548252333E+01  0.15543153225E+03  0.15294330000E+03 0. -1.
<mgrwt>
<rscale>  0 0.15511880E+03</rscale>
<asrwt>0</asrwt>
<pdfrwt beam="1">  1        4 0.16600796E-01 0.15511880E+03</pdfrwt>
<pdfrwt beam="2">  1       -4 0.39067961E-01 0.15511880E+03</pdfrwt>
<totfact> 0.34225226E+02</totfact>
</mgrwt>
</event>
<event>
 4    1  0.8478300E-009  0.1652929E+03  0.7818608E-02  0.1182847E+00
          4   -1    0    0  501    0  0.00000000000E+00  0.00000000000E+00  0.16785264952E+03  0.16785745397E+03  0.12700000000E+01 0.  1.
         -4   -1    0    0    0  501 -0.00000000000E+00 -0.00000000000E+00 -0.27337833746E+03  0.27338128739E+03  0.12700000000E+01 0.  1.
    8880022    1    1    2    0    0 -0.29234730956E+02  0.55456443606E+02  0.87571245657E+02  0.18705737813E+03  0.15294330000E+03 0.  0.
    8880022    1    1    2    0    0  0.29234730956E+02 -0.55456443606E+02 -0.19309693360E+03  0.25418136322E+03  0.15294330000E+03 0.  0.
<mgrwt>
<rscale>  0 0.16529289E+03</rscale>
<asrwt>0</asrwt>
<pdfrwt beam="1">  1        4 0.25824081E-01 0.16529289E+03</pdfrwt>
<pdfrwt beam="2">  1       -4 0.42058802E-01 0.16529289E+03</pdfrwt>
<totfact> 0.13415710E+02</totfact>
</mgrwt>
</event>
<event>
 4    1  0.8478300E-009  0.1677635E+03  0.7818608E-02  0.1180200E+00
          4   -1    0    0  501    0  0.00000000000E+00  0.00000000000E+00  0.56431496411E+02  0.56445785380E+02  0.12700000000E+01 0.  1.
         -4   -1    0    0    0  501 -0.00000000000E+00 -0.00000000000E+00 -0.53880843644E+03  0.53880993317E+03  0.12700000000E+01 0.  1.
    8880022    1    1    2    0    0 -0.68100014950E+02 -0.10739521818E+02 -0.32243013167E+03  0.36346360504E+03  0.15294330000E+03 0.  0.
    8880022    1    1    2    0    0  0.68100014950E+02  0.10739521818E+02 -0.15994680836E+03  0.23179211351E+03  0.15294330000E+03 0.  0.
<mgrwt>
<rscale>  0 0.16776353E+03</rscale>
<asrwt>0</asrwt>
<pdfrwt beam="1">  1        4 0.86829833E-02 0.16776353E+03</pdfrwt>
<pdfrwt beam="2">  1       -4 0.82894817E-01 0.16776353E+03</pdfrwt>
<totfact> 0.21876662E+02</totfact>
</mgrwt>
</event>
<event>
 4    1  0.8478300E-009  0.5423118E+03  0.7818608E-02  0.1003289E+00
          4   -1    0    0  501    0  0.00000000000E+00  0.00000000000E+00  0.15993622391E+04  0.15993627433E+04  0.12700000000E+01 0. -1.
         -4   -1    0    0    0  501 -0.00000000000E+00 -0.00000000000E+00 -0.20802694573E+03  0.20803082235E+03  0.12700000000E+01 0.  1.
    8880022    1    1    2    0    0  0.51781332445E+03  0.50791191354E+02  0.10035254245E+04  0.11406863349E+04  0.15294330000E+03 0.  0.
    8880022    1    1    2    0    0 -0.51781332445E+03 -0.50791191354E+02  0.38780986886E+03  0.66670723072E+03  0.15294330000E+03 0.  0.
<mgrwt>
<rscale>  0 0.54231175E+03</rscale>
<asrwt>0</asrwt>
<pdfrwt beam="1">  1        4 0.24605606E+00 0.54231175E+03</pdfrwt>
<pdfrwt beam="2">  1       -4 0.32004483E-01 0.54231175E+03</pdfrwt>
<totfact> 0.12769778E+00</totfact>
</mgrwt>
</event>
<event>
 4    1  0.8478300E-009  0.1712452E+03  0.7818608E-02  0.1176556E+00
         -4   -1    0    0    0  501 -0.00000000000E+00  0.00000000000E+00  0.25872327509E+03  0.25872639211E+03  0.12700000000E+01 0. -1.
          4   -1    0    0  501    0  0.00000000000E+00 -0.00000000000E+00 -0.21784261168E+03  0.21784631363E+03  0.12700000000E+01 0. -1.
    8880022    1    1    2    0    0  0.44694495934E+01  0.76897902796E+02  0.18547998876E+03  0.25244354355E+03  0.15294330000E+03 0.  0.
    8880022    1    1    2    0    0 -0.44694495934E+01 -0.76897902796E+02 -0.14459932535E+03  0.22412916218E+03  0.15294330000E+03 0.  0.
<mgrwt>
<rscale>  0 0.17124519E+03</rscale>
<asrwt>0</asrwt>
<pdfrwt beam="1">  1        4 0.33514773E-01 0.17124519E+03</pdfrwt>
<pdfrwt beam="2">  1       -4 0.39804105E-01 0.17124519E+03</pdfrwt>
<totfact> 0.91818117E+01</totfact>
</mgrwt>
</event>
<event>
 4    1  0.8478300E-009  0.1908745E+03  0.7818608E-02  0.1157675E+00
         -4   -1    0    0    0  501 -0.00000000000E+00  0.00000000000E+00  0.81818513964E+02  0.81828369941E+02  0.12700000000E+01 0.  1.
          4   -1    0    0  501    0  0.00000000000E+00 -0.00000000000E+00 -0.55052686066E+03  0.55052832553E+03  0.12700000000E+01 0.  1.
    8880022    1    1    2    0    0  0.11408259888E+03  0.51562134256E+01 -0.37261430384E+03  0.41865797299E+03  0.15294330000E+03 0.  0.
    8880022    1    1    2    0    0 -0.11408259888E+03 -0.51562134256E+01 -0.96094042860E+02  0.21369872249E+03  0.15294330000E+03 0.  0.
<mgrwt>
<rscale>  0 0.19087451E+03</rscale>
<asrwt>0</asrwt>
<pdfrwt beam="1">  1        4 0.84697308E-01 0.19087451E+03</pdfrwt>
<pdfrwt beam="2">  1       -4 0.12588335E-01 0.19087451E+03</pdfrwt>
<totfact> 0.11301522E+02</totfact>
</mgrwt>
</event>
<event>
 4    1  0.8478300E-009  0.2412929E+03  0.7818608E-02  0.1118935E+00
         -4   -1    0    0    0  501 -0.00000000000E+00  0.00000000000E+00  0.22759354989E+03  0.22759709324E+03  0.12700000000E+01 0. -1.
          4   -1    0    0  501    0  0.00000000000E+00 -0.00000000000E+00 -0.38978334739E+03  0.38978541636E+03  0.12700000000E+01 0. -1.
    8880022    1    1    2    0    0  0.35886804402E+02  0.18314679446E+03  0.99880228751E+02  0.26114808856E+03  0.15294330000E+03 0.  0.
    8880022    1    1    2    0    0 -0.35886804402E+02 -0.18314679446E+03 -0.26207002625E+03  0.35623442103E+03  0.15294330000E+03 0.  0.
<mgrwt>
<rscale>  0 0.24129290E+03</rscale>
<asrwt>0</asrwt>
<pdfrwt beam="1">  1        4 0.59967101E-01 0.24129290E+03</pdfrwt>
<pdfrwt beam="2">  1       -4 0.35014824E-01 0.24129290E+03</pdfrwt>
<totfact> 0.38032231E+01</totfact>
</mgrwt>
</event>
<event>
 4    1  0.8478300E-009  0.3136622E+03  0.7818608E-02  0.1078604E+00
          4   -1    0    0  501    0  0.00000000000E+00  0.00000000000E+00  0.17208050514E+03  0.17208519154E+03  0.12700000000E+01 0. -1.
         -4   -1    0    0    0  501 -0.00000000000E+00 -0.00000000000E+00 -0.60266704007E+03  0.60266837821E+03  0.12700000000E+01 0. -1.
    8880022    1    1    2    0    0 -0.23466552201E+03 -0.14115396654E+03 -0.12751083695E+03  0.33858974592E+03  0.15294330000E+03 0. -1.
    8880022    1    1    2    0    0  0.23466552201E+03  0.14115396654E+03 -0.30307569798E+03  0.43616382382E+03  0.15294330000E+03 0. -1.
<mgrwt>
<rscale>  0 0.31366224E+03</rscale>
<asrwt>0</asrwt>
<pdfrwt beam="1">  1        4 0.26474388E-01 0.31366224E+03</pdfrwt>
<pdfrwt beam="2">  1       -4 0.92718468E-01 0.31366224E+03</pdfrwt>
<totfact> 0.25392837E+01</totfact>
</mgrwt>
</event>
<event>
 4    1  0.8478300E-009  0.3346514E+03  0.7818608E-02  0.1069097E+00
          4   -1    0    0  501    0  0.00000000000E+00  0.00000000000E+00  0.55828425298E+03  0.55828569750E+03  0.12700000000E+01 0. -1.
         -4   -1    0    0    0  501 -0.00000000000E+00 -0.00000000000E+00 -0.24107327572E+03  0.24107662095E+03  0.12700000000E+01 0. -1.
    8880022    1    1    2    0    0  0.24371191735E+02 -0.29665795438E+03 -0.51671076597E+01  0.33469127401E+03  0.15294330000E+03 0.  0.
    8880022    1    1    2    0    0 -0.24371191735E+02  0.29665795438E+03  0.32237808492E+03  0.46467104443E+03  0.15294330000E+03 0.  0.
<mgrwt>
<rscale>  0 0.33465139E+03</rscale>
<asrwt>0</asrwt>
<pdfrwt beam="1">  1        4 0.85890254E-01 0.33465139E+03</pdfrwt>
<pdfrwt beam="2">  1       -4 0.37088565E-01 0.33465139E+03</pdfrwt>
<totfact> 0.15857934E+01</totfact>
</mgrwt>
</event>
<event>
 4    1  0.8478300E-009  0.2194405E+03  0.7818608E-02  0.1134301E+00
         -4   -1    0    0    0  501 -0.00000000000E+00  0.00000000000E+00  0.13196508174E+04  0.13196514286E+04  0.12700000000E+01 0. -1.
          4   -1    0    0  501    0  0.00000000000E+00 -0.00000000000E+00 -0.38929766029E+02  0.38950476031E+02  0.12700000000E+01 0. -1.
    8880022    1    1    2    0    0 -0.13882716708E+03 -0.74091257482E+02  0.46994753458E+03  0.51865676032E+03  0.15294330000E+03 0.  1.
    8880022    1    1    2    0    0  0.13882716708E+03  0.74091257482E+02  0.81077351684E+03  0.83994514426E+03  0.15294330000E+03 0.  1.
<mgrwt>
<rscale>  0 0.21944054E+03</rscale>
<asrwt>0</asrwt>
<pdfrwt beam="1">  1        4 0.59908354E-02 0.21944054E+03</pdfrwt>
<pdfrwt beam="2">  1       -4 0.20302482E+00 0.21944054E+03</pdfrwt>
<totfact> 0.44367826E+01</totfact>
</mgrwt>
</event>
<event>
 4    1  0.8478300E-009  0.1570650E+03  0.7818608E-02  0.1192051E+00
          4   -1    0    0  501    0  0.00000000000E+00  0.00000000000E+00  0.69675363575E+03  0.69675479319E+03  0.12700000000E+01 0. -1.
         -4   -1    0    0    0  501 -0.00000000000E+00 -0.00000000000E+00 -0.70165823696E+02  0.70177316242E+02  0.12700000000E+01 0. -1.
    8880022    1    1    2    0    0 -0.28342656764E+02  0.21781748550E+02  0.43381068348E+02  0.16294576051E+03  0.15294330000E+03 0.  0.
    8880022    1    1    2    0    0  0.28342656764E+02 -0.21781748550E+02  0.58320674371E+03  0.60398634892E+03  0.15294330000E+03 0.  0.
<mgrwt>
<rscale>  0 0.15706497E+03</rscale>
<asrwt>0</asrwt>
<pdfrwt beam="1">  1        4 0.10719384E+00 0.15706497E+03</pdfrwt>
<pdfrwt beam="2">  1       -4 0.10795715E-01 0.15706497E+03</pdfrwt>
<totfact> 0.83181019E+01</totfact>
</mgrwt>
</event>
<event>
 4    1  0.8478300E-009  0.2156683E+03  0.7818608E-02  0.1137154E+00
         -4   -1    0    0    0  501 -0.00000000000E+00  0.00000000000E+00  0.38428623430E+03  0.38428833286E+03  0.12700000000E+01 0. -1.
          4   -1    0    0  501    0  0.00000000000E+00 -0.00000000000E+00 -0.16436768382E+03  0.16437259013E+03  0.12700000000E+01 0. -1.
    8880022    1    1    2    0    0  0.10680823184E+03  0.10822743122E+03 -0.30898998478E+02  0.21787054959E+03  0.15294330000E+03 0. -1.
    8880022    1    1    2    0    0 -0.10680823184E+03 -0.10822743122E+03  0.25081754896E+03  0.33079037340E+03  0.15294330000E+03 0. -1.
<mgrwt>
<rscale>  0 0.21566833E+03</rscale>
<asrwt>0</asrwt>
<pdfrwt beam="1">  1        4 0.25287875E-01 0.21566833E+03</pdfrwt>
<pdfrwt beam="2">  1       -4 0.59121498E-01 0.21566833E+03</pdfrwt>
<totfact> 0.71988664E+01</totfact>
</mgrwt>
</event>
<event>
 4    1  0.8478300E-009  0.2222809E+03  0.7818608E-02  0.1132194E+00
          4   -1    0    0  501    0  0.00000000000E+00  0.00000000000E+00  0.69867963360E+02  0.69879504893E+02  0.12700000000E+01 0. -1.
         -4   -1    0    0    0  501 -0.00000000000E+00 -0.00000000000E+00 -0.71911621772E+03  0.71911733916E+03  0.12700000000E+01 0. -1.
    8880022    1    1    2    0    0 -0.12433057052E+03  0.10275721839E+03 -0.37561205187E+03  0.43645527059E+03  0.15294330000E+03 0. -1.
    8880022    1    1    2    0    0  0.12433057052E+03 -0.10275721839E+03 -0.27363620249E+03  0.35254157347E+03  0.15294330000E+03 0. -1.
<mgrwt>
<rscale>  0 0.22228088E+03</rscale>
<asrwt>0</asrwt>
<pdfrwt beam="1">  1        4 0.10749892E-01 0.22228088E+03</pdfrwt>
<pdfrwt beam="2">  1       -4 0.11063423E+00 0.22228088E+03</pdfrwt>
<totfact> 0.81404794E+01</totfact>
</mgrwt>
</event>
<event>
 4    1  0.8478300E-009  0.2823857E+03  0.7818608E-02  0.1094393E+00
          4   -1    0    0  501    0  0.00000000000E+00  0.00000000000E+00  0.92642164379E+03  0.92642251429E+03  0.12700000000E+01 0.  1.
         -4   -1    0    0    0  501 -0.00000000000E+00 -0.00000000000E+00 -0.93143424615E+02  0.93152082366E+02  0.12700000000E+01 0.  1.
    8880022    1    1    2    0    0 -0.10800118544E+03  0.21139009803E+03  0.55712251162E+03  0.62460161349E+03  0.15294330000E+03 0.  1.
    8880022    1    1    2    0    0  0.10800118544E+03 -0.21139009803E+03  0.27615570755E+03  0.39497298316E+03  0.15294330000E+03 0.  1.
<mgrwt>
<rscale>  0 0.28238570E+03</rscale>
<asrwt>0</asrwt>
<pdfrwt beam="1">  1        4 0.14252714E+00 0.28238570E+03</pdfrwt>
<pdfrwt beam="2">  1       -4 0.14330490E-01 0.28238570E+03</pdfrwt>
<totfact> 0.27097114E+01</totfact>
</mgrwt>
</event>
<event>
 4    1  0.8478300E-009  0.1699828E+03  0.7818608E-02  0.1177866E+00
          4   -1    0    0  501    0  0.00000000000E+00  0.00000000000E+00  0.45015472692E+02  0.45033384080E+02  0.12700000000E+01 0.  1.
         -4   -1    0    0    0  501 -0.00000000000E+00 -0.00000000000E+00 -0.85197318147E+03  0.85197412804E+03  0.12700000000E+01 0.  1.
    8880022    1    1    2    0    0  0.43258997273E+02 -0.60259192548E+02 -0.18067958827E+03  0.24807111432E+03  0.15294330000E+03 0.  0.
    8880022    1    1    2    0    0 -0.43258997273E+02  0.60259192548E+02 -0.62627812052E+03  0.64893639780E+03  0.15294330000E+03 0.  0.
<mgrwt>
<rscale>  0 0.16998283E+03</rscale>
<asrwt>0</asrwt>
<pdfrwt beam="1">  1        4 0.69269086E-02 0.16998283E+03</pdfrwt>
<pdfrwt beam="2">  1       -4 0.13107424E+00 0.16998283E+03</pdfrwt>
<totfact> 0.10888521E+02</totfact>
</mgrwt>
</event>
<event>
 4    1  0.8478300E-009  0.1961626E+03  0.7818608E-02  0.1153018E+00
          4   -1    0    0  501    0  0.00000000000E+00  0.00000000000E+00  0.19363335342E+03  0.19363751820E+03  0.12700000000E+01 0.  1.
         -4   -1    0    0    0  501 -0.00000000000E+00 -0.00000000000E+00 -0.28574536890E+03  0.28574819116E+03  0.12700000000E+01 0.  1.
    8880022    1    1    2    0    0 -0.31716236156E+02  0.11866839310E+03 -0.17833513378E+03  0.26510975107E+03  0.15294330000E+03 0.  0.
    8880022    1    1    2    0    0  0.31716236156E+02 -0.11866839310E+03  0.86223118291E+02  0.21427595829E+03  0.15294330000E+03 0.  0.
<mgrwt>
<rscale>  0 0.19616259E+03</rscale>
<asrwt>0</asrwt>
<pdfrwt beam="1">  1        4 0.29790284E-01 0.19616259E+03</pdfrwt>
<pdfrwt beam="2">  1       -4 0.43961363E-01 0.19616259E+03</pdfrwt>
<totfact> 0.96200528E+01</totfact>
</mgrwt>
</event>
<event>
 4    1  0.8478300E-009  0.1973362E+03  0.7818608E-02  0.1152006E+00
         -4   -1    0    0    0  501 -0.00000000000E+00  0.00000000000E+00  0.49145827645E+02  0.49162234234E+02  0.12700000000E+01 0.  1.
          4   -1    0    0  501    0  0.00000000000E+00 -0.00000000000E+00 -0.79891031557E+03  0.79891132501E+03  0.12700000000E+01 0.  1.
    8880022    1    1    2    0    0  0.12465730380E+03 -0.32366583203E+01 -0.33607468492E+03  0.38972781041E+03  0.15294330000E+03 0.  0.
    8880022    1    1    2    0    0 -0.12465730380E+03  0.32366583203E+01 -0.41368980301E+03  0.45834574884E+03  0.15294330000E+03 0.  0.
<mgrwt>
<rscale>  0 0.19733619E+03</rscale>
<asrwt>0</asrwt>
<pdfrwt beam="1">  1        4 0.12291061E+00 0.19733619E+03</pdfrwt>
<pdfrwt beam="2">  1       -4 0.75622368E-02 0.19733619E+03</pdfrwt>
<totfact> 0.11257733E+02</totfact>
</mgrwt>
</event>
<event>
 4    1  0.8478300E-009  0.1641954E+03  0.7818608E-02  0.1184040E+00
          4   -1    0    0  501    0  0.00000000000E+00  0.00000000000E+00  0.15909440178E+03  0.15909947070E+03  0.12700000000E+01 0.  1.
         -4   -1    0    0    0  501 -0.00000000000E+00 -0.00000000000E+00 -0.22954373312E+03  0.22954724637E+03  0.12700000000E+01 0.  1.
    8880022    1    1    2    0    0  0.21835644389E+02  0.55602767134E+02 -0.13465048741E+03  0.21234610864E+03  0.15294330000E+03 0.  0.
    8880022    1    1    2    0    0 -0.21835644389E+02 -0.55602767134E+02  0.64201156072E+02  0.17630060844E+03  0.15294330000E+03 0.  0.
<mgrwt>
<rscale>  0 0.16419536E+03</rscale>
<asrwt>0</asrwt>
<pdfrwt beam="1">  1        4 0.24476722E-01 0.16419536E+03</pdfrwt>
<pdfrwt beam="2">  1       -4 0.35315081E-01 0.16419536E+03</pdfrwt>
<totfact> 0.20867273E+02</totfact>
</mgrwt>
</event>
<event>
 4    1  0.8478300E-009  0.4106667E+03  0.7818608E-02  0.1040148E+00
         -4   -1    0    0    0  501 -0.00000000000E+00  0.00000000000E+00  0.48217984592E+03  0.48218151843E+03  0.12700000000E+01 0.  1.
          4   -1    0    0  501    0  0.00000000000E+00 -0.00000000000E+00 -0.47362555781E+03  0.47362726052E+03  0.12700000000E+01 0.  1.
    8880022    1    1    2    0    0  0.13702798184E+03  0.35563855422E+03  0.24867844092E+03  0.48009172983E+03  0.15294330000E+03 0.  0.
    8880022    1    1    2    0    0 -0.13702798184E+03 -0.35563855422E+03 -0.24012415281E+03  0.47571704913E+03  0.15294330000E+03 0.  0.
<mgrwt>
<rscale>  0 0.41066666E+03</rscale>
<asrwt>0</asrwt>
<pdfrwt beam="1">  1        4 0.72865731E-01 0.41066666E+03</pdfrwt>
<pdfrwt beam="2">  1       -4 0.74181774E-01 0.41066666E+03</pdfrwt>
<totfact> 0.54343156E+00</totfact>
</mgrwt>
</event>
<event>
 4    1  0.8478300E-009  0.4367565E+03  0.7818608E-02  0.1031747E+00
          4   -1    0    0  501    0  0.00000000000E+00  0.00000000000E+00  0.33677747103E+03  0.33677986563E+03  0.12700000000E+01 0. -1.
         -4   -1    0    0    0  501 -0.00000000000E+00 -0.00000000000E+00 -0.13560934938E+04  0.13560940885E+04  0.12700000000E+01 0. -1.
    8880022    1    1    2    0    0 -0.15600607773E+03  0.37818866558E+03  0.13625718009E+03  0.45751746983E+03  0.15294330000E+03 0.  0.
    8880022    1    1    2    0    0  0.15600607773E+03 -0.37818866558E+03 -0.11555732028E+04  0.12353564842E+04  0.15294330000E+03 0.  0.
<mgrwt>
<rscale>  0 0.43675647E+03</rscale>
<asrwt>0</asrwt>
<pdfrwt beam="1">  1        4 0.51812149E-01 0.43675647E+03</pdfrwt>
<pdfrwt beam="2">  1       -4 0.20863000E+00 0.43675647E+03</pdfrwt>
<totfact> 0.82321211E-01</totfact>
</mgrwt>
</event>
<event>
 4    1  0.8478300E-009  0.3698473E+03  0.7818608E-02  0.1054751E+00
         -4   -1    0    0    0  501 -0.00000000000E+00  0.00000000000E+00  0.38238313573E+03  0.38238524474E+03  0.12700000000E+01 0. -1.
          4   -1    0    0  501    0  0.00000000000E+00 -0.00000000000E+00 -0.37318871985E+03  0.37319088081E+03  0.12700000000E+01 0. -1.
    8880022    1    1    2    0    0  0.23644348412E+03 -0.23977034291E+03 -0.72322039533E+02  0.37685205179E+03  0.15294330000E+03 0.  0.
    8880022    1    1    2    0    0 -0.23644348412E+03  0.23977034291E+03  0.81516455416E+02  0.37872407376E+03  0.15294330000E+03 0.  0.
<mgrwt>
<rscale>  0 0.36984725E+03</rscale>
<asrwt>0</asrwt>
<pdfrwt beam="1">  1        4 0.57413977E-01 0.36984725E+03</pdfrwt>
<pdfrwt beam="2">  1       -4 0.58828504E-01 0.36984725E+03</pdfrwt>
<totfact> 0.15030830E+01</totfact>
</mgrwt>
</event>
<event>
 4    1  0.8478300E-009  0.1632026E+03  0.7818608E-02  0.1185128E+00
         -4   -1    0    0    0  501 -0.00000000000E+00  0.00000000000E+00  0.78068744165E+03  0.78068847465E+03  0.12700000000E+01 0.  1.
          4   -1    0    0  501    0  0.00000000000E+00 -0.00000000000E+00 -0.41532540318E+02  0.41551953086E+02  0.12700000000E+01 0.  1.
    8880022    1    1    2    0    0 -0.44984654364E+02 -0.34925657489E+02  0.54339405398E+03  0.56737304448E+03  0.15294330000E+03 0. -1.
    8880022    1    1    2    0    0  0.44984654364E+02  0.34925657489E+02  0.19576084735E+03  0.25486738326E+03  0.15294330000E+03 0. -1.
<mgrwt>
<rscale>  0 0.16320255E+03</rscale>
<asrwt>0</asrwt>
<pdfrwt beam="1">  1        4 0.63911950E-02 0.16320255E+03</pdfrwt>
<pdfrwt beam="2">  1       -4 0.12010732E+00 0.16320255E+03</pdfrwt>
<totfact> 0.15296818E+02</totfact>
</mgrwt>
</event>
<event>
 4    1  0.8478300E-009  0.1650600E+03  0.7818608E-02  0.1183100E+00
         -4   -1    0    0    0  501 -0.00000000000E+00  0.00000000000E+00  0.35790040548E+03  0.35790265875E+03  0.12700000000E+01 0.  1.
          4   -1    0    0  501    0  0.00000000000E+00 -0.00000000000E+00 -0.16944559507E+03  0.16945035434E+03  0.12700000000E+01 0.  1.
    8880022    1    1    2    0    0 -0.60367515187E+02  0.14454308301E+02  0.28991023918E+03  0.33360570096E+03  0.15294330000E+03 0.  0.
    8880022    1    1    2    0    0  0.60367515187E+02 -0.14454308301E+02 -0.10145542877E+03  0.19374731213E+03  0.15294330000E+03 0.  0.
<mgrwt>
<rscale>  0 0.16506004E+03</rscale>
<asrwt>0</asrwt>
<pdfrwt beam="1">  1        4 0.26069093E-01 0.16506004E+03</pdfrwt>
<pdfrwt beam="2">  1       -4 0.55062140E-01 0.16506004E+03</pdfrwt>
<totfact> 0.76206512E+01</totfact>
</mgrwt>
</event>
<event>
 4    1  0.8478300E-009  0.1545268E+03  0.7818608E-02  0.1195018E+00
         -4   -1    0    0    0  501 -0.00000000000E+00  0.00000000000E+00  0.38732378750E+03  0.38732586960E+03  0.12700000000E+01 0.  1.
          4   -1    0    0  501    0  0.00000000000E+00 -0.00000000000E+00 -0.62075631330E+02  0.62088621382E+02  0.12700000000E+01 0.  1.
    8880022    1    1    2    0    0  0.77772971553E+01  0.20648978893E+02  0.14382883600E+03  0.21110484068E+03  0.15294330000E+03 0.  1.
    8880022    1    1    2    0    0 -0.77772971553E+01 -0.20648978893E+02  0.18141932018E+03  0.23830965030E+03  0.15294330000E+03 0.  1.
<mgrwt>
<rscale>  0 0.15452676E+03</rscale>
<asrwt>0</asrwt>
<pdfrwt beam="1">  1        4 0.95512565E-02 0.15452676E+03</pdfrwt>
<pdfrwt beam="2">  1       -4 0.59589435E-01 0.15452676E+03</pdfrwt>
<totfact> 0.37604476E+02</totfact>
</mgrwt>
</event>
<event>
 4    1  0.8478300E-009  0.1794393E+03  0.7818608E-02  0.1168347E+00
          4   -1    0    0  501    0  0.00000000000E+00  0.00000000000E+00  0.29854152516E+03  0.29854422644E+03  0.12700000000E+01 0.  1.
         -4   -1    0    0    0  501 -0.00000000000E+00 -0.00000000000E+00 -0.21356084931E+03  0.21356462548E+03  0.12700000000E+01 0.  1.
    8880022    1    1    2    0    0 -0.72422427688E+02  0.59680752801E+02 -0.13765866072E+03  0.22616003222E+03  0.15294330000E+03 0.  0.
    8880022    1    1    2    0    0  0.72422427688E+02 -0.59680752801E+02  0.22263933657E+03  0.28594881971E+03  0.15294330000E+03 0.  0.
<mgrwt>
<rscale>  0 0.17943927E+03</rscale>
<asrwt>0</asrwt>
<pdfrwt beam="1">  1        4 0.45929963E-01 0.17943927E+03</pdfrwt>
<pdfrwt beam="2">  1       -4 0.32856014E-01 0.17943927E+03</pdfrwt>
<totfact> 0.72131743E+01</totfact>
</mgrwt>
</event>
<event>
 4    1  0.8478300E-009  0.6550842E+03  0.7818608E-02  0.9797286E-01
          4   -1    0    0  501    0  0.00000000000E+00  0.00000000000E+00  0.78452698338E+03  0.78452801133E+03  0.12700000000E+01 0. -1.
         -4   -1    0    0    0  501 -0.00000000000E+00 -0.00000000000E+00 -0.83933676658E+03  0.83933772740E+03  0.12700000000E+01 0. -1.
    8880022    1    1    2    0    0  0.48828899994E+03  0.40904465583E+03 -0.50658148419E+03  0.82810635250E+03  0.15294330000E+03 0.  0.
    8880022    1    1    2    0    0 -0.48828899994E+03 -0.40904465583E+03  0.45177170099E+03  0.79575938622E+03  0.15294330000E+03 0.  0.
<mgrwt>
<rscale>  0 0.65508422E+03</rscale>
<asrwt>0</asrwt>
<pdfrwt beam="1">  1        4 0.12069661E+00 0.65508422E+03</pdfrwt>
<pdfrwt beam="2">  1       -4 0.12912889E+00 0.65508422E+03</pdfrwt>
<totfact> 0.44872124E-01</totfact>
</mgrwt>
</event>
<event>
 4    1  0.8478300E-009  0.2166554E+03  0.7818608E-02  0.1136401E+00
         -4   -1    0    0    0  501 -0.00000000000E+00  0.00000000000E+00  0.11544493878E+04  0.11544500864E+04  0.12700000000E+01 0. -1.
          4   -1    0    0  501    0  0.00000000000E+00 -0.00000000000E+00 -0.40837526671E+02  0.40857269666E+02  0.12700000000E+01 0. -1.
    8880022    1    1    2    0    0 -0.12866042391E+03 -0.83632509885E+02  0.51621529137E+03  0.55983728123E+03  0.15294330000E+03 0.  0.
    8880022    1    1    2    0    0  0.12866042391E+03  0.83632509885E+02  0.59739656979E+03  0.63547007483E+03  0.15294330000E+03 0.  0.
<mgrwt>
<rscale>  0 0.21665538E+03</rscale>
<asrwt>0</asrwt>
<pdfrwt beam="1">  1        4 0.62842697E-02 0.21665538E+03</pdfrwt>
<pdfrwt beam="2">  1       -4 0.17760915E+00 0.21665538E+03</pdfrwt>
<totfact> 0.59868659E+01</totfact>
</mgrwt>
</event>
<event>
 4    1  0.8478300E-009  0.3052800E+03  0.7818608E-02  0.1082631E+00
          4   -1    0    0  501    0  0.00000000000E+00  0.00000000000E+00  0.20595445368E+03  0.20595836931E+03  0.12700000000E+01 0. -1.
         -4   -1    0    0    0  501 -0.00000000000E+00 -0.00000000000E+00 -0.59662761361E+03  0.59662896529E+03  0.12700000000E+01 0. -1.
    8880022    1    1    2    0    0 -0.22389489753E+03 -0.14026870258E+03 -0.39257204442E+03  0.49730141478E+03  0.15294330000E+03 0.  0.
    8880022    1    1    2    0    0  0.22389489753E+03  0.14026870258E+03  0.18988844908E+01  0.30528591982E+03  0.15294330000E+03 0.  0.
<mgrwt>
<rscale>  0 0.30528001E+03</rscale>
<asrwt>0</asrwt>
<pdfrwt beam="1">  1        4 0.31685706E-01 0.30528001E+03</pdfrwt>
<pdfrwt beam="2">  1       -4 0.91789268E-01 0.30528001E+03</pdfrwt>
<totfact> 0.18393991E+01</totfact>
</mgrwt>
</event>
<event>
 4    1  0.8478300E-009  0.1947259E+03  0.7818608E-02  0.1154267E+00
         -4   -1    0    0    0  501 -0.00000000000E+00  0.00000000000E+00  0.15388959770E+02  0.15441275297E+02  0.12700000000E+01 0.  1.
          4   -1    0    0  501    0  0.00000000000E+00 -0.00000000000E+00 -0.24790418577E+04  0.24790421830E+04  0.12700000000E+01 0.  1.
    8880022    1    1    2    0    0 -0.10699038540E+03  0.55494023391E+02 -0.13418443752E+04  0.13558998892E+04  0.15294330000E+03 0.  0.
    8880022    1    1    2    0    0  0.10699038540E+03 -0.55494023391E+02 -0.11218085227E+04  0.11385835691E+04  0.15294330000E+03 0.  0.
<mgrwt>
<rscale>  0 0.19472592E+03</rscale>
<asrwt>0</asrwt>
<pdfrwt beam="1">  1        4 0.38139479E+00 0.19472592E+03</pdfrwt>
<pdfrwt beam="2">  1       -4 0.23715835E-02 0.19472592E+03</pdfrwt>
<totfact> 0.16309644E+01</totfact>
</mgrwt>
</event>
<event>
 4    1  0.8478300E-009  0.2338227E+03  0.7818608E-02  0.1123978E+00
         -4   -1    0    0    0  501 -0.00000000000E+00  0.00000000000E+00  0.96260410568E+03  0.96260494346E+03  0.12700000000E+01 0. -1.
          4   -1    0    0  501    0  0.00000000000E+00 -0.00000000000E+00 -0.60927520183E+02  0.60940754965E+02  0.12700000000E+01 0. -1.
    8880022    1    1    2    0    0 -0.16315067315E+03  0.68287908758E+02  0.58420232525E+03  0.62925780923E+03  0.15294330000E+03 0.  0.
    8880022    1    1    2    0    0  0.16315067315E+03 -0.68287908758E+02  0.31747426024E+03  0.39428788919E+03  0.15294330000E+03 0.  0.
<mgrwt>
<rscale>  0 0.23382265E+03</rscale>
<asrwt>0</asrwt>
<pdfrwt beam="1">  1        4 0.93745471E-02 0.23382265E+03</pdfrwt>
<pdfrwt beam="2">  1       -4 0.14809402E+00 0.23382265E+03</pdfrwt>
<totfact> 0.50210462E+01</totfact>
</mgrwt>
</event>
<event>
 4    1  0.8478300E-009  0.1589590E+03  0.7818608E-02  0.1189877E+00
         -4   -1    0    0    0  501 -0.00000000000E+00  0.00000000000E+00  0.31404775736E+03  0.31405032527E+03  0.12700000000E+01 0. -1.
          4   -1    0    0  501    0  0.00000000000E+00 -0.00000000000E+00 -0.84223695264E+02  0.84233269817E+02  0.12700000000E+01 0. -1.
    8880022    1    1    2    0    0  0.24015502173E+02 -0.36049531282E+02  0.15705590418E+03  0.22346033899E+03  0.15294330000E+03 0.  1.
    8880022    1    1    2    0    0 -0.24015502173E+02  0.36049531282E+02  0.72768157916E+02  0.17482325609E+03  0.15294330000E+03 0.  1.
<mgrwt>
<rscale>  0 0.15895901E+03</rscale>
<asrwt>0</asrwt>
<pdfrwt beam="1">  1        4 0.12958426E-01 0.15895901E+03</pdfrwt>
<pdfrwt beam="2">  1       -4 0.48315974E-01 0.15895901E+03</pdfrwt>
<totfact> 0.34661607E+02</totfact>
</mgrwt>
</event>
<event>
 4    1  0.8478300E-009  0.1568097E+03  0.7818608E-02  0.1192346E+00
          4   -1    0    0  501    0  0.00000000000E+00  0.00000000000E+00  0.21824594163E+03  0.21824963674E+03  0.12700000000E+01 0. -1.
         -4   -1    0    0    0  501 -0.00000000000E+00 -0.00000000000E+00 -0.25020290582E+03  0.25020612899E+03  0.12700000000E+01 0. -1.
    8880022    1    1    2    0    0 -0.33349588730E+02 -0.92436323565E+01 -0.18964034689E+03  0.24607469189E+03  0.15294330000E+03 0.  0.
    8880022    1    1    2    0    0  0.33349588730E+02  0.92436323565E+01  0.15768338269E+03  0.22238107383E+03  0.15294330000E+03 0.  0.
<mgrwt>
<rscale>  0 0.15680973E+03</rscale>
<asrwt>0</asrwt>
<pdfrwt beam="1">  1        4 0.33576831E-01 0.15680973E+03</pdfrwt>
<pdfrwt beam="2">  1       -4 0.38493287E-01 0.15680973E+03</pdfrwt>
<totfact> 0.96485224E+01</totfact>
</mgrwt>
</event>
<event>
 4    1  0.8478300E-009  0.1662572E+03  0.7818608E-02  0.1181808E+00
          4   -1    0    0  501    0  0.00000000000E+00  0.00000000000E+00  0.54344421193E+03  0.54344569589E+03  0.12700000000E+01 0. -1.
         -4   -1    0    0    0  501 -0.00000000000E+00 -0.00000000000E+00 -0.51693159032E+02  0.51708757389E+02  0.12700000000E+01 0. -1.
    8880022    1    1    2    0    0  0.46823317929E+02 -0.45358282958E+02  0.28378431681E+03  0.32889966315E+03  0.15294330000E+03 0.  0.
    8880022    1    1    2    0    0 -0.46823317929E+02  0.45358282958E+02  0.20796673609E+03  0.26625479013E+03  0.15294330000E+03 0.  0.
<mgrwt>
<rscale>  0 0.16625718E+03</rscale>
<asrwt>0</asrwt>
<pdfrwt beam="1">  1        4 0.83608113E-01 0.16625718E+03</pdfrwt>
<pdfrwt beam="2">  1       -4 0.79541080E-02 0.16625718E+03</pdfrwt>
<totfact> 0.24805832E+02</totfact>
</mgrwt>
</event>
<event>
 4    1  0.8478300E-009  0.2086317E+03  0.7818608E-02  0.1142654E+00
          4   -1    0    0  501    0  0.00000000000E+00  0.00000000000E+00  0.40197733619E+03  0.40197934239E+03  0.12700000000E+01 0.  1.
         -4   -1    0    0    0  501 -0.00000000000E+00 -0.00000000000E+00 -0.21538712474E+03  0.21539086890E+03  0.12700000000E+01 0.  1.
    8880022    1    1    2    0    0 -0.37916216625E+02 -0.13674030794E+03  0.31097280924E+03  0.37447468859E+03  0.15294330000E+03 0.  0.
    8880022    1    1    2    0    0  0.37916216625E+02  0.13674030794E+03 -0.12438259779E+03  0.24289552270E+03  0.15294330000E+03 0.  0.
<mgrwt>
<rscale>  0 0.20863174E+03</rscale>
<asrwt>0</asrwt>
<pdfrwt beam="1">  1        4 0.61843109E-01 0.20863174E+03</pdfrwt>
<pdfrwt beam="2">  1       -4 0.33136923E-01 0.20863174E+03</pdfrwt>
<totfact> 0.39012377E+01</totfact>
</mgrwt>
</event>
<event>
 4    1  0.8478300E-009  0.3309318E+03  0.7818608E-02  0.1070725E+00
          4   -1    0    0  501    0  0.00000000000E+00  0.00000000000E+00  0.23250068892E+03  0.23250415749E+03  0.12700000000E+01 0.  1.
         -4   -1    0    0    0  501 -0.00000000000E+00 -0.00000000000E+00 -0.55041508357E+03  0.55041654873E+03  0.12700000000E+01 0.  1.
    8880022    1    1    2    0    0  0.21989769371E+03 -0.19434308407E+03 -0.10288762083E+02  0.33109174207E+03  0.15294330000E+03 0.  0.
    8880022    1    1    2    0    0 -0.21989769371E+03  0.19434308407E+03 -0.30762563256E+03  0.45182896416E+03  0.15294330000E+03 0.  0.
<mgrwt>
<rscale>  0 0.33093184E+03</rscale>
<asrwt>0</asrwt>
<pdfrwt beam="1">  1        4 0.35769717E-01 0.33093184E+03</pdfrwt>
<pdfrwt beam="2">  1       -4 0.84679623E-01 0.33093184E+03</pdfrwt>
<totfact> 0.17578300E+01</totfact>
</mgrwt>
</event>
<event>
 4    1  0.8478300E-009  0.2261711E+03  0.7818608E-02  0.1129364E+00
          4   -1    0    0  501    0  0.00000000000E+00  0.00000000000E+00  0.88834574877E+02  0.88843652522E+02  0.12700000000E+01 0. -1.
         -4   -1    0    0    0  501 -0.00000000000E+00 -0.00000000000E+00 -0.68916778289E+03  0.68916895307E+03  0.12700000000E+01 0. -1.
    8880022    1    1    2    0    0  0.68708949909E+01  0.16647670056E+03 -0.45794913567E+03  0.51075509288E+03  0.15294330000E+03 0.  0.
    8880022    1    1    2    0    0 -0.68708949909E+01 -0.16647670056E+03 -0.14238407235E+03  0.26725751271E+03  0.15294330000E+03 0.  0.
<mgrwt>
<rscale>  0 0.22617107E+03</rscale>
<asrwt>0</asrwt>
<pdfrwt beam="1">  1        4 0.13667646E-01 0.22617107E+03</pdfrwt>
<pdfrwt beam="2">  1       -4 0.10602660E+00 0.22617107E+03</pdfrwt>
<totfact> 0.59586368E+01</totfact>
</mgrwt>
</event>
<event>
 4    1  0.8478300E-009  0.1737129E+03  0.7818608E-02  0.1174030E+00
         -4   -1    0    0    0  501 -0.00000000000E+00  0.00000000000E+00  0.86241151522E+02  0.86250502120E+02  0.12700000000E+01 0.  1.
          4   -1    0    0  501    0  0.00000000000E+00 -0.00000000000E+00 -0.42035978582E+03  0.42036170429E+03  0.12700000000E+01 0.  1.
    8880022    1    1    2    0    0 -0.51638408507E+02 -0.64171511204E+02 -0.27078277006E+03  0.32171333460E+03  0.15294330000E+03 0.  0.
    8880022    1    1    2    0    0  0.51638408507E+02  0.64171511204E+02 -0.63335864238E+02  0.18489887181E+03  0.15294330000E+03 0.  0.
<mgrwt>
<rscale>  0 0.17371287E+03</rscale>
<asrwt>0</asrwt>
<pdfrwt beam="1">  1        4 0.64671602E-01 0.17371287E+03</pdfrwt>
<pdfrwt beam="2">  1       -4 0.13268737E-01 0.17371287E+03</pdfrwt>
<totfact> 0.18384059E+02</totfact>
</mgrwt>
</event>
<event>
 4    1  0.8478300E-009  0.1600622E+03  0.7818608E-02  0.1188627E+00
          4   -1    0    0  501    0  0.00000000000E+00  0.00000000000E+00  0.25045865487E+03  0.25046187474E+03  0.12700000000E+01 0. -1.
         -4   -1    0    0    0  501 -0.00000000000E+00 -0.00000000000E+00 -0.10244919262E+03  0.10245706403E+03  0.12700000000E+01 0. -1.
    8880022    1    1    2    0    0  0.47193330771E+02  0.10175379374E+01  0.81087757668E+02  0.17942999557E+03  0.15294330000E+03 0.  0.
    8880022    1    1    2    0    0 -0.47193330771E+02 -0.10175379374E+01  0.66921704581E+02  0.17348894320E+03  0.15294330000E+03 0.  0.
<mgrwt>
<rscale>  0 0.16006217E+03</rscale>
<asrwt>0</asrwt>
<pdfrwt beam="1">  1        4 0.38532954E-01 0.16006217E+03</pdfrwt>
<pdfrwt beam="2">  1       -4 0.15762267E-01 0.16006217E+03</pdfrwt>
<totfact> 0.38752045E+02</totfact>
</mgrwt>
</event>
<event>
 4    1  0.8478300E-009  0.2086007E+03  0.7818608E-02  0.1142679E+00
          4   -1    0    0  501    0  0.00000000000E+00  0.00000000000E+00  0.69004803991E+02  0.69016489869E+02  0.12700000000E+01 0.  1.
         -4   -1    0    0    0  501 -0.00000000000E+00 -0.00000000000E+00 -0.17579497530E+04  0.17579502117E+04  0.12700000000E+01 0.  1.
    8880022    1    1    2    0    0  0.14176917962E+03 -0.49105999772E+01 -0.11293209394E+03  0.23720861101E+03  0.15294330000E+03 0.  0.
    8880022    1    1    2    0    0 -0.14176917962E+03  0.49105999772E+01 -0.15760128551E+04  0.15897580906E+04  0.15294330000E+03 0.  0.
<mgrwt>
<rscale>  0 0.20860074E+03</rscale>
<asrwt>0</asrwt>
<pdfrwt beam="1">  1        4 0.10617059E-01 0.20860074E+03</pdfrwt>
<pdfrwt beam="2">  1       -4 0.27045471E+00 0.20860074E+03</pdfrwt>
<totfact> 0.67093517E+00</totfact>
</mgrwt>
</event>
<event>
 4    1  0.8478300E-009  0.1977623E+03  0.7818608E-02  0.1151641E+00
         -4   -1    0    0    0  501 -0.00000000000E+00  0.00000000000E+00  0.17923013861E+03  0.17923463808E+03  0.12700000000E+01 0. -1.
          4   -1    0    0  501    0  0.00000000000E+00 -0.00000000000E+00 -0.56831802147E+03  0.56831944048E+03  0.12700000000E+01 0. -1.
    8880022    1    1    2    0    0  0.13383711569E+02  0.12465614693E+03  0.98829266215E+02  0.22108178482E+03  0.15294330000E+03 0.  0.
    8880022    1    1    2    0    0 -0.13383711569E+02 -0.12465614693E+03 -0.48791714907E+03  0.52647229374E+03  0.15294330000E+03 0.  0.
<mgrwt>
<rscale>  0 0.19776231E+03</rscale>
<asrwt>0</asrwt>
<pdfrwt beam="1">  1        4 0.87433996E-01 0.19776231E+03</pdfrwt>
<pdfrwt beam="2">  1       -4 0.27574323E-01 0.19776231E+03</pdfrwt>
<totfact> 0.25737287E+01</totfact>
</mgrwt>
</event>
<event>
 4    1  0.8478300E-009  0.1620368E+03  0.7818608E-02  0.1186416E+00
          4   -1    0    0  501    0  0.00000000000E+00  0.00000000000E+00  0.41728231036E+02  0.41747552807E+02  0.12700000000E+01 0.  1.
         -4   -1    0    0    0  501 -0.00000000000E+00 -0.00000000000E+00 -0.66319582078E+03  0.66319703678E+03  0.12700000000E+01 0.  1.
    8880022    1    1    2    0    0 -0.53085718724E+02 -0.67949407359E+01 -0.23075277945E+03  0.28196234321E+03  0.15294330000E+03 0.  0.
    8880022    1    1    2    0    0  0.53085718724E+02  0.67949407359E+01 -0.39071481030E+03  0.42298224638E+03  0.15294330000E+03 0.  0.
<mgrwt>
<rscale>  0 0.16203678E+03</rscale>
<asrwt>0</asrwt>
<pdfrwt beam="1">  1        4 0.64213082E-02 0.16203678E+03</pdfrwt>
<pdfrwt beam="2">  1       -4 0.10203170E+00 0.16203678E+03</pdfrwt>
<totfact> 0.22322229E+02</totfact>
</mgrwt>
</event>
<event>
 4    1  0.8478300E-009  0.1620237E+03  0.7818608E-02  0.1186431E+00
          4   -1    0    0  501    0  0.00000000000E+00  0.00000000000E+00  0.28209876316E+03  0.28210162190E+03  0.12700000000E+01 0. -1.
         -4   -1    0    0    0  501 -0.00000000000E+00 -0.00000000000E+00 -0.97381873836E+02  0.97390154799E+02  0.12700000000E+01 0. -1.
    8880022    1    1    2    0    0 -0.47115863434E+02  0.25300672007E+02  0.13237181150E+03  0.20922231737E+03  0.15294330000E+03 0.  0.
    8880022    1    1    2    0    0  0.47115863434E+02 -0.25300672007E+02  0.52345077823E+02  0.17026945932E+03  0.15294330000E+03 0.  0.
<mgrwt>
<rscale>  0 0.16202371E+03</rscale>
<asrwt>0</asrwt>
<pdfrwt beam="1">  1        4 0.43400666E-01 0.16202371E+03</pdfrwt>
<pdfrwt beam="2">  1       -4 0.14982684E-01 0.16202371E+03</pdfrwt>
<totfact> 0.33536734E+02</totfact>
</mgrwt>
</event>
<event>
 4    1  0.8478300E-009  0.1676546E+03  0.7818608E-02  0.1180316E+00
          4   -1    0    0  501    0  0.00000000000E+00  0.00000000000E+00  0.39303420848E+02  0.39323934065E+02  0.12700000000E+01 0. -1.
         -4   -1    0    0    0  501 -0.00000000000E+00 -0.00000000000E+00 -0.13579368396E+04  0.13579374335E+04  0.12700000000E+01 0. -1.
    8880022    1    1    2    0    0  0.82792733008E+01  0.68175261346E+02 -0.17858125410E+03  0.24494760656E+03  0.15294330000E+03 0.  0.
    8880022    1    1    2    0    0 -0.82792733008E+01 -0.68175261346E+02 -0.11400521647E+04  0.11523137610E+04  0.15294330000E+03 0.  0.
<mgrwt>
<rscale>  0 0.16765460E+03</rscale>
<asrwt>0</asrwt>
<pdfrwt beam="1">  1        4 0.60483048E-02 0.16765460E+03</pdfrwt>
<pdfrwt beam="2">  1       -4 0.20891495E+00 0.16765460E+03</pdfrwt>
<totfact> 0.39082141E+01</totfact>
</mgrwt>
</event>
<event>
 4    1  0.8478300E-009  0.1882189E+03  0.7818608E-02  0.1160078E+00
         -4   -1    0    0    0  501 -0.00000000000E+00  0.00000000000E+00  0.46607885469E+03  0.46608058497E+03  0.12700000000E+01 0.  1.
          4   -1    0    0  501    0  0.00000000000E+00 -0.00000000000E+00 -0.95073935558E+02  0.95082417525E+02  0.12700000000E+01 0.  1.
    8880022    1    1    2    0    0 -0.90994026573E+02 -0.61276371555E+02  0.59842261692E+02  0.19750305284E+03  0.15294330000E+03 0.  0.
    8880022    1    1    2    0    0  0.90994026573E+02  0.61276371555E+02  0.31116265744E+03  0.36365994965E+03  0.15294330000E+03 0.  0.
<mgrwt>
<rscale>  0 0.18821891E+03</rscale>
<asrwt>0</asrwt>
<pdfrwt beam="1">  1        4 0.14627545E-01 0.18821891E+03</pdfrwt>
<pdfrwt beam="2">  1       -4 0.71705225E-01 0.18821891E+03</pdfrwt>
<totfact> 0.12559861E+02</totfact>
</mgrwt>
</event>
<event>
 4    1  0.8478300E-009  0.2220809E+03  0.7818608E-02  0.1132341E+00
         -4   -1    0    0    0  501 -0.00000000000E+00  0.00000000000E+00  0.27998208297E+03  0.27998496332E+03  0.12700000000E+01 0. -1.
          4   -1    0    0  501    0  0.00000000000E+00 -0.00000000000E+00 -0.18309769201E+03  0.18310209643E+03  0.12700000000E+01 0. -1.
    8880022    1    1    2    0    0  0.16083132787E+03  0.78470170556E+01  0.33325154541E+01  0.22210594404E+03  0.15294330000E+03 0.  0.
    8880022    1    1    2    0    0 -0.16083132787E+03 -0.78470170556E+01  0.93551875507E+02  0.24098111571E+03  0.15294330000E+03 0.  0.
<mgrwt>
<rscale>  0 0.22208094E+03</rscale>
<asrwt>0</asrwt>
<pdfrwt beam="1">  1        4 0.28169436E-01 0.22208094E+03</pdfrwt>
<pdfrwt beam="2">  1       -4 0.43074727E-01 0.22208094E+03</pdfrwt>
<totfact> 0.11329927E+02</totfact>
</mgrwt>
</event>
<event>
 4    1  0.8478300E-009  0.1652449E+03  0.7818608E-02  0.1182899E+00
          4   -1    0    0  501    0  0.00000000000E+00  0.00000000000E+00  0.15510608499E+03  0.15511128425E+03  0.12700000000E+01 0. -1.
         -4   -1    0    0    0  501 -0.00000000000E+00 -0.00000000000E+00 -0.17606004748E+03  0.17606462796E+03  0.12700000000E+01 0. -1.
    8880022    1    1    2    0    0 -0.59423133435E+02 -0.19573510802E+02 -0.12409569001E+02  0.16571023363E+03  0.15294330000E+03 0.  0.
    8880022    1    1    2    0    0  0.59423133435E+02  0.19573510802E+02 -0.85443934875E+01  0.16546567858E+03  0.15294330000E+03 0.  0.
<mgrwt>
<rscale>  0 0.16524492E+03</rscale>
<asrwt>0</asrwt>
<pdfrwt beam="1">  1        4 0.23863227E-01 0.16524492E+03</pdfrwt>
<pdfrwt beam="2">  1       -4 0.27086913E-01 0.16524492E+03</pdfrwt>
<totfact> 0.36290574E+02</totfact>
</mgrwt>
</event>
<event>
 4    1  0.8478300E-009  0.1884384E+03  0.7818608E-02  0.1159877E+00
          4   -1    0    0  501    0  0.00000000000E+00  0.00000000000E+00  0.55904691120E+02  0.55919114703E+02  0.12700000000E+01 0. -1.
         -4   -1    0    0    0  501 -0.00000000000E+00 -0.00000000000E+00 -0.10888802914E+04  0.10888810321E+04  0.12700000000E+01 0. -1.
    8880022    1    1    2    0    0 -0.18644308068E+02 -0.10848852870E+03 -0.14696443125E+03  0.23897189824E+03  0.15294330000E+03 0.  0.
    8880022    1    1    2    0    0  0.18644308068E+02  0.10848852870E+03 -0.88601116907E+03  0.90582824852E+03  0.15294330000E+03 0.  0.
<mgrwt>
<rscale>  0 0.18843838E+03</rscale>
<asrwt>0</asrwt>
<pdfrwt beam="1">  1        4 0.86018890E-02 0.18843838E+03</pdfrwt>
<pdfrwt beam="2">  1       -4 0.16752120E+00 0.18843838E+03</pdfrwt>
<totfact> 0.41031380E+01</totfact>
</mgrwt>
</event>
<event>
 4    1  0.8478300E-009  0.2216873E+03  0.7818608E-02  0.1132631E+00
         -4   -1    0    0    0  501 -0.00000000000E+00  0.00000000000E+00  0.21594902944E+03  0.21595276385E+03  0.12700000000E+01 0.  1.
          4   -1    0    0  501    0  0.00000000000E+00 -0.00000000000E+00 -0.22918203539E+03  0.22918555418E+03  0.12700000000E+01 0.  1.
    8880022    1    1    2    0    0  0.14151817242E+03 -0.75671834390E+02 -0.25278967195E+02  0.22312395399E+03  0.15294330000E+03 0.  0.
    8880022    1    1    2    0    0 -0.14151817242E+03  0.75671834390E+02  0.12045961239E+02  0.22201436404E+03  0.15294330000E+03 0.  0.
<mgrwt>
<rscale>  0 0.22168733E+03</rscale>
<asrwt>0</asrwt>
<pdfrwt beam="1">  1        4 0.35259333E-01 0.22168733E+03</pdfrwt>
<pdfrwt beam="2">  1       -4 0.33223485E-01 0.22168733E+03</pdfrwt>
<totfact> 0.12277692E+02</totfact>
</mgrwt>
</event>
<event>
 4    1  0.8478300E-009  0.1611608E+03  0.7818608E-02  0.1187392E+00
         -4   -1    0    0    0  501 -0.00000000000E+00  0.00000000000E+00  0.49417964708E+03  0.49418127898E+03  0.12700000000E+01 0.  1.
          4   -1    0    0  501    0  0.00000000000E+00 -0.00000000000E+00 -0.59650436910E+02  0.59663954977E+02  0.12700000000E+01 0.  1.
    8880022    1    1    2    0    0  0.39494732785E+02  0.31958189610E+02  0.12172232375E+03  0.20196320683E+03  0.15294330000E+03 0.  1.
    8880022    1    1    2    0    0 -0.39494732785E+02 -0.31958189610E+02  0.31280688642E+03  0.35188202712E+03  0.15294330000E+03 0.  1.
<mgrwt>
<rscale>  0 0.16116083E+03</rscale>
<asrwt>0</asrwt>
<pdfrwt beam="1">  1        4 0.91781554E-02 0.16116083E+03</pdfrwt>
<pdfrwt beam="2">  1       -4 0.76028805E-01 0.16116083E+03</pdfrwt>
<totfact> 0.23991202E+02</totfact>
</mgrwt>
</event>
<event>
 4    1  0.8478300E-009  0.1711695E+03  0.7818608E-02  0.1176634E+00
         -4   -1    0    0    0  501 -0.00000000000E+00  0.00000000000E+00  0.13657011019E+03  0.13657601509E+03  0.12700000000E+01 0. -1.
          4   -1    0    0  501    0  0.00000000000E+00 -0.00000000000E+00 -0.21775981020E+03  0.21776351356E+03  0.12700000000E+01 0. -1.
    8880022    1    1    2    0    0  0.67012789684E+02 -0.37638244907E+02 -0.62197626584E+02  0.18211960144E+03  0.15294330000E+03 0.  0.
    8880022    1    1    2    0    0 -0.67012789684E+02  0.37638244907E+02 -0.18992073430E+02  0.17221992721E+03  0.15294330000E+03 0.  0.
<mgrwt>
<rscale>  0 0.17116952E+03</rscale>
<asrwt>0</asrwt>
<pdfrwt beam="1">  1        4 0.33502248E-01 0.17116952E+03</pdfrwt>
<pdfrwt beam="2">  1       -4 0.21011525E-01 0.17116952E+03</pdfrwt>
<totfact> 0.30773324E+02</totfact>
</mgrwt>
</event>
<event>
 4    1  0.8478300E-009  0.2976823E+03  0.7818608E-02  0.1086405E+00
         -4   -1    0    0    0  501 -0.00000000000E+00  0.00000000000E+00  0.12489872321E+03  0.12490517987E+03  0.12700000000E+01 0. -1.
          4   -1    0    0  501    0  0.00000000000E+00 -0.00000000000E+00 -0.11728879722E+04  0.11728886598E+04  0.12700000000E+01 0. -1.
    8880022    1    1    2    0    0 -0.18815651670E+03  0.17268537686E+03 -0.11611347398E+03  0.31952637765E+03  0.15294330000E+03 0.  0.
    8880022    1    1    2    0    0  0.18815651670E+03 -0.17268537686E+03 -0.93187577504E+03  0.97826746204E+03  0.15294330000E+03 0.  0.
<mgrwt>
<rscale>  0 0.29768233E+03</rscale>
<asrwt>0</asrwt>
<pdfrwt beam="1">  1        4 0.18044485E+00 0.29768233E+03</pdfrwt>
<pdfrwt beam="2">  1       -4 0.19215739E-01 0.29768233E+03</pdfrwt>
<totfact> 0.85658853E+00</totfact>
</mgrwt>
</event>
<event>
 4    1  0.8478300E-009  0.1886484E+03  0.7818608E-02  0.1159686E+00
         -4   -1    0    0    0  501 -0.00000000000E+00  0.00000000000E+00  0.16607529868E+04  0.16607534724E+04  0.12700000000E+01 0.  1.
          4   -1    0    0  501    0  0.00000000000E+00 -0.00000000000E+00 -0.77356393131E+02  0.77366817553E+02  0.12700000000E+01 0.  1.
    8880022    1    1    2    0    0  0.10359934642E+03 -0.38258950802E+02  0.52739412594E+02  0.19588177698E+03  0.15294330000E+03 0.  0.
    8880022    1    1    2    0    0 -0.10359934642E+03  0.38258950802E+02  0.15306571811E+04  0.15422385130E+04  0.15294330000E+03 0.  0.
<mgrwt>
<rscale>  0 0.18864842E+03</rscale>
<asrwt>0</asrwt>
<pdfrwt beam="1">  1        4 0.11901823E-01 0.18864842E+03</pdfrwt>
<pdfrwt beam="2">  1       -4 0.25550129E+00 0.18864842E+03</pdfrwt>
<totfact> 0.67109939E+00</totfact>
</mgrwt>
</event>
<event>
 4    1  0.8478300E-009  0.1904737E+03  0.7818608E-02  0.1158035E+00
          4   -1    0    0  501    0  0.00000000000E+00  0.00000000000E+00  0.38236678479E+03  0.38236889389E+03  0.12700000000E+01 0. -1.
         -4   -1    0    0    0  501 -0.00000000000E+00 -0.00000000000E+00 -0.10756610580E+03  0.10757360279E+03  0.12700000000E+01 0. -1.
    8880022    1    1    2    0    0 -0.11273165929E+03 -0.13422588685E+02  0.22153538421E+03  0.29216120955E+03  0.15294330000E+03 0.  0.
    8880022    1    1    2    0    0  0.11273165929E+03  0.13422588685E+02  0.53265294786E+02  0.19778128713E+03  0.15294330000E+03 0.  0.
<mgrwt>
<rscale>  0 0.19047374E+03</rscale>
<asrwt>0</asrwt>
<pdfrwt beam="1">  1        4 0.58826399E-01 0.19047374E+03</pdfrwt>
<pdfrwt beam="2">  1       -4 0.16549370E-01 0.19047374E+03</pdfrwt>
<totfact> 0.15471631E+02</totfact>
</mgrwt>
</event>
<event>
 4    1  0.8478300E-009  0.2724973E+03  0.7818608E-02  0.1099859E+00
          4   -1    0    0  501    0  0.00000000000E+00  0.00000000000E+00  0.24130719540E+03  0.24131053738E+03  0.12700000000E+01 0.  1.
         -4   -1    0    0    0  501 -0.00000000000E+00 -0.00000000000E+00 -0.32899119736E+03  0.32899364863E+03  0.12700000000E+01 0.  1.
    8880022    1    1    2    0    0 -0.37763780589E+02 -0.22234433204E+03 -0.11636205180E+03  0.29630201691E+03  0.15294330000E+03 0.  0.
    8880022    1    1    2    0    0  0.37763780589E+02  0.22234433204E+03  0.28678049848E+02  0.27400216910E+03  0.15294330000E+03 0.  0.
<mgrwt>
<rscale>  0 0.27249726E+03</rscale>
<asrwt>0</asrwt>
<pdfrwt beam="1">  1        4 0.37124630E-01 0.27249726E+03</pdfrwt>
<pdfrwt beam="2">  1       -4 0.50614476E-01 0.27249726E+03</pdfrwt>
<totfact> 0.49004395E+01</totfact>
</mgrwt>
</event>
<event>
 4    1  0.8478300E-009  0.2990657E+03  0.7818608E-02  0.1085709E+00
         -4   -1    0    0    0  501 -0.00000000000E+00  0.00000000000E+00  0.77078642787E+02  0.77089104767E+02  0.12700000000E+01 0.  1.
          4   -1    0    0  501    0  0.00000000000E+00 -0.00000000000E+00 -0.11753101783E+04  0.11753108644E+04  0.12700000000E+01 0.  1.
    8880022    1    1    2    0    0  0.19892283123E+03  0.16272164484E+03 -0.47831954252E+03  0.56411866150E+03  0.15294330000E+03 0.  0.
    8880022    1    1    2    0    0 -0.19892283123E+03 -0.16272164484E+03 -0.61991199295E+03  0.68828130768E+03  0.15294330000E+03 0.  0.
<mgrwt>
<rscale>  0 0.29906568E+03</rscale>
<asrwt>0</asrwt>
<pdfrwt beam="1">  1        4 0.18081779E+00 0.29906568E+03</pdfrwt>
<pdfrwt beam="2">  1       -4 0.11859111E-01 0.29906568E+03</pdfrwt>
<totfact> 0.20065357E+01</totfact>
</mgrwt>
</event>
<event>
 4    1  0.8478300E-009  0.1531993E+03  0.7818608E-02  0.1196596E+00
         -4   -1    0    0    0  501 -0.00000000000E+00  0.00000000000E+00  0.77130980399E+03  0.77131084954E+03  0.12700000000E+01 0.  1.
          4   -1    0    0  501    0  0.00000000000E+00 -0.00000000000E+00 -0.12543159258E+03  0.12543802182E+03  0.12700000000E+01 0.  1.
    8880022    1    1    2    0    0  0.76388864225E-01 -0.88518204077E+01  0.71315775719E+03  0.72942717266E+03  0.15294330000E+03 0.  0.
    8880022    1    1    2    0    0 -0.76388864225E-01  0.88518204077E+01 -0.67279545789E+02  0.16732169870E+03  0.15294330000E+03 0.  0.
<mgrwt>
<rscale>  0 0.15319926E+03</rscale>
<asrwt>0</asrwt>
<pdfrwt beam="1">  1        4 0.19297743E-01 0.15319926E+03</pdfrwt>
<pdfrwt beam="2">  1       -4 0.11866362E+00 0.15319926E+03</pdfrwt>
<totfact> 0.23626368E+01</totfact>
</mgrwt>
</event>
<event>
 4    1  0.8478300E-009  0.2396876E+03  0.7818608E-02  0.1120001E+00
         -4   -1    0    0    0  501 -0.00000000000E+00  0.00000000000E+00  0.16990090014E+04  0.16990094761E+04  0.12700000000E+01 0. -1.
          4   -1    0    0  501    0  0.00000000000E+00 -0.00000000000E+00 -0.35017778735E+02  0.35040800897E+02  0.12700000000E+01 0. -1.
    8880022    1    1    2    0    0 -0.16542656495E+03  0.81807963557E+02  0.67046530961E+03  0.71202097981E+03  0.15294330000E+03 0.  0.
    8880022    1    1    2    0    0  0.16542656495E+03 -0.81807963557E+02  0.99352591308E+03  0.10220292972E+04  0.15294330000E+03 0.  0.
<mgrwt>
<rscale>  0 0.23968760E+03</rscale>
<asrwt>0</asrwt>
<pdfrwt beam="1">  1        4 0.53891595E-02 0.23968760E+03</pdfrwt>
<pdfrwt beam="2">  1       -4 0.26138774E+00 0.23968760E+03</pdfrwt>
<totfact> 0.23674711E+01</totfact>
</mgrwt>
</event>
<event>
 4    1  0.8478300E-009  0.1802446E+03  0.7818608E-02  0.1167566E+00
         -4   -1    0    0    0  501 -0.00000000000E+00  0.00000000000E+00  0.58456836700E+02  0.58470630722E+02  0.12700000000E+01 0. -1.
          4   -1    0    0  501    0  0.00000000000E+00 -0.00000000000E+00 -0.12434276822E+04  0.12434283308E+04  0.12700000000E+01 0. -1.
    8880022    1    1    2    0    0  0.95270243988E+02 -0.44784810027E+01 -0.10837083495E+03  0.21031492354E+03  0.15294330000E+03 0.  0.
    8880022    1    1    2    0    0 -0.95270243988E+02  0.44784810027E+01 -0.10766000106E+04  0.10915840380E+04  0.15294330000E+03 0.  0.
<mgrwt>
<rscale>  0 0.18024464E+03</rscale>
<asrwt>0</asrwt>
<pdfrwt beam="1">  1        4 0.19129766E+00 0.18024464E+03</pdfrwt>
<pdfrwt beam="2">  1       -4 0.89944714E-02 0.18024464E+03</pdfrwt>
<totfact> 0.26316061E+01</totfact>
</mgrwt>
</event>
<event>
 4    1  0.8478300E-009  0.1781498E+03  0.7818608E-02  0.1169606E+00
         -4   -1    0    0    0  501 -0.00000000000E+00  0.00000000000E+00  0.94396417389E+03  0.94396502821E+03  0.12700000000E+01 0. -1.
          4   -1    0    0  501    0  0.00000000000E+00 -0.00000000000E+00 -0.33778111467E+02  0.33801977964E+02  0.12700000000E+01 0. -1.
    8880022    1    1    2    0    0  0.86973141414E+02  0.27953037743E+02  0.42046172365E+03  0.45664582963E+03  0.15294330000E+03 0. -1.
    8880022    1    1    2    0    0 -0.86973141414E+02 -0.27953037743E+02  0.48972433877E+03  0.52112117655E+03  0.15294330000E+03 0. -1.
<mgrwt>
<rscale>  0 0.17814980E+03</rscale>
<asrwt>0</asrwt>
<pdfrwt beam="1">  1        4 0.51985343E-02 0.17814980E+03</pdfrwt>
<pdfrwt beam="2">  1       -4 0.14522715E+00 0.17814980E+03</pdfrwt>
<totfact> 0.13549551E+02</totfact>
</mgrwt>
</event>
<event>
 4    1  0.8478300E-009  0.2769541E+03  0.7818608E-02  0.1097364E+00
          4   -1    0    0  501    0  0.00000000000E+00  0.00000000000E+00  0.65697784827E+02  0.65710058828E+02  0.12700000000E+01 0. -1.
         -4   -1    0    0    0  501 -0.00000000000E+00 -0.00000000000E+00 -0.16388875083E+04  0.16388880004E+04  0.12700000000E+01 0. -1.
    8880022    1    1    2    0    0  0.12633943128E+03  0.19326212995E+03 -0.12437367676E+04  0.12741996323E+04  0.15294330000E+03 0.  0.
    8880022    1    1    2    0    0 -0.12633943128E+03 -0.19326212995E+03 -0.32945295592E+03  0.43039842698E+03  0.15294330000E+03 0.  0.
<mgrwt>
<rscale>  0 0.27695407E+03</rscale>
<asrwt>0</asrwt>
<pdfrwt beam="1">  1        4 0.10108335E-01 0.27695407E+03</pdfrwt>
<pdfrwt beam="2">  1       -4 0.25213749E+00 0.27695407E+03</pdfrwt>
<totfact> 0.94678308E+00</totfact>
</mgrwt>
</event>
<event>
 4    1  0.8478300E-009  0.1782282E+03  0.7818608E-02  0.1169529E+00
         -4   -1    0    0    0  501 -0.00000000000E+00  0.00000000000E+00  0.49883220682E+03  0.49883382349E+03  0.12700000000E+01 0.  1.
          4   -1    0    0  501    0  0.00000000000E+00 -0.00000000000E+00 -0.97940645344E+02  0.97948879067E+02  0.12700000000E+01 0.  1.
    8880022    1    1    2    0    0 -0.52670295305E+02  0.74829714246E+02  0.37694023537E+03  0.41695232365E+03  0.15294330000E+03 0.  0.
    8880022    1    1    2    0    0  0.52670295305E+02 -0.74829714246E+02  0.23951326106E+02  0.17983037891E+03  0.15294330000E+03 0.  0.
<mgrwt>
<rscale>  0 0.17822822E+03</rscale>
<asrwt>0</asrwt>
<pdfrwt beam="1">  1        4 0.15068549E-01 0.17822822E+03</pdfrwt>
<pdfrwt beam="2">  1       -4 0.76744174E-01 0.17822822E+03</pdfrwt>
<totfact> 0.10190386E+02</totfact>
</mgrwt>
</event>
<event>
 4    1  0.8478300E-009  0.1676837E+03  0.7818608E-02  0.1180285E+00
          4   -1    0    0  501    0  0.00000000000E+00  0.00000000000E+00  0.20749568132E+03  0.20749956787E+03  0.12700000000E+01 0. -1.
         -4   -1    0    0    0  501 -0.00000000000E+00 -0.00000000000E+00 -0.13641684690E+03  0.13642275843E+03  0.12700000000E+01 0. -1.
    8880022    1    1    2    0    0  0.49079697143E+02  0.48138851313E+02  0.21459637649E+02  0.16905127843E+03  0.15294330000E+03 0.  0.
    8880022    1    1    2    0    0 -0.49079697143E+02 -0.48138851313E+02  0.49619196770E+02  0.17487104786E+03  0.15294330000E+03 0.  0.
<mgrwt>
<rscale>  0 0.16768369E+03</rscale>
<asrwt>0</asrwt>
<pdfrwt beam="1">  1        4 0.31923166E-01 0.16768369E+03</pdfrwt>
<pdfrwt beam="2">  1       -4 0.20987961E-01 0.16768369E+03</pdfrwt>
<totfact> 0.33716159E+02</totfact>
</mgrwt>
</event>
<event>
 4    1  0.8478300E-009  0.4582657E+03  0.7818608E-02  0.1025285E+00
         -4   -1    0    0    0  501 -0.00000000000E+00  0.00000000000E+00  0.46417474370E+03  0.46417648109E+03  0.12700000000E+01 0. -1.
          4   -1    0    0  501    0  0.00000000000E+00 -0.00000000000E+00 -0.46209298394E+03  0.46209472915E+03  0.12700000000E+01 0. -1.
    8880022    1    1    2    0    0 -0.35394626187E+03  0.24766475823E+03  0.68019131406E+02  0.46328613622E+03  0.15294330000E+03 0.  0.
    8880022    1    1    2    0    0  0.35394626187E+03 -0.24766475823E+03 -0.65937371647E+02  0.46298507401E+03  0.15294330000E+03 0.  0.
<mgrwt>
<rscale>  0 0.45826569E+03</rscale>
<asrwt>0</asrwt>
<pdfrwt beam="1">  1        4 0.71091496E-01 0.45826569E+03</pdfrwt>
<pdfrwt beam="2">  1       -4 0.71411767E-01 0.45826569E+03</pdfrwt>
<totfact> 0.62782092E+00</totfact>
</mgrwt>
</event>
<event>
 4    1  0.8478300E-009  0.3065589E+03  0.7818608E-02  0.1082007E+00
         -4   -1    0    0    0  501 -0.00000000000E+00  0.00000000000E+00  0.11911739522E+03  0.11912416523E+03  0.12700000000E+01 0. -1.
          4   -1    0    0  501    0  0.00000000000E+00 -0.00000000000E+00 -0.79647708908E+03  0.79647810160E+03  0.12700000000E+01 0. -1.
    8880022    1    1    2    0    0 -0.26540723804E+03  0.12071273126E+02 -0.38325444375E+03  0.49077728075E+03  0.15294330000E+03 0.  0.
    8880022    1    1    2    0    0  0.26540723804E+03 -0.12071273126E+02 -0.29410525012E+03  0.42482498608E+03  0.15294330000E+03 0.  0.
<mgrwt>
<rscale>  0 0.30655892E+03</rscale>
<asrwt>0</asrwt>
<pdfrwt beam="1">  1        4 0.12253553E+00 0.30655892E+03</pdfrwt>
<pdfrwt beam="2">  1       -4 0.18326352E-01 0.30655892E+03</pdfrwt>
<totfact> 0.25700308E+01</totfact>
</mgrwt>
</event>
<event>
 4    1  0.8478300E-009  0.1559391E+03  0.7818608E-02  0.1193359E+00
         -4   -1    0    0    0  501 -0.00000000000E+00  0.00000000000E+00  0.24655101625E+02  0.24687789211E+02  0.12700000000E+01 0.  1.
          4   -1    0    0  501    0  0.00000000000E+00 -0.00000000000E+00 -0.10011423221E+04  0.10011431276E+04  0.12700000000E+01 0.  1.
    8880022    1    1    2    0    0 -0.14549466704E+02 -0.26714489118E+02 -0.42433748816E+03  0.45208329740E+03  0.15294330000E+03 0.  1.
    8880022    1    1    2    0    0  0.14549466704E+02  0.26714489118E+02 -0.55214973231E+03  0.57374761944E+03  0.15294330000E+03 0.  1.
<mgrwt>
<rscale>  0 0.15593910E+03</rscale>
<asrwt>0</asrwt>
<pdfrwt beam="1">  1        4 0.15402444E+00 0.15593910E+03</pdfrwt>
<pdfrwt beam="2">  1       -4 0.37956697E-02 0.15593910E+03</pdfrwt>
<totfact> 0.18928931E+02</totfact>
</mgrwt>
</event>
<event>
 4    1  0.8478300E-009  0.2469762E+03  0.7818608E-02  0.1115231E+00
          4   -1    0    0  501    0  0.00000000000E+00  0.00000000000E+00  0.27654600267E+03  0.27654891880E+03  0.12700000000E+01 0.  1.
         -4   -1    0    0    0  501 -0.00000000000E+00 -0.00000000000E+00 -0.41755613374E+03  0.41755806510E+03  0.12700000000E+01 0.  1.
    8880022    1    1    2    0    0 -0.15930616919E+03  0.11057629876E+03  0.16787089134E+03  0.29862662735E+03  0.15294330000E+03 0.  0.
    8880022    1    1    2    0    0  0.15930616919E+03 -0.11057629876E+03 -0.30888102242E+03  0.39548035655E+03  0.15294330000E+03 0.  0.
<mgrwt>
<rscale>  0 0.24697617E+03</rscale>
<asrwt>0</asrwt>
<pdfrwt beam="1">  1        4 0.42545912E-01 0.24697617E+03</pdfrwt>
<pdfrwt beam="2">  1       -4 0.64239778E-01 0.24697617E+03</pdfrwt>
<totfact> 0.22370439E+01</totfact>
</mgrwt>
</event>
<event>
 4    1  0.8478300E-009  0.1555779E+03  0.7818608E-02  0.1193782E+00
         -4   -1    0    0    0  501 -0.00000000000E+00  0.00000000000E+00  0.75107085090E+03  0.75107192464E+03  0.12700000000E+01 0. -1.
          4   -1    0    0  501    0  0.00000000000E+00 -0.00000000000E+00 -0.41845200700E+02  0.41864468486E+02  0.12700000000E+01 0. -1.
    8880022    1    1    2    0    0 -0.18008890243E+02 -0.22101970783E+02  0.16444907890E+03  0.22638014446E+03  0.15294330000E+03 0.  1.
    8880022    1    1    2    0    0  0.18008890243E+02  0.22101970783E+02  0.54477657131E+03  0.56655624867E+03  0.15294330000E+03 0.  1.
<mgrwt>
<rscale>  0 0.15557786E+03</rscale>
<asrwt>0</asrwt>
<pdfrwt beam="1">  1        4 0.64392878E-02 0.15557786E+03</pdfrwt>
<pdfrwt beam="2">  1       -4 0.11555093E+00 0.15557786E+03</pdfrwt>
<totfact> 0.16456044E+02</totfact>
</mgrwt>
</event>
<event>
 4    1  0.8478300E-009  0.3478815E+03  0.7818608E-02  0.1063488E+00
         -4   -1    0    0    0  501 -0.00000000000E+00  0.00000000000E+00  0.59487270525E+03  0.59487406092E+03  0.12700000000E+01 0. -1.
          4   -1    0    0  501    0  0.00000000000E+00 -0.00000000000E+00 -0.20689338060E+03  0.20689727847E+03  0.12700000000E+01 0. -1.
    8880022    1    1    2    0    0 -0.29757514067E+03 -0.95283415205E+02  0.14217886317E+03  0.37581428353E+03  0.15294330000E+03 0.  0.
    8880022    1    1    2    0    0  0.29757514067E+03  0.95283415205E+02  0.24580046148E+03  0.42595705586E+03  0.15294330000E+03 0.  0.
<mgrwt>
<rscale>  0 0.34788151E+03</rscale>
<asrwt>0</asrwt>
<pdfrwt beam="1">  1        4 0.31830155E-01 0.34788151E+03</pdfrwt>
<pdfrwt beam="2">  1       -4 0.91519283E-01 0.34788151E+03</pdfrwt>
<totfact> 0.18545272E+01</totfact>
</mgrwt>
</event>
<event>
 4    1  0.8478300E-009  0.1962806E+03  0.7818608E-02  0.1152916E+00
          4   -1    0    0  501    0  0.00000000000E+00  0.00000000000E+00  0.26653675796E+03  0.26653978360E+03  0.12700000000E+01 0. -1.
         -4   -1    0    0    0  501 -0.00000000000E+00 -0.00000000000E+00 -0.19842291697E+03  0.19842698123E+03  0.12700000000E+01 0. -1.
    8880022    1    1    2    0    0  0.30171396413E+02  0.11926485868E+03  0.15520787952E+03  0.25023101038E+03  0.15294330000E+03 0.  0.
    8880022    1    1    2    0    0 -0.30171396413E+02 -0.11926485868E+03 -0.87094038531E+02  0.21473575445E+03  0.15294330000E+03 0.  0.
<mgrwt>
<rscale>  0 0.19628060E+03</rscale>
<asrwt>0</asrwt>
<pdfrwt beam="1">  1        4 0.41006200E-01 0.19628060E+03</pdfrwt>
<pdfrwt beam="2">  1       -4 0.30527148E-01 0.19628060E+03</pdfrwt>
<totfact> 0.10554863E+02</totfact>
</mgrwt>
</event>
<event>
 4    1  0.8478300E-009  0.2466303E+03  0.7818608E-02  0.1115453E+00
         -4   -1    0    0    0  501 -0.00000000000E+00  0.00000000000E+00  0.22002576286E+03  0.22002942808E+03  0.12700000000E+01 0.  1.
          4   -1    0    0  501    0  0.00000000000E+00 -0.00000000000E+00 -0.32907169343E+03  0.32907414410E+03  0.12700000000E+01 0.  1.
    8880022    1    1    2    0    0 -0.19167692956E+03 -0.26359396947E+02 -0.16431744006E+03  0.29635576130E+03  0.15294330000E+03 0.  1.
    8880022    1    1    2    0    0  0.19167692956E+03  0.26359396947E+02  0.55271509487E+02  0.25274781089E+03  0.15294330000E+03 0.  1.
<mgrwt>
<rscale>  0 0.24663032E+03</rscale>
<asrwt>0</asrwt>
<pdfrwt beam="1">  1        4 0.50626885E-01 0.24663032E+03</pdfrwt>
<pdfrwt beam="2">  1       -4 0.33850588E-01 0.24663032E+03</pdfrwt>
<totfact> 0.58050217E+01</totfact>
</mgrwt>
</event>
<event>
 4    1  0.8478300E-009  0.1703772E+03  0.7818608E-02  0.1177455E+00
         -4   -1    0    0    0  501 -0.00000000000E+00  0.00000000000E+00  0.13343214618E+03  0.13343818994E+03  0.12700000000E+01 0. -1.
          4   -1    0    0  501    0  0.00000000000E+00 -0.00000000000E+00 -0.22773247265E+03  0.22773601384E+03  0.12700000000E+01 0. -1.
    8880022    1    1    2    0    0  0.52755894326E+02 -0.53418510143E+02 -0.85356134804E+02  0.19056244220E+03  0.15294330000E+03 0.  0.
    8880022    1    1    2    0    0 -0.52755894326E+02  0.53418510143E+02 -0.89441916656E+01  0.17061176159E+03  0.15294330000E+03 0.  0.
<mgrwt>
<rscale>  0 0.17037715E+03</rscale>
<asrwt>0</asrwt>
<pdfrwt beam="1">  1        4 0.35036502E-01 0.17037715E+03</pdfrwt>
<pdfrwt beam="2">  1       -4 0.20528760E-01 0.17037715E+03</pdfrwt>
<totfact> 0.29414856E+02</totfact>
</mgrwt>
</event>
<event>
 4    1  0.8478300E-009  0.1592712E+03  0.7818608E-02  0.1189522E+00
         -4   -1    0    0    0  501 -0.00000000000E+00  0.00000000000E+00  0.66904057370E+02  0.66916110113E+02  0.12700000000E+01 0.  1.
          4   -1    0    0  501    0  0.00000000000E+00 -0.00000000000E+00 -0.40537212069E+03  0.40537411009E+03  0.12700000000E+01 0.  1.
    8880022    1    1    2    0    0  0.26343883905E+02  0.35800302550E+02 -0.10913186227E+03  0.19307272790E+03  0.15294330000E+03 0. -1.
    8880022    1    1    2    0    0 -0.26343883905E+02 -0.35800302550E+02 -0.22933620105E+03  0.27921749230E+03  0.15294330000E+03 0. -1.
<mgrwt>
<rscale>  0 0.15927120E+03</rscale>
<asrwt>0</asrwt>
<pdfrwt beam="1">  1        4 0.62366020E-01 0.15927120E+03</pdfrwt>
<pdfrwt beam="2">  1       -4 0.10294012E-01 0.15927120E+03</pdfrwt>
<totfact> 0.30261277E+02</totfact>
</mgrwt>
</event>
<event>
 4    1  0.8478300E-009  0.1841552E+03  0.7818608E-02  0.1163841E+00
         -4   -1    0    0    0  501 -0.00000000000E+00  0.00000000000E+00  0.24011781771E+03  0.24012117624E+03  0.12700000000E+01 0.  1.
          4   -1    0    0  501    0  0.00000000000E+00 -0.00000000000E+00 -0.20833266820E+03  0.20833653914E+03  0.12700000000E+01 0.  1.
    8880022    1    1    2    0    0 -0.15278168015E+02  0.10143001685E+03 -0.11136399485E+03  0.21520934715E+03  0.15294330000E+03 0.  1.
    8880022    1    1    2    0    0  0.15278168015E+02 -0.10143001685E+03  0.14314914436E+03  0.23324836823E+03  0.15294330000E+03 0.  1.
<mgrwt>
<rscale>  0 0.18415516E+03</rscale>
<asrwt>0</asrwt>
<pdfrwt beam="1">  1        4 0.32051736E-01 0.18415516E+03</pdfrwt>
<pdfrwt beam="2">  1       -4 0.36941759E-01 0.18415516E+03</pdfrwt>
<totfact> 0.11707783E+02</totfact>
</mgrwt>
</event>
<event>
 4    1  0.8478300E-009  0.3644938E+03  0.7818608E-02  0.1056819E+00
         -4   -1    0    0    0  501 -0.00000000000E+00  0.00000000000E+00  0.53835523375E+03  0.53835673174E+03  0.12700000000E+01 0.  1.
          4   -1    0    0  501    0  0.00000000000E+00 -0.00000000000E+00 -0.39316862441E+03  0.39317067556E+03  0.12700000000E+01 0.  1.
    8880022    1    1    2    0    0 -0.32656588047E+03  0.53092613418E+02  0.35679816681E+03  0.51005949137E+03  0.15294330000E+03 0.  0.
    8880022    1    1    2    0    0  0.32656588047E+03 -0.53092613418E+02 -0.21161155747E+03  0.42146791593E+03  0.15294330000E+03 0.  0.
<mgrwt>
<rscale>  0 0.36449383E+03</rscale>
<asrwt>0</asrwt>
<pdfrwt beam="1">  1        4 0.60487754E-01 0.36449383E+03</pdfrwt>
<pdfrwt beam="2">  1       -4 0.82824155E-01 0.36449383E+03</pdfrwt>
<totfact> 0.63272910E+00</totfact>
</mgrwt>
</event>
<event>
 4    1  0.8478300E-009  0.3317062E+03  0.7818608E-02  0.1070384E+00
          4   -1    0    0  501    0  0.00000000000E+00  0.00000000000E+00  0.11235997041E+04  0.11236004218E+04  0.12700000000E+01 0. -1.
         -4   -1    0    0    0  501 -0.00000000000E+00 -0.00000000000E+00 -0.13778834230E+03  0.13779419500E+03  0.12700000000E+01 0. -1.
    8880022    1    1    2    0    0  0.51666601886E+02  0.28977217124E+03  0.15366069073E+03  0.36556888526E+03  0.15294330000E+03 0.  0.
    8880022    1    1    2    0    0 -0.51666601886E+02 -0.28977217124E+03  0.83215067102E+03  0.89582573153E+03  0.15294330000E+03 0.  0.
<mgrwt>
<rscale>  0 0.33170620E+03</rscale>
<asrwt>0</asrwt>
<pdfrwt beam="1">  1        4 0.17286200E+00 0.33170620E+03</pdfrwt>
<pdfrwt beam="2">  1       -4 0.21198711E-01 0.33170620E+03</pdfrwt>
<totfact> 0.81103144E+00</totfact>
</mgrwt>
</event>
<event>
 4    1  0.8478300E-009  0.2210405E+03  0.7818608E-02  0.1133110E+00
         -4   -1    0    0    0  501 -0.00000000000E+00  0.00000000000E+00  0.11585686832E+04  0.11585693793E+04  0.12700000000E+01 0. -1.
          4   -1    0    0  501    0  0.00000000000E+00 -0.00000000000E+00 -0.43181130002E+02  0.43199801947E+02  0.12700000000E+01 0. -1.
    8880022    1    1    2    0    0 -0.47235115681E+02  0.15243395852E+03  0.46538103694E+03  0.51520717233E+03  0.15294330000E+03 0.  0.
    8880022    1    1    2    0    0  0.47235115681E+02 -0.15243395852E+03  0.65000651631E+03  0.68656200894E+03  0.15294330000E+03 0.  0.
<mgrwt>
<rscale>  0 0.22104054E+03</rscale>
<asrwt>0</asrwt>
<pdfrwt beam="1">  1        4 0.66447404E-02 0.22104054E+03</pdfrwt>
<pdfrwt beam="2">  1       -4 0.17824283E+00 0.22104054E+03</pdfrwt>
<totfact> 0.54190961E+01</totfact>
</mgrwt>
</event>
<event>
 4    1  0.8478300E-009  0.1609421E+03  0.7818608E-02  0.1187637E+00
          4   -1    0    0  501    0  0.00000000000E+00  0.00000000000E+00  0.13959320223E+03  0.13959897925E+03  0.12700000000E+01 0.  1.
         -4   -1    0    0    0  501 -0.00000000000E+00 -0.00000000000E+00 -0.18555145551E+03  0.18555580169E+03  0.12700000000E+01 0.  1.
    8880022    1    1    2    0    0 -0.49706868075E+02 -0.63203103687E+01 -0.21971230833E+02  0.16243493176E+03  0.15294330000E+03 0.  0.
    8880022    1    1    2    0    0  0.49706868075E+02  0.63203103687E+01 -0.23987022443E+02  0.16271984918E+03  0.15294330000E+03 0.  0.
<mgrwt>
<rscale>  0 0.16094214E+03</rscale>
<asrwt>0</asrwt>
<pdfrwt beam="1">  1        4 0.21476656E-01 0.16094214E+03</pdfrwt>
<pdfrwt beam="2">  1       -4 0.28547157E-01 0.16094214E+03</pdfrwt>
<totfact> 0.39701688E+02</totfact>
</mgrwt>
</event>
<event>
 4    1  0.8478300E-009  0.1908924E+03  0.7818608E-02  0.1157659E+00
         -4   -1    0    0    0  501 -0.00000000000E+00  0.00000000000E+00  0.27437469211E+03  0.27437763132E+03  0.12700000000E+01 0.  1.
          4   -1    0    0  501    0  0.00000000000E+00 -0.00000000000E+00 -0.13649457865E+03  0.13650048682E+03  0.12700000000E+01 0.  1.
    8880022    1    1    2    0    0 -0.11284861823E+03  0.17703871394E+02  0.35160148415E+02  0.19410339191E+03  0.15294330000E+03 0.  0.
    8880022    1    1    2    0    0  0.11284861823E+03 -0.17703871394E+02  0.10271996504E+03  0.21677472623E+03  0.15294330000E+03 0.  0.
<mgrwt>
<rscale>  0 0.19089235E+03</rscale>
<asrwt>0</asrwt>
<pdfrwt beam="1">  1        4 0.20999847E-01 0.19089235E+03</pdfrwt>
<pdfrwt beam="2">  1       -4 0.42212171E-01 0.19089235E+03</pdfrwt>
<totfact> 0.19922724E+02</totfact>
</mgrwt>
</event>
<event>
 4    1  0.8478300E-009  0.2161645E+03  0.7818608E-02  0.1136775E+00
         -4   -1    0    0    0  501 -0.00000000000E+00  0.00000000000E+00  0.74714026046E+03  0.74714133984E+03  0.12700000000E+01 0. -1.
          4   -1    0    0  501    0  0.00000000000E+00 -0.00000000000E+00 -0.66508606960E+02  0.66520731353E+02  0.12700000000E+01 0. -1.
    8880022    1    1    2    0    0 -0.14878570808E+03 -0.34615518237E+02  0.43976389113E+03  0.49001974856E+03  0.15294330000E+03 0.  0.
    8880022    1    1    2    0    0  0.14878570808E+03  0.34615518237E+02  0.24086776237E+03  0.32364232263E+03  0.15294330000E+03 0.  0.
<mgrwt>
<rscale>  0 0.21616446E+03</rscale>
<asrwt>0</asrwt>
<pdfrwt beam="1">  1        4 0.10233108E-01 0.21616446E+03</pdfrwt>
<pdfrwt beam="2">  1       -4 0.11494568E+00 0.21616446E+03</pdfrwt>
<totfact> 0.80529150E+01</totfact>
</mgrwt>
</event>
<event>
 4    1  0.8478300E-009  0.3942727E+03  0.7818608E-02  0.1045781E+00
          4   -1    0    0  501    0  0.00000000000E+00  0.00000000000E+00  0.93394208062E+02  0.93402842566E+02  0.12700000000E+01 0.  1.
         -4   -1    0    0    0  501 -0.00000000000E+00 -0.00000000000E+00 -0.17398875607E+04  0.17398880242E+04  0.12700000000E+01 0.  1.
    8880022    1    1    2    0    0  0.16949984426E+02  0.36300410687E+03 -0.10142105391E+04  0.10881516228E+04  0.15294330000E+03 0.  0.
    8880022    1    1    2    0    0 -0.16949984426E+02 -0.36300410687E+03 -0.63228281349E+03  0.74513924392E+03  0.15294330000E+03 0.  0.
<mgrwt>
<rscale>  0 0.39427267E+03</rscale>
<asrwt>0</asrwt>
<pdfrwt beam="1">  1        4 0.14369041E-01 0.39427267E+03</pdfrwt>
<pdfrwt beam="2">  1       -4 0.26767569E+00 0.39427267E+03</pdfrwt>
<totfact> 0.41883748E+00</totfact>
</mgrwt>
</event>
<event>
 4    1  0.8478300E-009  0.2926682E+03  0.7818608E-02  0.1088964E+00
          4   -1    0    0  501    0  0.00000000000E+00  0.00000000000E+00  0.46503437259E+02  0.46520775756E+02  0.12700000000E+01 0. -1.
         -4   -1    0    0    0  501 -0.00000000000E+00 -0.00000000000E+00 -0.18735458089E+04  0.18735462394E+04  0.12700000000E+01 0. -1.
    8880022    1    1    2    0    0  0.21111525435E+03  0.13301646826E+03 -0.10390004444E+04  0.10794334662E+04  0.15294330000E+03 0.  0.
    8880022    1    1    2    0    0 -0.21111525435E+03 -0.13301646826E+03 -0.78804192723E+03  0.84063354890E+03  0.15294330000E+03 0.  0.
<mgrwt>
<rscale>  0 0.29266822E+03</rscale>
<asrwt>0</asrwt>
<pdfrwt beam="1">  1        4 0.71557432E-02 0.29266822E+03</pdfrwt>
<pdfrwt beam="2">  1       -4 0.28823913E+00 0.29266822E+03</pdfrwt>
<totfact> 0.10399374E+01</totfact>
</mgrwt>
</event>
<event>
 4    1  0.8478300E-009  0.1809166E+03  0.7818608E-02  0.1166919E+00
          4   -1    0    0  501    0  0.00000000000E+00  0.00000000000E+00  0.17243787675E+02  0.17290491994E+02  0.12700000000E+01 0. -1.
         -4   -1    0    0    0  501 -0.00000000000E+00 -0.00000000000E+00 -0.19582113881E+04  0.19582117999E+04  0.12700000000E+01 0. -1.
    8880022    1    1    2    0    0 -0.53722948030E+02 -0.80330545663E+02 -0.79373378582E+03  0.81409098231E+03  0.15294330000E+03 0.  0.
    8880022    1    1    2    0    0  0.53722948030E+02  0.80330545663E+02 -0.11472338146E+04  0.11614113096E+04  0.15294330000E+03 0.  0.
<mgrwt>
<rscale>  0 0.18091657E+03</rscale>
<asrwt>0</asrwt>
<pdfrwt beam="1">  1        4 0.26565163E-02 0.18091657E+03</pdfrwt>
<pdfrwt beam="2">  1       -4 0.30126674E+00 0.18091657E+03</pdfrwt>
<totfact> 0.42000896E+01</totfact>
</mgrwt>
</event>
<event>
 4    1  0.8478300E-009  0.2506283E+03  0.7818608E-02  0.1112908E+00
         -4   -1    0    0    0  501 -0.00000000000E+00  0.00000000000E+00  0.41727154228E+03  0.41727347495E+03  0.12700000000E+01 0.  1.
          4   -1    0    0  501    0  0.00000000000E+00 -0.00000000000E+00 -0.15547281351E+03  0.15547800050E+03  0.12700000000E+01 0.  1.
    8880022    1    1    2    0    0  0.87527406737E+02  0.17821854914E+03  0.18195259760E+03  0.30971163842E+03  0.15294330000E+03 0.  0.
    8880022    1    1    2    0    0 -0.87527406737E+02 -0.17821854914E+03  0.79846131173E+02  0.26303983703E+03  0.15294330000E+03 0.  0.
<mgrwt>
<rscale>  0 0.25062831E+03</rscale>
<asrwt>0</asrwt>
<pdfrwt beam="1">  1        4 0.23919443E-01 0.25062831E+03</pdfrwt>
<pdfrwt beam="2">  1       -4 0.64196168E-01 0.25062831E+03</pdfrwt>
<totfact> 0.68198994E+01</totfact>
</mgrwt>
</event>
<event>
 4    1  0.8478300E-009  0.3644984E+03  0.7818608E-02  0.1056817E+00
          4   -1    0    0  501    0  0.00000000000E+00  0.00000000000E+00  0.22238886776E+03  0.22239249403E+03  0.12700000000E+01 0.  1.
         -4   -1    0    0    0  501 -0.00000000000E+00 -0.00000000000E+00 -0.61461808966E+03  0.61461940177E+03  0.12700000000E+01 0.  1.
    8880022    1    1    2    0    0 -0.13936996943E+03 -0.30007233919E+03 -0.12608497380E+03  0.38568960416E+03  0.15294330000E+03 0.  0.
    8880022    1    1    2    0    0  0.13936996943E+03  0.30007233919E+03 -0.26614424810E+03  0.45132229165E+03  0.15294330000E+03 0.  0.
<mgrwt>
<rscale>  0 0.36449835E+03</rscale>
<asrwt>0</asrwt>
<pdfrwt beam="1">  1        4 0.34214052E-01 0.36449835E+03</pdfrwt>
<pdfrwt beam="2">  1       -4 0.94557008E-01 0.36449835E+03</pdfrwt>
<totfact> 0.14980881E+01</totfact>
</mgrwt>
</event>
<event>
 4    1  0.8478300E-009  0.1554664E+03  0.7818608E-02  0.1193912E+00
          4   -1    0    0  501    0  0.00000000000E+00  0.00000000000E+00  0.14002302711E+03  0.14002878640E+03  0.12700000000E+01 0. -1.
         -4   -1    0    0    0  501 -0.00000000000E+00 -0.00000000000E+00 -0.21405016165E+03  0.21405392919E+03  0.12700000000E+01 0. -1.
    8880022    1    1    2    0    0 -0.36907345335E+01 -0.27650004162E+02 -0.11491810451E+03  0.19332865284E+03  0.15294330000E+03 0.  0.
    8880022    1    1    2    0    0  0.36907345335E+01  0.27650004162E+02  0.40890969965E+02  0.16075406275E+03  0.15294330000E+03 0.  0.
<mgrwt>
<rscale>  0 0.15546639E+03</rscale>
<asrwt>0</asrwt>
<pdfrwt beam="1">  1        4 0.21542737E-01 0.15546639E+03</pdfrwt>
<pdfrwt beam="2">  1       -4 0.32931527E-01 0.15546639E+03</pdfrwt>
<totfact> 0.29903094E+02</totfact>
</mgrwt>
</event>
<event>
 4    1  0.8478300E-009  0.1785115E+03  0.7818608E-02  0.1169251E+00
         -4   -1    0    0    0  501 -0.00000000000E+00  0.00000000000E+00  0.26983489583E+03  0.26983788449E+03  0.12700000000E+01 0.  1.
          4   -1    0    0  501    0  0.00000000000E+00 -0.00000000000E+00 -0.14757920180E+03  0.14758466623E+03  0.12700000000E+01 0.  1.
    8880022    1    1    2    0    0 -0.24208881888E+02 -0.88818059013E+02  0.15442332291E+03  0.23603587279E+03  0.15294330000E+03 0.  0.
    8880022    1    1    2    0    0  0.24208881888E+02  0.88818059013E+02 -0.32167628880E+02  0.18138667793E+03  0.15294330000E+03 0.  0.
<mgrwt>
<rscale>  0 0.17851154E+03</rscale>
<asrwt>0</asrwt>
<pdfrwt beam="1">  1        4 0.22705143E-01 0.17851154E+03</pdfrwt>
<pdfrwt beam="2">  1       -4 0.41513711E-01 0.17851154E+03</pdfrwt>
<totfact> 0.17671878E+02</totfact>
</mgrwt>
</event>
<event>
 4    1  0.8478300E-009  0.2188897E+03  0.7818608E-02  0.1134714E+00
          4   -1    0    0  501    0  0.00000000000E+00  0.00000000000E+00  0.14397213988E+03  0.14397774120E+03  0.12700000000E+01 0. -1.
         -4   -1    0    0    0  501 -0.00000000000E+00 -0.00000000000E+00 -0.11046435593E+04  0.11046442894E+04  0.12700000000E+01 0. -1.
    8880022    1    1    2    0    0 -0.57955415368E+02  0.14547236456E+03  0.41530646916E+02  0.22279471867E+03  0.15294330000E+03 0.  0.
    8880022    1    1    2    0    0  0.57955415368E+02 -0.14547236456E+03 -0.10022020664E+04  0.10258273119E+04  0.15294330000E+03 0.  0.
<mgrwt>
<rscale>  0 0.21888968E+03</rscale>
<asrwt>0</asrwt>
<pdfrwt beam="1">  1        4 0.22150048E-01 0.21888968E+03</pdfrwt>
<pdfrwt beam="2">  1       -4 0.16994564E+00 0.21888968E+03</pdfrwt>
<totfact> 0.76430062E+00</totfact>
</mgrwt>
</event>
<event>
 4    1  0.8478300E-009  0.1765522E+03  0.7818608E-02  0.1171182E+00
         -4   -1    0    0    0  501 -0.00000000000E+00  0.00000000000E+00  0.49735327197E+02  0.49751539388E+02  0.12700000000E+01 0.  1.
          4   -1    0    0  501    0  0.00000000000E+00 -0.00000000000E+00 -0.72636849677E+03  0.72636960702E+03  0.12700000000E+01 0.  1.
    8880022    1    1    2    0    0  0.86881046597E+02  0.15188705741E+02 -0.19450740372E+03  0.26268573650E+03  0.15294330000E+03 0. -1.
    8880022    1    1    2    0    0 -0.86881046597E+02 -0.15188705741E+02 -0.48212576585E+03  0.51343540991E+03  0.15294330000E+03 0. -1.
<mgrwt>
<rscale>  0 0.17655216E+03</rscale>
<asrwt>0</asrwt>
<pdfrwt beam="1">  1        4 0.11175032E+00 0.17655216E+03</pdfrwt>
<pdfrwt beam="2">  1       -4 0.76529218E-02 0.17655216E+03</pdfrwt>
<totfact> 0.13663666E+02</totfact>
</mgrwt>
</event>
<event>
 4    1  0.8478300E-009  0.1720493E+03  0.7818608E-02  0.1175727E+00
         -4   -1    0    0    0  501 -0.00000000000E+00  0.00000000000E+00  0.55757554468E+03  0.55757699103E+03  0.12700000000E+01 0. -1.
          4   -1    0    0  501    0  0.00000000000E+00 -0.00000000000E+00 -0.71232782490E+02  0.71244102923E+02  0.12700000000E+01 0. -1.
    8880022    1    1    2    0    0 -0.68361260901E+02  0.39192558640E+02  0.40187565418E+03  0.43715559368E+03  0.15294330000E+03 0.  0.
    8880022    1    1    2    0    0  0.68361260901E+02 -0.39192558640E+02  0.84467108004E+02  0.19166550027E+03  0.15294330000E+03 0.  0.
<mgrwt>
<rscale>  0 0.17204933E+03</rscale>
<asrwt>0</asrwt>
<pdfrwt beam="1">  1        4 0.10959872E-01 0.17204933E+03</pdfrwt>
<pdfrwt beam="2">  1       -4 0.85781833E-01 0.17204933E+03</pdfrwt>
<totfact> 0.13722661E+02</totfact>
</mgrwt>
</event>
<event>
 4    1  0.8478300E-009  0.5585516E+03  0.7818608E-02  0.9995337E-01
         -4   -1    0    0    0  501 -0.00000000000E+00  0.00000000000E+00  0.18743376651E+04  0.18743380954E+04  0.12700000000E+01 0. -1.
          4   -1    0    0  501    0  0.00000000000E+00 -0.00000000000E+00 -0.16647511313E+03  0.16647995733E+03  0.12700000000E+01 0. -1.
    8880022    1    1    2    0    0 -0.24606984612E+03  0.47753311413E+03  0.86760847812E+03  0.10318548195E+04  0.15294330000E+03 0.  0.
    8880022    1    1    2    0    0  0.24606984612E+03 -0.47753311413E+03  0.84025407389E+03  0.10089632332E+04  0.15294330000E+03 0.  0.
<mgrwt>
<rscale>  0 0.55855161E+03</rscale>
<asrwt>0</asrwt>
<pdfrwt beam="1">  1        4 0.25611963E-01 0.55855161E+03</pdfrwt>
<pdfrwt beam="2">  1       -4 0.28836003E+00 0.55855161E+03</pdfrwt>
<totfact> 0.10874959E+00</totfact>
</mgrwt>
</event>
<event>
 4    1  0.8478300E-009  0.2325462E+03  0.7818608E-02  0.1124860E+00
          4   -1    0    0  501    0  0.00000000000E+00  0.00000000000E+00  0.96484782687E+02  0.96493140638E+02  0.12700000000E+01 0.  1.
         -4   -1    0    0    0  501 -0.00000000000E+00 -0.00000000000E+00 -0.57234075448E+03  0.57234216351E+03  0.12700000000E+01 0.  1.
    8880022    1    1    2    0    0 -0.52735443967E+02  0.16704801659E+03 -0.28613802778E+03  0.36871763024E+03  0.15294330000E+03 0.  0.
    8880022    1    1    2    0    0  0.52735443967E+02 -0.16704801659E+03 -0.18971794401E+03  0.30011767391E+03  0.15294330000E+03 0.  0.
<mgrwt>
<rscale>  0 0.23254617E+03</rscale>
<asrwt>0</asrwt>
<pdfrwt beam="1">  1        4 0.14844564E-01 0.23254617E+03</pdfrwt>
<pdfrwt beam="2">  1       -4 0.88053173E-01 0.23254617E+03</pdfrwt>
<totfact> 0.79626876E+01</totfact>
</mgrwt>
</event>
<event>
 4    1  0.8478300E-009  0.1606575E+03  0.7818608E-02  0.1187956E+00
          4   -1    0    0  501    0  0.00000000000E+00  0.00000000000E+00  0.63089600127E+02  0.63102381446E+02  0.12700000000E+01 0. -1.
         -4   -1    0    0    0  501 -0.00000000000E+00 -0.00000000000E+00 -0.41038454778E+03  0.41038651288E+03  0.12700000000E+01 0. -1.
    8880022    1    1    2    0    0 -0.49144389823E+02 -0.20028865568E+01 -0.18710346016E+03  0.24661415293E+03  0.15294330000E+03 0. -1.
    8880022    1    1    2    0    0  0.49144389823E+02  0.20028865568E+01 -0.16019148749E+03  0.22687474140E+03  0.15294330000E+03 0. -1.
<mgrwt>
<rscale>  0 0.16065751E+03</rscale>
<asrwt>0</asrwt>
<pdfrwt beam="1">  1        4 0.97072269E-02 0.16065751E+03</pdfrwt>
<pdfrwt beam="2">  1       -4 0.63137217E-01 0.16065751E+03</pdfrwt>
<totfact> 0.32605999E+02</totfact>
</mgrwt>
</event>
<event>
 4    1  0.8478300E-009  0.2284327E+03  0.7818608E-02  0.1127748E+00
          4   -1    0    0  501    0  0.00000000000E+00  0.00000000000E+00  0.37712630182E+03  0.37712844022E+03  0.12700000000E+01 0. -1.
         -4   -1    0    0    0  501 -0.00000000000E+00 -0.00000000000E+00 -0.15364336536E+03  0.15364861411E+03  0.12700000000E+01 0. -1.
    8880022    1    1    2    0    0  0.70704927808E+02  0.15424217666E+03  0.28043516237E+02  0.23014762153E+03  0.15294330000E+03 0.  0.
    8880022    1    1    2    0    0 -0.70704927808E+02 -0.15424217666E+03  0.19543942023E+03  0.30062943281E+03  0.15294330000E+03 0.  0.
<mgrwt>
<rscale>  0 0.22843268E+03</rscale>
<asrwt>0</asrwt>
<pdfrwt beam="1">  1        4 0.58020000E-01 0.22843268E+03</pdfrwt>
<pdfrwt beam="2">  1       -4 0.23638009E-01 0.22843268E+03</pdfrwt>
<totfact> 0.85537534E+01</totfact>
</mgrwt>
</event>
<event>
 4    1  0.8478300E-009  0.1928361E+03  0.7818608E-02  0.1155928E+00
          4   -1    0    0  501    0  0.00000000000E+00  0.00000000000E+00  0.21397858194E+03  0.21398235074E+03  0.12700000000E+01 0. -1.
         -4   -1    0    0    0  501 -0.00000000000E+00 -0.00000000000E+00 -0.18249048656E+03  0.18249490564E+03  0.12700000000E+01 0. -1.
    8880022    1    1    2    0    0  0.65875407649E+02  0.97234551413E+02  0.59065356722E+02  0.20167919253E+03  0.15294330000E+03 0.  1.
    8880022    1    1    2    0    0 -0.65875407649E+02 -0.97234551413E+02 -0.27577261336E+02  0.19479806385E+03  0.15294330000E+03 0.  1.
<mgrwt>
<rscale>  0 0.19283615E+03</rscale>
<asrwt>0</asrwt>
<pdfrwt beam="1">  1        4 0.32920412E-01 0.19283615E+03</pdfrwt>
<pdfrwt beam="2">  1       -4 0.28076089E-01 0.19283615E+03</pdfrwt>
<totfact> 0.18972095E+02</totfact>
</mgrwt>
</event>
<event>
 4    1  0.8478300E-009  0.1791632E+03  0.7818608E-02  0.1168615E+00
          4   -1    0    0  501    0  0.00000000000E+00  0.00000000000E+00  0.11232552345E+03  0.11233270280E+03  0.12700000000E+01 0.  1.
         -4   -1    0    0    0  501 -0.00000000000E+00 -0.00000000000E+00 -0.30588054949E+03  0.30588318597E+03  0.12700000000E+01 0.  1.
    8880022    1    1    2    0    0  0.92852232433E+02  0.92876615437E+01 -0.43139465373E+02  0.18428365151E+03  0.15294330000E+03 0. -1.
    8880022    1    1    2    0    0 -0.92852232433E+02 -0.92876615437E+01 -0.15041556067E+03  0.23393223726E+03  0.15294330000E+03 0. -1.
<mgrwt>
<rscale>  0 0.17916320E+03</rscale>
<asrwt>0</asrwt>
<pdfrwt beam="1">  1        4 0.17281605E-01 0.17916320E+03</pdfrwt>
<pdfrwt beam="2">  1       -4 0.47059301E-01 0.17916320E+03</pdfrwt>
<totfact> 0.22510350E+02</totfact>
</mgrwt>
</event>
<event>
 4    1  0.8478300E-009  0.1714265E+03  0.7818608E-02  0.1176368E+00
         -4   -1    0    0    0  501 -0.00000000000E+00  0.00000000000E+00  0.37019932072E+03  0.37020149914E+03  0.12700000000E+01 0. -1.
          4   -1    0    0  501    0  0.00000000000E+00 -0.00000000000E+00 -0.86095059225E+02  0.86104425687E+02  0.12700000000E+01 0. -1.
    8880022    1    1    2    0    0 -0.72496818537E+02 -0.27195615849E+02  0.78311005368E+02  0.18846659332E+03  0.15294330000E+03 0.  1.
    8880022    1    1    2    0    0  0.72496818537E+02  0.27195615849E+02  0.20579325613E+03  0.26783933151E+03  0.15294330000E+03 0.  1.
<mgrwt>
<rscale>  0 0.17142650E+03</rscale>
<asrwt>0</asrwt>
<pdfrwt beam="1">  1        4 0.13246282E-01 0.17142650E+03</pdfrwt>
<pdfrwt beam="2">  1       -4 0.56954630E-01 0.17142650E+03</pdfrwt>
<totfact> 0.24071973E+02</totfact>
</mgrwt>
</event>
<event>
 4    1  0.8478300E-009  0.4580813E+03  0.7818608E-02  0.1025339E+00
          4   -1    0    0  501    0  0.00000000000E+00  0.00000000000E+00  0.19774582750E+03  0.19774990568E+03  0.12700000000E+01 0. -1.
         -4   -1    0    0    0  501 -0.00000000000E+00 -0.00000000000E+00 -0.10642445125E+04  0.10642452703E+04  0.12700000000E+01 0. -1.
    8880022    1    1    2    0    0 -0.32724519867E+03 -0.28170438525E+03 -0.46734676495E+03  0.65440922399E+03  0.15294330000E+03 0.  0.
    8880022    1    1    2    0    0  0.32724519867E+03  0.28170438525E+03 -0.39915192005E+03  0.60758595196E+03  0.15294330000E+03 0.  0.
<mgrwt>
<rscale>  0 0.45808125E+03</rscale>
<asrwt>0</asrwt>
<pdfrwt beam="1">  1        4 0.30422808E-01 0.45808125E+03</pdfrwt>
<pdfrwt beam="2">  1       -4 0.16373029E+00 0.45808125E+03</pdfrwt>
<totfact> 0.48214148E+00</totfact>
</mgrwt>
</event>
<event>
 4    1  0.8478300E-009  0.3125898E+03  0.7818608E-02  0.1079111E+00
         -4   -1    0    0    0  501 -0.00000000000E+00  0.00000000000E+00  0.55649054662E+03  0.55649199579E+03  0.12700000000E+01 0. -1.
          4   -1    0    0  501    0  0.00000000000E+00 -0.00000000000E+00 -0.35654848168E+03  0.35655074350E+03  0.12700000000E+01 0. -1.
    8880022    1    1    2    0    0  0.25244523289E+03  0.10291823056E+03 -0.22526367936E+03  0.38530005975E+03  0.15294330000E+03 0.  0.
    8880022    1    1    2    0    0 -0.25244523289E+03 -0.10291823056E+03  0.42520574431E+03  0.52774267953E+03  0.15294330000E+03 0.  0.
<mgrwt>
<rscale>  0 0.31258984E+03</rscale>
<asrwt>0</asrwt>
<pdfrwt beam="1">  1        4 0.54853898E-01 0.31258984E+03</pdfrwt>
<pdfrwt beam="2">  1       -4 0.85614215E-01 0.31258984E+03</pdfrwt>
<totfact> 0.71572610E+00</totfact>
</mgrwt>
</event>
<event>
 4    1  0.8478300E-009  0.2877709E+03  0.7818608E-02  0.1091519E+00
         -4   -1    0    0    0  501 -0.00000000000E+00  0.00000000000E+00  0.36714536488E+03  0.36714756141E+03  0.12700000000E+01 0.  1.
          4   -1    0    0  501    0  0.00000000000E+00 -0.00000000000E+00 -0.23828591457E+03  0.23828929892E+03  0.12700000000E+01 0.  1.
    8880022    1    1    2    0    0  0.18230350198E+03 -0.16182045463E+03  0.13440837918E+03  0.31761248681E+03  0.15294330000E+03 0.  0.
    8880022    1    1    2    0    0 -0.18230350198E+03  0.16182045463E+03 -0.55489288669E+01  0.28782437353E+03  0.15294330000E+03 0.  0.
<mgrwt>
<rscale>  0 0.28777088E+03</rscale>
<asrwt>0</asrwt>
<pdfrwt beam="1">  1        4 0.36659801E-01 0.28777088E+03</pdfrwt>
<pdfrwt beam="2">  1       -4 0.56484331E-01 0.28777088E+03</pdfrwt>
<totfact> 0.40167419E+01</totfact>
</mgrwt>
</event>
<event>
 4    1  0.8478300E-009  0.2364769E+03  0.7818608E-02  0.1122162E+00
         -4   -1    0    0    0  501 -0.00000000000E+00  0.00000000000E+00  0.22577448211E+03  0.22577805401E+03  0.12700000000E+01 0. -1.
          4   -1    0    0  501    0  0.00000000000E+00 -0.00000000000E+00 -0.26728200153E+03  0.26728501873E+03  0.12700000000E+01 0. -1.
    8880022    1    1    2    0    0 -0.45275910735E+01  0.18030304483E+03  0.46009462857E+02  0.24091120926E+03  0.15294330000E+03 0.  0.
    8880022    1    1    2    0    0  0.45275910735E+01 -0.18030304483E+03 -0.87516982275E+02  0.25215186348E+03  0.15294330000E+03 0.  0.
<mgrwt>
<rscale>  0 0.23647693E+03</rscale>
<asrwt>0</asrwt>
<pdfrwt beam="1">  1        4 0.41120815E-01 0.23647693E+03</pdfrwt>
<pdfrwt beam="2">  1       -4 0.34735043E-01 0.23647693E+03</pdfrwt>
<totfact> 0.83823069E+01</totfact>
</mgrwt>
</event>
<event>
 4    1  0.8478300E-009  0.1683557E+03  0.7818608E-02  0.1179574E+00
          4   -1    0    0  501    0  0.00000000000E+00  0.00000000000E+00  0.81859949663E+03  0.81860048178E+03  0.12700000000E+01 0.  1.
         -4   -1    0    0    0  501 -0.00000000000E+00 -0.00000000000E+00 -0.13254030826E+03  0.13254639268E+03  0.12700000000E+01 0.  1.
    8880022    1    1    2    0    0 -0.66553715702E+02 -0.22860267224E+02  0.75179324473E+03  0.77041334667E+03  0.15294330000E+03 0.  0.
    8880022    1    1    2    0    0  0.66553715702E+02  0.22860267224E+02 -0.65734056357E+02  0.18073352780E+03  0.15294330000E+03 0.  0.
<mgrwt>
<rscale>  0 0.16835570E+03</rscale>
<asrwt>0</asrwt>
<pdfrwt beam="1">  1        4 0.12593893E+00 0.16835570E+03</pdfrwt>
<pdfrwt beam="2">  1       -4 0.20391360E-01 0.16835570E+03</pdfrwt>
<totfact> 0.18709666E+01</totfact>
</mgrwt>
</event>
<event>
 4    1  0.8478300E-009  0.1791222E+03  0.7818608E-02  0.1168655E+00
         -4   -1    0    0    0  501 -0.00000000000E+00  0.00000000000E+00  0.72144827954E+03  0.72144939736E+03  0.12700000000E+01 0. -1.
          4   -1    0    0  501    0  0.00000000000E+00 -0.00000000000E+00 -0.78069918054E+02  0.78080247214E+02  0.12700000000E+01 0. -1.
    8880022    1    1    2    0    0 -0.22333481982E+02 -0.90522497732E+02  0.59425797824E+02  0.18872250919E+03  0.15294330000E+03 0.  0.
    8880022    1    1    2    0    0  0.22333481982E+02  0.90522497732E+02  0.58395256366E+03  0.61080713538E+03  0.15294330000E+03 0.  0.
<mgrwt>
<rscale>  0 0.17912219E+03</rscale>
<asrwt>0</asrwt>
<pdfrwt beam="1">  1        4 0.12011637E-01 0.17912219E+03</pdfrwt>
<pdfrwt beam="2">  1       -4 0.11099292E+00 0.17912219E+03</pdfrwt>
<totfact> 0.64975432E+01</totfact>
</mgrwt>
</event>
<event>
 4    1  0.8478300E-009  0.1566114E+03  0.7818608E-02  0.1192576E+00
          4   -1    0    0  501    0  0.00000000000E+00  0.00000000000E+00  0.32785246536E+03  0.32785492514E+03  0.12700000000E+01 0.  1.
         -4   -1    0    0    0  501 -0.00000000000E+00 -0.00000000000E+00 -0.74825577130E+02  0.74836354085E+02  0.12700000000E+01 0.  1.
    8880022    1    1    2    0    0  0.33030000540E+02 -0.66709962980E+01  0.12304537700E+03  0.19916651562E+03  0.15294330000E+03 0.  0.
    8880022    1    1    2    0    0 -0.33030000540E+02  0.66709962980E+01  0.12998151123E+03  0.20352476361E+03  0.15294330000E+03 0.  0.
<mgrwt>
<rscale>  0 0.15661142E+03</rscale>
<asrwt>0</asrwt>
<pdfrwt beam="1">  1        4 0.50439859E-01 0.15661142E+03</pdfrwt>
<pdfrwt beam="2">  1       -4 0.11512645E-01 0.15661142E+03</pdfrwt>
<totfact> 0.38803293E+02</totfact>
</mgrwt>
</event>
<event>
 4    1  0.8478300E-009  0.7702845E+03  0.7818608E-02  0.9604054E-01
          4   -1    0    0  501    0  0.00000000000E+00  0.00000000000E+00  0.18551871818E+04  0.18551876165E+04  0.12700000000E+01 0. -1.
         -4   -1    0    0    0  501 -0.00000000000E+00 -0.00000000000E+00 -0.31984542411E+03  0.31984794548E+03  0.12700000000E+01 0. -1.
    8880022    1    1    2    0    0  0.37004543987E+03 -0.65803713511E+03  0.77639594139E+03  0.10936767391E+04  0.15294330000E+03 0.  0.
    8880022    1    1    2    0    0 -0.37004543987E+03  0.65803713511E+03  0.75894581627E+03  0.10813588229E+04  0.15294330000E+03 0.  0.
<mgrwt>
<rscale>  0 0.77028446E+03</rscale>
<asrwt>0</asrwt>
<pdfrwt beam="1">  1        4 0.28541364E+00 0.77028446E+03</pdfrwt>
<pdfrwt beam="2">  1       -4 0.49207216E-01 0.77028446E+03</pdfrwt>
<totfact> 0.30491599E-01</totfact>
</mgrwt>
</event>
<event>
 4    1  0.8478300E-009  0.3068809E+03  0.7818608E-02  0.1081851E+00
          4   -1    0    0  501    0  0.00000000000E+00  0.00000000000E+00  0.19531632144E+03  0.19532045034E+03  0.12700000000E+01 0.  1.
         -4   -1    0    0    0  501 -0.00000000000E+00 -0.00000000000E+00 -0.49874677176E+03  0.49874838871E+03  0.12700000000E+01 0.  1.
    8880022    1    1    2    0    0  0.26424004502E+03 -0.31007255509E+02 -0.88430911934E+02  0.31936801732E+03  0.15294330000E+03 0.  0.
    8880022    1    1    2    0    0 -0.26424004502E+03  0.31007255509E+02 -0.21499953838E+03  0.37470082173E+03  0.15294330000E+03 0.  0.
<mgrwt>
<rscale>  0 0.30688093E+03</rscale>
<asrwt>0</asrwt>
<pdfrwt beam="1">  1        4 0.30049107E-01 0.30688093E+03</pdfrwt>
<pdfrwt beam="2">  1       -4 0.76730714E-01 0.30688093E+03</pdfrwt>
<totfact> 0.30612104E+01</totfact>
</mgrwt>
</event>
<event>
 4    1  0.8478300E-009  0.1632775E+03  0.7818608E-02  0.1185045E+00
         -4   -1    0    0    0  501 -0.00000000000E+00  0.00000000000E+00  0.12972125819E+03  0.12972747484E+03  0.12700000000E+01 0. -1.
          4   -1    0    0  501    0  0.00000000000E+00 -0.00000000000E+00 -0.21207009240E+03  0.21207389512E+03  0.12700000000E+01 0. -1.
    8880022    1    1    2    0    0 -0.57008348558E+02  0.42355847263E+01 -0.11096536667E+02  0.16365414179E+03  0.15294330000E+03 0.  0.
    8880022    1    1    2    0    0  0.57008348558E+02 -0.42355847263E+01 -0.71252297538E+02  0.17814722816E+03  0.15294330000E+03 0.  0.
<mgrwt>
<rscale>  0 0.16327751E+03</rscale>
<asrwt>0</asrwt>
<pdfrwt beam="1">  1        4 0.32626939E-01 0.16327751E+03</pdfrwt>
<pdfrwt beam="2">  1       -4 0.19957887E-01 0.16327751E+03</pdfrwt>
<totfact> 0.35262798E+02</totfact>
</mgrwt>
</event>
<event>
 4    1  0.8478300E-009  0.1682593E+03  0.7818608E-02  0.1179675E+00
         -4   -1    0    0    0  501 -0.00000000000E+00  0.00000000000E+00  0.26847283803E+03  0.26847584185E+03  0.12700000000E+01 0.  1.
          4   -1    0    0  501    0  0.00000000000E+00 -0.00000000000E+00 -0.10742776441E+03  0.10743527105E+03  0.12700000000E+01 0.  1.
    8880022    1    1    2    0    0  0.19644296623E+02  0.67332382653E+02  0.10605388910E+03  0.19889351058E+03  0.15294330000E+03 0.  1.
    8880022    1    1    2    0    0 -0.19644296623E+02 -0.67332382653E+02  0.54991184514E+02  0.17701760232E+03  0.15294330000E+03 0.  1.
<mgrwt>
<rscale>  0 0.16825933E+03</rscale>
<asrwt>0</asrwt>
<pdfrwt beam="1">  1        4 0.16528157E-01 0.16825933E+03</pdfrwt>
<pdfrwt beam="2">  1       -4 0.41304322E-01 0.16825933E+03</pdfrwt>
<totfact> 0.31334799E+02</totfact>
</mgrwt>
</event>
<event>
 4    1  0.8478300E-009  0.4891053E+03  0.7818608E-02  0.1016662E+00
          4   -1    0    0  501    0  0.00000000000E+00  0.00000000000E+00  0.16821364455E+03  0.16821843869E+03  0.12700000000E+01 0.  1.
         -4   -1    0    0    0  501 -0.00000000000E+00 -0.00000000000E+00 -0.15640001007E+04  0.15640006163E+04  0.12700000000E+01 0.  1.
    8880022    1    1    2    0    0 -0.39024231123E+03  0.25207790534E+03 -0.43702760303E+03  0.65590937686E+03  0.15294330000E+03 0.  0.
    8880022    1    1    2    0    0  0.39024231123E+03 -0.25207790534E+03 -0.95875885312E+03  0.10763096782E+04  0.15294330000E+03 0.  0.
<mgrwt>
<rscale>  0 0.48910529E+03</rscale>
<asrwt>0</asrwt>
<pdfrwt beam="1">  1        4 0.25879432E-01 0.48910529E+03</pdfrwt>
<pdfrwt beam="2">  1       -4 0.24061580E+00 0.48910529E+03</pdfrwt>
<totfact> 0.20764160E+00</totfact>
</mgrwt>
</event>
<event>
 4    1  0.8478300E-009  0.1885504E+03  0.7818608E-02  0.1159775E+00
          4   -1    0    0  501    0  0.00000000000E+00  0.00000000000E+00  0.23219191297E+02  0.23253897404E+02  0.12700000000E+01 0. -1.
         -4   -1    0    0    0  501 -0.00000000000E+00 -0.00000000000E+00 -0.15320762932E+04  0.15320768195E+04  0.12700000000E+01 0. -1.
    8880022    1    1    2    0    0  0.10979217203E+03 -0.10260874640E+02 -0.78348825239E+03  0.80585674983E+03  0.15294330000E+03 0.  0.
    8880022    1    1    2    0    0 -0.10979217203E+03  0.10260874640E+02 -0.72536884947E+03  0.74947396712E+03  0.15294330000E+03 0.  0.
<mgrwt>
<rscale>  0 0.18855042E+03</rscale>
<asrwt>0</asrwt>
<pdfrwt beam="1">  1        4 0.35748947E-02 0.18855042E+03</pdfrwt>
<pdfrwt beam="2">  1       -4 0.23570668E+00 0.18855042E+03</pdfrwt>
<totfact> 0.63680338E+01</totfact>
</mgrwt>
</event>
<event>
 4    1  0.8478300E-009  0.1687194E+03  0.7818608E-02  0.1179190E+00
          4   -1    0    0  501    0  0.00000000000E+00  0.00000000000E+00  0.67028080400E+03  0.67028200715E+03  0.12700000000E+01 0.  1.
         -4   -1    0    0    0  501 -0.00000000000E+00 -0.00000000000E+00 -0.43861812363E+02  0.43880194665E+02  0.12700000000E+01 0.  1.
    8880022    1    1    2    0    0 -0.18389925456E+02  0.68821368013E+02  0.37706866098E+03  0.41309441798E+03  0.15294330000E+03 0.  0.
    8880022    1    1    2    0    0  0.18389925456E+02 -0.68821368013E+02  0.24935033065E+03  0.30106778384E+03  0.15294330000E+03 0.  0.
<mgrwt>
<rscale>  0 0.16871936E+03</rscale>
<asrwt>0</asrwt>
<pdfrwt beam="1">  1        4 0.10312162E+00 0.16871936E+03</pdfrwt>
<pdfrwt beam="2">  1       -4 0.67494781E-02 0.16871936E+03</pdfrwt>
<totfact> 0.20191123E+02</totfact>
</mgrwt>
</event>
<event>
 4    1  0.8478300E-009  0.1988575E+03  0.7818608E-02  0.1150707E+00
          4   -1    0    0  501    0  0.00000000000E+00  0.00000000000E+00  0.64226536174E+02  0.64239091283E+02  0.12700000000E+01 0. -1.
         -4   -1    0    0    0  501 -0.00000000000E+00 -0.00000000000E+00 -0.69667875378E+03  0.69667991135E+03  0.12700000000E+01 0. -1.
    8880022    1    1    2    0    0 -0.77108552345E+02  0.10102935417E+03 -0.18645779162E+03  0.27260011064E+03  0.15294330000E+03 0.  0.
    8880022    1    1    2    0    0  0.77108552345E+02 -0.10102935417E+03 -0.44599442599E+03  0.48831889199E+03  0.15294330000E+03 0.  0.
<mgrwt>
<rscale>  0 0.19885752E+03</rscale>
<asrwt>0</asrwt>
<pdfrwt beam="1">  1        4 0.98820609E-02 0.19885752E+03</pdfrwt>
<pdfrwt beam="2">  1       -4 0.10718240E+00 0.19885752E+03</pdfrwt>
<totfact> 0.99893842E+01</totfact>
</mgrwt>
</event>
<event>
 4    1  0.8478300E-009  0.1896796E+03  0.7818608E-02  0.1158751E+00
         -4   -1    0    0    0  501 -0.00000000000E+00  0.00000000000E+00  0.22725867749E+04  0.22725871297E+04  0.12700000000E+01 0. -1.
          4   -1    0    0  501    0  0.00000000000E+00 -0.00000000000E+00 -0.25831267545E+02  0.25862468618E+02  0.12700000000E+01 0. -1.
    8880022    1    1    2    0    0  0.99360434719E+02 -0.52097857392E+02  0.18387636675E+04  0.18485210739E+04  0.15294330000E+03 0.  0.
    8880022    1    1    2    0    0 -0.99360434719E+02  0.52097857392E+02  0.40799183986E+03  0.44992852448E+03  0.15294330000E+03 0.  0.
<mgrwt>
<rscale>  0 0.18967956E+03</rscale>
<asrwt>0</asrwt>
<pdfrwt beam="1">  1        4 0.39764685E-02 0.18967956E+03</pdfrwt>
<pdfrwt beam="2">  1       -4 0.34963116E+00 0.18967956E+03</pdfrwt>
<totfact> 0.11418223E+01</totfact>
</mgrwt>
</event>
<event>
 4    1  0.8478300E-009  0.2532727E+03  0.7818608E-02  0.1111254E+00
          4   -1    0    0  501    0  0.00000000000E+00  0.00000000000E+00  0.49869760128E+02  0.49885928629E+02  0.12700000000E+01 0. -1.
         -4   -1    0    0    0  501 -0.00000000000E+00 -0.00000000000E+00 -0.18084183249E+04  0.18084187708E+04  0.12700000000E+01 0. -1.
    8880022    1    1    2    0    0 -0.19970554335E+03  0.29547916990E+02 -0.13786381544E+04  0.14017097407E+04  0.15294330000E+03 0.  0.
    8880022    1    1    2    0    0  0.19970554335E+03 -0.29547916990E+02 -0.37991041043E+03  0.45659495881E+03  0.15294330000E+03 0.  0.
<mgrwt>
<rscale>  0 0.25327265E+03</rscale>
<asrwt>0</asrwt>
<pdfrwt beam="1">  1        4 0.76735502E-02 0.25327265E+03</pdfrwt>
<pdfrwt beam="2">  1       -4 0.27821943E+00 0.25327265E+03</pdfrwt>
<totfact> 0.10545430E+01</totfact>
</mgrwt>
</event>
<event>
 4    1  0.8478300E-009  0.2896414E+03  0.7818608E-02  0.1090537E+00
         -4   -1    0    0    0  501 -0.00000000000E+00  0.00000000000E+00  0.25943468049E+03  0.25943778896E+03  0.12700000000E+01 0. -1.
          4   -1    0    0  501    0  0.00000000000E+00 -0.00000000000E+00 -0.63277552548E+03  0.63277679995E+03  0.12700000000E+01 0. -1.
    8880022    1    1    2    0    0  0.24124562234E+03  0.47969219638E+02 -0.49862013293E+03  0.57664043069E+03  0.15294330000E+03 0.  0.
    8880022    1    1    2    0    0 -0.24124562234E+03 -0.47969219638E+02  0.12527928794E+03  0.31557415821E+03  0.15294330000E+03 0.  0.
<mgrwt>
<rscale>  0 0.28964142E+03</rscale>
<asrwt>0</asrwt>
<pdfrwt beam="1">  1        4 0.97350417E-01 0.28964142E+03</pdfrwt>
<pdfrwt beam="2">  1       -4 0.39913365E-01 0.28964142E+03</pdfrwt>
<totfact> 0.10155372E+01</totfact>
</mgrwt>
</event>
<event>
 4    1  0.8478300E-009  0.1536287E+03  0.7818608E-02  0.1196084E+00
         -4   -1    0    0    0  501 -0.00000000000E+00  0.00000000000E+00  0.25908169464E+03  0.25908480734E+03  0.12700000000E+01 0.  1.
          4   -1    0    0  501    0  0.00000000000E+00 -0.00000000000E+00 -0.91592411296E+02  0.91601215641E+02  0.12700000000E+01 0.  1.
    8880022    1    1    2    0    0 -0.84305806070E+01 -0.11791684400E+02  0.70755354150E+02  0.16913926707E+03  0.15294330000E+03 0. -1.
    8880022    1    1    2    0    0  0.84305806070E+01  0.11791684400E+02  0.96733929193E+02  0.18154675591E+03  0.15294330000E+03 0. -1.
<mgrwt>
<rscale>  0 0.15362868E+03</rscale>
<asrwt>0</asrwt>
<pdfrwt beam="1">  1        4 0.14092057E-01 0.15362868E+03</pdfrwt>
<pdfrwt beam="2">  1       -4 0.39859638E-01 0.15362868E+03</pdfrwt>
<totfact> 0.43776366E+02</totfact>
</mgrwt>
</event>
<event>
 4    1  0.8478300E-009  0.1976475E+03  0.7818608E-02  0.1151739E+00
         -4   -1    0    0    0  501 -0.00000000000E+00  0.00000000000E+00  0.65433487064E+03  0.65433610311E+03  0.12700000000E+01 0. -1.
          4   -1    0    0  501    0  0.00000000000E+00 -0.00000000000E+00 -0.13245540912E+03  0.13246149744E+03  0.12700000000E+01 0. -1.
    8880022    1    1    2    0    0  0.88842787901E+02  0.88203308648E+02  0.55250341904E+03  0.58679173962E+03  0.15294330000E+03 0.  0.
    8880022    1    1    2    0    0 -0.88842787901E+02 -0.88203308648E+02 -0.30623957516E+02  0.20000586093E+03  0.15294330000E+03 0.  0.
<mgrwt>
<rscale>  0 0.19764746E+03</rscale>
<asrwt>0</asrwt>
<pdfrwt beam="1">  1        4 0.20378318E-01 0.19764746E+03</pdfrwt>
<pdfrwt beam="2">  1       -4 0.10066747E+00 0.19764746E+03</pdfrwt>
<totfact> 0.32555469E+01</totfact>
</mgrwt>
</event>
<event>
 4    1  0.8478300E-009  0.2620330E+03  0.7818608E-02  0.1105928E+00
          4   -1    0    0  501    0  0.00000000000E+00  0.00000000000E+00  0.53551901510E+02  0.53566958615E+02  0.12700000000E+01 0. -1.
         -4   -1    0    0    0  501 -0.00000000000E+00 -0.00000000000E+00 -0.16134165074E+04  0.16134170072E+04  0.12700000000E+01 0. -1.
    8880022    1    1    2    0    0 -0.60290226281E+02 -0.20404590634E+03 -0.40214585754E+03  0.47998186115E+03  0.15294330000E+03 0.  0.
    8880022    1    1    2    0    0  0.60290226281E+02  0.20404590634E+03 -0.11577187483E+04  0.11870021047E+04  0.15294330000E+03 0.  0.
<mgrwt>
<rscale>  0 0.26203301E+03</rscale>
<asrwt>0</asrwt>
<pdfrwt beam="1">  1        4 0.82399520E-02 0.26203301E+03</pdfrwt>
<pdfrwt beam="2">  1       -4 0.24821908E+00 0.26203301E+03</pdfrwt>
<totfact> 0.14086796E+01</totfact>
</mgrwt>
</event>
<event>
 4    1  0.8478300E-009  0.4526995E+03  0.7818608E-02  0.1026920E+00
          4   -1    0    0  501    0  0.00000000000E+00  0.00000000000E+00  0.88006227395E+02  0.88015390474E+02  0.12700000000E+01 0. -1.
         -4   -1    0    0    0  501 -0.00000000000E+00 -0.00000000000E+00 -0.26155936898E+04  0.26155939982E+04  0.12700000000E+01 0. -1.
    8880022    1    1    2    0    0  0.42494619690E+03 -0.31079161940E+02 -0.17116259906E+04  0.17704802651E+04  0.15294330000E+03 0.  0.
    8880022    1    1    2    0    0 -0.42494619690E+03  0.31079161940E+02 -0.81596147189E+03  0.93312912353E+03  0.15294330000E+03 0.  0.
<mgrwt>
<rscale>  0 0.45269950E+03</rscale>
<asrwt>0</asrwt>
<pdfrwt beam="1">  1        4 0.13540150E-01 0.45269950E+03</pdfrwt>
<pdfrwt beam="2">  1       -4 0.40239970E+00 0.45269950E+03</pdfrwt>
<totfact> 0.66284034E-01</totfact>
</mgrwt>
</event>
<event>
 4    1  0.8478300E-009  0.1546813E+03  0.7818608E-02  0.1194836E+00
          4   -1    0    0  501    0  0.00000000000E+00  0.00000000000E+00  0.31785018434E+03  0.31785272154E+03  0.12700000000E+01 0.  1.
         -4   -1    0    0    0  501 -0.00000000000E+00 -0.00000000000E+00 -0.76127408408E+02  0.76138001097E+02  0.12700000000E+01 0.  1.
    8880022    1    1    2    0    0  0.65317021762E+01  0.22180983369E+02  0.99923230606E+02  0.18414929863E+03  0.15294330000E+03 0.  0.
    8880022    1    1    2    0    0 -0.65317021762E+01 -0.22180983369E+02  0.14179954533E+03  0.20984142400E+03  0.15294330000E+03 0.  0.
<mgrwt>
<rscale>  0 0.15468132E+03</rscale>
<asrwt>0</asrwt>
<pdfrwt beam="1">  1        4 0.48901039E-01 0.15468132E+03</pdfrwt>
<pdfrwt beam="2">  1       -4 0.11712919E-01 0.15468132E+03</pdfrwt>
<totfact> 0.40043384E+02</totfact>
</mgrwt>
</event>
<event>
 4    1  0.8478300E-009  0.1644105E+03  0.7818608E-02  0.1183805E+00
          4   -1    0    0  501    0  0.00000000000E+00  0.00000000000E+00  0.23014115133E+04  0.23014118637E+04  0.12700000000E+01 0.  1.
         -4   -1    0    0    0  501 -0.00000000000E+00 -0.00000000000E+00 -0.11713084405E+02  0.11781733585E+02  0.12700000000E+01 0.  1.
    8880022    1    1    2    0    0  0.30905611348E+02  0.51807262879E+02  0.11615372086E+04  0.11731152924E+04  0.15294330000E+03 0.  0.
    8880022    1    1    2    0    0 -0.30905611348E+02 -0.51807262879E+02  0.11281612203E+04  0.11400783049E+04  0.15294330000E+03 0.  0.
<mgrwt>
<rscale>  0 0.16441047E+03</rscale>
<asrwt>0</asrwt>
<pdfrwt beam="1">  1        4 0.35406848E+00 0.16441047E+03</pdfrwt>
<pdfrwt beam="2">  1       -4 0.18073213E-02 0.16441047E+03</pdfrwt>
<totfact> 0.36632718E+01</totfact>
</mgrwt>
</event>
<event>
 4    1  0.8478300E-009  0.2821044E+03  0.7818608E-02  0.1094545E+00
         -4   -1    0    0    0  501 -0.00000000000E+00  0.00000000000E+00  0.28093423596E+03  0.28093710654E+03  0.12700000000E+01 0.  1.
          4   -1    0    0  501    0  0.00000000000E+00 -0.00000000000E+00 -0.47354738747E+03  0.47354909046E+03  0.12700000000E+01 0.  1.
    8880022    1    1    2    0    0  0.15343333001E+03  0.18069156931E+03 -0.33543248313E+03  0.43828966875E+03  0.15294330000E+03 0.  0.
    8880022    1    1    2    0    0 -0.15343333001E+03 -0.18069156931E+03  0.14281933162E+03  0.31619652825E+03  0.15294330000E+03 0.  0.
<mgrwt>
<rscale>  0 0.28210438E+03</rscale>
<asrwt>0</asrwt>
<pdfrwt beam="1">  1        4 0.72853796E-01 0.28210438E+03</pdfrwt>
<pdfrwt beam="2">  1       -4 0.43221004E-01 0.28210438E+03</pdfrwt>
<totfact> 0.16673562E+01</totfact>
</mgrwt>
</event>
<event>
 4    1  0.8478300E-009  0.1982380E+03  0.7818608E-02  0.1151234E+00
         -4   -1    0    0    0  501 -0.00000000000E+00  0.00000000000E+00  0.89563320691E+02  0.89572324482E+02  0.12700000000E+01 0.  1.
          4   -1    0    0  501    0  0.00000000000E+00 -0.00000000000E+00 -0.60916888801E+03  0.60917021186E+03  0.12700000000E+01 0.  1.
    8880022    1    1    2    0    0  0.44252723604E+01  0.12604395657E+03 -0.75012171156E+02  0.21195551623E+03  0.15294330000E+03 0.  0.
    8880022    1    1    2    0    0 -0.44252723604E+01 -0.12604395657E+03 -0.44459339616E+03  0.48678702011E+03  0.15294330000E+03 0.  0.
<mgrwt>
<rscale>  0 0.19823803E+03</rscale>
<asrwt>0</asrwt>
<pdfrwt beam="1">  1        4 0.93719082E-01 0.19823803E+03</pdfrwt>
<pdfrwt beam="2">  1       -4 0.13779767E-01 0.19823803E+03</pdfrwt>
<totfact> 0.77111111E+01</totfact>
</mgrwt>
</event>
<event>
 4    1  0.8478300E-009  0.1775366E+03  0.7818608E-02  0.1170209E+00
         -4   -1    0    0    0  501 -0.00000000000E+00  0.00000000000E+00  0.89546079846E+02  0.89555085371E+02  0.12700000000E+01 0. -1.
          4   -1    0    0  501    0  0.00000000000E+00 -0.00000000000E+00 -0.40980878605E+03  0.40981075391E+03  0.12700000000E+01 0. -1.
    8880022    1    1    2    0    0  0.88782359564E+02  0.15661772311E+02 -0.25393817474E+03  0.30984487746E+03  0.15294330000E+03 0.  0.
    8880022    1    1    2    0    0 -0.88782359564E+02 -0.15661772311E+02 -0.66324531458E+02  0.18952096182E+03  0.15294330000E+03 0.  0.
<mgrwt>
<rscale>  0 0.17753662E+03</rscale>
<asrwt>0</asrwt>
<pdfrwt beam="1">  1        4 0.63048348E-01 0.17753662E+03</pdfrwt>
<pdfrwt beam="2">  1       -4 0.13777164E-01 0.17753662E+03</pdfrwt>
<totfact> 0.18242443E+02</totfact>
</mgrwt>
</event>
<event>
 4    1  0.8478300E-009  0.2229261E+03  0.7818608E-02  0.1131720E+00
          4   -1    0    0  501    0  0.00000000000E+00  0.00000000000E+00  0.28674645127E+03  0.28674926367E+03  0.12700000000E+01 0. -1.
         -4   -1    0    0    0  501 -0.00000000000E+00 -0.00000000000E+00 -0.68403743648E+03  0.68403861543E+03  0.12700000000E+01 0. -1.
    8880022    1    1    2    0    0  0.15469460240E+03 -0.48723293668E+02  0.22077508040E+03  0.31374777848E+03  0.15294330000E+03 0.  0.
    8880022    1    1    2    0    0 -0.15469460240E+03  0.48723293668E+02 -0.61806606561E+03  0.65704010062E+03  0.15294330000E+03 0.  0.
<mgrwt>
<rscale>  0 0.22292607E+03</rscale>
<asrwt>0</asrwt>
<pdfrwt beam="1">  1        4 0.44115146E-01 0.22292607E+03</pdfrwt>
<pdfrwt beam="2">  1       -4 0.10523684E+00 0.22292607E+03</pdfrwt>
<totfact> 0.67840854E+00</totfact>
</mgrwt>
</event>
<event>
 4    1  0.8478300E-009  0.1790476E+03  0.7818608E-02  0.1168728E+00
         -4   -1    0    0    0  501 -0.00000000000E+00  0.00000000000E+00  0.39935287228E+03  0.39935489167E+03  0.12700000000E+01 0. -1.
          4   -1    0    0  501    0  0.00000000000E+00 -0.00000000000E+00 -0.15315491982E+03  0.15316018532E+03  0.12700000000E+01 0. -1.
    8880022    1    1    2    0    0 -0.92823940338E+02  0.70792699180E+01  0.31367157912E+03  0.36117573635E+03  0.15294330000E+03 0.  0.
    8880022    1    1    2    0    0  0.92823940338E+02 -0.70792699180E+01 -0.67473626670E+02  0.19133934063E+03  0.15294330000E+03 0.  0.
<mgrwt>
<rscale>  0 0.17904763E+03</rscale>
<asrwt>0</asrwt>
<pdfrwt beam="1">  1        4 0.23562856E-01 0.17904763E+03</pdfrwt>
<pdfrwt beam="2">  1       -4 0.61439463E-01 0.17904763E+03</pdfrwt>
<totfact> 0.73840994E+01</totfact>
</mgrwt>
</event>
<event>
 4    1  0.8478300E-009  0.3979088E+03  0.7818608E-02  0.1044506E+00
          4   -1    0    0  501    0  0.00000000000E+00  0.00000000000E+00  0.13141017088E+03  0.13141630762E+03  0.12700000000E+01 0.  1.
         -4   -1    0    0    0  501 -0.00000000000E+00 -0.00000000000E+00 -0.12208841772E+04  0.12208848378E+04  0.12700000000E+01 0.  1.
    8880022    1    1    2    0    0 -0.36430587020E+03  0.47127697395E+02 -0.62227265234E+03  0.73861674351E+03  0.15294330000E+03 0.  0.
    8880022    1    1    2    0    0  0.36430587020E+03 -0.47127697395E+02 -0.46720135402E+03  0.61368440190E+03  0.15294330000E+03 0.  0.
<mgrwt>
<rscale>  0 0.39790883E+03</rscale>
<asrwt>0</asrwt>
<pdfrwt beam="1">  1        4 0.20217473E-01 0.39790883E+03</pdfrwt>
<pdfrwt beam="2">  1       -4 0.18782885E+00 0.39790883E+03</pdfrwt>
<totfact> 0.70632260E+00</totfact>
</mgrwt>
</event>
<event>
 4    1  0.8478300E-009  0.2281016E+03  0.7818608E-02  0.1127983E+00
          4   -1    0    0  501    0  0.00000000000E+00  0.00000000000E+00  0.39366997157E+03  0.39367202011E+03  0.12700000000E+01 0. -1.
         -4   -1    0    0    0  501 -0.00000000000E+00 -0.00000000000E+00 -0.22512455672E+03  0.22512813893E+03  0.12700000000E+01 0. -1.
    8880022    1    1    2    0    0 -0.30786901330E+02  0.16640575458E+03  0.28309099219E+03  0.36355312036E+03  0.15294330000E+03 0.  0.
    8880022    1    1    2    0    0  0.30786901330E+02 -0.16640575458E+03 -0.11454557734E+03  0.25524703868E+03  0.15294330000E+03 0.  0.
<mgrwt>
<rscale>  0 0.22810165E+03</rscale>
<asrwt>0</asrwt>
<pdfrwt beam="1">  1        4 0.60565044E-01 0.22810165E+03</pdfrwt>
<pdfrwt beam="2">  1       -4 0.34634981E-01 0.22810165E+03</pdfrwt>
<totfact> 0.37811570E+01</totfact>
</mgrwt>
</event>
<event>
 4    1  0.8478300E-009  0.1728798E+03  0.7818608E-02  0.1174878E+00
         -4   -1    0    0    0  501 -0.00000000000E+00  0.00000000000E+00  0.38450374631E+02  0.38471342702E+02  0.12700000000E+01 0.  1.
          4   -1    0    0  501    0  0.00000000000E+00 -0.00000000000E+00 -0.15511428355E+04  0.15511433554E+04  0.12700000000E+01 0.  1.
    8880022    1    1    2    0    0 -0.80567604617E+02 -0.21541651992E+01 -0.19487809637E+03  0.26050893420E+03  0.15294330000E+03 0.  0.
    8880022    1    1    2    0    0  0.80567604617E+02  0.21541651992E+01 -0.13178143645E+04  0.13291057639E+04  0.15294330000E+03 0.  0.
<mgrwt>
<rscale>  0 0.17287982E+03</rscale>
<asrwt>0</asrwt>
<pdfrwt beam="1">  1        4 0.23863896E+00 0.17287982E+03</pdfrwt>
<pdfrwt beam="2">  1       -4 0.59170964E-02 0.17287982E+03</pdfrwt>
<totfact> 0.26960293E+01</totfact>
</mgrwt>
</event>
<event>
 4    1  0.8478300E-009  0.2576345E+03  0.7818608E-02  0.1108573E+00
          4   -1    0    0  501    0  0.00000000000E+00  0.00000000000E+00  0.32967294540E+03  0.32967539161E+03  0.12700000000E+01 0. -1.
         -4   -1    0    0    0  501 -0.00000000000E+00 -0.00000000000E+00 -0.20136604671E+03  0.20137005156E+03  0.12700000000E+01 0. -1.
    8880022    1    1    2    0    0 -0.17728069483E+03 -0.10749631213E+03  0.67586174347E+02  0.26635210880E+03  0.15294330000E+03 0.  1.
    8880022    1    1    2    0    0  0.17728069483E+03  0.10749631213E+03  0.60720724351E+02  0.26469333437E+03  0.15294330000E+03 0.  1.
<mgrwt>
<rscale>  0 0.25763454E+03</rscale>
<asrwt>0</asrwt>
<pdfrwt beam="1">  1        4 0.50719410E-01 0.25763454E+03</pdfrwt>
<pdfrwt beam="2">  1       -4 0.30979888E-01 0.25763454E+03</pdfrwt>
<totfact> 0.68975439E+01</totfact>
</mgrwt>
</event>
<event>
 4    1  0.8478300E-009  0.1783192E+03  0.7818608E-02  0.1169440E+00
         -4   -1    0    0    0  501 -0.00000000000E+00  0.00000000000E+00  0.30776147570E+03  0.30776409606E+03  0.12700000000E+01 0. -1.
          4   -1    0    0  501    0  0.00000000000E+00 -0.00000000000E+00 -0.13361135695E+03  0.13361739260E+03  0.12700000000E+01 0. -1.
    8880022    1    1    2    0    0 -0.91673823579E+02 -0.14118072700E+01  0.19216481471E+03  0.26215463406E+03  0.15294330000E+03 0.  0.
    8880022    1    1    2    0    0  0.91673823579E+02  0.14118072700E+01 -0.18014695960E+02  0.17922685461E+03  0.15294330000E+03 0.  0.
<mgrwt>
<rscale>  0 0.17831920E+03</rscale>
<asrwt>0</asrwt>
<pdfrwt beam="1">  1        4 0.20556260E-01 0.17831920E+03</pdfrwt>
<pdfrwt beam="2">  1       -4 0.47348584E-01 0.17831920E+03</pdfrwt>
<totfact> 0.16263044E+02</totfact>
</mgrwt>
</event>
<event>
 4    1  0.8478300E-009  0.2176766E+03  0.7818608E-02  0.1135627E+00
         -4   -1    0    0    0  501 -0.00000000000E+00  0.00000000000E+00  0.57331778633E+03  0.57331919297E+03  0.12700000000E+01 0.  1.
          4   -1    0    0  501    0  0.00000000000E+00 -0.00000000000E+00 -0.82711798865E+02  0.82721548411E+02  0.12700000000E+01 0.  1.
    8880022    1    1    2    0    0 -0.11159369812E+03  0.10741648853E+03  0.25491204356E+03  0.33520629236E+03  0.15294330000E+03 0.  0.
    8880022    1    1    2    0    0  0.11159369812E+03 -0.10741648853E+03  0.23569394391E+03  0.32083444902E+03  0.15294330000E+03 0.  0.
<mgrwt>
<rscale>  0 0.21767661E+03</rscale>
<asrwt>0</asrwt>
<pdfrwt beam="1">  1        4 0.12725750E-01 0.21767661E+03</pdfrwt>
<pdfrwt beam="2">  1       -4 0.88203597E-01 0.21767661E+03</pdfrwt>
<totfact> 0.10297165E+02</totfact>
</mgrwt>
</event>
<event>
 4    1  0.8478300E-009  0.2648905E+03  0.7818608E-02  0.1104240E+00
         -4   -1    0    0    0  501 -0.00000000000E+00  0.00000000000E+00  0.18476052603E+03  0.18476489082E+03  0.12700000000E+01 0. -1.
          4   -1    0    0  501    0  0.00000000000E+00 -0.00000000000E+00 -0.39605119032E+03  0.39605322655E+03  0.12700000000E+01 0. -1.
    8880022    1    1    2    0    0  0.22207401301E+01  0.21626464343E+03 -0.16453944473E+03  0.31183362482E+03  0.15294330000E+03 0.  0.
    8880022    1    1    2    0    0 -0.22207401301E+01 -0.21626464343E+03 -0.46751219563E+02  0.26898449254E+03  0.15294330000E+03 0.  0.
<mgrwt>
<rscale>  0 0.26489051E+03</rscale>
<asrwt>0</asrwt>
<pdfrwt beam="1">  1        4 0.60931445E-01 0.26489051E+03</pdfrwt>
<pdfrwt beam="2">  1       -4 0.28425189E-01 0.26489051E+03</pdfrwt>
<totfact> 0.55482341E+01</totfact>
</mgrwt>
</event>
<event>
 4    1  0.8478300E-009  0.1639058E+03  0.7818608E-02  0.1184356E+00
          4   -1    0    0  501    0  0.00000000000E+00  0.00000000000E+00  0.21422222788E+03  0.21422599239E+03  0.12700000000E+01 0. -1.
         -4   -1    0    0    0  501 -0.00000000000E+00 -0.00000000000E+00 -0.24288045581E+03  0.24288377615E+03  0.12700000000E+01 0. -1.
    8880022    1    1    2    0    0  0.18033688625E+02  0.56109240150E+02  0.14462436644E+03  0.21858938936E+03  0.15294330000E+03 0.  1.
    8880022    1    1    2    0    0 -0.18033688625E+02 -0.56109240150E+02 -0.17328259438E+03  0.23852037918E+03  0.15294330000E+03 0.  1.
<mgrwt>
<rscale>  0 0.16390581E+03</rscale>
<asrwt>0</asrwt>
<pdfrwt beam="1">  1        4 0.32957811E-01 0.16390581E+03</pdfrwt>
<pdfrwt beam="2">  1       -4 0.37366769E-01 0.16390581E+03</pdfrwt>
<totfact> 0.10669419E+02</totfact>
</mgrwt>
</event>
<event>
 4    1  0.8478300E-009  0.1545568E+03  0.7818608E-02  0.1194983E+00
          4   -1    0    0  501    0  0.00000000000E+00  0.00000000000E+00  0.46547772649E+03  0.46547945900E+03  0.12700000000E+01 0.  1.
         -4   -1    0    0    0  501 -0.00000000000E+00 -0.00000000000E+00 -0.15819309613E+03  0.15819819393E+03  0.12700000000E+01 0.  1.
    8880022    1    1    2    0    0  0.21550689353E+02 -0.56329344123E+01  0.40995837955E+03  0.43812519688E+03  0.15294330000E+03 0.  1.
    8880022    1    1    2    0    0 -0.21550689353E+02  0.56329344123E+01 -0.10267374919E+03  0.18555245606E+03  0.15294330000E+03 0.  1.
<mgrwt>
<rscale>  0 0.15455683E+03</rscale>
<asrwt>0</asrwt>
<pdfrwt beam="1">  1        4 0.71612483E-01 0.15455683E+03</pdfrwt>
<pdfrwt beam="2">  1       -4 0.24337925E-01 0.15455683E+03</pdfrwt>
<totfact> 0.49076768E+01</totfact>
</mgrwt>
</event>
<event>
 4    1  0.8478300E-009  0.1983373E+03  0.7818608E-02  0.1151149E+00
          4   -1    0    0  501    0  0.00000000000E+00  0.00000000000E+00  0.22142166442E+03  0.22142530653E+03  0.12700000000E+01 0. -1.
         -4   -1    0    0    0  501 -0.00000000000E+00 -0.00000000000E+00 -0.19381413972E+03  0.19381830062E+03  0.12700000000E+01 0. -1.
    8880022    1    1    2    0    0  0.12115991641E+03 -0.35585169672E+02 -0.46150181353E+02  0.20363575791E+03  0.15294330000E+03 0.  0.
    8880022    1    1    2    0    0 -0.12115991641E+03  0.35585169672E+02  0.73757706052E+02  0.21160784924E+03  0.15294330000E+03 0.  0.
<mgrwt>
<rscale>  0 0.19833730E+03</rscale>
<asrwt>0</asrwt>
<pdfrwt beam="1">  1        4 0.34065471E-01 0.19833730E+03</pdfrwt>
<pdfrwt beam="2">  1       -4 0.29818160E-01 0.19833730E+03</pdfrwt>
<totfact> 0.15908676E+02</totfact>
</mgrwt>
</event>
<event>
 4    1  0.8478300E-009  0.2795909E+03  0.7818608E-02  0.1095913E+00
          4   -1    0    0  501    0  0.00000000000E+00  0.00000000000E+00  0.52565707971E+03  0.52565861389E+03  0.12700000000E+01 0. -1.
         -4   -1    0    0    0  501 -0.00000000000E+00 -0.00000000000E+00 -0.15338749118E+03  0.15339274869E+03  0.12700000000E+01 0. -1.
    8880022    1    1    2    0    0  0.19102185935E+03  0.13524070242E+03  0.24544503539E+03  0.37204074609E+03  0.15294330000E+03 0.  0.
    8880022    1    1    2    0    0 -0.19102185935E+03 -0.13524070242E+03  0.12682455315E+03  0.30701061649E+03  0.15294330000E+03 0.  0.
<mgrwt>
<rscale>  0 0.27959086E+03</rscale>
<asrwt>0</asrwt>
<pdfrwt beam="1">  1        4 0.80870842E-01 0.27959086E+03</pdfrwt>
<pdfrwt beam="2">  1       -4 0.23598598E-01 0.27959086E+03</pdfrwt>
<totfact> 0.42585137E+01</totfact>
</mgrwt>
</event>
<event>
 4    1  0.8478300E-009  0.1651981E+03  0.7818608E-02  0.1182950E+00
         -4   -1    0    0    0  501 -0.00000000000E+00  0.00000000000E+00  0.31440986276E+03  0.31441242771E+03  0.12700000000E+01 0. -1.
          4   -1    0    0  501    0  0.00000000000E+00 -0.00000000000E+00 -0.99202709777E+02  0.99210838758E+02  0.12700000000E+01 0. -1.
    8880022    1    1    2    0    0  0.34218608435E+02  0.52228918177E+02  0.34456211062E+02  0.16875324161E+03  0.15294330000E+03 0.  0.
    8880022    1    1    2    0    0 -0.34218608435E+02 -0.52228918177E+02  0.18075094192E+03  0.24487002486E+03  0.15294330000E+03 0.  0.
<mgrwt>
<rscale>  0 0.16519814E+03</rscale>
<asrwt>0</asrwt>
<pdfrwt beam="1">  1        4 0.15262778E-01 0.16519814E+03</pdfrwt>
<pdfrwt beam="2">  1       -4 0.48371571E-01 0.16519814E+03</pdfrwt>
<totfact> 0.26171526E+02</totfact>
</mgrwt>
</event>
<event>
 4    1  0.8478300E-009  0.1726890E+03  0.7818608E-02  0.1175072E+00
          4   -1    0    0  501    0  0.00000000000E+00  0.00000000000E+00  0.16382335575E+03  0.16382827836E+03  0.12700000000E+01 0.  1.
         -4   -1    0    0    0  501 -0.00000000000E+00 -0.00000000000E+00 -0.25331419439E+03  0.25331737797E+03  0.12700000000E+01 0.  1.
    8880022    1    1    2    0    0 -0.78449342600E+02  0.16599119495E+02 -0.15539093964E+03  0.23230976574E+03  0.15294330000E+03 0. -1.
    8880022    1    1    2    0    0  0.78449342600E+02 -0.16599119495E+02  0.65900100997E+02  0.18483589059E+03  0.15294330000E+03 0. -1.
<mgrwt>
<rscale>  0 0.17268898E+03</rscale>
<asrwt>0</asrwt>
<pdfrwt beam="1">  1        4 0.25204217E-01 0.17268898E+03</pdfrwt>
<pdfrwt beam="2">  1       -4 0.38972038E-01 0.17268898E+03</pdfrwt>
<totfact> 0.16431244E+02</totfact>
</mgrwt>
</event>
