<event>
 4    1  0.1678003E-008  0.3052629E+03  0.7818608E-02  0.1082639E+00
         -1   -1    0    0    0  501 -0.00000000000E+00  0.00000000000E+00  0.18473334492E+04  0.18473334492E+04  0.50400000000E-02 0.  1.
          1   -1    0    0  501    0  0.00000000000E+00 -0.00000000000E+00 -0.24348557898E+03  0.24348557904E+03  0.50400000000E-02 0. -1.
    8880022    1    1    2    0    0 -0.22116209674E+03  0.14450292223E+03 -0.12891845068E+03  0.33136895978E+03  0.15294330000E+03 0.  0.
    8880022    1    1    2    0    0  0.22116209674E+03 -0.14450292223E+03  0.17327663209E+04  0.17594500685E+04  0.15294330000E+03 0.  0.
<mgrwt>
<rscale>  0 0.30526287E+03</rscale>
<asrwt>0</asrwt>
<pdfrwt beam="1">  1        1 0.37459320E-01 0.30526287E+03</pdfrwt>
<pdfrwt beam="2">  1       -1 0.28420515E+00 0.30526287E+03</pdfrwt>
<totfact> 0.55190450E+00</totfact>
</mgrwt>
</event>
<event>
 4    1  0.1678003E-008  0.3835843E+03  0.7818608E-02  0.1049617E+00
          1   -1    0    0  501    0  0.00000000000E+00  0.00000000000E+00  0.10071423140E+04  0.10071423140E+04  0.50400000000E-02 0. -1.
         -1   -1    0    0    0  501 -0.00000000000E+00 -0.00000000000E+00 -0.31133714564E+03  0.31133714568E+03  0.50400000000E-02 0.  1.
    8880022    1    1    2    0    0 -0.42212652723E+02  0.34923251722E+03 -0.13237280290E+03  0.40578254163E+03  0.15294330000E+03 0.  0.
    8880022    1    1    2    0    0  0.42212652723E+02 -0.34923251722E+03  0.82817797127E+03  0.91269691807E+03  0.15294330000E+03 0.  0.
<mgrwt>
<rscale>  0 0.38358430E+03</rscale>
<asrwt>0</asrwt>
<pdfrwt beam="1">  1        1 0.15494497E+00 0.38358430E+03</pdfrwt>
<pdfrwt beam="2">  1       -1 0.47898023E-01 0.38358430E+03</pdfrwt>
<totfact> 0.69622374E+01</totfact>
</mgrwt>
</event>
<event>
 4    1  0.1678003E-008  0.4241264E+03  0.7818608E-02  0.1035732E+00
          1   -1    0    0  501    0  0.00000000000E+00  0.00000000000E+00  0.18492725842E+03  0.18492725849E+03  0.50400000000E-02 0. -1.
         -1   -1    0    0    0  501 -0.00000000000E+00 -0.00000000000E+00 -0.16004642695E+04  0.16004642695E+04  0.50400000000E-02 0.  1.
    8880022    1    1    2    0    0  0.19070426997E+03 -0.34658828286E+03 -0.12668439620E+04  0.13359554010E+04  0.15294330000E+03 0.  0.
    8880022    1    1    2    0    0 -0.19070426997E+03  0.34658828286E+03 -0.14869304910E+03  0.44943612701E+03  0.15294330000E+03 0.  0.
<mgrwt>
<rscale>  0 0.42412641E+03</rscale>
<asrwt>0</asrwt>
<pdfrwt beam="1">  1        1 0.28450349E-01 0.42412641E+03</pdfrwt>
<pdfrwt beam="2">  1       -1 0.24622526E+00 0.42412641E+03</pdfrwt>
<totfact> 0.13185118E+01</totfact>
</mgrwt>
</event>
<event>
 4    1  0.1678003E-008  0.9439584E+03  0.7818608E-02  0.9372240E-01
         -1   -1    0    0    0  501 -0.00000000000E+00  0.00000000000E+00  0.17718845140E+04  0.17718845140E+04  0.50400000000E-02 0.  1.
          1   -1    0    0  501    0  0.00000000000E+00 -0.00000000000E+00 -0.82870613614E+03  0.82870613616E+03  0.50400000000E-02 0. -1.
    8880022    1    1    2    0    0 -0.92804674844E+03  0.79968635211E+02  0.12869129982E+04  0.15959957606E+04  0.15294330000E+03 0.  0.
    8880022    1    1    2    0    0  0.92804674844E+03 -0.79968635211E+02 -0.34373462035E+03  0.10045948896E+04  0.15294330000E+03 0.  0.
<mgrwt>
<rscale>  0 0.94395837E+03</rscale>
<asrwt>0</asrwt>
<pdfrwt beam="1">  1        1 0.12749325E+00 0.94395837E+03</pdfrwt>
<pdfrwt beam="2">  1       -1 0.27259761E+00 0.94395837E+03</pdfrwt>
<totfact> 0.10573684E+00</totfact>
</mgrwt>
</event>
<event>
 4    1  0.1678003E-008  0.1696671E+03  0.7818608E-02  0.1178195E+00
          1   -1    0    0  501    0  0.00000000000E+00  0.00000000000E+00  0.32040396034E+04  0.32040396034E+04  0.50400000000E-02 0. -1.
         -1   -1    0    0    0  501 -0.00000000000E+00 -0.00000000000E+00 -0.65709371701E+02  0.65709371894E+02  0.50400000000E-02 0.  1.
    8880022    1    1    2    0    0  0.64607930277E+02 -0.34943943703E+02  0.30881632979E+04  0.30928206336E+04  0.15294330000E+03 0.  0.
    8880022    1    1    2    0    0 -0.64607930277E+02  0.34943943703E+02  0.50166933829E+02  0.17692834177E+03  0.15294330000E+03 0.  1.
<mgrwt>
<rscale>  0 0.16966708E+03</rscale>
<asrwt>0</asrwt>
<pdfrwt beam="1">  1        1 0.49292928E+00 0.16966708E+03</pdfrwt>
<pdfrwt beam="2">  1       -1 0.10109132E-01 0.16966708E+03</pdfrwt>
<totfact> 0.32833145E+01</totfact>
</mgrwt>
</event>
<event>
 4    1  0.1678003E-008  0.4867248E+03  0.7818608E-02  0.1017303E+00
          1   -1    0    0  501    0  0.00000000000E+00  0.00000000000E+00  0.40322329326E+04  0.40322329326E+04  0.50400000000E-02 0. -1.
         -1   -1    0    0    0  501 -0.00000000000E+00 -0.00000000000E+00 -0.12143078642E+03  0.12143078653E+03  0.50400000000E-02 0.  1.
    8880022    1    1    2    0    0 -0.72408894303E+02 -0.45636208520E+03  0.34475006967E+04  0.34816895478E+04  0.15294330000E+03 0.  0.
    8880022    1    1    2    0    0  0.72408894303E+02  0.45636208520E+03  0.46330144950E+03  0.67197417131E+03  0.15294330000E+03 0.  0.
<mgrwt>
<rscale>  0 0.48672482E+03</rscale>
<asrwt>0</asrwt>
<pdfrwt beam="1">  1        1 0.62034363E+00 0.48672482E+03</pdfrwt>
<pdfrwt beam="2">  1       -1 0.18681656E-01 0.48672482E+03</pdfrwt>
<totfact> 0.24272804E+00</totfact>
</mgrwt>
</event>
<event>
 4    1  0.1678003E-008  0.7706023E+03  0.7818608E-02  0.9603572E-01
         -1   -1    0    0    0  501 -0.00000000000E+00  0.00000000000E+00  0.26858062331E+03  0.26858062335E+03  0.50400000000E-02 0.  1.
          1   -1    0    0  501    0  0.00000000000E+00 -0.00000000000E+00 -0.38449853365E+04  0.38449853365E+04  0.50400000000E-02 0. -1.
    8880022    1    1    2    0    0 -0.26440548295E+03  0.70747865994E+03 -0.44739285371E+03  0.89106022930E+03  0.15294330000E+03 0.  0.
    8880022    1    1    2    0    0  0.26440548295E+03 -0.70747865994E+03 -0.31290118595E+04  0.32225057306E+04  0.15294330000E+03 0.  0.
<mgrwt>
<rscale>  0 0.77060234E+03</rscale>
<asrwt>0</asrwt>
<pdfrwt beam="1">  1        1 0.59153617E+00 0.77060234E+03</pdfrwt>
<pdfrwt beam="2">  1       -1 0.41320099E-01 0.77060234E+03</pdfrwt>
<totfact> 0.82223133E-01</totfact>
</mgrwt>
</event>
<event>
 4    1  0.1678003E-008  0.7200561E+03  0.7818608E-02  0.9683535E-01
         -1   -1    0    0    0  501 -0.00000000000E+00  0.00000000000E+00  0.49166008980E+04  0.49166008980E+04  0.50400000000E-02 0.  1.
          1   -1    0    0  501    0  0.00000000000E+00 -0.00000000000E+00 -0.12082472551E+03  0.12082472562E+03  0.50400000000E-02 0. -1.
    8880022    1    1    2    0    0 -0.51947799315E+03 -0.47458594254E+03  0.32962095281E+04  0.33739410352E+04  0.15294330000E+03 0.  0.
    8880022    1    1    2    0    0  0.51947799315E+03  0.47458594254E+03  0.14995666443E+04  0.16634845885E+04  0.15294330000E+03 0.  0.
<mgrwt>
<rscale>  0 0.72005615E+03</rscale>
<asrwt>0</asrwt>
<pdfrwt beam="1">  1        1 0.18588426E-01 0.72005615E+03</pdfrwt>
<pdfrwt beam="2">  1       -1 0.75639988E+00 0.72005615E+03</pdfrwt>
<totfact> 0.38030109E-02</totfact>
</mgrwt>
</event>
<event>
 4    1  0.1678003E-008  0.6547961E+03  0.7818608E-02  0.9797821E-01
         -1   -1    0    0    0  501 -0.00000000000E+00  0.00000000000E+00  0.18228004378E+04  0.18228004378E+04  0.50400000000E-02 0.  1.
          1   -1    0    0  501    0  0.00000000000E+00 -0.00000000000E+00 -0.59998390896E+03  0.59998390898E+03  0.50400000000E-02 0. -1.
    8880022    1    1    2    0    0 -0.60946832314E+03 -0.18415927827E+03 -0.33313375039E+03  0.73466728888E+03  0.15294330000E+03 0.  0.
    8880022    1    1    2    0    0  0.60946832314E+03  0.18415927827E+03  0.15559502792E+04  0.16881170579E+04  0.15294330000E+03 0.  0.
<mgrwt>
<rscale>  0 0.65479610E+03</rscale>
<asrwt>0</asrwt>
<pdfrwt beam="1">  1        1 0.92305220E-01 0.65479610E+03</pdfrwt>
<pdfrwt beam="2">  1       -1 0.28043083E+00 0.65479610E+03</pdfrwt>
<totfact> 0.16207073E+00</totfact>
</mgrwt>
</event>
<event>
 4    1  0.1678003E-008  0.1245261E+04  0.7818608E-02  0.9074137E-01
          1   -1    0    0  501    0  0.00000000000E+00  0.00000000000E+00  0.11335974267E+04  0.11335974267E+04  0.50400000000E-02 0. -1.
         -1   -1    0    0    0  501 -0.00000000000E+00 -0.00000000000E+00 -0.16144290824E+04  0.16144290824E+04  0.50400000000E-02 0.  1.
    8880022    1    1    2    0    0  0.94064273847E+03 -0.80154450936E+03 -0.77731809600E+03  0.14679568922E+04  0.15294330000E+03 0.  0.
    8880022    1    1    2    0    0 -0.94064273847E+03  0.80154450936E+03  0.29648644031E+03  0.12800696169E+04  0.15294330000E+03 0.  0.
<mgrwt>
<rscale>  0 0.12452606E+04</rscale>
<asrwt>0</asrwt>
<pdfrwt beam="1">  1        1 0.17439960E+00 0.12452606E+04</pdfrwt>
<pdfrwt beam="2">  1       -1 0.24837370E+00 0.12452606E+04</pdfrwt>
<totfact> 0.83433854E-01</totfact>
</mgrwt>
</event>
<event>
 4    1  0.1678003E-008  0.2709508E+03  0.7818608E-02  0.1100737E+00
          1   -1    0    0  501    0  0.00000000000E+00  0.00000000000E+00  0.14303003979E+04  0.14303003979E+04  0.50400000000E-02 0. -1.
         -1   -1    0    0    0  501 -0.00000000000E+00 -0.00000000000E+00 -0.11650428005E+03  0.11650428016E+03  0.50400000000E-02 0.  1.
    8880022    1    1    2    0    0  0.45624127249E+02  0.21895458275E+03  0.78429656676E+02  0.28207363286E+03  0.15294330000E+03 0.  0.
    8880022    1    1    2    0    0 -0.45624127249E+02 -0.21895458275E+03  0.12353664612E+04  0.12647310452E+04  0.15294330000E+03 0.  0.
<mgrwt>
<rscale>  0 0.27095078E+03</rscale>
<asrwt>0</asrwt>
<pdfrwt beam="1">  1        1 0.22004622E+00 0.27095078E+03</pdfrwt>
<pdfrwt beam="2">  1       -1 0.17923735E-01 0.27095078E+03</pdfrwt>
<totfact> 0.19344356E+02</totfact>
</mgrwt>
</event>
<event>
 4    1  0.1678003E-008  0.3222764E+03  0.7818608E-02  0.1074606E+00
         -1   -1    0    0    0  501 -0.00000000000E+00  0.00000000000E+00  0.24822974757E+03  0.24822974762E+03  0.50400000000E-02 0.  1.
          1   -1    0    0  501    0  0.00000000000E+00 -0.00000000000E+00 -0.16621955930E+04  0.16621955931E+04  0.50400000000E-02 0. -1.
    8880022    1    1    2    0    0 -0.22607306727E+03  0.17135172757E+03 -0.15332711552E+04  0.15667745641E+04  0.15294330000E+03 0. -1.
    8880022    1    1    2    0    0  0.22607306727E+03 -0.17135172757E+03  0.11930530976E+03  0.34365077657E+03  0.15294330000E+03 0.  0.
<mgrwt>
<rscale>  0 0.32227643E+03</rscale>
<asrwt>0</asrwt>
<pdfrwt beam="1">  1        1 0.25572239E+00 0.32227643E+03</pdfrwt>
<pdfrwt beam="2">  1       -1 0.38189193E-01 0.32227643E+03</pdfrwt>
<totfact> 0.37424414E+01</totfact>
</mgrwt>
</event>
<event>
 4    1  0.1678003E-008  0.6350759E+03  0.7818608E-02  0.9835193E-01
          1   -1    0    0  501    0  0.00000000000E+00  0.00000000000E+00  0.29941644452E+04  0.29941644452E+04  0.50400000000E-02 0. -1.
         -1   -1    0    0    0  501 -0.00000000000E+00 -0.00000000000E+00 -0.18250871658E+03  0.18250871665E+03  0.50400000000E-02 0.  1.
    8880022    1    1    2    0    0  0.45412410986E+03  0.41677451955E+03  0.22187389297E+04  0.23078396388E+04  0.15294330000E+03 0.  0.
    8880022    1    1    2    0    0 -0.45412410986E+03 -0.41677451955E+03  0.59291679893E+03  0.86883352305E+03  0.15294330000E+03 0.  0.
<mgrwt>
<rscale>  0 0.63507587E+03</rscale>
<asrwt>0</asrwt>
<pdfrwt beam="1">  1        1 0.46064068E+00 0.63507587E+03</pdfrwt>
<pdfrwt beam="2">  1       -1 0.28078264E-01 0.63507587E+03</pdfrwt>
<totfact> 0.75241283E+00</totfact>
</mgrwt>
</event>
<event>
 4    1  0.1678003E-008  0.1825729E+03  0.7818608E-02  0.1165336E+00
          1   -1    0    0  501    0  0.00000000000E+00  0.00000000000E+00  0.14240935833E+04  0.14240935833E+04  0.50400000000E-02 0. -1.
         -1   -1    0    0    0  501 -0.00000000000E+00 -0.00000000000E+00 -0.81324710248E+02  0.81324710405E+02  0.50400000000E-02 0.  1.
    8880022    1    1    2    0    0 -0.88180199819E+02  0.46534474711E+02  0.13066041888E+04  0.13192980574E+04  0.15294330000E+03 0.  0.
    8880022    1    1    2    0    0  0.88180199819E+02 -0.46534474711E+02  0.36164684260E+02  0.18612023635E+03  0.15294330000E+03 0.  1.
<mgrwt>
<rscale>  0 0.18257288E+03</rscale>
<asrwt>0</asrwt>
<pdfrwt beam="1">  1        1 0.21909132E+00 0.18257288E+03</pdfrwt>
<pdfrwt beam="2">  1       -1 0.12511494E-01 0.18257288E+03</pdfrwt>
<totfact> 0.35184515E+02</totfact>
</mgrwt>
</event>
<event>
 4    1  0.1678003E-008  0.3883566E+03  0.7818608E-02  0.1047888E+00
          1   -1    0    0  501    0  0.00000000000E+00  0.00000000000E+00  0.83892218435E+03  0.83892218437E+03  0.50400000000E-02 0. -1.
         -1   -1    0    0    0  501 -0.00000000000E+00 -0.00000000000E+00 -0.20559906714E+03  0.20559906720E+03  0.50400000000E-02 0.  1.
    8880022    1    1    2    0    0  0.23897932901E+03  0.26517559172E+03  0.13158448058E+03  0.41004309856E+03  0.15294330000E+03 0.  0.
    8880022    1    1    2    0    0 -0.23897932901E+03 -0.26517559172E+03  0.50173863663E+03  0.63447815301E+03  0.15294330000E+03 0.  0.
<mgrwt>
<rscale>  0 0.38835662E+03</rscale>
<asrwt>0</asrwt>
<pdfrwt beam="1">  1        1 0.12906495E+00 0.38835662E+03</pdfrwt>
<pdfrwt beam="2">  1       -1 0.31630625E-01 0.38835662E+03</pdfrwt>
<totfact> 0.19845314E+02</totfact>
</mgrwt>
</event>
<event>
 4    1  0.1678003E-008  0.2241004E+03  0.7818608E-02  0.1130862E+00
          1   -1    0    0  501    0  0.00000000000E+00  0.00000000000E+00  0.35469903760E+03  0.35469903763E+03  0.50400000000E-02 0. -1.
         -1   -1    0    0    0  501 -0.00000000000E+00 -0.00000000000E+00 -0.43813465381E+03  0.43813465384E+03  0.50400000000E-02 0.  1.
    8880022    1    1    2    0    0 -0.68100634643E+02  0.14896855784E+03 -0.36785108636E+03  0.43073820636E+03  0.15294330000E+03 0.  1.
    8880022    1    1    2    0    0  0.68100634643E+02 -0.14896855784E+03  0.28441547015E+03  0.36209548511E+03  0.15294330000E+03 0.  0.
<mgrwt>
<rscale>  0 0.22410038E+03</rscale>
<asrwt>0</asrwt>
<pdfrwt beam="1">  1        1 0.54569083E-01 0.22410038E+03</pdfrwt>
<pdfrwt beam="2">  1       -1 0.67405331E-01 0.22410038E+03</pdfrwt>
<totfact> 0.16621863E+02</totfact>
</mgrwt>
</event>
<event>
 4    1  0.1678003E-008  0.7483892E+03  0.7818608E-02  0.9637881E-01
          1   -1    0    0  501    0  0.00000000000E+00  0.00000000000E+00  0.12701300560E+04  0.12701300560E+04  0.50400000000E-02 0. -1.
         -1   -1    0    0    0  501 -0.00000000000E+00 -0.00000000000E+00 -0.67862182817E+03  0.67862182819E+03  0.50400000000E-02 0.  1.
    8880022    1    1    2    0    0  0.60162281879E+03  0.41802476870E+03  0.87236825320E+03  0.11493966876E+04  0.15294330000E+03 0. -1.
    8880022    1    1    2    0    0 -0.60162281879E+03 -0.41802476870E+03 -0.28086002541E+03  0.79935519653E+03  0.15294330000E+03 0.  0.
<mgrwt>
<rscale>  0 0.74838919E+03</rscale>
<asrwt>0</asrwt>
<pdfrwt beam="1">  1        1 0.19540462E+00 0.74838919E+03</pdfrwt>
<pdfrwt beam="2">  1       -1 0.10440336E+00 0.74838919E+03</pdfrwt>
<totfact> 0.84985251E+00</totfact>
</mgrwt>
</event>
<event>
 4    1  0.1678003E-008  0.5995391E+03  0.7818608E-02  0.9906363E-01
          1   -1    0    0  501    0  0.00000000000E+00  0.00000000000E+00  0.14437210689E+04  0.14437210689E+04  0.50400000000E-02 0. -1.
         -1   -1    0    0    0  501 -0.00000000000E+00 -0.00000000000E+00 -0.31396953961E+03  0.31396953965E+03  0.50400000000E-02 0.  1.
    8880022    1    1    2    0    0 -0.50351984911E+03 -0.28726851087E+03  0.16500937641E+03  0.62183211811E+03  0.15294330000E+03 0.  0.
    8880022    1    1    2    0    0  0.50351984911E+03  0.28726851087E+03  0.96474215286E+03  0.11358584904E+04  0.15294330000E+03 0.  0.
<mgrwt>
<rscale>  0 0.59953906E+03</rscale>
<asrwt>0</asrwt>
<pdfrwt beam="1">  1        1 0.22211094E+00 0.59953906E+03</pdfrwt>
<pdfrwt beam="2">  1       -1 0.48303005E-01 0.59953906E+03</pdfrwt>
<totfact> 0.32277441E+01</totfact>
</mgrwt>
</event>
<event>
 4    1  0.1678003E-008  0.3728002E+03  0.7818608E-02  0.1053627E+00
         -1   -1    0    0    0  501 -0.00000000000E+00  0.00000000000E+00  0.44962448071E+03  0.44962448073E+03  0.50400000000E-02 0.  1.
          1   -1    0    0  501    0  0.00000000000E+00 -0.00000000000E+00 -0.49450511146E+03  0.49450511149E+03  0.50400000000E-02 0. -1.
    8880022    1    1    2    0    0 -0.26620361744E+03 -0.21148044422E+03  0.26661055779E+03  0.45832432487E+03  0.15294330000E+03 0.  0.
    8880022    1    1    2    0    0  0.26620361744E+03  0.21148044422E+03 -0.31149118855E+03  0.48580526735E+03  0.15294330000E+03 0.  0.
<mgrwt>
<rscale>  0 0.37280021E+03</rscale>
<asrwt>0</asrwt>
<pdfrwt beam="1">  1        1 0.76077709E-01 0.37280021E+03</pdfrwt>
<pdfrwt beam="2">  1       -1 0.69172997E-01 0.37280021E+03</pdfrwt>
<totfact> 0.10029839E+02</totfact>
</mgrwt>
</event>
<event>
 4    1  0.1678003E-008  0.6417562E+03  0.7818608E-02  0.9822372E-01
          1   -1    0    0  501    0  0.00000000000E+00  0.00000000000E+00  0.75027689551E+03  0.75027689552E+03  0.50400000000E-02 0. -1.
         -1   -1    0    0    0  501 -0.00000000000E+00 -0.00000000000E+00 -0.66266056803E+03  0.66266056805E+03  0.50400000000E-02 0.  1.
    8880022    1    1    2    0    0 -0.61643100360E+03  0.92044592802E+02  0.33648075341E+03  0.72461737468E+03  0.15294330000E+03 0.  0.
    8880022    1    1    2    0    0  0.61643100360E+03 -0.92044592802E+02 -0.24886442594E+03  0.68832008889E+03  0.15294330000E+03 0.  0.
<mgrwt>
<rscale>  0 0.64175622E+03</rscale>
<asrwt>0</asrwt>
<pdfrwt beam="1">  1        1 0.11542721E+00 0.64175622E+03</pdfrwt>
<pdfrwt beam="2">  1       -1 0.10194778E+00 0.64175622E+03</pdfrwt>
<totfact> 0.23208822E+01</totfact>
</mgrwt>
</event>
<event>
 4    1  0.1678003E-008  0.4262273E+03  0.7818608E-02  0.1035058E+00
          1   -1    0    0  501    0  0.00000000000E+00  0.00000000000E+00  0.23277357185E+04  0.23277357185E+04  0.50400000000E-02 0. -1.
         -1   -1    0    0    0  501 -0.00000000000E+00 -0.00000000000E+00 -0.28589973712E+03  0.28589973717E+03  0.50400000000E-02 0.  1.
    8880022    1    1    2    0    0 -0.35034486619E+03 -0.18851139522E+03  0.21351801680E+04  0.21773066100E+04  0.15294330000E+03 0.  0.
    8880022    1    1    2    0    0  0.35034486619E+03  0.18851139522E+03 -0.93344186551E+02  0.43632884568E+03  0.15294330000E+03 0.  0.
<mgrwt>
<rscale>  0 0.42622732E+03</rscale>
<asrwt>0</asrwt>
<pdfrwt beam="1">  1        1 0.35811318E+00 0.42622732E+03</pdfrwt>
<pdfrwt beam="2">  1       -1 0.43984576E-01 0.42622732E+03</pdfrwt>
<totfact> 0.10265470E+01</totfact>
</mgrwt>
</event>
<event>
 4    1  0.1678003E-008  0.2333928E+03  0.7818608E-02  0.1124274E+00
          1   -1    0    0  501    0  0.00000000000E+00  0.00000000000E+00  0.98468340642E+03  0.98468340643E+03  0.50400000000E-02 0. -1.
         -1   -1    0    0    0  501 -0.00000000000E+00 -0.00000000000E+00 -0.17799675412E+03  0.17799675419E+03  0.50400000000E-02 0.  1.
    8880022    1    1    2    0    0 -0.16627701394E+03 -0.58587584464E+02 -0.79277691163E+02  0.24648966662E+03  0.15294330000E+03 0.  0.
    8880022    1    1    2    0    0  0.16627701394E+03  0.58587584464E+02  0.88596434346E+03  0.91619049401E+03  0.15294330000E+03 0.  0.
<mgrwt>
<rscale>  0 0.23339281E+03</rscale>
<asrwt>0</asrwt>
<pdfrwt beam="1">  1        1 0.15148976E+00 0.23339281E+03</pdfrwt>
<pdfrwt beam="2">  1       -1 0.27384116E-01 0.23339281E+03</pdfrwt>
<totfact> 0.19933352E+02</totfact>
</mgrwt>
</event>
<event>
 4    1  0.1678003E-008  0.4160098E+03  0.7818608E-02  0.1038373E+00
         -1   -1    0    0    0  501 -0.00000000000E+00  0.00000000000E+00  0.20290811513E+03  0.20290811520E+03  0.50400000000E-02 0.  1.
          1   -1    0    0  501    0  0.00000000000E+00 -0.00000000000E+00 -0.10424836362E+04  0.10424836362E+04  0.50400000000E-02 0. -1.
    8880022    1    1    2    0    0 -0.15362113983E+03  0.35506762419E+03 -0.15425361663E+03  0.44368716863E+03  0.15294330000E+03 0.  1.
    8880022    1    1    2    0    0  0.15362113983E+03 -0.35506762419E+03 -0.68532190446E+03  0.80170458281E+03  0.15294330000E+03 0.  0.
<mgrwt>
<rscale>  0 0.41600977E+03</rscale>
<asrwt>0</asrwt>
<pdfrwt beam="1">  1        1 0.16038209E+00 0.41600977E+03</pdfrwt>
<pdfrwt beam="2">  1       -1 0.31216634E-01 0.41600977E+03</pdfrwt>
<totfact> 0.14014329E+02</totfact>
</mgrwt>
</event>
<event>
 4    1  0.1678003E-008  0.2742645E+03  0.7818608E-02  0.1098863E+00
          1   -1    0    0  501    0  0.00000000000E+00  0.00000000000E+00  0.10846108197E+04  0.10846108197E+04  0.50400000000E-02 0. -1.
         -1   -1    0    0    0  501 -0.00000000000E+00 -0.00000000000E+00 -0.18758661213E+03  0.18758661220E+03  0.50400000000E-02 0.  1.
    8880022    1    1    2    0    0 -0.16839383290E+03 -0.15320855591E+03  0.95351527579E+03  0.99217557858E+03  0.15294330000E+03 0. -1.
    8880022    1    1    2    0    0  0.16839383290E+03  0.15320855591E+03 -0.56491068178E+02  0.28002185337E+03  0.15294330000E+03 0.  0.
<mgrwt>
<rscale>  0 0.27426447E+03</rscale>
<asrwt>0</asrwt>
<pdfrwt beam="1">  1        1 0.16686320E+00 0.27426447E+03</pdfrwt>
<pdfrwt beam="2">  1       -1 0.28859479E-01 0.27426447E+03</pdfrwt>
<totfact> 0.15268347E+02</totfact>
</mgrwt>
</event>
<event>
 4    1  0.1678003E-008  0.5756631E+03  0.7818608E-02  0.9957225E-01
          1   -1    0    0  501    0  0.00000000000E+00  0.00000000000E+00  0.50754836881E+03  0.50754836884E+03  0.50400000000E-02 0. -1.
         -1   -1    0    0    0  501 -0.00000000000E+00 -0.00000000000E+00 -0.16728573610E+04  0.16728573610E+04  0.50400000000E-02 0.  1.
    8880022    1    1    2    0    0  0.28866057088E+03  0.47399521549E+03  0.26861054256E+03  0.63524772024E+03  0.15294330000E+03 0.  0.
    8880022    1    1    2    0    0 -0.28866057088E+03 -0.47399521549E+03 -0.14339195347E+04  0.15451580096E+04  0.15294330000E+03 0.  0.
<mgrwt>
<rscale>  0 0.57566313E+03</rscale>
<asrwt>0</asrwt>
<pdfrwt beam="1">  1        1 0.78084365E-01 0.57566313E+03</pdfrwt>
<pdfrwt beam="2">  1       -1 0.25736267E+00 0.57566313E+03</pdfrwt>
<totfact> 0.29212653E+00</totfact>
</mgrwt>
</event>
<event>
 4    1  0.1678003E-008  0.3567164E+03  0.7818608E-02  0.1059892E+00
          1   -1    0    0  501    0  0.00000000000E+00  0.00000000000E+00  0.38095435122E+04  0.38095435122E+04  0.50400000000E-02 0. -1.
         -1   -1    0    0    0  501 -0.00000000000E+00 -0.00000000000E+00 -0.18354048613E+03  0.18354048620E+03  0.50400000000E-02 0.  1.
    8880022    1    1    2    0    0  0.99970916886E+02 -0.30636700987E+03  0.36187549423E+04  0.36362939808E+04  0.15294330000E+03 0.  0.
    8880022    1    1    2    0    0 -0.99970916886E+02  0.30636700987E+03  0.72480837528E+01  0.35679001765E+03  0.15294330000E+03 0.  0.
<mgrwt>
<rscale>  0 0.35671639E+03</rscale>
<asrwt>0</asrwt>
<pdfrwt beam="1">  1        1 0.58608355E+00 0.35671639E+03</pdfrwt>
<pdfrwt beam="2">  1       -1 0.28237001E-01 0.35671639E+03</pdfrwt>
<totfact> 0.19665154E+00</totfact>
</mgrwt>
</event>
<event>
 4    1  0.1678003E-008  0.4441314E+03  0.7818608E-02  0.1029487E+00
          1   -1    0    0  501    0  0.00000000000E+00  0.00000000000E+00  0.73479336413E+03  0.73479336415E+03  0.50400000000E-02 0. -1.
         -1   -1    0    0    0  501 -0.00000000000E+00 -0.00000000000E+00 -0.59853715993E+03  0.59853715995E+03  0.50400000000E-02 0.  1.
    8880022    1    1    2    0    0  0.87699093925E+01  0.41687424604E+03  0.56321210027E+03  0.71725906841E+03  0.15294330000E+03 0.  0.
    8880022    1    1    2    0    0 -0.87699093925E+01 -0.41687424604E+03 -0.42695589607E+03  0.61607145569E+03  0.15294330000E+03 0.  1.
<mgrwt>
<rscale>  0 0.44413140E+03</rscale>
<asrwt>0</asrwt>
<pdfrwt beam="1">  1        1 0.11304513E+00 0.44413140E+03</pdfrwt>
<pdfrwt beam="2">  1       -1 0.92082640E-01 0.44413140E+03</pdfrwt>
<totfact> 0.31010870E+01</totfact>
</mgrwt>
</event>
<event>
 4    1  0.1678003E-008  0.2050439E+03  0.7818608E-02  0.1145552E+00
          1   -1    0    0  501    0  0.00000000000E+00  0.00000000000E+00  0.24098313806E+03  0.24098313812E+03  0.50400000000E-02 0. -1.
         -1   -1    0    0    0  501 -0.00000000000E+00 -0.00000000000E+00 -0.80105367432E+03  0.80105367433E+03  0.50400000000E-02 0.  1.
    8880022    1    1    2    0    0  0.71771509716E+02  0.11619038886E+03 -0.74083656437E+03  0.76868837912E+03  0.15294330000E+03 0.  1.
    8880022    1    1    2    0    0 -0.71771509716E+02 -0.11619038886E+03  0.18076602811E+03  0.27334843333E+03  0.15294330000E+03 0.  0.
<mgrwt>
<rscale>  0 0.20504392E+03</rscale>
<asrwt>0</asrwt>
<pdfrwt beam="1">  1        1 0.37074329E-01 0.20504392E+03</pdfrwt>
<pdfrwt beam="2">  1       -1 0.12323903E+00 0.20504392E+03</pdfrwt>
<totfact> 0.73429076E+01</totfact>
</mgrwt>
</event>
<event>
 4    1  0.1678003E-008  0.3352411E+03  0.7818608E-02  0.1068841E+00
         -1   -1    0    0    0  501 -0.00000000000E+00  0.00000000000E+00  0.54588747642E+03  0.54588747645E+03  0.50400000000E-02 0.  1.
          1   -1    0    0  501    0  0.00000000000E+00 -0.00000000000E+00 -0.39553938887E+03  0.39553938890E+03  0.50400000000E-02 0. -1.
    8880022    1    1    2    0    0  0.29805312971E+03  0.12620632177E+02  0.40112359682E+03  0.52276834394E+03  0.15294330000E+03 0.  0.
    8880022    1    1    2    0    0 -0.29805312971E+03 -0.12620632177E+02 -0.25077550927E+03  0.41865852141E+03  0.15294330000E+03 0.  0.
<mgrwt>
<rscale>  0 0.33524111E+03</rscale>
<asrwt>0</asrwt>
<pdfrwt beam="1">  1        1 0.60852214E-01 0.33524111E+03</pdfrwt>
<pdfrwt beam="2">  1       -1 0.83982689E-01 0.33524111E+03</pdfrwt>
<totfact> 0.90677306E+01</totfact>
</mgrwt>
</event>
<event>
 4    1  0.1678003E-008  0.5828790E+03  0.7818608E-02  0.9941577E-01
          1   -1    0    0  501    0  0.00000000000E+00  0.00000000000E+00  0.12496951939E+04  0.12496951940E+04  0.50400000000E-02 0. -1.
         -1   -1    0    0    0  501 -0.00000000000E+00 -0.00000000000E+00 -0.79896657508E+03  0.79896657509E+03  0.50400000000E-02 0.  1.
    8880022    1    1    2    0    0  0.42331052655E+03 -0.37035727203E+03 -0.60663555840E+03  0.84128156082E+03  0.15294330000E+03 0.  0.
    8880022    1    1    2    0    0 -0.42331052655E+03  0.37035727203E+03  0.10573641773E+04  0.12073802082E+04  0.15294330000E+03 0.  0.
<mgrwt>
<rscale>  0 0.58287903E+03</rscale>
<asrwt>0</asrwt>
<pdfrwt beam="1">  1        1 0.19226080E+00 0.58287903E+03</pdfrwt>
<pdfrwt beam="2">  1       -1 0.12291794E+00 0.58287903E+03</pdfrwt>
<totfact> 0.61341953E+00</totfact>
</mgrwt>
</event>
<event>
 4    1  0.1678003E-008  0.2726716E+03  0.7818608E-02  0.1099760E+00
          1   -1    0    0  501    0  0.00000000000E+00  0.00000000000E+00  0.18528951164E+04  0.18528951164E+04  0.50400000000E-02 0. -1.
         -1   -1    0    0    0  501 -0.00000000000E+00 -0.00000000000E+00 -0.64157664265E+02  0.64157664463E+02  0.50400000000E-02 0.  1.
    8880022    1    1    2    0    0  0.13951691587E+02 -0.22530755687E+03  0.30773213308E+03  0.41115552243E+03  0.15294330000E+03 0.  0.
    8880022    1    1    2    0    0 -0.13951691587E+02  0.22530755687E+03  0.14810053190E+04  0.15058972584E+04  0.15294330000E+03 0.  0.
<mgrwt>
<rscale>  0 0.27267159E+03</rscale>
<asrwt>0</asrwt>
<pdfrwt beam="1">  1        1 0.28506079E+00 0.27267159E+03</pdfrwt>
<pdfrwt beam="2">  1       -1 0.98704100E-02 0.27267159E+03</pdfrwt>
<totfact> 0.26200130E+02</totfact>
</mgrwt>
</event>
<event>
 4    1  0.1678003E-008  0.3732642E+03  0.7818608E-02  0.1053452E+00
         -1   -1    0    0    0  501 -0.00000000000E+00  0.00000000000E+00  0.39407249705E+03  0.39407249708E+03  0.50400000000E-02 0.  1.
          1   -1    0    0  501    0  0.00000000000E+00 -0.00000000000E+00 -0.20455157683E+04  0.20455157683E+04  0.50400000000E-02 0. -1.
    8880022    1    1    2    0    0  0.33577566167E+03  0.56473111250E+02  0.28365831973E+03  0.46881574486E+03  0.15294330000E+03 0.  0.
    8880022    1    1    2    0    0 -0.33577566167E+03 -0.56473111250E+02 -0.19351015909E+04  0.19707725205E+04  0.15294330000E+03 0.  0.
<mgrwt>
<rscale>  0 0.37326420E+03</rscale>
<asrwt>0</asrwt>
<pdfrwt beam="1">  1        1 0.31469473E+00 0.37326420E+03</pdfrwt>
<pdfrwt beam="2">  1       -1 0.60626539E-01 0.37326420E+03</pdfrwt>
<totfact> 0.87587128E+00</totfact>
</mgrwt>
</event>
<event>
 4    1  0.1678003E-008  0.5315280E+03  0.7818608E-02  0.1005862E+00
          1   -1    0    0  501    0  0.00000000000E+00  0.00000000000E+00  0.19446126178E+04  0.19446126178E+04  0.50400000000E-02 0. -1.
         -1   -1    0    0    0  501 -0.00000000000E+00 -0.00000000000E+00 -0.12238853428E+04  0.12238853428E+04  0.50400000000E-02 0.  1.
    8880022    1    1    2    0    0 -0.86717161179E+02  0.50160787689E+03 -0.11268845778E+04  0.12459497714E+04  0.15294330000E+03 0.  0.
    8880022    1    1    2    0    0  0.86717161179E+02 -0.50160787689E+03  0.18476118528E+04  0.19225481892E+04  0.15294330000E+03 0.  0.
<mgrwt>
<rscale>  0 0.53152797E+03</rscale>
<asrwt>0</asrwt>
<pdfrwt beam="1">  1        1 0.29917117E+00 0.53152797E+03</pdfrwt>
<pdfrwt beam="2">  1       -1 0.18829006E+00 0.53152797E+03</pdfrwt>
<totfact> 0.66497119E-01</totfact>
</mgrwt>
</event>
<event>
 4    1  0.1678003E-008  0.4175583E+03  0.7818608E-02  0.1037864E+00
          1   -1    0    0  501    0  0.00000000000E+00  0.00000000000E+00  0.21115438466E+04  0.21115438466E+04  0.50400000000E-02 0. -1.
         -1   -1    0    0    0  501 -0.00000000000E+00 -0.00000000000E+00 -0.15971323991E+03  0.15971323999E+03  0.50400000000E-02 0.  1.
    8880022    1    1    2    0    0 -0.30303592302E+03 -0.24317173715E+03  0.18667645227E+03  0.45738716120E+03  0.15294330000E+03 0.  0.
    8880022    1    1    2    0    0  0.30303592302E+03  0.24317173715E+03  0.17651541544E+04  0.18138699254E+04  0.15294330000E+03 0.  0.
<mgrwt>
<rscale>  0 0.41755828E+03</rscale>
<asrwt>0</asrwt>
<pdfrwt beam="1">  1        1 0.32485289E+00 0.41755828E+03</pdfrwt>
<pdfrwt beam="2">  1       -1 0.24571268E-01 0.41755828E+03</pdfrwt>
<totfact> 0.39605126E+01</totfact>
</mgrwt>
</event>
<event>
 4    1  0.1678003E-008  0.4883743E+03  0.7818608E-02  0.1016859E+00
         -1   -1    0    0    0  501 -0.00000000000E+00  0.00000000000E+00  0.71642810777E+03  0.71642810779E+03  0.50400000000E-02 0.  1.
          1   -1    0    0  501    0  0.00000000000E+00 -0.00000000000E+00 -0.43275818983E+03  0.43275818986E+03  0.50400000000E-02 0. -1.
    8880022    1    1    2    0    0  0.44681453601E+03  0.12439695390E+03 -0.13415772003E+03  0.50646596983E+03  0.15294330000E+03 0. -1.
    8880022    1    1    2    0    0 -0.44681453601E+03 -0.12439695390E+03  0.41782763797E+03  0.64272032782E+03  0.15294330000E+03 0.  0.
<mgrwt>
<rscale>  0 0.48837433E+03</rscale>
<asrwt>0</asrwt>
<pdfrwt beam="1">  1        1 0.66578184E-01 0.48837433E+03</pdfrwt>
<pdfrwt beam="2">  1       -1 0.11021971E+00 0.48837433E+03</pdfrwt>
<totfact> 0.43083685E+01</totfact>
</mgrwt>
</event>
<event>
 4    1  0.1678003E-008  0.4794606E+03  0.7818608E-02  0.1019284E+00
          1   -1    0    0  501    0  0.00000000000E+00  0.00000000000E+00  0.12014174191E+04  0.12014174191E+04  0.50400000000E-02 0. -1.
         -1   -1    0    0    0  501 -0.00000000000E+00 -0.00000000000E+00 -0.24953567823E+03  0.24953567828E+03  0.50400000000E-02 0.  1.
    8880022    1    1    2    0    0 -0.40894699174E+03  0.19812405681E+03  0.12559871696E+03  0.49563845155E+03  0.15294330000E+03 0.  1.
    8880022    1    1    2    0    0  0.40894699174E+03 -0.19812405681E+03  0.82628302395E+03  0.95531464587E+03  0.15294330000E+03 0.  0.
<mgrwt>
<rscale>  0 0.47946057E+03</rscale>
<asrwt>0</asrwt>
<pdfrwt beam="1">  1        1 0.18483345E+00 0.47946057E+03</pdfrwt>
<pdfrwt beam="2">  1       -1 0.38390104E-01 0.47946057E+03</pdfrwt>
<totfact> 0.73878678E+01</totfact>
</mgrwt>
</event>
<event>
 4    1  0.1678003E-008  0.2762253E+03  0.7818608E-02  0.1097769E+00
          1   -1    0    0  501    0  0.00000000000E+00  0.00000000000E+00  0.10972940703E+04  0.10972940704E+04  0.50400000000E-02 0. -1.
         -1   -1    0    0    0  501 -0.00000000000E+00 -0.00000000000E+00 -0.81888158249E+03  0.81888158250E+03  0.50400000000E-02 0.  1.
    8880022    1    1    2    0    0  0.59238003654E+02  0.22226030135E+03  0.10557139298E+04  0.10912526459E+04  0.15294330000E+03 0.  0.
    8880022    1    1    2    0    0 -0.59238003654E+02 -0.22226030135E+03 -0.77730144197E+03  0.82492300692E+03  0.15294330000E+03 0.  0.
<mgrwt>
<rscale>  0 0.27622533E+03</rscale>
<asrwt>0</asrwt>
<pdfrwt beam="1">  1        1 0.16881447E+00 0.27622533E+03</pdfrwt>
<pdfrwt beam="2">  1       -1 0.12598178E+00 0.27622533E+03</pdfrwt>
<totfact> 0.81137776E+00</totfact>
</mgrwt>
</event>
<event>
 4    1  0.1678003E-008  0.4411190E+03  0.7818608E-02  0.1030404E+00
          1   -1    0    0  501    0  0.00000000000E+00  0.00000000000E+00  0.63590300799E+03  0.63590300801E+03  0.50400000000E-02 0. -1.
         -1   -1    0    0    0  501 -0.00000000000E+00 -0.00000000000E+00 -0.71548717739E+03  0.71548717740E+03  0.50400000000E-02 0.  1.
    8880022    1    1    2    0    0 -0.79611575744E+01  0.41367975710E+03 -0.55096787761E+03  0.70579853828E+03  0.15294330000E+03 0.  0.
    8880022    1    1    2    0    0  0.79611575744E+01 -0.41367975710E+03  0.47138370821E+03  0.64559164713E+03  0.15294330000E+03 0.  0.
<mgrwt>
<rscale>  0 0.44111900E+03</rscale>
<asrwt>0</asrwt>
<pdfrwt beam="1">  1        1 0.97831232E-01 0.44111900E+03</pdfrwt>
<pdfrwt beam="2">  1       -1 0.11007495E+00 0.44111900E+03</pdfrwt>
<totfact> 0.25647962E+01</totfact>
</mgrwt>
</event>
<event>
 4    1  0.1678003E-008  0.1054788E+04  0.7818608E-02  0.9250415E-01
          1   -1    0    0  501    0  0.00000000000E+00  0.00000000000E+00  0.19753102524E+04  0.19753102524E+04  0.50400000000E-02 0. -1.
         -1   -1    0    0    0  501 -0.00000000000E+00 -0.00000000000E+00 -0.60560121257E+03  0.60560121259E+03  0.50400000000E-02 0.  1.
    8880022    1    1    2    0    0  0.10087926270E+04 -0.26743736594E+03  0.10261461127E+04  0.14715817363E+04  0.15294330000E+03 0.  0.
    8880022    1    1    2    0    0 -0.10087926270E+04  0.26743736594E+03  0.34356292715E+03  0.11093297287E+04  0.15294330000E+03 0.  0.
<mgrwt>
<rscale>  0 0.10547876E+04</rscale>
<asrwt>0</asrwt>
<pdfrwt beam="1">  1        1 0.30389389E+00 0.10547876E+04</pdfrwt>
<pdfrwt beam="2">  1       -1 0.93169416E-01 0.10547876E+04</pdfrwt>
<totfact> 0.34769676E+00</totfact>
</mgrwt>
</event>
<event>
 4    1  0.1678003E-008  0.3376811E+03  0.7818608E-02  0.1067788E+00
         -1   -1    0    0    0  501 -0.00000000000E+00  0.00000000000E+00  0.13966536760E+04  0.13966536760E+04  0.50400000000E-02 0.  1.
          1   -1    0    0  501    0  0.00000000000E+00 -0.00000000000E+00 -0.74396377797E+03  0.74396377799E+03  0.50400000000E-02 0. -1.
    8880022    1    1    2    0    0  0.17940361308E+03 -0.24176692649E+03 -0.68352859410E+03  0.76239090701E+03  0.15294330000E+03 0.  0.
    8880022    1    1    2    0    0 -0.17940361308E+03  0.24176692649E+03  0.13362184921E+04  0.13782265470E+04  0.15294330000E+03 0.  1.
<mgrwt>
<rscale>  0 0.33768115E+03</rscale>
<asrwt>0</asrwt>
<pdfrwt beam="1">  1        1 0.11445597E+00 0.33768115E+03</pdfrwt>
<pdfrwt beam="2">  1       -1 0.21486979E+00 0.33768115E+03</pdfrwt>
<totfact> 0.33963545E+00</totfact>
</mgrwt>
</event>
<event>
 4    1  0.1678003E-008  0.3672217E+03  0.7818608E-02  0.1055760E+00
         -1   -1    0    0    0  501 -0.00000000000E+00  0.00000000000E+00  0.10397511462E+03  0.10397511474E+03  0.50400000000E-02 0.  1.
          1   -1    0    0  501    0  0.00000000000E+00 -0.00000000000E+00 -0.35934337917E+04  0.35934337917E+04  0.50400000000E-02 0. -1.
    8880022    1    1    2    0    0 -0.18138806296E+03 -0.28028293609E+03 -0.32226230130E+04  0.32434782088E+04  0.15294330000E+03 0.  0.
    8880022    1    1    2    0    0  0.18138806296E+03  0.28028293609E+03 -0.26683566400E+03  0.45393069762E+03  0.15294330000E+03 0.  0.
<mgrwt>
<rscale>  0 0.36722174E+03</rscale>
<asrwt>0</asrwt>
<pdfrwt beam="1">  1        1 0.55283587E+00 0.36722174E+03</pdfrwt>
<pdfrwt beam="2">  1       -1 0.15996174E-01 0.36722174E+03</pdfrwt>
<totfact> 0.74329604E+00</totfact>
</mgrwt>
</event>
<event>
 4    1  0.1678003E-008  0.6467300E+03  0.7818608E-02  0.9812935E-01
          1   -1    0    0  501    0  0.00000000000E+00  0.00000000000E+00  0.93754813184E+03  0.93754813185E+03  0.50400000000E-02 0. -1.
         -1   -1    0    0    0  501 -0.00000000000E+00 -0.00000000000E+00 -0.14533712689E+04  0.14533712689E+04  0.50400000000E-02 0.  1.
    8880022    1    1    2    0    0  0.39309303986E+03  0.49025084150E+03  0.73729997400E+03  0.98075018749E+03  0.15294330000E+03 0.  0.
    8880022    1    1    2    0    0 -0.39309303986E+03 -0.49025084150E+03 -0.12531231110E+04  0.14101692133E+04  0.15294330000E+03 0.  0.
<mgrwt>
<rscale>  0 0.64672999E+03</rscale>
<asrwt>0</asrwt>
<pdfrwt beam="1">  1        1 0.14423817E+00 0.64672999E+03</pdfrwt>
<pdfrwt beam="2">  1       -1 0.22359558E+00 0.64672999E+03</pdfrwt>
<totfact> 0.18836831E+00</totfact>
</mgrwt>
</event>
<event>
 4    1  0.1678003E-008  0.6161715E+03  0.7818608E-02  0.9872412E-01
          1   -1    0    0  501    0  0.00000000000E+00  0.00000000000E+00  0.86116583320E+03  0.86116583321E+03  0.50400000000E-02 0. -1.
         -1   -1    0    0    0  501 -0.00000000000E+00 -0.00000000000E+00 -0.10336887427E+04  0.10336887428E+04  0.50400000000E-02 0.  1.
    8880022    1    1    2    0    0 -0.59475841562E+03 -0.50379559632E+02  0.63121849717E+03  0.88210210133E+03  0.15294330000E+03 0. -1.
    8880022    1    1    2    0    0  0.59475841562E+03  0.50379559632E+02 -0.80374140672E+03  0.10127524746E+04  0.15294330000E+03 0.  0.
<mgrwt>
<rscale>  0 0.61617151E+03</rscale>
<asrwt>0</asrwt>
<pdfrwt beam="1">  1        1 0.13248705E+00 0.61617151E+03</pdfrwt>
<pdfrwt beam="2">  1       -1 0.15902904E+00 0.61617151E+03</pdfrwt>
<totfact> 0.61603514E+00</totfact>
</mgrwt>
</event>
<event>
 4    1  0.1678003E-008  0.3735873E+03  0.7818608E-02  0.1053330E+00
         -1   -1    0    0    0  501 -0.00000000000E+00  0.00000000000E+00  0.20901360306E+03  0.20901360312E+03  0.50400000000E-02 0.  1.
          1   -1    0    0  501    0  0.00000000000E+00 -0.00000000000E+00 -0.22518137331E+04  0.22518137331E+04  0.50400000000E-02 0. -1.
    8880022    1    1    2    0    0  0.26238290943E+03 -0.21755689350E+03  0.10582002081E+02  0.37373710661E+03  0.15294330000E+03 0.  0.
    8880022    1    1    2    0    0 -0.26238290943E+03  0.21755689350E+03 -0.20533821321E+04  0.20870902296E+04  0.15294330000E+03 0. -1.
<mgrwt>
<rscale>  0 0.37358727E+03</rscale>
<asrwt>0</asrwt>
<pdfrwt beam="1">  1        1 0.34643286E+00 0.37358727E+03</pdfrwt>
<pdfrwt beam="2">  1       -1 0.32155941E-01 0.37358727E+03</pdfrwt>
<totfact> 0.20450568E+01</totfact>
</mgrwt>
</event>
<event>
 4    1  0.1678003E-008  0.8891254E+03  0.7818608E-02  0.9439278E-01
         -1   -1    0    0    0  501 -0.00000000000E+00  0.00000000000E+00  0.20893958227E+04  0.20893958227E+04  0.50400000000E-02 0.  1.
          1   -1    0    0  501    0  0.00000000000E+00 -0.00000000000E+00 -0.76019288318E+03  0.76019288320E+03  0.50400000000E-02 0. -1.
    8880022    1    1    2    0    0 -0.78579155252E+03  0.38689001831E+03 -0.34517889525E+03  0.95377794744E+03  0.15294330000E+03 0.  0.
    8880022    1    1    2    0    0  0.78579155252E+03 -0.38689001831E+03  0.16743818347E+04  0.18958107584E+04  0.15294330000E+03 0.  0.
<mgrwt>
<rscale>  0 0.88912536E+03</rscale>
<asrwt>0</asrwt>
<pdfrwt beam="1">  1        1 0.11695275E+00 0.88912536E+03</pdfrwt>
<pdfrwt beam="2">  1       -1 0.32144551E+00 0.88912536E+03</pdfrwt>
<totfact> 0.59444240E-01</totfact>
</mgrwt>
</event>
<event>
 4    1  0.1678003E-008  0.4603602E+03  0.7818608E-02  0.1024677E+00
          1   -1    0    0  501    0  0.00000000000E+00  0.00000000000E+00  0.14774166486E+04  0.14774166486E+04  0.50400000000E-02 0. -1.
         -1   -1    0    0    0  501 -0.00000000000E+00 -0.00000000000E+00 -0.65018990392E+03  0.65018990394E+03  0.50400000000E-02 0.  1.
    8880022    1    1    2    0    0 -0.29305043407E+02 -0.43322169243E+03  0.13527632566E+04  0.14289506296E+04  0.15294330000E+03 0.  0.
    8880022    1    1    2    0    0  0.29305043407E+02  0.43322169243E+03 -0.52553651191E+03  0.69865592298E+03  0.15294330000E+03 0.  1.
<mgrwt>
<rscale>  0 0.46036016E+03</rscale>
<asrwt>0</asrwt>
<pdfrwt beam="1">  1        1 0.22729487E+00 0.46036016E+03</pdfrwt>
<pdfrwt beam="2">  1       -1 0.10002922E+00 0.46036016E+03</pdfrwt>
<totfact> 0.71273647E+00</totfact>
</mgrwt>
</event>
<event>
 4    1  0.1678003E-008  0.1580803E+03  0.7818608E-02  0.1190881E+00
          1   -1    0    0  501    0  0.00000000000E+00  0.00000000000E+00  0.60213426908E+03  0.60213426910E+03  0.50400000000E-02 0. -1.
         -1   -1    0    0    0  501 -0.00000000000E+00 -0.00000000000E+00 -0.49059514140E+02  0.49059514399E+02  0.50400000000E-02 0.  1.
    8880022    1    1    2    0    0  0.38848425743E+02  0.94090417471E+01  0.14873854764E+03  0.21705423013E+03  0.15294330000E+03 0.  1.
    8880022    1    1    2    0    0 -0.38848425743E+02 -0.94090417471E+01  0.40433620730E+03  0.43413955337E+03  0.15294330000E+03 0.  0.
<mgrwt>
<rscale>  0 0.15808031E+03</rscale>
<asrwt>0</asrwt>
<pdfrwt beam="1">  1        1 0.92636041E-01 0.15808031E+03</pdfrwt>
<pdfrwt beam="2">  1       -1 0.75476177E-02 0.15808031E+03</pdfrwt>
<totfact> 0.32309518E+03</totfact>
</mgrwt>
</event>
<event>
 4    1  0.1678003E-008  0.1062901E+04  0.7818608E-02  0.9242125E-01
         -1   -1    0    0    0  501 -0.00000000000E+00  0.00000000000E+00  0.19215542836E+04  0.19215542836E+04  0.50400000000E-02 0.  1.
          1   -1    0    0  501    0  0.00000000000E+00 -0.00000000000E+00 -0.85722126269E+03  0.85722126270E+03  0.50400000000E-02 0. -1.
    8880022    1    1    2    0    0  0.10513066103E+04 -0.33494686821E+02  0.13108838742E+04  0.16876538945E+04  0.15294330000E+03 0.  0.
    8880022    1    1    2    0    0 -0.10513066103E+04  0.33494686821E+02 -0.24655085328E+03  0.10911216519E+04  0.15294330000E+03 0.  0.
<mgrwt>
<rscale>  0 0.10629013E+04</rscale>
<asrwt>0</asrwt>
<pdfrwt beam="1">  1        1 0.13188020E+00 0.10629013E+04</pdfrwt>
<pdfrwt beam="2">  1       -1 0.29562373E+00 0.10629013E+04</pdfrwt>
<totfact> 0.69903680E-01</totfact>
</mgrwt>
</event>
<event>
 4    1  0.1678003E-008  0.1371021E+04  0.7818608E-02  0.8975066E-01
          1   -1    0    0  501    0  0.00000000000E+00  0.00000000000E+00  0.12408273567E+04  0.12408273567E+04  0.50400000000E-02 0. -1.
         -1   -1    0    0    0  501 -0.00000000000E+00 -0.00000000000E+00 -0.19137468711E+04  0.19137468711E+04  0.50400000000E-02 0.  1.
    8880022    1    1    2    0    0  0.13087390831E+04 -0.37882738309E+03  0.38362656565E+03  0.14236815545E+04  0.15294330000E+03 0.  0.
    8880022    1    1    2    0    0 -0.13087390831E+04  0.37882738309E+03 -0.10565460801E+04  0.17308926732E+04  0.15294330000E+03 0.  0.
<mgrwt>
<rscale>  0 0.13710215E+04</rscale>
<asrwt>0</asrwt>
<pdfrwt beam="1">  1        1 0.19089652E+00 0.13710215E+04</pdfrwt>
<pdfrwt beam="2">  1       -1 0.29442260E+00 0.13710215E+04</pdfrwt>
<totfact> 0.34465724E-01</totfact>
</mgrwt>
</event>
<event>
 4    1  0.1678003E-008  0.5580371E+03  0.7818608E-02  0.9996506E-01
          1   -1    0    0  501    0  0.00000000000E+00  0.00000000000E+00  0.12858115375E+04  0.12858115375E+04  0.50400000000E-02 0. -1.
         -1   -1    0    0    0  501 -0.00000000000E+00 -0.00000000000E+00 -0.26877096355E+03  0.26877096359E+03  0.50400000000E-02 0.  1.
    8880022    1    1    2    0    0 -0.33960764942E+03  0.41554831472E+03  0.26405818276E+03  0.61735899954E+03  0.15294330000E+03 0.  0.
    8880022    1    1    2    0    0  0.33960764942E+03 -0.41554831472E+03  0.75298239114E+03  0.93722350152E+03  0.15294330000E+03 0.  0.
<mgrwt>
<rscale>  0 0.55803710E+03</rscale>
<asrwt>0</asrwt>
<pdfrwt beam="1">  1        1 0.19781716E+00 0.55803710E+03</pdfrwt>
<pdfrwt beam="2">  1       -1 0.41349380E-01 0.55803710E+03</pdfrwt>
<totfact> 0.55673395E+01</totfact>
</mgrwt>
</event>
<event>
 4    1  0.1678003E-008  0.1111787E+04  0.7818608E-02  0.9193779E-01
         -1   -1    0    0    0  501 -0.00000000000E+00  0.00000000000E+00  0.31951285285E+04  0.31951285285E+04  0.50400000000E-02 0.  1.
          1   -1    0    0  501    0  0.00000000000E+00 -0.00000000000E+00 -0.95219624948E+03  0.95219624949E+03  0.50400000000E-02 0. -1.
    8880022    1    1    2    0    0  0.10660645347E+04  0.27601566538E+03 -0.47635417059E+03  0.12095384196E+04  0.15294330000E+03 0.  0.
    8880022    1    1    2    0    0 -0.10660645347E+04 -0.27601566538E+03  0.27192864496E+04  0.29377863584E+04  0.15294330000E+03 0.  0.
<mgrwt>
<rscale>  0 0.11117868E+04</rscale>
<asrwt>0</asrwt>
<pdfrwt beam="1">  1        1 0.14649173E+00 0.11117868E+04</pdfrwt>
<pdfrwt beam="2">  1       -1 0.49155824E+00 0.11117868E+04</pdfrwt>
<totfact> 0.27946748E-02</totfact>
</mgrwt>
</event>
<event>
 4    1  0.1678003E-008  0.8577371E+03  0.7818608E-02  0.9480011E-01
         -1   -1    0    0    0  501 -0.00000000000E+00  0.00000000000E+00  0.28287238144E+03  0.28287238149E+03  0.50400000000E-02 0.  1.
          1   -1    0    0  501    0  0.00000000000E+00 -0.00000000000E+00 -0.28925845749E+04  0.28925845749E+04  0.50400000000E-02 0. -1.
    8880022    1    1    2    0    0  0.25626075307E+03  0.80414656948E+03 -0.80064100328E+03  0.11733451956E+04  0.15294330000E+03 0.  0.
    8880022    1    1    2    0    0 -0.25626075307E+03 -0.80414656948E+03 -0.18090711902E+04  0.20021117609E+04  0.15294330000E+03 0.  0.
<mgrwt>
<rscale>  0 0.85773710E+03</rscale>
<asrwt>0</asrwt>
<pdfrwt beam="1">  1        1 0.44501299E+00 0.85773710E+03</pdfrwt>
<pdfrwt beam="2">  1       -1 0.43518830E-01 0.85773710E+03</pdfrwt>
<totfact> 0.39052208E+00</totfact>
</mgrwt>
</event>
<event>
 4    1  0.1678003E-008  0.2136042E+03  0.7818608E-02  0.1138743E+00
          1   -1    0    0  501    0  0.00000000000E+00  0.00000000000E+00  0.19678178155E+04  0.19678178155E+04  0.50400000000E-02 0. -1.
         -1   -1    0    0    0  501 -0.00000000000E+00 -0.00000000000E+00 -0.33785431790E+03  0.33785431793E+03  0.50400000000E-02 0.  1.
    8880022    1    1    2    0    0  0.11402991536E+03 -0.96084721271E+02  0.19275559964E+04  0.19393552711E+04  0.15294330000E+03 0. -1.
    8880022    1    1    2    0    0 -0.11402991536E+03  0.96084721271E+02 -0.29759249881E+03  0.36631686232E+03  0.15294330000E+03 0.  0.
<mgrwt>
<rscale>  0 0.21360419E+03</rscale>
<asrwt>0</asrwt>
<pdfrwt beam="1">  1        1 0.30274120E+00 0.21360419E+03</pdfrwt>
<pdfrwt beam="2">  1       -1 0.51977587E-01 0.21360419E+03</pdfrwt>
<totfact> 0.14145696E+01</totfact>
</mgrwt>
</event>
<event>
 4    1  0.1678003E-008  0.9918762E+03  0.7818608E-02  0.9317500E-01
          1   -1    0    0  501    0  0.00000000000E+00  0.00000000000E+00  0.10910922325E+04  0.10910922326E+04  0.50400000000E-02 0. -1.
         -1   -1    0    0    0  501 -0.00000000000E+00 -0.00000000000E+00 -0.12476057095E+04  0.12476057095E+04  0.50400000000E-02 0.  1.
    8880022    1    1    2    0    0 -0.94063462345E+03  0.27501505402E+03  0.53748062807E+03  0.11281417701E+04  0.15294330000E+03 0.  0.
    8880022    1    1    2    0    0  0.94063462345E+03 -0.27501505402E+03 -0.69399410502E+03  0.12105561720E+04  0.15294330000E+03 0.  0.
<mgrwt>
<rscale>  0 0.99187622E+03</rscale>
<asrwt>0</asrwt>
<pdfrwt beam="1">  1        1 0.16786034E+00 0.99187622E+03</pdfrwt>
<pdfrwt beam="2">  1       -1 0.19193934E+00 0.99187622E+03</pdfrwt>
<totfact> 0.22167225E+00</totfact>
</mgrwt>
</event>
<event>
 4    1  0.1678003E-008  0.1071477E+04  0.7818608E-02  0.9233447E-01
          1   -1    0    0  501    0  0.00000000000E+00  0.00000000000E+00  0.60902272924E+03  0.60902272926E+03  0.50400000000E-02 0. -1.
         -1   -1    0    0    0  501 -0.00000000000E+00 -0.00000000000E+00 -0.19446238389E+04  0.19446238389E+04  0.50400000000E-02 0.  1.
    8880022    1    1    2    0    0 -0.93345510824E+03  0.50332237905E+03 -0.44439712912E+03  0.11599794471E+04  0.15294330000E+03 0.  0.
    8880022    1    1    2    0    0  0.93345510824E+03 -0.50332237905E+03 -0.89120398055E+03  0.13936671211E+04  0.15294330000E+03 0.  0.
<mgrwt>
<rscale>  0 0.10714773E+04</rscale>
<asrwt>0</asrwt>
<pdfrwt beam="1">  1        1 0.93695805E-01 0.10714773E+04</pdfrwt>
<pdfrwt beam="2">  1       -1 0.29917290E+00 0.10714773E+04</pdfrwt>
<totfact> 0.11255435E+00</totfact>
</mgrwt>
</event>
<event>
 4    1  0.1678003E-008  0.3418381E+03  0.7818608E-02  0.1066016E+00
         -1   -1    0    0    0  501 -0.00000000000E+00  0.00000000000E+00  0.31243602600E+03  0.31243602604E+03  0.50400000000E-02 0.  1.
          1   -1    0    0  501    0  0.00000000000E+00 -0.00000000000E+00 -0.15857523570E+04  0.15857523570E+04  0.50400000000E-02 0. -1.
    8880022    1    1    2    0    0 -0.29122934751E+03  0.92989665037E+02  0.19299641112E+03  0.39255684732E+03  0.15294330000E+03 0.  0.
    8880022    1    1    2    0    0  0.29122934751E+03 -0.92989665037E+02 -0.14663127421E+04  0.15056315357E+04  0.15294330000E+03 0.  0.
<mgrwt>
<rscale>  0 0.34183807E+03</rscale>
<asrwt>0</asrwt>
<pdfrwt beam="1">  1        1 0.24396190E+00 0.34183807E+03</pdfrwt>
<pdfrwt beam="2">  1       -1 0.48067082E-01 0.34183807E+03</pdfrwt>
<totfact> 0.27554627E+01</totfact>
</mgrwt>
</event>
<event>
 4    1  0.1678003E-008  0.4136844E+03  0.7818608E-02  0.1039142E+00
         -1   -1    0    0    0  501 -0.00000000000E+00  0.00000000000E+00  0.59724251785E+03  0.59724251787E+03  0.50400000000E-02 0.  1.
          1   -1    0    0  501    0  0.00000000000E+00 -0.00000000000E+00 -0.85901401736E+03  0.85901401738E+03  0.50400000000E-02 0. -1.
    8880022    1    1    2    0    0 -0.25552551293E+03 -0.28714076243E+03 -0.72529436184E+03  0.83497704731E+03  0.15294330000E+03 0.  0.
    8880022    1    1    2    0    0  0.25552551293E+03  0.28714076243E+03  0.46352286233E+03  0.62127948794E+03  0.15294330000E+03 0.  0.
<mgrwt>
<rscale>  0 0.41368437E+03</rscale>
<asrwt>0</asrwt>
<pdfrwt beam="1">  1        1 0.13215600E+00 0.41368437E+03</pdfrwt>
<pdfrwt beam="2">  1       -1 0.91883464E-01 0.41368437E+03</pdfrwt>
<totfact> 0.24544722E+01</totfact>
</mgrwt>
</event>
<event>
 4    1  0.1678003E-008  0.6912205E+03  0.7818608E-02  0.9732365E-01
          1   -1    0    0  501    0  0.00000000000E+00  0.00000000000E+00  0.25473695517E+04  0.25473695517E+04  0.50400000000E-02 0. -1.
         -1   -1    0    0    0  501 -0.00000000000E+00 -0.00000000000E+00 -0.24783279284E+03  0.24783279289E+03  0.50400000000E-02 0.  1.
    8880022    1    1    2    0    0  0.61510654174E+03  0.27575004890E+03  0.46054043389E+03  0.83059213301E+03  0.15294330000E+03 0.  0.
    8880022    1    1    2    0    0 -0.61510654174E+03 -0.27575004890E+03  0.18389963250E+04  0.19646102116E+04  0.15294330000E+03 0.  0.
<mgrwt>
<rscale>  0 0.69122051E+03</rscale>
<asrwt>0</asrwt>
<pdfrwt beam="1">  1        1 0.39190301E+00 0.69122051E+03</pdfrwt>
<pdfrwt beam="2">  1       -1 0.38128122E-01 0.69122051E+03</pdfrwt>
<totfact> 0.89002553E+00</totfact>
</mgrwt>
</event>
<event>
 4    1  0.1678003E-008  0.4847240E+03  0.7818608E-02  0.1017845E+00
         -1   -1    0    0    0  501 -0.00000000000E+00  0.00000000000E+00  0.50715307936E+03  0.50715307938E+03  0.50400000000E-02 0.  1.
          1   -1    0    0  501    0  0.00000000000E+00 -0.00000000000E+00 -0.13861748296E+04  0.13861748296E+04  0.50400000000E-02 0. -1.
    8880022    1    1    2    0    0  0.24590225633E+03  0.38871303091E+03 -0.12119447524E+04  0.13052844425E+04  0.15294330000E+03 0. -1.
    8880022    1    1    2    0    0 -0.24590225633E+03 -0.38871303091E+03  0.33292300215E+03  0.58804346645E+03  0.15294330000E+03 0.  0.
<mgrwt>
<rscale>  0 0.48472404E+03</rscale>
<asrwt>0</asrwt>
<pdfrwt beam="1">  1        1 0.21325766E+00 0.48472404E+03</pdfrwt>
<pdfrwt beam="2">  1       -1 0.78023551E-01 0.48472404E+03</pdfrwt>
<totfact> 0.14016403E+01</totfact>
</mgrwt>
</event>
<event>
 4    1  0.1678003E-008  0.4051519E+03  0.7818608E-02  0.1042010E+00
         -1   -1    0    0    0  501 -0.00000000000E+00  0.00000000000E+00  0.49598436027E+03  0.49598436029E+03  0.50400000000E-02 0.  1.
          1   -1    0    0  501    0  0.00000000000E+00 -0.00000000000E+00 -0.67716441654E+03  0.67716441656E+03  0.50400000000E-02 0. -1.
    8880022    1    1    2    0    0 -0.32280066325E+03  0.19119649928E+03  0.32882701954E+03  0.52179999169E+03  0.15294330000E+03 0.  0.
    8880022    1    1    2    0    0  0.32280066325E+03 -0.19119649928E+03 -0.51000707582E+03  0.65134878516E+03  0.15294330000E+03 0.  0.
<mgrwt>
<rscale>  0 0.40515185E+03</rscale>
<asrwt>0</asrwt>
<pdfrwt beam="1">  1        1 0.10417914E+00 0.40515185E+03</pdfrwt>
<pdfrwt beam="2">  1       -1 0.76305287E-01 0.40515185E+03</pdfrwt>
<totfact> 0.52614939E+01</totfact>
</mgrwt>
</event>
<event>
 4    1  0.1678003E-008  0.8182861E+03  0.7818608E-02  0.9533919E-01
         -1   -1    0    0    0  501 -0.00000000000E+00  0.00000000000E+00  0.16115205439E+04  0.16115205439E+04  0.50400000000E-02 0.  1.
          1   -1    0    0  501    0  0.00000000000E+00 -0.00000000000E+00 -0.17196826057E+04  0.17196826057E+04  0.50400000000E-02 0. -1.
    8880022    1    1    2    0    0  0.58835615794E+03 -0.54775687177E+03 -0.15045739555E+04  0.17126981637E+04  0.15294330000E+03 0.  0.
    8880022    1    1    2    0    0 -0.58835615794E+03  0.54775687177E+03  0.13964118938E+04  0.16185049859E+04  0.15294330000E+03 0.  1.
<mgrwt>
<rscale>  0 0.81828614E+03</rscale>
<asrwt>0</asrwt>
<pdfrwt beam="1">  1        1 0.26456655E+00 0.81828614E+03</pdfrwt>
<pdfrwt beam="2">  1       -1 0.24792624E+00 0.81828614E+03</pdfrwt>
<totfact> 0.34893916E-01</totfact>
</mgrwt>
</event>
<event>
 4    1  0.1678003E-008  0.7739277E+03  0.7818608E-02  0.9598542E-01
          1   -1    0    0  501    0  0.00000000000E+00  0.00000000000E+00  0.97096016353E+03  0.97096016355E+03  0.50400000000E-02 0. -1.
         -1   -1    0    0    0  501 -0.00000000000E+00 -0.00000000000E+00 -0.68262075242E+03  0.68262075244E+03  0.50400000000E-02 0.  1.
    8880022    1    1    2    0    0 -0.11507685719E+03 -0.74988653187E+03 -0.11241397526E+03  0.78204926226E+03  0.15294330000E+03 0.  0.
    8880022    1    1    2    0    0  0.11507685719E+03  0.74988653187E+03  0.40075338637E+03  0.87153165373E+03  0.15294330000E+03 0.  0.
<mgrwt>
<rscale>  0 0.77392774E+03</rscale>
<asrwt>0</asrwt>
<pdfrwt beam="1">  1        1 0.14937849E+00 0.77392774E+03</pdfrwt>
<pdfrwt beam="2">  1       -1 0.10501858E+00 0.77392774E+03</pdfrwt>
<totfact> 0.13947048E+01</totfact>
</mgrwt>
</event>
<event>
 4    1  0.1678003E-008  0.1058520E+04  0.7818608E-02  0.9246591E-01
         -1   -1    0    0    0  501 -0.00000000000E+00  0.00000000000E+00  0.12955378722E+04  0.12955378722E+04  0.50400000000E-02 0.  1.
          1   -1    0    0  501    0  0.00000000000E+00 -0.00000000000E+00 -0.13859226761E+04  0.13859226761E+04  0.50400000000E-02 0. -1.
    8880022    1    1    2    0    0 -0.10461506072E+04 -0.51402456504E+02  0.77688922969E+03  0.13130201193E+04  0.15294330000E+03 0.  0.
    8880022    1    1    2    0    0  0.10461506072E+04  0.51402456504E+02 -0.86727403359E+03  0.13684404290E+04  0.15294330000E+03 0.  0.
<mgrwt>
<rscale>  0 0.10585202E+04</rscale>
<asrwt>0</asrwt>
<pdfrwt beam="1">  1        1 0.21321887E+00 0.10585202E+04</pdfrwt>
<pdfrwt beam="2">  1       -1 0.19931352E+00 0.10585202E+04</pdfrwt>
<totfact> 0.11934185E+00</totfact>
</mgrwt>
</event>
<event>
 4    1  0.1678003E-008  0.5961496E+03  0.7818608E-02  0.9913427E-01
         -1   -1    0    0    0  501 -0.00000000000E+00  0.00000000000E+00  0.17010836836E+03  0.17010836843E+03  0.50400000000E-02 0.  1.
          1   -1    0    0  501    0  0.00000000000E+00 -0.00000000000E+00 -0.20892236167E+04  0.20892236167E+04  0.50400000000E-02 0. -1.
    8880022    1    1    2    0    0 -0.57526141994E+03  0.32818222434E+02 -0.95922586314E+03  0.11293841891E+04  0.15294330000E+03 0. -1.
    8880022    1    1    2    0    0  0.57526141994E+03 -0.32818222434E+02 -0.95988938518E+03  0.11299477960E+04  0.15294330000E+03 0.  1.
<mgrwt>
<rscale>  0 0.59614964E+03</rscale>
<asrwt>0</asrwt>
<pdfrwt beam="1">  1        1 0.32141900E+00 0.59614964E+03</pdfrwt>
<pdfrwt beam="2">  1       -1 0.26170520E-01 0.59614964E+03</pdfrwt>
<totfact> 0.35579714E+01</totfact>
</mgrwt>
</event>
<event>
 4    1  0.1678003E-008  0.3886174E+03  0.7818608E-02  0.1047794E+00
         -1   -1    0    0    0  501 -0.00000000000E+00  0.00000000000E+00  0.40014724115E+03  0.40014724118E+03  0.50400000000E-02 0.  1.
          1   -1    0    0  501    0  0.00000000000E+00 -0.00000000000E+00 -0.53870538640E+03  0.53870538643E+03  0.50400000000E-02 0. -1.
    8880022    1    1    2    0    0 -0.25461497229E+03 -0.25060530198E+03  0.18757690399E+03  0.43151888652E+03  0.15294330000E+03 0.  0.
    8880022    1    1    2    0    0  0.25461497229E+03  0.25060530198E+03 -0.32613504924E+03  0.50733374109E+03  0.15294330000E+03 0.  0.
<mgrwt>
<rscale>  0 0.38861736E+03</rscale>
<asrwt>0</asrwt>
<pdfrwt beam="1">  1        1 0.82877752E-01 0.38861736E+03</pdfrwt>
<pdfrwt beam="2">  1       -1 0.61561114E-01 0.38861736E+03</pdfrwt>
<totfact> 0.11230283E+02</totfact>
</mgrwt>
</event>
<event>
 4    1  0.1678003E-008  0.4331863E+03  0.7818608E-02  0.1032858E+00
         -1   -1    0    0    0  501 -0.00000000000E+00  0.00000000000E+00  0.11609042132E+03  0.11609042143E+03  0.50400000000E-02 0.  1.
          1   -1    0    0  501    0  0.00000000000E+00 -0.00000000000E+00 -0.16941611750E+04  0.16941611750E+04  0.50400000000E-02 0. -1.
    8880022    1    1    2    0    0  0.21847852969E+03  0.34135887455E+03 -0.98293126597E+03  0.10741528177E+04  0.15294330000E+03 0.  0.
    8880022    1    1    2    0    0 -0.21847852969E+03 -0.34135887455E+03 -0.59513948767E+03  0.73609877868E+03  0.15294330000E+03 0.  0.
<mgrwt>
<rscale>  0 0.43318634E+03</rscale>
<asrwt>0</asrwt>
<pdfrwt beam="1">  1        1 0.26064016E+00 0.43318634E+03</pdfrwt>
<pdfrwt beam="2">  1       -1 0.17860066E-01 0.43318634E+03</pdfrwt>
<totfact> 0.12620120E+02</totfact>
</mgrwt>
</event>
<event>
 4    1  0.1678003E-008  0.8024260E+03  0.7818608E-02  0.9556512E-01
          1   -1    0    0  501    0  0.00000000000E+00  0.00000000000E+00  0.14142765435E+04  0.14142765436E+04  0.50400000000E-02 0. -1.
         -1   -1    0    0    0  501 -0.00000000000E+00 -0.00000000000E+00 -0.66585047885E+03  0.66585047887E+03  0.50400000000E-02 0.  1.
    8880022    1    1    2    0    0 -0.73712733663E+03  0.27773918331E+03 -0.21067597352E+03  0.82962146982E+03  0.15294330000E+03 0.  0.
    8880022    1    1    2    0    0  0.73712733663E+03 -0.27773918331E+03  0.95910203822E+03  0.12505055526E+04  0.15294330000E+03 0.  0.
<mgrwt>
<rscale>  0 0.80242596E+03</rscale>
<asrwt>0</asrwt>
<pdfrwt beam="1">  1        1 0.21758101E+00 0.80242596E+03</pdfrwt>
<pdfrwt beam="2">  1       -1 0.10243854E+00 0.80242596E+03</pdfrwt>
<totfact> 0.69781552E+00</totfact>
</mgrwt>
</event>
<event>
 4    1  0.1678003E-008  0.6298585E+03  0.7818608E-02  0.9845325E-01
          1   -1    0    0  501    0  0.00000000000E+00  0.00000000000E+00  0.15274830775E+04  0.15274830775E+04  0.50400000000E-02 0. -1.
         -1   -1    0    0    0  501 -0.00000000000E+00 -0.00000000000E+00 -0.12336329022E+04  0.12336329022E+04  0.50400000000E-02 0.  1.
    8880022    1    1    2    0    0  0.59484931458E+03  0.13958663547E+03 -0.10797263566E+04  0.12500123175E+04  0.15294330000E+03 0.  0.
    8880022    1    1    2    0    0 -0.59484931458E+03 -0.13958663547E+03  0.13735765319E+04  0.15111036622E+04  0.15294330000E+03 0.  0.
<mgrwt>
<rscale>  0 0.62985855E+03</rscale>
<asrwt>0</asrwt>
<pdfrwt beam="1">  1        1 0.23499739E+00 0.62985855E+03</pdfrwt>
<pdfrwt beam="2">  1       -1 0.18978968E+00 0.62985855E+03</pdfrwt>
<totfact> 0.11994549E+00</totfact>
</mgrwt>
</event>
<event>
 4    1  0.1678003E-008  0.4423218E+03  0.7818608E-02  0.1030037E+00
          1   -1    0    0  501    0  0.00000000000E+00  0.00000000000E+00  0.30741467278E+03  0.30741467282E+03  0.50400000000E-02 0. -1.
         -1   -1    0    0    0  501 -0.00000000000E+00 -0.00000000000E+00 -0.18949144840E+04  0.18949144840E+04  0.50400000000E-02 0.  1.
    8880022    1    1    2    0    0  0.81780599253E-02  0.41503843533E+03 -0.16911394415E+04  0.17480277934E+04  0.15294330000E+03 0.  1.
    8880022    1    1    2    0    0 -0.81780599253E-02 -0.41503843533E+03  0.10363963026E+03  0.45430136346E+03  0.15294330000E+03 0.  0.
<mgrwt>
<rscale>  0 0.44232178E+03</rscale>
<asrwt>0</asrwt>
<pdfrwt beam="1">  1        1 0.47294566E-01 0.44232178E+03</pdfrwt>
<pdfrwt beam="2">  1       -1 0.29152530E+00 0.44232178E+03</pdfrwt>
<totfact> 0.35396510E+00</totfact>
</mgrwt>
</event>
<event>
 4    1  0.1678003E-008  0.1011927E+04  0.7818608E-02  0.9295559E-01
          1   -1    0    0  501    0  0.00000000000E+00  0.00000000000E+00  0.92494544945E+03  0.92494544947E+03  0.50400000000E-02 0. -1.
         -1   -1    0    0    0  501 -0.00000000000E+00 -0.00000000000E+00 -0.14231262559E+04  0.14231262559E+04  0.50400000000E-02 0.  1.
    8880022    1    1    2    0    0  0.94002847176E+03 -0.34198091750E+03 -0.80235054335E+03  0.12914188024E+04  0.15294330000E+03 0.  0.
    8880022    1    1    2    0    0 -0.94002847176E+03  0.34198091750E+03  0.30416973688E+03  0.10566529030E+04  0.15294330000E+03 0.  0.
<mgrwt>
<rscale>  0 0.10119269E+04</rscale>
<asrwt>0</asrwt>
<pdfrwt beam="1">  1        1 0.14229930E+00 0.10119269E+04</pdfrwt>
<pdfrwt beam="2">  1       -1 0.21894250E+00 0.10119269E+04</pdfrwt>
<totfact> 0.19496843E+00</totfact>
</mgrwt>
</event>
<event>
 4    1  0.1678003E-008  0.1054665E+04  0.7818608E-02  0.9250541E-01
         -1   -1    0    0    0  501 -0.00000000000E+00  0.00000000000E+00  0.15783270968E+04  0.15783270968E+04  0.50400000000E-02 0.  1.
          1   -1    0    0  501    0  0.00000000000E+00 -0.00000000000E+00 -0.12143458865E+04  0.12143458865E+04  0.50400000000E-02 0. -1.
    8880022    1    1    2    0    0  0.65262526159E+03 -0.81425173332E+03  0.10865439927E+04  0.15142308669E+04  0.15294330000E+03 0.  0.
    8880022    1    1    2    0    0 -0.65262526159E+03  0.81425173332E+03 -0.72256278246E+03  0.12784421164E+04  0.15294330000E+03 0.  0.
<mgrwt>
<rscale>  0 0.10546645E+04</rscale>
<asrwt>0</asrwt>
<pdfrwt beam="1">  1        1 0.18682244E+00 0.10546645E+04</pdfrwt>
<pdfrwt beam="2">  1       -1 0.24281955E+00 0.10546645E+04</pdfrwt>
<totfact> 0.81056247E-01</totfact>
</mgrwt>
</event>
<event>
 4    1  0.1678003E-008  0.2070073E+03  0.7818608E-02  0.1143958E+00
         -1   -1    0    0    0  501 -0.00000000000E+00  0.00000000000E+00  0.56858803158E+03  0.56858803160E+03  0.50400000000E-02 0.  1.
          1   -1    0    0  501    0  0.00000000000E+00 -0.00000000000E+00 -0.47503595882E+03  0.47503595885E+03  0.50400000000E-02 0. -1.
    8880022    1    1    2    0    0  0.13828665328E+03  0.18361757934E+02  0.52540806769E+03  0.56471731268E+03  0.15294330000E+03 0.  0.
    8880022    1    1    2    0    0 -0.13828665328E+03 -0.18361757934E+02 -0.43185599494E+03  0.47890667777E+03  0.15294330000E+03 0. -1.
<mgrwt>
<rscale>  0 0.20700726E+03</rscale>
<asrwt>0</asrwt>
<pdfrwt beam="1">  1        1 0.73082455E-01 0.20700726E+03</pdfrwt>
<pdfrwt beam="2">  1       -1 0.87475082E-01 0.20700726E+03</pdfrwt>
<totfact> 0.67209037E+01</totfact>
</mgrwt>
</event>
<event>
 4    1  0.1678003E-008  0.1515364E+04  0.7818608E-02  0.8874300E-01
          1   -1    0    0  501    0  0.00000000000E+00  0.00000000000E+00  0.22921511039E+04  0.22921511039E+04  0.50400000000E-02 0. -1.
         -1   -1    0    0    0  501 -0.00000000000E+00 -0.00000000000E+00 -0.14648431299E+04  0.14648431299E+04  0.50400000000E-02 0.  1.
    8880022    1    1    2    0    0  0.54621586891E+03  0.14051989986E+04  0.14697789976E+04  0.21110608603E+04  0.15294330000E+03 0.  0.
    8880022    1    1    2    0    0 -0.54621586891E+03 -0.14051989986E+04 -0.64247102360E+03  0.16459333736E+04  0.15294330000E+03 0.  0.
<mgrwt>
<rscale>  0 0.15153639E+04</rscale>
<asrwt>0</asrwt>
<pdfrwt beam="1">  1        1 0.35263863E+00 0.15153639E+04</pdfrwt>
<pdfrwt beam="2">  1       -1 0.22536048E+00 0.15153639E+04</pdfrwt>
<totfact> 0.17990779E-01</totfact>
</mgrwt>
</event>
<event>
 4    1  0.1678003E-008  0.4730050E+03  0.7818608E-02  0.1021075E+00
         -1   -1    0    0    0  501 -0.00000000000E+00  0.00000000000E+00  0.28951940758E+03  0.28951940763E+03  0.50400000000E-02 0.  1.
          1   -1    0    0  501    0  0.00000000000E+00 -0.00000000000E+00 -0.11592411693E+04  0.11592411694E+04  0.50400000000E-02 0. -1.
    8880022    1    1    2    0    0  0.28992134313E+03 -0.34100981071E+03 -0.85310972646E+03  0.97546395864E+03  0.15294330000E+03 0.  0.
    8880022    1    1    2    0    0 -0.28992134313E+03  0.34100981071E+03 -0.16612035299E+02  0.47329661834E+03  0.15294330000E+03 0.  0.
<mgrwt>
<rscale>  0 0.47300500E+03</rscale>
<asrwt>0</asrwt>
<pdfrwt beam="1">  1        1 0.17834479E+00 0.47300500E+03</pdfrwt>
<pdfrwt beam="2">  1       -1 0.44541448E-01 0.47300500E+03</pdfrwt>
<totfact> 0.60557648E+01</totfact>
</mgrwt>
</event>
<event>
 4    1  0.1678003E-008  0.4529746E+03  0.7818608E-02  0.1026839E+00
          1   -1    0    0  501    0  0.00000000000E+00  0.00000000000E+00  0.11183529260E+04  0.11183529260E+04  0.50400000000E-02 0. -1.
         -1   -1    0    0    0  501 -0.00000000000E+00 -0.00000000000E+00 -0.34019467769E+03  0.34019467773E+03  0.50400000000E-02 0.  1.
    8880022    1    1    2    0    0  0.16794975812E+03 -0.39190210276E+03 -0.10590730426E+03  0.46519070230E+03  0.15294330000E+03 0.  0.
    8880022    1    1    2    0    0 -0.16794975812E+03  0.39190210276E+03  0.88406555257E+03  0.99335690145E+03  0.15294330000E+03 0.  0.
<mgrwt>
<rscale>  0 0.45297465E+03</rscale>
<asrwt>0</asrwt>
<pdfrwt beam="1">  1        1 0.17205430E+00 0.45297465E+03</pdfrwt>
<pdfrwt beam="2">  1       -1 0.52337643E-01 0.45297465E+03</pdfrwt>
<totfact> 0.48162395E+01</totfact>
</mgrwt>
</event>
<event>
 4    1  0.1678003E-008  0.2342274E+03  0.7818608E-02  0.1123699E+00
          1   -1    0    0  501    0  0.00000000000E+00  0.00000000000E+00  0.19358659537E+04  0.19358659537E+04  0.50400000000E-02 0. -1.
         -1   -1    0    0    0  501 -0.00000000000E+00 -0.00000000000E+00 -0.30885182024E+03  0.30885182028E+03  0.50400000000E-02 0.  1.
    8880022    1    1    2    0    0  0.13010297720E+03 -0.12059857289E+03 -0.25611965813E+03  0.34707309426E+03  0.15294330000E+03 0.  1.
    8880022    1    1    2    0    0 -0.13010297720E+03  0.12059857289E+03  0.18831337916E+04  0.18976446797E+04  0.15294330000E+03 0.  0.
<mgrwt>
<rscale>  0 0.23422735E+03</rscale>
<asrwt>0</asrwt>
<pdfrwt beam="1">  1        1 0.29782553E+00 0.23422735E+03</pdfrwt>
<pdfrwt beam="2">  1       -1 0.47515665E-01 0.23422735E+03</pdfrwt>
<totfact> 0.17312841E+01</totfact>
</mgrwt>
</event>
<event>
 4    1  0.1678003E-008  0.1008054E+04  0.7818608E-02  0.9299756E-01
          1   -1    0    0  501    0  0.00000000000E+00  0.00000000000E+00  0.69345564894E+03  0.69345564896E+03  0.50400000000E-02 0. -1.
         -1   -1    0    0    0  501 -0.00000000000E+00 -0.00000000000E+00 -0.24943708322E+04  0.24943708322E+04  0.50400000000E-02 0.  1.
    8880022    1    1    2    0    0  0.98664034972E+03 -0.13900057369E+03 -0.19242010808E+04  0.21722619067E+04  0.15294330000E+03 0.  0.
    8880022    1    1    2    0    0 -0.98664034972E+03  0.13900057369E+03  0.12328589756E+03  0.10155645744E+04  0.15294330000E+03 0.  0.
<mgrwt>
<rscale>  0 0.10080536E+04</rscale>
<asrwt>0</asrwt>
<pdfrwt beam="1">  1        1 0.10668549E+00 0.10080536E+04</pdfrwt>
<pdfrwt beam="2">  1       -1 0.38374936E+00 0.10080536E+04</pdfrwt>
<totfact> 0.26087716E-01</totfact>
</mgrwt>
</event>
<event>
 4    1  0.1678003E-008  0.3437349E+03  0.7818608E-02  0.1065216E+00
          1   -1    0    0  501    0  0.00000000000E+00  0.00000000000E+00  0.62070647922E+03  0.62070647924E+03  0.50400000000E-02 0. -1.
         -1   -1    0    0    0  501 -0.00000000000E+00 -0.00000000000E+00 -0.80963459090E+03  0.80963459092E+03  0.50400000000E-02 0.  1.
    8880022    1    1    2    0    0  0.29180844496E+03  0.98029814433E+02 -0.71993766063E+03  0.79778687710E+03  0.15294330000E+03 0.  0.
    8880022    1    1    2    0    0 -0.29180844496E+03 -0.98029814433E+02  0.53100954895E+03  0.63255419306E+03  0.15294330000E+03 0.  0.
<mgrwt>
<rscale>  0 0.34373488E+03</rscale>
<asrwt>0</asrwt>
<pdfrwt beam="1">  1        1 0.95493305E-01 0.34373488E+03</pdfrwt>
<pdfrwt beam="2">  1       -1 0.12455917E+00 0.34373488E+03</pdfrwt>
<totfact> 0.20190764E+01</totfact>
</mgrwt>
</event>
<event>
 4    1  0.1678003E-008  0.2315815E+03  0.7818608E-02  0.1125532E+00
          1   -1    0    0  501    0  0.00000000000E+00  0.00000000000E+00  0.23247075439E+04  0.23247075439E+04  0.50400000000E-02 0. -1.
         -1   -1    0    0    0  501 -0.00000000000E+00 -0.00000000000E+00 -0.56859576956E+02  0.56859577180E+02  0.50400000000E-02 0.  1.
    8880022    1    1    2    0    0 -0.68895453489E+02 -0.15966137320E+03  0.20518870213E+04  0.20649141239E+04  0.15294330000E+03 0.  0.
    8880022    1    1    2    0    0  0.68895453489E+02  0.15966137320E+03  0.21596094560E+03  0.31665299721E+03  0.15294330000E+03 0.  1.
<mgrwt>
<rscale>  0 0.23158150E+03</rscale>
<asrwt>0</asrwt>
<pdfrwt beam="1">  1        1 0.35764732E+00 0.23158150E+03</pdfrwt>
<pdfrwt beam="2">  1       -1 0.87476271E-02 0.23158150E+03</pdfrwt>
<totfact> 0.15729653E+02</totfact>
</mgrwt>
</event>
<event>
 4    1  0.1678003E-008  0.4437961E+03  0.7818608E-02  0.1029588E+00
         -1   -1    0    0    0  501 -0.00000000000E+00  0.00000000000E+00  0.15039289449E+03  0.15039289458E+03  0.50400000000E-02 0.  1.
          1   -1    0    0  501    0  0.00000000000E+00 -0.00000000000E+00 -0.16491023908E+04  0.16491023908E+04  0.50400000000E-02 0. -1.
    8880022    1    1    2    0    0 -0.70249540383E+02 -0.41064381498E+03 -0.11575955168E+04  0.12397509324E+04  0.15294330000E+03 0.  0.
    8880022    1    1    2    0    0  0.70249540383E+02  0.41064381498E+03 -0.34111397945E+03  0.55974435299E+03  0.15294330000E+03 0.  0.
<mgrwt>
<rscale>  0 0.44379612E+03</rscale>
<asrwt>0</asrwt>
<pdfrwt beam="1">  1        1 0.25370805E+00 0.44379612E+03</pdfrwt>
<pdfrwt beam="2">  1       -1 0.23137370E-01 0.44379612E+03</pdfrwt>
<totfact> 0.88001063E+01</totfact>
</mgrwt>
</event>
<event>
 4    1  0.1678003E-008  0.7167657E+03  0.7818608E-02  0.9688983E-01
          1   -1    0    0  501    0  0.00000000000E+00  0.00000000000E+00  0.22012498991E+04  0.22012498991E+04  0.50400000000E-02 0. -1.
         -1   -1    0    0    0  501 -0.00000000000E+00 -0.00000000000E+00 -0.47983789268E+03  0.47983789270E+03  0.50400000000E-02 0.  1.
    8880022    1    1    2    0    0 -0.66977934707E+03  0.20434542989E+03  0.18214218966E+04  0.19573785548E+04  0.15294330000E+03 0.  0.
    8880022    1    1    2    0    0  0.66977934707E+03 -0.20434542989E+03 -0.10000989021E+03  0.72370923694E+03  0.15294330000E+03 0.  0.
<mgrwt>
<rscale>  0 0.71676571E+03</rscale>
<asrwt>0</asrwt>
<pdfrwt beam="1">  1        1 0.33865384E+00 0.71676571E+03</pdfrwt>
<pdfrwt beam="2">  1       -1 0.73821213E-01 0.71676571E+03</pdfrwt>
<totfact> 0.42625649E+00</totfact>
</mgrwt>
</event>
<event>
 4    1  0.1678003E-008  0.2345982E+03  0.7818608E-02  0.1123445E+00
          1   -1    0    0  501    0  0.00000000000E+00  0.00000000000E+00  0.40281252435E+03  0.40281252439E+03  0.50400000000E-02 0. -1.
         -1   -1    0    0    0  501 -0.00000000000E+00 -0.00000000000E+00 -0.44153346351E+03  0.44153346354E+03  0.50400000000E-02 0.  1.
    8880022    1    1    2    0    0 -0.17353281938E+03 -0.39128283030E+02 -0.37018483231E+03  0.43826148020E+03  0.15294330000E+03 0.  1.
    8880022    1    1    2    0    0  0.17353281938E+03  0.39128283030E+02  0.33146389316E+03  0.40608450773E+03  0.15294330000E+03 0.  0.
<mgrwt>
<rscale>  0 0.23459820E+03</rscale>
<asrwt>0</asrwt>
<pdfrwt beam="1">  1        1 0.61971158E-01 0.23459820E+03</pdfrwt>
<pdfrwt beam="2">  1       -1 0.67928225E-01 0.23459820E+03</pdfrwt>
<totfact> 0.13894564E+02</totfact>
</mgrwt>
</event>
<event>
 4    1  0.1678003E-008  0.2950307E+03  0.7818608E-02  0.1087751E+00
          1   -1    0    0  501    0  0.00000000000E+00  0.00000000000E+00  0.15011509416E+04  0.15011509416E+04  0.50400000000E-02 0. -1.
         -1   -1    0    0    0  501 -0.00000000000E+00 -0.00000000000E+00 -0.84991204753E+02  0.84991204902E+02  0.50400000000E-02 0.  1.
    8880022    1    1    2    0    0  0.23465179554E+03  0.92682231257E+02  0.11551368808E+04  0.11922182382E+04  0.15294330000E+03 0.  0.
    8880022    1    1    2    0    0 -0.23465179554E+03 -0.92682231257E+02  0.26102285608E+03  0.39392390833E+03  0.15294330000E+03 0.  0.
<mgrwt>
<rscale>  0 0.29503070E+03</rscale>
<asrwt>0</asrwt>
<pdfrwt beam="1">  1        1 0.23094629E+00 0.29503070E+03</pdfrwt>
<pdfrwt beam="2">  1       -1 0.13075570E-01 0.29503070E+03</pdfrwt>
<totfact> 0.28588548E+02</totfact>
</mgrwt>
</event>
<event>
 4    1  0.1678003E-008  0.2814187E+03  0.7818608E-02  0.1094917E+00
          1   -1    0    0  501    0  0.00000000000E+00  0.00000000000E+00  0.19404155808E+04  0.19404155808E+04  0.50400000000E-02 0. -1.
         -1   -1    0    0    0  501 -0.00000000000E+00 -0.00000000000E+00 -0.49415679617E+02  0.49415679874E+02  0.50400000000E-02 0.  1.
    8880022    1    1    2    0    0  0.20671641831E+03 -0.11433791865E+03  0.13605884532E+04  0.13893874295E+04  0.15294330000E+03 0.  0.
    8880022    1    1    2    0    0 -0.20671641831E+03  0.11433791865E+03  0.53041144794E+03  0.60044383115E+03  0.15294330000E+03 0.  0.
<mgrwt>
<rscale>  0 0.28141871E+03</rscale>
<asrwt>0</asrwt>
<pdfrwt beam="1">  1        1 0.29852547E+00 0.28141871E+03</pdfrwt>
<pdfrwt beam="2">  1       -1 0.76024124E-02 0.28141871E+03</pdfrwt>
<totfact> 0.34307934E+02</totfact>
</mgrwt>
</event>
<event>
 4    1  0.1678003E-008  0.4665409E+03  0.7818608E-02  0.1022901E+00
          1   -1    0    0  501    0  0.00000000000E+00  0.00000000000E+00  0.70194515659E+03  0.70194515661E+03  0.50400000000E-02 0. -1.
         -1   -1    0    0    0  501 -0.00000000000E+00 -0.00000000000E+00 -0.60595117663E+03  0.60595117666E+03  0.50400000000E-02 0.  1.
    8880022    1    1    2    0    0 -0.27285717184E+03 -0.34614691131E+03 -0.40895919987E+03  0.62040954265E+03  0.15294330000E+03 0.  0.
    8880022    1    1    2    0    0  0.27285717184E+03  0.34614691131E+03  0.50495317983E+03  0.68748679061E+03  0.15294330000E+03 0.  0.
<mgrwt>
<rscale>  0 0.46654086E+03</rscale>
<asrwt>0</asrwt>
<pdfrwt beam="1">  1        1 0.10799156E+00 0.46654086E+03</pdfrwt>
<pdfrwt beam="2">  1       -1 0.93223258E-01 0.46654086E+03</pdfrwt>
<totfact> 0.32207484E+01</totfact>
</mgrwt>
</event>
<event>
 4    1  0.1678003E-008  0.1064739E+04  0.7818608E-02  0.9240258E-01
         -1   -1    0    0    0  501 -0.00000000000E+00  0.00000000000E+00  0.14701118308E+04  0.14701118308E+04  0.50400000000E-02 0.  1.
          1   -1    0    0  501    0  0.00000000000E+00 -0.00000000000E+00 -0.12393764578E+04  0.12393764578E+04  0.50400000000E-02 0. -1.
    8880022    1    1    2    0    0  0.22732453171E+03 -0.10288833481E+04 -0.71732752115E+03  0.12838332494E+04  0.15294330000E+03 0.  0.
    8880022    1    1    2    0    0 -0.22732453171E+03  0.10288833481E+04  0.94806289410E+03  0.14256550392E+04  0.15294330000E+03 0.  0.
<mgrwt>
<rscale>  0 0.10647390E+04</rscale>
<asrwt>0</asrwt>
<pdfrwt beam="1">  1        1 0.19067330E+00 0.10647390E+04</pdfrwt>
<pdfrwt beam="2">  1       -1 0.22617105E+00 0.10647390E+04</pdfrwt>
<totfact> 0.99886741E-01</totfact>
</mgrwt>
</event>
<event>
 4    1  0.1678003E-008  0.7646044E+03  0.7818608E-02  0.9612713E-01
          1   -1    0    0  501    0  0.00000000000E+00  0.00000000000E+00  0.36712709081E+04  0.36712709081E+04  0.50400000000E-02 0. -1.
         -1   -1    0    0    0  501 -0.00000000000E+00 -0.00000000000E+00 -0.30156557921E+03  0.30156557925E+03  0.50400000000E-02 0.  1.
    8880022    1    1    2    0    0 -0.27719272133E+03 -0.69598304986E+03  0.30494939703E+04  0.31438882515E+04  0.15294330000E+03 0.  0.
    8880022    1    1    2    0    0  0.27719272133E+03  0.69598304986E+03  0.32021135860E+03  0.82894823580E+03  0.15294330000E+03 0.  0.
<mgrwt>
<rscale>  0 0.76460438E+03</rscale>
<asrwt>0</asrwt>
<pdfrwt beam="1">  1        1 0.56481089E+00 0.76460438E+03</pdfrwt>
<pdfrwt beam="2">  1       -1 0.46394706E-01 0.76460438E+03</pdfrwt>
<totfact> 0.92065755E-01</totfact>
</mgrwt>
</event>
<event>
 4    1  0.1678003E-008  0.5763006E+03  0.7818608E-02  0.9955832E-01
         -1   -1    0    0    0  501 -0.00000000000E+00  0.00000000000E+00  0.80411636329E+03  0.80411636331E+03  0.50400000000E-02 0.  1.
          1   -1    0    0  501    0  0.00000000000E+00 -0.00000000000E+00 -0.11221327021E+04  0.11221327021E+04  0.50400000000E-02 0. -1.
    8880022    1    1    2    0    0  0.15929970256E+01 -0.55563317620E+03  0.60661589946E+03  0.83672293301E+03  0.15294330000E+03 0.  0.
    8880022    1    1    2    0    0 -0.15929970256E+01  0.55563317620E+03 -0.92463223827E+03  0.10895261324E+04  0.15294330000E+03 0. -1.
<mgrwt>
<rscale>  0 0.57630063E+03</rscale>
<asrwt>0</asrwt>
<pdfrwt beam="1">  1        1 0.17263580E+00 0.57630063E+03</pdfrwt>
<pdfrwt beam="2">  1       -1 0.12371021E+00 0.57630063E+03</pdfrwt>
<totfact> 0.74739134E+00</totfact>
</mgrwt>
</event>
<event>
 4    1  0.1678003E-008  0.3690520E+03  0.7818608E-02  0.1055056E+00
         -1   -1    0    0    0  501 -0.00000000000E+00  0.00000000000E+00  0.12574637504E+04  0.12574637504E+04  0.50400000000E-02 0.  1.
          1   -1    0    0  501    0  0.00000000000E+00 -0.00000000000E+00 -0.35212669384E+03  0.35212669388E+03  0.50400000000E-02 0. -1.
    8880022    1    1    2    0    0 -0.32529869435E+03  0.83597162947E+02  0.11223451974E+04  0.11814643970E+04  0.15294330000E+03 0.  0.
    8880022    1    1    2    0    0  0.32529869435E+03 -0.83597162947E+02 -0.21700814082E+03  0.42812604732E+03  0.15294330000E+03 0.  0.
<mgrwt>
<rscale>  0 0.36905200E+03</rscale>
<asrwt>0</asrwt>
<pdfrwt beam="1">  1        1 0.54173338E-01 0.36905200E+03</pdfrwt>
<pdfrwt beam="2">  1       -1 0.19345596E+00 0.36905200E+03</pdfrwt>
<totfact> 0.13010783E+01</totfact>
</mgrwt>
</event>
<event>
 4    1  0.1678003E-008  0.1095356E+04  0.7818608E-02  0.9209730E-01
          1   -1    0    0  501    0  0.00000000000E+00  0.00000000000E+00  0.28816893678E+04  0.28816893678E+04  0.50400000000E-02 0. -1.
         -1   -1    0    0    0  501 -0.00000000000E+00 -0.00000000000E+00 -0.53365692310E+03  0.53365692312E+03  0.50400000000E-02 0.  1.
    8880022    1    1    2    0    0 -0.98651723842E+03  0.45077479177E+03  0.37339663995E+03  0.11572514326E+04  0.15294330000E+03 0.  0.
    8880022    1    1    2    0    0  0.98651723842E+03 -0.45077479177E+03  0.19746358047E+04  0.22580948582E+04  0.15294330000E+03 0.  0.
<mgrwt>
<rscale>  0 0.10953565E+04</rscale>
<asrwt>0</asrwt>
<pdfrwt beam="1">  1        1 0.44333682E+00 0.10953565E+04</pdfrwt>
<pdfrwt beam="2">  1       -1 0.82101065E-01 0.10953565E+04</pdfrwt>
<totfact> 0.10863365E+00</totfact>
</mgrwt>
</event>
<event>
 4    1  0.1678003E-008  0.6144417E+03  0.7818608E-02  0.9875889E-01
          1   -1    0    0  501    0  0.00000000000E+00  0.00000000000E+00  0.25663442412E+04  0.25663442412E+04  0.50400000000E-02 0. -1.
         -1   -1    0    0    0  501 -0.00000000000E+00 -0.00000000000E+00 -0.19486340865E+03  0.19486340872E+03  0.50400000000E-02 0.  1.
    8880022    1    1    2    0    0 -0.13593257137E+03 -0.57936972994E+03  0.50230173094E+03  0.79362814331E+03  0.15294330000E+03 0.  0.
    8880022    1    1    2    0    0  0.13593257137E+03  0.57936972994E+03  0.18691791016E+04  0.19675795066E+04  0.15294330000E+03 0.  0.
<mgrwt>
<rscale>  0 0.61444170E+03</rscale>
<asrwt>0</asrwt>
<pdfrwt beam="1">  1        1 0.39482215E+00 0.61444170E+03</pdfrwt>
<pdfrwt beam="2">  1       -1 0.29978989E-01 0.61444170E+03</pdfrwt>
<totfact> 0.13407137E+01</totfact>
</mgrwt>
</event>
<event>
 4    1  0.1678003E-008  0.4408104E+03  0.7818608E-02  0.1030498E+00
          1   -1    0    0  501    0  0.00000000000E+00  0.00000000000E+00  0.40508453459E+03  0.40508453462E+03  0.50400000000E-02 0. -1.
         -1   -1    0    0    0  501 -0.00000000000E+00 -0.00000000000E+00 -0.61676018242E+03  0.61676018244E+03  0.50400000000E-02 0.  1.
    8880022    1    1    2    0    0 -0.39527365967E+03 -0.12116485139E+03 -0.34670231328E+03  0.56081755882E+03  0.15294330000E+03 0.  0.
    8880022    1    1    2    0    0  0.39527365967E+03  0.12116485139E+03  0.13502666544E+03  0.46102715824E+03  0.15294330000E+03 0.  0.
<mgrwt>
<rscale>  0 0.44081044E+03</rscale>
<asrwt>0</asrwt>
<pdfrwt beam="1">  1        1 0.62320697E-01 0.44081044E+03</pdfrwt>
<pdfrwt beam="2">  1       -1 0.94886182E-01 0.44081044E+03</pdfrwt>
<totfact> 0.66522509E+01</totfact>
</mgrwt>
</event>
<event>
 4    1  0.1678003E-008  0.6464717E+03  0.7818608E-02  0.9813422E-01
         -1   -1    0    0    0  501 -0.00000000000E+00  0.00000000000E+00  0.56611065955E+03  0.56611065957E+03  0.50400000000E-02 0.  1.
          1   -1    0    0  501    0  0.00000000000E+00 -0.00000000000E+00 -0.23372367763E+04  0.23372367763E+04  0.50400000000E-02 0. -1.
    8880022    1    1    2    0    0 -0.54327935706E+03  0.31524835430E+03  0.31515606505E+03  0.71920023850E+03  0.15294330000E+03 0.  0.
    8880022    1    1    2    0    0  0.54327935706E+03 -0.31524835430E+03 -0.20862821818E+04  0.21841471973E+04  0.15294330000E+03 0.  0.
<mgrwt>
<rscale>  0 0.64647168E+03</rscale>
<asrwt>0</asrwt>
<pdfrwt beam="1">  1        1 0.35957488E+00 0.64647168E+03</pdfrwt>
<pdfrwt beam="2">  1       -1 0.87093949E-01 0.64647168E+03</pdfrwt>
<totfact> 0.24687290E+00</totfact>
</mgrwt>
</event>
<event>
 4    1  0.1678003E-008  0.5256561E+03  0.7818608E-02  0.1007291E+00
          1   -1    0    0  501    0  0.00000000000E+00  0.00000000000E+00  0.78701499749E+03  0.78701499751E+03  0.50400000000E-02 0. -1.
         -1   -1    0    0    0  501 -0.00000000000E+00 -0.00000000000E+00 -0.86396446806E+03  0.86396446808E+03  0.50400000000E-02 0.  1.
    8880022    1    1    2    0    0 -0.48982941703E+03 -0.11397311557E+03  0.59754205799E+03  0.79584602339E+03  0.15294330000E+03 0.  0.
    8880022    1    1    2    0    0  0.48982941703E+03  0.11397311557E+03 -0.67449152856E+03  0.85513344220E+03  0.15294330000E+03 0.  0.
<mgrwt>
<rscale>  0 0.52565614E+03</rscale>
<asrwt>0</asrwt>
<pdfrwt beam="1">  1        1 0.12107923E+00 0.52565614E+03</pdfrwt>
<pdfrwt beam="2">  1       -1 0.13291761E+00 0.52565614E+03</pdfrwt>
<totfact> 0.11608081E+01</totfact>
</mgrwt>
</event>
<event>
 4    1  0.1678003E-008  0.2804340E+03  0.7818608E-02  0.1095452E+00
          1   -1    0    0  501    0  0.00000000000E+00  0.00000000000E+00  0.12500549998E+04  0.12500549998E+04  0.50400000000E-02 0. -1.
         -1   -1    0    0    0  501 -0.00000000000E+00 -0.00000000000E+00 -0.14122835616E+03  0.14122835625E+03  0.50400000000E-02 0.  1.
    8880022    1    1    2    0    0  0.22429371458E+03  0.70312776250E+02  0.10724391736E+04  0.11084985299E+04  0.15294330000E+03 0.  0.
    8880022    1    1    2    0    0 -0.22429371458E+03 -0.70312776250E+02  0.36387470123E+02  0.28278482615E+03  0.15294330000E+03 0.  0.
<mgrwt>
<rscale>  0 0.28043397E+03</rscale>
<asrwt>0</asrwt>
<pdfrwt beam="1">  1        1 0.19231616E+00 0.28043397E+03</pdfrwt>
<pdfrwt beam="2">  1       -1 0.21727438E-01 0.28043397E+03</pdfrwt>
<totfact> 0.18712078E+02</totfact>
</mgrwt>
</event>
<event>
 4    1  0.1678003E-008  0.2583621E+03  0.7818608E-02  0.1108131E+00
          1   -1    0    0  501    0  0.00000000000E+00  0.00000000000E+00  0.19983969101E+03  0.19983969108E+03  0.50400000000E-02 0. -1.
         -1   -1    0    0    0  501 -0.00000000000E+00 -0.00000000000E+00 -0.10080184029E+04  0.10080184029E+04  0.50400000000E-02 0.  1.
    8880022    1    1    2    0    0  0.19279846111E+03 -0.78664378230E+02  0.89743824215E+02  0.27350491405E+03  0.15294330000E+03 0. -1.
    8880022    1    1    2    0    0 -0.19279846111E+03  0.78664378230E+02 -0.89792253609E+03  0.93435317993E+03  0.15294330000E+03 0.  0.
<mgrwt>
<rscale>  0 0.25836212E+03</rscale>
<asrwt>0</asrwt>
<pdfrwt beam="1">  1        1 0.30744568E-01 0.25836212E+03</pdfrwt>
<pdfrwt beam="2">  1       -1 0.15507975E+00 0.25836212E+03</pdfrwt>
<totfact> 0.51385221E+01</totfact>
</mgrwt>
</event>
<event>
 4    1  0.1678003E-008  0.1627064E+03  0.7818608E-02  0.1185675E+00
         -1   -1    0    0    0  501 -0.00000000000E+00  0.00000000000E+00  0.53901563134E+03  0.53901563136E+03  0.50400000000E-02 0.  1.
          1   -1    0    0  501    0  0.00000000000E+00 -0.00000000000E+00 -0.96874832336E+02  0.96874832467E+02  0.50400000000E-02 0. -1.
    8880022    1    1    2    0    0  0.48167835017E+02 -0.27596956441E+02  0.44431518851E+03  0.47316949616E+03  0.15294330000E+03 0.  1.
    8880022    1    1    2    0    0 -0.48167835017E+02  0.27596956441E+02 -0.21743895120E+01  0.16272096767E+03  0.15294330000E+03 0.  0.
<mgrwt>
<rscale>  0 0.16270644E+03</rscale>
<asrwt>0</asrwt>
<pdfrwt beam="1">  1        1 0.14903820E-01 0.16270644E+03</pdfrwt>
<pdfrwt beam="2">  1       -1 0.82925484E-01 0.16270644E+03</pdfrwt>
<totfact> 0.56833588E+02</totfact>
</mgrwt>
</event>
<event>
 4    1  0.1678003E-008  0.3425933E+03  0.7818608E-02  0.1065697E+00
         -1   -1    0    0    0  501 -0.00000000000E+00  0.00000000000E+00  0.18535630211E+03  0.18535630218E+03  0.50400000000E-02 0.  1.
          1   -1    0    0  501    0  0.00000000000E+00 -0.00000000000E+00 -0.11954978151E+04  0.11954978151E+04  0.50400000000E-02 0. -1.
    8880022    1    1    2    0    0  0.29486164115E+03  0.83875521338E+02 -0.97857222553E+03  0.10368094059E+04  0.15294330000E+03 0.  0.
    8880022    1    1    2    0    0 -0.29486164115E+03 -0.83875521338E+02 -0.31569287421E+02  0.34404471138E+03  0.15294330000E+03 0.  1.
<mgrwt>
<rscale>  0 0.34259326E+03</rscale>
<asrwt>0</asrwt>
<pdfrwt beam="1">  1        1 0.18392274E+00 0.34259326E+03</pdfrwt>
<pdfrwt beam="2">  1       -1 0.28516355E-01 0.34259326E+03</pdfrwt>
<totfact> 0.12815178E+02</totfact>
</mgrwt>
</event>
<event>
 4    1  0.1678003E-008  0.6197642E+03  0.7818608E-02  0.9865229E-01
          1   -1    0    0  501    0  0.00000000000E+00  0.00000000000E+00  0.14039097309E+04  0.14039097309E+04  0.50400000000E-02 0. -1.
         -1   -1    0    0    0  501 -0.00000000000E+00 -0.00000000000E+00 -0.78774084466E+03  0.78774084468E+03  0.50400000000E-02 0.  1.
    8880022    1    1    2    0    0 -0.59178314584E+03 -0.10251193065E+03 -0.57721728020E+03  0.84692823144E+03  0.15294330000E+03 0.  1.
    8880022    1    1    2    0    0  0.59178314584E+03  0.10251193065E+03  0.11933861665E+04  0.13447223442E+04  0.15294330000E+03 0.  0.
<mgrwt>
<rscale>  0 0.61976418E+03</rscale>
<asrwt>0</asrwt>
<pdfrwt beam="1">  1        1 0.21598611E+00 0.61976418E+03</pdfrwt>
<pdfrwt beam="2">  1       -1 0.12119090E+00 0.61976418E+03</pdfrwt>
<totfact> 0.49170554E+00</totfact>
</mgrwt>
</event>
<event>
 4    1  0.1678003E-008  0.2348704E+03  0.7818608E-02  0.1123258E+00
         -1   -1    0    0    0  501 -0.00000000000E+00  0.00000000000E+00  0.17970662087E+03  0.17970662094E+03  0.50400000000E-02 0.  1.
          1   -1    0    0  501    0  0.00000000000E+00 -0.00000000000E+00 -0.15061307157E+04  0.15061307157E+04  0.50400000000E-02 0. -1.
    8880022    1    1    2    0    0 -0.97158303331E+02  0.14944139901E+03  0.88918902179E+02  0.25113878996E+03  0.15294330000E+03 0.  0.
    8880022    1    1    2    0    0  0.97158303331E+02 -0.14944139901E+03 -0.14153429970E+04  0.14346985467E+04  0.15294330000E+03 0.  0.
<mgrwt>
<rscale>  0 0.23487043E+03</rscale>
<asrwt>0</asrwt>
<pdfrwt beam="1">  1        1 0.23171241E+00 0.23487043E+03</pdfrwt>
<pdfrwt beam="2">  1       -1 0.27647173E-01 0.23487043E+03</pdfrwt>
<totfact> 0.85095143E+01</totfact>
</mgrwt>
</event>
<event>
 4    1  0.1678003E-008  0.5487890E+03  0.7818608E-02  0.1001775E+00
         -1   -1    0    0    0  501 -0.00000000000E+00  0.00000000000E+00  0.17297968958E+03  0.17297968965E+03  0.50400000000E-02 0.  1.
          1   -1    0    0  501    0  0.00000000000E+00 -0.00000000000E+00 -0.43908084045E+04  0.43908084045E+04  0.50400000000E-02 0. -1.
    8880022    1    1    2    0    0 -0.11177210217E+03  0.51505795455E+03 -0.33625650163E+03  0.64361307264E+03  0.15294330000E+03 0.  0.
    8880022    1    1    2    0    0  0.11177210217E+03 -0.51505795455E+03 -0.38815722133E+04  0.39201750215E+04  0.15294330000E+03 0.  0.
<mgrwt>
<rscale>  0 0.54878899E+03</rscale>
<asrwt>0</asrwt>
<pdfrwt beam="1">  1        1 0.67550890E+00 0.54878899E+03</pdfrwt>
<pdfrwt beam="2">  1       -1 0.26612263E-01 0.54878899E+03</pdfrwt>
<totfact> 0.62139315E-01</totfact>
</mgrwt>
</event>
<event>
 4    1  0.1678003E-008  0.3864234E+03  0.7818608E-02  0.1048585E+00
          1   -1    0    0  501    0  0.00000000000E+00  0.00000000000E+00  0.51972114336E+03  0.51972114338E+03  0.50400000000E-02 0. -1.
         -1   -1    0    0    0  501 -0.00000000000E+00 -0.00000000000E+00 -0.53473831920E+03  0.53473831923E+03  0.50400000000E-02 0.  1.
    8880022    1    1    2    0    0  0.15112325830E+03  0.32108118001E+03 -0.36614193962E+03  0.53233723927E+03  0.15294330000E+03 0.  0.
    8880022    1    1    2    0    0 -0.15112325830E+03 -0.32108118001E+03  0.35112476377E+03  0.52212222334E+03  0.15294330000E+03 0. -1.
<mgrwt>
<rscale>  0 0.38642336E+03</rscale>
<asrwt>0</asrwt>
<pdfrwt beam="1">  1        1 0.79957099E-01 0.38642336E+03</pdfrwt>
<pdfrwt beam="2">  1       -1 0.82267434E-01 0.38642336E+03</pdfrwt>
<totfact> 0.65476702E+01</totfact>
</mgrwt>
</event>
<event>
 4    1  0.1678003E-008  0.4030656E+03  0.7818608E-02  0.1042723E+00
          1   -1    0    0  501    0  0.00000000000E+00  0.00000000000E+00  0.10289800678E+04  0.10289800678E+04  0.50400000000E-02 0. -1.
         -1   -1    0    0    0  501 -0.00000000000E+00 -0.00000000000E+00 -0.30004766499E+03  0.30004766503E+03  0.50400000000E-02 0.  1.
    8880022    1    1    2    0    0 -0.41559327456E+02 -0.37059826599E+03 -0.92937464128E+02  0.41364148451E+03  0.15294330000E+03 0.  1.
    8880022    1    1    2    0    0  0.41559327456E+02  0.37059826599E+03  0.82186986692E+03  0.91538624832E+03  0.15294330000E+03 0.  0.
<mgrwt>
<rscale>  0 0.40306563E+03</rscale>
<asrwt>0</asrwt>
<pdfrwt beam="1">  1        1 0.15830463E+00 0.40306563E+03</pdfrwt>
<pdfrwt beam="2">  1       -1 0.46161179E-01 0.40306563E+03</pdfrwt>
<totfact> 0.71522908E+01</totfact>
</mgrwt>
</event>
<event>
 4    1  0.1678003E-008  0.4803051E+03  0.7818608E-02  0.1019051E+00
         -1   -1    0    0    0  501 -0.00000000000E+00  0.00000000000E+00  0.56587612601E+03  0.56587612603E+03  0.50400000000E-02 0.  1.
          1   -1    0    0  501    0  0.00000000000E+00 -0.00000000000E+00 -0.10941443408E+04  0.10941443408E+04  0.50400000000E-02 0. -1.
    8880022    1    1    2    0    0  0.44593401336E+03  0.91892244563E+02  0.39330726101E+03  0.62079270571E+03  0.15294330000E+03 0.  0.
    8880022    1    1    2    0    0 -0.44593401336E+03 -0.91892244563E+02 -0.92157547579E+03  0.10392277611E+04  0.15294330000E+03 0.  0.
<mgrwt>
<rscale>  0 0.48030509E+03</rscale>
<asrwt>0</asrwt>
<pdfrwt beam="1">  1        1 0.16832990E+00 0.48030509E+03</pdfrwt>
<pdfrwt beam="2">  1       -1 0.87057866E-01 0.48030509E+03</pdfrwt>
<totfact> 0.17908742E+01</totfact>
</mgrwt>
</event>
<event>
 4    1  0.1678003E-008  0.4205134E+03  0.7818608E-02  0.1036899E+00
         -1   -1    0    0    0  501 -0.00000000000E+00  0.00000000000E+00  0.11013234216E+04  0.11013234216E+04  0.50400000000E-02 0.  1.
          1   -1    0    0  501    0  0.00000000000E+00 -0.00000000000E+00 -0.48332311402E+03  0.48332311405E+03  0.50400000000E-02 0. -1.
    8880022    1    1    2    0    0  0.16912496830E+03  0.35332220236E+03  0.95647625713E+03  0.10448341098E+04  0.15294330000E+03 0.  0.
    8880022    1    1    2    0    0 -0.16912496830E+03 -0.35332220236E+03 -0.33847594959E+03  0.53981242580E+03  0.15294330000E+03 0.  0.
<mgrwt>
<rscale>  0 0.42051336E+03</rscale>
<asrwt>0</asrwt>
<pdfrwt beam="1">  1        1 0.74357402E-01 0.42051336E+03</pdfrwt>
<pdfrwt beam="2">  1       -1 0.16943437E+00 0.42051336E+03</pdfrwt>
<totfact> 0.12518192E+01</totfact>
</mgrwt>
</event>
<event>
 4    1  0.1678003E-008  0.3239896E+03  0.7818608E-02  0.1073828E+00
          1   -1    0    0  501    0  0.00000000000E+00  0.00000000000E+00  0.16496581536E+04  0.16496581536E+04  0.50400000000E-02 0. -1.
         -1   -1    0    0    0  501 -0.00000000000E+00 -0.00000000000E+00 -0.23832019907E+03  0.23832019912E+03  0.50400000000E-02 0.  1.
    8880022    1    1    2    0    0 -0.22187848123E+03  0.17985415931E+03 -0.10253268646E+03  0.33982669681E+03  0.15294330000E+03 0.  0.
    8880022    1    1    2    0    0  0.22187848123E+03 -0.17985415931E+03  0.15138706410E+04  0.15481516560E+04  0.15294330000E+03 0.  0.
<mgrwt>
<rscale>  0 0.32398956E+03</rscale>
<asrwt>0</asrwt>
<pdfrwt beam="1">  1        1 0.25379357E+00 0.32398956E+03</pdfrwt>
<pdfrwt beam="2">  1       -1 0.36664645E-01 0.32398956E+03</pdfrwt>
<totfact> 0.40972708E+01</totfact>
</mgrwt>
</event>
<event>
 4    1  0.1678003E-008  0.4392343E+03  0.7818608E-02  0.1030982E+00
         -1   -1    0    0    0  501 -0.00000000000E+00  0.00000000000E+00  0.10373349539E+04  0.10373349539E+04  0.50400000000E-02 0.  1.
          1   -1    0    0  501    0  0.00000000000E+00 -0.00000000000E+00 -0.19307626927E+03  0.19307626933E+03  0.50400000000E-02 0. -1.
    8880022    1    1    2    0    0  0.39460812815E+03 -0.11755672288E+03  0.54004590431E+03  0.69611521293E+03  0.15294330000E+03 0.  0.
    8880022    1    1    2    0    0 -0.39460812815E+03  0.11755672288E+03  0.30421278030E+03  0.53429601029E+03  0.15294330000E+03 0.  1.
<mgrwt>
<rscale>  0 0.43923435E+03</rscale>
<asrwt>0</asrwt>
<pdfrwt beam="1">  1        1 0.29704041E-01 0.43923435E+03</pdfrwt>
<pdfrwt beam="2">  1       -1 0.15958999E+00 0.43923435E+03</pdfrwt>
<totfact> 0.48225324E+01</totfact>
</mgrwt>
</event>
<event>
 4    1  0.1678003E-008  0.6360893E+03  0.7818608E-02  0.9833238E-01
          1   -1    0    0  501    0  0.00000000000E+00  0.00000000000E+00  0.68527186271E+03  0.68527186273E+03  0.50400000000E-02 0. -1.
         -1   -1    0    0    0  501 -0.00000000000E+00 -0.00000000000E+00 -0.78617560067E+03  0.78617560069E+03  0.50400000000E-02 0.  1.
    8880022    1    1    2    0    0  0.29887165362E+03 -0.54027185700E+03 -0.41755970357E+03  0.76089795890E+03  0.15294330000E+03 0.  0.
    8880022    1    1    2    0    0 -0.29887165362E+03  0.54027185700E+03  0.31665596561E+03  0.71054950452E+03  0.15294330000E+03 0.  0.
<mgrwt>
<rscale>  0 0.63608930E+03</rscale>
<asrwt>0</asrwt>
<pdfrwt beam="1">  1        1 0.10542644E+00 0.63608930E+03</pdfrwt>
<pdfrwt beam="2">  1       -1 0.12095009E+00 0.63608930E+03</pdfrwt>
<totfact> 0.17807918E+01</totfact>
</mgrwt>
</event>
<event>
 4    1  0.1678003E-008  0.2785635E+03  0.7818608E-02  0.1096476E+00
          1   -1    0    0  501    0  0.00000000000E+00  0.00000000000E+00  0.21971214559E+04  0.21971214559E+04  0.50400000000E-02 0. -1.
         -1   -1    0    0    0  501 -0.00000000000E+00 -0.00000000000E+00 -0.35463019821E+02  0.35463020179E+02  0.50400000000E-02 0.  1.
    8880022    1    1    2    0    0 -0.22069584767E+03 -0.74157248512E+02  0.11522504510E+04  0.11854445198E+04  0.15294330000E+03 0.  1.
    8880022    1    1    2    0    0  0.22069584767E+03  0.74157248512E+02  0.10094079851E+04  0.10471399563E+04  0.15294330000E+03 0. -1.
<mgrwt>
<rscale>  0 0.27856347E+03</rscale>
<asrwt>0</asrwt>
<pdfrwt beam="1">  1        1 0.33801876E+00 0.27856347E+03</pdfrwt>
<pdfrwt beam="2">  1       -1 0.54558481E-02 0.27856347E+03</pdfrwt>
<totfact> 0.38674649E+02</totfact>
</mgrwt>
</event>
<event>
 4    1  0.1678003E-008  0.1213928E+04  0.7818608E-02  0.9100752E-01
          1   -1    0    0  501    0  0.00000000000E+00  0.00000000000E+00  0.15986121988E+04  0.15986121988E+04  0.50400000000E-02 0. -1.
         -1   -1    0    0    0  501 -0.00000000000E+00 -0.00000000000E+00 -0.12161718744E+04  0.12161718744E+04  0.50400000000E-02 0.  1.
    8880022    1    1    2    0    0 -0.11686728557E+04  0.29057508892E+03  0.88361855760E+03  0.15014671273E+04  0.15294330000E+03 0.  0.
    8880022    1    1    2    0    0  0.11686728557E+04 -0.29057508892E+03 -0.50117823326E+03  0.13133169459E+04  0.15294330000E+03 0.  0.
<mgrwt>
<rscale>  0 0.12139282E+04</rscale>
<asrwt>0</asrwt>
<pdfrwt beam="1">  1        1 0.24594034E+00 0.12139282E+04</pdfrwt>
<pdfrwt beam="2">  1       -1 0.18710337E+00 0.12139282E+04</pdfrwt>
<totfact> 0.10133587E+00</totfact>
</mgrwt>
</event>
<event>
 4    1  0.1678003E-008  0.2947958E+03  0.7818608E-02  0.1087871E+00
          1   -1    0    0  501    0  0.00000000000E+00  0.00000000000E+00  0.77687492779E+03  0.77687492780E+03  0.50400000000E-02 0. -1.
         -1   -1    0    0    0  501 -0.00000000000E+00 -0.00000000000E+00 -0.18281909957E+03  0.18281909964E+03  0.50400000000E-02 0.  1.
    8880022    1    1    2    0    0 -0.52383704216E+02  0.24651342860E+03  0.59596712165E+03  0.66489201082E+03  0.15294330000E+03 0.  0.
    8880022    1    1    2    0    0  0.52383704216E+02 -0.24651342860E+03 -0.19112934325E+01  0.29480201662E+03  0.15294330000E+03 0.  1.
<mgrwt>
<rscale>  0 0.29479582E+03</rscale>
<asrwt>0</asrwt>
<pdfrwt beam="1">  1        1 0.11951922E+00 0.29479582E+03</pdfrwt>
<pdfrwt beam="2">  1       -1 0.28126015E-01 0.29479582E+03</pdfrwt>
<totfact> 0.27662564E+02</totfact>
</mgrwt>
</event>
<event>
 4    1  0.1678003E-008  0.1625189E+03  0.7818608E-02  0.1185882E+00
         -1   -1    0    0    0  501 -0.00000000000E+00  0.00000000000E+00  0.32555602183E+03  0.32555602187E+03  0.50400000000E-02 0.  1.
          1   -1    0    0  501    0  0.00000000000E+00 -0.00000000000E+00 -0.20887791128E+04  0.20887791128E+04  0.50400000000E-02 0. -1.
    8880022    1    1    2    0    0  0.54716704969E+02 -0.51788975030E+01  0.30188009837E+03  0.34284688359E+03  0.15294330000E+03 0.  0.
    8880022    1    1    2    0    0 -0.54716704969E+02  0.51788975030E+01 -0.20651031894E+04  0.20714882511E+04  0.15294330000E+03 0. -1.
<mgrwt>
<rscale>  0 0.16251890E+03</rscale>
<asrwt>0</asrwt>
<pdfrwt beam="1">  1        1 0.32135062E+00 0.16251890E+03</pdfrwt>
<pdfrwt beam="2">  1       -1 0.50085543E-01 0.16251890E+03</pdfrwt>
<totfact> 0.13106915E+01</totfact>
</mgrwt>
</event>
<event>
 4    1  0.1678003E-008  0.6795158E+03  0.7818608E-02  0.9752919E-01
          1   -1    0    0  501    0  0.00000000000E+00  0.00000000000E+00  0.64118074487E+03  0.64118074489E+03  0.50400000000E-02 0. -1.
         -1   -1    0    0    0  501 -0.00000000000E+00 -0.00000000000E+00 -0.12130571832E+04  0.12130571832E+04  0.50400000000E-02 0.  1.
    8880022    1    1    2    0    0  0.66187078662E+03  0.16648673625E+02 -0.87692875112E+03  0.11093898341E+04  0.15294330000E+03 0.  0.
    8880022    1    1    2    0    0 -0.66187078662E+03 -0.16648673625E+02  0.30505231280E+03  0.74484809396E+03  0.15294330000E+03 0.  0.
<mgrwt>
<rscale>  0 0.67951583E+03</rscale>
<asrwt>0</asrwt>
<pdfrwt beam="1">  1        1 0.98643192E-01 0.67951583E+03</pdfrwt>
<pdfrwt beam="2">  1       -1 0.18662418E+00 0.67951583E+03</pdfrwt>
<totfact> 0.60646695E+00</totfact>
</mgrwt>
</event>
<event>
 4    1  0.1678003E-008  0.5252955E+03  0.7818608E-02  0.1007379E+00
          1   -1    0    0  501    0  0.00000000000E+00  0.00000000000E+00  0.64591084870E+03  0.64591084872E+03  0.50400000000E-02 0. -1.
         -1   -1    0    0    0  501 -0.00000000000E+00 -0.00000000000E+00 -0.16175796775E+04  0.16175796775E+04  0.50400000000E-02 0.  1.
    8880022    1    1    2    0    0 -0.43273500684E+03 -0.25550756172E+03 -0.14566974454E+04  0.15485163224E+04  0.15294330000E+03 0.  0.
    8880022    1    1    2    0    0  0.43273500684E+03  0.25550756172E+03  0.48502861659E+03  0.71497420385E+03  0.15294330000E+03 0.  0.
<mgrwt>
<rscale>  0 0.52529549E+03</rscale>
<asrwt>0</asrwt>
<pdfrwt beam="1">  1        1 0.99370900E-01 0.52529549E+03</pdfrwt>
<pdfrwt beam="2">  1       -1 0.24885841E+00 0.52529549E+03</pdfrwt>
<totfact> 0.23847344E+00</totfact>
</mgrwt>
</event>
<event>
 4    1  0.1678003E-008  0.4550728E+03  0.7818608E-02  0.1026220E+00
          1   -1    0    0  501    0  0.00000000000E+00  0.00000000000E+00  0.16183758177E+04  0.16183758177E+04  0.50400000000E-02 0. -1.
         -1   -1    0    0    0  501 -0.00000000000E+00 -0.00000000000E+00 -0.33090877360E+03  0.33090877364E+03  0.50400000000E-02 0.  1.
    8880022    1    1    2    0    0 -0.20970802851E+03  0.37379425583E+03  0.14070097900E+04  0.14787723980E+04  0.15294330000E+03 0.  0.
    8880022    1    1    2    0    0  0.20970802851E+03 -0.37379425583E+03 -0.11954274595E+03  0.47051219330E+03  0.15294330000E+03 0.  0.
<mgrwt>
<rscale>  0 0.45507280E+03</rscale>
<asrwt>0</asrwt>
<pdfrwt beam="1">  1        1 0.24898090E+00 0.45507280E+03</pdfrwt>
<pdfrwt beam="2">  1       -1 0.50909042E-01 0.45507280E+03</pdfrwt>
<totfact> 0.22882944E+01</totfact>
</mgrwt>
</event>
<event>
 4    1  0.1678003E-008  0.1539378E+03  0.7818608E-02  0.1195716E+00
         -1   -1    0    0    0  501 -0.00000000000E+00  0.00000000000E+00  0.38445767385E+03  0.38445767388E+03  0.50400000000E-02 0.  1.
          1   -1    0    0  501    0  0.00000000000E+00 -0.00000000000E+00 -0.98535371392E+03  0.98535371393E+03  0.50400000000E-02 0. -1.
    8880022    1    1    2    0    0 -0.10730256994E+02 -0.13785619168E+02 -0.96358628443E+03  0.97580498167E+03  0.15294330000E+03 0. -1.
    8880022    1    1    2    0    0  0.10730256994E+02  0.13785619168E+02  0.36269024436E+03  0.39400640614E+03  0.15294330000E+03 0.  0.
<mgrwt>
<rscale>  0 0.15393776E+03</rscale>
<asrwt>0</asrwt>
<pdfrwt beam="1">  1        1 0.15159288E+00 0.15393776E+03</pdfrwt>
<pdfrwt beam="2">  1       -1 0.59147335E-01 0.15393776E+03</pdfrwt>
<totfact> 0.51995784E+01</totfact>
</mgrwt>
</event>
<event>
 4    1  0.1678003E-008  0.5537012E+03  0.7818608E-02  0.1000641E+00
          1   -1    0    0  501    0  0.00000000000E+00  0.00000000000E+00  0.66160375700E+03  0.66160375702E+03  0.50400000000E-02 0. -1.
         -1   -1    0    0    0  501 -0.00000000000E+00 -0.00000000000E+00 -0.50395776675E+03  0.50395776678E+03  0.50400000000E-02 0.  1.
    8880022    1    1    2    0    0  0.42812810050E+03  0.31606912798E+03  0.24415718164E+03  0.60514274883E+03  0.15294330000E+03 0.  0.
    8880022    1    1    2    0    0 -0.42812810050E+03 -0.31606912798E+03 -0.86511191388E+02  0.56041877498E+03  0.15294330000E+03 0.  0.
<mgrwt>
<rscale>  0 0.55370120E+03</rscale>
<asrwt>0</asrwt>
<pdfrwt beam="1">  1        1 0.10178519E+00 0.55370120E+03</pdfrwt>
<pdfrwt beam="2">  1       -1 0.77531964E-01 0.55370120E+03</pdfrwt>
<totfact> 0.51578992E+01</totfact>
</mgrwt>
</event>
<event>
 4    1  0.1678003E-008  0.3200660E+03  0.7818608E-02  0.1075619E+00
          1   -1    0    0  501    0  0.00000000000E+00  0.00000000000E+00  0.65360772736E+03  0.65360772738E+03  0.50400000000E-02 0. -1.
         -1   -1    0    0    0  501 -0.00000000000E+00 -0.00000000000E+00 -0.46371925974E+03  0.46371925976E+03  0.50400000000E-02 0.  1.
    8880022    1    1    2    0    0  0.22279376114E+03  0.17150364930E+03  0.54949443467E+03  0.63591379012E+03  0.15294330000E+03 0.  0.
    8880022    1    1    2    0    0 -0.22279376114E+03 -0.17150364930E+03 -0.35960596704E+03  0.48141319703E+03  0.15294330000E+03 0.  0.
<mgrwt>
<rscale>  0 0.32006595E+03</rscale>
<asrwt>0</asrwt>
<pdfrwt beam="1">  1        1 0.10055503E+00 0.32006595E+03</pdfrwt>
<pdfrwt beam="2">  1       -1 0.71341425E-01 0.32006595E+03</pdfrwt>
<totfact> 0.64542798E+01</totfact>
</mgrwt>
</event>
<event>
 4    1  0.1678003E-008  0.1071513E+04  0.7818608E-02  0.9233411E-01
         -1   -1    0    0    0  501 -0.00000000000E+00  0.00000000000E+00  0.14828992209E+04  0.14828992209E+04  0.50400000000E-02 0.  1.
          1   -1    0    0  501    0  0.00000000000E+00 -0.00000000000E+00 -0.11088256818E+04  0.11088256818E+04  0.50400000000E-02 0. -1.
    8880022    1    1    2    0    0 -0.48578781911E+03 -0.94273996915E+03 -0.52478636146E+03  0.11931223042E+04  0.15294330000E+03 0.  0.
    8880022    1    1    2    0    0  0.48578781911E+03  0.94273996915E+03  0.89885990054E+03  0.13986025985E+04  0.15294330000E+03 0.  1.
<mgrwt>
<rscale>  0 0.10715130E+04</rscale>
<asrwt>0</asrwt>
<pdfrwt beam="1">  1        1 0.17058857E+00 0.10715130E+04</pdfrwt>
<pdfrwt beam="2">  1       -1 0.22813834E+00 0.10715130E+04</pdfrwt>
<totfact> 0.12086582E+00</totfact>
</mgrwt>
</event>
<event>
 4    1  0.1678003E-008  0.3575200E+03  0.7818608E-02  0.1059570E+00
         -1   -1    0    0    0  501 -0.00000000000E+00  0.00000000000E+00  0.12246931829E+03  0.12246931840E+03  0.50400000000E-02 0.  1.
          1   -1    0    0  501    0  0.00000000000E+00 -0.00000000000E+00 -0.23409551924E+04  0.23409551924E+04  0.50400000000E-02 0. -1.
    8880022    1    1    2    0    0  0.31154043173E+03 -0.85857359571E+02 -0.19233378786E+03  0.40597150856E+03  0.15294330000E+03 0.  0.
    8880022    1    1    2    0    0 -0.31154043173E+03  0.85857359571E+02 -0.20261520863E+04  0.20574530023E+04  0.15294330000E+03 0.  0.
<mgrwt>
<rscale>  0 0.35752004E+03</rscale>
<asrwt>0</asrwt>
<pdfrwt beam="1">  1        1 0.36014692E+00 0.35752004E+03</pdfrwt>
<pdfrwt beam="2">  1       -1 0.18841435E-01 0.35752004E+03</pdfrwt>
<totfact> 0.44031725E+01</totfact>
</mgrwt>
</event>
<event>
 4    1  0.1678003E-008  0.3929391E+03  0.7818608E-02  0.1046252E+00
         -1   -1    0    0    0  501 -0.00000000000E+00  0.00000000000E+00  0.19227658002E+03  0.19227658009E+03  0.50400000000E-02 0.  1.
          1   -1    0    0  501    0  0.00000000000E+00 -0.00000000000E+00 -0.14371349942E+04  0.14371349942E+04  0.50400000000E-02 0. -1.
    8880022    1    1    2    0    0 -0.35871563271E+03  0.48296549601E+02 -0.81254490216E+02  0.40125229850E+03  0.15294330000E+03 0.  0.
    8880022    1    1    2    0    0  0.35871563271E+03 -0.48296549601E+02 -0.11636039239E+04  0.12281592758E+04  0.15294330000E+03 0.  0.
<mgrwt>
<rscale>  0 0.39293907E+03</rscale>
<asrwt>0</asrwt>
<pdfrwt beam="1">  1        1 0.22109768E+00 0.39293907E+03</pdfrwt>
<pdfrwt beam="2">  1       -1 0.29581013E-01 0.39293907E+03</pdfrwt>
<totfact> 0.81215482E+01</totfact>
</mgrwt>
</event>
<event>
 4    1  0.1678003E-008  0.8356872E+03  0.7818608E-02  0.9509751E-01
          1   -1    0    0  501    0  0.00000000000E+00  0.00000000000E+00  0.32776753846E+04  0.32776753846E+04  0.50400000000E-02 0. -1.
         -1   -1    0    0    0  501 -0.00000000000E+00 -0.00000000000E+00 -0.43459638522E+03  0.43459638525E+03  0.50400000000E-02 0.  1.
    8880022    1    1    2    0    0  0.82024724532E+03  0.46646772815E+02  0.27467345176E+04  0.28710492208E+04  0.15294330000E+03 0.  0.
    8880022    1    1    2    0    0 -0.82024724532E+03 -0.46646772815E+02  0.96344481737E+02  0.84122254905E+03  0.15294330000E+03 0.  0.
<mgrwt>
<rscale>  0 0.83568721E+03</rscale>
<asrwt>0</asrwt>
<pdfrwt beam="1">  1        1 0.50425775E+00 0.83568721E+03</pdfrwt>
<pdfrwt beam="2">  1       -1 0.66860982E-01 0.83568721E+03</pdfrwt>
<totfact> 0.89739619E-01</totfact>
</mgrwt>
</event>
<event>
 4    1  0.1678003E-008  0.1183170E+04  0.7818608E-02  0.9127717E-01
          1   -1    0    0  501    0  0.00000000000E+00  0.00000000000E+00  0.10610923383E+04  0.10610923383E+04  0.50400000000E-02 0. -1.
         -1   -1    0    0    0  501 -0.00000000000E+00 -0.00000000000E+00 -0.15127812147E+04  0.15127812147E+04  0.50400000000E-02 0.  1.
    8880022    1    1    2    0    0  0.60687256336E+03 -0.10040938039E+04  0.23440986094E+03  0.12061667842E+04  0.15294330000E+03 0.  0.
    8880022    1    1    2    0    0 -0.60687256336E+03  0.10040938039E+04 -0.68609873732E+03  0.13677067689E+04  0.15294330000E+03 0.  0.
<mgrwt>
<rscale>  0 0.11831696E+04</rscale>
<asrwt>0</asrwt>
<pdfrwt beam="1">  1        1 0.16324498E+00 0.11831696E+04</pdfrwt>
<pdfrwt beam="2">  1       -1 0.23273557E+00 0.11831696E+04</pdfrwt>
<totfact> 0.12079830E+00</totfact>
</mgrwt>
</event>
<event>
 4    1  0.1678003E-008  0.6412386E+03  0.7818608E-02  0.9823360E-01
         -1   -1    0    0    0  501 -0.00000000000E+00  0.00000000000E+00  0.19523892825E+04  0.19523892825E+04  0.50400000000E-02 0.  1.
          1   -1    0    0  501    0  0.00000000000E+00 -0.00000000000E+00 -0.47408401241E+03  0.47408401243E+03  0.50400000000E-02 0. -1.
    8880022    1    1    2    0    0  0.21942667725E+03 -0.58279262504E+03  0.16436122553E+04  0.17642698799E+04  0.15294330000E+03 0.  0.
    8880022    1    1    2    0    0 -0.21942667725E+03  0.58279262504E+03 -0.16530698518E+03  0.66220341501E+03  0.15294330000E+03 0.  0.
<mgrwt>
<rscale>  0 0.64123862E+03</rscale>
<asrwt>0</asrwt>
<pdfrwt beam="1">  1        1 0.72936004E-01 0.64123862E+03</pdfrwt>
<pdfrwt beam="2">  1       -1 0.30036757E+00 0.64123862E+03</pdfrwt>
<totfact> 0.16834347E+00</totfact>
</mgrwt>
</event>
<event>
 4    1  0.1678003E-008  0.4897889E+03  0.7818608E-02  0.1016479E+00
          1   -1    0    0  501    0  0.00000000000E+00  0.00000000000E+00  0.10237255188E+04  0.10237255188E+04  0.50400000000E-02 0. -1.
         -1   -1    0    0    0  501 -0.00000000000E+00 -0.00000000000E+00 -0.37577634470E+03  0.37577634473E+03  0.50400000000E-02 0.  1.
    8880022    1    1    2    0    0  0.12618548969E+02  0.46512605137E+03  0.75328294826E+03  0.89851450996E+03  0.15294330000E+03 0. -1.
    8880022    1    1    2    0    0 -0.12618548969E+02 -0.46512605137E+03 -0.10533377418E+03  0.50098735357E+03  0.15294330000E+03 0.  0.
<mgrwt>
<rscale>  0 0.48978886E+03</rscale>
<asrwt>0</asrwt>
<pdfrwt beam="1">  1        1 0.15749623E+00 0.48978886E+03</pdfrwt>
<pdfrwt beam="2">  1       -1 0.57811745E-01 0.48978886E+03</pdfrwt>
<totfact> 0.46529762E+01</totfact>
</mgrwt>
</event>
<event>
 4    1  0.1678003E-008  0.8564434E+03  0.7818608E-02  0.9481729E-01
         -1   -1    0    0    0  501 -0.00000000000E+00  0.00000000000E+00  0.22929606929E+03  0.22929606935E+03  0.50400000000E-02 0.  1.
          1   -1    0    0  501    0  0.00000000000E+00 -0.00000000000E+00 -0.38255192186E+04  0.38255192186E+04  0.50400000000E-02 0. -1.
    8880022    1    1    2    0    0 -0.59071895442E+03  0.60096146071E+03 -0.26186477162E+04  0.27551426597E+04  0.15294330000E+03 0.  0.
    8880022    1    1    2    0    0  0.59071895442E+03 -0.60096146071E+03 -0.97757543310E+03  0.12996726283E+04  0.15294330000E+03 0.  0.
<mgrwt>
<rscale>  0 0.85644335E+03</rscale>
<asrwt>0</asrwt>
<pdfrwt beam="1">  1        1 0.58854137E+00 0.85644335E+03</pdfrwt>
<pdfrwt beam="2">  1       -1 0.35276321E-01 0.85644335E+03</pdfrwt>
<totfact> 0.11153222E+00</totfact>
</mgrwt>
</event>
<event>
 4    1  0.1678003E-008  0.3100548E+03  0.7818608E-02  0.1080320E+00
          1   -1    0    0  501    0  0.00000000000E+00  0.00000000000E+00  0.83092778344E+03  0.83092778345E+03  0.50400000000E-02 0. -1.
         -1   -1    0    0    0  501 -0.00000000000E+00 -0.00000000000E+00 -0.11630362815E+03  0.11630362826E+03  0.50400000000E-02 0.  1.
    8880022    1    1    2    0    0 -0.36593696664E+02 -0.26721385149E+03  0.32304401332E+03  0.44776269230E+03  0.15294330000E+03 0. -1.
    8880022    1    1    2    0    0  0.36593696664E+02  0.26721385149E+03  0.39158014197E+03  0.49946871941E+03  0.15294330000E+03 0.  0.
<mgrwt>
<rscale>  0 0.31005482E+03</rscale>
<asrwt>0</asrwt>
<pdfrwt beam="1">  1        1 0.12783504E+00 0.31005482E+03</pdfrwt>
<pdfrwt beam="2">  1       -1 0.17892866E-01 0.31005482E+03</pdfrwt>
<totfact> 0.52625440E+02</totfact>
</mgrwt>
</event>
<event>
 4    1  0.1678003E-008  0.3240612E+03  0.7818608E-02  0.1073795E+00
         -1   -1    0    0    0  501 -0.00000000000E+00  0.00000000000E+00  0.41621391786E+03  0.41621391789E+03  0.50400000000E-02 0.  1.
          1   -1    0    0  501    0  0.00000000000E+00 -0.00000000000E+00 -0.22188913965E+04  0.22188913965E+04  0.50400000000E-02 0. -1.
    8880022    1    1    2    0    0  0.80068413594E+01 -0.28558691765E+03  0.33904404895E+03  0.46900588182E+03  0.15294330000E+03 0.  0.
    8880022    1    1    2    0    0 -0.80068413594E+01  0.28558691765E+03 -0.21417215276E+04  0.21660994326E+04  0.15294330000E+03 0.  0.
<mgrwt>
<rscale>  0 0.32406118E+03</rscale>
<asrwt>0</asrwt>
<pdfrwt beam="1">  1        1 0.34136790E+00 0.32406118E+03</pdfrwt>
<pdfrwt beam="2">  1       -1 0.64032912E-01 0.32406118E+03</pdfrwt>
<totfact> 0.61703470E+00</totfact>
</mgrwt>
</event>
<event>
 4    1  0.1678003E-008  0.7971249E+03  0.7818608E-02  0.9564188E-01
         -1   -1    0    0    0  501 -0.00000000000E+00  0.00000000000E+00  0.14095759856E+04  0.14095759856E+04  0.50400000000E-02 0.  1.
          1   -1    0    0  501    0  0.00000000000E+00 -0.00000000000E+00 -0.11550999837E+04  0.11550999838E+04  0.50400000000E-02 0. -1.
    8880022    1    1    2    0    0  0.66039607285E+03  0.41939658066E+03 -0.87409341641E+03  0.11829824253E+04  0.15294330000E+03 0.  0.
    8880022    1    1    2    0    0 -0.66039607285E+03 -0.41939658066E+03  0.11285694183E+04  0.13816935441E+04  0.15294330000E+03 0.  0.
<mgrwt>
<rscale>  0 0.79712491E+03</rscale>
<asrwt>0</asrwt>
<pdfrwt beam="1">  1        1 0.17770769E+00 0.79712491E+03</pdfrwt>
<pdfrwt beam="2">  1       -1 0.21685784E+00 0.79712491E+03</pdfrwt>
<totfact> 0.13843334E+00</totfact>
</mgrwt>
</event>
<event>
 4    1  0.1678003E-008  0.2844493E+03  0.7818608E-02  0.1093283E+00
          1   -1    0    0  501    0  0.00000000000E+00  0.00000000000E+00  0.69186368179E+03  0.69186368181E+03  0.50400000000E-02 0. -1.
         -1   -1    0    0    0  501 -0.00000000000E+00 -0.00000000000E+00 -0.87024645595E+03  0.87024645597E+03  0.50400000000E-02 0.  1.
    8880022    1    1    2    0    0  0.22638235418E+03 -0.79188384954E+02 -0.81587327048E+03  0.86403739335E+03  0.15294330000E+03 0.  0.
    8880022    1    1    2    0    0 -0.22638235418E+03  0.79188384954E+02  0.63749049632E+03  0.69807274443E+03  0.15294330000E+03 0. -1.
<mgrwt>
<rscale>  0 0.28444933E+03</rscale>
<asrwt>0</asrwt>
<pdfrwt beam="1">  1        1 0.10644057E+00 0.28444933E+03</pdfrwt>
<pdfrwt beam="2">  1       -1 0.13388407E+00 0.28444933E+03</pdfrwt>
<totfact> 0.14702237E+01</totfact>
</mgrwt>
</event>
<event>
 4    1  0.1678003E-008  0.1003671E+04  0.7818608E-02  0.9304528E-01
          1   -1    0    0  501    0  0.00000000000E+00  0.00000000000E+00  0.23489567620E+04  0.23489567620E+04  0.50400000000E-02 0. -1.
         -1   -1    0    0    0  501 -0.00000000000E+00 -0.00000000000E+00 -0.55967721146E+03  0.55967721148E+03  0.50400000000E-02 0.  1.
    8880022    1    1    2    0    0  0.74449815865E+03  0.65550443595E+03  0.19150967555E+03  0.10217784411E+04  0.15294330000E+03 0.  0.
    8880022    1    1    2    0    0 -0.74449815865E+03 -0.65550443595E+03  0.15977698750E+04  0.18868555324E+04  0.15294330000E+03 0.  0.
<mgrwt>
<rscale>  0 0.10036709E+04</rscale>
<asrwt>0</asrwt>
<pdfrwt beam="1">  1        1 0.36137797E+00 0.10036709E+04</pdfrwt>
<pdfrwt beam="2">  1       -1 0.86104184E-01 0.10036709E+04</pdfrwt>
<totfact> 0.23292615E+00</totfact>
</mgrwt>
</event>
<event>
 4    1  0.1678003E-008  0.4602792E+03  0.7818608E-02  0.1024700E+00
          1   -1    0    0  501    0  0.00000000000E+00  0.00000000000E+00  0.33027791402E+04  0.33027791402E+04  0.50400000000E-02 0. -1.
         -1   -1    0    0    0  501 -0.00000000000E+00 -0.00000000000E+00 -0.48461379684E+03  0.48461379687E+03  0.50400000000E-02 0.  1.
    8880022    1    1    2    0    0 -0.25363132429E+03 -0.35233002700E+03  0.31730045213E+04  0.32062150024E+04  0.15294330000E+03 0.  0.
    8880022    1    1    2    0    0  0.25363132429E+03  0.35233002700E+03 -0.35483917789E+03  0.58117793469E+03  0.15294330000E+03 0.  0.
<mgrwt>
<rscale>  0 0.46027921E+03</rscale>
<asrwt>0</asrwt>
<pdfrwt beam="1">  1        1 0.50811985E+00 0.46027921E+03</pdfrwt>
<pdfrwt beam="2">  1       -1 0.74555971E-01 0.46027921E+03</pdfrwt>
<totfact> 0.76468919E-01</totfact>
</mgrwt>
</event>
<event>
 4    1  0.1678003E-008  0.2960500E+03  0.7818608E-02  0.1087232E+00
          1   -1    0    0  501    0  0.00000000000E+00  0.00000000000E+00  0.17551050646E+04  0.17551050646E+04  0.50400000000E-02 0. -1.
         -1   -1    0    0    0  501 -0.00000000000E+00 -0.00000000000E+00 -0.13500011696E+03  0.13500011706E+03  0.50400000000E-02 0.  1.
    8880022    1    1    2    0    0  0.25081705135E+02 -0.25223971960E+03  0.15602198693E+04  0.15880590863E+04  0.15294330000E+03 0.  0.
    8880022    1    1    2    0    0 -0.25081705135E+02  0.25223971960E+03  0.59885078312E+02  0.30204609532E+03  0.15294330000E+03 0.  1.
<mgrwt>
<rscale>  0 0.29605003E+03</rscale>
<asrwt>0</asrwt>
<pdfrwt beam="1">  1        1 0.27001613E+00 0.29605003E+03</pdfrwt>
<pdfrwt beam="2">  1       -1 0.20769251E-01 0.29605003E+03</pdfrwt>
<totfact> 0.92364888E+01</totfact>
</mgrwt>
</event>
<event>
 4    1  0.1678003E-008  0.3156523E+03  0.7818608E-02  0.1077668E+00
         -1   -1    0    0    0  501 -0.00000000000E+00  0.00000000000E+00  0.24813780817E+03  0.24813780822E+03  0.50400000000E-02 0.  1.
          1   -1    0    0  501    0  0.00000000000E+00 -0.00000000000E+00 -0.51847616929E+03  0.51847616931E+03  0.50400000000E-02 0. -1.
    8880022    1    1    2    0    0  0.32599405529E+02  0.27419333094E+03 -0.31720778330E+03  0.44750098857E+03  0.15294330000E+03 0.  0.
    8880022    1    1    2    0    0 -0.32599405529E+02 -0.27419333094E+03  0.46869422188E+02  0.31911298896E+03  0.15294330000E+03 0.  0.
<mgrwt>
<rscale>  0 0.31565227E+03</rscale>
<asrwt>0</asrwt>
<pdfrwt beam="1">  1        1 0.79765565E-01 0.31565227E+03</pdfrwt>
<pdfrwt beam="2">  1       -1 0.38175047E-01 0.31565227E+03</pdfrwt>
<totfact> 0.28975038E+02</totfact>
</mgrwt>
</event>
<event>
 4    1  0.1678003E-008  0.7075973E+03  0.7818608E-02  0.9704327E-01
          1   -1    0    0  501    0  0.00000000000E+00  0.00000000000E+00  0.22246171264E+04  0.22246171264E+04  0.50400000000E-02 0. -1.
         -1   -1    0    0    0  501 -0.00000000000E+00 -0.00000000000E+00 -0.30767977712E+03  0.30767977716E+03  0.50400000000E-02 0.  1.
    8880022    1    1    2    0    0 -0.63517072251E+03 -0.27177273583E+03  0.16145409018E+04  0.17627921725E+04  0.15294330000E+03 0.  0.
    8880022    1    1    2    0    0  0.63517072251E+03  0.27177273583E+03  0.30239644742E+03  0.76950473104E+03  0.15294330000E+03 0.  0.
<mgrwt>
<rscale>  0 0.70759729E+03</rscale>
<asrwt>0</asrwt>
<pdfrwt beam="1">  1        1 0.34224878E+00 0.70759729E+03</pdfrwt>
<pdfrwt beam="2">  1       -1 0.47335351E-01 0.70759729E+03</pdfrwt>
<totfact> 0.98640068E+00</totfact>
</mgrwt>
</event>
<event>
 4    1  0.1678003E-008  0.8451683E+03  0.7818608E-02  0.9496845E-01
         -1   -1    0    0    0  501 -0.00000000000E+00  0.00000000000E+00  0.54993136783E+03  0.54993136785E+03  0.50400000000E-02 0.  1.
          1   -1    0    0  501    0  0.00000000000E+00 -0.00000000000E+00 -0.19454172352E+04  0.19454172352E+04  0.50400000000E-02 0. -1.
    8880022    1    1    2    0    0  0.39399486301E+03  0.73190567052E+03  0.21511698196E+02  0.84544205526E+03  0.15294330000E+03 0.  0.
    8880022    1    1    2    0    0 -0.39399486301E+03 -0.73190567052E+03 -0.14169975656E+04  0.16499065478E+04  0.15294330000E+03 0.  0.
<mgrwt>
<rscale>  0 0.84516834E+03</rscale>
<asrwt>0</asrwt>
<pdfrwt beam="1">  1        1 0.29929496E+00 0.84516834E+03</pdfrwt>
<pdfrwt beam="2">  1       -1 0.84604827E-01 0.84516834E+03</pdfrwt>
<totfact> 0.46361429E+00</totfact>
</mgrwt>
</event>
<event>
 4    1  0.1678003E-008  0.1556435E+03  0.7818608E-02  0.1193705E+00
         -1   -1    0    0    0  501 -0.00000000000E+00  0.00000000000E+00  0.39177734922E+03  0.39177734926E+03  0.50400000000E-02 0.  1.
          1   -1    0    0  501    0  0.00000000000E+00 -0.00000000000E+00 -0.79029657567E+02  0.79029657728E+02  0.50400000000E-02 0. -1.
    8880022    1    1    2    0    0  0.28865683633E+02 -0.11217914779E+00  0.46565364929E+02  0.16245992276E+03  0.15294330000E+03 0.  0.
    8880022    1    1    2    0    0 -0.28865683633E+02  0.11217914779E+00  0.26618232673E+03  0.30834708423E+03  0.15294330000E+03 0.  1.
<mgrwt>
<rscale>  0 0.15564348E+03</rscale>
<asrwt>0</asrwt>
<pdfrwt beam="1">  1        1 0.12158409E-01 0.15564348E+03</pdfrwt>
<pdfrwt beam="2">  1       -1 0.60273436E-01 0.15564348E+03</pdfrwt>
<totfact> 0.13977915E+03</totfact>
</mgrwt>
</event>
<event>
 4    1  0.2946890E-008  0.6566379E+03  0.7818608E-02  0.9794403E-01
          1   -1    0    0  501    0  0.00000000000E+00  0.00000000000E+00  0.10074348877E+04  0.10074348877E+04  0.50400000000E-02 0. -1.
         -1   -1    0    0    0  501 -0.00000000000E+00 -0.00000000000E+00 -0.29648282505E+04  0.29648282505E+04  0.50400000000E-02 0.  1.
    8880022    1    1    2    0    0  0.47790010594E+03  0.42354832759E+03 -0.28158885867E+04  0.28914359552E+04  0.15294330000E+03 0.  0.
    8880022    1    1    2    0    0 -0.47790010594E+03 -0.42354832759E+03  0.85849522393E+03  0.10808271830E+04  0.15294330000E+03 0.  0.
<mgrwt>
<rscale>  0 0.65663791E+03</rscale>
<asrwt>0</asrwt>
<pdfrwt beam="1">  1        1 0.15498998E+00 0.65663791E+03</pdfrwt>
<pdfrwt beam="2">  1       -1 0.45612742E+00 0.65663791E+03</pdfrwt>
<totfact> 0.48869870E-02</totfact>
</mgrwt>
</event>
<event>
 4    1  0.1678003E-008  0.4786471E+03  0.7818608E-02  0.1019508E+00
         -1   -1    0    0    0  501 -0.00000000000E+00  0.00000000000E+00  0.25323792101E+03  0.25323792106E+03  0.50400000000E-02 0.  1.
          1   -1    0    0  501    0  0.00000000000E+00 -0.00000000000E+00 -0.20250224403E+04  0.20250224403E+04  0.50400000000E-02 0. -1.
    8880022    1    1    2    0    0 -0.33339651994E+03 -0.30750310500E+03 -0.17331800479E+04  0.17980589897E+04  0.15294330000E+03 0. -1.
    8880022    1    1    2    0    0  0.33339651994E+03  0.30750310500E+03 -0.38604471387E+02  0.48020137163E+03  0.15294330000E+03 0.  0.
<mgrwt>
<rscale>  0 0.47864711E+03</rscale>
<asrwt>0</asrwt>
<pdfrwt beam="1">  1        1 0.31154190E+00 0.47864711E+03</pdfrwt>
<pdfrwt beam="2">  1       -1 0.38959681E-01 0.47864711E+03</pdfrwt>
<totfact> 0.20020515E+01</totfact>
</mgrwt>
</event>
<event>
 4    1  0.1678003E-008  0.5737134E+03  0.7818608E-02  0.9961495E-01
         -1   -1    0    0    0  501 -0.00000000000E+00  0.00000000000E+00  0.23550704617E+03  0.23550704622E+03  0.50400000000E-02 0.  1.
          1   -1    0    0  501    0  0.00000000000E+00 -0.00000000000E+00 -0.16484990506E+04  0.16484990507E+04  0.50400000000E-02 0. -1.
    8880022    1    1    2    0    0 -0.10835079941E+03 -0.54223198863E+03 -0.33900345625E+03  0.66638609049E+03  0.15294330000E+03 0.  0.
    8880022    1    1    2    0    0  0.10835079941E+03  0.54223198863E+03 -0.10739885482E+04  0.12176200064E+04  0.15294330000E+03 0.  0.
<mgrwt>
<rscale>  0 0.57371341E+03</rscale>
<asrwt>0</asrwt>
<pdfrwt beam="1">  1        1 0.25361523E+00 0.57371341E+03</pdfrwt>
<pdfrwt beam="2">  1       -1 0.36231854E-01 0.57371341E+03</pdfrwt>
<totfact> 0.39807451E+01</totfact>
</mgrwt>
</event>
<event>
 4    1  0.1678003E-008  0.4118453E+03  0.7818608E-02  0.1039754E+00
         -1   -1    0    0    0  501 -0.00000000000E+00  0.00000000000E+00  0.45001065388E+03  0.45001065391E+03  0.50400000000E-02 0.  1.
          1   -1    0    0  501    0  0.00000000000E+00 -0.00000000000E+00 -0.98756665592E+03  0.98756665593E+03  0.50400000000E-02 0. -1.
    8880022    1    1    2    0    0 -0.29498961085E+03 -0.24332286307E+03 -0.83399363107E+03  0.93014080433E+03  0.15294330000E+03 0.  0.
    8880022    1    1    2    0    0  0.29498961085E+03  0.24332286307E+03  0.29643762904E+03  0.50743650551E+03  0.15294330000E+03 0.  0.
<mgrwt>
<rscale>  0 0.41184529E+03</rscale>
<asrwt>0</asrwt>
<pdfrwt beam="1">  1        1 0.15193333E+00 0.41184529E+03</pdfrwt>
<pdfrwt beam="2">  1       -1 0.69232409E-01 0.41184529E+03</pdfrwt>
<totfact> 0.35195962E+01</totfact>
</mgrwt>
</event>
<event>
 4    1  0.1678003E-008  0.7291558E+03  0.7818608E-02  0.9668631E-01
         -1   -1    0    0    0  501 -0.00000000000E+00  0.00000000000E+00  0.69597448578E+03  0.69597448580E+03  0.50400000000E-02 0.  1.
          1   -1    0    0  501    0  0.00000000000E+00 -0.00000000000E+00 -0.83134665461E+03  0.83134665463E+03  0.50400000000E-02 0. -1.
    8880022    1    1    2    0    0 -0.20971365930E+03 -0.68139324386E+03 -0.28517037597E+03  0.78293701408E+03  0.15294330000E+03 0.  0.
    8880022    1    1    2    0    0  0.20971365930E+03  0.68139324386E+03  0.14979820714E+03  0.74438412635E+03  0.15294330000E+03 0.  0.
<mgrwt>
<rscale>  0 0.72915583E+03</rscale>
<asrwt>0</asrwt>
<pdfrwt beam="1">  1        1 0.12789949E+00 0.72915583E+03</pdfrwt>
<pdfrwt beam="2">  1       -1 0.10707300E+00 0.72915583E+03</pdfrwt>
<totfact> 0.17418817E+01</totfact>
</mgrwt>
</event>
<event>
 4    1  0.1678003E-008  0.4850660E+03  0.7818608E-02  0.1017752E+00
          1   -1    0    0  501    0  0.00000000000E+00  0.00000000000E+00  0.35785509488E+03  0.35785509492E+03  0.50400000000E-02 0. -1.
         -1   -1    0    0    0  501 -0.00000000000E+00 -0.00000000000E+00 -0.96437084660E+03  0.96437084661E+03  0.50400000000E-02 0.  1.
    8880022    1    1    2    0    0  0.25742118271E+03 -0.38161724562E+03  0.69676837921E+02  0.49004479613E+03  0.15294330000E+03 0.  0.
    8880022    1    1    2    0    0 -0.25742118271E+03  0.38161724562E+03 -0.67619258964E+03  0.83218114540E+03  0.15294330000E+03 0.  1.
<mgrwt>
<rscale>  0 0.48506602E+03</rscale>
<asrwt>0</asrwt>
<pdfrwt beam="1">  1        1 0.55054630E-01 0.48506602E+03</pdfrwt>
<pdfrwt beam="2">  1       -1 0.14836474E+00 0.48506602E+03</pdfrwt>
<totfact> 0.26421622E+01</totfact>
</mgrwt>
</event>
<event>
 4    1  0.1678003E-008  0.5912754E+03  0.7818608E-02  0.9923674E-01
          1   -1    0    0  501    0  0.00000000000E+00  0.00000000000E+00  0.22467858465E+04  0.22467858465E+04  0.50400000000E-02 0. -1.
         -1   -1    0    0    0  501 -0.00000000000E+00 -0.00000000000E+00 -0.63128006753E+03  0.63128006755E+03  0.50400000000E-02 0.  1.
    8880022    1    1    2    0    0  0.57066186675E+03 -0.23663855539E+02  0.20569064018E+04  0.21402033882E+04  0.15294330000E+03 0.  0.
    8880022    1    1    2    0    0 -0.57066186675E+03  0.23663855539E+02 -0.44140062281E+03  0.73786252585E+03  0.15294330000E+03 0.  0.
<mgrwt>
<rscale>  0 0.59127540E+03</rscale>
<asrwt>0</asrwt>
<pdfrwt beam="1">  1        1 0.34565936E+00 0.59127540E+03</pdfrwt>
<pdfrwt beam="2">  1       -1 0.97120010E-01 0.59127540E+03</pdfrwt>
<totfact> 0.22620247E+00</totfact>
</mgrwt>
</event>
<event>
 4    1  0.1678003E-008  0.6102083E+03  0.7818608E-02  0.9884451E-01
          1   -1    0    0  501    0  0.00000000000E+00  0.00000000000E+00  0.11529528576E+04  0.11529528576E+04  0.50400000000E-02 0. -1.
         -1   -1    0    0    0  501 -0.00000000000E+00 -0.00000000000E+00 -0.62709641190E+03  0.62709641192E+03  0.50400000000E-02 0.  1.
    8880022    1    1    2    0    0  0.10142129386E+03 -0.58195894506E+03 -0.35689986376E+03  0.70691700952E+03  0.15294330000E+03 0.  0.
    8880022    1    1    2    0    0 -0.10142129386E+03  0.58195894506E+03  0.88275630948E+03  0.10731322600E+04  0.15294330000E+03 0.  0.
<mgrwt>
<rscale>  0 0.61020828E+03</rscale>
<asrwt>0</asrwt>
<pdfrwt beam="1">  1        1 0.17737736E+00 0.61020828E+03</pdfrwt>
<pdfrwt beam="2">  1       -1 0.96476372E-01 0.61020828E+03</pdfrwt>
<totfact> 0.12629819E+01</totfact>
</mgrwt>
</event>
<event>
 4    1  0.1678003E-008  0.9951864E+03  0.7818608E-02  0.9313840E-01
         -1   -1    0    0    0  501 -0.00000000000E+00  0.00000000000E+00  0.48356621412E+03  0.48356621414E+03  0.50400000000E-02 0.  1.
          1   -1    0    0  501    0  0.00000000000E+00 -0.00000000000E+00 -0.30065186537E+04  0.30065186537E+04  0.50400000000E-02 0. -1.
    8880022    1    1    2    0    0  0.60173395089E+03 -0.77776641647E+03 -0.22467337857E+04  0.24572766843E+04  0.15294330000E+03 0.  0.
    8880022    1    1    2    0    0 -0.60173395089E+03  0.77776641647E+03 -0.27621865385E+03  0.10328081835E+04  0.15294330000E+03 0.  0.
<mgrwt>
<rscale>  0 0.99518641E+03</rscale>
<asrwt>0</asrwt>
<pdfrwt beam="1">  1        1 0.46254132E+00 0.99518641E+03</pdfrwt>
<pdfrwt beam="2">  1       -1 0.74394804E-01 0.99518641E+03</pdfrwt>
<totfact> 0.11065062E+00</totfact>
</mgrwt>
</event>
<event>
 4    1  0.1678003E-008  0.8276875E+03  0.7818608E-02  0.9520783E-01
         -1   -1    0    0    0  501 -0.00000000000E+00  0.00000000000E+00  0.55152739611E+03  0.55152739614E+03  0.50400000000E-02 0.  1.
          1   -1    0    0  501    0  0.00000000000E+00 -0.00000000000E+00 -0.20325446155E+04  0.20325446155E+04  0.50400000000E-02 0. -1.
    8880022    1    1    2    0    0  0.79526432360E+03 -0.17096669732E+03 -0.15462266870E+04  0.17538197104E+04  0.15294330000E+03 0.  0.
    8880022    1    1    2    0    0 -0.79526432360E+03  0.17096669732E+03  0.65209467641E+02  0.83025230121E+03  0.15294330000E+03 0.  0.
<mgrwt>
<rscale>  0 0.82768751E+03</rscale>
<asrwt>0</asrwt>
<pdfrwt beam="1">  1        1 0.31269917E+00 0.82768751E+03</pdfrwt>
<pdfrwt beam="2">  1       -1 0.84850370E-01 0.82768751E+03</pdfrwt>
<totfact> 0.40387629E+00</totfact>
</mgrwt>
</event>
<event>
 4    1  0.1678003E-008  0.7337653E+03  0.7818608E-02  0.9661170E-01
         -1   -1    0    0    0  501 -0.00000000000E+00  0.00000000000E+00  0.62607298349E+03  0.62607298352E+03  0.50400000000E-02 0.  1.
          1   -1    0    0  501    0  0.00000000000E+00 -0.00000000000E+00 -0.11006450383E+04  0.11006450383E+04  0.50400000000E-02 0. -1.
    8880022    1    1    2    0    0 -0.59144661314E+03 -0.40646131769E+03  0.16642666520E+03  0.75240241020E+03  0.15294330000E+03 0.  0.
    8880022    1    1    2    0    0  0.59144661314E+03  0.40646131769E+03 -0.64099871996E+03  0.97431561158E+03  0.15294330000E+03 0.  0.
<mgrwt>
<rscale>  0 0.73376532E+03</rscale>
<asrwt>0</asrwt>
<pdfrwt beam="1">  1        1 0.16933001E+00 0.73376532E+03</pdfrwt>
<pdfrwt beam="2">  1       -1 0.96318921E-01 0.73376532E+03</pdfrwt>
<totfact> 0.13596294E+01</totfact>
</mgrwt>
</event>
<event>
 4    1  0.1678003E-008  0.8328141E+03  0.7818608E-02  0.9513698E-01
         -1   -1    0    0    0  501 -0.00000000000E+00  0.00000000000E+00  0.69435926261E+03  0.69435926263E+03  0.50400000000E-02 0.  1.
          1   -1    0    0  501    0  0.00000000000E+00 -0.00000000000E+00 -0.29310000179E+04  0.29310000179E+04  0.50400000000E-02 0. -1.
    8880022    1    1    2    0    0 -0.87250516797E+02  0.81398714480E+03  0.35341778989E+03  0.90470078579E+03  0.15294330000E+03 0.  0.
    8880022    1    1    2    0    0  0.87250516797E+02 -0.81398714480E+03 -0.25900585452E+04  0.27206584947E+04  0.15294330000E+03 0.  0.
<mgrwt>
<rscale>  0 0.83281413E+03</rscale>
<asrwt>0</asrwt>
<pdfrwt beam="1">  1        1 0.45092307E+00 0.83281413E+03</pdfrwt>
<pdfrwt beam="2">  1       -1 0.10682450E+00 0.83281413E+03</pdfrwt>
<totfact> 0.58157076E-01</totfact>
</mgrwt>
</event>
<event>
 4    1  0.1678003E-008  0.3319210E+03  0.7818608E-02  0.1070290E+00
         -1   -1    0    0    0  501 -0.00000000000E+00  0.00000000000E+00  0.74075992297E+03  0.74075992298E+03  0.50400000000E-02 0.  1.
          1   -1    0    0  501    0  0.00000000000E+00 -0.00000000000E+00 -0.97548770852E+03  0.97548770853E+03  0.50400000000E-02 0. -1.
    8880022    1    1    2    0    0  0.10584818299E+03 -0.27491103085E+03 -0.90736694398E+03  0.96617096664E+03  0.15294330000E+03 0. -1.
    8880022    1    1    2    0    0 -0.10584818299E+03  0.27491103085E+03  0.67263915843E+03  0.75007666488E+03  0.15294330000E+03 0.  0.
<mgrwt>
<rscale>  0 0.33192102E+03</rscale>
<asrwt>0</asrwt>
<pdfrwt beam="1">  1        1 0.15007503E+00 0.33192102E+03</pdfrwt>
<pdfrwt beam="2">  1       -1 0.11396307E+00 0.33192102E+03</pdfrwt>
<totfact> 0.12445694E+01</totfact>
</mgrwt>
</event>
<event>
 4    1  0.1678003E-008  0.4547062E+03  0.7818608E-02  0.1026328E+00
          1   -1    0    0  501    0  0.00000000000E+00  0.00000000000E+00  0.39179424481E+04  0.39179424481E+04  0.50400000000E-02 0. -1.
         -1   -1    0    0    0  501 -0.00000000000E+00 -0.00000000000E+00 -0.83806373408E+02  0.83806373560E+02  0.50400000000E-02 0.  1.
    8880022    1    1    2    0    0  0.69810815803E+02 -0.42248375112E+03  0.31346625516E+04  0.31674701317E+04  0.15294330000E+03 0.  0.
    8880022    1    1    2    0    0 -0.69810815803E+02  0.42248375112E+03  0.69947352309E+03  0.83427868994E+03  0.15294330000E+03 0.  0.
<mgrwt>
<rscale>  0 0.45470619E+03</rscale>
<asrwt>0</asrwt>
<pdfrwt beam="1">  1        1 0.60276019E+00 0.45470619E+03</pdfrwt>
<pdfrwt beam="2">  1       -1 0.12893292E-01 0.45470619E+03</pdfrwt>
<totfact> 0.55855270E+00</totfact>
</mgrwt>
</event>
<event>
 4    1  0.1678003E-008  0.8320318E+03  0.7818608E-02  0.9514776E-01
         -1   -1    0    0    0  501 -0.00000000000E+00  0.00000000000E+00  0.50291819458E+03  0.50291819460E+03  0.50400000000E-02 0.  1.
          1   -1    0    0  501    0  0.00000000000E+00 -0.00000000000E+00 -0.18704763482E+04  0.18704763482E+04  0.50400000000E-02 0. -1.
    8880022    1    1    2    0    0  0.73582609167E+03  0.35699464379E+03 -0.12936082483E+04  0.15380829516E+04  0.15294330000E+03 0.  0.
    8880022    1    1    2    0    0 -0.73582609167E+03 -0.35699464379E+03 -0.73949905308E+02  0.83531159120E+03  0.15294330000E+03 0.  0.
<mgrwt>
<rscale>  0 0.83203177E+03</rscale>
<asrwt>0</asrwt>
<pdfrwt beam="1">  1        1 0.28776559E+00 0.83203177E+03</pdfrwt>
<pdfrwt beam="2">  1       -1 0.77372031E-01 0.83203177E+03</pdfrwt>
<totfact> 0.63111177E+00</totfact>
</mgrwt>
</event>
<event>
 4    1  0.1678003E-008  0.4686034E+03  0.7818608E-02  0.1022315E+00
          1   -1    0    0  501    0  0.00000000000E+00  0.00000000000E+00  0.63080439926E+03  0.63080439928E+03  0.50400000000E-02 0. -1.
         -1   -1    0    0    0  501 -0.00000000000E+00 -0.00000000000E+00 -0.12464532615E+04  0.12464532615E+04  0.50400000000E-02 0.  1.
    8880022    1    1    2    0    0  0.95603484386E+02  0.43250136342E+03 -0.11046754430E+04  0.11999570588E+04  0.15294330000E+03 0.  0.
    8880022    1    1    2    0    0 -0.95603484386E+02 -0.43250136342E+03  0.48902658083E+03  0.67730060192E+03  0.15294330000E+03 0.  0.
<mgrwt>
<rscale>  0 0.46860336E+03</rscale>
<asrwt>0</asrwt>
<pdfrwt beam="1">  1        1 0.97046831E-01 0.46860336E+03</pdfrwt>
<pdfrwt beam="2">  1       -1 0.19176204E+00 0.46860336E+03</pdfrwt>
<totfact> 0.59555410E+00</totfact>
</mgrwt>
</event>
<event>
 4    1  0.1678003E-008  0.4516632E+03  0.7818608E-02  0.1027227E+00
          1   -1    0    0  501    0  0.00000000000E+00  0.00000000000E+00  0.27310398086E+04  0.27310398086E+04  0.50400000000E-02 0. -1.
         -1   -1    0    0    0  501 -0.00000000000E+00 -0.00000000000E+00 -0.24915554637E+03  0.24915554642E+03  0.50400000000E-02 0.  1.
    8880022    1    1    2    0    0  0.41599446603E+03 -0.86928653006E+02  0.24878258846E+04  0.25284930832E+04  0.15294330000E+03 0.  0.
    8880022    1    1    2    0    0 -0.41599446603E+03  0.86928653006E+02 -0.59416223992E+01  0.45170227183E+03  0.15294330000E+03 0.  0.
<mgrwt>
<rscale>  0 0.45166319E+03</rscale>
<asrwt>0</asrwt>
<pdfrwt beam="1">  1        1 0.42015998E+00 0.45166319E+03</pdfrwt>
<pdfrwt beam="2">  1       -1 0.38331621E-01 0.45166319E+03</pdfrwt>
<totfact> 0.69751833E+00</totfact>
</mgrwt>
</event>
<event>
 4    1  0.1678003E-008  0.1569584E+03  0.7818608E-02  0.1192174E+00
         -1   -1    0    0    0  501 -0.00000000000E+00  0.00000000000E+00  0.44323317978E+02  0.44323318265E+02  0.50400000000E-02 0.  1.
          1   -1    0    0  501    0  0.00000000000E+00 -0.00000000000E+00 -0.79602845237E+03  0.79602845239E+03  0.50400000000E-02 0. -1.
    8880022    1    1    2    0    0  0.34879958857E+02 -0.52610114579E+01 -0.14504088449E+03  0.21371195793E+03  0.15294330000E+03 0.  0.
    8880022    1    1    2    0    0 -0.34879958857E+02  0.52610114579E+01 -0.60666424990E+03  0.62663981272E+03  0.15294330000E+03 0. -1.
<mgrwt>
<rscale>  0 0.15695841E+03</rscale>
<asrwt>0</asrwt>
<pdfrwt beam="1">  1        1 0.12246591E+00 0.15695841E+03</pdfrwt>
<pdfrwt beam="2">  1       -1 0.68189726E-02 0.15695841E+03</pdfrwt>
<totfact> 0.25218690E+03</totfact>
</mgrwt>
</event>
<event>
 4    1  0.1678003E-008  0.3229595E+03  0.7818608E-02  0.1074295E+00
          1   -1    0    0  501    0  0.00000000000E+00  0.00000000000E+00  0.12630228898E+04  0.12630228898E+04  0.50400000000E-02 0. -1.
         -1   -1    0    0    0  501 -0.00000000000E+00 -0.00000000000E+00 -0.44757976981E+03  0.44757976983E+03  0.50400000000E-02 0.  1.
    8880022    1    1    2    0    0 -0.13085874630E+03  0.25256126881E+03 -0.36465498017E+03  0.48710996044E+03  0.15294330000E+03 0.  0.
    8880022    1    1    2    0    0  0.13085874630E+03 -0.25256126881E+03  0.11800981001E+04  0.12234926992E+04  0.15294330000E+03 0. -1.
<mgrwt>
<rscale>  0 0.32295953E+03</rscale>
<asrwt>0</asrwt>
<pdfrwt beam="1">  1        1 0.19431121E+00 0.32295953E+03</pdfrwt>
<pdfrwt beam="2">  1       -1 0.68858427E-01 0.32295953E+03</pdfrwt>
<totfact> 0.22950224E+01</totfact>
</mgrwt>
</event>
<event>
 4    1  0.1678003E-008  0.9081551E+03  0.7818608E-02  0.9415444E-01
          1   -1    0    0  501    0  0.00000000000E+00  0.00000000000E+00  0.43364669198E+04  0.43364669198E+04  0.50400000000E-02 0. -1.
         -1   -1    0    0    0  501 -0.00000000000E+00 -0.00000000000E+00 -0.34288234390E+03  0.34288234393E+03  0.50400000000E-02 0.  1.
    8880022    1    1    2    0    0  0.43431726689E+03  0.78276594519E+03  0.35581191224E+04  0.36721869990E+04  0.15294330000E+03 0.  0.
    8880022    1    1    2    0    0 -0.43431726689E+03 -0.78276594519E+03  0.43546545343E+03  0.10071622647E+04  0.15294330000E+03 0.  0.
<mgrwt>
<rscale>  0 0.90815509E+03</rscale>
<asrwt>0</asrwt>
<pdfrwt beam="1">  1        1 0.66714869E+00 0.90815509E+03</pdfrwt>
<pdfrwt beam="2">  1       -1 0.52751135E-01 0.90815509E+03</pdfrwt>
<totfact> 0.18478936E-01</totfact>
</mgrwt>
</event>
<event>
 4    1  0.1678003E-008  0.5608479E+03  0.7818608E-02  0.9990138E-01
         -1   -1    0    0    0  501 -0.00000000000E+00  0.00000000000E+00  0.43406625147E+03  0.43406625150E+03  0.50400000000E-02 0.  1.
          1   -1    0    0  501    0  0.00000000000E+00 -0.00000000000E+00 -0.84243181595E+03  0.84243181597E+03  0.50400000000E-02 0. -1.
    8880022    1    1    2    0    0 -0.47127637472E+03  0.26278746221E+03 -0.44282320137E+03  0.71459268983E+03  0.15294330000E+03 0.  0.
    8880022    1    1    2    0    0  0.47127637472E+03 -0.26278746221E+03  0.34457636890E+02  0.56190537764E+03  0.15294330000E+03 0.  0.
<mgrwt>
<rscale>  0 0.56084786E+03</rscale>
<asrwt>0</asrwt>
<pdfrwt beam="1">  1        1 0.12960489E+00 0.56084786E+03</pdfrwt>
<pdfrwt beam="2">  1       -1 0.66779424E-01 0.56084786E+03</pdfrwt>
<totfact> 0.48252413E+01</totfact>
</mgrwt>
</event>
<event>
 4    1  0.1678003E-008  0.8447972E+03  0.7818608E-02  0.9497347E-01
          1   -1    0    0  501    0  0.00000000000E+00  0.00000000000E+00  0.68866104259E+03  0.68866104261E+03  0.50400000000E-02 0. -1.
         -1   -1    0    0    0  501 -0.00000000000E+00 -0.00000000000E+00 -0.23069127371E+04  0.23069127371E+04  0.50400000000E-02 0.  1.
    8880022    1    1    2    0    0 -0.32649624745E+03 -0.76399662378E+03  0.30244045342E+03  0.89730291520E+03  0.15294330000E+03 0.  0.
    8880022    1    1    2    0    0  0.32649624745E+03  0.76399662378E+03 -0.19206921479E+04  0.20982708645E+04  0.15294330000E+03 0.  0.
<mgrwt>
<rscale>  0 0.84479719E+03</rscale>
<asrwt>0</asrwt>
<pdfrwt beam="1">  1        1 0.10594785E+00 0.84479719E+03</pdfrwt>
<pdfrwt beam="2">  1       -1 0.35490965E+00 0.84479719E+03</pdfrwt>
<totfact> 0.42215215E-01</totfact>
</mgrwt>
</event>
<event>
 4    1  0.1678003E-008  0.3533591E+03  0.7818608E-02  0.1061245E+00
          1   -1    0    0  501    0  0.00000000000E+00  0.00000000000E+00  0.13873049222E+04  0.13873049222E+04  0.50400000000E-02 0. -1.
         -1   -1    0    0    0  501 -0.00000000000E+00 -0.00000000000E+00 -0.74181507643E+03  0.74181507645E+03  0.50400000000E-02 0.  1.
    8880022    1    1    2    0    0  0.31596041710E+03 -0.40497161140E+02  0.13206362869E+04  0.13670928500E+04  0.15294330000E+03 0.  0.
    8880022    1    1    2    0    0 -0.31596041710E+03  0.40497161140E+02 -0.67514644116E+03  0.76202714864E+03  0.15294330000E+03 0.  0.
<mgrwt>
<rscale>  0 0.35335911E+03</rscale>
<asrwt>0</asrwt>
<pdfrwt beam="1">  1        1 0.21343152E+00 0.35335911E+03</pdfrwt>
<pdfrwt beam="2">  1       -1 0.11412540E+00 0.35335911E+03</pdfrwt>
<totfact> 0.62559164E+00</totfact>
</mgrwt>
</event>
<event>
 4    1  0.1887022E-008  0.7906009E+03  0.7818608E-02  0.9573722E-01
         -1   -1    0    0    0  501 -0.00000000000E+00  0.00000000000E+00  0.83003880026E+03  0.83003880027E+03  0.50400000000E-02 0.  1.
          1   -1    0    0  501    0  0.00000000000E+00 -0.00000000000E+00 -0.25579713645E+04  0.25579713645E+04  0.50400000000E-02 0. -1.
    8880022    1    1    2    0    0 -0.65785141817E+03 -0.41096180707E+03 -0.22869423717E+04  0.24197427879E+04  0.15294330000E+03 0.  0.
    8880022    1    1    2    0    0  0.65785141817E+03  0.41096180707E+03  0.55900980744E+03  0.96826737686E+03  0.15294330000E+03 0.  0.
<mgrwt>
<rscale>  0 0.79060088E+03</rscale>
<asrwt>0</asrwt>
<pdfrwt beam="1">  1        1 0.39353405E+00 0.79060088E+03</pdfrwt>
<pdfrwt beam="2">  1       -1 0.12769828E+00 0.79060088E+03</pdfrwt>
<totfact> 0.69495532E-01</totfact>
</mgrwt>
</event>
<event>
 4    1  0.1782996E-008  0.8283420E+03  0.7818608E-02  0.9519876E-01
          1   -1    0    0  501    0  0.00000000000E+00  0.00000000000E+00  0.16697189976E+04  0.16697189976E+04  0.50400000000E-02 0. -1.
         -1   -1    0    0    0  501 -0.00000000000E+00 -0.00000000000E+00 -0.12559480121E+04  0.12559480121E+04  0.50400000000E-02 0.  1.
    8880022    1    1    2    0    0  0.48699953260E+03 -0.65237275871E+03  0.14067717598E+04  0.16325309180E+04  0.15294330000E+03 0.  0.
    8880022    1    1    2    0    0 -0.48699953260E+03  0.65237275871E+03 -0.99300077427E+03  0.12931360917E+04  0.15294330000E+03 0.  0.
<mgrwt>
<rscale>  0 0.82834197E+03</rscale>
<asrwt>0</asrwt>
<pdfrwt beam="1">  1        1 0.25687985E+00 0.82834197E+03</pdfrwt>
<pdfrwt beam="2">  1       -1 0.19322277E+00 0.82834197E+03</pdfrwt>
<totfact> 0.87115302E-01</totfact>
</mgrwt>
</event>
<event>
 4    1  0.1678003E-008  0.3734568E+03  0.7818608E-02  0.1053379E+00
         -1   -1    0    0    0  501 -0.00000000000E+00  0.00000000000E+00  0.46833023642E+03  0.46833023645E+03  0.50400000000E-02 0.  1.
          1   -1    0    0  501    0  0.00000000000E+00 -0.00000000000E+00 -0.48645785493E+03  0.48645785496E+03  0.50400000000E-02 0. -1.
    8880022    1    1    2    0    0 -0.25641083069E+03  0.22434758955E+03  0.28823195952E+03  0.47174958456E+03  0.15294330000E+03 0.  0.
    8880022    1    1    2    0    0  0.25641083069E+03 -0.22434758955E+03 -0.30635957803E+03  0.48303850685E+03  0.15294330000E+03 0.  0.
<mgrwt>
<rscale>  0 0.37345684E+03</rscale>
<asrwt>0</asrwt>
<pdfrwt beam="1">  1        1 0.74839670E-01 0.37345684E+03</pdfrwt>
<pdfrwt beam="2">  1       -1 0.72050806E-01 0.37345684E+03</pdfrwt>
<totfact> 0.94408750E+01</totfact>
</mgrwt>
</event>
<event>
 4    1  0.1678003E-008  0.2240187E+03  0.7818608E-02  0.1130922E+00
         -1   -1    0    0    0  501 -0.00000000000E+00  0.00000000000E+00  0.49424864800E+03  0.49424864803E+03  0.50400000000E-02 0.  1.
          1   -1    0    0  501    0  0.00000000000E+00 -0.00000000000E+00 -0.30338401952E+03  0.30338401956E+03  0.50400000000E-02 0. -1.
    8880022    1    1    2    0    0 -0.14231046363E+03  0.80872970798E+02 -0.22987072381E+03  0.32097493383E+03  0.15294330000E+03 0.  0.
    8880022    1    1    2    0    0  0.14231046363E+03 -0.80872970798E+02  0.42073535230E+03  0.47665773376E+03  0.15294330000E+03 0.  0.
<mgrwt>
<rscale>  0 0.22401866E+03</rscale>
<asrwt>0</asrwt>
<pdfrwt beam="1">  1        1 0.46674465E-01 0.22401866E+03</pdfrwt>
<pdfrwt beam="2">  1       -1 0.76038253E-01 0.22401866E+03</pdfrwt>
<totfact> 0.15894390E+02</totfact>
</mgrwt>
</event>
<event>
 4    1  0.1678003E-008  0.3247205E+03  0.7818608E-02  0.1073497E+00
         -1   -1    0    0    0  501 -0.00000000000E+00  0.00000000000E+00  0.13260581423E+04  0.13260581423E+04  0.50400000000E-02 0.  1.
          1   -1    0    0  501    0  0.00000000000E+00 -0.00000000000E+00 -0.14002614816E+03  0.14002614825E+03  0.50400000000E-02 0. -1.
    8880022    1    1    2    0    0  0.28622407428E+03  0.11292952033E+02  0.11113816043E+03  0.34321290066E+03  0.15294330000E+03 0. -1.
    8880022    1    1    2    0    0 -0.28622407428E+03 -0.11292952033E+02  0.10748938337E+04  0.11228713899E+04  0.15294330000E+03 0.  0.
<mgrwt>
<rscale>  0 0.32472050E+03</rscale>
<asrwt>0</asrwt>
<pdfrwt beam="1">  1        1 0.21542485E-01 0.32472050E+03</pdfrwt>
<pdfrwt beam="2">  1       -1 0.20400894E+00 0.32472050E+03</pdfrwt>
<totfact> 0.36230150E+01</totfact>
</mgrwt>
</event>
<event>
 4    1  0.1678003E-008  0.3555305E+03  0.7818608E-02  0.1060368E+00
          1   -1    0    0  501    0  0.00000000000E+00  0.00000000000E+00  0.26279182891E+04  0.26279182891E+04  0.50400000000E-02 0. -1.
         -1   -1    0    0    0  501 -0.00000000000E+00 -0.00000000000E+00 -0.79297372872E+02  0.79297373032E+02  0.50400000000E-02 0.  1.
    8880022    1    1    2    0    0  0.30077901285E+03  0.11199229491E+03  0.21233441582E+04  0.21529032388E+04  0.15294330000E+03 0.  0.
    8880022    1    1    2    0    0 -0.30077901285E+03 -0.11199229491E+03  0.42527675810E+03  0.55431242336E+03  0.15294330000E+03 0.  0.
<mgrwt>
<rscale>  0 0.35553051E+03</rscale>
<asrwt>0</asrwt>
<pdfrwt beam="1">  1        1 0.40429517E+00 0.35553051E+03</pdfrwt>
<pdfrwt beam="2">  1       -1 0.12199594E-01 0.35553051E+03</pdfrwt>
<totfact> 0.56852630E+01</totfact>
</mgrwt>
</event>
<event>
 4    1  0.1678003E-008  0.4643261E+03  0.7818608E-02  0.1023534E+00
         -1   -1    0    0    0  501 -0.00000000000E+00  0.00000000000E+00  0.46468540371E+03  0.46468540373E+03  0.50400000000E-02 0.  1.
          1   -1    0    0  501    0  0.00000000000E+00 -0.00000000000E+00 -0.91955453899E+03  0.91955453900E+03  0.50400000000E-02 0. -1.
    8880022    1    1    2    0    0 -0.24555267122E+03  0.36319546645E+03 -0.71460231834E+03  0.85220607108E+03  0.15294330000E+03 0.  0.
    8880022    1    1    2    0    0  0.24555267122E+03 -0.36319546645E+03  0.25973318306E+03  0.53203387166E+03  0.15294330000E+03 0.  0.
<mgrwt>
<rscale>  0 0.46432609E+03</rscale>
<asrwt>0</asrwt>
<pdfrwt beam="1">  1        1 0.14146993E+00 0.46432609E+03</pdfrwt>
<pdfrwt beam="2">  1       -1 0.71490062E-01 0.46432609E+03</pdfrwt>
<totfact> 0.36900586E+01</totfact>
</mgrwt>
</event>
<event>
 4    1  0.1678003E-008  0.1567768E+03  0.7818608E-02  0.1192384E+00
          1   -1    0    0  501    0  0.00000000000E+00  0.00000000000E+00  0.10666279798E+04  0.10666279798E+04  0.50400000000E-02 0. -1.
         -1   -1    0    0    0  501 -0.00000000000E+00 -0.00000000000E+00 -0.27674736147E+03  0.27674736152E+03  0.50400000000E-02 0.  1.
    8880022    1    1    2    0    0  0.25502227674E+02 -0.23172430082E+02 -0.24817531610E+03  0.29354721199E+03  0.15294330000E+03 0.  0.
    8880022    1    1    2    0    0 -0.25502227674E+02  0.23172430082E+02  0.10380559344E+04  0.10498281293E+04  0.15294330000E+03 0. -1.
<mgrwt>
<rscale>  0 0.15677684E+03</rscale>
<asrwt>0</asrwt>
<pdfrwt beam="1">  1        1 0.16409661E+00 0.15677684E+03</pdfrwt>
<pdfrwt beam="2">  1       -1 0.42576517E-01 0.15677684E+03</pdfrwt>
<totfact> 0.82822880E+01</totfact>
</mgrwt>
</event>
<event>
 4    1  0.1678003E-008  0.4844955E+03  0.7818608E-02  0.1017907E+00
          1   -1    0    0  501    0  0.00000000000E+00  0.00000000000E+00  0.18995312347E+04  0.18995312347E+04  0.50400000000E-02 0. -1.
         -1   -1    0    0    0  501 -0.00000000000E+00 -0.00000000000E+00 -0.27028946428E+03  0.27028946433E+03  0.50400000000E-02 0.  1.
    8880022    1    1    2    0    0 -0.18113916494E+03  0.42253145126E+03  0.15311812280E+02  0.48473738146E+03  0.15294330000E+03 0.  0.
    8880022    1    1    2    0    0  0.18113916494E+03 -0.42253145126E+03  0.16139299582E+04  0.16850833176E+04  0.15294330000E+03 0.  0.
<mgrwt>
<rscale>  0 0.48449549E+03</rscale>
<asrwt>0</asrwt>
<pdfrwt beam="1">  1        1 0.29223556E+00 0.48449549E+03</pdfrwt>
<pdfrwt beam="2">  1       -1 0.41582996E-01 0.48449549E+03</pdfrwt>
<totfact> 0.21512819E+01</totfact>
</mgrwt>
</event>
<event>
 4    1  0.1678003E-008  0.4341469E+03  0.7818608E-02  0.1032558E+00
          1   -1    0    0  501    0  0.00000000000E+00  0.00000000000E+00  0.35620106969E+03  0.35620106972E+03  0.50400000000E-02 0. -1.
         -1   -1    0    0    0  501 -0.00000000000E+00 -0.00000000000E+00 -0.21574054423E+04  0.21574054423E+04  0.50400000000E-02 0.  1.
    8880022    1    1    2    0    0  0.34811029072E+03 -0.20954971057E+03  0.19124733739E+03  0.47440389203E+03  0.15294330000E+03 0. -1.
    8880022    1    1    2    0    0 -0.34811029072E+03  0.20954971057E+03 -0.19924517100E+04  0.20392026200E+04  0.15294330000E+03 0.  0.
<mgrwt>
<rscale>  0 0.43414687E+03</rscale>
<asrwt>0</asrwt>
<pdfrwt beam="1">  1        1 0.54800166E-01 0.43414687E+03</pdfrwt>
<pdfrwt beam="2">  1       -1 0.33190852E+00 0.43414687E+03</pdfrwt>
<totfact> 0.16265700E+00</totfact>
</mgrwt>
</event>
<event>
 4    1  0.1678003E-008  0.5856587E+03  0.7818608E-02  0.9935615E-01
          1   -1    0    0  501    0  0.00000000000E+00  0.00000000000E+00  0.20868966352E+04  0.20868966352E+04  0.50400000000E-02 0. -1.
         -1   -1    0    0    0  501 -0.00000000000E+00 -0.00000000000E+00 -0.31086746253E+03  0.31086746257E+03  0.50400000000E-02 0.  1.
    8880022    1    1    2    0    0  0.52601276272E+03 -0.20715941256E+03  0.64970458530E+02  0.58925144230E+03  0.15294330000E+03 0.  1.
    8880022    1    1    2    0    0 -0.52601276272E+03  0.20715941256E+03  0.17110587141E+04  0.18085126555E+04  0.15294330000E+03 0.  0.
<mgrwt>
<rscale>  0 0.58565869E+03</rscale>
<asrwt>0</asrwt>
<pdfrwt beam="1">  1        1 0.32106101E+00 0.58565869E+03</pdfrwt>
<pdfrwt beam="2">  1       -1 0.47825765E-01 0.58565869E+03</pdfrwt>
<totfact> 0.12230953E+01</totfact>
</mgrwt>
</event>
<event>
 4    1  0.1678003E-008  0.6713215E+03  0.7818608E-02  0.9767573E-01
         -1   -1    0    0    0  501 -0.00000000000E+00  0.00000000000E+00  0.13033476369E+04  0.13033476369E+04  0.50400000000E-02 0.  1.
          1   -1    0    0  501    0  0.00000000000E+00 -0.00000000000E+00 -0.11064751162E+04  0.11064751162E+04  0.50400000000E-02 0. -1.
    8880022    1    1    2    0    0  0.56337663532E+03 -0.33149308260E+03 -0.90061868356E+03  0.11232927326E+04  0.15294330000E+03 0.  0.
    8880022    1    1    2    0    0 -0.56337663532E+03  0.33149308260E+03  0.10974912042E+04  0.12865300204E+04  0.15294330000E+03 0.  0.
<mgrwt>
<rscale>  0 0.67132150E+03</rscale>
<asrwt>0</asrwt>
<pdfrwt beam="1">  1        1 0.17022694E+00 0.67132150E+03</pdfrwt>
<pdfrwt beam="2">  1       -1 0.20051502E+00 0.67132150E+03</pdfrwt>
<totfact> 0.19851390E+00</totfact>
</mgrwt>
</event>
<event>
 4    1  0.1678003E-008  0.2552634E+03  0.7818608E-02  0.1110023E+00
         -1   -1    0    0    0  501 -0.00000000000E+00  0.00000000000E+00  0.49506585230E+03  0.49506585232E+03  0.50400000000E-02 0.  1.
          1   -1    0    0  501    0  0.00000000000E+00 -0.00000000000E+00 -0.64024700122E+03  0.64024700124E+03  0.50400000000E-02 0. -1.
    8880022    1    1    2    0    0 -0.17432590203E+03  0.10666885921E+03 -0.57854625838E+03  0.63235685475E+03  0.15294330000E+03 0.  0.
    8880022    1    1    2    0    0  0.17432590203E+03 -0.10666885921E+03  0.43336510945E+03  0.50295599882E+03  0.15294330000E+03 0.  0.
<mgrwt>
<rscale>  0 0.25526343E+03</rscale>
<asrwt>0</asrwt>
<pdfrwt beam="1">  1        1 0.98499539E-01 0.25526343E+03</pdfrwt>
<pdfrwt beam="2">  1       -1 0.76163977E-01 0.25526343E+03</pdfrwt>
<totfact> 0.59031434E+01</totfact>
</mgrwt>
</event>
<event>
 4    1  0.1678003E-008  0.3969664E+03  0.7818608E-02  0.1044835E+00
         -1   -1    0    0    0  501 -0.00000000000E+00  0.00000000000E+00  0.12942680703E+04  0.12942680703E+04  0.50400000000E-02 0.  1.
          1   -1    0    0  501    0  0.00000000000E+00 -0.00000000000E+00 -0.25278055565E+03  0.25278055570E+03  0.50400000000E-02 0. -1.
    8880022    1    1    2    0    0 -0.36028168774E+03  0.66240132948E+02  0.10776496513E+04  0.11484385372E+04  0.15294330000E+03 0.  0.
    8880022    1    1    2    0    0  0.36028168774E+03 -0.66240132948E+02 -0.36162136692E+02  0.39861008878E+03  0.15294330000E+03 0.  0.
<mgrwt>
<rscale>  0 0.39696637E+03</rscale>
<asrwt>0</asrwt>
<pdfrwt beam="1">  1        1 0.38889316E-01 0.39696637E+03</pdfrwt>
<pdfrwt beam="2">  1       -1 0.19911817E+00 0.39696637E+03</pdfrwt>
<totfact> 0.18073264E+01</totfact>
</mgrwt>
</event>
<event>
 4    1  0.1678003E-008  0.1025798E+04  0.7818608E-02  0.9280694E-01
          1   -1    0    0  501    0  0.00000000000E+00  0.00000000000E+00  0.19617055361E+04  0.19617055362E+04  0.50400000000E-02 0. -1.
         -1   -1    0    0    0  501 -0.00000000000E+00 -0.00000000000E+00 -0.12386774413E+04  0.12386774413E+04  0.50400000000E-02 0.  1.
    8880022    1    1    2    0    0 -0.44987345479E+03  0.90911114733E+03 -0.84337452298E+03  0.13279839768E+04  0.15294330000E+03 0.  1.
    8880022    1    1    2    0    0  0.44987345479E+03 -0.90911114733E+03  0.15664026178E+04  0.18723990007E+04  0.15294330000E+03 0.  0.
<mgrwt>
<rscale>  0 0.10257977E+04</rscale>
<asrwt>0</asrwt>
<pdfrwt beam="1">  1        1 0.30180085E+00 0.10257977E+04</pdfrwt>
<pdfrwt beam="2">  1       -1 0.19056576E+00 0.10257977E+04</pdfrwt>
<totfact> 0.55806035E-01</totfact>
</mgrwt>
</event>
<event>
 4    1  0.1678003E-008  0.1811725E+03  0.7818608E-02  0.1166673E+00
          1   -1    0    0  501    0  0.00000000000E+00  0.00000000000E+00  0.62134242027E+03  0.62134242029E+03  0.50400000000E-02 0. -1.
         -1   -1    0    0    0  501 -0.00000000000E+00 -0.00000000000E+00 -0.22338313444E+03  0.22338313449E+03  0.50400000000E-02 0.  1.
    8880022    1    1    2    0    0 -0.62256742831E+02 -0.74537968451E+02  0.56803754866E+03  0.59622992249E+03  0.15294330000E+03 0.  0.
    8880022    1    1    2    0    0  0.62256742831E+02  0.74537968451E+02 -0.17007826283E+03  0.24849563229E+03  0.15294330000E+03 0.  1.
<mgrwt>
<rscale>  0 0.18117247E+03</rscale>
<asrwt>0</asrwt>
<pdfrwt beam="1">  1        1 0.95591140E-01 0.18117247E+03</pdfrwt>
<pdfrwt beam="2">  1       -1 0.34366637E-01 0.18117247E+03</pdfrwt>
<totfact> 0.27588047E+02</totfact>
</mgrwt>
</event>
<event>
 4    1  0.1678003E-008  0.5093456E+03  0.7818608E-02  0.1011368E+00
         -1   -1    0    0    0  501 -0.00000000000E+00  0.00000000000E+00  0.67709325347E+03  0.67709325349E+03  0.50400000000E-02 0.  1.
          1   -1    0    0  501    0  0.00000000000E+00 -0.00000000000E+00 -0.12249171108E+04  0.12249171108E+04  0.50400000000E-02 0. -1.
    8880022    1    1    2    0    0 -0.10398163768E+03 -0.47458312343E+03 -0.10622703672E+04  0.11780710115E+04  0.15294330000E+03 0.  0.
    8880022    1    1    2    0    0  0.10398163768E+03  0.47458312343E+03  0.51444650989E+03  0.72393935282E+03  0.15294330000E+03 0.  0.
<mgrwt>
<rscale>  0 0.50934563E+03</rscale>
<asrwt>0</asrwt>
<pdfrwt beam="1">  1        1 0.18844879E+00 0.50934563E+03</pdfrwt>
<pdfrwt beam="2">  1       -1 0.10416819E+00 0.50934563E+03</pdfrwt>
<totfact> 0.96025283E+00</totfact>
</mgrwt>
</event>
<event>
 4    1  0.1678003E-008  0.2586103E+03  0.7818608E-02  0.1107981E+00
          1   -1    0    0  501    0  0.00000000000E+00  0.00000000000E+00  0.29684121251E+03  0.29684121255E+03  0.50400000000E-02 0. -1.
         -1   -1    0    0    0  501 -0.00000000000E+00 -0.00000000000E+00 -0.33646721825E+03  0.33646721829E+03  0.50400000000E-02 0.  1.
    8880022    1    1    2    0    0  0.83343533932E+02 -0.19115833173E+03  0.16219723350E+03  0.30526586447E+03  0.15294330000E+03 0.  0.
    8880022    1    1    2    0    0 -0.83343533932E+02  0.19115833173E+03 -0.20182323925E+03  0.32804256637E+03  0.15294330000E+03 0.  0.
<mgrwt>
<rscale>  0 0.25861034E+03</rscale>
<asrwt>0</asrwt>
<pdfrwt beam="1">  1        1 0.45667879E-01 0.25861034E+03</pdfrwt>
<pdfrwt beam="2">  1       -1 0.51764187E-01 0.25861034E+03</pdfrwt>
<totfact> 0.34436444E+02</totfact>
</mgrwt>
</event>
<event>
 4    1  0.1678003E-008  0.1875583E+03  0.7818608E-02  0.1160682E+00
         -1   -1    0    0    0  501 -0.00000000000E+00  0.00000000000E+00  0.14410390593E+03  0.14410390602E+03  0.50400000000E-02 0.  1.
          1   -1    0    0  501    0  0.00000000000E+00 -0.00000000000E+00 -0.26461630979E+03  0.26461630984E+03  0.50400000000E-02 0. -1.
    8880022    1    1    2    0    0  0.75996099329E+02  0.77531019355E+02 -0.33755771041E+01  0.18758868199E+03  0.15294330000E+03 0.  1.
    8880022    1    1    2    0    0 -0.75996099329E+02 -0.77531019355E+02 -0.11713682675E+03  0.22113153387E+03  0.15294330000E+03 0. -1.
<mgrwt>
<rscale>  0 0.18755831E+03</rscale>
<asrwt>0</asrwt>
<pdfrwt beam="1">  1        1 0.40710201E-01 0.18755831E+03</pdfrwt>
<pdfrwt beam="2">  1       -1 0.22169832E-01 0.18755831E+03</pdfrwt>
<totfact> 0.17303300E+03</totfact>
</mgrwt>
</event>
<event>
 4    1  0.1678003E-008  0.3545467E+03  0.7818608E-02  0.1060764E+00
         -1   -1    0    0    0  501 -0.00000000000E+00  0.00000000000E+00  0.15526337935E+03  0.15526337943E+03  0.50400000000E-02 0.  1.
          1   -1    0    0  501    0  0.00000000000E+00 -0.00000000000E+00 -0.21140676211E+04  0.21140676211E+04  0.50400000000E-02 0. -1.
    8880022    1    1    2    0    0  0.11669205085E+03  0.29781650835E+03 -0.18706998146E+04  0.19040013542E+04  0.15294330000E+03 0. -1.
    8880022    1    1    2    0    0 -0.11669205085E+03 -0.29781650835E+03 -0.88104427099E+02  0.36532964630E+03  0.15294330000E+03 0.  0.
<mgrwt>
<rscale>  0 0.35454670E+03</rscale>
<asrwt>0</asrwt>
<pdfrwt beam="1">  1        1 0.32524115E+00 0.35454670E+03</pdfrwt>
<pdfrwt beam="2">  1       -1 0.23886675E-01 0.35454670E+03</pdfrwt>
<totfact> 0.42026702E+01</totfact>
</mgrwt>
</event>
<event>
 4    1  0.1678003E-008  0.4468714E+03  0.7818608E-02  0.1028659E+00
         -1   -1    0    0    0  501 -0.00000000000E+00  0.00000000000E+00  0.81394660834E+03  0.81394660835E+03  0.50400000000E-02 0.  1.
          1   -1    0    0  501    0  0.00000000000E+00 -0.00000000000E+00 -0.11516179268E+04  0.11516179268E+04  0.50400000000E-02 0. -1.
    8880022    1    1    2    0    0  0.39464005757E+03  0.14339336374E+03 -0.10406694148E+04  0.11325576876E+04  0.15294330000E+03 0.  0.
    8880022    1    1    2    0    0 -0.39464005757E+03 -0.14339336374E+03  0.70299809628E+03  0.83300684763E+03  0.15294330000E+03 0.  1.
<mgrwt>
<rscale>  0 0.44687144E+03</rscale>
<asrwt>0</asrwt>
<pdfrwt beam="1">  1        1 0.17717199E+00 0.44687144E+03</pdfrwt>
<pdfrwt beam="2">  1       -1 0.12522255E+00 0.44687144E+03</pdfrwt>
<totfact> 0.71095314E+00</totfact>
</mgrwt>
</event>
<event>
 4    1  0.1678003E-008  0.4873570E+03  0.7818608E-02  0.1017133E+00
          1   -1    0    0  501    0  0.00000000000E+00  0.00000000000E+00  0.12977206497E+04  0.12977206497E+04  0.50400000000E-02 0. -1.
         -1   -1    0    0    0  501 -0.00000000000E+00 -0.00000000000E+00 -0.20278148273E+03  0.20278148280E+03  0.50400000000E-02 0.  1.
    8880022    1    1    2    0    0 -0.76012956805E+02  0.45645063040E+03  0.78164147548E+03  0.92112984796E+03  0.15294330000E+03 0.  0.
    8880022    1    1    2    0    0  0.76012956805E+02 -0.45645063040E+03  0.31329769148E+03  0.57937228455E+03  0.15294330000E+03 0.  0.
<mgrwt>
<rscale>  0 0.48735695E+03</rscale>
<asrwt>0</asrwt>
<pdfrwt beam="1">  1        1 0.19964932E+00 0.48735695E+03</pdfrwt>
<pdfrwt beam="2">  1       -1 0.31197153E-01 0.48735695E+03</pdfrwt>
<totfact> 0.90977415E+01</totfact>
</mgrwt>
</event>
<event>
 4    1  0.1678003E-008  0.2601440E+03  0.7818608E-02  0.1107057E+00
         -1   -1    0    0    0  501 -0.00000000000E+00  0.00000000000E+00  0.22725666444E+03  0.22725666449E+03  0.50400000000E-02 0.  1.
          1   -1    0    0  501    0  0.00000000000E+00 -0.00000000000E+00 -0.49017360440E+03  0.49017360442E+03  0.50400000000E-02 0. -1.
    8880022    1    1    2    0    0 -0.18218181805E+03 -0.10532341357E+03 -0.35618696156E+03  0.44107146913E+03  0.15294330000E+03 0. -1.
    8880022    1    1    2    0    0  0.18218181805E+03  0.10532341357E+03  0.93270021602E+02  0.27635879979E+03  0.15294330000E+03 0. -1.
<mgrwt>
<rscale>  0 0.26014398E+03</rscale>
<asrwt>0</asrwt>
<pdfrwt beam="1">  1        1 0.75411323E-01 0.26014398E+03</pdfrwt>
<pdfrwt beam="2">  1       -1 0.34962564E-01 0.26014398E+03</pdfrwt>
<totfact> 0.36621908E+02</totfact>
</mgrwt>
</event>
<event>
 4    1  0.1678003E-008  0.7555125E+03  0.7818608E-02  0.9626742E-01
         -1   -1    0    0    0  501 -0.00000000000E+00  0.00000000000E+00  0.13443537113E+04  0.13443537114E+04  0.50400000000E-02 0.  1.
          1   -1    0    0  501    0  0.00000000000E+00 -0.00000000000E+00 -0.76622512603E+03  0.76622512605E+03  0.50400000000E-02 0. -1.
    8880022    1    1    2    0    0  0.59450825411E+03 -0.44041740435E+03 -0.41558759042E+03  0.86227156545E+03  0.15294330000E+03 0.  0.
    8880022    1    1    2    0    0 -0.59450825411E+03  0.44041740435E+03  0.99371617573E+03  0.12483072719E+04  0.15294330000E+03 0.  0.
<mgrwt>
<rscale>  0 0.75551255E+03</rscale>
<asrwt>0</asrwt>
<pdfrwt beam="1">  1        1 0.11788079E+00 0.75551255E+03</pdfrwt>
<pdfrwt beam="2">  1       -1 0.20682364E+00 0.75551255E+03</pdfrwt>
<totfact> 0.33237601E+00</totfact>
</mgrwt>
</event>
<event>
 4    1  0.1678003E-008  0.1436655E+04  0.7818608E-02  0.8927705E-01
          1   -1    0    0  501    0  0.00000000000E+00  0.00000000000E+00  0.14915674098E+04  0.14915674098E+04  0.50400000000E-02 0. -1.
         -1   -1    0    0    0  501 -0.00000000000E+00 -0.00000000000E+00 -0.15844728390E+04  0.15844728390E+04  0.50400000000E-02 0.  1.
    8880022    1    1    2    0    0 -0.77456999810E+03 -0.12002609009E+04  0.50094551733E+03  0.15214870938E+04  0.15294330000E+03 0.  0.
    8880022    1    1    2    0    0  0.77456999810E+03  0.12002609009E+04 -0.59385094653E+03  0.15545531550E+04  0.15294330000E+03 0.  0.
<mgrwt>
<rscale>  0 0.14366546E+04</rscale>
<asrwt>0</asrwt>
<pdfrwt beam="1">  1        1 0.22947191E+00 0.14366546E+04</pdfrwt>
<pdfrwt beam="2">  1       -1 0.24376505E+00 0.14366546E+04</pdfrwt>
<totfact> 0.48375173E-01</totfact>
</mgrwt>
</event>
<event>
 4    1  0.1678003E-008  0.8421450E+03  0.7818608E-02  0.9500941E-01
         -1   -1    0    0    0  501 -0.00000000000E+00  0.00000000000E+00  0.11144420600E+04  0.11144420600E+04  0.50400000000E-02 0.  1.
          1   -1    0    0  501    0  0.00000000000E+00 -0.00000000000E+00 -0.92037106363E+03  0.92037106364E+03  0.50400000000E-02 0. -1.
    8880022    1    1    2    0    0  0.29803792502E+03 -0.77265126121E+03  0.66218802545E+03  0.10713081771E+04  0.15294330000E+03 0.  0.
    8880022    1    1    2    0    0 -0.29803792502E+03  0.77265126121E+03 -0.46811702907E+03  0.96350494659E+03  0.15294330000E+03 0.  0.
<mgrwt>
<rscale>  0 0.84214502E+03</rscale>
<asrwt>0</asrwt>
<pdfrwt beam="1">  1        1 0.14159555E+00 0.84214502E+03</pdfrwt>
<pdfrwt beam="2">  1       -1 0.17145263E+00 0.84214502E+03</pdfrwt>
<totfact> 0.43019665E+00</totfact>
</mgrwt>
</event>
<event>
 4    1  0.1678003E-008  0.3000447E+03  0.7818608E-02  0.1085218E+00
          1   -1    0    0  501    0  0.00000000000E+00  0.00000000000E+00  0.24823104787E+04  0.24823104787E+04  0.50400000000E-02 0. -1.
         -1   -1    0    0    0  501 -0.00000000000E+00 -0.00000000000E+00 -0.19266260264E+03  0.19266260271E+03  0.50400000000E-02 0.  1.
    8880022    1    1    2    0    0 -0.19883264197E+03 -0.16462301178E+03  0.23498668152E+04  0.23689450939E+04  0.15294330000E+03 0.  0.
    8880022    1    1    2    0    0  0.19883264197E+03  0.16462301178E+03 -0.60218939142E+02  0.30602798756E+03  0.15294330000E+03 0.  1.
<mgrwt>
<rscale>  0 0.30004468E+03</rscale>
<asrwt>0</asrwt>
<pdfrwt beam="1">  1        1 0.38189388E+00 0.30004468E+03</pdfrwt>
<pdfrwt beam="2">  1       -1 0.29640403E-01 0.30004468E+03</pdfrwt>
<totfact> 0.16976081E+01</totfact>
</mgrwt>
</event>
<event>
 4    1  0.1678003E-008  0.6088203E+03  0.7818608E-02  0.9887274E-01
         -1   -1    0    0    0  501 -0.00000000000E+00  0.00000000000E+00  0.15351435156E+04  0.15351435156E+04  0.50400000000E-02 0.  1.
          1   -1    0    0  501    0  0.00000000000E+00 -0.00000000000E+00 -0.38876931696E+03  0.38876931699E+03  0.50400000000E-02 0. -1.
    8880022    1    1    2    0    0  0.35736520161E+03 -0.46857299906E+03  0.11653450037E+04  0.13147970085E+04  0.15294330000E+03 0.  0.
    8880022    1    1    2    0    0 -0.35736520161E+03  0.46857299906E+03 -0.18970805073E+02  0.60911582415E+03  0.15294330000E+03 0.  0.
<mgrwt>
<rscale>  0 0.60882033E+03</rscale>
<asrwt>0</asrwt>
<pdfrwt beam="1">  1        1 0.59810664E-01 0.60882033E+03</pdfrwt>
<pdfrwt beam="2">  1       -1 0.23617593E+00 0.60882033E+03</pdfrwt>
<totfact> 0.56776059E+00</totfact>
</mgrwt>
</event>
<event>
 4    1  0.1678003E-008  0.6797784E+03  0.7818608E-02  0.9752453E-01
          1   -1    0    0  501    0  0.00000000000E+00  0.00000000000E+00  0.11824276342E+04  0.11824276342E+04  0.50400000000E-02 0. -1.
         -1   -1    0    0    0  501 -0.00000000000E+00 -0.00000000000E+00 -0.96250859368E+03  0.96250859369E+03  0.50400000000E-02 0.  1.
    8880022    1    1    2    0    0  0.16214165455E+03 -0.64219713957E+03  0.93650643429E+03  0.11572134793E+04  0.15294330000E+03 0.  0.
    8880022    1    1    2    0    0 -0.16214165455E+03  0.64219713957E+03 -0.71658739376E+03  0.98772274861E+03  0.15294330000E+03 0.  0.
<mgrwt>
<rscale>  0 0.67977845E+03</rscale>
<asrwt>0</asrwt>
<pdfrwt beam="1">  1        1 0.18191194E+00 0.67977845E+03</pdfrwt>
<pdfrwt beam="2">  1       -1 0.14807825E+00 0.67977845E+03</pdfrwt>
<totfact> 0.41830155E+00</totfact>
</mgrwt>
</event>
<event>
 4    1  0.1678003E-008  0.6996353E+03  0.7818608E-02  0.9717856E-01
         -1   -1    0    0    0  501 -0.00000000000E+00  0.00000000000E+00  0.32642695798E+03  0.32642695802E+03  0.50400000000E-02 0.  1.
          1   -1    0    0  501    0  0.00000000000E+00 -0.00000000000E+00 -0.30646106516E+04  0.30646106516E+04  0.50400000000E-02 0. -1.
    8880022    1    1    2    0    0 -0.62512483708E+03  0.27443906411E+03 -0.25807559921E+04  0.26739093114E+04  0.15294330000E+03 0.  0.
    8880022    1    1    2    0    0  0.62512483708E+03 -0.27443906411E+03 -0.15742770147E+03  0.71712829818E+03  0.15294330000E+03 0.  0.
<mgrwt>
<rscale>  0 0.69963527E+03</rscale>
<asrwt>0</asrwt>
<pdfrwt beam="1">  1        1 0.47147854E+00 0.69963527E+03</pdfrwt>
<pdfrwt beam="2">  1       -1 0.50219534E-01 0.69963527E+03</pdfrwt>
<totfact> 0.23183019E+00</totfact>
</mgrwt>
</event>
<event>
 4    1  0.1678003E-008  0.5652068E+03  0.7818608E-02  0.9980342E-01
         -1   -1    0    0    0  501 -0.00000000000E+00  0.00000000000E+00  0.88042655714E+03  0.88042655715E+03  0.50400000000E-02 0.  1.
          1   -1    0    0  501    0  0.00000000000E+00 -0.00000000000E+00 -0.10366535601E+04  0.10366535601E+04  0.50400000000E-02 0. -1.
    8880022    1    1    2    0    0  0.54411188501E+03  0.30591059766E+01  0.69467663144E+03  0.89556372014E+03  0.15294330000E+03 0.  0.
    8880022    1    1    2    0    0 -0.54411188501E+03 -0.30591059766E+01 -0.85090363437E+03  0.10215163971E+04  0.15294330000E+03 0.  0.
<mgrwt>
<rscale>  0 0.56520682E+03</rscale>
<asrwt>0</asrwt>
<pdfrwt beam="1">  1        1 0.15948516E+00 0.56520682E+03</pdfrwt>
<pdfrwt beam="2">  1       -1 0.13545024E+00 0.56520682E+03</pdfrwt>
<totfact> 0.69156995E+00</totfact>
</mgrwt>
</event>
<event>
 4    1  0.1678003E-008  0.3200677E+03  0.7818608E-02  0.1075618E+00
          1   -1    0    0  501    0  0.00000000000E+00  0.00000000000E+00  0.18028927866E+04  0.18028927866E+04  0.50400000000E-02 0. -1.
         -1   -1    0    0    0  501 -0.00000000000E+00 -0.00000000000E+00 -0.14608299156E+03  0.14608299165E+03  0.50400000000E-02 0.  1.
    8880022    1    1    2    0    0 -0.21755397471E+03  0.17810653535E+03  0.15901476855E+04  0.16220397604E+04  0.15294330000E+03 0.  0.
    8880022    1    1    2    0    0  0.21755397471E+03 -0.17810653535E+03  0.66662109520E+02  0.32693601776E+03  0.15294330000E+03 0.  1.
<mgrwt>
<rscale>  0 0.32006768E+03</rscale>
<asrwt>0</asrwt>
<pdfrwt beam="1">  1        1 0.27736812E+00 0.32006768E+03</pdfrwt>
<pdfrwt beam="2">  1       -1 0.22474307E-01 0.32006768E+03</pdfrwt>
<totfact> 0.75008545E+01</totfact>
</mgrwt>
</event>
<event>
 4    1  0.1678003E-008  0.4882325E+03  0.7818608E-02  0.1016897E+00
         -1   -1    0    0    0  501 -0.00000000000E+00  0.00000000000E+00  0.19864492614E+03  0.19864492621E+03  0.50400000000E-02 0.  1.
          1   -1    0    0  501    0  0.00000000000E+00 -0.00000000000E+00 -0.12320510102E+04  0.12320510102E+04  0.50400000000E-02 0. -1.
    8880022    1    1    2    0    0 -0.41865076641E+03 -0.19927574574E+03 -0.63210819026E+03  0.79870626908E+03  0.15294330000E+03 0.  0.
    8880022    1    1    2    0    0  0.41865076641E+03  0.19927574574E+03 -0.40129789383E+03  0.63198966737E+03  0.15294330000E+03 0.  0.
<mgrwt>
<rscale>  0 0.48823247E+03</rscale>
<asrwt>0</asrwt>
<pdfrwt beam="1">  1        1 0.18954630E+00 0.48823247E+03</pdfrwt>
<pdfrwt beam="2">  1       -1 0.30560759E-01 0.48823247E+03</pdfrwt>
<totfact> 0.10486319E+02</totfact>
</mgrwt>
</event>
<event>
 4    1  0.1678003E-008  0.1246135E+04  0.7818608E-02  0.9073406E-01
         -1   -1    0    0    0  501 -0.00000000000E+00  0.00000000000E+00  0.92762078313E+03  0.92762078314E+03  0.50400000000E-02 0.  1.
          1   -1    0    0  501    0  0.00000000000E+00 -0.00000000000E+00 -0.18839297813E+04  0.18839297813E+04  0.50400000000E-02 0. -1.
    8880022    1    1    2    0    0  0.78262006143E+03 -0.95758384125E+03 -0.94740350460E+03  0.15653836677E+04  0.15294330000E+03 0.  0.
    8880022    1    1    2    0    0 -0.78262006143E+03  0.95758384125E+03 -0.89054935196E+01  0.12461668967E+04  0.15294330000E+03 0.  0.
<mgrwt>
<rscale>  0 0.12461351E+04</rscale>
<asrwt>0</asrwt>
<pdfrwt beam="1">  1        1 0.28983535E+00 0.12461351E+04</pdfrwt>
<pdfrwt beam="2">  1       -1 0.14271089E+00 0.12461351E+04</pdfrwt>
<totfact> 0.13912723E+00</totfact>
</mgrwt>
</event>
<event>
 4    1  0.1678003E-008  0.3388491E+03  0.7818608E-02  0.1067287E+00
          1   -1    0    0  501    0  0.00000000000E+00  0.00000000000E+00  0.12464984016E+04  0.12464984016E+04  0.50400000000E-02 0. -1.
         -1   -1    0    0    0  501 -0.00000000000E+00 -0.00000000000E+00 -0.12039483152E+04  0.12039483152E+04  0.50400000000E-02 0.  1.
    8880022    1    1    2    0    0  0.30014302684E+03  0.36623134103E+02 -0.11561454018E+04  0.12047783753E+04  0.15294330000E+03 0.  0.
    8880022    1    1    2    0    0 -0.30014302684E+03 -0.36623134103E+02  0.11986954882E+04  0.12456683415E+04  0.15294330000E+03 0.  0.
<mgrwt>
<rscale>  0 0.33884915E+03</rscale>
<asrwt>0</asrwt>
<pdfrwt beam="1">  1        1 0.19176898E+00 0.33884915E+03</pdfrwt>
<pdfrwt beam="2">  1       -1 0.18522282E+00 0.33884915E+03</pdfrwt>
<totfact> 0.22095023E+00</totfact>
</mgrwt>
</event>
<event>
 4    1  0.1678003E-008  0.5162721E+03  0.7818608E-02  0.1009617E+00
          1   -1    0    0  501    0  0.00000000000E+00  0.00000000000E+00  0.19678478293E+04  0.19678478293E+04  0.50400000000E-02 0. -1.
         -1   -1    0    0    0  501 -0.00000000000E+00 -0.00000000000E+00 -0.28227262729E+03  0.28227262734E+03  0.50400000000E-02 0.  1.
    8880022    1    1    2    0    0 -0.11411525524E+03  0.47971129009E+03  0.31370811915E+02  0.51722431707E+03  0.15294330000E+03 0.  0.
    8880022    1    1    2    0    0  0.11411525524E+03 -0.47971129009E+03  0.16542043900E+04  0.17328961395E+04  0.15294330000E+03 0.  0.
<mgrwt>
<rscale>  0 0.51627209E+03</rscale>
<asrwt>0</asrwt>
<pdfrwt beam="1">  1        1 0.30274582E+00 0.51627209E+03</pdfrwt>
<pdfrwt beam="2">  1       -1 0.43426558E-01 0.51627209E+03</pdfrwt>
<totfact> 0.17790868E+01</totfact>
</mgrwt>
</event>
<event>
 4    1  0.1678003E-008  0.8429302E+03  0.7818608E-02  0.9499875E-01
         -1   -1    0    0    0  501 -0.00000000000E+00  0.00000000000E+00  0.69034089673E+03  0.69034089675E+03  0.50400000000E-02 0.  1.
          1   -1    0    0  501    0  0.00000000000E+00 -0.00000000000E+00 -0.14734692806E+04  0.14734692806E+04  0.50400000000E-02 0. -1.
    8880022    1    1    2    0    0 -0.31687129748E+03  0.76598451733E+03 -0.98560837764E+03  0.12969021656E+04  0.15294330000E+03 0.  0.
    8880022    1    1    2    0    0  0.31687129748E+03 -0.76598451733E+03  0.20247999380E+03  0.86690801176E+03  0.15294330000E+03 0.  0.
<mgrwt>
<rscale>  0 0.84293022E+03</rscale>
<asrwt>0</asrwt>
<pdfrwt beam="1">  1        1 0.22668758E+00 0.84293022E+03</pdfrwt>
<pdfrwt beam="2">  1       -1 0.10620629E+00 0.84293022E+03</pdfrwt>
<totfact> 0.58056836E+00</totfact>
</mgrwt>
</event>
<event>
 4    1  0.1678003E-008  0.2034952E+03  0.7818608E-02  0.1146823E+00
         -1   -1    0    0    0  501 -0.00000000000E+00  0.00000000000E+00  0.36014769193E+03  0.36014769197E+03  0.50400000000E-02 0.  1.
          1   -1    0    0  501    0  0.00000000000E+00 -0.00000000000E+00 -0.14812385924E+03  0.14812385932E+03  0.50400000000E-02 0. -1.
    8880022    1    1    2    0    0 -0.14810688784E+02 -0.13341403525E+03  0.22622317509E+03  0.30428151319E+03  0.15294330000E+03 0.  0.
    8880022    1    1    2    0    0  0.14810688784E+02  0.13341403525E+03 -0.14199342396E+02  0.20399003810E+03  0.15294330000E+03 0.  0.
<mgrwt>
<rscale>  0 0.20349524E+03</rscale>
<asrwt>0</asrwt>
<pdfrwt beam="1">  1        1 0.22788286E-01 0.20349524E+03</pdfrwt>
<pdfrwt beam="2">  1       -1 0.55407337E-01 0.20349524E+03</pdfrwt>
<totfact> 0.73004500E+02</totfact>
</mgrwt>
</event>
<event>
 4    1  0.1678003E-008  0.5691141E+03  0.7818608E-02  0.9971641E-01
          1   -1    0    0  501    0  0.00000000000E+00  0.00000000000E+00  0.25354693420E+03  0.25354693425E+03  0.50400000000E-02 0. -1.
         -1   -1    0    0    0  501 -0.00000000000E+00 -0.00000000000E+00 -0.16097032014E+04  0.16097032014E+04  0.50400000000E-02 0.  1.
    8880022    1    1    2    0    0 -0.39867845499E+03  0.37623751272E+03 -0.11013406533E+04  0.12396943430E+04  0.15294330000E+03 0.  0.
    8880022    1    1    2    0    0  0.39867845499E+03 -0.37623751272E+03 -0.25481561391E+03  0.62355579266E+03  0.15294330000E+03 0. -1.
<mgrwt>
<rscale>  0 0.56911407E+03</rscale>
<asrwt>0</asrwt>
<pdfrwt beam="1">  1        1 0.39007222E-01 0.56911407E+03</pdfrwt>
<pdfrwt beam="2">  1       -1 0.24764664E+00 0.56911407E+03</pdfrwt>
<totfact> 0.83845554E+00</totfact>
</mgrwt>
</event>
<event>
 4    1  0.1678003E-008  0.6581215E+03  0.7818608E-02  0.9791658E-01
         -1   -1    0    0    0  501 -0.00000000000E+00  0.00000000000E+00  0.35767267582E+03  0.35767267585E+03  0.50400000000E-02 0.  1.
          1   -1    0    0  501    0  0.00000000000E+00 -0.00000000000E+00 -0.23952475349E+04  0.23952475349E+04  0.50400000000E-02 0. -1.
    8880022    1    1    2    0    0  0.59728424651E+03  0.23018212347E+03 -0.19866612299E+04  0.20928322380E+04  0.15294330000E+03 0. -1.
    8880022    1    1    2    0    0 -0.59728424651E+03 -0.23018212347E+03 -0.50913629175E+02  0.66008797273E+03  0.15294330000E+03 0.  0.
<mgrwt>
<rscale>  0 0.65812152E+03</rscale>
<asrwt>0</asrwt>
<pdfrwt beam="1">  1        1 0.36849961E+00 0.65812152E+03</pdfrwt>
<pdfrwt beam="2">  1       -1 0.55026567E-01 0.65812152E+03</pdfrwt>
<totfact> 0.57418726E+00</totfact>
</mgrwt>
</event>
<event>
 4    1  0.1678003E-008  0.3086700E+03  0.7818608E-02  0.1080985E+00
          1   -1    0    0  501    0  0.00000000000E+00  0.00000000000E+00  0.16487999599E+04  0.16487999599E+04  0.50400000000E-02 0. -1.
         -1   -1    0    0    0  501 -0.00000000000E+00 -0.00000000000E+00 -0.74026086546E+02  0.74026086718E+02  0.50400000000E-02 0.  1.
    8880022    1    1    2    0    0 -0.18767466295E+03 -0.19147780747E+03  0.38391231577E+03  0.49261125554E+03  0.15294330000E+03 0.  0.
    8880022    1    1    2    0    0  0.18767466295E+03  0.19147780747E+03  0.11908615576E+04  0.12302147911E+04  0.15294330000E+03 0.  0.
<mgrwt>
<rscale>  0 0.30867002E+03</rscale>
<asrwt>0</asrwt>
<pdfrwt beam="1">  1        1 0.25366153E+00 0.30867002E+03</pdfrwt>
<pdfrwt beam="2">  1       -1 0.11388629E-01 0.30867002E+03</pdfrwt>
<totfact> 0.28314756E+02</totfact>
</mgrwt>
</event>
<event>
 4    1  0.1678003E-008  0.7413925E+03  0.7818608E-02  0.9648952E-01
         -1   -1    0    0    0  501 -0.00000000000E+00  0.00000000000E+00  0.79013863200E+03  0.79013863201E+03  0.50400000000E-02 0.  1.
          1   -1    0    0  501    0  0.00000000000E+00 -0.00000000000E+00 -0.10178222708E+04  0.10178222708E+04  0.50400000000E-02 0. -1.
    8880022    1    1    2    0    0 -0.72275321241E+03 -0.62441481205E+02 -0.62242817550E+03  0.96802873475E+03  0.15294330000E+03 0.  0.
    8880022    1    1    2    0    0  0.72275321241E+03  0.62441481205E+02  0.39474453673E+03  0.83993216804E+03  0.15294330000E+03 0.  0.
<mgrwt>
<rscale>  0 0.74139247E+03</rscale>
<asrwt>0</asrwt>
<pdfrwt beam="1">  1        1 0.15658804E+00 0.74139247E+03</pdfrwt>
<pdfrwt beam="2">  1       -1 0.12155979E+00 0.74139247E+03</pdfrwt>
<totfact> 0.90917348E+00</totfact>
</mgrwt>
</event>
<event>
 4    1  0.1678003E-008  0.5376873E+03  0.7818608E-02  0.1004385E+00
         -1   -1    0    0    0  501 -0.00000000000E+00  0.00000000000E+00  0.56856700710E+03  0.56856700712E+03  0.50400000000E-02 0.  1.
          1   -1    0    0  501    0  0.00000000000E+00 -0.00000000000E+00 -0.62340398229E+03  0.62340398231E+03  0.50400000000E-02 0. -1.
    8880022    1    1    2    0    0  0.22472650579E+03 -0.46391158760E+03 -0.28330499185E+03  0.60775762844E+03  0.15294330000E+03 0.  0.
    8880022    1    1    2    0    0 -0.22472650579E+03  0.46391158760E+03  0.22846801665E+03  0.58421336099E+03  0.15294330000E+03 0.  0.
<mgrwt>
<rscale>  0 0.53768729E+03</rscale>
<asrwt>0</asrwt>
<pdfrwt beam="1">  1        1 0.95908304E-01 0.53768729E+03</pdfrwt>
<pdfrwt beam="2">  1       -1 0.87471848E-01 0.53768729E+03</pdfrwt>
<totfact> 0.43594738E+01</totfact>
</mgrwt>
</event>
<event>
 4    1  0.1678003E-008  0.7274935E+03  0.7818608E-02  0.9671336E-01
          1   -1    0    0  501    0  0.00000000000E+00  0.00000000000E+00  0.14471789821E+04  0.14471789821E+04  0.50400000000E-02 0. -1.
         -1   -1    0    0    0  501 -0.00000000000E+00 -0.00000000000E+00 -0.62747636541E+03  0.62747636543E+03  0.50400000000E-02 0.  1.
    8880022    1    1    2    0    0 -0.67736503518E+03 -0.21686813405E+03  0.10798512568E+04  0.13020466843E+04  0.15294330000E+03 0.  0.
    8880022    1    1    2    0    0  0.67736503518E+03  0.21686813405E+03 -0.26014864010E+03  0.77260866317E+03  0.15294330000E+03 0.  0.
<mgrwt>
<rscale>  0 0.72749353E+03</rscale>
<asrwt>0</asrwt>
<pdfrwt beam="1">  1        1 0.22264292E+00 0.72749353E+03</pdfrwt>
<pdfrwt beam="2">  1       -1 0.96534826E-01 0.72749353E+03</pdfrwt>
<totfact> 0.76669834E+00</totfact>
</mgrwt>
</event>
<event>
 4    1  0.1678003E-008  0.6621640E+03  0.7818608E-02  0.9784218E-01
         -1   -1    0    0    0  501 -0.00000000000E+00  0.00000000000E+00  0.77069084753E+03  0.77069084755E+03  0.50400000000E-02 0.  1.
          1   -1    0    0  501    0  0.00000000000E+00 -0.00000000000E+00 -0.11120843724E+04  0.11120843724E+04  0.50400000000E-02 0. -1.
    8880022    1    1    2    0    0  0.49759256721E+03  0.40923239219E+03 -0.82860509540E+03  0.10606825967E+04  0.15294330000E+03 0.  0.
    8880022    1    1    2    0    0 -0.49759256721E+03 -0.40923239219E+03  0.48721157054E+03  0.82209262328E+03  0.15294330000E+03 0.  0.
<mgrwt>
<rscale>  0 0.66216400E+03</rscale>
<asrwt>0</asrwt>
<pdfrwt beam="1">  1        1 0.17108990E+00 0.66216400E+03</pdfrwt>
<pdfrwt beam="2">  1       -1 0.11856782E+00 0.66216400E+03</pdfrwt>
<totfact> 0.83031100E+00</totfact>
</mgrwt>
</event>
<event>
 4    1  0.1678003E-008  0.2826994E+03  0.7818608E-02  0.1094224E+00
         -1   -1    0    0    0  501 -0.00000000000E+00  0.00000000000E+00  0.50389890667E+03  0.50389890670E+03  0.50400000000E-02 0.  1.
          1   -1    0    0  501    0  0.00000000000E+00 -0.00000000000E+00 -0.26447812266E+04  0.26447812267E+04  0.50400000000E-02 0. -1.
    8880022    1    1    2    0    0  0.10044654490E+03  0.21549431338E+03  0.45596447271E+03  0.53649096998E+03  0.15294330000E+03 0.  0.
    8880022    1    1    2    0    0 -0.10044654490E+03 -0.21549431338E+03 -0.25968467927E+04  0.26121891634E+04  0.15294330000E+03 0.  0.
<mgrwt>
<rscale>  0 0.28269942E+03</rscale>
<asrwt>0</asrwt>
<pdfrwt beam="1">  1        1 0.40688941E+00 0.28269942E+03</pdfrwt>
<pdfrwt beam="2">  1       -1 0.77522910E-01 0.28269942E+03</pdfrwt>
<totfact> 0.22339534E+00</totfact>
</mgrwt>
</event>
<event>
 4    1  0.1678003E-008  0.3879656E+03  0.7818608E-02  0.1048028E+00
          1   -1    0    0  501    0  0.00000000000E+00  0.00000000000E+00  0.12873460948E+04  0.12873460948E+04  0.50400000000E-02 0. -1.
         -1   -1    0    0    0  501 -0.00000000000E+00 -0.00000000000E+00 -0.23134746442E+03  0.23134746447E+03  0.50400000000E-02 0.  1.
    8880022    1    1    2    0    0  0.35032041126E+03  0.66342084053E+02  0.10620367810E+04  0.11306809629E+04  0.15294330000E+03 0.  0.
    8880022    1    1    2    0    0 -0.35032041126E+03 -0.66342084053E+02 -0.60381506263E+01  0.38801259637E+03  0.15294330000E+03 0.  0.
<mgrwt>
<rscale>  0 0.38796561E+03</rscale>
<asrwt>0</asrwt>
<pdfrwt beam="1">  1        1 0.19805324E+00 0.38796561E+03</pdfrwt>
<pdfrwt beam="2">  1       -1 0.35591918E-01 0.38796561E+03</pdfrwt>
<totfact> 0.74638717E+01</totfact>
</mgrwt>
</event>
<event>
 4    1  0.1678003E-008  0.1562726E+03  0.7818608E-02  0.1192970E+00
          1   -1    0    0  501    0  0.00000000000E+00  0.00000000000E+00  0.10873518341E+04  0.10873518341E+04  0.50400000000E-02 0. -1.
         -1   -1    0    0    0  501 -0.00000000000E+00 -0.00000000000E+00 -0.41113170308E+03  0.41113170311E+03  0.50400000000E-02 0.  1.
    8880022    1    1    2    0    0 -0.29941516631E+02  0.11532170043E+02 -0.39037954289E+03  0.42049652304E+03  0.15294330000E+03 0.  1.
    8880022    1    1    2    0    0  0.29941516631E+02 -0.11532170043E+02  0.10665996739E+04  0.10779870142E+04  0.15294330000E+03 0.  0.
<mgrwt>
<rscale>  0 0.15627264E+03</rscale>
<asrwt>0</asrwt>
<pdfrwt beam="1">  1        1 0.16728490E+00 0.15627264E+03</pdfrwt>
<pdfrwt beam="2">  1       -1 0.63251032E-01 0.15627264E+03</pdfrwt>
<totfact> 0.38520778E+01</totfact>
</mgrwt>
</event>
<event>
 4    1  0.1678003E-008  0.6390439E+03  0.7818608E-02  0.9827558E-01
          1   -1    0    0  501    0  0.00000000000E+00  0.00000000000E+00  0.20986670533E+04  0.20986670533E+04  0.50400000000E-02 0. -1.
         -1   -1    0    0    0  501 -0.00000000000E+00 -0.00000000000E+00 -0.84780780560E+03  0.84780780561E+03  0.50400000000E-02 0.  1.
    8880022    1    1    2    0    0  0.70545336731E+02  0.61644851989E+03 -0.66773390991E+03  0.92425410449E+03  0.15294330000E+03 0.  0.
    8880022    1    1    2    0    0 -0.70545336731E+02 -0.61644851989E+03  0.19185931576E+04  0.20222207544E+04  0.15294330000E+03 0.  0.
<mgrwt>
<rscale>  0 0.63904388E+03</rscale>
<asrwt>0</asrwt>
<pdfrwt beam="1">  1        1 0.32287185E+00 0.63904388E+03</pdfrwt>
<pdfrwt beam="2">  1       -1 0.13043197E+00 0.63904388E+03</pdfrwt>
<totfact> 0.13940107E+00</totfact>
</mgrwt>
</event>
<event>
 4    1  0.1678003E-008  0.2757281E+03  0.7818608E-02  0.1098045E+00
          1   -1    0    0  501    0  0.00000000000E+00  0.00000000000E+00  0.24628576346E+04  0.24628576346E+04  0.50400000000E-02 0. -1.
         -1   -1    0    0    0  501 -0.00000000000E+00 -0.00000000000E+00 -0.40178550655E+02  0.40178550972E+02  0.50400000000E-02 0.  1.
    8880022    1    1    2    0    0 -0.12453250992E+03  0.19268106426E+03  0.60891314960E+03  0.66843190777E+03  0.15294330000E+03 0.  0.
    8880022    1    1    2    0    0  0.12453250992E+03 -0.19268106426E+03  0.18137659343E+04  0.18346042778E+04  0.15294330000E+03 0.  0.
<mgrwt>
<rscale>  0 0.27572811E+03</rscale>
<asrwt>0</asrwt>
<pdfrwt beam="1">  1        1 0.37890116E+00 0.27572811E+03</pdfrwt>
<pdfrwt beam="2">  1       -1 0.61813158E-02 0.27572811E+03</pdfrwt>
<totfact> 0.21412899E+02</totfact>
</mgrwt>
</event>
<event>
 4    1  0.1678003E-008  0.6936300E+03  0.7818608E-02  0.9728188E-01
          1   -1    0    0  501    0  0.00000000000E+00  0.00000000000E+00  0.26148148063E+04  0.26148148063E+04  0.50400000000E-02 0. -1.
         -1   -1    0    0    0  501 -0.00000000000E+00 -0.00000000000E+00 -0.26772077450E+03  0.26772077454E+03  0.50400000000E-02 0.  1.
    8880022    1    1    2    0    0 -0.35750803241E+02 -0.67561290767E+03  0.36756827482E+03  0.78500255453E+03  0.15294330000E+03 0.  0.
    8880022    1    1    2    0    0  0.35750803241E+02  0.67561290767E+03  0.19795257570E+04  0.20975330264E+04  0.15294330000E+03 0.  0.
<mgrwt>
<rscale>  0 0.69363000E+03</rscale>
<asrwt>0</asrwt>
<pdfrwt beam="1">  1        1 0.40227923E+00 0.69363000E+03</pdfrwt>
<pdfrwt beam="2">  1       -1 0.41187809E-01 0.69363000E+03</pdfrwt>
<totfact> 0.69527849E+00</totfact>
</mgrwt>
</event>
<event>
 4    1  0.1678003E-008  0.2503221E+03  0.7818608E-02  0.1113101E+00
          1   -1    0    0  501    0  0.00000000000E+00  0.00000000000E+00  0.94509169288E+03  0.94509169289E+03  0.50400000000E-02 0. -1.
         -1   -1    0    0    0  501 -0.00000000000E+00 -0.00000000000E+00 -0.19925150068E+03  0.19925150075E+03  0.50400000000E-02 0.  1.
    8880022    1    1    2    0    0 -0.18744112769E+03  0.64306567987E+02 -0.94459100532E+02  0.26755127681E+03  0.15294330000E+03 0.  1.
    8880022    1    1    2    0    0  0.18744112769E+03 -0.64306567987E+02  0.84029929273E+03  0.87679191683E+03  0.15294330000E+03 0.  0.
<mgrwt>
<rscale>  0 0.25032212E+03</rscale>
<asrwt>0</asrwt>
<pdfrwt beam="1">  1        1 0.14539872E+00 0.25032212E+03</pdfrwt>
<pdfrwt beam="2">  1       -1 0.30654077E-01 0.25032212E+03</pdfrwt>
<totfact> 0.17586496E+02</totfact>
</mgrwt>
</event>
<event>
 4    1  0.1678003E-008  0.2313276E+03  0.7818608E-02  0.1125709E+00
          1   -1    0    0  501    0  0.00000000000E+00  0.00000000000E+00  0.52345373315E+03  0.52345373317E+03  0.50400000000E-02 0. -1.
         -1   -1    0    0    0  501 -0.00000000000E+00 -0.00000000000E+00 -0.41645760110E+03  0.41645760113E+03  0.50400000000E-02 0.  1.
    8880022    1    1    2    0    0 -0.25755091673E+02  0.17163176048E+03  0.46171777735E+03  0.51642593360E+03  0.15294330000E+03 0.  0.
    8880022    1    1    2    0    0  0.25755091673E+02 -0.17163176048E+03 -0.35472164530E+03  0.42348540071E+03  0.15294330000E+03 0.  0.
<mgrwt>
<rscale>  0 0.23132756E+03</rscale>
<asrwt>0</asrwt>
<pdfrwt beam="1">  1        1 0.80531343E-01 0.23132756E+03</pdfrwt>
<pdfrwt beam="2">  1       -1 0.64070401E-01 0.23132756E+03</pdfrwt>
<totfact> 0.11068750E+02</totfact>
</mgrwt>
</event>
<event>
 4    1  0.1678003E-008  0.4661824E+03  0.7818608E-02  0.1023003E+00
         -1   -1    0    0    0  501 -0.00000000000E+00  0.00000000000E+00  0.28431879015E+03  0.28431879019E+03  0.50400000000E-02 0.  1.
          1   -1    0    0  501    0  0.00000000000E+00 -0.00000000000E+00 -0.14713714856E+04  0.14713714857E+04  0.50400000000E-02 0. -1.
    8880022    1    1    2    0    0  0.23114152711E+03 -0.37484396675E+03 -0.12020332301E+04  0.12892672121E+04  0.15294330000E+03 0.  0.
    8880022    1    1    2    0    0 -0.23114152711E+03  0.37484396675E+03  0.14980534590E+02  0.46642306374E+03  0.15294330000E+03 0.  0.
<mgrwt>
<rscale>  0 0.46618243E+03</rscale>
<asrwt>0</asrwt>
<pdfrwt beam="1">  1        1 0.22636484E+00 0.46618243E+03</pdfrwt>
<pdfrwt beam="2">  1       -1 0.43741353E-01 0.46618243E+03</pdfrwt>
<totfact> 0.37986037E+01</totfact>
</mgrwt>
</event>
<event>
 4    1  0.1678003E-008  0.7391159E+03  0.7818608E-02  0.9652582E-01
          1   -1    0    0  501    0  0.00000000000E+00  0.00000000000E+00  0.10357101830E+04  0.10357101830E+04  0.50400000000E-02 0. -1.
         -1   -1    0    0    0  501 -0.00000000000E+00 -0.00000000000E+00 -0.86669348043E+03  0.86669348045E+03  0.50400000000E-02 0.  1.
    8880022    1    1    2    0    0 -0.41769433698E+03 -0.59028135896E+03  0.67961029315E+03  0.10040729284E+04  0.15294330000E+03 0.  0.
    8880022    1    1    2    0    0  0.41769433698E+03  0.59028135896E+03 -0.51059359059E+03  0.89833073510E+03  0.15294330000E+03 0.  0.
<mgrwt>
<rscale>  0 0.73911589E+03</rscale>
<asrwt>0</asrwt>
<pdfrwt beam="1">  1        1 0.15934003E+00 0.73911589E+03</pdfrwt>
<pdfrwt beam="2">  1       -1 0.13333746E+00 0.73911589E+03</pdfrwt>
<totfact> 0.69956220E+00</totfact>
</mgrwt>
</event>
<event>
 4    1  0.1678003E-008  0.5336446E+03  0.7818608E-02  0.1005352E+00
          1   -1    0    0  501    0  0.00000000000E+00  0.00000000000E+00  0.11502671555E+04  0.11502671555E+04  0.50400000000E-02 0. -1.
         -1   -1    0    0    0  501 -0.00000000000E+00 -0.00000000000E+00 -0.32902066009E+03  0.32902066013E+03  0.50400000000E-02 0.  1.
    8880022    1    1    2    0    0 -0.51069706723E+03  0.23945533205E+02  0.42623894527E+02  0.53534412524E+03  0.15294330000E+03 0.  0.
    8880022    1    1    2    0    0  0.51069706723E+03 -0.23945533205E+02  0.77862260089E+03  0.94394369041E+03  0.15294330000E+03 0.  0.
<mgrwt>
<rscale>  0 0.53364458E+03</rscale>
<asrwt>0</asrwt>
<pdfrwt beam="1">  1        1 0.17696418E+00 0.53364458E+03</pdfrwt>
<pdfrwt beam="2">  1       -1 0.50618563E-01 0.53364458E+03</pdfrwt>
<totfact> 0.48007480E+01</totfact>
</mgrwt>
</event>
<event>
 4    1  0.1678003E-008  0.1065804E+04  0.7818608E-02  0.9239178E-01
         -1   -1    0    0    0  501 -0.00000000000E+00  0.00000000000E+00  0.15787678025E+04  0.15787678025E+04  0.50400000000E-02 0.  1.
          1   -1    0    0  501    0  0.00000000000E+00 -0.00000000000E+00 -0.11985897796E+04  0.11985897796E+04  0.50400000000E-02 0. -1.
    8880022    1    1    2    0    0 -0.94997951698E+03 -0.45834964153E+03  0.10680415497E+04  0.15088571442E+04  0.15294330000E+03 0.  0.
    8880022    1    1    2    0    0  0.94997951698E+03  0.45834964153E+03 -0.68786352683E+03  0.12685004380E+04  0.15294330000E+03 0.  0.
<mgrwt>
<rscale>  0 0.10658035E+04</rscale>
<asrwt>0</asrwt>
<pdfrwt beam="1">  1        1 0.18439843E+00 0.10658035E+04</pdfrwt>
<pdfrwt beam="2">  1       -1 0.24288736E+00 0.10658035E+04</pdfrwt>
<totfact> 0.83016095E-01</totfact>
</mgrwt>
</event>
<event>
 4    1  0.1678003E-008  0.6961233E+03  0.7818608E-02  0.9723885E-01
          1   -1    0    0  501    0  0.00000000000E+00  0.00000000000E+00  0.25503099277E+04  0.25503099277E+04  0.50400000000E-02 0. -1.
         -1   -1    0    0    0  501 -0.00000000000E+00 -0.00000000000E+00 -0.49427197940E+03  0.49427197942E+03  0.50400000000E-02 0.  1.
    8880022    1    1    2    0    0  0.62650718302E+03  0.26207764377E+03 -0.16634753590E+03  0.71572277975E+03  0.15294330000E+03 0.  0.
    8880022    1    1    2    0    0 -0.62650718302E+03 -0.26207764377E+03  0.22223854842E+04  0.23288591273E+04  0.15294330000E+03 0.  0.
<mgrwt>
<rscale>  0 0.69612326E+03</rscale>
<asrwt>0</asrwt>
<pdfrwt beam="1">  1        1 0.39235538E+00 0.69612326E+03</pdfrwt>
<pdfrwt beam="2">  1       -1 0.76041843E-01 0.69612326E+03</pdfrwt>
<totfact> 0.23365333E+00</totfact>
</mgrwt>
</event>
<event>
 4    1  0.1678003E-008  0.3203197E+03  0.7818608E-02  0.1075502E+00
          1   -1    0    0  501    0  0.00000000000E+00  0.00000000000E+00  0.53900373458E+03  0.53900373461E+03  0.50400000000E-02 0. -1.
         -1   -1    0    0    0  501 -0.00000000000E+00 -0.00000000000E+00 -0.25856269612E+03  0.25856269617E+03  0.50400000000E-02 0.  1.
    8880022    1    1    2    0    0 -0.21659740147E+03  0.17971813095E+03  0.34503235263E+03  0.47079933973E+03  0.15294330000E+03 0.  0.
    8880022    1    1    2    0    0  0.21659740147E+03 -0.17971813095E+03 -0.64591314171E+02  0.32676709105E+03  0.15294330000E+03 0.  1.
<mgrwt>
<rscale>  0 0.32031967E+03</rscale>
<asrwt>0</asrwt>
<pdfrwt beam="1">  1        1 0.82923651E-01 0.32031967E+03</pdfrwt>
<pdfrwt beam="2">  1       -1 0.39778877E-01 0.32031967E+03</pdfrwt>
<totfact> 0.25535294E+02</totfact>
</mgrwt>
</event>
<event>
 4    1  0.1678003E-008  0.1054659E+04  0.7818608E-02  0.9250547E-01
          1   -1    0    0  501    0  0.00000000000E+00  0.00000000000E+00  0.16042421280E+04  0.16042421280E+04  0.50400000000E-02 0. -1.
         -1   -1    0    0    0  501 -0.00000000000E+00 -0.00000000000E+00 -0.88616708464E+03  0.88616708465E+03  0.50400000000E-02 0.  1.
    8880022    1    1    2    0    0 -0.93623722273E+03 -0.46084019814E+03  0.93987244317E+03  0.14126803205E+04  0.15294330000E+03 0.  0.
    8880022    1    1    2    0    0  0.93623722273E+03  0.46084019814E+03 -0.22179739980E+03  0.10777288922E+04  0.15294330000E+03 0.  0.
<mgrwt>
<rscale>  0 0.10546589E+04</rscale>
<asrwt>0</asrwt>
<pdfrwt beam="1">  1        1 0.24680648E+00 0.10546589E+04</pdfrwt>
<pdfrwt beam="2">  1       -1 0.13633340E+00 0.10546589E+04</pdfrwt>
<totfact> 0.24872348E+00</totfact>
</mgrwt>
</event>
<event>
 4    1  0.1678003E-008  0.5481735E+03  0.7818608E-02  0.1001918E+00
         -1   -1    0    0    0  501 -0.00000000000E+00  0.00000000000E+00  0.63594592337E+03  0.63594592339E+03  0.50400000000E-02 0.  1.
          1   -1    0    0  501    0  0.00000000000E+00 -0.00000000000E+00 -0.90277596866E+03  0.90277596868E+03  0.50400000000E-02 0. -1.
    8880022    1    1    2    0    0  0.46593797646E+03 -0.24495779978E+03 -0.66455130487E+03  0.86146538607E+03  0.15294330000E+03 0.  0.
    8880022    1    1    2    0    0 -0.46593797646E+03  0.24495779978E+03  0.39772125958E+03  0.67725650600E+03  0.15294330000E+03 0.  0.
<mgrwt>
<rscale>  0 0.54817349E+03</rscale>
<asrwt>0</asrwt>
<pdfrwt beam="1">  1        1 0.13888861E+00 0.54817349E+03</pdfrwt>
<pdfrwt beam="2">  1       -1 0.97837834E-01 0.54817349E+03</pdfrwt>
<totfact> 0.19191256E+01</totfact>
</mgrwt>
</event>
<event>
 4    1  0.1678003E-008  0.9444739E+03  0.7818608E-02  0.9371633E-01
          1   -1    0    0  501    0  0.00000000000E+00  0.00000000000E+00  0.18390935903E+04  0.18390935903E+04  0.50400000000E-02 0. -1.
         -1   -1    0    0    0  501 -0.00000000000E+00 -0.00000000000E+00 -0.57861815632E+03  0.57861815634E+03  0.50400000000E-02 0.  1.
    8880022    1    1    2    0    0 -0.52182118231E+03  0.77223184130E+03  0.11163867731E+04  0.14623099683E+04  0.15294330000E+03 0.  0.
    8880022    1    1    2    0    0  0.52182118231E+03 -0.77223184130E+03  0.14408866089E+03  0.95540177843E+03  0.15294330000E+03 0.  0.
<mgrwt>
<rscale>  0 0.94447394E+03</rscale>
<asrwt>0</asrwt>
<pdfrwt beam="1">  1        1 0.28293748E+00 0.94447394E+03</pdfrwt>
<pdfrwt beam="2">  1       -1 0.89018177E-01 0.94447394E+03</pdfrwt>
<totfact> 0.48214765E+00</totfact>
</mgrwt>
</event>
<event>
 4    1  0.1678003E-008  0.7371180E+03  0.7818608E-02  0.9655780E-01
         -1   -1    0    0    0  501 -0.00000000000E+00  0.00000000000E+00  0.41907115195E+03  0.41907115198E+03  0.50400000000E-02 0.  1.
          1   -1    0    0  501    0  0.00000000000E+00 -0.00000000000E+00 -0.15152822866E+04  0.15152822866E+04  0.50400000000E-02 0. -1.
    8880022    1    1    2    0    0  0.31247167505E+03 -0.64985588992E+03 -0.18063330305E+03  0.75892770971E+03  0.15294330000E+03 0.  0.
    8880022    1    1    2    0    0 -0.31247167505E+03  0.64985588992E+03 -0.91557783159E+03  0.11754257289E+04  0.15294330000E+03 0.  0.
<mgrwt>
<rscale>  0 0.73711795E+03</rscale>
<asrwt>0</asrwt>
<pdfrwt beam="1">  1        1 0.23312035E+00 0.73711795E+03</pdfrwt>
<pdfrwt beam="2">  1       -1 0.64472485E-01 0.73711795E+03</pdfrwt>
<totfact> 0.16163797E+01</totfact>
</mgrwt>
</event>
<event>
 4    1  0.1678003E-008  0.2139364E+03  0.7818608E-02  0.1138486E+00
         -1   -1    0    0    0  501 -0.00000000000E+00  0.00000000000E+00  0.26022161185E+04  0.26022161185E+04  0.50400000000E-02 0.  1.
          1   -1    0    0  501    0  0.00000000000E+00 -0.00000000000E+00 -0.13076269029E+03  0.13076269038E+03  0.50400000000E-02 0. -1.
    8880022    1    1    2    0    0 -0.13988820786E+03 -0.52994606151E+02  0.25069980478E+04  0.25161096963E+04  0.15294330000E+03 0.  0.
    8880022    1    1    2    0    0  0.13988820786E+03  0.52994606151E+02 -0.35544619647E+02  0.21686911256E+03  0.15294330000E+03 0. -1.
<mgrwt>
<rscale>  0 0.21393642E+03</rscale>
<asrwt>0</asrwt>
<pdfrwt beam="1">  1        1 0.20117336E-01 0.21393642E+03</pdfrwt>
<pdfrwt beam="2">  1       -1 0.40034097E+00 0.21393642E+03</pdfrwt>
<totfact> 0.22929261E+00</totfact>
</mgrwt>
</event>
<event>
 4    1  0.1678003E-008  0.9306041E+03  0.7818608E-02  0.9388113E-01
         -1   -1    0    0    0  501 -0.00000000000E+00  0.00000000000E+00  0.14726338672E+04  0.14726338672E+04  0.50400000000E-02 0.  1.
          1   -1    0    0  501    0  0.00000000000E+00 -0.00000000000E+00 -0.61686721030E+03  0.61686721032E+03  0.50400000000E-02 0. -1.
    8880022    1    1    2    0    0 -0.52235030590E+03 -0.75483935689E+03  0.20218427401E+03  0.95231424984E+03  0.15294330000E+03 0.  0.
    8880022    1    1    2    0    0  0.52235030590E+03  0.75483935689E+03  0.65358238286E+03  0.11371868276E+04  0.15294330000E+03 0.  0.
<mgrwt>
<rscale>  0 0.93060408E+03</rscale>
<asrwt>0</asrwt>
<pdfrwt beam="1">  1        1 0.94902648E-01 0.93060408E+03</pdfrwt>
<pdfrwt beam="2">  1       -1 0.22655906E+00 0.93060408E+03</pdfrwt>
<totfact> 0.33203275E+00</totfact>
</mgrwt>
</event>
<event>
 4    1  0.1678003E-008  0.6866661E+03  0.7818608E-02  0.9740311E-01
         -1   -1    0    0    0  501 -0.00000000000E+00  0.00000000000E+00  0.22436329630E+03  0.22436329636E+03  0.50400000000E-02 0.  1.
          1   -1    0    0  501    0  0.00000000000E+00 -0.00000000000E+00 -0.23085213086E+04  0.23085213086E+04  0.50400000000E-02 0. -1.
    8880022    1    1    2    0    0 -0.54465229495E+03 -0.38919469423E+03 -0.66287282480E+03  0.95441640141E+03  0.15294330000E+03 0.  0.
    8880022    1    1    2    0    0  0.54465229495E+03  0.38919469423E+03 -0.14212851875E+04  0.15784682036E+04  0.15294330000E+03 0.  0.
<mgrwt>
<rscale>  0 0.68666607E+03</rscale>
<asrwt>0</asrwt>
<pdfrwt beam="1">  1        1 0.35515711E+00 0.68666607E+03</pdfrwt>
<pdfrwt beam="2">  1       -1 0.34517432E-01 0.68666607E+03</pdfrwt>
<totfact> 0.15451206E+01</totfact>
</mgrwt>
</event>
<event>
 4    1  0.1678003E-008  0.5258279E+03  0.7818608E-02  0.1007249E+00
         -1   -1    0    0    0  501 -0.00000000000E+00  0.00000000000E+00  0.58620327612E+03  0.58620327614E+03  0.50400000000E-02 0.  1.
          1   -1    0    0  501    0  0.00000000000E+00 -0.00000000000E+00 -0.11379444265E+04  0.11379444266E+04  0.50400000000E-02 0. -1.
    8880022    1    1    2    0    0  0.33644101596E+02 -0.50196757049E+03 -0.93551550391E+03  0.10731655410E+04  0.15294330000E+03 0.  0.
    8880022    1    1    2    0    0 -0.33644101596E+02  0.50196757049E+03  0.38377435348E+03  0.65098216166E+03  0.15294330000E+03 0.  0.
<mgrwt>
<rscale>  0 0.52582794E+03</rscale>
<asrwt>0</asrwt>
<pdfrwt beam="1">  1        1 0.17506837E+00 0.52582794E+03</pdfrwt>
<pdfrwt beam="2">  1       -1 0.90185120E-01 0.52582794E+03</pdfrwt>
<totfact> 0.15267485E+01</totfact>
</mgrwt>
</event>
<event>
 4    1  0.1678003E-008  0.3529433E+03  0.7818608E-02  0.1061413E+00
          1   -1    0    0  501    0  0.00000000000E+00  0.00000000000E+00  0.60261192882E+03  0.60261192884E+03  0.50400000000E-02 0. -1.
         -1   -1    0    0    0  501 -0.00000000000E+00 -0.00000000000E+00 -0.27327463088E+03  0.27327463093E+03  0.50400000000E-02 0.  1.
    8880022    1    1    2    0    0  0.25543270628E+03 -0.18955585710E+03  0.38080288262E+03  0.51921072680E+03  0.15294330000E+03 0.  0.
    8880022    1    1    2    0    0 -0.25543270628E+03  0.18955585710E+03 -0.51465584682E+02  0.35667583296E+03  0.15294330000E+03 0.  0.
<mgrwt>
<rscale>  0 0.35294326E+03</rscale>
<asrwt>0</asrwt>
<pdfrwt beam="1">  1        1 0.92709526E-01 0.35294326E+03</pdfrwt>
<pdfrwt beam="2">  1       -1 0.42042252E-01 0.35294326E+03</pdfrwt>
<totfact> 0.19742359E+02</totfact>
</mgrwt>
</event>
<event>
 4    1  0.1678003E-008  0.1239272E+04  0.7818608E-02  0.9079160E-01
         -1   -1    0    0    0  501 -0.00000000000E+00  0.00000000000E+00  0.12523367953E+04  0.12523367953E+04  0.50400000000E-02 0.  1.
          1   -1    0    0  501    0  0.00000000000E+00 -0.00000000000E+00 -0.15367824246E+04  0.15367824246E+04  0.50400000000E-02 0. -1.
    8880022    1    1    2    0    0 -0.19627829114E+03  0.12140337973E+04  0.48456290196E+03  0.13306374741E+04  0.15294330000E+03 0.  0.
    8880022    1    1    2    0    0  0.19627829114E+03 -0.12140337973E+04 -0.76900853121E+03  0.14584817458E+04  0.15294330000E+03 0.  0.
<mgrwt>
<rscale>  0 0.12392719E+04</rscale>
<asrwt>0</asrwt>
<pdfrwt beam="1">  1        1 0.23642806E+00 0.12392719E+04</pdfrwt>
<pdfrwt beam="2">  1       -1 0.19266720E+00 0.12392719E+04</pdfrwt>
<totfact> 0.10182215E+00</totfact>
</mgrwt>
</event>
<event>
 4    1  0.1678003E-008  0.5283102E+03  0.7818608E-02  0.1006643E+00
         -1   -1    0    0    0  501 -0.00000000000E+00  0.00000000000E+00  0.61014742872E+03  0.61014742874E+03  0.50400000000E-02 0.  1.
          1   -1    0    0  501    0  0.00000000000E+00 -0.00000000000E+00 -0.53168795365E+03  0.53168795368E+03  0.50400000000E-02 0. -1.
    8880022    1    1    2    0    0 -0.37578842608E+03 -0.33838303187E+03  0.25256339788E+03  0.58557658798E+03  0.15294330000E+03 0.  0.
    8880022    1    1    2    0    0  0.37578842608E+03  0.33838303187E+03 -0.17410392281E+03  0.55625879443E+03  0.15294330000E+03 0.  0.
<mgrwt>
<rscale>  0 0.52831020E+03</rscale>
<asrwt>0</asrwt>
<pdfrwt beam="1">  1        1 0.81798147E-01 0.52831020E+03</pdfrwt>
<pdfrwt beam="2">  1       -1 0.93868835E-01 0.52831020E+03</pdfrwt>
<totfact> 0.46794394E+01</totfact>
</mgrwt>
</event>
<event>
 4    1  0.1678003E-008  0.1240425E+04  0.7818608E-02  0.9078191E-01
         -1   -1    0    0    0  501 -0.00000000000E+00  0.00000000000E+00  0.23485169526E+04  0.23485169526E+04  0.50400000000E-02 0.  1.
          1   -1    0    0  501    0  0.00000000000E+00 -0.00000000000E+00 -0.13146417044E+04  0.13146417044E+04  0.50400000000E-02 0. -1.
    8880022    1    1    2    0    0  0.10020603338E+04  0.71493844511E+03 -0.78031190476E+03  0.14654488099E+04  0.15294330000E+03 0.  0.
    8880022    1    1    2    0    0 -0.10020603338E+04 -0.71493844511E+03  0.18141871529E+04  0.21977098470E+04  0.15294330000E+03 0.  0.
<mgrwt>
<rscale>  0 0.12404247E+04</rscale>
<asrwt>0</asrwt>
<pdfrwt beam="1">  1        1 0.20225257E+00 0.12404247E+04</pdfrwt>
<pdfrwt beam="2">  1       -1 0.36131030E+00 0.12404247E+04</pdfrwt>
<totfact> 0.11335486E-01</totfact>
</mgrwt>
</event>
<event>
 4    1  0.1678003E-008  0.4692505E+03  0.7818608E-02  0.1022132E+00
          1   -1    0    0  501    0  0.00000000000E+00  0.00000000000E+00  0.50271500151E+03  0.50271500153E+03  0.50400000000E-02 0. -1.
         -1   -1    0    0    0  501 -0.00000000000E+00 -0.00000000000E+00 -0.68015078931E+03  0.68015078933E+03  0.50400000000E-02 0.  1.
    8880022    1    1    2    0    0  0.28804261339E+03  0.33739566256E+03 -0.44160320060E+03  0.64436745731E+03  0.15294330000E+03 0.  1.
    8880022    1    1    2    0    0 -0.28804261339E+03 -0.33739566256E+03  0.26416741279E+03  0.53849833356E+03  0.15294330000E+03 0.  0.
<mgrwt>
<rscale>  0 0.46925050E+03</rscale>
<asrwt>0</asrwt>
<pdfrwt beam="1">  1        1 0.77340769E-01 0.46925050E+03</pdfrwt>
<pdfrwt beam="2">  1       -1 0.10463858E+00 0.46925050E+03</pdfrwt>
<totfact> 0.39860906E+01</totfact>
</mgrwt>
</event>
<event>
 4    1  0.1678003E-008  0.6710287E+03  0.7818608E-02  0.9768101E-01
          1   -1    0    0  501    0  0.00000000000E+00  0.00000000000E+00  0.12051285601E+04  0.12051285601E+04  0.50400000000E-02 0. -1.
         -1   -1    0    0    0  501 -0.00000000000E+00 -0.00000000000E+00 -0.92196678074E+03  0.92196678076E+03  0.50400000000E-02 0.  1.
    8880022    1    1    2    0    0 -0.50083575727E+02  0.65144418984E+03 -0.67862067310E+03  0.95436134038E+03  0.15294330000E+03 0.  1.
    8880022    1    1    2    0    0  0.50083575727E+02 -0.65144418984E+03  0.96178245244E+03  0.11727340005E+04  0.15294330000E+03 0.  0.
<mgrwt>
<rscale>  0 0.67102873E+03</rscale>
<asrwt>0</asrwt>
<pdfrwt beam="1">  1        1 0.18540439E+00 0.67102873E+03</pdfrwt>
<pdfrwt beam="2">  1       -1 0.14184104E+00 0.67102873E+03</pdfrwt>
<totfact> 0.45193625E+00</totfact>
</mgrwt>
</event>
<event>
 4    1  0.1678003E-008  0.5795385E+03  0.7818608E-02  0.9948791E-01
          1   -1    0    0  501    0  0.00000000000E+00  0.00000000000E+00  0.32573054016E+03  0.32573054020E+03  0.50400000000E-02 0. -1.
         -1   -1    0    0    0  501 -0.00000000000E+00 -0.00000000000E+00 -0.15402175258E+04  0.15402175258E+04  0.50400000000E-02 0.  1.
    8880022    1    1    2    0    0 -0.52027872766E+03 -0.20440949901E+03 -0.11436353707E+04  0.12820946580E+04  0.15294330000E+03 0.  0.
    8880022    1    1    2    0    0  0.52027872766E+03  0.20440949901E+03 -0.70851614897E+02  0.58385340804E+03  0.15294330000E+03 0.  0.
<mgrwt>
<rscale>  0 0.57953848E+03</rscale>
<asrwt>0</asrwt>
<pdfrwt beam="1">  1        1 0.50112392E-01 0.57953848E+03</pdfrwt>
<pdfrwt beam="2">  1       -1 0.23695654E+00 0.57953848E+03</pdfrwt>
<totfact> 0.71034319E+00</totfact>
</mgrwt>
</event>
<event>
 4    1  0.1678003E-008  0.1996201E+03  0.7818608E-02  0.1150060E+00
         -1   -1    0    0    0  501 -0.00000000000E+00  0.00000000000E+00  0.74626650354E+03  0.74626650355E+03  0.50400000000E-02 0.  1.
          1   -1    0    0  501    0  0.00000000000E+00 -0.00000000000E+00 -0.37966518439E+03  0.37966518442E+03  0.50400000000E-02 0. -1.
    8880022    1    1    2    0    0  0.12034910087E+03 -0.44414143246E+02  0.70517893228E+03  0.73288846474E+03  0.15294330000E+03 0.  0.
    8880022    1    1    2    0    0 -0.12034910087E+03  0.44414143246E+02 -0.33857761314E+03  0.39304322324E+03  0.15294330000E+03 0. -1.
<mgrwt>
<rscale>  0 0.19962008E+03</rscale>
<asrwt>0</asrwt>
<pdfrwt beam="1">  1        1 0.58410029E-01 0.19962008E+03</pdfrwt>
<pdfrwt beam="2">  1       -1 0.11481023E+00 0.19962008E+03</pdfrwt>
<totfact> 0.49115242E+01</totfact>
</mgrwt>
</event>
<event>
 4    1  0.1678003E-008  0.7964251E+03  0.7818608E-02  0.9565206E-01
         -1   -1    0    0    0  501 -0.00000000000E+00  0.00000000000E+00  0.59800515151E+03  0.59800515153E+03  0.50400000000E-02 0.  1.
          1   -1    0    0  501    0  0.00000000000E+00 -0.00000000000E+00 -0.14069572785E+04  0.14069572785E+04  0.50400000000E-02 0. -1.
    8880022    1    1    2    0    0 -0.71623662663E+03 -0.31289983250E+03 -0.90180873390E+03  0.12031424920E+04  0.15294330000E+03 0.  0.
    8880022    1    1    2    0    0  0.71623662663E+03  0.31289983250E+03  0.92856606945E+02  0.80181993800E+03  0.15294330000E+03 0.  0.
<mgrwt>
<rscale>  0 0.79642505E+03</rscale>
<asrwt>0</asrwt>
<pdfrwt beam="1">  1        1 0.21645497E+00 0.79642505E+03</pdfrwt>
<pdfrwt beam="2">  1       -1 0.92000793E-01 0.79642505E+03</pdfrwt>
<totfact> 0.90083184E+00</totfact>
</mgrwt>
</event>
<event>
 4    1  0.1678003E-008  0.7550662E+03  0.7818608E-02  0.9627436E-01
          1   -1    0    0  501    0  0.00000000000E+00  0.00000000000E+00  0.65471032983E+03  0.65471032985E+03  0.50400000000E-02 0. -1.
         -1   -1    0    0    0  501 -0.00000000000E+00 -0.00000000000E+00 -0.10133677782E+04  0.10133677782E+04  0.50400000000E-02 0.  1.
    8880022    1    1    2    0    0  0.54069083169E+03 -0.50436768032E+03 -0.49215701188E+03  0.90130100953E+03  0.15294330000E+03 0.  0.
    8880022    1    1    2    0    0 -0.54069083169E+03  0.50436768032E+03  0.13349956348E+03  0.76677709857E+03  0.15294330000E+03 0.  0.
<mgrwt>
<rscale>  0 0.75506621E+03</rscale>
<asrwt>0</asrwt>
<pdfrwt beam="1">  1        1 0.10072467E+00 0.75506621E+03</pdfrwt>
<pdfrwt beam="2">  1       -1 0.15590273E+00 0.75506621E+03</pdfrwt>
<totfact> 0.97482338E+00</totfact>
</mgrwt>
</event>
<event>
 4    1  0.1678003E-008  0.6297874E+03  0.7818608E-02  0.9845464E-01
          1   -1    0    0  501    0  0.00000000000E+00  0.00000000000E+00  0.21104696527E+04  0.21104696527E+04  0.50400000000E-02 0. -1.
         -1   -1    0    0    0  501 -0.00000000000E+00 -0.00000000000E+00 -0.37210689257E+03  0.37210689261E+03  0.50400000000E-02 0.  1.
    8880022    1    1    2    0    0 -0.13351427034E+03 -0.59616642526E+03 -0.40913702657E+01  0.62980065046E+03  0.15294330000E+03 0.  0.
    8880022    1    1    2    0    0  0.13351427034E+03  0.59616642526E+03  0.17424541304E+04  0.18527758948E+04  0.15294330000E+03 0.  0.
<mgrwt>
<rscale>  0 0.62978736E+03</rscale>
<asrwt>0</asrwt>
<pdfrwt beam="1">  1        1 0.32468764E+00 0.62978736E+03</pdfrwt>
<pdfrwt beam="2">  1       -1 0.57247214E-01 0.62978736E+03</pdfrwt>
<totfact> 0.83031702E+00</totfact>
</mgrwt>
</event>
<event>
 4    1  0.1678003E-008  0.1006845E+04  0.7818608E-02  0.9301069E-01
         -1   -1    0    0    0  501 -0.00000000000E+00  0.00000000000E+00  0.84117816167E+03  0.84117816169E+03  0.50400000000E-02 0.  1.
          1   -1    0    0  501    0  0.00000000000E+00 -0.00000000000E+00 -0.17006522770E+04  0.17006522770E+04  0.50400000000E-02 0. -1.
    8880022    1    1    2    0    0 -0.80364470690E+03 -0.58694085278E+03 -0.11157570398E+04  0.15028805024E+04  0.15294330000E+03 0.  0.
    8880022    1    1    2    0    0  0.80364470690E+03  0.58694085278E+03  0.25628292453E+03  0.10389499362E+04  0.15294330000E+03 0.  0.
<mgrwt>
<rscale>  0 0.10068446E+04</rscale>
<asrwt>0</asrwt>
<pdfrwt beam="1">  1        1 0.26163881E+00 0.10068446E+04</pdfrwt>
<pdfrwt beam="2">  1       -1 0.12941202E+00 0.10068446E+04</pdfrwt>
<totfact> 0.24580763E+00</totfact>
</mgrwt>
</event>
<event>
 4    1  0.1678003E-008  0.2561333E+03  0.7818608E-02  0.1109489E+00
         -1   -1    0    0    0  501 -0.00000000000E+00  0.00000000000E+00  0.75965383482E+03  0.75965383484E+03  0.50400000000E-02 0.  1.
          1   -1    0    0  501    0  0.00000000000E+00 -0.00000000000E+00 -0.10711987185E+03  0.10711987197E+03  0.50400000000E-02 0. -1.
    8880022    1    1    2    0    0  0.16646848213E+03 -0.12041946322E+03  0.13548143721E+03  0.28975761510E+03  0.15294330000E+03 0.  0.
    8880022    1    1    2    0    0 -0.16646848213E+03  0.12041946322E+03  0.51705252577E+03  0.57701609170E+03  0.15294330000E+03 0.  0.
<mgrwt>
<rscale>  0 0.25613328E+03</rscale>
<asrwt>0</asrwt>
<pdfrwt beam="1">  1        1 0.16479980E-01 0.25613328E+03</pdfrwt>
<pdfrwt beam="2">  1       -1 0.11686982E+00 0.25613328E+03</pdfrwt>
<totfact> 0.23279883E+02</totfact>
</mgrwt>
</event>
<event>
 4    1  0.1678003E-008  0.3093898E+03  0.7818608E-02  0.1080639E+00
         -1   -1    0    0    0  501 -0.00000000000E+00  0.00000000000E+00  0.18153551117E+03  0.18153551124E+03  0.50400000000E-02 0.  1.
          1   -1    0    0  501    0  0.00000000000E+00 -0.00000000000E+00 -0.74620520631E+03  0.74620520632E+03  0.50400000000E-02 0. -1.
    8880022    1    1    2    0    0 -0.11470943954E+02 -0.26869831642E+03 -0.53358397906E+03  0.61679322591E+03  0.15294330000E+03 0.  0.
    8880022    1    1    2    0    0  0.11470943954E+02  0.26869831642E+03 -0.31085716076E+02  0.31094749165E+03  0.15294330000E+03 0.  0.
<mgrwt>
<rscale>  0 0.30938976E+03</rscale>
<asrwt>0</asrwt>
<pdfrwt beam="1">  1        1 0.11480080E+00 0.30938976E+03</pdfrwt>
<pdfrwt beam="2">  1       -1 0.27928540E-01 0.30938976E+03</pdfrwt>
<totfact> 0.29713777E+02</totfact>
</mgrwt>
</event>
<event>
 4    1  0.1678003E-008  0.5170332E+03  0.7818608E-02  0.1009426E+00
          1   -1    0    0  501    0  0.00000000000E+00  0.00000000000E+00  0.75011290651E+03  0.75011290653E+03  0.50400000000E-02 0. -1.
         -1   -1    0    0    0  501 -0.00000000000E+00 -0.00000000000E+00 -0.51108851504E+03  0.51108851507E+03  0.50400000000E-02 0.  1.
    8880022    1    1    2    0    0  0.49250567555E+03  0.37011354230E+02 -0.22743794359E+03  0.56484630829E+03  0.15294330000E+03 0.  0.
    8880022    1    1    2    0    0 -0.49250567555E+03 -0.37011354230E+02  0.46646233506E+03  0.69635511331E+03  0.15294330000E+03 0.  0.
<mgrwt>
<rscale>  0 0.51703320E+03</rscale>
<asrwt>0</asrwt>
<pdfrwt beam="1">  1        1 0.11540199E+00 0.51703320E+03</pdfrwt>
<pdfrwt beam="2">  1       -1 0.78629003E-01 0.51703320E+03</pdfrwt>
<totfact> 0.41677442E+01</totfact>
</mgrwt>
</event>
<event>
 4    1  0.1678003E-008  0.1501710E+04  0.7818608E-02  0.8883317E-01
          1   -1    0    0  501    0  0.00000000000E+00  0.00000000000E+00  0.21660321541E+04  0.21660321541E+04  0.50400000000E-02 0. -1.
         -1   -1    0    0    0  501 -0.00000000000E+00 -0.00000000000E+00 -0.18202211499E+04  0.18202211499E+04  0.50400000000E-02 0.  1.
    8880022    1    1    2    0    0 -0.14330919752E+04  0.42188676536E+03  0.14768690622E+04  0.21062466456E+04  0.15294330000E+03 0. -1.
    8880022    1    1    2    0    0  0.14330919752E+04 -0.42188676536E+03 -0.11310580580E+04  0.18800066585E+04  0.15294330000E+03 0.  0.
<mgrwt>
<rscale>  0 0.15017099E+04</rscale>
<asrwt>0</asrwt>
<pdfrwt beam="1">  1        1 0.33323571E+00 0.15017099E+04</pdfrwt>
<pdfrwt beam="2">  1       -1 0.28003403E+00 0.15017099E+04</pdfrwt>
<totfact> 0.96369638E-02</totfact>
</mgrwt>
</event>
<event>
 4    1  0.1678003E-008  0.3363546E+03  0.7818608E-02  0.1068359E+00
          1   -1    0    0  501    0  0.00000000000E+00  0.00000000000E+00  0.14852210389E+04  0.14852210389E+04  0.50400000000E-02 0. -1.
         -1   -1    0    0    0  501 -0.00000000000E+00 -0.00000000000E+00 -0.23896218763E+03  0.23896218769E+03  0.50400000000E-02 0.  1.
    8880022    1    1    2    0    0 -0.15206200428E+03 -0.25810832134E+03 -0.88413334471E+02  0.34778057654E+03  0.15294330000E+03 0.  0.
    8880022    1    1    2    0    0  0.15206200428E+03  0.25810832134E+03  0.13346721857E+04  0.13764026501E+04  0.15294330000E+03 0.  0.
<mgrwt>
<rscale>  0 0.33635459E+03</rscale>
<asrwt>0</asrwt>
<pdfrwt beam="1">  1        1 0.22849554E+00 0.33635459E+03</pdfrwt>
<pdfrwt beam="2">  1       -1 0.36763414E-01 0.33635459E+03</pdfrwt>
<totfact> 0.52259273E+01</totfact>
</mgrwt>
</event>
<event>
 4    1  0.1678003E-008  0.1017409E+04  0.7818608E-02  0.9289654E-01
         -1   -1    0    0    0  501 -0.00000000000E+00  0.00000000000E+00  0.93685208444E+03  0.93685208445E+03  0.50400000000E-02 0.  1.
          1   -1    0    0  501    0  0.00000000000E+00 -0.00000000000E+00 -0.19554145170E+04  0.19554145171E+04  0.50400000000E-02 0. -1.
    8880022    1    1    2    0    0  0.75080380992E+03 -0.66934571172E+03  0.44446198880E+03  0.11102558963E+04  0.15294330000E+03 0.  0.
    8880022    1    1    2    0    0 -0.75080380992E+03  0.66934571172E+03 -0.14630244214E+04  0.17820107052E+04  0.15294330000E+03 0.  0.
<mgrwt>
<rscale>  0 0.10174093E+04</rscale>
<asrwt>0</asrwt>
<pdfrwt beam="1">  1        1 0.30083300E+00 0.10174093E+04</pdfrwt>
<pdfrwt beam="2">  1       -1 0.14413109E+00 0.10174093E+04</pdfrwt>
<totfact> 0.12500252E+00</totfact>
</mgrwt>
</event>
<event>
 4    1  0.1678003E-008  0.3076613E+03  0.7818608E-02  0.1081472E+00
         -1   -1    0    0    0  501 -0.00000000000E+00  0.00000000000E+00  0.46170206149E+03  0.46170206152E+03  0.50400000000E-02 0.  1.
          1   -1    0    0  501    0  0.00000000000E+00 -0.00000000000E+00 -0.14535509732E+04  0.14535509732E+04  0.50400000000E-02 0. -1.
    8880022    1    1    2    0    0  0.10706464469E+03  0.24454234951E+03 -0.13834517332E+04  0.14172487961E+04  0.15294330000E+03 0.  0.
    8880022    1    1    2    0    0 -0.10706464469E+03 -0.24454234951E+03  0.39160282152E+03  0.49800423862E+03  0.15294330000E+03 0.  0.
<mgrwt>
<rscale>  0 0.30766126E+03</rscale>
<asrwt>0</asrwt>
<pdfrwt beam="1">  1        1 0.22362322E+00 0.30766126E+03</pdfrwt>
<pdfrwt beam="2">  1       -1 0.71031087E-01 0.30766126E+03</pdfrwt>
<totfact> 0.16068952E+01</totfact>
</mgrwt>
</event>
<event>
 4    1  0.1678003E-008  0.1011499E+04  0.7818608E-02  0.9296022E-01
         -1   -1    0    0    0  501 -0.00000000000E+00  0.00000000000E+00  0.37031345278E+03  0.37031345281E+03  0.50400000000E-02 0.  1.
          1   -1    0    0  501    0  0.00000000000E+00 -0.00000000000E+00 -0.29053259380E+04  0.29053259380E+04  0.50400000000E-02 0. -1.
    8880022    1    1    2    0    0  0.55622115799E+03 -0.83087741326E+03 -0.16301637615E+04  0.19184798135E+04  0.15294330000E+03 0.  0.
    8880022    1    1    2    0    0 -0.55622115799E+03  0.83087741326E+03 -0.90484872372E+03  0.13571595773E+04  0.15294330000E+03 0.  0.
<mgrwt>
<rscale>  0 0.10114993E+04</rscale>
<asrwt>0</asrwt>
<pdfrwt beam="1">  1        1 0.44697321E+00 0.10114993E+04</pdfrwt>
<pdfrwt beam="2">  1       -1 0.56971302E-01 0.10114993E+04</pdfrwt>
<totfact> 0.22375492E+00</totfact>
</mgrwt>
</event>
<event>
 4    1  0.1678003E-008  0.1945516E+03  0.7818608E-02  0.1154419E+00
         -1   -1    0    0    0  501 -0.00000000000E+00  0.00000000000E+00  0.12393633170E+03  0.12393633180E+03  0.50400000000E-02 0.  1.
          1   -1    0    0  501    0  0.00000000000E+00 -0.00000000000E+00 -0.56715363046E+03  0.56715363048E+03  0.50400000000E-02 0. -1.
    8880022    1    1    2    0    0  0.41172754639E+02  0.11297551310E+03  0.13138063736E+02  0.19499467690E+03  0.15294330000E+03 0.  0.
    8880022    1    1    2    0    0 -0.41172754639E+02 -0.11297551310E+03 -0.45635536249E+03  0.49609528538E+03  0.15294330000E+03 0. -1.
<mgrwt>
<rscale>  0 0.19455157E+03</rscale>
<asrwt>0</asrwt>
<pdfrwt beam="1">  1        1 0.87254403E-01 0.19455157E+03</pdfrwt>
<pdfrwt beam="2">  1       -1 0.19067128E-01 0.19455157E+03</pdfrwt>
<totfact> 0.83225843E+02</totfact>
</mgrwt>
</event>
<event>
 4    1  0.1678003E-008  0.7173252E+03  0.7818608E-02  0.9688054E-01
         -1   -1    0    0    0  501 -0.00000000000E+00  0.00000000000E+00  0.58667130359E+03  0.58667130361E+03  0.50400000000E-02 0.  1.
          1   -1    0    0  501    0  0.00000000000E+00 -0.00000000000E+00 -0.17423688414E+04  0.17423688414E+04  0.50400000000E-02 0. -1.
    8880022    1    1    2    0    0 -0.60156778799E+03  0.35955517013E+03 -0.13984996912E+04  0.15717368619E+04  0.15294330000E+03 0.  0.
    8880022    1    1    2    0    0  0.60156778799E+03 -0.35955517013E+03  0.24280215335E+03  0.75730328311E+03  0.15294330000E+03 0.  0.
<mgrwt>
<rscale>  0 0.71732515E+03</rscale>
<asrwt>0</asrwt>
<pdfrwt beam="1">  1        1 0.26805674E+00 0.71732515E+03</pdfrwt>
<pdfrwt beam="2">  1       -1 0.90257125E-01 0.71732515E+03</pdfrwt>
<totfact> 0.56247534E+00</totfact>
</mgrwt>
</event>
<event>
 4    1  0.1678003E-008  0.6748080E+03  0.7818608E-02  0.9761311E-01
         -1   -1    0    0    0  501 -0.00000000000E+00  0.00000000000E+00  0.10837124909E+04  0.10837124909E+04  0.50400000000E-02 0.  1.
          1   -1    0    0  501    0  0.00000000000E+00 -0.00000000000E+00 -0.12448548426E+04  0.12448548426E+04  0.50400000000E-02 0. -1.
    8880022    1    1    2    0    0  0.28312191992E+03 -0.59314088991E+03 -0.10281995005E+04  0.12298617819E+04  0.15294330000E+03 0. -1.
    8880022    1    1    2    0    0 -0.28312191992E+03  0.59314088991E+03  0.86705714883E+03  0.10987055516E+04  0.15294330000E+03 0.  0.
<mgrwt>
<rscale>  0 0.67480797E+03</rscale>
<asrwt>0</asrwt>
<pdfrwt beam="1">  1        1 0.19151613E+00 0.67480797E+03</pdfrwt>
<pdfrwt beam="2">  1       -1 0.16672500E+00 0.67480797E+03</pdfrwt>
<totfact> 0.27269861E+00</totfact>
</mgrwt>
</event>
<event>
 4    1  0.1678003E-008  0.8832857E+03  0.7818608E-02  0.9446720E-01
         -1   -1    0    0    0  501 -0.00000000000E+00  0.00000000000E+00  0.18845021918E+04  0.18845021918E+04  0.50400000000E-02 0.  1.
          1   -1    0    0  501    0  0.00000000000E+00 -0.00000000000E+00 -0.50650918048E+03  0.50650918051E+03  0.50400000000E-02 0. -1.
    8880022    1    1    2    0    0  0.61986962446E+03 -0.61037996346E+03  0.11998992073E+04  0.14899502716E+04  0.15294330000E+03 0.  0.
    8880022    1    1    2    0    0 -0.61986962446E+03  0.61037996346E+03  0.17809380397E+03  0.90106110067E+03  0.15294330000E+03 0.  0.
<mgrwt>
<rscale>  0 0.88328574E+03</rscale>
<asrwt>0</asrwt>
<pdfrwt beam="1">  1        1 0.77924488E-01 0.88328574E+03</pdfrwt>
<pdfrwt beam="2">  1       -1 0.28992342E+00 0.88328574E+03</pdfrwt>
<totfact> 0.17199057E+00</totfact>
</mgrwt>
</event>
<event>
 4    1  0.1678003E-008  0.3345092E+03  0.7818608E-02  0.1069159E+00
          1   -1    0    0  501    0  0.00000000000E+00  0.00000000000E+00  0.49875530004E+03  0.49875530007E+03  0.50400000000E-02 0. -1.
         -1   -1    0    0    0  501 -0.00000000000E+00 -0.00000000000E+00 -0.38301986615E+03  0.38301986618E+03  0.50400000000E-02 0.  1.
    8880022    1    1    2    0    0 -0.44450567335E+02 -0.29415794343E+03  0.34163522194E+03  0.47813285445E+03  0.15294330000E+03 0.  0.
    8880022    1    1    2    0    0  0.44450567335E+02  0.29415794343E+03 -0.22589978804E+03  0.40364231180E+03  0.15294330000E+03 0.  1.
<mgrwt>
<rscale>  0 0.33450920E+03</rscale>
<asrwt>0</asrwt>
<pdfrwt beam="1">  1        1 0.76731584E-01 0.33450920E+03</pdfrwt>
<pdfrwt beam="2">  1       -1 0.58926134E-01 0.33450920E+03</pdfrwt>
<totfact> 0.13667729E+02</totfact>
</mgrwt>
</event>
<event>
 4    1  0.1678003E-008  0.4375820E+03  0.7818608E-02  0.1031491E+00
         -1   -1    0    0    0  501 -0.00000000000E+00  0.00000000000E+00  0.56293774445E+03  0.56293774447E+03  0.50400000000E-02 0.  1.
          1   -1    0    0  501    0  0.00000000000E+00 -0.00000000000E+00 -0.59965959580E+03  0.59965959583E+03  0.50400000000E-02 0. -1.
    8880022    1    1    2    0    0 -0.11168174456E+03 -0.39447886131E+03  0.36405100218E+03  0.56921978997E+03  0.15294330000E+03 0.  0.
    8880022    1    1    2    0    0  0.11168174456E+03  0.39447886131E+03 -0.40077285354E+03  0.59337755033E+03  0.15294330000E+03 0.  0.
<mgrwt>
<rscale>  0 0.43758203E+03</rscale>
<asrwt>0</asrwt>
<pdfrwt beam="1">  1        1 0.92255323E-01 0.43758203E+03</pdfrwt>
<pdfrwt beam="2">  1       -1 0.86605807E-01 0.43758203E+03</pdfrwt>
<totfact> 0.47745803E+01</totfact>
</mgrwt>
</event>
<event>
 4    1  0.1678003E-008  0.1669687E+03  0.7818608E-02  0.1181046E+00
          1   -1    0    0  501    0  0.00000000000E+00  0.00000000000E+00  0.27728993806E+04  0.27728993806E+04  0.50400000000E-02 0. -1.
         -1   -1    0    0    0  501 -0.00000000000E+00 -0.00000000000E+00 -0.88320502267E+02  0.88320502411E+02  0.50400000000E-02 0.  1.
    8880022    1    1    2    0    0 -0.21773779567E+02 -0.63346507572E+02  0.26890135528E+04  0.26941923498E+04  0.15294330000E+03 0. -1.
    8880022    1    1    2    0    0  0.21773779567E+02  0.63346507572E+02 -0.44346744831E+01  0.16702753321E+03  0.15294330000E+03 0.  0.
<mgrwt>
<rscale>  0 0.16696865E+03</rscale>
<asrwt>0</asrwt>
<pdfrwt beam="1">  1        1 0.42659984E+00 0.16696865E+03</pdfrwt>
<pdfrwt beam="2">  1       -1 0.13587772E-01 0.16696865E+03</pdfrwt>
<totfact> 0.41309676E+01</totfact>
</mgrwt>
</event>
<event>
 4    1  0.1678003E-008  0.5876591E+03  0.7818608E-02  0.9931345E-01
         -1   -1    0    0    0  501 -0.00000000000E+00  0.00000000000E+00  0.33270468710E+03  0.33270468714E+03  0.50400000000E-02 0.  1.
          1   -1    0    0  501    0  0.00000000000E+00 -0.00000000000E+00 -0.11162145876E+04  0.11162145876E+04  0.50400000000E-02 0. -1.
    8880022    1    1    2    0    0  0.27736762324E+03 -0.49499372124E+03 -0.19996779386E+03  0.62074983212E+03  0.15294330000E+03 0.  0.
    8880022    1    1    2    0    0 -0.27736762324E+03  0.49499372124E+03 -0.58354210667E+03  0.82816944266E+03  0.15294330000E+03 0.  0.
<mgrwt>
<rscale>  0 0.58765912E+03</rscale>
<asrwt>0</asrwt>
<pdfrwt beam="1">  1        1 0.17172532E+00 0.58765912E+03</pdfrwt>
<pdfrwt beam="2">  1       -1 0.51185337E-01 0.58765912E+03</pdfrwt>
<totfact> 0.49413291E+01</totfact>
</mgrwt>
</event>
<event>
 4    1  0.1678003E-008  0.6885114E+03  0.7818608E-02  0.9737084E-01
         -1   -1    0    0    0  501 -0.00000000000E+00  0.00000000000E+00  0.30856627079E+03  0.30856627083E+03  0.50400000000E-02 0.  1.
          1   -1    0    0  501    0  0.00000000000E+00 -0.00000000000E+00 -0.18070956998E+04  0.18070956998E+04  0.50400000000E-02 0. -1.
    8880022    1    1    2    0    0  0.30385015889E+03 -0.59860781324E+03 -0.33976554703E+03  0.76778155298E+03  0.15294330000E+03 0.  0.
    8880022    1    1    2    0    0 -0.30385015889E+03  0.59860781324E+03 -0.11587638820E+04  0.13478804177E+04  0.15294330000E+03 0.  0.
<mgrwt>
<rscale>  0 0.68851136E+03</rscale>
<asrwt>0</asrwt>
<pdfrwt beam="1">  1        1 0.27801472E+00 0.68851136E+03</pdfrwt>
<pdfrwt beam="2">  1       -1 0.47471735E-01 0.68851136E+03</pdfrwt>
<totfact> 0.18707092E+01</totfact>
</mgrwt>
</event>
<event>
 4    1  0.1678003E-008  0.1083241E+04  0.7818608E-02  0.9221682E-01
          1   -1    0    0  501    0  0.00000000000E+00  0.00000000000E+00  0.26244250276E+04  0.26244250276E+04  0.50400000000E-02 0. -1.
         -1   -1    0    0    0  501 -0.00000000000E+00 -0.00000000000E+00 -0.64025456112E+03  0.64025456114E+03  0.50400000000E-02 0.  1.
    8880022    1    1    2    0    0 -0.91405668892E+03 -0.56082146666E+03  0.18886324926E+04  0.21772332657E+04  0.15294330000E+03 0.  0.
    8880022    1    1    2    0    0  0.91405668892E+03  0.56082146666E+03  0.95537973851E+02  0.10874463230E+04  0.15294330000E+03 0.  0.
<mgrwt>
<rscale>  0 0.10832414E+04</rscale>
<asrwt>0</asrwt>
<pdfrwt beam="1">  1        1 0.40375770E+00 0.10832414E+04</pdfrwt>
<pdfrwt beam="2">  1       -1 0.98500702E-01 0.10832414E+04</pdfrwt>
<totfact> 0.11029142E+00</totfact>
</mgrwt>
</event>
<event>
 4    1  0.1678003E-008  0.6037630E+03  0.7818608E-02  0.9897630E-01
          1   -1    0    0  501    0  0.00000000000E+00  0.00000000000E+00  0.98649356675E+03  0.98649356676E+03  0.50400000000E-02 0. -1.
         -1   -1    0    0    0  501 -0.00000000000E+00 -0.00000000000E+00 -0.82284556684E+03  0.82284556686E+03  0.50400000000E-02 0.  1.
    8880022    1    1    2    0    0  0.87985791661E+02 -0.57740506174E+03 -0.58965989756E+03  0.84393634397E+03  0.15294330000E+03 0.  0.
    8880022    1    1    2    0    0 -0.87985791661E+02  0.57740506174E+03  0.75330789747E+03  0.96540278965E+03  0.15294330000E+03 0.  0.
<mgrwt>
<rscale>  0 0.60376300E+03</rscale>
<asrwt>0</asrwt>
<pdfrwt beam="1">  1        1 0.15176824E+00 0.60376300E+03</pdfrwt>
<pdfrwt beam="2">  1       -1 0.12659163E+00 0.60376300E+03</pdfrwt>
<totfact> 0.88891722E+00</totfact>
</mgrwt>
</event>
<event>
 4    1  0.1678003E-008  0.4215523E+03  0.7818608E-02  0.1036562E+00
         -1   -1    0    0    0  501 -0.00000000000E+00  0.00000000000E+00  0.44190805405E+03  0.44190805408E+03  0.50400000000E-02 0.  1.
          1   -1    0    0  501    0  0.00000000000E+00 -0.00000000000E+00 -0.10979780950E+04  0.10979780950E+04  0.50400000000E-02 0. -1.
    8880022    1    1    2    0    0  0.38404372871E+03  0.82614115640E+02 -0.94097464440E+03  0.10310866172E+04  0.15294330000E+03 0.  0.
    8880022    1    1    2    0    0 -0.38404372871E+03 -0.82614115640E+02  0.28490460341E+03  0.50879953196E+03  0.15294330000E+03 0.  0.
<mgrwt>
<rscale>  0 0.42155229E+03</rscale>
<asrwt>0</asrwt>
<pdfrwt beam="1">  1        1 0.16891971E+00 0.42155229E+03</pdfrwt>
<pdfrwt beam="2">  1       -1 0.67985855E-01 0.42155229E+03</pdfrwt>
<totfact> 0.30119787E+01</totfact>
</mgrwt>
</event>
<event>
 4    1  0.1678003E-008  0.8414266E+03  0.7818608E-02  0.9501917E-01
          1   -1    0    0  501    0  0.00000000000E+00  0.00000000000E+00  0.19949711226E+04  0.19949711226E+04  0.50400000000E-02 0. -1.
         -1   -1    0    0    0  501 -0.00000000000E+00 -0.00000000000E+00 -0.39136289577E+03  0.39136289581E+03  0.50400000000E-02 0.  1.
    8880022    1    1    2    0    0  0.82612050879E+03 -0.46173963434E+02  0.43756536438E+03  0.94839982659E+03  0.15294330000E+03 0.  0.
    8880022    1    1    2    0    0 -0.82612050879E+03  0.46173963434E+02  0.11660428624E+04  0.14379341918E+04  0.15294330000E+03 0.  0.
<mgrwt>
<rscale>  0 0.84142664E+03</rscale>
<asrwt>0</asrwt>
<pdfrwt beam="1">  1        1 0.30691863E+00 0.84142664E+03</pdfrwt>
<pdfrwt beam="2">  1       -1 0.60209677E-01 0.84142664E+03</pdfrwt>
<totfact> 0.86719630E+00</totfact>
</mgrwt>
</event>
<event>
 4    1  0.1678003E-008  0.3098877E+03  0.7818608E-02  0.1080400E+00
          1   -1    0    0  501    0  0.00000000000E+00  0.00000000000E+00  0.40866268362E+03  0.40866268365E+03  0.50400000000E-02 0. -1.
         -1   -1    0    0    0  501 -0.00000000000E+00 -0.00000000000E+00 -0.13145309111E+04  0.13145309111E+04  0.50400000000E-02 0.  1.
    8880022    1    1    2    0    0  0.20217684595E+03 -0.17822250262E+03  0.32786415945E+03  0.45113778111E+03  0.15294330000E+03 0.  0.
    8880022    1    1    2    0    0 -0.20217684595E+03  0.17822250262E+03 -0.12337323869E+04  0.12720558136E+04  0.15294330000E+03 0.  1.
<mgrwt>
<rscale>  0 0.30988771E+03</rscale>
<asrwt>0</asrwt>
<pdfrwt beam="1">  1        1 0.62871182E-01 0.30988771E+03</pdfrwt>
<pdfrwt beam="2">  1       -1 0.20223552E+00 0.30988771E+03</pdfrwt>
<totfact> 0.95183305E+00</totfact>
</mgrwt>
</event>
<event>
 4    1  0.1678003E-008  0.8068455E+03  0.7818608E-02  0.9550161E-01
         -1   -1    0    0    0  501 -0.00000000000E+00  0.00000000000E+00  0.18141330384E+04  0.18141330384E+04  0.50400000000E-02 0.  1.
          1   -1    0    0  501    0  0.00000000000E+00 -0.00000000000E+00 -0.56999736439E+03  0.56999736442E+03  0.50400000000E-02 0. -1.
    8880022    1    1    2    0    0  0.90145517095E+02  0.78707169729E+03 -0.10346572268E+03  0.81345244465E+03  0.15294330000E+03 0.  0.
    8880022    1    1    2    0    0 -0.90145517095E+02 -0.78707169729E+03  0.13476013967E+04  0.15706779582E+04  0.15294330000E+03 0.  0.
<mgrwt>
<rscale>  0 0.80684554E+03</rscale>
<asrwt>0</asrwt>
<pdfrwt beam="1">  1        1 0.87691902E-01 0.80684554E+03</pdfrwt>
<pdfrwt beam="2">  1       -1 0.27909739E+00 0.80684554E+03</pdfrwt>
<totfact> 0.17298249E+00</totfact>
</mgrwt>
</event>
<event>
 4    1  0.1678003E-008  0.2132785E+03  0.7818608E-02  0.1138996E+00
         -1   -1    0    0    0  501 -0.00000000000E+00  0.00000000000E+00  0.28530947831E+03  0.28530947835E+03  0.50400000000E-02 0.  1.
          1   -1    0    0  501    0  0.00000000000E+00 -0.00000000000E+00 -0.27576713868E+04  0.27576713868E+04  0.50400000000E-02 0. -1.
    8880022    1    1    2    0    0  0.11426621497E+03  0.95075225121E+02 -0.27130346514E+04  0.27214049201E+04  0.15294330000E+03 0. -1.
    8880022    1    1    2    0    0 -0.11426621497E+03 -0.95075225121E+02  0.24067274286E+03  0.32157594513E+03  0.15294330000E+03 0.  0.
<mgrwt>
<rscale>  0 0.21327850E+03</rscale>
<asrwt>0</asrwt>
<pdfrwt beam="1">  1        1 0.42425712E+00 0.21327850E+03</pdfrwt>
<pdfrwt beam="2">  1       -1 0.43893768E-01 0.21327850E+03</pdfrwt>
<totfact> 0.58400873E+00</totfact>
</mgrwt>
</event>
<event>
 4    1  0.1678003E-008  0.9826841E+03  0.7818608E-02  0.9327743E-01
          1   -1    0    0  501    0  0.00000000000E+00  0.00000000000E+00  0.19508695293E+04  0.19508695293E+04  0.50400000000E-02 0. -1.
         -1   -1    0    0    0  501 -0.00000000000E+00 -0.00000000000E+00 -0.56152459522E+03  0.56152459524E+03  0.50400000000E-02 0.  1.
    8880022    1    1    2    0    0  0.34957653903E+03  0.90557861394E+03  0.26227293293E+03  0.10170816718E+04  0.15294330000E+03 0.  1.
    8880022    1    1    2    0    0 -0.34957653903E+03 -0.90557861394E+03  0.11270720011E+04  0.14953124528E+04  0.15294330000E+03 0.  0.
<mgrwt>
<rscale>  0 0.98268410E+03</rscale>
<asrwt>0</asrwt>
<pdfrwt beam="1">  1        1 0.30013378E+00 0.98268410E+03</pdfrwt>
<pdfrwt beam="2">  1       -1 0.86388399E-01 0.98268410E+03</pdfrwt>
<totfact> 0.43080468E+00</totfact>
</mgrwt>
</event>
<event>
 4    1  0.1678003E-008  0.7686016E+03  0.7818608E-02  0.9606611E-01
         -1   -1    0    0    0  501 -0.00000000000E+00  0.00000000000E+00  0.21744732527E+04  0.21744732527E+04  0.50400000000E-02 0.  1.
          1   -1    0    0  501    0  0.00000000000E+00 -0.00000000000E+00 -0.51265102014E+03  0.51265102017E+03  0.50400000000E-02 0. -1.
    8880022    1    1    2    0    0  0.65237196852E+03 -0.37652042916E+03  0.17520696907E+04  0.19132424501E+04  0.15294330000E+03 0.  0.
    8880022    1    1    2    0    0 -0.65237196852E+03  0.37652042916E+03 -0.90247458128E+02  0.77388182276E+03  0.15294330000E+03 0.  0.
<mgrwt>
<rscale>  0 0.76860163E+03</rscale>
<asrwt>0</asrwt>
<pdfrwt beam="1">  1        1 0.78869387E-01 0.76860163E+03</pdfrwt>
<pdfrwt beam="2">  1       -1 0.33453435E+00 0.76860163E+03</pdfrwt>
<totfact> 0.89004577E-01</totfact>
</mgrwt>
</event>
<event>
 4    1  0.1678003E-008  0.1417239E+04  0.7818608E-02  0.8941434E-01
         -1   -1    0    0    0  501 -0.00000000000E+00  0.00000000000E+00  0.19169157442E+04  0.19169157442E+04  0.50400000000E-02 0.  1.
          1   -1    0    0  501    0  0.00000000000E+00 -0.00000000000E+00 -0.14273331462E+04  0.14273331462E+04  0.50400000000E-02 0. -1.
    8880022    1    1    2    0    0 -0.14065242251E+04 -0.82849243851E+02  0.11070236033E+04  0.17983512739E+04  0.15294330000E+03 0.  0.
    8880022    1    1    2    0    0  0.14065242251E+04  0.82849243851E+02 -0.61744100523E+03  0.15458976166E+04  0.15294330000E+03 0.  0.
<mgrwt>
<rscale>  0 0.14172389E+04</rscale>
<asrwt>0</asrwt>
<pdfrwt beam="1">  1        1 0.21958971E+00 0.14172389E+04</pdfrwt>
<pdfrwt beam="2">  1       -1 0.29491012E+00 0.14172389E+04</pdfrwt>
<totfact> 0.25030054E-01</totfact>
</mgrwt>
</event>
<event>
 4    1  0.1678003E-008  0.1539633E+03  0.7818608E-02  0.1195686E+00
          1   -1    0    0  501    0  0.00000000000E+00  0.00000000000E+00  0.18809699968E+03  0.18809699975E+03  0.50400000000E-02 0. -1.
         -1   -1    0    0    0  501 -0.00000000000E+00 -0.00000000000E+00 -0.13285587568E+03  0.13285587578E+03  0.50400000000E-02 0.  1.
    8880022    1    1    2    0    0 -0.10686369772E+02 -0.14101328182E+02 -0.87707052893E+01  0.15421291853E+03  0.15294330000E+03 0.  0.
    8880022    1    1    2    0    0  0.10686369772E+02  0.14101328182E+02  0.64011829286E+02  0.16673995700E+03  0.15294330000E+03 0. -1.
<mgrwt>
<rscale>  0 0.15396330E+03</rscale>
<asrwt>0</asrwt>
<pdfrwt beam="1">  1        1 0.28938000E-01 0.15396330E+03</pdfrwt>
<pdfrwt beam="2">  1       -1 0.20439366E-01 0.15396330E+03</pdfrwt>
<totfact> 0.30019935E+03</totfact>
</mgrwt>
</event>
<event>
 4    1  0.1678003E-008  0.7811145E+03  0.7818608E-02  0.9587763E-01
          1   -1    0    0  501    0  0.00000000000E+00  0.00000000000E+00  0.12829885567E+04  0.12829885567E+04  0.50400000000E-02 0. -1.
         -1   -1    0    0    0  501 -0.00000000000E+00 -0.00000000000E+00 -0.15066860341E+04  0.15066860341E+04  0.50400000000E-02 0.  1.
    8880022    1    1    2    0    0  0.49929483018E+02 -0.76436593068E+03 -0.12657475956E+04  0.14873657446E+04  0.15294330000E+03 0.  0.
    8880022    1    1    2    0    0 -0.49929483018E+02  0.76436593068E+03  0.10420501182E+04  0.13023088463E+04  0.15294330000E+03 0.  0.
<mgrwt>
<rscale>  0 0.78111451E+03</rscale>
<asrwt>0</asrwt>
<pdfrwt beam="1">  1        1 0.19738285E+00 0.78111451E+03</pdfrwt>
<pdfrwt beam="2">  1       -1 0.23179785E+00 0.78111451E+03</pdfrwt>
<totfact> 0.89440189E-01</totfact>
</mgrwt>
</event>
<event>
 4    1  0.1678003E-008  0.6004569E+03  0.7818608E-02  0.9904459E-01
         -1   -1    0    0    0  501 -0.00000000000E+00  0.00000000000E+00  0.10874693194E+04  0.10874693194E+04  0.50400000000E-02 0.  1.
          1   -1    0    0  501    0  0.00000000000E+00 -0.00000000000E+00 -0.80786125466E+03  0.80786125468E+03  0.50400000000E-02 0. -1.
    8880022    1    1    2    0    0  0.17148138489E+03 -0.55475306176E+03 -0.58786322336E+03  0.84031639713E+03  0.15294330000E+03 0.  0.
    8880022    1    1    2    0    0 -0.17148138489E+03  0.55475306176E+03  0.86747128810E+03  0.10550141770E+04  0.15294330000E+03 0.  0.
<mgrwt>
<rscale>  0 0.60045689E+03</rscale>
<asrwt>0</asrwt>
<pdfrwt beam="1">  1        1 0.12428635E+00 0.60045689E+03</pdfrwt>
<pdfrwt beam="2">  1       -1 0.16730297E+00 0.60045689E+03</pdfrwt>
<totfact> 0.59460128E+00</totfact>
</mgrwt>
</event>
<event>
 4    1  0.1678003E-008  0.5757054E+03  0.7818608E-02  0.9957132E-01
          1   -1    0    0  501    0  0.00000000000E+00  0.00000000000E+00  0.10891399056E+04  0.10891399056E+04  0.50400000000E-02 0. -1.
         -1   -1    0    0    0  501 -0.00000000000E+00 -0.00000000000E+00 -0.79345865156E+03  0.79345865158E+03  0.50400000000E-02 0.  1.
    8880022    1    1    2    0    0 -0.55191009915E+03 -0.58653708856E+02  0.88691101342E+03  0.10573778009E+04  0.15294330000E+03 0.  0.
    8880022    1    1    2    0    0  0.55191009915E+03  0.58653708856E+02 -0.59122975942E+03  0.82522075625E+03  0.15294330000E+03 0.  0.
<mgrwt>
<rscale>  0 0.57570537E+03</rscale>
<asrwt>0</asrwt>
<pdfrwt beam="1">  1        1 0.16755998E+00 0.57570537E+03</pdfrwt>
<pdfrwt beam="2">  1       -1 0.12207056E+00 0.57570537E+03</pdfrwt>
<totfact> 0.81692830E+00</totfact>
</mgrwt>
</event>
<event>
 4    1  0.1678003E-008  0.6677802E+03  0.7818608E-02  0.9773976E-01
          1   -1    0    0  501    0  0.00000000000E+00  0.00000000000E+00  0.11396539001E+04  0.11396539001E+04  0.50400000000E-02 0. -1.
         -1   -1    0    0    0  501 -0.00000000000E+00 -0.00000000000E+00 -0.21707339364E+04  0.21707339364E+04  0.50400000000E-02 0.  1.
    8880022    1    1    2    0    0 -0.35595985762E+03 -0.54390378304E+03  0.98306868405E+03  0.11884251916E+04  0.15294330000E+03 0.  0.
    8880022    1    1    2    0    0  0.35595985762E+03  0.54390378304E+03 -0.20141487204E+04  0.21219626449E+04  0.15294330000E+03 0.  0.
<mgrwt>
<rscale>  0 0.66778020E+03</rscale>
<asrwt>0</asrwt>
<pdfrwt beam="1">  1        1 0.17533137E+00 0.66778020E+03</pdfrwt>
<pdfrwt beam="2">  1       -1 0.33395907E+00 0.66778020E+03</pdfrwt>
<totfact> 0.25714419E-01</totfact>
</mgrwt>
</event>
<event>
 4    1  0.2047709E-008  0.8047185E+03  0.7818608E-02  0.9553212E-01
          1   -1    0    0  501    0  0.00000000000E+00  0.00000000000E+00  0.30299881691E+04  0.30299881691E+04  0.50400000000E-02 0. -1.
         -1   -1    0    0    0  501 -0.00000000000E+00 -0.00000000000E+00 -0.12091739223E+04  0.12091739223E+04  0.50400000000E-02 0.  1.
    8880022    1    1    2    0    0  0.59738579306E+03 -0.51702064399E+03 -0.10127555744E+04  0.12935399640E+04  0.15294330000E+03 0.  0.
    8880022    1    1    2    0    0 -0.59738579306E+03  0.51702064399E+03  0.28335698213E+04  0.29456221273E+04  0.15294330000E+03 0. -1.
<mgrwt>
<rscale>  0 0.80471845E+03</rscale>
<asrwt>0</asrwt>
<pdfrwt beam="1">  1        1 0.46615202E+00 0.80471845E+03</pdfrwt>
<pdfrwt beam="2">  1       -1 0.18602676E+00 0.80471845E+03</pdfrwt>
<totfact> 0.11534290E-01</totfact>
</mgrwt>
</event>
<event>
 4    1  0.1678003E-008  0.7177956E+03  0.7818608E-02  0.9687274E-01
         -1   -1    0    0    0  501 -0.00000000000E+00  0.00000000000E+00  0.54609681493E+03  0.54609681495E+03  0.50400000000E-02 0.  1.
          1   -1    0    0  501    0  0.00000000000E+00 -0.00000000000E+00 -0.13504222531E+04  0.13504222531E+04  0.50400000000E-02 0. -1.
    8880022    1    1    2    0    0  0.68480426660E+03 -0.15126801911E+03  0.11838394832E+03  0.72749248064E+03  0.15294330000E+03 0.  0.
    8880022    1    1    2    0    0 -0.68480426660E+03  0.15126801911E+03 -0.92270938651E+03  0.11690265874E+04  0.15294330000E+03 0.  0.
<mgrwt>
<rscale>  0 0.71779562E+03</rscale>
<asrwt>0</asrwt>
<pdfrwt beam="1">  1        1 0.20775727E+00 0.71779562E+03</pdfrwt>
<pdfrwt beam="2">  1       -1 0.84014895E-01 0.71779562E+03</pdfrwt>
<totfact> 0.12164352E+01</totfact>
</mgrwt>
</event>
<event>
 4    1  0.1678003E-008  0.3517925E+03  0.7818608E-02  0.1061882E+00
          1   -1    0    0  501    0  0.00000000000E+00  0.00000000000E+00  0.16863374640E+03  0.16863374647E+03  0.50400000000E-02 0. -1.
         -1   -1    0    0    0  501 -0.00000000000E+00 -0.00000000000E+00 -0.75875857058E+03  0.75875857060E+03  0.50400000000E-02 0.  1.
    8880022    1    1    2    0    0 -0.29407646559E+03 -0.11783616638E+03 -0.37901616391E+03  0.51711820239E+03  0.15294330000E+03 0.  0.
    8880022    1    1    2    0    0  0.29407646559E+03  0.11783616638E+03 -0.21110866028E+03  0.41027411468E+03  0.15294330000E+03 0.  0.
<mgrwt>
<rscale>  0 0.35179253E+03</rscale>
<asrwt>0</asrwt>
<pdfrwt beam="1">  1        1 0.25943654E-01 0.35179253E+03</pdfrwt>
<pdfrwt beam="2">  1       -1 0.11673209E+00 0.35179253E+03</pdfrwt>
<totfact> 0.12850228E+02</totfact>
</mgrwt>
</event>
<event>
 4    1  0.1678003E-008  0.4584389E+03  0.7818608E-02  0.1025235E+00
          1   -1    0    0  501    0  0.00000000000E+00  0.00000000000E+00  0.19155805149E+04  0.19155805149E+04  0.50400000000E-02 0. -1.
         -1   -1    0    0    0  501 -0.00000000000E+00 -0.00000000000E+00 -0.15466611727E+03  0.15466611736E+03  0.50400000000E-02 0.  1.
    8880022    1    1    2    0    0  0.40919378505E+03 -0.13905042839E+03  0.32241248130E+03  0.56046055746E+03  0.15294330000E+03 0.  0.
    8880022    1    1    2    0    0 -0.40919378505E+03  0.13905042839E+03  0.14385019163E+04  0.15097860748E+04  0.15294330000E+03 0.  0.
<mgrwt>
<rscale>  0 0.45843890E+03</rscale>
<asrwt>0</asrwt>
<pdfrwt beam="1">  1        1 0.29470469E+00 0.45843890E+03</pdfrwt>
<pdfrwt beam="2">  1       -1 0.23794788E-01 0.45843890E+03</pdfrwt>
<totfact> 0.55803247E+01</totfact>
</mgrwt>
</event>
<event>
 4    1  0.1678003E-008  0.4851218E+03  0.7818608E-02  0.1017737E+00
         -1   -1    0    0    0  501 -0.00000000000E+00  0.00000000000E+00  0.72182726623E+03  0.72182726625E+03  0.50400000000E-02 0.  1.
          1   -1    0    0  501    0  0.00000000000E+00 -0.00000000000E+00 -0.10177061398E+04  0.10177061398E+04  0.50400000000E-02 0. -1.
    8880022    1    1    2    0    0 -0.15231652537E+03  0.43445505433E+03 -0.86497458210E+03  0.99172788547E+03  0.15294330000E+03 0.  0.
    8880022    1    1    2    0    0  0.15231652537E+03 -0.43445505433E+03  0.56909570853E+03  0.74780552059E+03  0.15294330000E+03 0.  0.
<mgrwt>
<rscale>  0 0.48512181E+03</rscale>
<asrwt>0</asrwt>
<pdfrwt beam="1">  1        1 0.15657017E+00 0.48512181E+03</pdfrwt>
<pdfrwt beam="2">  1       -1 0.11105035E+00 0.48512181E+03</pdfrwt>
<totfact> 0.11804923E+01</totfact>
</mgrwt>
</event>
<event>
 4    1  0.1678003E-008  0.1281008E+04  0.7818608E-02  0.9044763E-01
          1   -1    0    0  501    0  0.00000000000E+00  0.00000000000E+00  0.13321588076E+04  0.13321588076E+04  0.50400000000E-02 0. -1.
         -1   -1    0    0    0  501 -0.00000000000E+00 -0.00000000000E+00 -0.18809056559E+04  0.18809056559E+04  0.50400000000E-02 0.  1.
    8880022    1    1    2    0    0  0.11780239771E+04 -0.47942595691E+03 -0.12181225423E+04  0.17677114922E+04  0.15294330000E+03 0.  0.
    8880022    1    1    2    0    0 -0.11780239771E+04  0.47942595691E+03  0.66937569401E+03  0.14453529712E+04  0.15294330000E+03 0.  0.
<mgrwt>
<rscale>  0 0.12810080E+04</rscale>
<asrwt>0</asrwt>
<pdfrwt beam="1">  1        1 0.20494751E+00 0.12810080E+04</pdfrwt>
<pdfrwt beam="2">  1       -1 0.28937010E+00 0.12810080E+04</pdfrwt>
<totfact> 0.32293021E-01</totfact>
</mgrwt>
</event>
<event>
 4    1  0.1678003E-008  0.3294004E+03  0.7818608E-02  0.1071402E+00
         -1   -1    0    0    0  501 -0.00000000000E+00  0.00000000000E+00  0.90735441139E+02  0.90735441279E+02  0.50400000000E-02 0.  1.
          1   -1    0    0  501    0  0.00000000000E+00 -0.00000000000E+00 -0.19927805021E+04  0.19927805021E+04  0.50400000000E-02 0. -1.
    8880022    1    1    2    0    0  0.27022905294E+03 -0.10995091698E+03 -0.16098193080E+04  0.16431746111E+04  0.15294330000E+03 0.  0.
    8880022    1    1    2    0    0 -0.27022905294E+03  0.10995091698E+03 -0.29222575297E+03  0.44034133228E+03  0.15294330000E+03 0.  0.
<mgrwt>
<rscale>  0 0.32940036E+03</rscale>
<asrwt>0</asrwt>
<pdfrwt beam="1">  1        1 0.30658158E+00 0.32940036E+03</pdfrwt>
<pdfrwt beam="2">  1       -1 0.13959300E-01 0.32940036E+03</pdfrwt>
<totfact> 0.12178014E+02</totfact>
</mgrwt>
</event>
<event>
 4    1  0.1678003E-008  0.7522611E+03  0.7818608E-02  0.9631810E-01
         -1   -1    0    0    0  501 -0.00000000000E+00  0.00000000000E+00  0.17764168322E+04  0.17764168322E+04  0.50400000000E-02 0.  1.
          1   -1    0    0  501    0  0.00000000000E+00 -0.00000000000E+00 -0.57125274932E+03  0.57125274935E+03  0.50400000000E-02 0. -1.
    8880022    1    1    2    0    0 -0.69956937341E+03  0.23045143831E+03  0.13832898078E+04  0.15746070999E+04  0.15294330000E+03 0.  0.
    8880022    1    1    2    0    0  0.69956937341E+03 -0.23045143831E+03 -0.17812572494E+03  0.77306248165E+03  0.15294330000E+03 0.  0.
<mgrwt>
<rscale>  0 0.75226114E+03</rscale>
<asrwt>0</asrwt>
<pdfrwt beam="1">  1        1 0.87885041E-01 0.75226114E+03</pdfrwt>
<pdfrwt beam="2">  1       -1 0.27329489E+00 0.75226114E+03</pdfrwt>
<totfact> 0.18953128E+00</totfact>
</mgrwt>
</event>
<event>
 4    1  0.1678003E-008  0.2146924E+03  0.7818608E-02  0.1137903E+00
         -1   -1    0    0    0  501 -0.00000000000E+00  0.00000000000E+00  0.85680557202E+03  0.85680557203E+03  0.50400000000E-02 0.  1.
          1   -1    0    0  501    0  0.00000000000E+00 -0.00000000000E+00 -0.98303846466E+02  0.98303846595E+02  0.50400000000E-02 0. -1.
    8880022    1    1    2    0    0  0.69163788649E+02  0.13385636303E+03  0.70058407860E+03  0.73274201448E+03  0.15294330000E+03 0.  0.
    8880022    1    1    2    0    0 -0.69163788649E+02 -0.13385636303E+03  0.57917646952E+02  0.22236740415E+03  0.15294330000E+03 0.  0.
<mgrwt>
<rscale>  0 0.21469236E+03</rscale>
<asrwt>0</asrwt>
<pdfrwt beam="1">  1        1 0.15123668E-01 0.21469236E+03</pdfrwt>
<pdfrwt beam="2">  1       -1 0.13181624E+00 0.21469236E+03</pdfrwt>
<totfact> 0.19551193E+02</totfact>
</mgrwt>
</event>
<event>
 4    1  0.1678003E-008  0.6578703E+03  0.7818608E-02  0.9792122E-01
         -1   -1    0    0    0  501 -0.00000000000E+00  0.00000000000E+00  0.93593278752E+03  0.93593278753E+03  0.50400000000E-02 0.  1.
          1   -1    0    0  501    0  0.00000000000E+00 -0.00000000000E+00 -0.10418640782E+04  0.10418640782E+04  0.50400000000E-02 0. -1.
    8880022    1    1    2    0    0 -0.50589907713E+02  0.63784193264E+03 -0.79044897504E+03  0.10283982229E+04  0.15294330000E+03 0.  0.
    8880022    1    1    2    0    0  0.50589907713E+02 -0.63784193264E+03  0.68451768434E+03  0.94939864282E+03  0.15294330000E+03 0.  1.
<mgrwt>
<rscale>  0 0.65787029E+03</rscale>
<asrwt>0</asrwt>
<pdfrwt beam="1">  1        1 0.16028678E+00 0.65787029E+03</pdfrwt>
<pdfrwt beam="2">  1       -1 0.14398966E+00 0.65787029E+03</pdfrwt>
<totfact> 0.57487413E+00</totfact>
</mgrwt>
</event>
<event>
 4    1  0.1678003E-008  0.5804234E+03  0.7818608E-02  0.9946875E-01
          1   -1    0    0  501    0  0.00000000000E+00  0.00000000000E+00  0.13262603652E+04  0.13262603652E+04  0.50400000000E-02 0. -1.
         -1   -1    0    0    0  501 -0.00000000000E+00 -0.00000000000E+00 -0.43880947720E+03  0.43880947723E+03  0.50400000000E-02 0.  1.
    8880022    1    1    2    0    0 -0.14471369815E+03  0.54088596263E+03  0.10164387022E+04  0.11704866370E+04  0.15294330000E+03 0.  0.
    8880022    1    1    2    0    0  0.14471369815E+03 -0.54088596263E+03 -0.12898781418E+03  0.59458320547E+03  0.15294330000E+03 0.  0.
<mgrwt>
<rscale>  0 0.58042341E+03</rscale>
<asrwt>0</asrwt>
<pdfrwt beam="1">  1        1 0.20404005E+00 0.58042341E+03</pdfrwt>
<pdfrwt beam="2">  1       -1 0.67509152E-01 0.58042341E+03</pdfrwt>
<totfact> 0.20378504E+01</totfact>
</mgrwt>
</event>
<event>
 4    1  0.1678003E-008  0.6375922E+03  0.7818608E-02  0.9830344E-01
         -1   -1    0    0    0  501 -0.00000000000E+00  0.00000000000E+00  0.63071969358E+03  0.63071969360E+03  0.50400000000E-02 0.  1.
          1   -1    0    0  501    0  0.00000000000E+00 -0.00000000000E+00 -0.79250372841E+03  0.79250372842E+03  0.50400000000E-02 0. -1.
    8880022    1    1    2    0    0  0.53186528220E+03 -0.31662517293E+03 -0.38837467116E+03  0.74656460990E+03  0.15294330000E+03 0.  0.
    8880022    1    1    2    0    0 -0.53186528220E+03  0.31662517293E+03  0.22659063633E+03  0.67665881212E+03  0.15294330000E+03 0.  0.
<mgrwt>
<rscale>  0 0.63759221E+03</rscale>
<asrwt>0</asrwt>
<pdfrwt beam="1">  1        1 0.12192365E+00 0.63759221E+03</pdfrwt>
<pdfrwt beam="2">  1       -1 0.97033798E-01 0.63759221E+03</pdfrwt>
<totfact> 0.23845352E+01</totfact>
</mgrwt>
</event>
<event>
 4    1  0.1678003E-008  0.5932928E+03  0.7818608E-02  0.9919420E-01
         -1   -1    0    0    0  501 -0.00000000000E+00  0.00000000000E+00  0.12643869151E+04  0.12643869151E+04  0.50400000000E-02 0.  1.
          1   -1    0    0  501    0  0.00000000000E+00 -0.00000000000E+00 -0.42334758096E+03  0.42334758099E+03  0.50400000000E-02 0. -1.
    8880022    1    1    2    0    0 -0.53008722281E+03 -0.21820216675E+03 -0.73269726325E+02  0.59779992905E+03  0.15294330000E+03 0.  0.
    8880022    1    1    2    0    0  0.53008722281E+03  0.21820216675E+03  0.91430906042E+03  0.10899345670E+04  0.15294330000E+03 0.  0.
<mgrwt>
<rscale>  0 0.59329276E+03</rscale>
<asrwt>0</asrwt>
<pdfrwt beam="1">  1        1 0.65130397E-01 0.59329276E+03</pdfrwt>
<pdfrwt beam="2">  1       -1 0.19452106E+00 0.59329276E+03</pdfrwt>
<totfact> 0.96322806E+00</totfact>
</mgrwt>
</event>
<event>
 4    1  0.1678003E-008  0.5291922E+03  0.7818608E-02  0.1006428E+00
         -1   -1    0    0    0  501 -0.00000000000E+00  0.00000000000E+00  0.38343069763E+03  0.38343069766E+03  0.50400000000E-02 0.  1.
          1   -1    0    0  501    0  0.00000000000E+00 -0.00000000000E+00 -0.12216768568E+04  0.12216768569E+04  0.50400000000E-02 0. -1.
    8880022    1    1    2    0    0  0.49496769588E+03 -0.10798027522E+03  0.89826234154E+02  0.53676173965E+03  0.15294330000E+03 0.  0.
    8880022    1    1    2    0    0 -0.49496769588E+03  0.10798027522E+03 -0.92807239337E+03  0.10683458149E+04  0.15294330000E+03 0.  0.
<mgrwt>
<rscale>  0 0.52919223E+03</rscale>
<asrwt>0</asrwt>
<pdfrwt beam="1">  1        1 0.18795028E+00 0.52919223E+03</pdfrwt>
<pdfrwt beam="2">  1       -1 0.58989339E-01 0.52919223E+03</pdfrwt>
<totfact> 0.31829116E+01</totfact>
</mgrwt>
</event>
<event>
 4    1  0.1678003E-008  0.2318043E+03  0.7818608E-02  0.1125376E+00
          1   -1    0    0  501    0  0.00000000000E+00  0.00000000000E+00  0.17214318402E+04  0.17214318402E+04  0.50400000000E-02 0. -1.
         -1   -1    0    0    0  501 -0.00000000000E+00 -0.00000000000E+00 -0.40681634353E+03  0.40681634356E+03  0.50400000000E-02 0.  1.
    8880022    1    1    2    0    0 -0.17295524166E+03 -0.20689587000E+02  0.16797930504E+04  0.16957116264E+04  0.15294330000E+03 0.  0.
    8880022    1    1    2    0    0  0.17295524166E+03  0.20689587000E+02 -0.36517755379E+03  0.43253655734E+03  0.15294330000E+03 0.  0.
<mgrwt>
<rscale>  0 0.23180429E+03</rscale>
<asrwt>0</asrwt>
<pdfrwt beam="1">  1        1 0.26483567E+00 0.23180429E+03</pdfrwt>
<pdfrwt beam="2">  1       -1 0.62587130E-01 0.23180429E+03</pdfrwt>
<totfact> 0.14200831E+01</totfact>
</mgrwt>
</event>
<event>
 4    1  0.1678003E-008  0.3811149E+03  0.7818608E-02  0.1050522E+00
         -1   -1    0    0    0  501 -0.00000000000E+00  0.00000000000E+00  0.85425015958E+03  0.85425015960E+03  0.50400000000E-02 0.  1.
          1   -1    0    0  501    0  0.00000000000E+00 -0.00000000000E+00 -0.19919897871E+03  0.19919897877E+03  0.50400000000E-02 0. -1.
    8880022    1    1    2    0    0  0.34067959983E+03  0.76120601449E+02  0.12596907016E+03  0.40139356666E+03  0.15294330000E+03 0. -1.
    8880022    1    1    2    0    0 -0.34067959983E+03 -0.76120601449E+02  0.52908211071E+03  0.65205557170E+03  0.15294330000E+03 0.  0.
<mgrwt>
<rscale>  0 0.38111493E+03</rscale>
<asrwt>0</asrwt>
<pdfrwt beam="1">  1        1 0.30645998E-01 0.38111493E+03</pdfrwt>
<pdfrwt beam="2">  1       -1 0.13142310E+00 0.38111493E+03</pdfrwt>
<totfact> 0.77519374E+01</totfact>
</mgrwt>
</event>
<event>
 4    1  0.1678003E-008  0.4682784E+03  0.7818608E-02  0.1022407E+00
          1   -1    0    0  501    0  0.00000000000E+00  0.00000000000E+00  0.13663253052E+04  0.13663253052E+04  0.50400000000E-02 0. -1.
         -1   -1    0    0    0  501 -0.00000000000E+00 -0.00000000000E+00 -0.15843602810E+04  0.15843602810E+04  0.50400000000E-02 0.  1.
    8880022    1    1    2    0    0  0.24249528072E+03  0.37025534572E+03  0.12896060555E+04  0.13719943198E+04  0.15294330000E+03 0.  0.
    8880022    1    1    2    0    0 -0.24249528072E+03 -0.37025534572E+03 -0.15076410313E+04  0.15786912664E+04  0.15294330000E+03 0.  0.
<mgrwt>
<rscale>  0 0.46827837E+03</rscale>
<asrwt>0</asrwt>
<pdfrwt beam="1">  1        1 0.21020389E+00 0.46827837E+03</pdfrwt>
<pdfrwt beam="2">  1       -1 0.24374774E+00 0.46827837E+03</pdfrwt>
<totfact> 0.71076936E-01</totfact>
</mgrwt>
</event>
<event>
 4    1  0.1678003E-008  0.6186277E+03  0.7818608E-02  0.9867496E-01
         -1   -1    0    0    0  501 -0.00000000000E+00  0.00000000000E+00  0.24546864058E+03  0.24546864063E+03  0.50400000000E-02 0.  1.
          1   -1    0    0  501    0  0.00000000000E+00 -0.00000000000E+00 -0.16832172597E+04  0.16832172597E+04  0.50400000000E-02 0. -1.
    8880022    1    1    2    0    0 -0.56479007978E+03  0.20080024677E+03 -0.98078201923E+03  0.11595833716E+04  0.15294330000E+03 0.  0.
    8880022    1    1    2    0    0  0.56479007978E+03 -0.20080024677E+03 -0.45696659985E+03  0.76910252874E+03  0.15294330000E+03 0.  1.
<mgrwt>
<rscale>  0 0.61862770E+03</rscale>
<asrwt>0</asrwt>
<pdfrwt beam="1">  1        1 0.25895649E+00 0.61862770E+03</pdfrwt>
<pdfrwt beam="2">  1       -1 0.37764407E-01 0.61862770E+03</pdfrwt>
<totfact> 0.34798191E+01</totfact>
</mgrwt>
</event>
<event>
 4    1  0.1678003E-008  0.1885471E+03  0.7818608E-02  0.1159778E+00
         -1   -1    0    0    0  501 -0.00000000000E+00  0.00000000000E+00  0.39968270255E+03  0.39968270258E+03  0.50400000000E-02 0.  1.
          1   -1    0    0  501    0  0.00000000000E+00 -0.00000000000E+00 -0.88590553424E+03  0.88590553426E+03  0.50400000000E-02 0. -1.
    8880022    1    1    2    0    0  0.50505026110E+02 -0.98018353608E+02 -0.85278367941E+03  0.87337850454E+03  0.15294330000E+03 0. -1.
    8880022    1    1    2    0    0 -0.50505026110E+02  0.98018353608E+02  0.36656084772E+03  0.41220973230E+03  0.15294330000E+03 0.  0.
<mgrwt>
<rscale>  0 0.18854710E+03</rscale>
<asrwt>0</asrwt>
<pdfrwt beam="1">  1        1 0.13629316E+00 0.18854710E+03</pdfrwt>
<pdfrwt beam="2">  1       -1 0.61489647E-01 0.18854710E+03</pdfrwt>
<totfact> 0.56609363E+01</totfact>
</mgrwt>
</event>
<event>
 4    1  0.1678003E-008  0.4481555E+03  0.7818608E-02  0.1028274E+00
         -1   -1    0    0    0  501 -0.00000000000E+00  0.00000000000E+00  0.37188399268E+03  0.37188399271E+03  0.50400000000E-02 0.  1.
          1   -1    0    0  501    0  0.00000000000E+00 -0.00000000000E+00 -0.25500629032E+04  0.25500629032E+04  0.50400000000E-02 0. -1.
    8880022    1    1    2    0    0  0.37074743241E+03  0.19999513581E+03 -0.23861616357E+04  0.24278819407E+04  0.15294330000E+03 0.  0.
    8880022    1    1    2    0    0 -0.37074743241E+03 -0.19999513581E+03  0.20798272522E+03  0.49406495523E+03  0.15294330000E+03 0.  0.
<mgrwt>
<rscale>  0 0.44815552E+03</rscale>
<asrwt>0</asrwt>
<pdfrwt beam="1">  1        1 0.39231736E+00 0.44815552E+03</pdfrwt>
<pdfrwt beam="2">  1       -1 0.57212924E-01 0.44815552E+03</pdfrwt>
<totfact> 0.44153935E+00</totfact>
</mgrwt>
</event>
<event>
 4    1  0.1678003E-008  0.3126306E+03  0.7818608E-02  0.1079092E+00
         -1   -1    0    0    0  501 -0.00000000000E+00  0.00000000000E+00  0.10611039234E+03  0.10611039246E+03  0.50400000000E-02 0.  1.
          1   -1    0    0  501    0  0.00000000000E+00 -0.00000000000E+00 -0.16069396239E+04  0.16069396239E+04  0.50400000000E-02 0. -1.
    8880022    1    1    2    0    0 -0.26936169436E+03  0.42314647470E+02 -0.19084686003E+03  0.36627916782E+03  0.15294330000E+03 0.  0.
    8880022    1    1    2    0    0  0.26936169436E+03 -0.42314647470E+02 -0.13099823715E+04  0.13467708485E+04  0.15294330000E+03 0.  0.
<mgrwt>
<rscale>  0 0.31263062E+03</rscale>
<asrwt>0</asrwt>
<pdfrwt beam="1">  1        1 0.24722146E+00 0.31263062E+03</pdfrwt>
<pdfrwt beam="2">  1       -1 0.16324677E-01 0.31263062E+03</pdfrwt>
<totfact> 0.17023995E+02</totfact>
</mgrwt>
</event>
<event>
 4    1  0.1678003E-008  0.1313881E+04  0.7818608E-02  0.9018629E-01
         -1   -1    0    0    0  501 -0.00000000000E+00  0.00000000000E+00  0.68164831104E+03  0.68164831106E+03  0.50400000000E-02 0.  1.
          1   -1    0    0  501    0  0.00000000000E+00 -0.00000000000E+00 -0.56080276734E+04  0.56080276734E+04  0.50400000000E-02 0. -1.
    8880022    1    1    2    0    0  0.26943034722E+03 -0.12768317268E+04 -0.47920962306E+04  0.49689505841E+04  0.15294330000E+03 0.  0.
    8880022    1    1    2    0    0 -0.26943034722E+03  0.12768317268E+04 -0.13428313170E+03  0.13207254003E+04  0.15294330000E+03 0.  0.
<mgrwt>
<rscale>  0 0.13138811E+04</rscale>
<asrwt>0</asrwt>
<pdfrwt beam="1">  1        1 0.86277346E+00 0.13138811E+04</pdfrwt>
<pdfrwt beam="2">  1       -1 0.10486897E+00 0.13138811E+04</pdfrwt>
<totfact> 0.85188851E-04</totfact>
</mgrwt>
</event>
<event>
 4    1  0.1678003E-008  0.8136749E+03  0.7818608E-02  0.9540431E-01
          1   -1    0    0  501    0  0.00000000000E+00  0.00000000000E+00  0.75194635742E+03  0.75194635743E+03  0.50400000000E-02 0. -1.
         -1   -1    0    0    0  501 -0.00000000000E+00 -0.00000000000E+00 -0.23314563296E+04  0.23314563296E+04  0.50400000000E-02 0.  1.
    8880022    1    1    2    0    0 -0.76315678882E+03  0.23720657715E+03  0.42648179117E+03  0.91866948125E+03  0.15294330000E+03 0.  0.
    8880022    1    1    2    0    0  0.76315678882E+03 -0.23720657715E+03 -0.20059917633E+04  0.21647332058E+04  0.15294330000E+03 0.  0.
<mgrwt>
<rscale>  0 0.81367493E+03</rscale>
<asrwt>0</asrwt>
<pdfrwt beam="1">  1        1 0.11568406E+00 0.81367493E+03</pdfrwt>
<pdfrwt beam="2">  1       -1 0.35868559E+00 0.81367493E+03</pdfrwt>
<totfact> 0.35055501E-01</totfact>
</mgrwt>
</event>
<event>
 4    1  0.1678003E-008  0.7388606E+03  0.7818608E-02  0.9652990E-01
         -1   -1    0    0    0  501 -0.00000000000E+00  0.00000000000E+00  0.29033690647E+03  0.29033690651E+03  0.50400000000E-02 0.  1.
          1   -1    0    0  501    0  0.00000000000E+00 -0.00000000000E+00 -0.24553859797E+04  0.24553859797E+04  0.50400000000E-02 0. -1.
    8880022    1    1    2    0    0  0.50733019793E+03  0.51491685933E+03 -0.41810804359E+03  0.84895776743E+03  0.15294330000E+03 0.  0.
    8880022    1    1    2    0    0 -0.50733019793E+03 -0.51491685933E+03 -0.17469410297E+04  0.18967651188E+04  0.15294330000E+03 0.  0.
<mgrwt>
<rscale>  0 0.73886058E+03</rscale>
<asrwt>0</asrwt>
<pdfrwt beam="1">  1        1 0.37775168E+00 0.73886058E+03</pdfrwt>
<pdfrwt beam="2">  1       -1 0.44667218E-01 0.73886058E+03</pdfrwt>
<totfact> 0.76353164E+00</totfact>
</mgrwt>
</event>
<event>
 4    1  0.1678003E-008  0.8322970E+03  0.7818608E-02  0.9514410E-01
          1   -1    0    0  501    0  0.00000000000E+00  0.00000000000E+00  0.16432301590E+04  0.16432301590E+04  0.50400000000E-02 0. -1.
         -1   -1    0    0    0  501 -0.00000000000E+00 -0.00000000000E+00 -0.73282403152E+03  0.73282403154E+03  0.50400000000E-02 0.  1.
    8880022    1    1    2    0    0  0.79558826319E+03  0.19069865840E+03 -0.31906567226E+03  0.89135919756E+03  0.15294330000E+03 0.  0.
    8880022    1    1    2    0    0 -0.79558826319E+03 -0.19069865840E+03  0.12294717998E+04  0.14846949930E+04  0.15294330000E+03 0.  0.
<mgrwt>
<rscale>  0 0.83229701E+03</rscale>
<asrwt>0</asrwt>
<pdfrwt beam="1">  1        1 0.25280464E+00 0.83229701E+03</pdfrwt>
<pdfrwt beam="2">  1       -1 0.11274216E+00 0.83229701E+03</pdfrwt>
<totfact> 0.38680439E+00</totfact>
</mgrwt>
</event>
<event>
 4    1  0.1678003E-008  0.7025621E+03  0.7818608E-02  0.9712861E-01
         -1   -1    0    0    0  501 -0.00000000000E+00  0.00000000000E+00  0.19221473568E+03  0.19221473575E+03  0.50400000000E-02 0.  1.
          1   -1    0    0  501    0  0.00000000000E+00 -0.00000000000E+00 -0.45795033356E+04  0.45795033356E+04  0.50400000000E-02 0. -1.
    8880022    1    1    2    0    0 -0.63954579019E+03  0.24735191861E+03 -0.61238231113E+03  0.93199009511E+03  0.15294330000E+03 0.  0.
    8880022    1    1    2    0    0  0.63954579019E+03 -0.24735191861E+03 -0.37749062888E+04  0.38397279763E+04  0.15294330000E+03 0.  0.
<mgrwt>
<rscale>  0 0.70256206E+03</rscale>
<asrwt>0</asrwt>
<pdfrwt beam="1">  1        1 0.70453889E+00 0.70256206E+03</pdfrwt>
<pdfrwt beam="2">  1       -1 0.29571501E-01 0.70256206E+03</pdfrwt>
<totfact> 0.32053795E-01</totfact>
</mgrwt>
</event>
<event>
 4    1  0.1678003E-008  0.2279865E+03  0.7818608E-02  0.1128065E+00
         -1   -1    0    0    0  501 -0.00000000000E+00  0.00000000000E+00  0.49713957616E+02  0.49713957872E+02  0.50400000000E-02 0.  1.
          1   -1    0    0  501    0  0.00000000000E+00 -0.00000000000E+00 -0.11508296290E+04  0.11508296290E+04  0.50400000000E-02 0. -1.
    8880022    1    1    2    0    0  0.16042212877E+03 -0.53393939457E+02 -0.73212596653E+03  0.76680261871E+03  0.15294330000E+03 0.  0.
    8880022    1    1    2    0    0 -0.16042212877E+03  0.53393939457E+02 -0.36898970484E+03  0.43374096816E+03  0.15294330000E+03 0.  0.
<mgrwt>
<rscale>  0 0.22798646E+03</rscale>
<asrwt>0</asrwt>
<pdfrwt beam="1">  1        1 0.17705069E+00 0.22798646E+03</pdfrwt>
<pdfrwt beam="2">  1       -1 0.76483021E-02 0.22798646E+03</pdfrwt>
<totfact> 0.11470699E+03</totfact>
</mgrwt>
</event>
<event>
 4    1  0.1678003E-008  0.6981211E+03  0.7818608E-02  0.9720451E-01
         -1   -1    0    0    0  501 -0.00000000000E+00  0.00000000000E+00  0.12809444625E+04  0.12809444626E+04  0.50400000000E-02 0.  1.
          1   -1    0    0  501    0  0.00000000000E+00 -0.00000000000E+00 -0.45940565692E+03  0.45940565695E+03  0.50400000000E-02 0. -1.
    8880022    1    1    2    0    0  0.31386343076E+02 -0.68043832800E+03  0.77144687372E+03  0.10404342136E+04  0.15294330000E+03 0.  0.
    8880022    1    1    2    0    0 -0.31386343076E+02  0.68043832800E+03  0.50091931900E+02  0.69991590595E+03  0.15294330000E+03 0. -1.
<mgrwt>
<rscale>  0 0.69812110E+03</rscale>
<asrwt>0</asrwt>
<pdfrwt beam="1">  1        1 0.70677794E-01 0.69812110E+03</pdfrwt>
<pdfrwt beam="2">  1       -1 0.19706838E+00 0.69812110E+03</pdfrwt>
<totfact> 0.81647007E+00</totfact>
</mgrwt>
</event>
<event>
 4    1  0.1678003E-008  0.4559812E+03  0.7818608E-02  0.1025953E+00
          1   -1    0    0  501    0  0.00000000000E+00  0.00000000000E+00  0.15404113350E+04  0.15404113350E+04  0.50400000000E-02 0. -1.
         -1   -1    0    0    0  501 -0.00000000000E+00 -0.00000000000E+00 -0.17619049893E+03  0.17619049900E+03  0.50400000000E-02 0.  1.
    8880022    1    1    2    0    0 -0.42824439741E+03 -0.33673661822E+02  0.10972292307E+04  0.11882048717E+04  0.15294330000E+03 0.  0.
    8880022    1    1    2    0    0  0.42824439741E+03  0.33673661822E+02  0.26699160535E+03  0.52839696229E+03  0.15294330000E+03 0. -1.
<mgrwt>
<rscale>  0 0.45598118E+03</rscale>
<asrwt>0</asrwt>
<pdfrwt beam="1">  1        1 0.23698635E+00 0.45598118E+03</pdfrwt>
<pdfrwt beam="2">  1       -1 0.27106231E-01 0.45598118E+03</pdfrwt>
<totfact> 0.79461717E+01</totfact>
</mgrwt>
</event>
<event>
 4    1  0.1678003E-008  0.1171393E+04  0.7818608E-02  0.9138271E-01
          1   -1    0    0  501    0  0.00000000000E+00  0.00000000000E+00  0.18333121121E+04  0.18333121121E+04  0.50400000000E-02 0. -1.
         -1   -1    0    0    0  501 -0.00000000000E+00 -0.00000000000E+00 -0.10909818214E+04  0.10909818215E+04  0.50400000000E-02 0.  1.
    8880022    1    1    2    0    0 -0.10572767349E+04  0.48055874914E+03  0.11904328091E+04  0.16701175801E+04  0.15294330000E+03 0.  0.
    8880022    1    1    2    0    0  0.10572767349E+04 -0.48055874914E+03 -0.44810251836E+03  0.12541763535E+04  0.15294330000E+03 0.  0.
<mgrwt>
<rscale>  0 0.11713934E+04</rscale>
<asrwt>0</asrwt>
<pdfrwt beam="1">  1        1 0.28204801E+00 0.11713934E+04</pdfrwt>
<pdfrwt beam="2">  1       -1 0.16784336E+00 0.11713934E+04</pdfrwt>
<totfact> 0.97223117E-01</totfact>
</mgrwt>
</event>
<event>
 4    1  0.1678003E-008  0.3513255E+03  0.7818608E-02  0.1062072E+00
         -1   -1    0    0    0  501 -0.00000000000E+00  0.00000000000E+00  0.49721901557E+03  0.49721901560E+03  0.50400000000E-02 0.  1.
          1   -1    0    0  501    0  0.00000000000E+00 -0.00000000000E+00 -0.27425311140E+03  0.27425311145E+03  0.50400000000E-02 0. -1.
    8880022    1    1    2    0    0  0.43265548954E+02  0.31331464597E+03 -0.73155471236E+01  0.35140168660E+03  0.15294330000E+03 0.  0.
    8880022    1    1    2    0    0 -0.43265548954E+02 -0.31331464597E+03  0.23028145130E+03  0.42007044044E+03  0.15294330000E+03 0.  0.
<mgrwt>
<rscale>  0 0.35132553E+03</rscale>
<asrwt>0</asrwt>
<pdfrwt beam="1">  1        1 0.42192787E-01 0.35132553E+03</pdfrwt>
<pdfrwt beam="2">  1       -1 0.76495232E-01 0.35132553E+03</pdfrwt>
<totfact> 0.17578968E+02</totfact>
</mgrwt>
</event>
<event>
 4    1  0.1678003E-008  0.4858960E+03  0.7818608E-02  0.1017527E+00
          1   -1    0    0  501    0  0.00000000000E+00  0.00000000000E+00  0.57793487819E+03  0.57793487821E+03  0.50400000000E-02 0. -1.
         -1   -1    0    0    0  501 -0.00000000000E+00 -0.00000000000E+00 -0.61520792483E+03  0.61520792485E+03  0.50400000000E-02 0.  1.
    8880022    1    1    2    0    0 -0.32693199186E+03 -0.32529794438E+03 -0.36442818644E+03  0.60737372021E+03  0.15294330000E+03 0.  0.
    8880022    1    1    2    0    0  0.32693199186E+03  0.32529794438E+03  0.32715513980E+03  0.58576908285E+03  0.15294330000E+03 0.  0.
<mgrwt>
<rscale>  0 0.48589601E+03</rscale>
<asrwt>0</asrwt>
<pdfrwt beam="1">  1        1 0.88913059E-01 0.48589601E+03</pdfrwt>
<pdfrwt beam="2">  1       -1 0.94647373E-01 0.48589601E+03</pdfrwt>
<totfact> 0.41137471E+01</totfact>
</mgrwt>
</event>
<event>
 4    1  0.1678003E-008  0.2843913E+03  0.7818608E-02  0.1093314E+00
          1   -1    0    0  501    0  0.00000000000E+00  0.00000000000E+00  0.12200711890E+04  0.12200711890E+04  0.50400000000E-02 0. -1.
         -1   -1    0    0    0  501 -0.00000000000E+00 -0.00000000000E+00 -0.67245263146E+03  0.67245263148E+03  0.50400000000E-02 0.  1.
    8880022    1    1    2    0    0 -0.22209560602E+03  0.90334282366E+02 -0.62460185778E+03  0.68629867736E+03  0.15294330000E+03 0.  1.
    8880022    1    1    2    0    0  0.22209560602E+03 -0.90334282366E+02  0.11722204153E+04  0.12062251431E+04  0.15294330000E+03 0.  0.
<mgrwt>
<rscale>  0 0.28439127E+03</rscale>
<asrwt>0</asrwt>
<pdfrwt beam="1">  1        1 0.18770326E+00 0.28439127E+03</pdfrwt>
<pdfrwt beam="2">  1       -1 0.10345425E+00 0.28439127E+03</pdfrwt>
<totfact> 0.10500135E+01</totfact>
</mgrwt>
</event>
<event>
 4    1  0.1678003E-008  0.6457165E+03  0.7818608E-02  0.9814850E-01
          1   -1    0    0  501    0  0.00000000000E+00  0.00000000000E+00  0.66877702787E+03  0.66877702789E+03  0.50400000000E-02 0. -1.
         -1   -1    0    0    0  501 -0.00000000000E+00 -0.00000000000E+00 -0.84958823233E+03  0.84958823234E+03  0.50400000000E-02 0.  1.
    8880022    1    1    2    0    0 -0.19006768562E+02 -0.62705415199E+03  0.30127123830E+03  0.71254065064E+03  0.15294330000E+03 0.  0.
    8880022    1    1    2    0    0  0.19006768562E+02  0.62705415199E+03 -0.48208244275E+03  0.80582460958E+03  0.15294330000E+03 0.  0.
<mgrwt>
<rscale>  0 0.64571652E+03</rscale>
<asrwt>0</asrwt>
<pdfrwt beam="1">  1        1 0.10288877E+00 0.64571652E+03</pdfrwt>
<pdfrwt beam="2">  1       -1 0.13070588E+00 0.64571652E+03</pdfrwt>
<totfact> 0.15216633E+01</totfact>
</mgrwt>
</event>
<event>
 4    1  0.1678003E-008  0.1847719E+03  0.7818608E-02  0.1163263E+00
          1   -1    0    0  501    0  0.00000000000E+00  0.00000000000E+00  0.85736499304E+03  0.85736499306E+03  0.50400000000E-02 0. -1.
         -1   -1    0    0    0  501 -0.00000000000E+00 -0.00000000000E+00 -0.67978795670E+03  0.67978795672E+03  0.50400000000E-02 0.  1.
    8880022    1    1    2    0    0  0.80712438576E+02  0.65073191074E+02 -0.65693752720E+03  0.68242771456E+03  0.15294330000E+03 0.  1.
    8880022    1    1    2    0    0 -0.80712438576E+02 -0.65073191074E+02  0.83451456354E+03  0.85472523522E+03  0.15294330000E+03 0.  0.
<mgrwt>
<rscale>  0 0.18477194E+03</rscale>
<asrwt>0</asrwt>
<pdfrwt beam="1">  1        1 0.13190231E+00 0.18477194E+03</pdfrwt>
<pdfrwt beam="2">  1       -1 0.10458276E+00 0.18477194E+03</pdfrwt>
<totfact> 0.19874178E+01</totfact>
</mgrwt>
</event>
<event>
 4    1  0.1678003E-008  0.4413665E+03  0.7818608E-02  0.1030328E+00
         -1   -1    0    0    0  501 -0.00000000000E+00  0.00000000000E+00  0.16698729395E+03  0.16698729403E+03  0.50400000000E-02 0.  1.
          1   -1    0    0  501    0  0.00000000000E+00 -0.00000000000E+00 -0.16782018613E+04  0.16782018613E+04  0.50400000000E-02 0. -1.
    8880022    1    1    2    0    0  0.25216178478E+02 -0.41325164135E+03 -0.12650112864E+04  0.13397977394E+04  0.15294330000E+03 0.  0.
    8880022    1    1    2    0    0 -0.25216178478E+02  0.41325164135E+03 -0.24620328090E+03  0.50539141591E+03  0.15294330000E+03 0.  0.
<mgrwt>
<rscale>  0 0.44136655E+03</rscale>
<asrwt>0</asrwt>
<pdfrwt beam="1">  1        1 0.25818489E+00 0.44136655E+03</pdfrwt>
<pdfrwt beam="2">  1       -1 0.25690354E-01 0.44136655E+03</pdfrwt>
<totfact> 0.70603890E+01</totfact>
</mgrwt>
</event>
<event>
 4    1  0.1678003E-008  0.2636709E+03  0.7818608E-02  0.1104958E+00
         -1   -1    0    0    0  501 -0.00000000000E+00  0.00000000000E+00  0.10886352448E+04  0.10886352448E+04  0.50400000000E-02 0.  1.
          1   -1    0    0  501    0  0.00000000000E+00 -0.00000000000E+00 -0.31572721248E+03  0.31572721252E+03  0.50400000000E-02 0. -1.
    8880022    1    1    2    0    0  0.41848946199E+01 -0.21473977453E+03 -0.24070456662E+03  0.35701684206E+03  0.15294330000E+03 0.  0.
    8880022    1    1    2    0    0 -0.41848946199E+01  0.21473977453E+03  0.10136125989E+04  0.10473456152E+04  0.15294330000E+03 0.  0.
<mgrwt>
<rscale>  0 0.26367089E+03</rscale>
<asrwt>0</asrwt>
<pdfrwt beam="1">  1        1 0.48573417E-01 0.26367089E+03</pdfrwt>
<pdfrwt beam="2">  1       -1 0.16748235E+00 0.26367089E+03</pdfrwt>
<totfact> 0.23364000E+01</totfact>
</mgrwt>
</event>
<event>
 4    1  0.1678003E-008  0.5892942E+03  0.7818608E-02  0.9927869E-01
         -1   -1    0    0    0  501 -0.00000000000E+00  0.00000000000E+00  0.31126702314E+03  0.31126702318E+03  0.50400000000E-02 0.  1.
          1   -1    0    0  501    0  0.00000000000E+00 -0.00000000000E+00 -0.16103630447E+04  0.16103630447E+04  0.50400000000E-02 0. -1.
    8880022    1    1    2    0    0  0.46782388934E+03  0.32406299018E+03 -0.11820863631E+04  0.13208314941E+04  0.15294330000E+03 0.  0.
    8880022    1    1    2    0    0 -0.46782388934E+03 -0.32406299018E+03 -0.11700965846E+03  0.60079857376E+03  0.15294330000E+03 0.  0.
<mgrwt>
<rscale>  0 0.58929421E+03</rscale>
<asrwt>0</asrwt>
<pdfrwt beam="1">  1        1 0.24774815E+00 0.58929421E+03</pdfrwt>
<pdfrwt beam="2">  1       -1 0.47887236E-01 0.58929421E+03</pdfrwt>
<totfact> 0.25325978E+01</totfact>
</mgrwt>
</event>
<event>
 4    1  0.1678003E-008  0.2657619E+03  0.7818608E-02  0.1103730E+00
         -1   -1    0    0    0  501 -0.00000000000E+00  0.00000000000E+00  0.53654504024E+03  0.53654504026E+03  0.50400000000E-02 0.  1.
          1   -1    0    0  501    0  0.00000000000E+00 -0.00000000000E+00 -0.23710876163E+04  0.23710876163E+04  0.50400000000E-02 0. -1.
    8880022    1    1    2    0    0  0.15319407471E+03  0.15417307213E+03 -0.23301550820E+04  0.23452616315E+04  0.15294330000E+03 0.  0.
    8880022    1    1    2    0    0 -0.15319407471E+03 -0.15417307213E+03  0.49561250601E+03  0.56237102506E+03  0.15294330000E+03 0.  1.
<mgrwt>
<rscale>  0 0.26576195E+03</rscale>
<asrwt>0</asrwt>
<pdfrwt beam="1">  1        1 0.36478270E+00 0.26576195E+03</pdfrwt>
<pdfrwt beam="2">  1       -1 0.82545392E-01 0.26576195E+03</pdfrwt>
<totfact> 0.30137989E+00</totfact>
</mgrwt>
</event>
<event>
 4    1  0.1678003E-008  0.3915936E+03  0.7818608E-02  0.1046730E+00
         -1   -1    0    0    0  501 -0.00000000000E+00  0.00000000000E+00  0.23127409040E+03  0.23127409045E+03  0.50400000000E-02 0.  1.
          1   -1    0    0  501    0  0.00000000000E+00 -0.00000000000E+00 -0.20452496403E+04  0.20452496403E+04  0.50400000000E-02 0. -1.
    8880022    1    1    2    0    0 -0.19052090297E+03  0.30603218347E+03 -0.18427271426E+04  0.18838760275E+04  0.15294330000E+03 0. -1.
    8880022    1    1    2    0    0  0.19052090297E+03 -0.30603218347E+03  0.28751592710E+02  0.39264770327E+03  0.15294330000E+03 0.  0.
<mgrwt>
<rscale>  0 0.39159362E+03</rscale>
<asrwt>0</asrwt>
<pdfrwt beam="1">  1        1 0.31465378E+00 0.39159362E+03</pdfrwt>
<pdfrwt beam="2">  1       -1 0.35580631E-01 0.39159362E+03</pdfrwt>
<totfact> 0.23315367E+01</totfact>
</mgrwt>
</event>
<event>
 4    1  0.1678003E-008  0.2419488E+03  0.7818608E-02  0.1118501E+00
         -1   -1    0    0    0  501 -0.00000000000E+00  0.00000000000E+00  0.26492558607E+03  0.26492558612E+03  0.50400000000E-02 0.  1.
          1   -1    0    0  501    0  0.00000000000E+00 -0.00000000000E+00 -0.12222214815E+04  0.12222214815E+04  0.50400000000E-02 0. -1.
    8880022    1    1    2    0    0  0.18571471544E+03 -0.25643822229E+02  0.19436232463E+03  0.31034807459E+03  0.15294330000E+03 0.  0.
    8880022    1    1    2    0    0 -0.18571471544E+03  0.25643822229E+02 -0.11516582201E+04  0.11767989931E+04  0.15294330000E+03 0. -1.
<mgrwt>
<rscale>  0 0.24194878E+03</rscale>
<asrwt>0</asrwt>
<pdfrwt beam="1">  1        1 0.18803407E+00 0.24194878E+03</pdfrwt>
<pdfrwt beam="2">  1       -1 0.40757783E-01 0.24194878E+03</pdfrwt>
<totfact> 0.67444227E+01</totfact>
</mgrwt>
</event>
<event>
 4    1  0.1678003E-008  0.5408892E+03  0.7818608E-02  0.1003625E+00
         -1   -1    0    0    0  501 -0.00000000000E+00  0.00000000000E+00  0.16165097260E+03  0.16165097268E+03  0.50400000000E-02 0.  1.
          1   -1    0    0  501    0  0.00000000000E+00 -0.00000000000E+00 -0.32355671611E+04  0.32355671611E+04  0.50400000000E-02 0. -1.
    8880022    1    1    2    0    0  0.48130109136E+03 -0.19369763940E+03 -0.26645127341E+04  0.27188580837E+04  0.15294330000E+03 0.  0.
    8880022    1    1    2    0    0 -0.48130109136E+03  0.19369763940E+03 -0.40940345439E+03  0.67836005008E+03  0.15294330000E+03 0.  0.
<mgrwt>
<rscale>  0 0.54088924E+03</rscale>
<asrwt>0</asrwt>
<pdfrwt beam="1">  1        1 0.49777951E+00 0.54088924E+03</pdfrwt>
<pdfrwt beam="2">  1       -1 0.24869383E-01 0.54088924E+03</pdfrwt>
<totfact> 0.63260044E+00</totfact>
</mgrwt>
</event>
<event>
 4    1  0.1678003E-008  0.9768093E+03  0.7818608E-02  0.9334352E-01
          1   -1    0    0  501    0  0.00000000000E+00  0.00000000000E+00  0.13888897267E+04  0.13888897267E+04  0.50400000000E-02 0. -1.
         -1   -1    0    0    0  501 -0.00000000000E+00 -0.00000000000E+00 -0.87387377314E+03  0.87387377315E+03  0.50400000000E-02 0.  1.
    8880022    1    1    2    0    0  0.93674642057E+03 -0.23080475653E+03 -0.26569247491E+03  0.10122987881E+04  0.15294330000E+03 0.  0.
    8880022    1    1    2    0    0 -0.93674642057E+03  0.23080475653E+03  0.78070842843E+03  0.12504647117E+04  0.15294330000E+03 0.  0.
<mgrwt>
<rscale>  0 0.97680927E+03</rscale>
<asrwt>0</asrwt>
<pdfrwt beam="1">  1        1 0.21367534E+00 0.97680927E+03</pdfrwt>
<pdfrwt beam="2">  1       -1 0.13444212E+00 0.97680927E+03</pdfrwt>
<totfact> 0.36691552E+00</totfact>
</mgrwt>
</event>
<event>
 4    1  0.1678003E-008  0.5725162E+03  0.7818608E-02  0.9964126E-01
          1   -1    0    0  501    0  0.00000000000E+00  0.00000000000E+00  0.11593561857E+04  0.11593561857E+04  0.50400000000E-02 0. -1.
         -1   -1    0    0    0  501 -0.00000000000E+00 -0.00000000000E+00 -0.96685702879E+03  0.96685702880E+03  0.50400000000E-02 0.  1.
    8880022    1    1    2    0    0  0.37917664391E+02 -0.55040474658E+03 -0.79801658113E+03  0.98214319277E+03  0.15294330000E+03 0.  0.
    8880022    1    1    2    0    0 -0.37917664391E+02  0.55040474658E+03  0.99051573799E+03  0.11440700217E+04  0.15294330000E+03 0.  0.
<mgrwt>
<rscale>  0 0.57251619E+03</rscale>
<asrwt>0</asrwt>
<pdfrwt beam="1">  1        1 0.17836249E+00 0.57251619E+03</pdfrwt>
<pdfrwt beam="2">  1       -1 0.14874724E+00 0.57251619E+03</pdfrwt>
<totfact> 0.43883479E+00</totfact>
</mgrwt>
</event>
<event>
 4    1  0.1678003E-008  0.5663943E+03  0.7818608E-02  0.9977689E-01
          1   -1    0    0  501    0  0.00000000000E+00  0.00000000000E+00  0.22689236186E+04  0.22689236186E+04  0.50400000000E-02 0. -1.
         -1   -1    0    0    0  501 -0.00000000000E+00 -0.00000000000E+00 -0.59917926096E+03  0.59917926098E+03  0.50400000000E-02 0.  1.
    8880022    1    1    2    0    0 -0.14780000172E+03 -0.52494379658E+03  0.20883575642E+04  0.21638021626E+04  0.15294330000E+03 0.  0.
    8880022    1    1    2    0    0  0.14780000172E+03  0.52494379658E+03 -0.41861320660E+03  0.70430071691E+03  0.15294330000E+03 0.  0.
<mgrwt>
<rscale>  0 0.56639428E+03</rscale>
<asrwt>0</asrwt>
<pdfrwt beam="1">  1        1 0.34906517E+00 0.56639428E+03</pdfrwt>
<pdfrwt beam="2">  1       -1 0.92181424E-01 0.56639428E+03</pdfrwt>
<totfact> 0.24715665E+00</totfact>
</mgrwt>
</event>
<event>
 4    1  0.1678003E-008  0.2100072E+03  0.7818608E-02  0.1141560E+00
         -1   -1    0    0    0  501 -0.00000000000E+00  0.00000000000E+00  0.92772426267E+03  0.92772426269E+03  0.50400000000E-02 0.  1.
          1   -1    0    0  501    0  0.00000000000E+00 -0.00000000000E+00 -0.20566428767E+03  0.20566428773E+03  0.50400000000E-02 0. -1.
    8880022    1    1    2    0    0 -0.12948517473E+03 -0.62808959782E+02  0.85793128181E+03  0.88326050134E+03  0.15294330000E+03 0.  0.
    8880022    1    1    2    0    0  0.12948517473E+03  0.62808959782E+02 -0.13587130681E+03  0.25012804907E+03  0.15294330000E+03 0. -1.
<mgrwt>
<rscale>  0 0.21000721E+03</rscale>
<asrwt>0</asrwt>
<pdfrwt beam="1">  1        1 0.31640660E-01 0.21000721E+03</pdfrwt>
<pdfrwt beam="2">  1       -1 0.14272681E+00 0.21000721E+03</pdfrwt>
<totfact> 0.62223082E+01</totfact>
</mgrwt>
</event>
<event>
 4    1  0.1678003E-008  0.7665319E+03  0.7818608E-02  0.9609766E-01
          1   -1    0    0  501    0  0.00000000000E+00  0.00000000000E+00  0.15111022958E+04  0.15111022958E+04  0.50400000000E-02 0. -1.
         -1   -1    0    0    0  501 -0.00000000000E+00 -0.00000000000E+00 -0.48325508444E+03  0.48325508447E+03  0.50400000000E-02 0.  1.
    8880022    1    1    2    0    0  0.51436537621E+03  0.54736436232E+03  0.73151185065E+02  0.77001443770E+03  0.15294330000E+03 0.  0.
    8880022    1    1    2    0    0 -0.51436537621E+03 -0.54736436232E+03  0.95469602627E+03  0.12243429425E+04  0.15294330000E+03 0.  0.
<mgrwt>
<rscale>  0 0.76653189E+03</rscale>
<asrwt>0</asrwt>
<pdfrwt beam="1">  1        1 0.23247727E+00 0.76653189E+03</pdfrwt>
<pdfrwt beam="2">  1       -1 0.74346937E-01 0.76653189E+03</pdfrwt>
<totfact> 0.12113913E+01</totfact>
</mgrwt>
</event>
<event>
 4    1  0.1678003E-008  0.5305788E+03  0.7818608E-02  0.1006092E+00
         -1   -1    0    0    0  501 -0.00000000000E+00  0.00000000000E+00  0.76989973022E+03  0.76989973024E+03  0.50400000000E-02 0.  1.
          1   -1    0    0  501    0  0.00000000000E+00 -0.00000000000E+00 -0.45471156228E+03  0.45471156231E+03  0.50400000000E-02 0. -1.
    8880022    1    1    2    0    0  0.46499159078E+03 -0.20470723352E+03  0.42857909493E+03  0.68205126242E+03  0.15294330000E+03 0.  0.
    8880022    1    1    2    0    0 -0.46499159078E+03  0.20470723352E+03 -0.11339092699E+03  0.54256003012E+03  0.15294330000E+03 0.  0.
<mgrwt>
<rscale>  0 0.53057882E+03</rscale>
<asrwt>0</asrwt>
<pdfrwt beam="1">  1        1 0.69955626E-01 0.53057882E+03</pdfrwt>
<pdfrwt beam="2">  1       -1 0.11844611E+00 0.53057882E+03</pdfrwt>
<totfact> 0.33822802E+01</totfact>
</mgrwt>
</event>
<event>
 4    1  0.1678003E-008  0.2303998E+03  0.7818608E-02  0.1126359E+00
          1   -1    0    0  501    0  0.00000000000E+00  0.00000000000E+00  0.21418472892E+04  0.21418472892E+04  0.50400000000E-02 0. -1.
         -1   -1    0    0    0  501 -0.00000000000E+00 -0.00000000000E+00 -0.20265426577E+03  0.20265426583E+03  0.50400000000E-02 0.  1.
    8880022    1    1    2    0    0 -0.85002176532E+02  0.14989013585E+03 -0.12863532143E+03  0.26387709597E+03  0.15294330000E+03 0.  1.
    8880022    1    1    2    0    0  0.85002176532E+02 -0.14989013585E+03  0.20678283448E+04  0.20806244590E+04  0.15294330000E+03 0.  0.
<mgrwt>
<rscale>  0 0.23039982E+03</rscale>
<asrwt>0</asrwt>
<pdfrwt beam="1">  1        1 0.32951498E+00 0.23039982E+03</pdfrwt>
<pdfrwt beam="2">  1       -1 0.31177578E-01 0.23039982E+03</pdfrwt>
<totfact> 0.26857782E+01</totfact>
</mgrwt>
</event>
<event>
 4    1  0.1678003E-008  0.6324502E+03  0.7818608E-02  0.9840279E-01
          1   -1    0    0  501    0  0.00000000000E+00  0.00000000000E+00  0.24460694894E+04  0.24460694894E+04  0.50400000000E-02 0. -1.
         -1   -1    0    0    0  501 -0.00000000000E+00 -0.00000000000E+00 -0.10697548497E+04  0.10697548497E+04  0.50400000000E-02 0.  1.
    8880022    1    1    2    0    0 -0.61319688060E+03 -0.24314778586E+02  0.23061414047E+04  0.23912928416E+04  0.15294330000E+03 0.  0.
    8880022    1    1    2    0    0  0.61319688060E+03  0.24314778586E+02 -0.92982676507E+03  0.11245314975E+04  0.15294330000E+03 0.  0.
<mgrwt>
<rscale>  0 0.63245022E+03</rscale>
<asrwt>0</asrwt>
<pdfrwt beam="1">  1        1 0.37631838E+00 0.63245022E+03</pdfrwt>
<pdfrwt beam="2">  1       -1 0.16457767E+00 0.63245022E+03</pdfrwt>
<totfact> 0.44071134E-01</totfact>
</mgrwt>
</event>
<event>
 4    1  0.1678003E-008  0.2540677E+03  0.7818608E-02  0.1110761E+00
          1   -1    0    0  501    0  0.00000000000E+00  0.00000000000E+00  0.57369073472E+03  0.57369073474E+03  0.50400000000E-02 0. -1.
         -1   -1    0    0    0  501 -0.00000000000E+00 -0.00000000000E+00 -0.13704238835E+03  0.13704238844E+03  0.50400000000E-02 0.  1.
    8880022    1    1    2    0    0  0.32230942324E+02 -0.20029953975E+03  0.67992537706E+02  0.26300832205E+03  0.15294330000E+03 0.  0.
    8880022    1    1    2    0    0 -0.32230942324E+02  0.20029953975E+03  0.36865580866E+03  0.44772480113E+03  0.15294330000E+03 0. -1.
<mgrwt>
<rscale>  0 0.25406769E+03</rscale>
<asrwt>0</asrwt>
<pdfrwt beam="1">  1        1 0.88260114E-01 0.25406769E+03</pdfrwt>
<pdfrwt beam="2">  1       -1 0.21083444E-01 0.25406769E+03</pdfrwt>
<totfact> 0.69510773E+02</totfact>
</mgrwt>
</event>
<event>
 4    1  0.1678003E-008  0.8228188E+03  0.7818608E-02  0.9527563E-01
          1   -1    0    0  501    0  0.00000000000E+00  0.00000000000E+00  0.74659942690E+03  0.74659942692E+03  0.50400000000E-02 0. -1.
         -1   -1    0    0    0  501 -0.00000000000E+00 -0.00000000000E+00 -0.11141530807E+04  0.11141530807E+04  0.50400000000E-02 0.  1.
    8880022    1    1    2    0    0 -0.75584235364E+02  0.80493859228E+03  0.21757128284E+03  0.85109813189E+03  0.15294330000E+03 0.  0.
    8880022    1    1    2    0    0  0.75584235364E+02 -0.80493859228E+03 -0.58512493666E+03  0.10096543758E+04  0.15294330000E+03 0.  0.
<mgrwt>
<rscale>  0 0.82281879E+03</rscale>
<asrwt>0</asrwt>
<pdfrwt beam="1">  1        1 0.11486145E+00 0.82281879E+03</pdfrwt>
<pdfrwt beam="2">  1       -1 0.17140817E+00 0.82281879E+03</pdfrwt>
<totfact> 0.60688097E+00</totfact>
</mgrwt>
</event>
<event>
 4    1  0.1678003E-008  0.7945741E+03  0.7818608E-02  0.9567904E-01
         -1   -1    0    0    0  501 -0.00000000000E+00  0.00000000000E+00  0.45170395009E+03  0.45170395012E+03  0.50400000000E-02 0.  1.
          1   -1    0    0  501    0  0.00000000000E+00 -0.00000000000E+00 -0.23919911149E+04  0.23919911149E+04  0.50400000000E-02 0. -1.
    8880022    1    1    2    0    0  0.60216449045E+03  0.49533255141E+03 -0.53439163527E+02  0.79636914007E+03  0.15294330000E+03 0.  0.
    8880022    1    1    2    0    0 -0.60216449045E+03 -0.49533255141E+03 -0.18868480013E+04  0.20473259250E+04  0.15294330000E+03 0. -1.
<mgrwt>
<rscale>  0 0.79457414E+03</rscale>
<asrwt>0</asrwt>
<pdfrwt beam="1">  1        1 0.36799863E+00 0.79457414E+03</pdfrwt>
<pdfrwt beam="2">  1       -1 0.69492917E-01 0.79457414E+03</pdfrwt>
<totfact> 0.35391462E+00</totfact>
</mgrwt>
</event>
<event>
 4    1  0.1678003E-008  0.7109336E+03  0.7818608E-02  0.9698715E-01
         -1   -1    0    0    0  501 -0.00000000000E+00  0.00000000000E+00  0.62665971999E+03  0.62665972001E+03  0.50400000000E-02 0.  1.
          1   -1    0    0  501    0  0.00000000000E+00 -0.00000000000E+00 -0.10183165775E+04  0.10183165775E+04  0.50400000000E-02 0. -1.
    8880022    1    1    2    0    0 -0.17212544007E+03 -0.67261265412E+03  0.17925375199E+03  0.73318381749E+03  0.15294330000E+03 0.  0.
    8880022    1    1    2    0    0  0.17212544007E+03  0.67261265412E+03 -0.57091060952E+03  0.91179248005E+03  0.15294330000E+03 0.  0.
<mgrwt>
<rscale>  0 0.71093361E+03</rscale>
<asrwt>0</asrwt>
<pdfrwt beam="1">  1        1 0.15666409E+00 0.71093361E+03</pdfrwt>
<pdfrwt beam="2">  1       -1 0.96409188E-01 0.71093361E+03</pdfrwt>
<totfact> 0.15708241E+01</totfact>
</mgrwt>
</event>
<event>
 4    1  0.1678003E-008  0.2155309E+03  0.7818608E-02  0.1137259E+00
         -1   -1    0    0    0  501 -0.00000000000E+00  0.00000000000E+00  0.17119962260E+03  0.17119962268E+03  0.50400000000E-02 0.  1.
          1   -1    0    0  501    0  0.00000000000E+00 -0.00000000000E+00 -0.43710875420E+03  0.43710875423E+03  0.50400000000E-02 0. -1.
    8880022    1    1    2    0    0  0.34455966482E+02 -0.14790101061E+03 -0.32025911279E+03  0.38603040671E+03  0.15294330000E+03 0. -1.
    8880022    1    1    2    0    0 -0.34455966482E+02  0.14790101061E+03  0.54349981187E+02  0.22227797020E+03  0.15294330000E+03 0.  0.
<mgrwt>
<rscale>  0 0.21553092E+03</rscale>
<asrwt>0</asrwt>
<pdfrwt beam="1">  1        1 0.67247500E-01 0.21553092E+03</pdfrwt>
<pdfrwt beam="2">  1       -1 0.26338404E-01 0.21553092E+03</pdfrwt>
<totfact> 0.69132645E+02</totfact>
</mgrwt>
</event>
<event>
 4    1  0.1678003E-008  0.3933031E+03  0.7818608E-02  0.1046124E+00
         -1   -1    0    0    0  501 -0.00000000000E+00  0.00000000000E+00  0.37700398163E+03  0.37700398166E+03  0.50400000000E-02 0.  1.
          1   -1    0    0  501    0  0.00000000000E+00 -0.00000000000E+00 -0.14520057180E+04  0.14520057180E+04  0.50400000000E-02 0. -1.
    8880022    1    1    2    0    0 -0.20662558316E+03  0.29766010660E+03 -0.13120927511E+04  0.13697717734E+04  0.15294330000E+03 0.  0.
    8880022    1    1    2    0    0  0.20662558316E+03 -0.29766010660E+03  0.23709101471E+03  0.45923792630E+03  0.15294330000E+03 0.  1.
<mgrwt>
<rscale>  0 0.39330309E+03</rscale>
<asrwt>0</asrwt>
<pdfrwt beam="1">  1        1 0.22338549E+00 0.39330309E+03</pdfrwt>
<pdfrwt beam="2">  1       -1 0.58000614E-01 0.39330309E+03</pdfrwt>
<totfact> 0.23419856E+01</totfact>
</mgrwt>
</event>
<event>
 4    1  0.1678003E-008  0.2776535E+03  0.7818608E-02  0.1096977E+00
          1   -1    0    0  501    0  0.00000000000E+00  0.00000000000E+00  0.45085454325E+03  0.45085454328E+03  0.50400000000E-02 0. -1.
         -1   -1    0    0    0  501 -0.00000000000E+00 -0.00000000000E+00 -0.23485204168E+03  0.23485204173E+03  0.50400000000E-02 0.  1.
    8880022    1    1    2    0    0  0.15956970766E+03  0.16803969779E+03 -0.70784771605E+02  0.28653441074E+03  0.15294330000E+03 0.  0.
    8880022    1    1    2    0    0 -0.15956970766E+03 -0.16803969779E+03  0.28678727318E+03  0.39917217426E+03  0.15294330000E+03 0.  0.
<mgrwt>
<rscale>  0 0.27765353E+03</rscale>
<asrwt>0</asrwt>
<pdfrwt beam="1">  1        1 0.69362237E-01 0.27765353E+03</pdfrwt>
<pdfrwt beam="2">  1       -1 0.36131084E-01 0.27765353E+03</pdfrwt>
<totfact> 0.38562454E+02</totfact>
</mgrwt>
</event>
<event>
 4    1  0.1678003E-008  0.8413379E+03  0.7818608E-02  0.9502037E-01
         -1   -1    0    0    0  501 -0.00000000000E+00  0.00000000000E+00  0.77482151698E+03  0.77482151700E+03  0.50400000000E-02 0.  1.
          1   -1    0    0  501    0  0.00000000000E+00 -0.00000000000E+00 -0.11665703655E+04  0.11665703655E+04  0.50400000000E-02 0. -1.
    8880022    1    1    2    0    0 -0.70237102270E+03 -0.43718730082E+03 -0.64793124534E+03  0.10619154115E+04  0.15294330000E+03 0.  0.
    8880022    1    1    2    0    0  0.70237102270E+03  0.43718730082E+03  0.25618239683E+03  0.87947647097E+03  0.15294330000E+03 0.  0.
<mgrwt>
<rscale>  0 0.84133789E+03</rscale>
<asrwt>0</asrwt>
<pdfrwt beam="1">  1        1 0.17947236E+00 0.84133789E+03</pdfrwt>
<pdfrwt beam="2">  1       -1 0.11920331E+00 0.84133789E+03</pdfrwt>
<totfact> 0.72764246E+00</totfact>
</mgrwt>
</event>
<event>
 4    1  0.1678003E-008  0.3378227E+03  0.7818608E-02  0.1067727E+00
          1   -1    0    0  501    0  0.00000000000E+00  0.00000000000E+00  0.38590125658E+03  0.38590125661E+03  0.50400000000E-02 0. -1.
         -1   -1    0    0    0  501 -0.00000000000E+00 -0.00000000000E+00 -0.21281627713E+04  0.21281627713E+04  0.50400000000E-02 0.  1.
    8880022    1    1    2    0    0  0.26197773596E+03  0.14866139459E+03  0.29529592452E+03  0.44869129748E+03  0.15294330000E+03 0.  0.
    8880022    1    1    2    0    0 -0.26197773596E+03 -0.14866139459E+03 -0.20375574393E+04  0.20653727304E+04  0.15294330000E+03 0.  0.
<mgrwt>
<rscale>  0 0.33782273E+03</rscale>
<asrwt>0</asrwt>
<pdfrwt beam="1">  1        1 0.59369425E-01 0.33782273E+03</pdfrwt>
<pdfrwt beam="2">  1       -1 0.32740965E+00 0.33782273E+03</pdfrwt>
<totfact> 0.16209609E+00</totfact>
</mgrwt>
</event>
<event>
 4    1  0.1678003E-008  0.7176749E+03  0.7818608E-02  0.9687474E-01
         -1   -1    0    0    0  501 -0.00000000000E+00  0.00000000000E+00  0.98395171857E+03  0.98395171858E+03  0.50400000000E-02 0.  1.
          1   -1    0    0  501    0  0.00000000000E+00 -0.00000000000E+00 -0.12193473910E+04  0.12193473911E+04  0.50400000000E-02 0. -1.
    8880022    1    1    2    0    0 -0.33088977324E+03 -0.61820507896E+03  0.71454468811E+03  0.10127345783E+04  0.15294330000E+03 0.  0.
    8880022    1    1    2    0    0  0.33088977324E+03  0.61820507896E+03 -0.94994036058E+03  0.11905645314E+04  0.15294330000E+03 0.  0.
<mgrwt>
<rscale>  0 0.71767487E+03</rscale>
<asrwt>0</asrwt>
<pdfrwt beam="1">  1        1 0.18759191E+00 0.71767487E+03</pdfrwt>
<pdfrwt beam="2">  1       -1 0.15137719E+00 0.71767487E+03</pdfrwt>
<totfact> 0.36831074E+00</totfact>
</mgrwt>
</event>
<event>
 4    1  0.1678003E-008  0.5792547E+03  0.7818608E-02  0.9949406E-01
         -1   -1    0    0    0  501 -0.00000000000E+00  0.00000000000E+00  0.10044908839E+04  0.10044908839E+04  0.50400000000E-02 0.  1.
          1   -1    0    0  501    0  0.00000000000E+00 -0.00000000000E+00 -0.39027337436E+03  0.39027337439E+03  0.50400000000E-02 0. -1.
    8880022    1    1    2    0    0  0.47931461904E+03 -0.28705728310E+03  0.57183631848E+03  0.81396118823E+03  0.15294330000E+03 0.  0.
    8880022    1    1    2    0    0 -0.47931461904E+03  0.28705728310E+03  0.42381191038E+02  0.58080307005E+03  0.15294330000E+03 0.  0.
<mgrwt>
<rscale>  0 0.57925473E+03</rscale>
<asrwt>0</asrwt>
<pdfrwt beam="1">  1        1 0.60042058E-01 0.57925473E+03</pdfrwt>
<pdfrwt beam="2">  1       -1 0.15453706E+00 0.57925473E+03</pdfrwt>
<totfact> 0.20874411E+01</totfact>
</mgrwt>
</event>
<event>
 4    1  0.1678003E-008  0.4594051E+03  0.7818608E-02  0.1024954E+00
          1   -1    0    0  501    0  0.00000000000E+00  0.00000000000E+00  0.63029818910E+03  0.63029818912E+03  0.50400000000E-02 0. -1.
         -1   -1    0    0    0  501 -0.00000000000E+00 -0.00000000000E+00 -0.41778187456E+03  0.41778187459E+03  0.50400000000E-02 0.  1.
    8880022    1    1    2    0    0 -0.24307226797E+02 -0.43251654698E+03 -0.12722734815E+03  0.47669681750E+03  0.15294330000E+03 0.  0.
    8880022    1    1    2    0    0  0.24307226797E+02  0.43251654698E+03  0.33974366270E+03  0.57138324620E+03  0.15294330000E+03 0.  0.
<mgrwt>
<rscale>  0 0.45940511E+03</rscale>
<asrwt>0</asrwt>
<pdfrwt beam="1">  1        1 0.96968953E-01 0.45940511E+03</pdfrwt>
<pdfrwt beam="2">  1       -1 0.64274134E-01 0.45940511E+03</pdfrwt>
<totfact> 0.82021111E+01</totfact>
</mgrwt>
</event>
<event>
 4    1  0.1678003E-008  0.2534869E+03  0.7818608E-02  0.1111121E+00
          1   -1    0    0  501    0  0.00000000000E+00  0.00000000000E+00  0.79479517866E+03  0.79479517867E+03  0.50400000000E-02 0. -1.
         -1   -1    0    0    0  501 -0.00000000000E+00 -0.00000000000E+00 -0.56581145581E+03  0.56581145583E+03  0.50400000000E-02 0.  1.
    8880022    1    1    2    0    0 -0.18248243345E+03 -0.86971866648E+02  0.74432043011E+03  0.78630051494E+03  0.15294330000E+03 0. -1.
    8880022    1    1    2    0    0  0.18248243345E+03  0.86971866648E+02 -0.51533670726E+03  0.57430611956E+03  0.15294330000E+03 0.  0.
<mgrwt>
<rscale>  0 0.25348688E+03</rscale>
<asrwt>0</asrwt>
<pdfrwt beam="1">  1        1 0.12227618E+00 0.25348688E+03</pdfrwt>
<pdfrwt beam="2">  1       -1 0.87047917E-01 0.25348688E+03</pdfrwt>
<totfact> 0.32491152E+01</totfact>
</mgrwt>
</event>
<event>
 4    1  0.1678003E-008  0.1237176E+04  0.7818608E-02  0.9080924E-01
          1   -1    0    0  501    0  0.00000000000E+00  0.00000000000E+00  0.14790979236E+04  0.14790979236E+04  0.50400000000E-02 0. -1.
         -1   -1    0    0    0  501 -0.00000000000E+00 -0.00000000000E+00 -0.10990367458E+04  0.10990367458E+04  0.50400000000E-02 0.  1.
    8880022    1    1    2    0    0  0.11488279748E+04 -0.43290609560E+03 -0.12155857296E+03  0.12431337591E+04  0.15294330000E+03 0.  0.
    8880022    1    1    2    0    0 -0.11488279748E+04  0.43290609560E+03  0.50161975076E+03  0.13350009104E+04  0.15294330000E+03 0.  0.
<mgrwt>
<rscale>  0 0.12371762E+04</rscale>
<asrwt>0</asrwt>
<pdfrwt beam="1">  1        1 0.22755353E+00 0.12371762E+04</pdfrwt>
<pdfrwt beam="2">  1       -1 0.16908258E+00 0.12371762E+04</pdfrwt>
<totfact> 0.16501307E+00</totfact>
</mgrwt>
</event>
<event>
 4    1  0.1678003E-008  0.2559539E+03  0.7818608E-02  0.1109599E+00
          1   -1    0    0  501    0  0.00000000000E+00  0.00000000000E+00  0.95234846631E+03  0.95234846633E+03  0.50400000000E-02 0. -1.
         -1   -1    0    0    0  501 -0.00000000000E+00 -0.00000000000E+00 -0.47051125281E+03  0.47051125284E+03  0.50400000000E-02 0.  1.
    8880022    1    1    2    0    0  0.61364364881E+02  0.19584478354E+03 -0.41645048119E+03  0.48881839247E+03  0.15294330000E+03 0.  1.
    8880022    1    1    2    0    0 -0.61364364881E+02 -0.19584478354E+03  0.89828769469E+03  0.93404132669E+03  0.15294330000E+03 0.  0.
<mgrwt>
<rscale>  0 0.25595394E+03</rscale>
<asrwt>0</asrwt>
<pdfrwt beam="1">  1        1 0.14651515E+00 0.25595394E+03</pdfrwt>
<pdfrwt beam="2">  1       -1 0.72386347E-01 0.25595394E+03</pdfrwt>
<totfact> 0.35600399E+01</totfact>
</mgrwt>
</event>
<event>
 4    1  0.1678003E-008  0.1092221E+04  0.7818608E-02  0.9212807E-01
          1   -1    0    0  501    0  0.00000000000E+00  0.00000000000E+00  0.96855313067E+03  0.96855313068E+03  0.50400000000E-02 0. -1.
         -1   -1    0    0    0  501 -0.00000000000E+00 -0.00000000000E+00 -0.15734461063E+04  0.15734461064E+04  0.50400000000E-02 0.  1.
    8880022    1    1    2    0    0  0.90214905280E+03 -0.59639149485E+03  0.28991125592E+03  0.11300424408E+04  0.15294330000E+03 0.  0.
    8880022    1    1    2    0    0 -0.90214905280E+03  0.59639149485E+03 -0.89480423160E+03  0.14119567963E+04  0.15294330000E+03 0.  0.
<mgrwt>
<rscale>  0 0.10922213E+04</rscale>
<asrwt>0</asrwt>
<pdfrwt beam="1">  1        1 0.14900817E+00 0.10922213E+04</pdfrwt>
<pdfrwt beam="2">  1       -1 0.24206863E+00 0.10922213E+04</pdfrwt>
<totfact> 0.12525348E+00</totfact>
</mgrwt>
</event>
<event>
 4    1  0.1678003E-008  0.5706061E+03  0.7818608E-02  0.9968338E-01
         -1   -1    0    0    0  501 -0.00000000000E+00  0.00000000000E+00  0.10064669978E+04  0.10064669978E+04  0.50400000000E-02 0.  1.
          1   -1    0    0  501    0  0.00000000000E+00 -0.00000000000E+00 -0.13645111290E+04  0.13645111290E+04  0.50400000000E-02 0. -1.
    8880022    1    1    2    0    0 -0.27644810795E+03 -0.47515909848E+03  0.85644631351E+03  0.10291217937E+04  0.15294330000E+03 0.  0.
    8880022    1    1    2    0    0  0.27644810795E+03  0.47515909848E+03 -0.12144904448E+04  0.13418563331E+04  0.15294330000E+03 0.  0.
<mgrwt>
<rscale>  0 0.57060615E+03</rscale>
<asrwt>0</asrwt>
<pdfrwt beam="1">  1        1 0.20992479E+00 0.57060615E+03</pdfrwt>
<pdfrwt beam="2">  1       -1 0.15484108E+00 0.57060615E+03</pdfrwt>
<totfact> 0.28210560E+00</totfact>
</mgrwt>
</event>
<event>
 4    1  0.1678003E-008  0.4572116E+03  0.7818608E-02  0.1025593E+00
         -1   -1    0    0    0  501 -0.00000000000E+00  0.00000000000E+00  0.36592719262E+03  0.36592719265E+03  0.50400000000E-02 0.  1.
          1   -1    0    0  501    0  0.00000000000E+00 -0.00000000000E+00 -0.10065289492E+04  0.10065289492E+04  0.50400000000E-02 0. -1.
    8880022    1    1    2    0    0  0.54455244759E+02  0.42741719303E+03 -0.77156438388E+03  0.89685789402E+03  0.15294330000E+03 0.  0.
    8880022    1    1    2    0    0 -0.54455244759E+02 -0.42741719303E+03  0.13096262730E+03  0.47559824784E+03  0.15294330000E+03 0.  0.
<mgrwt>
<rscale>  0 0.45721164E+03</rscale>
<asrwt>0</asrwt>
<pdfrwt beam="1">  1        1 0.15485061E+00 0.45721164E+03</pdfrwt>
<pdfrwt beam="2">  1       -1 0.56296491E-01 0.45721164E+03</pdfrwt>
<totfact> 0.50737665E+01</totfact>
</mgrwt>
</event>
<event>
 4    1  0.1678003E-008  0.4903687E+03  0.7818608E-02  0.1016324E+00
         -1   -1    0    0    0  501 -0.00000000000E+00  0.00000000000E+00  0.93254757918E+03  0.93254757920E+03  0.50400000000E-02 0.  1.
          1   -1    0    0  501    0  0.00000000000E+00 -0.00000000000E+00 -0.44717840945E+03  0.44717840948E+03  0.50400000000E-02 0. -1.
    8880022    1    1    2    0    0 -0.11950788107E+03 -0.45031949549E+03 -0.20619035337E+03  0.53195478802E+03  0.15294330000E+03 0.  0.
    8880022    1    1    2    0    0  0.11950788107E+03  0.45031949549E+03  0.69155952310E+03  0.84777120066E+03  0.15294330000E+03 0.  0.
<mgrwt>
<rscale>  0 0.49036867E+03</rscale>
<asrwt>0</asrwt>
<pdfrwt beam="1">  1        1 0.68796679E-01 0.49036867E+03</pdfrwt>
<pdfrwt beam="2">  1       -1 0.14346886E+00 0.49036867E+03</pdfrwt>
<totfact> 0.21523779E+01</totfact>
</mgrwt>
</event>
<event>
 4    1  0.1678003E-008  0.7540665E+03  0.7818608E-02  0.9628992E-01
         -1   -1    0    0    0  501 -0.00000000000E+00  0.00000000000E+00  0.42993976046E+03  0.42993976049E+03  0.50400000000E-02 0.  1.
          1   -1    0    0  501    0  0.00000000000E+00 -0.00000000000E+00 -0.24388539987E+04  0.24388539987E+04  0.50400000000E-02 0. -1.
    8880022    1    1    2    0    0 -0.65717730159E+03  0.33666391903E+03 -0.19748954272E+04  0.21139603122E+04  0.15294330000E+03 0.  0.
    8880022    1    1    2    0    0  0.65717730159E+03 -0.33666391903E+03 -0.34018810967E+02  0.75483344694E+03  0.15294330000E+03 0.  0.
<mgrwt>
<rscale>  0 0.75406648E+03</rscale>
<asrwt>0</asrwt>
<pdfrwt beam="1">  1        1 0.37520830E+00 0.75406648E+03</pdfrwt>
<pdfrwt beam="2">  1       -1 0.66144580E-01 0.75406648E+03</pdfrwt>
<totfact> 0.36627835E+00</totfact>
</mgrwt>
</event>
<event>
 4    1  0.1678003E-008  0.5851016E+03  0.7818608E-02  0.9936807E-01
          1   -1    0    0  501    0  0.00000000000E+00  0.00000000000E+00  0.19680671663E+04  0.19680671663E+04  0.50400000000E-02 0. -1.
         -1   -1    0    0    0  501 -0.00000000000E+00 -0.00000000000E+00 -0.27996828059E+03  0.27996828064E+03  0.50400000000E-02 0.  1.
    8880022    1    1    2    0    0 -0.62740931439E+02  0.56126264856E+03  0.15357380569E+04  0.16434218014E+04  0.15294330000E+03 0.  0.
    8880022    1    1    2    0    0  0.62740931439E+02 -0.56126264856E+03  0.15236082885E+03  0.60461364551E+03  0.15294330000E+03 0.  1.
<mgrwt>
<rscale>  0 0.58510156E+03</rscale>
<asrwt>0</asrwt>
<pdfrwt beam="1">  1        1 0.30277956E+00 0.58510156E+03</pdfrwt>
<pdfrwt beam="2">  1       -1 0.43072043E-01 0.58510156E+03</pdfrwt>
<totfact> 0.17808343E+01</totfact>
</mgrwt>
</event>
<event>
 4    1  0.2509744E-008  0.7867810E+03  0.7818608E-02  0.9579351E-01
         -1   -1    0    0    0  501 -0.00000000000E+00  0.00000000000E+00  0.11666170046E+04  0.11666170046E+04  0.50400000000E-02 0.  1.
          1   -1    0    0  501    0  0.00000000000E+00 -0.00000000000E+00 -0.17570145490E+04  0.17570145491E+04  0.50400000000E-02 0. -1.
    8880022    1    1    2    0    0 -0.48787919016E+03 -0.59800213384E+03  0.92609736405E+03  0.12151874905E+04  0.15294330000E+03 0.  0.
    8880022    1    1    2    0    0  0.48787919016E+03  0.59800213384E+03 -0.15164949085E+04  0.17084440632E+04  0.15294330000E+03 0.  0.
<mgrwt>
<rscale>  0 0.78678098E+03</rscale>
<asrwt>0</asrwt>
<pdfrwt beam="1">  1        1 0.27030993E+00 0.78678098E+03</pdfrwt>
<pdfrwt beam="2">  1       -1 0.17947954E+00 0.78678098E+03</pdfrwt>
<totfact> 0.95843677E-01</totfact>
</mgrwt>
</event>
<event>
 4    1  0.1678003E-008  0.4660537E+03  0.7818608E-02  0.1023040E+00
          1   -1    0    0  501    0  0.00000000000E+00  0.00000000000E+00  0.18536787363E+03  0.18536787370E+03  0.50400000000E-02 0. -1.
         -1   -1    0    0    0  501 -0.00000000000E+00 -0.00000000000E+00 -0.19092085569E+04  0.19092085569E+04  0.50400000000E-02 0.  1.
    8880022    1    1    2    0    0  0.16449012337E+03  0.40835937303E+03 -0.15128085349E+04  0.15829705287E+04  0.15294330000E+03 0.  0.
    8880022    1    1    2    0    0 -0.16449012337E+03 -0.40835937303E+03 -0.21103214829E+03  0.51160590190E+03  0.15294330000E+03 0.  0.
<mgrwt>
<rscale>  0 0.46605368E+03</rscale>
<asrwt>0</asrwt>
<pdfrwt beam="1">  1        1 0.28518136E-01 0.46605368E+03</pdfrwt>
<pdfrwt beam="2">  1       -1 0.29372438E+00 0.46605368E+03</pdfrwt>
<totfact> 0.65165576E+00</totfact>
</mgrwt>
</event>
<event>
 4    1  0.1678003E-008  0.1585506E+03  0.7818608E-02  0.1190343E+00
          1   -1    0    0  501    0  0.00000000000E+00  0.00000000000E+00  0.62300671112E+03  0.62300671114E+03  0.50400000000E-02 0. -1.
         -1   -1    0    0    0  501 -0.00000000000E+00 -0.00000000000E+00 -0.87194256875E+02  0.87194257021E+02  0.50400000000E-02 0.  1.
    8880022    1    1    2    0    0 -0.55461743589E+01 -0.41423214067E+02  0.76292898898E+01  0.15873405996E+03  0.15294330000E+03 0.  1.
    8880022    1    1    2    0    0  0.55461743589E+01  0.41423214067E+02  0.52818316436E+03  0.55146690820E+03  0.15294330000E+03 0. -1.
<mgrwt>
<rscale>  0 0.15855061E+03</rscale>
<asrwt>0</asrwt>
<pdfrwt beam="1">  1        1 0.95847184E-01 0.15855061E+03</pdfrwt>
<pdfrwt beam="2">  1       -1 0.13414501E-01 0.15855061E+03</pdfrwt>
<totfact> 0.12763122E+03</totfact>
</mgrwt>
</event>
<event>
 4    1  0.1678003E-008  0.7037886E+03  0.7818608E-02  0.9710775E-01
         -1   -1    0    0    0  501 -0.00000000000E+00  0.00000000000E+00  0.48201073062E+03  0.48201073065E+03  0.50400000000E-02 0.  1.
          1   -1    0    0  501    0  0.00000000000E+00 -0.00000000000E+00 -0.11916655782E+04  0.11916655782E+04  0.50400000000E-02 0. -1.
    8880022    1    1    2    0    0  0.68691992115E+03 -0.82333350168E+01 -0.44327497729E+02  0.70518320027E+03  0.15294330000E+03 0.  0.
    8880022    1    1    2    0    0 -0.68691992115E+03  0.82333350168E+01 -0.66532734980E+03  0.96849310854E+03  0.15294330000E+03 0.  0.
<mgrwt>
<rscale>  0 0.70378862E+03</rscale>
<asrwt>0</asrwt>
<pdfrwt beam="1">  1        1 0.18333316E+00 0.70378862E+03</pdfrwt>
<pdfrwt beam="2">  1       -1 0.74155497E-01 0.70378862E+03</pdfrwt>
<totfact> 0.20575701E+01</totfact>
</mgrwt>
</event>
<event>
 4    1  0.1678003E-008  0.3846208E+03  0.7818608E-02  0.1049239E+00
         -1   -1    0    0    0  501 -0.00000000000E+00  0.00000000000E+00  0.16264733542E+04  0.16264733542E+04  0.50400000000E-02 0.  1.
          1   -1    0    0  501    0  0.00000000000E+00 -0.00000000000E+00 -0.21708842394E+03  0.21708842399E+03  0.50400000000E-02 0. -1.
    8880022    1    1    2    0    0 -0.14308295300E+03  0.32259693734E+03  0.20614216938E+01  0.38462633542E+03  0.15294330000E+03 0.  0.
    8880022    1    1    2    0    0  0.14308295300E+03 -0.32259693734E+03  0.14073235085E+04  0.14589354428E+04  0.15294330000E+03 0.  0.
<mgrwt>
<rscale>  0 0.38462081E+03</rscale>
<asrwt>0</asrwt>
<pdfrwt beam="1">  1        1 0.33398221E-01 0.38462081E+03</pdfrwt>
<pdfrwt beam="2">  1       -1 0.25022666E+00 0.38462081E+03</pdfrwt>
<totfact> 0.10213622E+01</totfact>
</mgrwt>
</event>
<event>
 4    1  0.1678003E-008  0.4526053E+03  0.7818608E-02  0.1026948E+00
         -1   -1    0    0    0  501 -0.00000000000E+00  0.00000000000E+00  0.18992936511E+03  0.18992936517E+03  0.50400000000E-02 0.  1.
          1   -1    0    0  501    0  0.00000000000E+00 -0.00000000000E+00 -0.23122237491E+04  0.23122237491E+04  0.50400000000E-02 0. -1.
    8880022    1    1    2    0    0 -0.41148361816E+03  0.11018681048E+03 -0.14731570297E+03  0.47597633405E+03  0.15294330000E+03 0.  1.
    8880022    1    1    2    0    0  0.41148361816E+03 -0.11018681048E+03 -0.19749786810E+04  0.20261767802E+04  0.15294330000E+03 0.  0.
<mgrwt>
<rscale>  0 0.45260530E+03</rscale>
<asrwt>0</asrwt>
<pdfrwt beam="1">  1        1 0.35572671E+00 0.45260530E+03</pdfrwt>
<pdfrwt beam="2">  1       -1 0.29219904E-01 0.45260530E+03</pdfrwt>
<totfact> 0.21537499E+01</totfact>
</mgrwt>
</event>
<event>
 4    1  0.1678003E-008  0.5181947E+03  0.7818608E-02  0.1009136E+00
          1   -1    0    0  501    0  0.00000000000E+00  0.00000000000E+00  0.14860647559E+04  0.14860647559E+04  0.50400000000E-02 0. -1.
         -1   -1    0    0    0  501 -0.00000000000E+00 -0.00000000000E+00 -0.31795378358E+03  0.31795378362E+03  0.50400000000E-02 0.  1.
    8880022    1    1    2    0    0  0.31815792158E+03  0.37935424338E+03 -0.85937170505E+01  0.51826596456E+03  0.15294330000E+03 0.  0.
    8880022    1    1    2    0    0 -0.31815792158E+03 -0.37935424338E+03  0.11767046894E+04  0.12857525750E+04  0.15294330000E+03 0.  0.
<mgrwt>
<rscale>  0 0.51819471E+03</rscale>
<asrwt>0</asrwt>
<pdfrwt beam="1">  1        1 0.22862535E+00 0.51819471E+03</pdfrwt>
<pdfrwt beam="2">  1       -1 0.48915966E-01 0.51819471E+03</pdfrwt>
<totfact> 0.29893843E+01</totfact>
</mgrwt>
</event>
<event>
 4    1  0.1678003E-008  0.5288631E+03  0.7818608E-02  0.1006508E+00
         -1   -1    0    0    0  501 -0.00000000000E+00  0.00000000000E+00  0.37694118691E+03  0.37694118695E+03  0.50400000000E-02 0.  1.
          1   -1    0    0  501    0  0.00000000000E+00 -0.00000000000E+00 -0.79056220956E+03  0.79056220958E+03  0.50400000000E-02 0. -1.
    8880022    1    1    2    0    0  0.45038349146E+03 -0.23121262784E+03 -0.35146763105E+03  0.63500056484E+03  0.15294330000E+03 0.  0.
    8880022    1    1    2    0    0 -0.45038349146E+03  0.23121262784E+03 -0.62153391596E+02  0.53250283169E+03  0.15294330000E+03 0.  0.
<mgrwt>
<rscale>  0 0.52886314E+03</rscale>
<asrwt>0</asrwt>
<pdfrwt beam="1">  1        1 0.12162496E+00 0.52886314E+03</pdfrwt>
<pdfrwt beam="2">  1       -1 0.57990952E-01 0.52886314E+03</pdfrwt>
<totfact> 0.70851875E+01</totfact>
</mgrwt>
</event>
<event>
 4    1  0.1678003E-008  0.9833079E+03  0.7818608E-02  0.9327044E-01
         -1   -1    0    0    0  501 -0.00000000000E+00  0.00000000000E+00  0.40403593979E+03  0.40403593982E+03  0.50400000000E-02 0.  1.
          1   -1    0    0  501    0  0.00000000000E+00 -0.00000000000E+00 -0.30083503652E+04  0.30083503652E+04  0.50400000000E-02 0. -1.
    8880022    1    1    2    0    0 -0.96681846915E+03 -0.93620940484E+02 -0.53055519756E+03  0.11173107461E+04  0.15294330000E+03 0.  0.
    8880022    1    1    2    0    0  0.96681846915E+03  0.93620940484E+02 -0.20737592279E+04  0.22950755589E+04  0.15294330000E+03 0.  0.
<mgrwt>
<rscale>  0 0.98330793E+03</rscale>
<asrwt>0</asrwt>
<pdfrwt beam="1">  1        1 0.46282312E+00 0.98330793E+03</pdfrwt>
<pdfrwt beam="2">  1       -1 0.62159377E-01 0.98330793E+03</pdfrwt>
<totfact> 0.15953417E+00</totfact>
</mgrwt>
</event>
<event>
 4    1  0.1678003E-008  0.7055021E+03  0.7818608E-02  0.9707869E-01
          1   -1    0    0  501    0  0.00000000000E+00  0.00000000000E+00  0.79048867108E+03  0.79048867109E+03  0.50400000000E-02 0. -1.
         -1   -1    0    0    0  501 -0.00000000000E+00 -0.00000000000E+00 -0.82886343795E+03  0.82886343796E+03  0.50400000000E-02 0.  1.
    8880022    1    1    2    0    0  0.68108764279E+03  0.10227994304E+03  0.37775395230E+03  0.80026949549E+03  0.15294330000E+03 0.  0.
    8880022    1    1    2    0    0 -0.68108764279E+03 -0.10227994304E+03 -0.41612871917E+03  0.81908261357E+03  0.15294330000E+03 0.  0.
<mgrwt>
<rscale>  0 0.70550210E+03</rscale>
<asrwt>0</asrwt>
<pdfrwt beam="1">  1        1 0.12161364E+00 0.70550210E+03</pdfrwt>
<pdfrwt beam="2">  1       -1 0.12751745E+00 0.70550210E+03</pdfrwt>
<totfact> 0.12430565E+01</totfact>
</mgrwt>
</event>
<event>
 4    1  0.1678003E-008  0.6159169E+03  0.7818608E-02  0.9872923E-01
         -1   -1    0    0    0  501 -0.00000000000E+00  0.00000000000E+00  0.90060091237E+03  0.90060091238E+03  0.50400000000E-02 0.  1.
          1   -1    0    0  501    0  0.00000000000E+00 -0.00000000000E+00 -0.83607735064E+03  0.83607735065E+03  0.50400000000E-02 0. -1.
    8880022    1    1    2    0    0  0.51319554889E+03  0.30428982633E+03 -0.57940385442E+03  0.84561365253E+03  0.15294330000E+03 0.  0.
    8880022    1    1    2    0    0 -0.51319554889E+03 -0.30428982633E+03  0.64392741615E+03  0.89106461051E+03  0.15294330000E+03 0.  0.
<mgrwt>
<rscale>  0 0.61591690E+03</rscale>
<asrwt>0</asrwt>
<pdfrwt beam="1">  1        1 0.12862728E+00 0.61591690E+03</pdfrwt>
<pdfrwt beam="2">  1       -1 0.13855399E+00 0.61591690E+03</pdfrwt>
<totfact> 0.93326203E+00</totfact>
</mgrwt>
</event>
<event>
 4    1  0.1678003E-008  0.4951864E+03  0.7818608E-02  0.1015043E+00
          1   -1    0    0  501    0  0.00000000000E+00  0.00000000000E+00  0.13550598817E+04  0.13550598817E+04  0.50400000000E-02 0. -1.
         -1   -1    0    0    0  501 -0.00000000000E+00 -0.00000000000E+00 -0.23269650406E+03  0.23269650411E+03  0.50400000000E-02 0.  1.
    8880022    1    1    2    0    0  0.30669912043E+03  0.35742637440E+03  0.93551953589E+03  0.10584925218E+04  0.15294330000E+03 0.  0.
    8880022    1    1    2    0    0 -0.30669912043E+03 -0.35742637440E+03  0.18684384175E+03  0.52926386406E+03  0.15294330000E+03 0.  0.
<mgrwt>
<rscale>  0 0.49518645E+03</rscale>
<asrwt>0</asrwt>
<pdfrwt beam="1">  1        1 0.20847075E+00 0.49518645E+03</pdfrwt>
<pdfrwt beam="2">  1       -1 0.35799462E-01 0.49518645E+03</pdfrwt>
<totfact> 0.65119977E+01</totfact>
</mgrwt>
</event>
<event>
 4    1  0.1678003E-008  0.6292080E+03  0.7818608E-02  0.9846596E-01
         -1   -1    0    0    0  501 -0.00000000000E+00  0.00000000000E+00  0.10909642489E+04  0.10909642489E+04  0.50400000000E-02 0.  1.
          1   -1    0    0  501    0  0.00000000000E+00 -0.00000000000E+00 -0.75040440636E+03  0.75040440638E+03  0.50400000000E-02 0. -1.
    8880022    1    1    2    0    0  0.60810170861E+03 -0.52185960680E+02 -0.49133547429E+03  0.79831902383E+03  0.15294330000E+03 0.  0.
    8880022    1    1    2    0    0 -0.60810170861E+03  0.52185960680E+02  0.83189531683E+03  0.10430496315E+04  0.15294330000E+03 0.  0.
<mgrwt>
<rscale>  0 0.62920801E+03</rscale>
<asrwt>0</asrwt>
<pdfrwt beam="1">  1        1 0.11544683E+00 0.62920801E+03</pdfrwt>
<pdfrwt beam="2">  1       -1 0.16784065E+00 0.62920801E+03</pdfrwt>
<totfact> 0.65812628E+00</totfact>
</mgrwt>
</event>
<event>
 4    1  0.1678003E-008  0.6573674E+03  0.7818608E-02  0.9793052E-01
         -1   -1    0    0    0  501 -0.00000000000E+00  0.00000000000E+00  0.39044699667E+03  0.39044699670E+03  0.50400000000E-02 0.  1.
          1   -1    0    0  501    0  0.00000000000E+00 -0.00000000000E+00 -0.23307352352E+04  0.23307352352E+04  0.50400000000E-02 0. -1.
    8880022    1    1    2    0    0  0.57237363561E+03  0.28483094186E+03 -0.19561218848E+04  0.20636241725E+04  0.15294330000E+03 0.  0.
    8880022    1    1    2    0    0 -0.57237363561E+03 -0.28483094186E+03  0.15833646200E+02  0.65755805946E+03  0.15294330000E+03 0.  0.
<mgrwt>
<rscale>  0 0.65736740E+03</rscale>
<asrwt>0</asrwt>
<pdfrwt beam="1">  1        1 0.35857464E+00 0.65736740E+03</pdfrwt>
<pdfrwt beam="2">  1       -1 0.60068770E-01 0.65736740E+03</pdfrwt>
<totfact> 0.53519687E+00</totfact>
</mgrwt>
</event>
<event>
 4    1  0.1678003E-008  0.4820730E+03  0.7818608E-02  0.1018567E+00
          1   -1    0    0  501    0  0.00000000000E+00  0.00000000000E+00  0.39971088242E+03  0.39971088245E+03  0.50400000000E-02 0. -1.
         -1   -1    0    0    0  501 -0.00000000000E+00 -0.00000000000E+00 -0.73720996295E+03  0.73720996296E+03  0.50400000000E-02 0.  1.
    8880022    1    1    2    0    0 -0.45709716093E+03  0.80577705888E+01 -0.43008213007E+03  0.64603795075E+03  0.15294330000E+03 0.  1.
    8880022    1    1    2    0    0  0.45709716093E+03 -0.80577705888E+01  0.92583049538E+02  0.49088289466E+03  0.15294330000E+03 0.  0.
<mgrwt>
<rscale>  0 0.48207302E+03</rscale>
<asrwt>0</asrwt>
<pdfrwt beam="1">  1        1 0.61493982E-01 0.48207302E+03</pdfrwt>
<pdfrwt beam="2">  1       -1 0.11341692E+00 0.48207302E+03</pdfrwt>
<totfact> 0.44765754E+01</totfact>
</mgrwt>
</event>
<event>
 4    1  0.1678003E-008  0.7565382E+03  0.7818608E-02  0.9625148E-01
         -1   -1    0    0    0  501 -0.00000000000E+00  0.00000000000E+00  0.18159262075E+04  0.18159262075E+04  0.50400000000E-02 0.  1.
          1   -1    0    0  501    0  0.00000000000E+00 -0.00000000000E+00 -0.42585119629E+03  0.42585119632E+03  0.50400000000E-02 0. -1.
    8880022    1    1    2    0    0  0.37495194332E+02  0.73996788382E+03  0.12664423975E+04  0.14752038360E+04  0.15294330000E+03 0.  0.
    8880022    1    1    2    0    0 -0.37495194332E+02 -0.73996788382E+03  0.12363261376E+03  0.76657356782E+03  0.15294330000E+03 0. -1.
<mgrwt>
<rscale>  0 0.75653818E+03</rscale>
<asrwt>0</asrwt>
<pdfrwt beam="1">  1        1 0.65515569E-01 0.75653818E+03</pdfrwt>
<pdfrwt beam="2">  1       -1 0.27937326E+00 0.75653818E+03</pdfrwt>
<totfact> 0.25927708E+00</totfact>
</mgrwt>
</event>
<event>
 4    1  0.1678003E-008  0.4069598E+03  0.7818608E-02  0.1041396E+00
         -1   -1    0    0    0  501 -0.00000000000E+00  0.00000000000E+00  0.77096308363E+03  0.77096308364E+03  0.50400000000E-02 0.  1.
          1   -1    0    0  501    0  0.00000000000E+00 -0.00000000000E+00 -0.53242851422E+03  0.53242851424E+03  0.50400000000E-02 0. -1.
    8880022    1    1    2    0    0 -0.17455512778E+03 -0.33429791897E+03 -0.38407353294E+03  0.55957905874E+03  0.15294330000E+03 0. -1.
    8880022    1    1    2    0    0  0.17455512778E+03  0.33429791897E+03  0.62260810235E+03  0.74381253914E+03  0.15294330000E+03 0.  0.
<mgrwt>
<rscale>  0 0.40695976E+03</rscale>
<asrwt>0</asrwt>
<pdfrwt beam="1">  1        1 0.81912079E-01 0.40695976E+03</pdfrwt>
<pdfrwt beam="2">  1       -1 0.11860970E+00 0.40695976E+03</pdfrwt>
<totfact> 0.27764256E+01</totfact>
</mgrwt>
</event>
<event>
 4    1  0.1678003E-008  0.5518210E+03  0.7818608E-02  0.1001073E+00
         -1   -1    0    0    0  501 -0.00000000000E+00  0.00000000000E+00  0.15898841346E+04  0.15898841346E+04  0.50400000000E-02 0.  1.
          1   -1    0    0  501    0  0.00000000000E+00 -0.00000000000E+00 -0.62610124915E+03  0.62610124917E+03  0.50400000000E-02 0. -1.
    8880022    1    1    2    0    0 -0.36216225104E+03  0.38723804332E+03 -0.44120351991E+03  0.70651751378E+03  0.15294330000E+03 0.  0.
    8880022    1    1    2    0    0  0.36216225104E+03 -0.38723804332E+03  0.14049864053E+04  0.15094678700E+04  0.15294330000E+03 0.  0.
<mgrwt>
<rscale>  0 0.55182103E+03</rscale>
<asrwt>0</asrwt>
<pdfrwt beam="1">  1        1 0.96323270E-01 0.55182103E+03</pdfrwt>
<pdfrwt beam="2">  1       -1 0.24459756E+00 0.55182103E+03</pdfrwt>
<totfact> 0.26404562E+00</totfact>
</mgrwt>
</event>
<event>
 4    1  0.1678003E-008  0.5937834E+03  0.7818608E-02  0.9918388E-01
          1   -1    0    0  501    0  0.00000000000E+00  0.00000000000E+00  0.15679524432E+04  0.15679524432E+04  0.50400000000E-02 0. -1.
         -1   -1    0    0    0  501 -0.00000000000E+00 -0.00000000000E+00 -0.95637847198E+03  0.95637847199E+03  0.50400000000E-02 0.  1.
    8880022    1    1    2    0    0  0.36760211699E+03  0.44051760939E+03  0.14096427994E+04  0.15295984948E+04  0.15294330000E+03 0.  0.
    8880022    1    1    2    0    0 -0.36760211699E+03 -0.44051760939E+03 -0.79806882816E+03  0.99473242035E+03  0.15294330000E+03 0.  0.
<mgrwt>
<rscale>  0 0.59378341E+03</rscale>
<asrwt>0</asrwt>
<pdfrwt beam="1">  1        1 0.24122345E+00 0.59378341E+03</pdfrwt>
<pdfrwt beam="2">  1       -1 0.14713515E+00 0.59378341E+03</pdfrwt>
<totfact> 0.23353471E+00</totfact>
</mgrwt>
</event>
<event>
 4    1  0.1678003E-008  0.4122896E+03  0.7818608E-02  0.1039605E+00
          1   -1    0    0  501    0  0.00000000000E+00  0.00000000000E+00  0.52150691285E+03  0.52150691287E+03  0.50400000000E-02 0. -1.
         -1   -1    0    0    0  501 -0.00000000000E+00 -0.00000000000E+00 -0.18429711024E+04  0.18429711024E+04  0.50400000000E-02 0.  1.
    8880022    1    1    2    0    0  0.36579574934E+03 -0.11306866073E+03 -0.17333437497E+04  0.17817023489E+04  0.15294330000E+03 0.  0.
    8880022    1    1    2    0    0 -0.36579574934E+03  0.11306866073E+03  0.41187956016E+03  0.58277566642E+03  0.15294330000E+03 0. -1.
<mgrwt>
<rscale>  0 0.41228959E+03</rscale>
<asrwt>0</asrwt>
<pdfrwt beam="1">  1        1 0.80231834E-01 0.41228959E+03</pdfrwt>
<pdfrwt beam="2">  1       -1 0.28353401E+00 0.41228959E+03</pdfrwt>
<totfact> 0.20043030E+00</totfact>
</mgrwt>
</event>
<event>
 4    1  0.1678003E-008  0.4118038E+03  0.7818608E-02  0.1039767E+00
         -1   -1    0    0    0  501 -0.00000000000E+00  0.00000000000E+00  0.36702549377E+03  0.36702549380E+03  0.50400000000E-02 0.  1.
          1   -1    0    0  501    0  0.00000000000E+00 -0.00000000000E+00 -0.25631342362E+04  0.25631342363E+04  0.50400000000E-02 0. -1.
    8880022    1    1    2    0    0  0.26180613473E+03 -0.27865433363E+03 -0.24245256754E+04  0.24592492947E+04  0.15294330000E+03 0.  0.
    8880022    1    1    2    0    0 -0.26180613473E+03  0.27865433363E+03  0.22841693294E+03  0.47091043532E+03  0.15294330000E+03 0.  0.
<mgrwt>
<rscale>  0 0.41180377E+03</rscale>
<asrwt>0</asrwt>
<pdfrwt beam="1">  1        1 0.39432833E+00 0.41180377E+03</pdfrwt>
<pdfrwt beam="2">  1       -1 0.56465462E-01 0.41180377E+03</pdfrwt>
<totfact> 0.44916235E+00</totfact>
</mgrwt>
</event>
<event>
 4    1  0.1678003E-008  0.4029230E+03  0.7818608E-02  0.1042772E+00
         -1   -1    0    0    0  501 -0.00000000000E+00  0.00000000000E+00  0.10757156315E+04  0.10757156315E+04  0.50400000000E-02 0.  1.
          1   -1    0    0  501    0  0.00000000000E+00 -0.00000000000E+00 -0.30972196386E+03  0.30972196390E+03  0.50400000000E-02 0. -1.
    8880022    1    1    2    0    0 -0.31622679774E+03  0.19737242582E+03 -0.11302297092E+03  0.41847473885E+03  0.15294330000E+03 0. -1.
    8880022    1    1    2    0    0  0.31622679774E+03 -0.19737242582E+03  0.87901663852E+03  0.96696285652E+03  0.15294330000E+03 0.  0.
<mgrwt>
<rscale>  0 0.40292296E+03</rscale>
<asrwt>0</asrwt>
<pdfrwt beam="1">  1        1 0.47649533E-01 0.40292296E+03</pdfrwt>
<pdfrwt beam="2">  1       -1 0.16549471E+00 0.40292296E+03</pdfrwt>
<totfact> 0.23976422E+01</totfact>
</mgrwt>
</event>
<event>
 4    1  0.1678003E-008  0.3200589E+03  0.7818608E-02  0.1075622E+00
          1   -1    0    0  501    0  0.00000000000E+00  0.00000000000E+00  0.69825735670E+02  0.69825735852E+02  0.50400000000E-02 0. -1.
         -1   -1    0    0    0  501 -0.00000000000E+00 -0.00000000000E+00 -0.14675865539E+04  0.14675865539E+04  0.50400000000E-02 0.  1.
    8880022    1    1    2    0    0  0.13102066844E+03 -0.24875616145E+03 -0.68415293141E+03  0.75531644361E+03  0.15294330000E+03 0. -1.
    8880022    1    1    2    0    0 -0.13102066844E+03  0.24875616145E+03 -0.71360788684E+03  0.78209584617E+03  0.15294330000E+03 0.  1.
<mgrwt>
<rscale>  0 0.32005890E+03</rscale>
<asrwt>0</asrwt>
<pdfrwt beam="1">  1        1 0.10742422E-01 0.32005890E+03</pdfrwt>
<pdfrwt beam="2">  1       -1 0.22578252E+00 0.32005890E+03</pdfrwt>
<totfact> 0.65530222E+01</totfact>
</mgrwt>
</event>
<event>
 4    1  0.1678003E-008  0.1910010E+03  0.7818608E-02  0.1157562E+00
         -1   -1    0    0    0  501 -0.00000000000E+00  0.00000000000E+00  0.77711672947E+03  0.77711672948E+03  0.50400000000E-02 0.  1.
          1   -1    0    0  501    0  0.00000000000E+00 -0.00000000000E+00 -0.60245900781E+02  0.60245900992E+02  0.50400000000E-02 0. -1.
    8880022    1    1    2    0    0 -0.11273707847E+03 -0.19495815246E+02  0.55516416757E+03  0.58710190056E+03  0.15294330000E+03 0.  0.
    8880022    1    1    2    0    0  0.11273707847E+03  0.19495815246E+02  0.16170666112E+03  0.25026072992E+03  0.15294330000E+03 0. -1.
<mgrwt>
<rscale>  0 0.19100102E+03</rscale>
<asrwt>0</asrwt>
<pdfrwt beam="1">  1        1 0.92686011E-02 0.19100102E+03</pdfrwt>
<pdfrwt beam="2">  1       -1 0.11955641E+00 0.19100102E+03</pdfrwt>
<totfact> 0.47468907E+02</totfact>
</mgrwt>
</event>
<event>
 4    1  0.1678003E-008  0.4671333E+03  0.7818608E-02  0.1022732E+00
          1   -1    0    0  501    0  0.00000000000E+00  0.00000000000E+00  0.11849476411E+04  0.11849476411E+04  0.50400000000E-02 0. -1.
         -1   -1    0    0    0  501 -0.00000000000E+00 -0.00000000000E+00 -0.20603103652E+03  0.20603103658E+03  0.50400000000E-02 0.  1.
    8880022    1    1    2    0    0 -0.89926716547E+02 -0.43212846391E+03  0.71608607596E+03  0.85498113714E+03  0.15294330000E+03 0. -1.
    8880022    1    1    2    0    0  0.89926716547E+02  0.43212846391E+03  0.26283052859E+03  0.53599754052E+03  0.15294330000E+03 0.  0.
<mgrwt>
<rscale>  0 0.46713325E+03</rscale>
<asrwt>0</asrwt>
<pdfrwt beam="1">  1        1 0.18229964E+00 0.46713325E+03</pdfrwt>
<pdfrwt beam="2">  1       -1 0.31697082E-01 0.46713325E+03</pdfrwt>
<totfact> 0.10663100E+02</totfact>
</mgrwt>
</event>
<event>
 4    1  0.1678003E-008  0.4405179E+03  0.7818608E-02  0.1030588E+00
         -1   -1    0    0    0  501 -0.00000000000E+00  0.00000000000E+00  0.68692973148E+03  0.68692973150E+03  0.50400000000E-02 0.  1.
          1   -1    0    0  501    0  0.00000000000E+00 -0.00000000000E+00 -0.33627341462E+03  0.33627341466E+03  0.50400000000E-02 0. -1.
    8880022    1    1    2    0    0  0.40873419640E+03 -0.60005721309E+02  0.37991571092E+03  0.58171464681E+03  0.15294330000E+03 0.  0.
    8880022    1    1    2    0    0 -0.40873419640E+03  0.60005721309E+02 -0.29259394063E+02  0.44148849935E+03  0.15294330000E+03 0.  0.
<mgrwt>
<rscale>  0 0.44051786E+03</rscale>
<asrwt>0</asrwt>
<pdfrwt beam="1">  1        1 0.51734372E-01 0.44051786E+03</pdfrwt>
<pdfrwt beam="2">  1       -1 0.10568150E+00 0.44051786E+03</pdfrwt>
<totfact> 0.66406806E+01</totfact>
</mgrwt>
</event>
<event>
 4    1  0.1678003E-008  0.2437373E+03  0.7818608E-02  0.1117328E+00
          1   -1    0    0  501    0  0.00000000000E+00  0.00000000000E+00  0.97490934654E+03  0.97490934656E+03  0.50400000000E-02 0. -1.
         -1   -1    0    0    0  501 -0.00000000000E+00 -0.00000000000E+00 -0.34530021650E+03  0.34530021653E+03  0.50400000000E-02 0.  1.
    8880022    1    1    2    0    0 -0.18493917365E+03  0.42587873676E+02 -0.28422919351E+03  0.37442504242E+03  0.15294330000E+03 0.  0.
    8880022    1    1    2    0    0  0.18493917365E+03 -0.42587873676E+02  0.91383832355E+03  0.94578452067E+03  0.15294330000E+03 0. -1.
<mgrwt>
<rscale>  0 0.24373731E+03</rscale>
<asrwt>0</asrwt>
<pdfrwt beam="1">  1        1 0.14998605E+00 0.24373731E+03</pdfrwt>
<pdfrwt beam="2">  1       -1 0.53123111E-01 0.24373731E+03</pdfrwt>
<totfact> 0.62672265E+01</totfact>
</mgrwt>
</event>
<event>
 4    1  0.1678003E-008  0.6397263E+03  0.7818608E-02  0.9826250E-01
          1   -1    0    0  501    0  0.00000000000E+00  0.00000000000E+00  0.12408901949E+04  0.12408901950E+04  0.50400000000E-02 0. -1.
         -1   -1    0    0    0  501 -0.00000000000E+00 -0.00000000000E+00 -0.49656932261E+03  0.49656932263E+03  0.50400000000E-02 0.  1.
    8880022    1    1    2    0    0 -0.38423034731E+03  0.48808312017E+03 -0.13128043975E+03  0.65305765355E+03  0.15294330000E+03 0.  0.
    8880022    1    1    2    0    0  0.38423034731E+03 -0.48808312017E+03  0.87560131208E+03  0.10844018640E+04  0.15294330000E+03 0.  0.
<mgrwt>
<rscale>  0 0.63972630E+03</rscale>
<asrwt>0</asrwt>
<pdfrwt beam="1">  1        1 0.19090618E+00 0.63972630E+03</pdfrwt>
<pdfrwt beam="2">  1       -1 0.76395281E-01 0.63972630E+03</pdfrwt>
<totfact> 0.17990888E+01</totfact>
</mgrwt>
</event>
<event>
 4    1  0.1678003E-008  0.1161169E+04  0.7818608E-02  0.9147541E-01
         -1   -1    0    0    0  501 -0.00000000000E+00  0.00000000000E+00  0.68012956700E+03  0.68012956702E+03  0.50400000000E-02 0.  1.
          1   -1    0    0  501    0  0.00000000000E+00 -0.00000000000E+00 -0.25038393373E+04  0.25038393373E+04  0.50400000000E-02 0. -1.
    8880022    1    1    2    0    0 -0.99159999104E+03 -0.58450906645E+03 -0.16383332353E+04  0.20080958229E+04  0.15294330000E+03 0.  0.
    8880022    1    1    2    0    0  0.99159999104E+03  0.58450906645E+03 -0.18537653505E+03  0.11758730815E+04  0.15294330000E+03 0.  0.
<mgrwt>
<rscale>  0 0.11611688E+04</rscale>
<asrwt>0</asrwt>
<pdfrwt beam="1">  1        1 0.38520605E+00 0.11611688E+04</pdfrwt>
<pdfrwt beam="2">  1       -1 0.10463532E+00 0.11611688E+04</pdfrwt>
<totfact> 0.11498536E+00</totfact>
</mgrwt>
</event>
<event>
 4    1  0.1678003E-008  0.6940297E+03  0.7818608E-02  0.9727497E-01
          1   -1    0    0  501    0  0.00000000000E+00  0.00000000000E+00  0.13082343660E+04  0.13082343660E+04  0.50400000000E-02 0. -1.
         -1   -1    0    0    0  501 -0.00000000000E+00 -0.00000000000E+00 -0.75381672560E+03  0.75381672562E+03  0.50400000000E-02 0.  1.
    8880022    1    1    2    0    0  0.65778999734E+03  0.15999322927E+03  0.10146388370E+04  0.12292961956E+04  0.15294330000E+03 0.  0.
    8880022    1    1    2    0    0 -0.65778999734E+03 -0.15999322927E+03 -0.46022119660E+03  0.83275489600E+03  0.15294330000E+03 0.  0.
<mgrwt>
<rscale>  0 0.69402966E+03</rscale>
<asrwt>0</asrwt>
<pdfrwt beam="1">  1        1 0.20126682E+00 0.69402966E+03</pdfrwt>
<pdfrwt beam="2">  1       -1 0.11597181E+00 0.69402966E+03</pdfrwt>
<totfact> 0.62896723E+00</totfact>
</mgrwt>
</event>
<event>
 4    1  0.1678003E-008  0.5909360E+03  0.7818608E-02  0.9924392E-01
         -1   -1    0    0    0  501 -0.00000000000E+00  0.00000000000E+00  0.12669188755E+04  0.12669188755E+04  0.50400000000E-02 0.  1.
          1   -1    0    0  501    0  0.00000000000E+00 -0.00000000000E+00 -0.73712733136E+03  0.73712733138E+03  0.50400000000E-02 0. -1.
    8880022    1    1    2    0    0  0.21402072871E+03 -0.52915856157E+03  0.10577428299E+04  0.12116208990E+04  0.15294330000E+03 0.  0.
    8880022    1    1    2    0    0 -0.21402072871E+03  0.52915856157E+03 -0.52795128571E+03  0.79242530796E+03  0.15294330000E+03 0.  0.
<mgrwt>
<rscale>  0 0.59093596E+03</rscale>
<asrwt>0</asrwt>
<pdfrwt beam="1">  1        1 0.11340421E+00 0.59093596E+03</pdfrwt>
<pdfrwt beam="2">  1       -1 0.19491059E+00 0.59093596E+03</pdfrwt>
<totfact> 0.43799592E+00</totfact>
</mgrwt>
</event>
<event>
 4    1  0.1678003E-008  0.3557470E+03  0.7818608E-02  0.1060281E+00
         -1   -1    0    0    0  501 -0.00000000000E+00  0.00000000000E+00  0.15990399581E+03  0.15990399589E+03  0.50400000000E-02 0.  1.
          1   -1    0    0  501    0  0.00000000000E+00 -0.00000000000E+00 -0.32618408160E+04  0.32618408160E+04  0.50400000000E-02 0. -1.
    8880022    1    1    2    0    0 -0.58287760503E+02 -0.31585882287E+03 -0.62056066411E+02  0.36111891034E+03  0.15294330000E+03 0.  0.
    8880022    1    1    2    0    0  0.58287760503E+02  0.31585882287E+03 -0.30398807538E+04  0.30606259016E+04  0.15294330000E+03 0.  0.
<mgrwt>
<rscale>  0 0.35574698E+03</rscale>
<asrwt>0</asrwt>
<pdfrwt beam="1">  1        1 0.50182161E+00 0.35574698E+03</pdfrwt>
<pdfrwt beam="2">  1       -1 0.24600617E-01 0.35574698E+03</pdfrwt>
<totfact> 0.65384592E+00</totfact>
</mgrwt>
</event>
<event>
 4    1  0.1678003E-008  0.8402907E+03  0.7818608E-02  0.9503462E-01
          1   -1    0    0  501    0  0.00000000000E+00  0.00000000000E+00  0.27405394150E+04  0.27405394150E+04  0.50400000000E-02 0. -1.
         -1   -1    0    0    0  501 -0.00000000000E+00 -0.00000000000E+00 -0.51428202933E+03  0.51428202935E+03  0.50400000000E-02 0.  1.
    8880022    1    1    2    0    0  0.79561551141E+03  0.22291888592E+03 -0.36494361607E+02  0.84108285153E+03  0.15294330000E+03 0.  0.
    8880022    1    1    2    0    0 -0.79561551141E+03 -0.22291888592E+03  0.22627517473E+04  0.24137385928E+04  0.15294330000E+03 0.  0.
<mgrwt>
<rscale>  0 0.84029074E+03</rscale>
<asrwt>0</asrwt>
<pdfrwt beam="1">  1        1 0.42162144E+00 0.84029074E+03</pdfrwt>
<pdfrwt beam="2">  1       -1 0.79120313E-01 0.84029074E+03</pdfrwt>
<totfact> 0.15424246E+00</totfact>
</mgrwt>
</event>
<event>
 4    1  0.1678003E-008  0.5593505E+03  0.7818608E-02  0.9993525E-01
         -1   -1    0    0    0  501 -0.00000000000E+00  0.00000000000E+00  0.11254322952E+04  0.11254322952E+04  0.50400000000E-02 0.  1.
          1   -1    0    0  501    0  0.00000000000E+00 -0.00000000000E+00 -0.48423638070E+03  0.48423638072E+03  0.50400000000E-02 0. -1.
    8880022    1    1    2    0    0 -0.53679488851E+03 -0.36504855564E+02 -0.20464202703E+03  0.59561008139E+03  0.15294330000E+03 0.  0.
    8880022    1    1    2    0    0  0.53679488851E+03  0.36504855564E+02  0.84583794152E+03  0.10140585945E+04  0.15294330000E+03 0.  0.
<mgrwt>
<rscale>  0 0.55935053E+03</rscale>
<asrwt>0</asrwt>
<pdfrwt beam="1">  1        1 0.74497905E-01 0.55935053E+03</pdfrwt>
<pdfrwt beam="2">  1       -1 0.17314343E+00 0.55935053E+03</pdfrwt>
<totfact> 0.11436449E+01</totfact>
</mgrwt>
</event>
<event>
 4    1  0.1678003E-008  0.5840380E+03  0.7818608E-02  0.9939087E-01
         -1   -1    0    0    0  501 -0.00000000000E+00  0.00000000000E+00  0.18438967924E+04  0.18438967924E+04  0.50400000000E-02 0.  1.
          1   -1    0    0  501    0  0.00000000000E+00 -0.00000000000E+00 -0.38313587239E+03  0.38313587242E+03  0.50400000000E-02 0. -1.
    8880022    1    1    2    0    0  0.49601426756E+03 -0.26772856134E+03 -0.70400859719E+02  0.58826581598E+03  0.15294330000E+03 0.  0.
    8880022    1    1    2    0    0 -0.49601426756E+03  0.26772856134E+03  0.15311617797E+04  0.16387668488E+04  0.15294330000E+03 0.  0.
<mgrwt>
<rscale>  0 0.58403800E+03</rscale>
<asrwt>0</asrwt>
<pdfrwt beam="1">  1        1 0.58943980E-01 0.58403800E+03</pdfrwt>
<pdfrwt beam="2">  1       -1 0.28367643E+00 0.58403800E+03</pdfrwt>
<totfact> 0.28878186E+00</totfact>
</mgrwt>
</event>
<event>
 4    1  0.1678003E-008  0.2036223E+03  0.7818608E-02  0.1146718E+00
          1   -1    0    0  501    0  0.00000000000E+00  0.00000000000E+00  0.90108628826E+02  0.90108628967E+02  0.50400000000E-02 0. -1.
         -1   -1    0    0    0  501 -0.00000000000E+00 -0.00000000000E+00 -0.83939663114E+03  0.83939663115E+03  0.50400000000E-02 0.  1.
    8880022    1    1    2    0    0 -0.10648512812E+03  0.82044534851E+02 -0.68704203276E+03  0.71658132546E+03  0.15294330000E+03 0.  0.
    8880022    1    1    2    0    0  0.10648512812E+03 -0.82044534851E+02 -0.62245969555E+02  0.21292393466E+03  0.15294330000E+03 0. -1.
<mgrwt>
<rscale>  0 0.20362230E+03</rscale>
<asrwt>0</asrwt>
<pdfrwt beam="1">  1        1 0.13862867E-01 0.20362230E+03</pdfrwt>
<pdfrwt beam="2">  1       -1 0.12913794E+00 0.20362230E+03</pdfrwt>
<totfact> 0.23073237E+02</totfact>
</mgrwt>
</event>
<event>
 4    1  0.1678003E-008  0.2225757E+03  0.7818608E-02  0.1131977E+00
         -1   -1    0    0    0  501 -0.00000000000E+00  0.00000000000E+00  0.50140656069E+02  0.50140656322E+02  0.50400000000E-02 0.  1.
          1   -1    0    0  501    0  0.00000000000E+00 -0.00000000000E+00 -0.22266978701E+04  0.22266978701E+04  0.50400000000E-02 0. -1.
    8880022    1    1    2    0    0 -0.15318580976E+03 -0.51792057602E+02 -0.23919431151E+03  0.32673212455E+03  0.15294330000E+03 0.  1.
    8880022    1    1    2    0    0  0.15318580976E+03  0.51792057602E+02 -0.19373629026E+04  0.19501064019E+04  0.15294330000E+03 0.  0.
<mgrwt>
<rscale>  0 0.22257575E+03</rscale>
<asrwt>0</asrwt>
<pdfrwt beam="1">  1        1 0.34256883E+00 0.22257575E+03</pdfrwt>
<pdfrwt beam="2">  1       -1 0.77139488E-02 0.22257575E+03</pdfrwt>
<totfact> 0.22148824E+02</totfact>
</mgrwt>
</event>
<event>
 4    1  0.1678003E-008  0.6376073E+03  0.7818608E-02  0.9830315E-01
          1   -1    0    0  501    0  0.00000000000E+00  0.00000000000E+00  0.75688580133E+03  0.75688580135E+03  0.50400000000E-02 0. -1.
         -1   -1    0    0    0  501 -0.00000000000E+00 -0.00000000000E+00 -0.88618049548E+03  0.88618049549E+03  0.50400000000E-02 0.  1.
    8880022    1    1    2    0    0 -0.51967072231E+03 -0.33629419529E+03 -0.58024457096E+03  0.86210606108E+03  0.15294330000E+03 0.  0.
    8880022    1    1    2    0    0  0.51967072231E+03  0.33629419529E+03  0.45094987681E+03  0.78096023575E+03  0.15294330000E+03 0.  0.
<mgrwt>
<rscale>  0 0.63760732E+03</rscale>
<asrwt>0</asrwt>
<pdfrwt beam="1">  1        1 0.11644397E+00 0.63760732E+03</pdfrwt>
<pdfrwt beam="2">  1       -1 0.13633546E+00 0.63760732E+03</pdfrwt>
<totfact> 0.11349633E+01</totfact>
</mgrwt>
</event>
<event>
 4    1  0.1678003E-008  0.7076862E+03  0.7818608E-02  0.9704177E-01
          1   -1    0    0  501    0  0.00000000000E+00  0.00000000000E+00  0.91386105368E+03  0.91386105370E+03  0.50400000000E-02 0. -1.
         -1   -1    0    0    0  501 -0.00000000000E+00 -0.00000000000E+00 -0.14865630998E+04  0.14865630998E+04  0.50400000000E-02 0.  1.
    8880022    1    1    2    0    0 -0.52136553418E+03 -0.45343807763E+03  0.66730554388E+03  0.97268517640E+03  0.15294330000E+03 0.  0.
    8880022    1    1    2    0    0  0.52136553418E+03  0.45343807763E+03 -0.12400075900E+04  0.14277389771E+04  0.15294330000E+03 0.  0.
<mgrwt>
<rscale>  0 0.70768620E+03</rscale>
<asrwt>0</asrwt>
<pdfrwt beam="1">  1        1 0.14059401E+00 0.70768620E+03</pdfrwt>
<pdfrwt beam="2">  1       -1 0.22870202E+00 0.70768620E+03</pdfrwt>
<totfact> 0.17991768E+00</totfact>
</mgrwt>
</event>
<event>
 4    1  0.1678003E-008  0.2678325E+03  0.7818608E-02  0.1102527E+00
         -1   -1    0    0    0  501 -0.00000000000E+00  0.00000000000E+00  0.35975767608E+03  0.35975767612E+03  0.50400000000E-02 0.  1.
          1   -1    0    0  501    0  0.00000000000E+00 -0.00000000000E+00 -0.19611815626E+04  0.19611815626E+04  0.50400000000E-02 0. -1.
    8880022    1    1    2    0    0  0.11000212827E+03 -0.19037366971E+03 -0.19006073618E+04  0.19193859953E+04  0.15294330000E+03 0. -1.
    8880022    1    1    2    0    0 -0.11000212827E+03  0.19037366971E+03  0.29918347531E+03  0.40155324336E+03  0.15294330000E+03 0.  0.
<mgrwt>
<rscale>  0 0.26783251E+03</rscale>
<asrwt>0</asrwt>
<pdfrwt beam="1">  1        1 0.30172023E+00 0.26783251E+03</pdfrwt>
<pdfrwt beam="2">  1       -1 0.55347336E-01 0.26783251E+03</pdfrwt>
<totfact> 0.12349146E+01</totfact>
</mgrwt>
</event>
<event>
 4    1  0.1678003E-008  0.3871972E+03  0.7818608E-02  0.1048305E+00
         -1   -1    0    0    0  501 -0.00000000000E+00  0.00000000000E+00  0.29001012514E+03  0.29001012519E+03  0.50400000000E-02 0.  1.
          1   -1    0    0  501    0  0.00000000000E+00 -0.00000000000E+00 -0.70945918320E+03  0.70945918322E+03  0.50400000000E-02 0. -1.
    8880022    1    1    2    0    0 -0.35528093996E+03 -0.17478236099E+02  0.50589620555E+02  0.39048815316E+03  0.15294330000E+03 0.  0.
    8880022    1    1    2    0    0  0.35528093996E+03  0.17478236099E+02 -0.47003867861E+03  0.60898115525E+03  0.15294330000E+03 0. -1.
<mgrwt>
<rscale>  0 0.38719722E+03</rscale>
<asrwt>0</asrwt>
<pdfrwt beam="1">  1        1 0.10914757E+00 0.38719722E+03</pdfrwt>
<pdfrwt beam="2">  1       -1 0.44616943E-01 0.38719722E+03</pdfrwt>
<totfact> 0.13936497E+02</totfact>
</mgrwt>
</event>
<event>
 4    1  0.1678003E-008  0.2406453E+03  0.7818608E-02  0.1119364E+00
          1   -1    0    0  501    0  0.00000000000E+00  0.00000000000E+00  0.38893390315E+04  0.38893390315E+04  0.50400000000E-02 0. -1.
         -1   -1    0    0    0  501 -0.00000000000E+00 -0.00000000000E+00 -0.20600049711E+02  0.20600050328E+02  0.50400000000E-02 0.  1.
    8880022    1    1    2    0    0 -0.10851958232E+03 -0.15080453297E+03  0.90505916516E+03  0.93650534028E+03  0.15294330000E+03 0.  1.
    8880022    1    1    2    0    0  0.10851958232E+03  0.15080453297E+03  0.29636798166E+04  0.29734337416E+04  0.15294330000E+03 0.  0.
<mgrwt>
<rscale>  0 0.24064530E+03</rscale>
<asrwt>0</asrwt>
<pdfrwt beam="1">  1        1 0.59835946E+00 0.24064530E+03</pdfrwt>
<pdfrwt beam="2">  1       -1 0.31692405E-02 0.24064530E+03</pdfrwt>
<totfact> 0.54538235E+01</totfact>
</mgrwt>
</event>
<event>
 4    1  0.1678003E-008  0.3444129E+03  0.7818608E-02  0.1064932E+00
          1   -1    0    0  501    0  0.00000000000E+00  0.00000000000E+00  0.21244383876E+04  0.21244383876E+04  0.50400000000E-02 0. -1.
         -1   -1    0    0    0  501 -0.00000000000E+00 -0.00000000000E+00 -0.11867338502E+04  0.11867338502E+04  0.50400000000E-02 0.  1.
    8880022    1    1    2    0    0  0.29089201837E+03 -0.10300688464E+03 -0.11473168044E+04  0.11978965262E+04  0.15294330000E+03 0.  0.
    8880022    1    1    2    0    0 -0.29089201837E+03  0.10300688464E+03  0.20850213418E+04  0.21132757117E+04  0.15294330000E+03 0.  0.
<mgrwt>
<rscale>  0 0.34441289E+03</rscale>
<asrwt>0</asrwt>
<pdfrwt beam="1">  1        1 0.32683667E+00 0.34441289E+03</pdfrwt>
<pdfrwt beam="2">  1       -1 0.18257444E+00 0.34441289E+03</pdfrwt>
<totfact> 0.59986118E-01</totfact>
</mgrwt>
</event>
<event>
 4    1  0.1678003E-008  0.5365107E+03  0.7818608E-02  0.1004665E+00
         -1   -1    0    0    0  501 -0.00000000000E+00  0.00000000000E+00  0.48699114799E+03  0.48699114801E+03  0.50400000000E-02 0.  1.
          1   -1    0    0  501    0  0.00000000000E+00 -0.00000000000E+00 -0.12138948078E+04  0.12138948078E+04  0.50400000000E-02 0. -1.
    8880022    1    1    2    0    0 -0.41441437568E+03  0.30448776815E+03 -0.97262272887E+03  0.11107829227E+04  0.15294330000E+03 0. -1.
    8880022    1    1    2    0    0  0.41441437568E+03 -0.30448776815E+03  0.24571906907E+03  0.59010303307E+03  0.15294330000E+03 0.  0.
<mgrwt>
<rscale>  0 0.53651070E+03</rscale>
<asrwt>0</asrwt>
<pdfrwt beam="1">  1        1 0.18675305E+00 0.53651070E+03</pdfrwt>
<pdfrwt beam="2">  1       -1 0.74921716E-01 0.53651070E+03</pdfrwt>
<totfact> 0.19922324E+01</totfact>
</mgrwt>
</event>
<event>
 4    1  0.1678003E-008  0.6175869E+03  0.7818608E-02  0.9869576E-01
          1   -1    0    0  501    0  0.00000000000E+00  0.00000000000E+00  0.12819820162E+04  0.12819820162E+04  0.50400000000E-02 0. -1.
         -1   -1    0    0    0  501 -0.00000000000E+00 -0.00000000000E+00 -0.56663770255E+03  0.56663770257E+03  0.50400000000E-02 0.  1.
    8880022    1    1    2    0    0 -0.54090772753E+03  0.25581402975E+03  0.99466862259E+03  0.11708028482E+04  0.15294330000E+03 0.  0.
    8880022    1    1    2    0    0  0.54090772753E+03 -0.25581402975E+03 -0.27932430892E+03  0.67781687061E+03  0.15294330000E+03 0.  0.
<mgrwt>
<rscale>  0 0.61758695E+03</rscale>
<asrwt>0</asrwt>
<pdfrwt beam="1">  1        1 0.19722800E+00 0.61758695E+03</pdfrwt>
<pdfrwt beam="2">  1       -1 0.87175033E-01 0.61758695E+03</pdfrwt>
<totfact> 0.12747925E+01</totfact>
</mgrwt>
</event>
<event>
 4    1  0.1678003E-008  0.5033851E+03  0.7818608E-02  0.1012899E+00
         -1   -1    0    0    0  501 -0.00000000000E+00  0.00000000000E+00  0.51611329178E+03  0.51611329181E+03  0.50400000000E-02 0.  1.
          1   -1    0    0  501    0  0.00000000000E+00 -0.00000000000E+00 -0.18265757063E+04  0.18265757063E+04  0.50400000000E-02 0. -1.
    8880022    1    1    2    0    0 -0.39199118114E+03  0.27631102516E+03  0.34639301225E+03  0.61105207689E+03  0.15294330000E+03 0.  0.
    8880022    1    1    2    0    0  0.39199118114E+03 -0.27631102516E+03 -0.16568554268E+04  0.17316369212E+04  0.15294330000E+03 0.  0.
<mgrwt>
<rscale>  0 0.50338506E+03</rscale>
<asrwt>0</asrwt>
<pdfrwt beam="1">  1        1 0.28101164E+00 0.50338506E+03</pdfrwt>
<pdfrwt beam="2">  1       -1 0.79402046E-01 0.50338506E+03</pdfrwt>
<totfact> 0.68101892E+00</totfact>
</mgrwt>
</event>
<event>
 4    1  0.1678003E-008  0.6747613E+03  0.7818608E-02  0.9761394E-01
         -1   -1    0    0    0  501 -0.00000000000E+00  0.00000000000E+00  0.64971498560E+03  0.64971498562E+03  0.50400000000E-02 0.  1.
          1   -1    0    0  501    0  0.00000000000E+00 -0.00000000000E+00 -0.27734783886E+04  0.27734783886E+04  0.50400000000E-02 0. -1.
    8880022    1    1    2    0    0  0.27746015798E+03  0.59575757168E+03  0.41776423944E+03  0.79361819299E+03  0.15294330000E+03 0.  0.
    8880022    1    1    2    0    0 -0.27746015798E+03 -0.59575757168E+03 -0.25415276425E+04  0.26295751812E+04  0.15294330000E+03 0.  0.
<mgrwt>
<rscale>  0 0.67476135E+03</rscale>
<asrwt>0</asrwt>
<pdfrwt beam="1">  1        1 0.42668898E+00 0.67476135E+03</pdfrwt>
<pdfrwt beam="2">  1       -1 0.99956153E-01 0.67476135E+03</pdfrwt>
<totfact> 0.90824930E-01</totfact>
</mgrwt>
</event>
<event>
 4    1  0.1678003E-008  0.6120627E+03  0.7818608E-02  0.9880691E-01
         -1   -1    0    0    0  501 -0.00000000000E+00  0.00000000000E+00  0.26615810665E+03  0.26615810669E+03  0.50400000000E-02 0.  1.
          1   -1    0    0  501    0  0.00000000000E+00 -0.00000000000E+00 -0.22513704013E+04  0.22513704013E+04  0.50400000000E-02 0. -1.
    8880022    1    1    2    0    0  0.46569534098E+03  0.36654739976E+03 -0.22195887400E+03  0.65106569687E+03  0.15294330000E+03 0.  0.
    8880022    1    1    2    0    0 -0.46569534098E+03 -0.36654739976E+03 -0.17632534207E+04  0.18664628112E+04  0.15294330000E+03 0.  0.
<mgrwt>
<rscale>  0 0.61206274E+03</rscale>
<asrwt>0</asrwt>
<pdfrwt beam="1">  1        1 0.34636466E+00 0.61206274E+03</pdfrwt>
<pdfrwt beam="2">  1       -1 0.40947403E-01 0.61206274E+03</pdfrwt>
<totfact> 0.12584936E+01</totfact>
</mgrwt>
</event>
<event>
 4    1  0.1678003E-008  0.3738315E+03  0.7818608E-02  0.1053238E+00
          1   -1    0    0  501    0  0.00000000000E+00  0.00000000000E+00  0.31049163442E+03  0.31049163446E+03  0.50400000000E-02 0. -1.
         -1   -1    0    0    0  501 -0.00000000000E+00 -0.00000000000E+00 -0.20201145033E+04  0.20201145033E+04  0.50400000000E-02 0.  1.
    8880022    1    1    2    0    0  0.23414182256E+03  0.24806439390E+03 -0.18821267230E+04  0.19188931682E+04  0.15294330000E+03 0.  0.
    8880022    1    1    2    0    0 -0.23414182256E+03 -0.24806439390E+03  0.17250385411E+03  0.41171296955E+03  0.15294330000E+03 0.  0.
<mgrwt>
<rscale>  0 0.37383150E+03</rscale>
<asrwt>0</asrwt>
<pdfrwt beam="1">  1        1 0.47767945E-01 0.37383150E+03</pdfrwt>
<pdfrwt beam="2">  1       -1 0.31078684E+00 0.37383150E+03</pdfrwt>
<totfact> 0.26950562E+00</totfact>
</mgrwt>
</event>
<event>
 4    1  0.1678003E-008  0.5125254E+03  0.7818608E-02  0.1010560E+00
          1   -1    0    0  501    0  0.00000000000E+00  0.00000000000E+00  0.11515232848E+04  0.11515232848E+04  0.50400000000E-02 0. -1.
         -1   -1    0    0    0  501 -0.00000000000E+00 -0.00000000000E+00 -0.36272074395E+03  0.36272074398E+03  0.50400000000E-02 0.  1.
    8880022    1    1    2    0    0  0.41983032830E+02  0.48736849626E+03 -0.66818492433E+02  0.51686264146E+03  0.15294330000E+03 0.  0.
    8880022    1    1    2    0    0 -0.41983032830E+02 -0.48736849626E+03  0.85562103332E+03  0.99738138737E+03  0.15294330000E+03 0.  0.
<mgrwt>
<rscale>  0 0.51252539E+03</rscale>
<asrwt>0</asrwt>
<pdfrwt beam="1">  1        1 0.17715743E+00 0.51252539E+03</pdfrwt>
<pdfrwt beam="2">  1       -1 0.55803192E-01 0.51252539E+03</pdfrwt>
<totfact> 0.39915190E+01</totfact>
</mgrwt>
</event>
<event>
 4    1  0.1678003E-008  0.7515558E+03  0.7818608E-02  0.9632913E-01
         -1   -1    0    0    0  501 -0.00000000000E+00  0.00000000000E+00  0.38326342962E+03  0.38326342965E+03  0.50400000000E-02 0.  1.
          1   -1    0    0  501    0  0.00000000000E+00 -0.00000000000E+00 -0.15994910590E+04  0.15994910590E+04  0.50400000000E-02 0. -1.
    8880022    1    1    2    0    0 -0.71330089849E+03 -0.18068280415E+03 -0.88607188631E+03  0.11618775702E+04  0.15294330000E+03 0.  0.
    8880022    1    1    2    0    0  0.71330089849E+03  0.18068280415E+03 -0.33015574307E+03  0.82087691842E+03  0.15294330000E+03 0.  0.
<mgrwt>
<rscale>  0 0.75155579E+03</rscale>
<asrwt>0</asrwt>
<pdfrwt beam="1">  1        1 0.24607554E+00 0.75155579E+03</pdfrwt>
<pdfrwt beam="2">  1       -1 0.58963605E-01 0.75155579E+03</pdfrwt>
<totfact> 0.16877793E+01</totfact>
</mgrwt>
</event>
<event>
 4    1  0.1678003E-008  0.5096454E+03  0.7818608E-02  0.1011292E+00
          1   -1    0    0  501    0  0.00000000000E+00  0.00000000000E+00  0.49332220948E+04  0.49332220948E+04  0.50400000000E-02 0. -1.
         -1   -1    0    0    0  501 -0.00000000000E+00 -0.00000000000E+00 -0.10038346557E+03  0.10038346569E+03  0.50400000000E-02 0.  1.
    8880022    1    1    2    0    0  0.34758619148E+03 -0.33989789635E+03  0.41519234649E+04  0.41830858050E+04  0.15294330000E+03 0.  0.
    8880022    1    1    2    0    0 -0.34758619148E+03  0.33989789635E+03  0.68091516425E+03  0.85051975543E+03  0.15294330000E+03 0.  0.
<mgrwt>
<rscale>  0 0.50964536E+03</rscale>
<asrwt>0</asrwt>
<pdfrwt beam="1">  1        1 0.75895726E+00 0.50964536E+03</pdfrwt>
<pdfrwt beam="2">  1       -1 0.15443610E-01 0.50964536E+03</pdfrwt>
<totfact> 0.41002634E-01</totfact>
</mgrwt>
</event>
<event>
 4    1  0.1678003E-008  0.2202538E+03  0.7818608E-02  0.1133694E+00
         -1   -1    0    0    0  501 -0.00000000000E+00  0.00000000000E+00  0.42789367262E+03  0.42789367265E+03  0.50400000000E-02 0.  1.
          1   -1    0    0  501    0  0.00000000000E+00 -0.00000000000E+00 -0.16204908451E+04  0.16204908451E+04  0.50400000000E-02 0. -1.
    8880022    1    1    2    0    0 -0.15840890306E+03 -0.51680433870E+01  0.39141664892E+03  0.44913108922E+03  0.15294330000E+03 0.  1.
    8880022    1    1    2    0    0  0.15840890306E+03  0.51680433870E+01 -0.15840138214E+04  0.15992534285E+04  0.15294330000E+03 0.  0.
<mgrwt>
<rscale>  0 0.22025381E+03</rscale>
<asrwt>0</asrwt>
<pdfrwt beam="1">  1        1 0.24930628E+00 0.22025381E+03</pdfrwt>
<pdfrwt beam="2">  1       -1 0.65829797E-01 0.22025381E+03</pdfrwt>
<totfact> 0.15057299E+01</totfact>
</mgrwt>
</event>
<event>
 4    1  0.1678003E-008  0.2207663E+03  0.7818608E-02  0.1133313E+00
          1   -1    0    0  501    0  0.00000000000E+00  0.00000000000E+00  0.59754425619E+03  0.59754425621E+03  0.50400000000E-02 0. -1.
         -1   -1    0    0    0  501 -0.00000000000E+00 -0.00000000000E+00 -0.46321665255E+03  0.46321665258E+03  0.50400000000E-02 0.  1.
    8880022    1    1    2    0    0  0.12638599078E+03 -0.96812718676E+02  0.54859017929E+03  0.59134504225E+03  0.15294330000E+03 0. -1.
    8880022    1    1    2    0    0 -0.12638599078E+03  0.96812718676E+02 -0.41426257565E+03  0.46941586655E+03  0.15294330000E+03 0.  0.
<mgrwt>
<rscale>  0 0.22076633E+03</rscale>
<asrwt>0</asrwt>
<pdfrwt beam="1">  1        1 0.91929885E-01 0.22076633E+03</pdfrwt>
<pdfrwt beam="2">  1       -1 0.71264100E-01 0.22076633E+03</pdfrwt>
<totfact> 0.75064882E+01</totfact>
</mgrwt>
</event>
<event>
 4    1  0.1678003E-008  0.6278852E+03  0.7818608E-02  0.9849184E-01
          1   -1    0    0  501    0  0.00000000000E+00  0.00000000000E+00  0.95998818820E+03  0.95998818821E+03  0.50400000000E-02 0. -1.
         -1   -1    0    0    0  501 -0.00000000000E+00 -0.00000000000E+00 -0.48191294617E+03  0.48191294619E+03  0.50400000000E-02 0.  1.
    8880022    1    1    2    0    0 -0.22121481959E+03 -0.56737303872E+03 -0.38158707967E+02  0.62904364037E+03  0.15294330000E+03 0.  0.
    8880022    1    1    2    0    0  0.22121481959E+03  0.56737303872E+03  0.51623395000E+03  0.81285749404E+03  0.15294330000E+03 0.  0.
<mgrwt>
<rscale>  0 0.62788519E+03</rscale>
<asrwt>0</asrwt>
<pdfrwt beam="1">  1        1 0.14769049E+00 0.62788519E+03</pdfrwt>
<pdfrwt beam="2">  1       -1 0.74140453E-01 0.62788519E+03</pdfrwt>
<totfact> 0.31047683E+01</totfact>
</mgrwt>
</event>
<event>
 4    1  0.1678003E-008  0.1810135E+03  0.7818608E-02  0.1166826E+00
          1   -1    0    0  501    0  0.00000000000E+00  0.00000000000E+00  0.60296490514E+03  0.60296490516E+03  0.50400000000E-02 0. -1.
         -1   -1    0    0    0  501 -0.00000000000E+00 -0.00000000000E+00 -0.11611625476E+04  0.11611625476E+04  0.50400000000E-02 0.  1.
    8880022    1    1    2    0    0  0.61221651540E+02 -0.75007540159E+02  0.58207774575E+03  0.60957393055E+03  0.15294330000E+03 0. -1.
    8880022    1    1    2    0    0 -0.61221651540E+02  0.75007540159E+02 -0.11402753882E+04  0.11545535222E+04  0.15294330000E+03 0.  0.
<mgrwt>
<rscale>  0 0.18101347E+03</rscale>
<asrwt>0</asrwt>
<pdfrwt beam="1">  1        1 0.92763832E-01 0.18101347E+03</pdfrwt>
<pdfrwt beam="2">  1       -1 0.17864039E+00 0.18101347E+03</pdfrwt>
<totfact> 0.86719781E+00</totfact>
</mgrwt>
</event>
<event>
 4    1  0.1678003E-008  0.3275193E+03  0.7818608E-02  0.1072240E+00
          1   -1    0    0  501    0  0.00000000000E+00  0.00000000000E+00  0.45729468889E+03  0.45729468892E+03  0.50400000000E-02 0. -1.
         -1   -1    0    0    0  501 -0.00000000000E+00 -0.00000000000E+00 -0.38497647068E+03  0.38497647071E+03  0.50400000000E-02 0.  1.
    8880022    1    1    2    0    0 -0.23589246837E+03 -0.16802382207E+03 -0.22707005188E+03  0.39853446889E+03  0.15294330000E+03 0.  0.
    8880022    1    1    2    0    0  0.23589246837E+03  0.16802382207E+03  0.29938827010E+03  0.44373669073E+03  0.15294330000E+03 0.  0.
<mgrwt>
<rscale>  0 0.32751933E+03</rscale>
<asrwt>0</asrwt>
<pdfrwt beam="1">  1        1 0.70353029E-01 0.32751933E+03</pdfrwt>
<pdfrwt beam="2">  1       -1 0.59227149E-01 0.32751933E+03</pdfrwt>
<totfact> 0.15204789E+02</totfact>
</mgrwt>
</event>
<event>
 4    1  0.1678003E-008  0.3286512E+03  0.7818608E-02  0.1071735E+00
          1   -1    0    0  501    0  0.00000000000E+00  0.00000000000E+00  0.13490174516E+04  0.13490174516E+04  0.50400000000E-02 0. -1.
         -1   -1    0    0    0  501 -0.00000000000E+00 -0.00000000000E+00 -0.32489400890E+03  0.32489400894E+03  0.50400000000E-02 0.  1.
    8880022    1    1    2    0    0  0.23312828705E+03  0.17398615595E+03 -0.21448140007E+03  0.39244605321E+03  0.15294330000E+03 0.  0.
    8880022    1    1    2    0    0 -0.23312828705E+03 -0.17398615595E+03  0.12386048428E+04  0.12814654073E+04  0.15294330000E+03 0.  1.
<mgrwt>
<rscale>  0 0.32865123E+03</rscale>
<asrwt>0</asrwt>
<pdfrwt beam="1">  1        1 0.20754115E+00 0.32865123E+03</pdfrwt>
<pdfrwt beam="2">  1       -1 0.49983693E-01 0.32865123E+03</pdfrwt>
<totfact> 0.37096800E+01</totfact>
</mgrwt>
</event>
<event>
 4    1  0.1678003E-008  0.2753535E+03  0.7818608E-02  0.1098254E+00
         -1   -1    0    0    0  501 -0.00000000000E+00  0.00000000000E+00  0.62695832080E+02  0.62695832283E+02  0.50400000000E-02 0.  1.
          1   -1    0    0  501    0  0.00000000000E+00 -0.00000000000E+00 -0.14522289045E+04  0.14522289045E+04  0.50400000000E-02 0. -1.
    8880022    1    1    2    0    0 -0.18331602593E+03 -0.13719743112E+03 -0.10045526637E+04  0.10416072233E+04  0.15294330000E+03 0.  0.
    8880022    1    1    2    0    0  0.18331602593E+03  0.13719743112E+03 -0.38498040874E+03  0.47331751351E+03  0.15294330000E+03 0.  0.
<mgrwt>
<rscale>  0 0.27535351E+03</rscale>
<asrwt>0</asrwt>
<pdfrwt beam="1">  1        1 0.22341981E+00 0.27535351E+03</pdfrwt>
<pdfrwt beam="2">  1       -1 0.96455138E-02 0.27535351E+03</pdfrwt>
<totfact> 0.49742150E+02</totfact>
</mgrwt>
</event>
<event>
 4    1  0.1678003E-008  0.2167369E+03  0.7818608E-02  0.1136339E+00
         -1   -1    0    0    0  501 -0.00000000000E+00  0.00000000000E+00  0.12042675179E+03  0.12042675189E+03  0.50400000000E-02 0.  1.
          1   -1    0    0  501    0  0.00000000000E+00 -0.00000000000E+00 -0.15997226311E+04  0.15997226311E+04  0.50400000000E-02 0. -1.
    8880022    1    1    2    0    0  0.69983758477E+02  0.13669495255E+03 -0.14875489532E+04  0.15032553934E+04  0.15294330000E+03 0.  0.
    8880022    1    1    2    0    0 -0.69983758477E+02 -0.13669495255E+03  0.82530738693E+01  0.21689398965E+03  0.15294330000E+03 0.  1.
<mgrwt>
<rscale>  0 0.21673691E+03</rscale>
<asrwt>0</asrwt>
<pdfrwt beam="1">  1        1 0.24611116E+00 0.21673691E+03</pdfrwt>
<pdfrwt beam="2">  1       -1 0.18527194E-01 0.21673691E+03</pdfrwt>
<totfact> 0.14358248E+02</totfact>
</mgrwt>
</event>
<event>
 4    1  0.1678003E-008  0.3502617E+03  0.7818608E-02  0.1062508E+00
          1   -1    0    0  501    0  0.00000000000E+00  0.00000000000E+00  0.21355351598E+04  0.21355351598E+04  0.50400000000E-02 0. -1.
         -1   -1    0    0    0  501 -0.00000000000E+00 -0.00000000000E+00 -0.15856847988E+03  0.15856847996E+03  0.50400000000E-02 0.  1.
    8880022    1    1    2    0    0  0.12301523481E+03  0.29010143533E+03  0.19044784226E+04  0.19364197133E+04  0.15294330000E+03 0.  0.
    8880022    1    1    2    0    0 -0.12301523481E+03 -0.29010143533E+03  0.72488257269E+02  0.35768392644E+03  0.15294330000E+03 0.  0.
<mgrwt>
<rscale>  0 0.35026168E+03</rscale>
<asrwt>0</asrwt>
<pdfrwt beam="1">  1        1 0.32854385E+00 0.35026168E+03</pdfrwt>
<pdfrwt beam="2">  1       -1 0.24395152E-01 0.35026168E+03</pdfrwt>
<totfact> 0.39321806E+01</totfact>
</mgrwt>
</event>
<event>
 4    1  0.1678003E-008  0.3929506E+03  0.7818608E-02  0.1046248E+00
         -1   -1    0    0    0  501 -0.00000000000E+00  0.00000000000E+00  0.31972490188E+03  0.31972490192E+03  0.50400000000E-02 0.  1.
          1   -1    0    0  501    0  0.00000000000E+00 -0.00000000000E+00 -0.15459447801E+04  0.15459447802E+04  0.50400000000E-02 0. -1.
    8880022    1    1    2    0    0 -0.46039877062E+02  0.35902491004E+03 -0.13866341854E+04  0.14412371677E+04  0.15294330000E+03 0.  0.
    8880022    1    1    2    0    0  0.46039877062E+02 -0.35902491004E+03  0.16041430716E+03  0.42443251439E+03  0.15294330000E+03 0.  0.
<mgrwt>
<rscale>  0 0.39295064E+03</rscale>
<asrwt>0</asrwt>
<pdfrwt beam="1">  1        1 0.23783765E+00 0.39295064E+03</pdfrwt>
<pdfrwt beam="2">  1       -1 0.49188447E-01 0.39295064E+03</pdfrwt>
<totfact> 0.27680919E+01</totfact>
</mgrwt>
</event>
<event>
 4    1  0.1678003E-008  0.5255657E+03  0.7818608E-02  0.1007313E+00
          1   -1    0    0  501    0  0.00000000000E+00  0.00000000000E+00  0.44155347096E+04  0.44155347096E+04  0.50400000000E-02 0. -1.
         -1   -1    0    0    0  501 -0.00000000000E+00 -0.00000000000E+00 -0.11138821474E+03  0.11138821485E+03  0.50400000000E-02 0.  1.
    8880022    1    1    2    0    0 -0.50164526777E+03  0.34345726746E+02  0.65340460982E+03  0.83854447751E+03  0.15294330000E+03 0.  0.
    8880022    1    1    2    0    0  0.50164526777E+03 -0.34345726746E+02  0.36507418851E+04  0.36883784470E+04  0.15294330000E+03 0.  0.
<mgrwt>
<rscale>  0 0.52556565E+03</rscale>
<asrwt>0</asrwt>
<pdfrwt beam="1">  1        1 0.67931308E+00 0.52556565E+03</pdfrwt>
<pdfrwt beam="2">  1       -1 0.17136647E-01 0.52556565E+03</pdfrwt>
<totfact> 0.12351526E+00</totfact>
</mgrwt>
</event>
<event>
 4    1  0.1678003E-008  0.5704995E+03  0.7818608E-02  0.9968574E-01
         -1   -1    0    0    0  501 -0.00000000000E+00  0.00000000000E+00  0.29443985203E+03  0.29443985207E+03  0.50400000000E-02 0.  1.
          1   -1    0    0  501    0  0.00000000000E+00 -0.00000000000E+00 -0.24154313307E+04  0.24154313307E+04  0.50400000000E-02 0. -1.
    8880022    1    1    2    0    0  0.53100992463E+03 -0.14179717535E+03 -0.20583439846E+04  0.21359423192E+04  0.15294330000E+03 0.  0.
    8880022    1    1    2    0    0 -0.53100992463E+03  0.14179717535E+03 -0.62647494154E+02  0.57392886365E+03  0.15294330000E+03 0.  0.
<mgrwt>
<rscale>  0 0.57049946E+03</rscale>
<asrwt>0</asrwt>
<pdfrwt beam="1">  1        1 0.37160481E+00 0.57049946E+03</pdfrwt>
<pdfrwt beam="2">  1       -1 0.45298440E-01 0.57049946E+03</pdfrwt>
<totfact> 0.81843313E+00</totfact>
</mgrwt>
</event>
<event>
 4    1  0.1678003E-008  0.5770168E+03  0.7818608E-02  0.9954271E-01
         -1   -1    0    0    0  501 -0.00000000000E+00  0.00000000000E+00  0.55077722967E+03  0.55077722970E+03  0.50400000000E-02 0.  1.
          1   -1    0    0  501    0  0.00000000000E+00 -0.00000000000E+00 -0.18705390922E+04  0.18705390922E+04  0.50400000000E-02 0. -1.
    8880022    1    1    2    0    0 -0.21083566951E+03 -0.51488351063E+03 -0.16558838225E+04  0.17535391629E+04  0.15294330000E+03 0.  0.
    8880022    1    1    2    0    0  0.21083566951E+03  0.51488351063E+03  0.33612196003E+03  0.66777715900E+03  0.15294330000E+03 0.  0.
<mgrwt>
<rscale>  0 0.57701678E+03</rscale>
<asrwt>0</asrwt>
<pdfrwt beam="1">  1        1 0.28777524E+00 0.57701678E+03</pdfrwt>
<pdfrwt beam="2">  1       -1 0.84734959E-01 0.57701678E+03</pdfrwt>
<totfact> 0.54495847E+00</totfact>
</mgrwt>
</event>
<event>
 4    1  0.1678003E-008  0.3197946E+03  0.7818608E-02  0.1075744E+00
         -1   -1    0    0    0  501 -0.00000000000E+00  0.00000000000E+00  0.20083799424E+03  0.20083799431E+03  0.50400000000E-02 0.  1.
          1   -1    0    0  501    0  0.00000000000E+00 -0.00000000000E+00 -0.16653307524E+04  0.16653307524E+04  0.50400000000E-02 0. -1.
    8880022    1    1    2    0    0 -0.18630325760E+03 -0.21016195444E+03  0.45203441495E+02  0.32297361351E+03  0.15294330000E+03 0.  0.
    8880022    1    1    2    0    0  0.18630325760E+03  0.21016195444E+03 -0.15096961997E+04  0.15431951332E+04  0.15294330000E+03 0.  0.
<mgrwt>
<rscale>  0 0.31979463E+03</rscale>
<asrwt>0</asrwt>
<pdfrwt beam="1">  1        1 0.25620472E+00 0.31979463E+03</pdfrwt>
<pdfrwt beam="2">  1       -1 0.30898154E-01 0.31979463E+03</pdfrwt>
<totfact> 0.53962713E+01</totfact>
</mgrwt>
</event>
<event>
 4    1  0.1678003E-008  0.3569786E+03  0.7818608E-02  0.1059787E+00
         -1   -1    0    0    0  501 -0.00000000000E+00  0.00000000000E+00  0.78378205917E+03  0.78378205918E+03  0.50400000000E-02 0.  1.
          1   -1    0    0  501    0  0.00000000000E+00 -0.00000000000E+00 -0.62243453041E+03  0.62243453043E+03  0.50400000000E-02 0. -1.
    8880022    1    1    2    0    0  0.83313304735E+02 -0.31161023216E+03  0.68501434268E+03  0.77244957520E+03  0.15294330000E+03 0.  0.
    8880022    1    1    2    0    0 -0.83313304735E+02  0.31161023216E+03 -0.52366681392E+03  0.63376701441E+03  0.15294330000E+03 0.  0.
<mgrwt>
<rscale>  0 0.35697857E+03</rscale>
<asrwt>0</asrwt>
<pdfrwt beam="1">  1        1 0.95759159E-01 0.35697857E+03</pdfrwt>
<pdfrwt beam="2">  1       -1 0.12058186E+00 0.35697857E+03</pdfrwt>
<totfact> 0.21687609E+01</totfact>
</mgrwt>
</event>
<event>
 4    1  0.1678003E-008  0.6155745E+03  0.7818608E-02  0.9873610E-01
         -1   -1    0    0    0  501 -0.00000000000E+00  0.00000000000E+00  0.52637062437E+03  0.52637062439E+03  0.50400000000E-02 0.  1.
          1   -1    0    0  501    0  0.00000000000E+00 -0.00000000000E+00 -0.12025099912E+04  0.12025099912E+04  0.50400000000E-02 0. -1.
    8880022    1    1    2    0    0  0.18758198447E+03 -0.56599765664E+03  0.20956469929E+03  0.65026868633E+03  0.15294330000E+03 0.  0.
    8880022    1    1    2    0    0 -0.18758198447E+03  0.56599765664E+03 -0.88570406610E+03  0.10786119293E+04  0.15294330000E+03 0.  0.
<mgrwt>
<rscale>  0 0.61557453E+03</rscale>
<asrwt>0</asrwt>
<pdfrwt beam="1">  1        1 0.18500154E+00 0.61557453E+03</pdfrwt>
<pdfrwt beam="2">  1       -1 0.80980096E-01 0.61557453E+03</pdfrwt>
<totfact> 0.17017352E+01</totfact>
</mgrwt>
</event>
<event>
 4    1  0.1678003E-008  0.7657113E+03  0.7818608E-02  0.9611019E-01
          1   -1    0    0  501    0  0.00000000000E+00  0.00000000000E+00  0.99681070550E+03  0.99681070551E+03  0.50400000000E-02 0. -1.
         -1   -1    0    0    0  501 -0.00000000000E+00 -0.00000000000E+00 -0.14507941297E+04  0.14507941297E+04  0.50400000000E-02 0.  1.
    8880022    1    1    2    0    0  0.71345079206E+03 -0.23218543289E+03  0.71666549534E+03  0.10487722313E+04  0.15294330000E+03 0.  0.
    8880022    1    1    2    0    0 -0.71345079206E+03  0.23218543289E+03 -0.11706489195E+04  0.13988326039E+04  0.15294330000E+03 0.  0.
<mgrwt>
<rscale>  0 0.76571128E+03</rscale>
<asrwt>0</asrwt>
<pdfrwt beam="1">  1        1 0.15335549E+00 0.76571128E+03</pdfrwt>
<pdfrwt beam="2">  1       -1 0.22319910E+00 0.76571128E+03</pdfrwt>
<totfact> 0.16633439E+00</totfact>
</mgrwt>
</event>
<event>
 4    1  0.1678003E-008  0.3471845E+03  0.7818608E-02  0.1063777E+00
         -1   -1    0    0    0  501 -0.00000000000E+00  0.00000000000E+00  0.16228555402E+03  0.16228555410E+03  0.50400000000E-02 0.  1.
          1   -1    0    0  501    0  0.00000000000E+00 -0.00000000000E+00 -0.14006487629E+04  0.14006487629E+04  0.50400000000E-02 0. -1.
    8880022    1    1    2    0    0  0.10563473284E+03  0.29323492884E+03 -0.11547645098E+04  0.12058267481E+04  0.15294330000E+03 0.  0.
    8880022    1    1    2    0    0 -0.10563473284E+03 -0.29323492884E+03 -0.83598699063E+02  0.35710756891E+03  0.15294330000E+03 0.  1.
<mgrwt>
<rscale>  0 0.34718449E+03</rscale>
<asrwt>0</asrwt>
<pdfrwt beam="1">  1        1 0.21548442E+00 0.34718449E+03</pdfrwt>
<pdfrwt beam="2">  1       -1 0.24967009E-01 0.34718449E+03</pdfrwt>
<totfact> 0.11564994E+02</totfact>
</mgrwt>
</event>
<event>
 4    1  0.1678003E-008  0.3490796E+03  0.7818608E-02  0.1062993E+00
          1   -1    0    0  501    0  0.00000000000E+00  0.00000000000E+00  0.11484679603E+04  0.11484679603E+04  0.50400000000E-02 0. -1.
         -1   -1    0    0    0  501 -0.00000000000E+00 -0.00000000000E+00 -0.26889018580E+03  0.26889018585E+03  0.50400000000E-02 0.  1.
    8880022    1    1    2    0    0  0.22137202888E+03 -0.22239457885E+03  0.99119483927E+03  0.10508681108E+04  0.15294330000E+03 0.  0.
    8880022    1    1    2    0    0 -0.22137202888E+03  0.22239457885E+03 -0.11161706476E+03  0.36649003538E+03  0.15294330000E+03 0.  0.
<mgrwt>
<rscale>  0 0.34907961E+03</rscale>
<asrwt>0</asrwt>
<pdfrwt beam="1">  1        1 0.17668738E+00 0.34907961E+03</pdfrwt>
<pdfrwt beam="2">  1       -1 0.41367721E-01 0.34907961E+03</pdfrwt>
<totfact> 0.72091770E+01</totfact>
</mgrwt>
</event>
<event>
 4    1  0.1678003E-008  0.1986931E+03  0.7818608E-02  0.1150846E+00
         -1   -1    0    0    0  501 -0.00000000000E+00  0.00000000000E+00  0.18698791606E+03  0.18698791613E+03  0.50400000000E-02 0.  1.
          1   -1    0    0  501    0  0.00000000000E+00 -0.00000000000E+00 -0.47293829422E+03  0.47293829424E+03  0.50400000000E-02 0. -1.
    8880022    1    1    2    0    0 -0.11594629541E+03  0.51417479282E+02 -0.38847659174E+03  0.43634048166E+03  0.15294330000E+03 0.  0.
    8880022    1    1    2    0    0  0.11594629541E+03 -0.51417479282E+02  0.10252621358E+03  0.22358572871E+03  0.15294330000E+03 0.  1.
<mgrwt>
<rscale>  0 0.19869311E+03</rscale>
<asrwt>0</asrwt>
<pdfrwt beam="1">  1        1 0.72759737E-01 0.19869311E+03</pdfrwt>
<pdfrwt beam="2">  1       -1 0.28767372E-01 0.19869311E+03</pdfrwt>
<totfact> 0.53832378E+02</totfact>
</mgrwt>
</event>
<event>
 4    1  0.1678003E-008  0.5521298E+03  0.7818608E-02  0.1001002E+00
          1   -1    0    0  501    0  0.00000000000E+00  0.00000000000E+00  0.23696020666E+04  0.23696020666E+04  0.50400000000E-02 0. -1.
         -1   -1    0    0    0  501 -0.00000000000E+00 -0.00000000000E+00 -0.26634346688E+03  0.26634346693E+03  0.50400000000E-02 0.  1.
    8880022    1    1    2    0    0  0.52435619903E+01 -0.53049807433E+03  0.19992692871E+04  0.20741082511E+04  0.15294330000E+03 0.  0.
    8880022    1    1    2    0    0 -0.52435619903E+01  0.53049807433E+03  0.10398931262E+03  0.56183728246E+03  0.15294330000E+03 0.  0.
<mgrwt>
<rscale>  0 0.55212984E+03</rscale>
<asrwt>0</asrwt>
<pdfrwt beam="1">  1        1 0.36455417E+00 0.55212984E+03</pdfrwt>
<pdfrwt beam="2">  1       -1 0.40975918E-01 0.55212984E+03</pdfrwt>
<totfact> 0.10603450E+01</totfact>
</mgrwt>
</event>
<event>
 4    1  0.1678003E-008  0.3249856E+03  0.7818608E-02  0.1073377E+00
          1   -1    0    0  501    0  0.00000000000E+00  0.00000000000E+00  0.16344214496E+04  0.16344214496E+04  0.50400000000E-02 0. -1.
         -1   -1    0    0    0  501 -0.00000000000E+00 -0.00000000000E+00 -0.11829050852E+03  0.11829050863E+03  0.50400000000E-02 0.  1.
    8880022    1    1    2    0    0  0.25807898251E+03 -0.12497690349E+03  0.16776228487E+03  0.36573190299E+03  0.15294330000E+03 0.  0.
    8880022    1    1    2    0    0 -0.25807898251E+03  0.12497690349E+03  0.13483686562E+04  0.13869800553E+04  0.15294330000E+03 0. -1.
<mgrwt>
<rscale>  0 0.32498560E+03</rscale>
<asrwt>0</asrwt>
<pdfrwt beam="1">  1        1 0.25144944E+00 0.32498560E+03</pdfrwt>
<pdfrwt beam="2">  1       -1 0.18198541E-01 0.32498560E+03</pdfrwt>
<totfact> 0.13664059E+02</totfact>
</mgrwt>
</event>
<event>
 4    1  0.1678003E-008  0.5507766E+03  0.7818608E-02  0.1001314E+00
          1   -1    0    0  501    0  0.00000000000E+00  0.00000000000E+00  0.33706963595E+04  0.33706963595E+04  0.50400000000E-02 0. -1.
         -1   -1    0    0    0  501 -0.00000000000E+00 -0.00000000000E+00 -0.25709696871E+03  0.25709696876E+03  0.50400000000E-02 0.  1.
    8880022    1    1    2    0    0  0.50936493612E+03  0.14321495781E+03  0.30191498621E+04  0.30689771431E+04  0.15294330000E+03 0.  0.
    8880022    1    1    2    0    0 -0.50936493612E+03 -0.14321495781E+03  0.94449528713E+02  0.55881618514E+03  0.15294330000E+03 0.  0.
<mgrwt>
<rscale>  0 0.55077656E+03</rscale>
<asrwt>0</asrwt>
<pdfrwt beam="1">  1        1 0.51856861E+00 0.55077656E+03</pdfrwt>
<pdfrwt beam="2">  1       -1 0.39553384E-01 0.55077656E+03</pdfrwt>
<totfact> 0.22277299E+00</totfact>
</mgrwt>
</event>
<event>
 4    1  0.1678003E-008  0.1442494E+04  0.7818608E-02  0.8923621E-01
          1   -1    0    0  501    0  0.00000000000E+00  0.00000000000E+00  0.20548943309E+04  0.20548943309E+04  0.50400000000E-02 0. -1.
         -1   -1    0    0    0  501 -0.00000000000E+00 -0.00000000000E+00 -0.12333868439E+04  0.12333868439E+04  0.50400000000E-02 0.  1.
    8880022    1    1    2    0    0  0.11356343776E+04 -0.87620364284E+03 -0.28486938896E+03  0.14703538639E+04  0.15294330000E+03 0.  0.
    8880022    1    1    2    0    0 -0.11356343776E+04  0.87620364284E+03  0.11063768759E+04  0.18179273109E+04  0.15294330000E+03 0.  0.
<mgrwt>
<rscale>  0 0.14424943E+04</rscale>
<asrwt>0</asrwt>
<pdfrwt beam="1">  1        1 0.31613759E+00 0.14424943E+04</pdfrwt>
<pdfrwt beam="2">  1       -1 0.18975182E+00 0.14424943E+04</pdfrwt>
<totfact> 0.46203531E-01</totfact>
</mgrwt>
</event>
<event>
 4    1  0.1678003E-008  0.1181316E+04  0.7818608E-02  0.9129370E-01
         -1   -1    0    0    0  501 -0.00000000000E+00  0.00000000000E+00  0.17021347751E+04  0.17021347751E+04  0.50400000000E-02 0.  1.
          1   -1    0    0  501    0  0.00000000000E+00 -0.00000000000E+00 -0.11516714009E+04  0.11516714009E+04  0.50400000000E-02 0. -1.
    8880022    1    1    2    0    0 -0.12634255800E+03  0.11645394940E+04 -0.49067895301E+03  0.12791685436E+04  0.15294330000E+03 0.  0.
    8880022    1    1    2    0    0  0.12634255800E+03 -0.11645394940E+04  0.10411423272E+04  0.15746376324E+04  0.15294330000E+03 0.  0.
<mgrwt>
<rscale>  0 0.11813155E+04</rscale>
<asrwt>0</asrwt>
<pdfrwt beam="1">  1        1 0.17718022E+00 0.11813155E+04</pdfrwt>
<pdfrwt beam="2">  1       -1 0.26186689E+00 0.11813155E+04</pdfrwt>
<totfact> 0.66626541E-01</totfact>
</mgrwt>
</event>
<event>
 4    1  0.1678003E-008  0.6423746E+03  0.7818608E-02  0.9821194E-01
         -1   -1    0    0    0  501 -0.00000000000E+00  0.00000000000E+00  0.16117968911E+04  0.16117968912E+04  0.50400000000E-02 0.  1.
          1   -1    0    0  501    0  0.00000000000E+00 -0.00000000000E+00 -0.14214456851E+04  0.14214456851E+04  0.50400000000E-02 0. -1.
    8880022    1    1    2    0    0  0.22268840695E+03 -0.58280639066E+03 -0.12780918735E+04  0.14304418568E+04  0.15294330000E+03 0.  0.
    8880022    1    1    2    0    0 -0.22268840695E+03  0.58280639066E+03  0.14684430795E+04  0.16028007195E+04  0.15294330000E+03 0.  0.
<mgrwt>
<rscale>  0 0.64237455E+03</rscale>
<asrwt>0</asrwt>
<pdfrwt beam="1">  1        1 0.21868395E+00 0.64237455E+03</pdfrwt>
<pdfrwt beam="2">  1       -1 0.24796875E+00 0.64237455E+03</pdfrwt>
<totfact> 0.58008295E-01</totfact>
</mgrwt>
</event>
<event>
 4    1  0.1678003E-008  0.3427489E+03  0.7818608E-02  0.1065631E+00
          1   -1    0    0  501    0  0.00000000000E+00  0.00000000000E+00  0.15690366154E+04  0.15690366154E+04  0.50400000000E-02 0. -1.
         -1   -1    0    0    0  501 -0.00000000000E+00 -0.00000000000E+00 -0.16701995538E+03  0.16701995545E+03  0.50400000000E-02 0.  1.
    8880022    1    1    2    0    0 -0.84980191667E+02 -0.29472616836E+03  0.56256310293E+02  0.34733495757E+03  0.15294330000E+03 0. -1.
    8880022    1    1    2    0    0  0.84980191667E+02  0.29472616836E+03  0.13457603497E+04  0.13887216133E+04  0.15294330000E+03 0. -1.
<mgrwt>
<rscale>  0 0.34274889E+03</rscale>
<asrwt>0</asrwt>
<pdfrwt beam="1">  1        1 0.24139025E+00 0.34274889E+03</pdfrwt>
<pdfrwt beam="2">  1       -1 0.25695378E-01 0.34274889E+03</pdfrwt>
<totfact> 0.85034652E+01</totfact>
</mgrwt>
</event>
<event>
 4    1  0.1678003E-008  0.7252163E+03  0.7818608E-02  0.9675055E-01
         -1   -1    0    0    0  501 -0.00000000000E+00  0.00000000000E+00  0.25163544145E+03  0.25163544150E+03  0.50400000000E-02 0.  1.
          1   -1    0    0  501    0  0.00000000000E+00 -0.00000000000E+00 -0.30589475885E+04  0.30589475885E+04  0.50400000000E-02 0. -1.
    8880022    1    1    2    0    0  0.67825043850E+03 -0.20621191911E+03 -0.47207582302E+03  0.86532898287E+03  0.15294330000E+03 0.  0.
    8880022    1    1    2    0    0 -0.67825043850E+03  0.20621191911E+03 -0.23352363240E+04  0.24452540471E+04  0.15294330000E+03 0.  0.
<mgrwt>
<rscale>  0 0.72521629E+03</rscale>
<asrwt>0</asrwt>
<pdfrwt beam="1">  1        1 0.47060729E+00 0.72521629E+03</pdfrwt>
<pdfrwt beam="2">  1       -1 0.38713147E-01 0.72521629E+03</pdfrwt>
<totfact> 0.37662175E+00</totfact>
</mgrwt>
</event>
<event>
 4    1  0.1678003E-008  0.2920525E+03  0.7818608E-02  0.1089282E+00
          1   -1    0    0  501    0  0.00000000000E+00  0.00000000000E+00  0.99652525818E+03  0.99652525819E+03  0.50400000000E-02 0. -1.
         -1   -1    0    0    0  501 -0.00000000000E+00 -0.00000000000E+00 -0.22423776982E+03  0.22423776988E+03  0.50400000000E-02 0.  1.
    8880022    1    1    2    0    0  0.24417851815E+03 -0.47747666753E+02 -0.93810924114E+02  0.30674929650E+03  0.15294330000E+03 0.  0.
    8880022    1    1    2    0    0 -0.24417851815E+03  0.47747666753E+02  0.86609841247E+03  0.91401373157E+03  0.15294330000E+03 0.  0.
<mgrwt>
<rscale>  0 0.29205246E+03</rscale>
<asrwt>0</asrwt>
<pdfrwt beam="1">  1        1 0.15331158E+00 0.29205246E+03</pdfrwt>
<pdfrwt beam="2">  1       -1 0.34498119E-01 0.29205246E+03</pdfrwt>
<totfact> 0.13003926E+02</totfact>
</mgrwt>
</event>
<event>
 4    1  0.1678003E-008  0.2283962E+03  0.7818608E-02  0.1127774E+00
         -1   -1    0    0    0  501 -0.00000000000E+00  0.00000000000E+00  0.18831073889E+03  0.18831073896E+03  0.50400000000E-02 0.  1.
          1   -1    0    0  501    0  0.00000000000E+00 -0.00000000000E+00 -0.79503062540E+03  0.79503062541E+03  0.50400000000E-02 0. -1.
    8880022    1    1    2    0    0  0.86870945451E+02  0.14569349146E+03 -0.70023519440E+03  0.73654201177E+03  0.15294330000E+03 0. -1.
    8880022    1    1    2    0    0 -0.86870945451E+02 -0.14569349146E+03  0.93515307897E+02  0.24679935260E+03  0.15294330000E+03 0.  0.
<mgrwt>
<rscale>  0 0.22839616E+03</rscale>
<asrwt>0</asrwt>
<pdfrwt beam="1">  1        1 0.12231240E+00 0.22839616E+03</pdfrwt>
<pdfrwt beam="2">  1       -1 0.28970883E-01 0.22839616E+03</pdfrwt>
<totfact> 0.25616627E+02</totfact>
</mgrwt>
</event>
<event>
 4    1  0.1678003E-008  0.4300612E+03  0.7818608E-02  0.1033841E+00
         -1   -1    0    0    0  501 -0.00000000000E+00  0.00000000000E+00  0.83754232036E+03  0.83754232038E+03  0.50400000000E-02 0.  1.
          1   -1    0    0  501    0  0.00000000000E+00 -0.00000000000E+00 -0.10517668181E+04  0.10517668181E+04  0.50400000000E-02 0. -1.
    8880022    1    1    2    0    0 -0.93843935085E+02  0.39083790230E+03  0.73253695584E+03  0.84944864159E+03  0.15294330000E+03 0.  0.
    8880022    1    1    2    0    0  0.93843935085E+02 -0.39083790230E+03 -0.94676145361E+03  0.10398604969E+04  0.15294330000E+03 0. -1.
<mgrwt>
<rscale>  0 0.43006116E+03</rscale>
<asrwt>0</asrwt>
<pdfrwt beam="1">  1        1 0.16181028E+00 0.43006116E+03</pdfrwt>
<pdfrwt beam="2">  1       -1 0.12885266E+00 0.43006116E+03</pdfrwt>
<totfact> 0.78779435E+00</totfact>
</mgrwt>
</event>
<event>
 4    1  0.1678003E-008  0.6615215E+03  0.7818608E-02  0.9785397E-01
          1   -1    0    0  501    0  0.00000000000E+00  0.00000000000E+00  0.48563004962E+04  0.48563004962E+04  0.50400000000E-02 0. -1.
         -1   -1    0    0    0  501 -0.00000000000E+00 -0.00000000000E+00 -0.18847490476E+03  0.18847490482E+03  0.50400000000E-02 0.  1.
    8880022    1    1    2    0    0 -0.13370699840E+03 -0.62955654842E+03  0.51169250791E+03  0.83632522666E+03  0.15294330000E+03 0.  0.
    8880022    1    1    2    0    0  0.13370699840E+03  0.62955654842E+03  0.41561330835E+04  0.42084501743E+04  0.15294330000E+03 0. -1.
<mgrwt>
<rscale>  0 0.66152148E+03</rscale>
<asrwt>0</asrwt>
<pdfrwt beam="1">  1        1 0.74712313E+00 0.66152148E+03</pdfrwt>
<pdfrwt beam="2">  1       -1 0.28996140E-01 0.66152148E+03</pdfrwt>
<totfact> 0.16720780E-01</totfact>
</mgrwt>
</event>
<event>
 4    1  0.1678003E-008  0.6427540E+03  0.7818608E-02  0.9820472E-01
         -1   -1    0    0    0  501 -0.00000000000E+00  0.00000000000E+00  0.84102907009E+03  0.84102907011E+03  0.50400000000E-02 0.  1.
          1   -1    0    0  501    0  0.00000000000E+00 -0.00000000000E+00 -0.11478361759E+04  0.11478361759E+04  0.50400000000E-02 0. -1.
    8880022    1    1    2    0    0  0.45618544509E+03  0.42618764510E+03 -0.90552893535E+03  0.11104572819E+04  0.15294330000E+03 0.  0.
    8880022    1    1    2    0    0 -0.45618544509E+03 -0.42618764510E+03  0.59872182957E+03  0.87840796409E+03  0.15294330000E+03 0.  0.
<mgrwt>
<rscale>  0 0.64275401E+03</rscale>
<asrwt>0</asrwt>
<pdfrwt beam="1">  1        1 0.17659018E+00 0.64275401E+03</pdfrwt>
<pdfrwt beam="2">  1       -1 0.12938909E+00 0.64275401E+03</pdfrwt>
<totfact> 0.63228630E+00</totfact>
</mgrwt>
</event>
<event>
 4    1  0.1678003E-008  0.8378778E+03  0.7818608E-02  0.9506753E-01
         -1   -1    0    0    0  501 -0.00000000000E+00  0.00000000000E+00  0.82841787367E+03  0.82841787368E+03  0.50400000000E-02 0.  1.
          1   -1    0    0  501    0  0.00000000000E+00 -0.00000000000E+00 -0.16284025366E+04  0.16284025366E+04  0.50400000000E-02 0. -1.
    8880022    1    1    2    0    0  0.25252942183E+03  0.78414053686E+03 -0.12506915882E+04  0.15054130969E+04  0.15294330000E+03 0.  0.
    8880022    1    1    2    0    0 -0.25252942183E+03 -0.78414053686E+03  0.45070692530E+03  0.95140731338E+03  0.15294330000E+03 0.  0.
<mgrwt>
<rscale>  0 0.83787776E+03</rscale>
<asrwt>0</asrwt>
<pdfrwt beam="1">  1        1 0.25052347E+00 0.83787776E+03</pdfrwt>
<pdfrwt beam="2">  1       -1 0.12744890E+00 0.83787776E+03</pdfrwt>
<totfact> 0.29320093E+00</totfact>
</mgrwt>
</event>
<event>
 4    1  0.1678003E-008  0.5333644E+03  0.7818608E-02  0.1005419E+00
         -1   -1    0    0    0  501 -0.00000000000E+00  0.00000000000E+00  0.29088038000E+03  0.29088038004E+03  0.50400000000E-02 0.  1.
          1   -1    0    0  501    0  0.00000000000E+00 -0.00000000000E+00 -0.26767047060E+04  0.26767047060E+04  0.50400000000E-02 0. -1.
    8880022    1    1    2    0    0 -0.33488843650E+03  0.38592190671E+03 -0.23749554512E+04  0.24341099053E+04  0.15294330000E+03 0.  0.
    8880022    1    1    2    0    0  0.33488843650E+03 -0.38592190671E+03 -0.10868874795E+02  0.53347518072E+03  0.15294330000E+03 0.  0.
<mgrwt>
<rscale>  0 0.53336445E+03</rscale>
<asrwt>0</asrwt>
<pdfrwt beam="1">  1        1 0.41180071E+00 0.53336445E+03</pdfrwt>
<pdfrwt beam="2">  1       -1 0.44750829E-01 0.53336445E+03</pdfrwt>
<totfact> 0.56093265E+00</totfact>
</mgrwt>
</event>
<event>
 4    1  0.1678003E-008  0.6270725E+03  0.7818608E-02  0.9850778E-01
         -1   -1    0    0    0  501 -0.00000000000E+00  0.00000000000E+00  0.16823374385E+03  0.16823374392E+03  0.50400000000E-02 0.  1.
          1   -1    0    0  501    0  0.00000000000E+00 -0.00000000000E+00 -0.28417337256E+04  0.28417337256E+04  0.50400000000E-02 0. -1.
    8880022    1    1    2    0    0 -0.47198522501E+03  0.38348164653E+03 -0.19708005337E+04  0.20681573012E+04  0.15294330000E+03 0.  0.
    8880022    1    1    2    0    0  0.47198522501E+03 -0.38348164653E+03 -0.70269944803E+03  0.94181016831E+03  0.15294330000E+03 0.  0.
<mgrwt>
<rscale>  0 0.62707247E+03</rscale>
<asrwt>0</asrwt>
<pdfrwt beam="1">  1        1 0.43718977E+00 0.62707247E+03</pdfrwt>
<pdfrwt beam="2">  1       -1 0.25882117E-01 0.62707247E+03</pdfrwt>
<totfact> 0.11108349E+01</totfact>
</mgrwt>
</event>
<event>
 4    1  0.1678003E-008  0.2359719E+03  0.7818608E-02  0.1122506E+00
          1   -1    0    0  501    0  0.00000000000E+00  0.00000000000E+00  0.21061109798E+04  0.21061109798E+04  0.50400000000E-02 0. -1.
         -1   -1    0    0    0  501 -0.00000000000E+00 -0.00000000000E+00 -0.68726973458E+02  0.68726973643E+02  0.50400000000E-02 0.  1.
    8880022    1    1    2    0    0 -0.64170612182E+02 -0.16784876171E+03  0.18716812205E+04  0.18864976327E+04  0.15294330000E+03 0. -1.
    8880022    1    1    2    0    0  0.64170612182E+02  0.16784876171E+03  0.16570278584E+03  0.28834032067E+03  0.15294330000E+03 0.  0.
<mgrwt>
<rscale>  0 0.23597188E+03</rscale>
<asrwt>0</asrwt>
<pdfrwt beam="1">  1        1 0.32401703E+00 0.23597188E+03</pdfrwt>
<pdfrwt beam="2">  1       -1 0.10573382E-01 0.23597188E+03</pdfrwt>
<totfact> 0.16272967E+02</totfact>
</mgrwt>
</event>
<event>
 4    1  0.1678003E-008  0.4970598E+03  0.7818608E-02  0.1014549E+00
         -1   -1    0    0    0  501 -0.00000000000E+00  0.00000000000E+00  0.67557484488E+03  0.67557484489E+03  0.50400000000E-02 0.  1.
          1   -1    0    0  501    0  0.00000000000E+00 -0.00000000000E+00 -0.99976464569E+03  0.99976464570E+03  0.50400000000E-02 0. -1.
    8880022    1    1    2    0    0 -0.38201884314E+03 -0.27881614383E+03  0.50499636103E+03  0.70858296355E+03  0.15294330000E+03 0.  0.
    8880022    1    1    2    0    0  0.38201884314E+03  0.27881614383E+03 -0.82918616184E+03  0.96675652704E+03  0.15294330000E+03 0.  0.
<mgrwt>
<rscale>  0 0.49705985E+03</rscale>
<asrwt>0</asrwt>
<pdfrwt beam="1">  1        1 0.15380995E+00 0.49705985E+03</pdfrwt>
<pdfrwt beam="2">  1       -1 0.10393459E+00 0.49705985E+03</pdfrwt>
<totfact> 0.14170488E+01</totfact>
</mgrwt>
</event>
<event>
 4    1  0.1678003E-008  0.3545256E+03  0.7818608E-02  0.1060773E+00
          1   -1    0    0  501    0  0.00000000000E+00  0.00000000000E+00  0.98298698558E+03  0.98298698559E+03  0.50400000000E-02 0. -1.
         -1   -1    0    0    0  501 -0.00000000000E+00 -0.00000000000E+00 -0.28744068719E+03  0.28744068724E+03  0.50400000000E-02 0.  1.
    8880022    1    1    2    0    0 -0.17877312936E+03  0.26521108641E+03 -0.12552072858E+03  0.37609022649E+03  0.15294330000E+03 0.  0.
    8880022    1    1    2    0    0  0.17877312936E+03 -0.26521108641E+03  0.82106702697E+03  0.89433744634E+03  0.15294330000E+03 0.  0.
<mgrwt>
<rscale>  0 0.35452561E+03</rscale>
<asrwt>0</asrwt>
<pdfrwt beam="1">  1        1 0.15122877E+00 0.35452561E+03</pdfrwt>
<pdfrwt beam="2">  1       -1 0.44221644E-01 0.35452561E+03</pdfrwt>
<totfact> 0.84556083E+01</totfact>
</mgrwt>
</event>
<event>
 4    1  0.1678003E-008  0.6707627E+03  0.7818608E-02  0.9768581E-01
         -1   -1    0    0    0  501 -0.00000000000E+00  0.00000000000E+00  0.49324757416E+03  0.49324757418E+03  0.50400000000E-02 0.  1.
          1   -1    0    0  501    0  0.00000000000E+00 -0.00000000000E+00 -0.94274943476E+03  0.94274943478E+03  0.50400000000E-02 0. -1.
    8880022    1    1    2    0    0 -0.62463318783E+03 -0.19069431349E+03 -0.35407637384E+03  0.75848050210E+03  0.15294330000E+03 0.  0.
    8880022    1    1    2    0    0  0.62463318783E+03  0.19069431349E+03 -0.95425486762E+02  0.67751650686E+03  0.15294330000E+03 0.  0.
<mgrwt>
<rscale>  0 0.67076270E+03</rscale>
<asrwt>0</asrwt>
<pdfrwt beam="1">  1        1 0.14503837E+00 0.67076270E+03</pdfrwt>
<pdfrwt beam="2">  1       -1 0.75884242E-01 0.67076270E+03</pdfrwt>
<totfact> 0.30359343E+01</totfact>
</mgrwt>
</event>
<event>
 4    1  0.1678003E-008  0.3940444E+03  0.7818608E-02  0.1045862E+00
         -1   -1    0    0    0  501 -0.00000000000E+00  0.00000000000E+00  0.24600234586E+03  0.24600234592E+03  0.50400000000E-02 0.  1.
          1   -1    0    0  501    0  0.00000000000E+00 -0.00000000000E+00 -0.63123903674E+03  0.63123903676E+03  0.50400000000E-02 0. -1.
    8880022    1    1    2    0    0 -0.19514433197E+03 -0.30626461773E+03 -0.19697278111E+03  0.44053292259E+03  0.15294330000E+03 0.  1.
    8880022    1    1    2    0    0  0.19514433197E+03  0.30626461773E+03 -0.18826390977E+03  0.43670846009E+03  0.15294330000E+03 0. -1.
<mgrwt>
<rscale>  0 0.39404439E+03</rscale>
<asrwt>0</asrwt>
<pdfrwt beam="1">  1        1 0.97113697E-01 0.39404439E+03</pdfrwt>
<pdfrwt beam="2">  1       -1 0.37846515E-01 0.39404439E+03</pdfrwt>
<totfact> 0.22227642E+02</totfact>
</mgrwt>
</event>
<event>
 4    1  0.1678003E-008  0.7482173E+03  0.7818608E-02  0.9638151E-01
          1   -1    0    0  501    0  0.00000000000E+00  0.00000000000E+00  0.13277751813E+04  0.13277751813E+04  0.50400000000E-02 0. -1.
         -1   -1    0    0    0  501 -0.00000000000E+00 -0.00000000000E+00 -0.47525348147E+03  0.47525348150E+03  0.50400000000E-02 0.  1.
    8880022    1    1    2    0    0 -0.24363569630E+03  0.69070909296E+03  0.12343712040E+03  0.75833091676E+03  0.15294330000E+03 0.  0.
    8880022    1    1    2    0    0  0.24363569630E+03 -0.69070909296E+03  0.72908457941E+03  0.10446977460E+04  0.15294330000E+03 0.  0.
<mgrwt>
<rscale>  0 0.74821725E+03</rscale>
<asrwt>0</asrwt>
<pdfrwt beam="1">  1        1 0.20427310E+00 0.74821725E+03</pdfrwt>
<pdfrwt beam="2">  1       -1 0.73115921E-01 0.74821725E+03</pdfrwt>
<totfact> 0.16843755E+01</totfact>
</mgrwt>
</event>
<event>
 4    1  0.1678003E-008  0.6130730E+03  0.7818608E-02  0.9878649E-01
          1   -1    0    0  501    0  0.00000000000E+00  0.00000000000E+00  0.72690570497E+03  0.72690570499E+03  0.50400000000E-02 0. -1.
         -1   -1    0    0    0  501 -0.00000000000E+00 -0.00000000000E+00 -0.10874069225E+04  0.10874069225E+04  0.50400000000E-02 0.  1.
    8880022    1    1    2    0    0 -0.48591941506E+02 -0.59169728020E+03 -0.83723220381E+03  0.10376975784E+04  0.15294330000E+03 0.  0.
    8880022    1    1    2    0    0  0.48591941506E+02  0.59169728020E+03  0.47673098627E+03  0.77661504908E+03  0.15294330000E+03 0.  0.
<mgrwt>
<rscale>  0 0.61307300E+03</rscale>
<asrwt>0</asrwt>
<pdfrwt beam="1">  1        1 0.11183165E+00 0.61307300E+03</pdfrwt>
<pdfrwt beam="2">  1       -1 0.16729337E+00 0.61307300E+03</pdfrwt>
<totfact> 0.69939386E+00</totfact>
</mgrwt>
</event>
<event>
 4    1  0.1678003E-008  0.6513976E+03  0.7818608E-02  0.9804160E-01
         -1   -1    0    0    0  501 -0.00000000000E+00  0.00000000000E+00  0.71596901906E+03  0.71596901908E+03  0.50400000000E-02 0.  1.
          1   -1    0    0  501    0  0.00000000000E+00 -0.00000000000E+00 -0.17036200418E+04  0.17036200418E+04  0.50400000000E-02 0. -1.
    8880022    1    1    2    0    0 -0.80239562187E+02  0.62808343747E+03 -0.14707848159E+04  0.16085791306E+04  0.15294330000E+03 0.  0.
    8880022    1    1    2    0    0  0.80239562187E+02 -0.62808343747E+03  0.48313379321E+03  0.81100993023E+03  0.15294330000E+03 0.  0.
<mgrwt>
<rscale>  0 0.65139761E+03</rscale>
<asrwt>0</asrwt>
<pdfrwt beam="1">  1        1 0.26209539E+00 0.65139761E+03</pdfrwt>
<pdfrwt beam="2">  1       -1 0.11014908E+00 0.65139761E+03</pdfrwt>
<totfact> 0.38441391E+00</totfact>
</mgrwt>
</event>
<event>
 4    1  0.1678003E-008  0.5012126E+03  0.7818608E-02  0.1013463E+00
          1   -1    0    0  501    0  0.00000000000E+00  0.00000000000E+00  0.48857185357E+03  0.48857185360E+03  0.50400000000E-02 0. -1.
         -1   -1    0    0    0  501 -0.00000000000E+00 -0.00000000000E+00 -0.77853694514E+03  0.77853694515E+03  0.50400000000E-02 0.  1.
    8880022    1    1    2    0    0 -0.40146115904E+03 -0.25816924706E+03  0.22419843927E+03  0.54907104780E+03  0.15294330000E+03 0.  0.
    8880022    1    1    2    0    0  0.40146115904E+03  0.25816924706E+03 -0.51416353083E+03  0.71803775095E+03  0.15294330000E+03 0.  0.
<mgrwt>
<rscale>  0 0.50121260E+03</rscale>
<asrwt>0</asrwt>
<pdfrwt beam="1">  1        1 0.75164901E-01 0.50121260E+03</pdfrwt>
<pdfrwt beam="2">  1       -1 0.11977491E+00 0.50121260E+03</pdfrwt>
<totfact> 0.30012152E+01</totfact>
</mgrwt>
</event>
<event>
 4    1  0.1678003E-008  0.8136929E+03  0.7818608E-02  0.9540406E-01
         -1   -1    0    0    0  501 -0.00000000000E+00  0.00000000000E+00  0.10387947684E+04  0.10387947684E+04  0.50400000000E-02 0.  1.
          1   -1    0    0  501    0  0.00000000000E+00 -0.00000000000E+00 -0.10968321396E+04  0.10968321396E+04  0.50400000000E-02 0. -1.
    8880022    1    1    2    0    0  0.79863767187E+03 -0.29704617809E+02 -0.72013379099E+03  0.10865950604E+04  0.15294330000E+03 0.  0.
    8880022    1    1    2    0    0 -0.79863767187E+03  0.29704617809E+02  0.66209641981E+03  0.10490318477E+04  0.15294330000E+03 0.  0.
<mgrwt>
<rscale>  0 0.81369291E+03</rscale>
<asrwt>0</asrwt>
<pdfrwt beam="1">  1        1 0.16874341E+00 0.81369291E+03</pdfrwt>
<pdfrwt beam="2">  1       -1 0.15981458E+00 0.81369291E+03</pdfrwt>
<totfact> 0.38447764E+00</totfact>
</mgrwt>
</event>
<event>
 4    1  0.1678003E-008  0.1057117E+04  0.7818608E-02  0.9248027E-01
         -1   -1    0    0    0  501 -0.00000000000E+00  0.00000000000E+00  0.13086863345E+04  0.13086863345E+04  0.50400000000E-02 0.  1.
          1   -1    0    0  501    0  0.00000000000E+00 -0.00000000000E+00 -0.13532389711E+04  0.13532389711E+04  0.50400000000E-02 0. -1.
    8880022    1    1    2    0    0  0.55356931398E+03 -0.88750566743E+03  0.78621085304E+03  0.13174310052E+04  0.15294330000E+03 0.  0.
    8880022    1    1    2    0    0 -0.55356931398E+03  0.88750566743E+03 -0.83076348958E+03  0.13444943004E+04  0.15294330000E+03 0.  0.
<mgrwt>
<rscale>  0 0.10571173E+04</rscale>
<asrwt>0</asrwt>
<pdfrwt beam="1">  1        1 0.20819061E+00 0.10571173E+04</pdfrwt>
<pdfrwt beam="2">  1       -1 0.20133636E+00 0.10571173E+04</pdfrwt>
<totfact> 0.12189307E+00</totfact>
</mgrwt>
</event>
<event>
 4    1  0.1678003E-008  0.5907391E+03  0.7818608E-02  0.9924808E-01
         -1   -1    0    0    0  501 -0.00000000000E+00  0.00000000000E+00  0.59345033473E+03  0.59345033475E+03  0.50400000000E-02 0.  1.
          1   -1    0    0  501    0  0.00000000000E+00 -0.00000000000E+00 -0.10248034119E+04  0.10248034119E+04  0.50400000000E-02 0. -1.
    8880022    1    1    2    0    0  0.46454182058E+03  0.33133357092E+03 -0.74390200841E+03  0.94992783379E+03  0.15294330000E+03 0.  0.
    8880022    1    1    2    0    0 -0.46454182058E+03 -0.33133357092E+03  0.31254893129E+03  0.66832591282E+03  0.15294330000E+03 0.  0.
<mgrwt>
<rscale>  0 0.59073911E+03</rscale>
<asrwt>0</asrwt>
<pdfrwt beam="1">  1        1 0.15766206E+00 0.59073911E+03</pdfrwt>
<pdfrwt beam="2">  1       -1 0.91300051E-01 0.59073911E+03</pdfrwt>
<totfact> 0.17840001E+01</totfact>
</mgrwt>
</event>
<event>
 4    1  0.1678003E-008  0.2401101E+03  0.7818608E-02  0.1119720E+00
         -1   -1    0    0    0  501 -0.00000000000E+00  0.00000000000E+00  0.27573442181E+03  0.27573442186E+03  0.50400000000E-02 0.  1.
          1   -1    0    0  501    0  0.00000000000E+00 -0.00000000000E+00 -0.18229941269E+04  0.18229941269E+04  0.50400000000E-02 0. -1.
    8880022    1    1    2    0    0 -0.18077346500E+03  0.39776134067E+02 -0.17609835016E+04  0.17772776183E+04  0.15294330000E+03 0.  0.
    8880022    1    1    2    0    0  0.18077346500E+03 -0.39776134067E+02  0.21372379652E+03  0.32145093048E+03  0.15294330000E+03 0.  0.
<mgrwt>
<rscale>  0 0.24011006E+03</rscale>
<asrwt>0</asrwt>
<pdfrwt beam="1">  1        1 0.28046063E+00 0.24011006E+03</pdfrwt>
<pdfrwt beam="2">  1       -1 0.42420681E-01 0.24011006E+03</pdfrwt>
<totfact> 0.25091324E+01</totfact>
</mgrwt>
</event>
<event>
 4    1  0.1678003E-008  0.6460970E+03  0.7818608E-02  0.9814130E-01
          1   -1    0    0  501    0  0.00000000000E+00  0.00000000000E+00  0.60260090589E+03  0.60260090591E+03  0.50400000000E-02 0. -1.
         -1   -1    0    0    0  501 -0.00000000000E+00 -0.00000000000E+00 -0.14523732154E+04  0.14523732154E+04  0.50400000000E-02 0.  1.
    8880022    1    1    2    0    0  0.52825066248E+03 -0.33911792831E+03 -0.11679759385E+04  0.13347693350E+04  0.15294330000E+03 0.  0.
    8880022    1    1    2    0    0 -0.52825066248E+03  0.33911792831E+03  0.31820362900E+03  0.72020478632E+03  0.15294330000E+03 0.  0.
<mgrwt>
<rscale>  0 0.64609704E+03</rscale>
<asrwt>0</asrwt>
<pdfrwt beam="1">  1        1 0.92707832E-01 0.64609704E+03</pdfrwt>
<pdfrwt beam="2">  1       -1 0.22344203E+00 0.64609704E+03</pdfrwt>
<totfact> 0.37571623E+00</totfact>
</mgrwt>
</event>
<event>
 4    1  0.1678003E-008  0.6888682E+03  0.7818608E-02  0.9736461E-01
          1   -1    0    0  501    0  0.00000000000E+00  0.00000000000E+00  0.80833641955E+03  0.80833641957E+03  0.50400000000E-02 0. -1.
         -1   -1    0    0    0  501 -0.00000000000E+00 -0.00000000000E+00 -0.68043819494E+03  0.68043819496E+03  0.50400000000E-02 0.  1.
    8880022    1    1    2    0    0  0.10420353652E+03  0.66354306184E+03  0.33971129033E+03  0.76807759096E+03  0.15294330000E+03 0.  0.
    8880022    1    1    2    0    0 -0.10420353652E+03 -0.66354306184E+03 -0.21181306572E+03  0.72069702356E+03  0.15294330000E+03 0.  0.
<mgrwt>
<rscale>  0 0.68886822E+03</rscale>
<asrwt>0</asrwt>
<pdfrwt beam="1">  1        1 0.12435945E+00 0.68886822E+03</pdfrwt>
<pdfrwt beam="2">  1       -1 0.10468280E+00 0.68886822E+03</pdfrwt>
<totfact> 0.19304089E+01</totfact>
</mgrwt>
</event>
<event>
 4    1  0.1678003E-008  0.1756602E+03  0.7818608E-02  0.1172070E+00
         -1   -1    0    0    0  501 -0.00000000000E+00  0.00000000000E+00  0.55559795748E+02  0.55559795976E+02  0.50400000000E-02 0.  1.
          1   -1    0    0  501    0  0.00000000000E+00 -0.00000000000E+00 -0.24810025726E+04  0.24810025726E+04  0.50400000000E-02 0. -1.
    8880022    1    1    2    0    0  0.38744570174E+01 -0.86312530837E+02 -0.23300684692E+04  0.23366804635E+04  0.15294330000E+03 0.  0.
    8880022    1    1    2    0    0 -0.38744570174E+01  0.86312530837E+02 -0.95374307646E+02  0.19988190506E+03  0.15294330000E+03 0.  1.
<mgrwt>
<rscale>  0 0.17566023E+03</rscale>
<asrwt>0</asrwt>
<pdfrwt beam="1">  1        1 0.38169262E+00 0.17566023E+03</pdfrwt>
<pdfrwt beam="2">  1       -1 0.85476628E-02 0.17566023E+03</pdfrwt>
<totfact> 0.13134833E+02</totfact>
</mgrwt>
</event>
<event>
 4    1  0.1678003E-008  0.4378234E+03  0.7818608E-02  0.1031417E+00
         -1   -1    0    0    0  501 -0.00000000000E+00  0.00000000000E+00  0.80536469240E+03  0.80536469241E+03  0.50400000000E-02 0.  1.
          1   -1    0    0  501    0  0.00000000000E+00 -0.00000000000E+00 -0.24124772623E+03  0.24124772628E+03  0.50400000000E-02 0. -1.
    8880022    1    1    2    0    0  0.22347911603E+03  0.34402724395E+03  0.34263055127E+03  0.55595414160E+03  0.15294330000E+03 0.  0.
    8880022    1    1    2    0    0 -0.22347911603E+03 -0.34402724395E+03  0.22148641490E+03  0.49065827709E+03  0.15294330000E+03 0.  0.
<mgrwt>
<rscale>  0 0.43782338E+03</rscale>
<asrwt>0</asrwt>
<pdfrwt beam="1">  1        1 0.37115035E-01 0.43782338E+03</pdfrwt>
<pdfrwt beam="2">  1       -1 0.12390226E+00 0.43782338E+03</pdfrwt>
<totfact> 0.69723711E+01</totfact>
</mgrwt>
</event>
<event>
 4    1  0.1678003E-008  0.6532459E+03  0.7818608E-02  0.9800707E-01
         -1   -1    0    0    0  501 -0.00000000000E+00  0.00000000000E+00  0.72798135558E+03  0.72798135560E+03  0.50400000000E-02 0.  1.
          1   -1    0    0  501    0  0.00000000000E+00 -0.00000000000E+00 -0.15268132541E+04  0.15268132541E+04  0.50400000000E-02 0. -1.
    8880022    1    1    2    0    0 -0.35219041396E+03  0.52848883544E+03  0.48548270875E+03  0.81389412726E+03  0.15294330000E+03 0.  0.
    8880022    1    1    2    0    0  0.35219041396E+03 -0.52848883544E+03 -0.12843146073E+04  0.14409004825E+04  0.15294330000E+03 0.  0.
<mgrwt>
<rscale>  0 0.65324589E+03</rscale>
<asrwt>0</asrwt>
<pdfrwt beam="1">  1        1 0.23489435E+00 0.65324589E+03</pdfrwt>
<pdfrwt beam="2">  1       -1 0.11199713E+00 0.65324589E+03</pdfrwt>
<totfact> 0.48627545E+00</totfact>
</mgrwt>
</event>
<event>
 4    1  0.1678003E-008  0.6055570E+03  0.7818608E-02  0.9893944E-01
          1   -1    0    0  501    0  0.00000000000E+00  0.00000000000E+00  0.11336044255E+04  0.11336044255E+04  0.50400000000E-02 0. -1.
         -1   -1    0    0    0  501 -0.00000000000E+00 -0.00000000000E+00 -0.51018037917E+03  0.51018037920E+03  0.50400000000E-02 0.  1.
    8880022    1    1    2    0    0  0.58588060791E+03  0.71821222414E+01 -0.18548062884E+03  0.63332644528E+03  0.15294330000E+03 0.  0.
    8880022    1    1    2    0    0 -0.58588060791E+03 -0.71821222414E+01  0.80890467513E+03  0.10104583594E+04  0.15294330000E+03 0. -1.
<mgrwt>
<rscale>  0 0.60555703E+03</rscale>
<asrwt>0</asrwt>
<pdfrwt beam="1">  1        1 0.17440068E+00 0.60555703E+03</pdfrwt>
<pdfrwt beam="2">  1       -1 0.78489290E-01 0.60555703E+03</pdfrwt>
<totfact> 0.20430090E+01</totfact>
</mgrwt>
</event>
<event>
 4    1  0.1678003E-008  0.7292141E+03  0.7818608E-02  0.9668537E-01
         -1   -1    0    0    0  501 -0.00000000000E+00  0.00000000000E+00  0.32101286369E+04  0.32101286369E+04  0.50400000000E-02 0.  1.
          1   -1    0    0  501    0  0.00000000000E+00 -0.00000000000E+00 -0.38536702946E+03  0.38536702949E+03  0.50400000000E-02 0. -1.
    8880022    1    1    2    0    0  0.28747627626E+03 -0.65247136029E+03  0.27698337784E+04  0.28642158261E+04  0.15294330000E+03 0.  0.
    8880022    1    1    2    0    0 -0.28747627626E+03  0.65247136029E+03  0.54927829034E+02  0.73127984030E+03  0.15294330000E+03 0.  0.
<mgrwt>
<rscale>  0 0.72921406E+03</rscale>
<asrwt>0</asrwt>
<pdfrwt beam="1">  1        1 0.59287233E-01 0.72921406E+03</pdfrwt>
<pdfrwt beam="2">  1       -1 0.49386597E+00 0.72921406E+03</pdfrwt>
<totfact> 0.11046334E-01</totfact>
</mgrwt>
</event>
<event>
 4    1  0.1678003E-008  0.2340439E+03  0.7818608E-02  0.1123825E+00
          1   -1    0    0  501    0  0.00000000000E+00  0.00000000000E+00  0.73249323476E+03  0.73249323478E+03  0.50400000000E-02 0. -1.
         -1   -1    0    0    0  501 -0.00000000000E+00 -0.00000000000E+00 -0.36604873084E+03  0.36604873088E+03  0.50400000000E-02 0.  1.
    8880022    1    1    2    0    0 -0.16230842094E+03 -0.70999064928E+02  0.67318540798E+03  0.71270971458E+03  0.15294330000E+03 0.  0.
    8880022    1    1    2    0    0  0.16230842094E+03  0.70999064928E+02 -0.30674090406E+03  0.38583225107E+03  0.15294330000E+03 0.  1.
<mgrwt>
<rscale>  0 0.23404389E+03</rscale>
<asrwt>0</asrwt>
<pdfrwt beam="1">  1        1 0.11269127E+00 0.23404389E+03</pdfrwt>
<pdfrwt beam="2">  1       -1 0.56315190E-01 0.23404389E+03</pdfrwt>
<totfact> 0.88466711E+01</totfact>
</mgrwt>
</event>
<event>
 4    1  0.1678003E-008  0.5862798E+03  0.7818608E-02  0.9934287E-01
          1   -1    0    0  501    0  0.00000000000E+00  0.00000000000E+00  0.14090660574E+04  0.14090660574E+04  0.50400000000E-02 0. -1.
         -1   -1    0    0    0  501 -0.00000000000E+00 -0.00000000000E+00 -0.47443843761E+03  0.47443843764E+03  0.50400000000E-02 0.  1.
    8880022    1    1    2    0    0  0.35278167696E+03 -0.44258044316E+03 -0.18910815599E+03  0.61602427545E+03  0.15294330000E+03 0.  0.
    8880022    1    1    2    0    0 -0.35278167696E+03  0.44258044316E+03  0.11237357757E+04  0.12674802196E+04  0.15294330000E+03 0.  0.
<mgrwt>
<rscale>  0 0.58627981E+03</rscale>
<asrwt>0</asrwt>
<pdfrwt beam="1">  1        1 0.21677939E+00 0.58627981E+03</pdfrwt>
<pdfrwt beam="2">  1       -1 0.72990530E-01 0.58627981E+03</pdfrwt>
<totfact> 0.15213396E+01</totfact>
</mgrwt>
</event>
<event>
 4    1  0.1678003E-008  0.1932981E+03  0.7818608E-02  0.1155520E+00
          1   -1    0    0  501    0  0.00000000000E+00  0.00000000000E+00  0.78270813865E+03  0.78270813866E+03  0.50400000000E-02 0. -1.
         -1   -1    0    0    0  501 -0.00000000000E+00 -0.00000000000E+00 -0.31566583629E+03  0.31566583633E+03  0.50400000000E-02 0.  1.
    8880022    1    1    2    0    0 -0.95495144927E+02 -0.69664883263E+02 -0.27243880000E+03  0.33404651087E+03  0.15294330000E+03 0.  0.
    8880022    1    1    2    0    0  0.95495144927E+02  0.69664883263E+02  0.73948110235E+03  0.76432746413E+03  0.15294330000E+03 0. -1.
<mgrwt>
<rscale>  0 0.19329814E+03</rscale>
<asrwt>0</asrwt>
<pdfrwt beam="1">  1        1 0.12041663E+00 0.19329814E+03</pdfrwt>
<pdfrwt beam="2">  1       -1 0.48563976E-01 0.19329814E+03</pdfrwt>
<totfact> 0.10667932E+02</totfact>
</mgrwt>
</event>
<event>
 4    1  0.1678003E-008  0.2289597E+03  0.7818608E-02  0.1127374E+00
          1   -1    0    0  501    0  0.00000000000E+00  0.00000000000E+00  0.14727081161E+04  0.14727081161E+04  0.50400000000E-02 0. -1.
         -1   -1    0    0    0  501 -0.00000000000E+00 -0.00000000000E+00 -0.28779863749E+03  0.28779863753E+03  0.50400000000E-02 0.  1.
    8880022    1    1    2    0    0 -0.79959240148E+02  0.15045741383E+03 -0.23156595143E+03  0.32564605991E+03  0.15294330000E+03 0.  0.
    8880022    1    1    2    0    0  0.79959240148E+02 -0.15045741383E+03  0.14164754301E+04  0.14348606937E+04  0.15294330000E+03 0.  0.
<mgrwt>
<rscale>  0 0.22895975E+03</rscale>
<asrwt>0</asrwt>
<pdfrwt beam="1">  1        1 0.22657048E+00 0.22895975E+03</pdfrwt>
<pdfrwt beam="2">  1       -1 0.44276714E-01 0.22895975E+03</pdfrwt>
<totfact> 0.39526740E+01</totfact>
</mgrwt>
</event>
<event>
 4    1  0.1678003E-008  0.4563220E+03  0.7818608E-02  0.1025853E+00
          1   -1    0    0  501    0  0.00000000000E+00  0.00000000000E+00  0.10460237994E+04  0.10460237994E+04  0.50400000000E-02 0. -1.
         -1   -1    0    0    0  501 -0.00000000000E+00 -0.00000000000E+00 -0.44769528015E+03  0.44769528018E+03  0.50400000000E-02 0.  1.
    8880022    1    1    2    0    0  0.42986096436E+03  0.75948457396E+01 -0.25740873867E+03  0.52391701836E+03  0.15294330000E+03 0. -1.
    8880022    1    1    2    0    0 -0.42986096436E+03 -0.75948457396E+01  0.85573725788E+03  0.96980206120E+03  0.15294330000E+03 0.  0.
<mgrwt>
<rscale>  0 0.45632202E+03</rscale>
<asrwt>0</asrwt>
<pdfrwt beam="1">  1        1 0.16092674E+00 0.45632202E+03</pdfrwt>
<pdfrwt beam="2">  1       -1 0.68876198E-01 0.45632202E+03</pdfrwt>
<totfact> 0.31844790E+01</totfact>
</mgrwt>
</event>
<event>
 4    1  0.1678003E-008  0.4345104E+03  0.7818608E-02  0.1032445E+00
         -1   -1    0    0    0  501 -0.00000000000E+00  0.00000000000E+00  0.23417883605E+03  0.23417883611E+03  0.50400000000E-02 0.  1.
          1   -1    0    0  501    0  0.00000000000E+00 -0.00000000000E+00 -0.19795400748E+04  0.19795400748E+04  0.50400000000E-02 0. -1.
    8880022    1    1    2    0    0  0.40029915090E+03 -0.71890609810E+02 -0.20525125564E+02  0.43499494685E+03  0.15294330000E+03 0.  1.
    8880022    1    1    2    0    0 -0.40029915090E+03  0.71890609810E+02 -0.17248361132E+04  0.17787239641E+04  0.15294330000E+03 0.  0.
<mgrwt>
<rscale>  0 0.43451044E+03</rscale>
<asrwt>0</asrwt>
<pdfrwt beam="1">  1        1 0.30454462E+00 0.43451044E+03</pdfrwt>
<pdfrwt beam="2">  1       -1 0.36027515E-01 0.43451044E+03</pdfrwt>
<totfact> 0.24918468E+01</totfact>
</mgrwt>
</event>
<event>
 4    1  0.1678003E-008  0.6506465E+03  0.7818608E-02  0.9805567E-01
         -1   -1    0    0    0  501 -0.00000000000E+00  0.00000000000E+00  0.18008996477E+03  0.18008996485E+03  0.50400000000E-02 0.  1.
          1   -1    0    0  501    0  0.00000000000E+00 -0.00000000000E+00 -0.27009431868E+04  0.27009431868E+04  0.50400000000E-02 0. -1.
    8880022    1    1    2    0    0  0.33308285179E+03  0.53759187562E+03 -0.17791474963E+04  0.18943882067E+04  0.15294330000E+03 0.  0.
    8880022    1    1    2    0    0 -0.33308285179E+03 -0.53759187562E+03 -0.74170572570E+03  0.98664494497E+03  0.15294330000E+03 0.  1.
<mgrwt>
<rscale>  0 0.65064650E+03</rscale>
<asrwt>0</asrwt>
<pdfrwt beam="1">  1        1 0.41552969E+00 0.65064650E+03</pdfrwt>
<pdfrwt beam="2">  1       -1 0.27706150E-01 0.65064650E+03</pdfrwt>
<totfact> 0.12332940E+01</totfact>
</mgrwt>
</event>
<event>
 4    1  0.1678003E-008  0.2160105E+03  0.7818608E-02  0.1136893E+00
          1   -1    0    0  501    0  0.00000000000E+00  0.00000000000E+00  0.74212126813E+03  0.74212126815E+03  0.50400000000E-02 0. -1.
         -1   -1    0    0    0  501 -0.00000000000E+00 -0.00000000000E+00 -0.99673586288E+02  0.99673586415E+02  0.50400000000E-02 0.  1.
    8880022    1    1    2    0    0 -0.78588617014E+02 -0.13073903757E+03  0.65480332036E+02  0.22571706530E+03  0.15294330000E+03 0.  1.
    8880022    1    1    2    0    0  0.78588617014E+02  0.13073903757E+03  0.57696734981E+03  0.61607778927E+03  0.15294330000E+03 0.  0.
<mgrwt>
<rscale>  0 0.21601046E+03</rscale>
<asrwt>0</asrwt>
<pdfrwt beam="1">  1        1 0.11417251E+00 0.21601046E+03</pdfrwt>
<pdfrwt beam="2">  1       -1 0.15334397E-01 0.21601046E+03</pdfrwt>
<totfact> 0.80537343E+02</totfact>
</mgrwt>
</event>
<event>
 4    1  0.1678003E-008  0.7149429E+03  0.7818608E-02  0.9692014E-01
         -1   -1    0    0    0  501 -0.00000000000E+00  0.00000000000E+00  0.29462108453E+04  0.29462108454E+04  0.50400000000E-02 0.  1.
          1   -1    0    0  501    0  0.00000000000E+00 -0.00000000000E+00 -0.31223643949E+03  0.31223643953E+03  0.50400000000E-02 0. -1.
    8880022    1    1    2    0    0 -0.16919360235E+03  0.67758774694E+03  0.23094402608E+03  0.75131779300E+03  0.15294330000E+03 0.  0.
    8880022    1    1    2    0    0  0.16919360235E+03 -0.67758774694E+03  0.24030303798E+04  0.25071294919E+04  0.15294330000E+03 0.  0.
<mgrwt>
<rscale>  0 0.71494285E+03</rscale>
<asrwt>0</asrwt>
<pdfrwt beam="1">  1        1 0.48036377E-01 0.71494285E+03</pdfrwt>
<pdfrwt beam="2">  1       -1 0.45326319E+00 0.71494285E+03</pdfrwt>
<totfact> 0.27605886E-01</totfact>
</mgrwt>
</event>
<event>
 4    1  0.2696759E-008  0.7018093E+03  0.7818608E-02  0.9714143E-01
          1   -1    0    0  501    0  0.00000000000E+00  0.00000000000E+00  0.14705642015E+04  0.14705642015E+04  0.50400000000E-02 0. -1.
         -1   -1    0    0    0  501 -0.00000000000E+00 -0.00000000000E+00 -0.19839213632E+04  0.19839213632E+04  0.50400000000E-02 0.  1.
    8880022    1    1    2    0    0 -0.51525575649E+03  0.45128274837E+03  0.13180305012E+04  0.14932316192E+04  0.15294330000E+03 0.  0.
    8880022    1    1    2    0    0  0.51525575649E+03 -0.45128274837E+03 -0.18313876630E+04  0.19612539455E+04  0.15294330000E+03 0.  0.
<mgrwt>
<rscale>  0 0.70180928E+03</rscale>
<asrwt>0</asrwt>
<pdfrwt beam="1">  1        1 0.22624065E+00 0.70180928E+03</pdfrwt>
<pdfrwt beam="2">  1       -1 0.30521867E+00 0.70180928E+03</pdfrwt>
<totfact> 0.22755528E-01</totfact>
</mgrwt>
</event>
<event>
 4    1  0.1678003E-008  0.5938769E+03  0.7818608E-02  0.9918192E-01
          1   -1    0    0  501    0  0.00000000000E+00  0.00000000000E+00  0.36967936904E+03  0.36967936907E+03  0.50400000000E-02 0. -1.
         -1   -1    0    0    0  501 -0.00000000000E+00 -0.00000000000E+00 -0.15544098968E+04  0.15544098968E+04  0.50400000000E-02 0.  1.
    8880022    1    1    2    0    0 -0.13820883565E+03  0.55695282703E+03  0.55243872849E+01  0.59390260620E+03  0.15294330000E+03 0.  0.
    8880022    1    1    2    0    0  0.13820883565E+03 -0.55695282703E+03 -0.11902549151E+04  0.13301866597E+04  0.15294330000E+03 0.  0.
<mgrwt>
<rscale>  0 0.59387691E+03</rscale>
<asrwt>0</asrwt>
<pdfrwt beam="1">  1        1 0.56873750E-01 0.59387691E+03</pdfrwt>
<pdfrwt beam="2">  1       -1 0.23913998E+00 0.59387691E+03</pdfrwt>
<totfact> 0.58175115E+00</totfact>
</mgrwt>
</event>
<event>
 4    1  0.1678003E-008  0.2632263E+03  0.7818608E-02  0.1105220E+00
          1   -1    0    0  501    0  0.00000000000E+00  0.00000000000E+00  0.30863241221E+03  0.30863241225E+03  0.50400000000E-02 0. -1.
         -1   -1    0    0    0  501 -0.00000000000E+00 -0.00000000000E+00 -0.28813491019E+03  0.28813491023E+03  0.50400000000E-02 0.  1.
    8880022    1    1    2    0    0 -0.14076188177E+03  0.16150085694E+03 -0.12997564992E+03  0.29356729507E+03  0.15294330000E+03 0.  0.
    8880022    1    1    2    0    0  0.14076188177E+03 -0.16150085694E+03  0.15047315194E+03  0.30320002741E+03  0.15294330000E+03 0.  0.
<mgrwt>
<rscale>  0 0.26322630E+03</rscale>
<asrwt>0</asrwt>
<pdfrwt beam="1">  1        1 0.47481910E-01 0.26322630E+03</pdfrwt>
<pdfrwt beam="2">  1       -1 0.44328448E-01 0.26322630E+03</pdfrwt>
<totfact> 0.43589716E+02</totfact>
</mgrwt>
</event>
<event>
 4    1  0.1678003E-008  0.9077173E+03  0.7818608E-02  0.9415985E-01
         -1   -1    0    0    0  501 -0.00000000000E+00  0.00000000000E+00  0.73995925876E+03  0.73995925877E+03  0.50400000000E-02 0.  1.
          1   -1    0    0  501    0  0.00000000000E+00 -0.00000000000E+00 -0.21889044567E+04  0.21889044567E+04  0.50400000000E-02 0. -1.
    8880022    1    1    2    0    0  0.58591185125E+03 -0.67621475688E+03  0.30198263398E+03  0.95663172596E+03  0.15294330000E+03 0.  0.
    8880022    1    1    2    0    0 -0.58591185125E+03  0.67621475688E+03 -0.17509278320E+04  0.19722319895E+04  0.15294330000E+03 0.  0.
<mgrwt>
<rscale>  0 0.90771733E+03</rscale>
<asrwt>0</asrwt>
<pdfrwt beam="1">  1        1 0.33675453E+00 0.90771733E+03</pdfrwt>
<pdfrwt beam="2">  1       -1 0.11383989E+00 0.90771733E+03</pdfrwt>
<totfact> 0.16036312E+00</totfact>
</mgrwt>
</event>
<event>
 4    1  0.1678003E-008  0.4373722E+03  0.7818608E-02  0.1031556E+00
          1   -1    0    0  501    0  0.00000000000E+00  0.00000000000E+00  0.14035467671E+04  0.14035467671E+04  0.50400000000E-02 0. -1.
         -1   -1    0    0    0  501 -0.00000000000E+00 -0.00000000000E+00 -0.21557537974E+03  0.21557537980E+03  0.50400000000E-02 0.  1.
    8880022    1    1    2    0    0 -0.36085600657E+03  0.19412808544E+03  0.10849351320E+04  0.11697771859E+04  0.15294330000E+03 0.  0.
    8880022    1    1    2    0    0  0.36085600657E+03 -0.19412808544E+03  0.10303625537E+03  0.44934496099E+03  0.15294330000E+03 0.  0.
<mgrwt>
<rscale>  0 0.43737218E+03</rscale>
<asrwt>0</asrwt>
<pdfrwt beam="1">  1        1 0.21593026E+00 0.43737218E+03</pdfrwt>
<pdfrwt beam="2">  1       -1 0.33165444E-01 0.43737218E+03</pdfrwt>
<totfact> 0.69651181E+01</totfact>
</mgrwt>
</event>
<event>
 4    1  0.1678003E-008  0.3123430E+03  0.7818608E-02  0.1079228E+00
          1   -1    0    0  501    0  0.00000000000E+00  0.00000000000E+00  0.48705050830E+03  0.48705050832E+03  0.50400000000E-02 0. -1.
         -1   -1    0    0    0  501 -0.00000000000E+00 -0.00000000000E+00 -0.69962031844E+03  0.69962031846E+03  0.50400000000E-02 0.  1.
    8880022    1    1    2    0    0 -0.21053177402E+03  0.17275089519E+03  0.39496805936E+03  0.50354535108E+03  0.15294330000E+03 0.  0.
    8880022    1    1    2    0    0  0.21053177402E+03 -0.17275089519E+03 -0.60753786950E+03  0.68312547571E+03  0.15294330000E+03 0.  0.
<mgrwt>
<rscale>  0 0.31234300E+03</rscale>
<asrwt>0</asrwt>
<pdfrwt beam="1">  1        1 0.74930847E-01 0.31234300E+03</pdfrwt>
<pdfrwt beam="2">  1       -1 0.10763390E+00 0.31234300E+03</pdfrwt>
<totfact> 0.40081650E+01</totfact>
</mgrwt>
</event>
<event>
 4    1  0.1678003E-008  0.2351813E+03  0.7818608E-02  0.1123045E+00
         -1   -1    0    0    0  501 -0.00000000000E+00  0.00000000000E+00  0.15652703707E+03  0.15652703715E+03  0.50400000000E-02 0.  1.
          1   -1    0    0  501    0  0.00000000000E+00 -0.00000000000E+00 -0.11391636372E+04  0.11391636372E+04  0.50400000000E-02 0. -1.
    8880022    1    1    2    0    0  0.54844217258E+02 -0.17003141252E+03  0.46747762285E+02  0.23978235069E+03  0.15294330000E+03 0.  1.
    8880022    1    1    2    0    0 -0.54844217258E+02  0.17003141252E+03 -0.10293843624E+04  0.10559083236E+04  0.15294330000E+03 0.  0.
<mgrwt>
<rscale>  0 0.23518125E+03</rscale>
<asrwt>0</asrwt>
<pdfrwt beam="1">  1        1 0.17525594E+00 0.23518125E+03</pdfrwt>
<pdfrwt beam="2">  1       -1 0.24081083E-01 0.23518125E+03</pdfrwt>
<totfact> 0.19052313E+02</totfact>
</mgrwt>
</event>
<event>
 4    1  0.1678003E-008  0.6080427E+03  0.7818608E-02  0.9888859E-01
          1   -1    0    0  501    0  0.00000000000E+00  0.00000000000E+00  0.30267669934E+04  0.30267669934E+04  0.50400000000E-02 0. -1.
         -1   -1    0    0    0  501 -0.00000000000E+00 -0.00000000000E+00 -0.30866060064E+03  0.30866060068E+03  0.50400000000E-02 0.  1.
    8880022    1    1    2    0    0 -0.58846097264E+03  0.61586268463E+01  0.62667880827E+02  0.61126357760E+03  0.15294330000E+03 0.  0.
    8880022    1    1    2    0    0  0.58846097264E+03 -0.61586268463E+01  0.26554385119E+04  0.27241640165E+04  0.15294330000E+03 0.  0.
<mgrwt>
<rscale>  0 0.60804268E+03</rscale>
<asrwt>0</asrwt>
<pdfrwt beam="1">  1        1 0.46565646E+00 0.60804268E+03</pdfrwt>
<pdfrwt beam="2">  1       -1 0.47486246E-01 0.60804268E+03</pdfrwt>
<totfact> 0.28017466E+00</totfact>
</mgrwt>
</event>
<event>
 4    1  0.1678003E-008  0.6171437E+03  0.7818608E-02  0.9870463E-01
         -1   -1    0    0    0  501 -0.00000000000E+00  0.00000000000E+00  0.50029436286E+03  0.50029436288E+03  0.50400000000E-02 0.  1.
          1   -1    0    0  501    0  0.00000000000E+00 -0.00000000000E+00 -0.19158537769E+04  0.19158537769E+04  0.50400000000E-02 0. -1.
    8880022    1    1    2    0    0 -0.44066398955E+03  0.40409156399E+03 -0.16456059071E+04  0.17575224602E+04  0.15294330000E+03 0.  0.
    8880022    1    1    2    0    0  0.44066398955E+03 -0.40409156399E+03  0.23004649305E+03  0.65862567955E+03  0.15294330000E+03 0.  0.
<mgrwt>
<rscale>  0 0.61714374E+03</rscale>
<asrwt>0</asrwt>
<pdfrwt beam="1">  1        1 0.29474673E+00 0.61714374E+03</pdfrwt>
<pdfrwt beam="2">  1       -1 0.76968365E-01 0.61714374E+03</pdfrwt>
<totfact> 0.61794412E+00</totfact>
</mgrwt>
</event>
<event>
 4    1  0.1678003E-008  0.1012850E+04  0.7818608E-02  0.9294562E-01
         -1   -1    0    0    0  501 -0.00000000000E+00  0.00000000000E+00  0.15587352709E+04  0.15587352709E+04  0.50400000000E-02 0.  1.
          1   -1    0    0  501    0  0.00000000000E+00 -0.00000000000E+00 -0.87719449352E+03  0.87719449353E+03  0.50400000000E-02 0. -1.
    8880022    1    1    2    0    0  0.30373588330E+02  0.10007751404E+04  0.94941460575E+03  0.13882554459E+04  0.15294330000E+03 0.  0.
    8880022    1    1    2    0    0 -0.30373588330E+02 -0.10007751404E+04 -0.26787382841E+03  0.10476743185E+04  0.15294330000E+03 0.  0.
<mgrwt>
<rscale>  0 0.10128500E+04</rscale>
<asrwt>0</asrwt>
<pdfrwt beam="1">  1        1 0.13495300E+00 0.10128500E+04</pdfrwt>
<pdfrwt beam="2">  1       -1 0.23980542E+00 0.10128500E+04</pdfrwt>
<totfact> 0.15534352E+00</totfact>
</mgrwt>
</event>
<event>
 4    1  0.1678003E-008  0.2161870E+03  0.7818608E-02  0.1136758E+00
          1   -1    0    0  501    0  0.00000000000E+00  0.00000000000E+00  0.33497803653E+03  0.33497803657E+03  0.50400000000E-02 0. -1.
         -1   -1    0    0    0  501 -0.00000000000E+00 -0.00000000000E+00 -0.71388719475E+03  0.71388719477E+03  0.50400000000E-02 0.  1.
    8880022    1    1    2    0    0 -0.14627823753E+03 -0.44134486727E+02 -0.65985632937E+03  0.69436820500E+03  0.15294330000E+03 0.  0.
    8880022    1    1    2    0    0  0.14627823753E+03  0.44134486727E+02  0.28094717114E+03  0.35449702634E+03  0.15294330000E+03 0. -1.
<mgrwt>
<rscale>  0 0.21618702E+03</rscale>
<asrwt>0</asrwt>
<pdfrwt beam="1">  1        1 0.51535083E-01 0.21618702E+03</pdfrwt>
<pdfrwt beam="2">  1       -1 0.10982880E+00 0.21618702E+03</pdfrwt>
<totfact> 0.63477336E+01</totfact>
</mgrwt>
</event>
<event>
 4    1  0.1678003E-008  0.4849710E+03  0.7818608E-02  0.1017778E+00
         -1   -1    0    0    0  501 -0.00000000000E+00  0.00000000000E+00  0.70674897484E+03  0.70674897486E+03  0.50400000000E-02 0.  1.
          1   -1    0    0  501    0  0.00000000000E+00 -0.00000000000E+00 -0.51441785036E+03  0.51441785038E+03  0.50400000000E-02 0. -1.
    8880022    1    1    2    0    0 -0.22698483627E+03  0.40035367788E+03  0.45897773839E+03  0.66772554290E+03  0.15294330000E+03 0.  0.
    8880022    1    1    2    0    0  0.22698483627E+03 -0.40035367788E+03 -0.26664661390E+03  0.55344128235E+03  0.15294330000E+03 0.  0.
<mgrwt>
<rscale>  0 0.48497096E+03</rscale>
<asrwt>0</asrwt>
<pdfrwt beam="1">  1        1 0.79141208E-01 0.48497096E+03</pdfrwt>
<pdfrwt beam="2">  1       -1 0.10873061E+00 0.48497096E+03</pdfrwt>
<totfact> 0.35269431E+01</totfact>
</mgrwt>
</event>
<event>
 4    1  0.1678003E-008  0.1633020E+03  0.7818608E-02  0.1185019E+00
         -1   -1    0    0    0  501 -0.00000000000E+00  0.00000000000E+00  0.21790468932E+03  0.21790468937E+03  0.50400000000E-02 0.  1.
          1   -1    0    0  501    0  0.00000000000E+00 -0.00000000000E+00 -0.27730463379E+03  0.27730463383E+03  0.50400000000E-02 0. -1.
    8880022    1    1    2    0    0 -0.20700223923E+02 -0.53360838239E+02 -0.21477090173E+03  0.26980376493E+03  0.15294330000E+03 0. -1.
    8880022    1    1    2    0    0  0.20700223923E+02  0.53360838239E+02  0.15537095725E+03  0.22540555827E+03  0.15294330000E+03 0.  0.
<mgrwt>
<rscale>  0 0.16330196E+03</rscale>
<asrwt>0</asrwt>
<pdfrwt beam="1">  1        1 0.42662252E-01 0.16330196E+03</pdfrwt>
<pdfrwt beam="2">  1       -1 0.33523798E-01 0.16330196E+03</pdfrwt>
<totfact> 0.81578861E+02</totfact>
</mgrwt>
</event>
<event>
 4    1  0.1678003E-008  0.5972054E+03  0.7818608E-02  0.9911221E-01
          1   -1    0    0  501    0  0.00000000000E+00  0.00000000000E+00  0.14008643207E+04  0.14008643207E+04  0.50400000000E-02 0. -1.
         -1   -1    0    0    0  501 -0.00000000000E+00 -0.00000000000E+00 -0.38530795674E+03  0.38530795677E+03  0.50400000000E-02 0.  1.
    8880022    1    1    2    0    0 -0.56719549758E+03  0.10747955000E+03 -0.12394177570E+02  0.59733395584E+03  0.15294330000E+03 0.  0.
    8880022    1    1    2    0    0  0.56719549758E+03 -0.10747955000E+03  0.10279505415E+04  0.11888383216E+04  0.15294330000E+03 0.  0.
<mgrwt>
<rscale>  0 0.59720536E+03</rscale>
<asrwt>0</asrwt>
<pdfrwt beam="1">  1        1 0.21551759E+00 0.59720536E+03</pdfrwt>
<pdfrwt beam="2">  1       -1 0.59278146E-01 0.59720536E+03</pdfrwt>
<totfact> 0.23355831E+01</totfact>
</mgrwt>
</event>
<event>
 4    1  0.1678003E-008  0.3162137E+03  0.7818608E-02  0.1077405E+00
         -1   -1    0    0    0  501 -0.00000000000E+00  0.00000000000E+00  0.40231538602E+03  0.40231538606E+03  0.50400000000E-02 0.  1.
          1   -1    0    0  501    0  0.00000000000E+00 -0.00000000000E+00 -0.97123344221E+03  0.97123344222E+03  0.50400000000E-02 0. -1.
    8880022    1    1    2    0    0 -0.27355385791E+03 -0.42044122357E+02 -0.87687893366E+03  0.93215220791E+03  0.15294330000E+03 0.  0.
    8880022    1    1    2    0    0  0.27355385791E+03  0.42044122357E+02  0.30796087748E+03  0.44139662037E+03  0.15294330000E+03 0.  1.
<mgrwt>
<rscale>  0 0.31621365E+03</rscale>
<asrwt>0</asrwt>
<pdfrwt beam="1">  1        1 0.14942053E+00 0.31621365E+03</pdfrwt>
<pdfrwt beam="2">  1       -1 0.61894675E-01 0.31621365E+03</pdfrwt>
<totfact> 0.46199449E+01</totfact>
</mgrwt>
</event>
<event>
 4    1  0.1678003E-008  0.4174010E+03  0.7818608E-02  0.1037916E+00
         -1   -1    0    0    0  501 -0.00000000000E+00  0.00000000000E+00  0.17563173395E+03  0.17563173403E+03  0.50400000000E-02 0.  1.
          1   -1    0    0  501    0  0.00000000000E+00 -0.00000000000E+00 -0.16425551097E+04  0.16425551097E+04  0.50400000000E-02 0. -1.
    8880022    1    1    2    0    0  0.32564841244E+03 -0.21162485050E+03 -0.13055939057E+04  0.13706929144E+04  0.15294330000E+03 0.  0.
    8880022    1    1    2    0    0 -0.32564841244E+03  0.21162485050E+03 -0.16132947000E+03  0.44749392932E+03  0.15294330000E+03 0.  0.
<mgrwt>
<rscale>  0 0.41740103E+03</rscale>
<asrwt>0</asrwt>
<pdfrwt beam="1">  1        1 0.25270078E+00 0.41740103E+03</pdfrwt>
<pdfrwt beam="2">  1       -1 0.27020268E-01 0.41740103E+03</pdfrwt>
<totfact> 0.68742674E+01</totfact>
</mgrwt>
</event>
<event>
 4    1  0.1678003E-008  0.4213594E+03  0.7818608E-02  0.1036625E+00
         -1   -1    0    0    0  501 -0.00000000000E+00  0.00000000000E+00  0.28237477993E+03  0.28237477998E+03  0.50400000000E-02 0.  1.
          1   -1    0    0  501    0  0.00000000000E+00 -0.00000000000E+00 -0.77630332585E+03  0.77630332587E+03  0.50400000000E-02 0. -1.
    8880022    1    1    2    0    0 -0.38521284833E+03 -0.75915533486E+02 -0.47773966596E+03  0.63700780858E+03  0.15294330000E+03 0.  0.
    8880022    1    1    2    0    0  0.38521284833E+03  0.75915533486E+02 -0.16188879956E+02  0.42167029726E+03  0.15294330000E+03 0.  1.
<mgrwt>
<rscale>  0 0.42135942E+03</rscale>
<asrwt>0</asrwt>
<pdfrwt beam="1">  1        1 0.11943128E+00 0.42135942E+03</pdfrwt>
<pdfrwt beam="2">  1       -1 0.43442274E-01 0.42135942E+03</pdfrwt>
<totfact> 0.12710981E+02</totfact>
</mgrwt>
</event>
<event>
 4    1  0.1678003E-008  0.2098404E+03  0.7818608E-02  0.1141692E+00
          1   -1    0    0  501    0  0.00000000000E+00  0.00000000000E+00  0.28843295812E+03  0.28843295817E+03  0.50400000000E-02 0. -1.
         -1   -1    0    0    0  501 -0.00000000000E+00 -0.00000000000E+00 -0.17435557753E+03  0.17435557760E+03  0.50400000000E-02 0.  1.
    8880022    1    1    2    0    0  0.13682176447E+03 -0.43830945167E+02  0.13865776479E+03  0.25151337090E+03  0.15294330000E+03 0.  0.
    8880022    1    1    2    0    0 -0.13682176447E+03  0.43830945167E+02 -0.24580384198E+02  0.21127516487E+03  0.15294330000E+03 0.  0.
<mgrwt>
<rscale>  0 0.20984042E+03</rscale>
<asrwt>0</asrwt>
<pdfrwt beam="1">  1        1 0.44374301E-01 0.20984042E+03</pdfrwt>
<pdfrwt beam="2">  1       -1 0.26823935E-01 0.20984042E+03</pdfrwt>
<totfact> 0.11361063E+03</totfact>
</mgrwt>
</event>
<event>
 4    1  0.1678003E-008  0.4504848E+03  0.7818608E-02  0.1027578E+00
         -1   -1    0    0    0  501 -0.00000000000E+00  0.00000000000E+00  0.36230509417E+03  0.36230509421E+03  0.50400000000E-02 0.  1.
          1   -1    0    0  501    0  0.00000000000E+00 -0.00000000000E+00 -0.16759031844E+04  0.16759031844E+04  0.50400000000E-02 0. -1.
    8880022    1    1    2    0    0  0.39053379236E+03 -0.16440264975E+03 -0.14883384377E+04  0.15550202032E+04  0.15294330000E+03 0.  0.
    8880022    1    1    2    0    0 -0.39053379236E+03  0.16440264975E+03  0.17474034744E+03  0.48318807545E+03  0.15294330000E+03 0.  1.
<mgrwt>
<rscale>  0 0.45048477E+03</rscale>
<asrwt>0</asrwt>
<pdfrwt beam="1">  1        1 0.25783126E+00 0.45048477E+03</pdfrwt>
<pdfrwt beam="2">  1       -1 0.55739246E-01 0.45048477E+03</pdfrwt>
<totfact> 0.17655444E+01</totfact>
</mgrwt>
</event>
<event>
 4    1  0.1678003E-008  0.1871100E+03  0.7818608E-02  0.1161094E+00
         -1   -1    0    0    0  501 -0.00000000000E+00  0.00000000000E+00  0.89143986785E+03  0.89143986786E+03  0.50400000000E-02 0.  1.
          1   -1    0    0  501    0  0.00000000000E+00 -0.00000000000E+00 -0.25098858504E+03  0.25098858509E+03  0.50400000000E-02 0. -1.
    8880022    1    1    2    0    0  0.88073107964E+02 -0.62142006588E+02  0.84484910752E+03  0.86532084733E+03  0.15294330000E+03 0.  1.
    8880022    1    1    2    0    0 -0.88073107964E+02  0.62142006588E+02 -0.20439782471E+03  0.27710760562E+03  0.15294330000E+03 0.  0.
<mgrwt>
<rscale>  0 0.18711001E+03</rscale>
<asrwt>0</asrwt>
<pdfrwt beam="1">  1        1 0.38613629E-01 0.18711001E+03</pdfrwt>
<pdfrwt beam="2">  1       -1 0.13714459E+00 0.18711001E+03</pdfrwt>
<totfact> 0.53965206E+01</totfact>
</mgrwt>
</event>
<event>
 4    1  0.1678003E-008  0.1305700E+04  0.7818608E-02  0.9025057E-01
         -1   -1    0    0    0  501 -0.00000000000E+00  0.00000000000E+00  0.15500953398E+04  0.15500953399E+04  0.50400000000E-02 0.  1.
          1   -1    0    0  501    0  0.00000000000E+00 -0.00000000000E+00 -0.11289084307E+04  0.11289084307E+04  0.50400000000E-02 0. -1.
    8880022    1    1    2    0    0  0.10994511090E+03 -0.12920424384E+04  0.42554579952E+03  0.13732962064E+04  0.15294330000E+03 0.  0.
    8880022    1    1    2    0    0 -0.10994511090E+03  0.12920424384E+04 -0.43588904026E+01  0.13057075641E+04  0.15294330000E+03 0.  0.
<mgrwt>
<rscale>  0 0.13057003E+04</rscale>
<asrwt>0</asrwt>
<pdfrwt beam="1">  1        1 0.17367822E+00 0.13057003E+04</pdfrwt>
<pdfrwt beam="2">  1       -1 0.23847620E+00 0.13057003E+04</pdfrwt>
<totfact> 0.96980168E-01</totfact>
</mgrwt>
</event>
<event>
 4    1  0.1678003E-008  0.3196144E+03  0.7818608E-02  0.1075827E+00
         -1   -1    0    0    0  501 -0.00000000000E+00  0.00000000000E+00  0.24590255426E+03  0.24590255432E+03  0.50400000000E-02 0.  1.
          1   -1    0    0  501    0  0.00000000000E+00 -0.00000000000E+00 -0.21004669990E+04  0.21004669990E+04  0.50400000000E-02 0. -1.
    8880022    1    1    2    0    0 -0.24688136477E+02  0.27955713084E+03 -0.19780681089E+04  0.20037232319E+04  0.15294330000E+03 0.  0.
    8880022    1    1    2    0    0  0.24688136477E+02 -0.27955713084E+03  0.12350366420E+03  0.34264632141E+03  0.15294330000E+03 0.  0.
<mgrwt>
<rscale>  0 0.31961437E+03</rscale>
<asrwt>0</asrwt>
<pdfrwt beam="1">  1        1 0.32314876E+00 0.31961437E+03</pdfrwt>
<pdfrwt beam="2">  1       -1 0.37831164E-01 0.31961437E+03</pdfrwt>
<totfact> 0.19682941E+01</totfact>
</mgrwt>
</event>
<event>
 4    1  0.1678003E-008  0.6496284E+03  0.7818608E-02  0.9807477E-01
         -1   -1    0    0    0  501 -0.00000000000E+00  0.00000000000E+00  0.12951435821E+04  0.12951435821E+04  0.50400000000E-02 0.  1.
          1   -1    0    0  501    0  0.00000000000E+00 -0.00000000000E+00 -0.12942489761E+04  0.12942489761E+04  0.50400000000E-02 0. -1.
    8880022    1    1    2    0    0 -0.29848449109E+03 -0.55635636987E+03 -0.11194729397E+04  0.12943093593E+04  0.15294330000E+03 0.  0.
    8880022    1    1    2    0    0  0.29848449109E+03  0.55635636987E+03  0.11203675458E+04  0.12950831990E+04  0.15294330000E+03 0.  0.
<mgrwt>
<rscale>  0 0.64962840E+03</rscale>
<asrwt>0</asrwt>
<pdfrwt beam="1">  1        1 0.19911523E+00 0.64962840E+03</pdfrwt>
<pdfrwt beam="2">  1       -1 0.19925286E+00 0.64962840E+03</pdfrwt>
<totfact> 0.14888600E+00</totfact>
</mgrwt>
</event>
<event>
 4    1  0.1678003E-008  0.3332608E+03  0.7818608E-02  0.1069703E+00
         -1   -1    0    0    0  501 -0.00000000000E+00  0.00000000000E+00  0.17221727142E+03  0.17221727149E+03  0.50400000000E-02 0.  1.
          1   -1    0    0  501    0  0.00000000000E+00 -0.00000000000E+00 -0.80864697086E+03  0.80864697088E+03  0.50400000000E-02 0. -1.
    8880022    1    1    2    0    0 -0.16361239546E+03 -0.24678353380E+03 -0.53890711680E+03  0.63362738424E+03  0.15294330000E+03 0.  0.
    8880022    1    1    2    0    0  0.16361239546E+03  0.24678353380E+03 -0.97522582650E+02  0.34723685813E+03  0.15294330000E+03 0.  0.
<mgrwt>
<rscale>  0 0.33326083E+03</rscale>
<asrwt>0</asrwt>
<pdfrwt beam="1">  1        1 0.12440722E+00 0.33326083E+03</pdfrwt>
<pdfrwt beam="2">  1       -1 0.26494965E-01 0.33326083E+03</pdfrwt>
<totfact> 0.28647215E+02</totfact>
</mgrwt>
</event>
<event>
 4    1  0.1678003E-008  0.5925158E+03  0.7818608E-02  0.9921056E-01
          1   -1    0    0  501    0  0.00000000000E+00  0.00000000000E+00  0.42517971956E+03  0.42517971959E+03  0.50400000000E-02 0. -1.
         -1   -1    0    0    0  501 -0.00000000000E+00 -0.00000000000E+00 -0.10420845399E+04  0.10420845399E+04  0.50400000000E-02 0.  1.
    8880022    1    1    2    0    0  0.43113095231E+03  0.37657588648E+03  0.25842997255E+02  0.59307909240E+03  0.15294330000E+03 0.  0.
    8880022    1    1    2    0    0 -0.43113095231E+03 -0.37657588648E+03 -0.64274781755E+03  0.87418516705E+03  0.15294330000E+03 0.  0.
<mgrwt>
<rscale>  0 0.59251578E+03</rscale>
<asrwt>0</asrwt>
<pdfrwt beam="1">  1        1 0.65412265E-01 0.59251578E+03</pdfrwt>
<pdfrwt beam="2">  1       -1 0.16032070E+00 0.59251578E+03</pdfrwt>
<totfact> 0.16825924E+01</totfact>
</mgrwt>
</event>
<event>
 4    1  0.1678003E-008  0.5958110E+03  0.7818608E-02  0.9914135E-01
         -1   -1    0    0    0  501 -0.00000000000E+00  0.00000000000E+00  0.28601748926E+03  0.28601748930E+03  0.50400000000E-02 0.  1.
          1   -1    0    0  501    0  0.00000000000E+00 -0.00000000000E+00 -0.17950337609E+04  0.17950337609E+04  0.50400000000E-02 0. -1.
    8880022    1    1    2    0    0  0.56198410510E+03  0.12559060355E+03 -0.13325050750E+04  0.14596439847E+04  0.15294330000E+03 0.  0.
    8880022    1    1    2    0    0 -0.56198410510E+03 -0.12559060355E+03 -0.17651119662E+03  0.62140726552E+03  0.15294330000E+03 0.  0.
<mgrwt>
<rscale>  0 0.59581103E+03</rscale>
<asrwt>0</asrwt>
<pdfrwt beam="1">  1        1 0.27615903E+00 0.59581103E+03</pdfrwt>
<pdfrwt beam="2">  1       -1 0.44002692E-01 0.59581103E+03</pdfrwt>
<totfact> 0.22270696E+01</totfact>
</mgrwt>
</event>
<event>
 4    1  0.1678003E-008  0.5416413E+03  0.7818608E-02  0.1003447E+00
          1   -1    0    0  501    0  0.00000000000E+00  0.00000000000E+00  0.92697432876E+03  0.92697432878E+03  0.50400000000E-02 0. -1.
         -1   -1    0    0    0  501 -0.00000000000E+00 -0.00000000000E+00 -0.10410168009E+04  0.10410168010E+04  0.50400000000E-02 0.  1.
    8880022    1    1    2    0    0 -0.40368641146E+03 -0.32714055831E+03 -0.87792529079E+03  0.10315658646E+04  0.15294330000E+03 0.  0.
    8880022    1    1    2    0    0  0.40368641146E+03  0.32714055831E+03  0.76388281861E+03  0.93642526518E+03  0.15294330000E+03 0.  0.
<mgrwt>
<rscale>  0 0.54164132E+03</rscale>
<asrwt>0</asrwt>
<pdfrwt beam="1">  1        1 0.14261144E+00 0.54164132E+03</pdfrwt>
<pdfrwt beam="2">  1       -1 0.16015643E+00 0.54164132E+03</pdfrwt>
<totfact> 0.54225246E+00</totfact>
</mgrwt>
</event>
<event>
 4    1  0.1678003E-008  0.4044833E+03  0.7818608E-02  0.1042238E+00
         -1   -1    0    0    0  501 -0.00000000000E+00  0.00000000000E+00  0.26355536799E+03  0.26355536803E+03  0.50400000000E-02 0.  1.
          1   -1    0    0  501    0  0.00000000000E+00 -0.00000000000E+00 -0.12126227570E+04  0.12126227570E+04  0.50400000000E-02 0. -1.
    8880022    1    1    2    0    0 -0.35269017500E+03 -0.12579650939E+03  0.41114420231E+02  0.40656754652E+03  0.15294330000E+03 0.  0.
    8880022    1    1    2    0    0  0.35269017500E+03  0.12579650939E+03 -0.99018180920E+03  0.10696105785E+04  0.15294330000E+03 0.  0.
<mgrwt>
<rscale>  0 0.40448334E+03</rscale>
<asrwt>0</asrwt>
<pdfrwt beam="1">  1        1 0.18655734E+00 0.40448334E+03</pdfrwt>
<pdfrwt beam="2">  1       -1 0.40546980E-01 0.40448334E+03</pdfrwt>
<totfact> 0.66561754E+01</totfact>
</mgrwt>
</event>
<event>
 4    1  0.1678003E-008  0.4072743E+03  0.7818608E-02  0.1041290E+00
         -1   -1    0    0    0  501 -0.00000000000E+00  0.00000000000E+00  0.61344541293E+03  0.61344541295E+03  0.50400000000E-02 0.  1.
          1   -1    0    0  501    0  0.00000000000E+00 -0.00000000000E+00 -0.39241884583E+03  0.39241884587E+03  0.50400000000E-02 0. -1.
    8880022    1    1    2    0    0  0.31044710832E+03  0.21471678535E+03  0.39096456542E+03  0.56455792387E+03  0.15294330000E+03 0.  1.
    8880022    1    1    2    0    0 -0.31044710832E+03 -0.21471678535E+03 -0.16993799832E+03  0.44130633495E+03  0.15294330000E+03 0.  0.
<mgrwt>
<rscale>  0 0.40727430E+03</rscale>
<asrwt>0</asrwt>
<pdfrwt beam="1">  1        1 0.60372130E-01 0.40727430E+03</pdfrwt>
<pdfrwt beam="2">  1       -1 0.94376217E-01 0.40727430E+03</pdfrwt>
<totfact> 0.70475462E+01</totfact>
</mgrwt>
</event>
<event>
 4    1  0.1678003E-008  0.7354158E+03  0.7818608E-02  0.9658513E-01
         -1   -1    0    0    0  501 -0.00000000000E+00  0.00000000000E+00  0.14857110395E+04  0.14857110396E+04  0.50400000000E-02 0.  1.
          1   -1    0    0  501    0  0.00000000000E+00 -0.00000000000E+00 -0.43080232409E+03  0.43080232412E+03  0.50400000000E-02 0. -1.
    8880022    1    1    2    0    0 -0.71577636941E+03 -0.71477220371E+02  0.90472782043E+03  0.11659197597E+04  0.15294330000E+03 0.  0.
    8880022    1    1    2    0    0  0.71577636941E+03  0.71477220371E+02  0.15018089502E+03  0.75059360395E+03  0.15294330000E+03 0.  0.
<mgrwt>
<rscale>  0 0.73541584E+03</rscale>
<asrwt>0</asrwt>
<pdfrwt beam="1">  1        1 0.66277281E-01 0.73541584E+03</pdfrwt>
<pdfrwt beam="2">  1       -1 0.22857093E+00 0.73541584E+03</pdfrwt>
<totfact> 0.54465306E+00</totfact>
</mgrwt>
</event>
<event>
 4    1  0.1678003E-008  0.4371924E+03  0.7818608E-02  0.1031612E+00
         -1   -1    0    0    0  501 -0.00000000000E+00  0.00000000000E+00  0.54649683454E+03  0.54649683456E+03  0.50400000000E-02 0.  1.
          1   -1    0    0  501    0  0.00000000000E+00 -0.00000000000E+00 -0.11966465903E+04  0.11966465903E+04  0.50400000000E-02 0. -1.
    8880022    1    1    2    0    0 -0.10936640430E+03 -0.39469546609E+03 -0.10582967451E+04  0.11450454904E+04  0.15294330000E+03 0.  0.
    8880022    1    1    2    0    0  0.10936640430E+03  0.39469546609E+03  0.40814698933E+03  0.59809793450E+03  0.15294330000E+03 0.  0.
<mgrwt>
<rscale>  0 0.43719238E+03</rscale>
<asrwt>0</asrwt>
<pdfrwt beam="1">  1        1 0.18409947E+00 0.43719238E+03</pdfrwt>
<pdfrwt beam="2">  1       -1 0.84076437E-01 0.43719238E+03</pdfrwt>
<totfact> 0.16416942E+01</totfact>
</mgrwt>
</event>
<event>
 4    1  0.1678003E-008  0.6324725E+03  0.7818608E-02  0.9840236E-01
         -1   -1    0    0    0  501 -0.00000000000E+00  0.00000000000E+00  0.10982939891E+04  0.10982939891E+04  0.50400000000E-02 0.  1.
          1   -1    0    0  501    0  0.00000000000E+00 -0.00000000000E+00 -0.55005989542E+03  0.55005989544E+03  0.50400000000E-02 0. -1.
    8880022    1    1    2    0    0 -0.20860085267E+03 -0.57716158350E+03 -0.20493650804E+03  0.66484617359E+03  0.15294330000E+03 0.  0.
    8880022    1    1    2    0    0  0.20860085267E+03  0.57716158350E+03  0.75317060170E+03  0.98350771094E+03  0.15294330000E+03 0.  0.
<mgrwt>
<rscale>  0 0.63247250E+03</rscale>
<asrwt>0</asrwt>
<pdfrwt beam="1">  1        1 0.84624600E-01 0.63247250E+03</pdfrwt>
<pdfrwt beam="2">  1       -1 0.16896830E+00 0.63247250E+03</pdfrwt>
<totfact> 0.10172268E+01</totfact>
</mgrwt>
</event>
<event>
 4    1  0.1678003E-008  0.2618500E+03  0.7818608E-02  0.1106037E+00
         -1   -1    0    0    0  501 -0.00000000000E+00  0.00000000000E+00  0.28920698906E+03  0.28920698911E+03  0.50400000000E-02 0.  1.
          1   -1    0    0  501    0  0.00000000000E+00 -0.00000000000E+00 -0.17779073875E+04  0.17779073875E+04  0.50400000000E-02 0. -1.
    8880022    1    1    2    0    0 -0.20799331745E+03 -0.43732503266E+02  0.21783093183E+03  0.34061080403E+03  0.15294330000E+03 0.  0.
    8880022    1    1    2    0    0  0.20799331745E+03  0.43732503266E+02 -0.17065313302E+04  0.17265035725E+04  0.15294330000E+03 0.  0.
<mgrwt>
<rscale>  0 0.26184997E+03</rscale>
<asrwt>0</asrwt>
<pdfrwt beam="1">  1        1 0.27352421E+00 0.26184997E+03</pdfrwt>
<pdfrwt beam="2">  1       -1 0.44493384E-01 0.26184997E+03</pdfrwt>
<totfact> 0.24401893E+01</totfact>
</mgrwt>
</event>
<event>
 4    1  0.1678003E-008  0.6903188E+03  0.7818608E-02  0.9733933E-01
          1   -1    0    0  501    0  0.00000000000E+00  0.00000000000E+00  0.99831019549E+03  0.99831019550E+03  0.50400000000E-02 0. -1.
         -1   -1    0    0    0  501 -0.00000000000E+00 -0.00000000000E+00 -0.11239976224E+04  0.11239976224E+04  0.50400000000E-02 0.  1.
    8880022    1    1    2    0    0  0.64265949924E+03  0.20034250529E+03  0.74203539915E+03  0.10134873152E+04  0.15294330000E+03 0.  0.
    8880022    1    1    2    0    0 -0.64265949924E+03 -0.20034250529E+03 -0.86772282602E+03  0.11088205027E+04  0.15294330000E+03 0.  0.
<mgrwt>
<rscale>  0 0.69031877E+03</rscale>
<asrwt>0</asrwt>
<pdfrwt beam="1">  1        1 0.15358618E+00 0.69031877E+03</pdfrwt>
<pdfrwt beam="2">  1       -1 0.17292271E+00 0.69031877E+03</pdfrwt>
<totfact> 0.37303916E+00</totfact>
</mgrwt>
</event>
<event>
 4    1  0.1678003E-008  0.3415173E+03  0.7818608E-02  0.1066152E+00
         -1   -1    0    0    0  501 -0.00000000000E+00  0.00000000000E+00  0.77830223407E+03  0.77830223408E+03  0.50400000000E-02 0.  1.
          1   -1    0    0  501    0  0.00000000000E+00 -0.00000000000E+00 -0.17394148616E+03  0.17394148623E+03  0.50400000000E-02 0. -1.
    8880022    1    1    2    0    0  0.29035960008E+03 -0.94518246367E+02  0.47934829728E+03  0.58856506809E+03  0.15294330000E+03 0.  0.
    8880022    1    1    2    0    0 -0.29035960008E+03  0.94518246367E+02  0.12501245064E+03  0.36367865223E+03  0.15294330000E+03 0.  1.
<mgrwt>
<rscale>  0 0.34151728E+03</rscale>
<asrwt>0</asrwt>
<pdfrwt beam="1">  1        1 0.26760228E-01 0.34151728E+03</pdfrwt>
<pdfrwt beam="2">  1       -1 0.11973881E+00 0.34151728E+03</pdfrwt>
<totfact> 0.11634941E+02</totfact>
</mgrwt>
</event>
<event>
 4    1  0.1678003E-008  0.8254186E+03  0.7818608E-02  0.9523936E-01
          1   -1    0    0  501    0  0.00000000000E+00  0.00000000000E+00  0.28128445210E+04  0.28128445210E+04  0.50400000000E-02 0. -1.
         -1   -1    0    0    0  501 -0.00000000000E+00 -0.00000000000E+00 -0.63915019595E+03  0.63915019597E+03  0.50400000000E-02 0.  1.
    8880022    1    1    2    0    0  0.60748977577E+03 -0.53747589442E+03  0.24470320539E+04  0.25824952450E+04  0.15294330000E+03 0.  0.
    8880022    1    1    2    0    0 -0.60748977577E+03  0.53747589442E+03 -0.27333772883E+03  0.86949947197E+03  0.15294330000E+03 0.  0.
<mgrwt>
<rscale>  0 0.82541857E+03</rscale>
<asrwt>0</asrwt>
<pdfrwt beam="1">  1        1 0.43274531E+00 0.82541857E+03</pdfrwt>
<pdfrwt beam="2">  1       -1 0.98330799E-01 0.82541857E+03</pdfrwt>
<totfact> 0.85488841E-01</totfact>
</mgrwt>
</event>
<event>
 4    1  0.1678003E-008  0.6383182E+03  0.7818608E-02  0.9828950E-01
          1   -1    0    0  501    0  0.00000000000E+00  0.00000000000E+00  0.41362129286E+03  0.41362129289E+03  0.50400000000E-02 0. -1.
         -1   -1    0    0    0  501 -0.00000000000E+00 -0.00000000000E+00 -0.12235088568E+04  0.12235088568E+04  0.50400000000E-02 0.  1.
    8880022    1    1    2    0    0  0.56536308650E+03 -0.25381703026E+03 -0.43593121412E+02  0.63980506225E+03  0.15294330000E+03 0.  0.
    8880022    1    1    2    0    0 -0.56536308650E+03  0.25381703026E+03 -0.76629444255E+03  0.99732508748E+03  0.15294330000E+03 0.  0.
<mgrwt>
<rscale>  0 0.63831823E+03</rscale>
<asrwt>0</asrwt>
<pdfrwt beam="1">  1        1 0.63634046E-01 0.63831823E+03</pdfrwt>
<pdfrwt beam="2">  1       -1 0.18823213E+00 0.63831823E+03</pdfrwt>
<totfact> 0.10908137E+01</totfact>
</mgrwt>
</event>
<event>
 4    1  0.1678003E-008  0.3732404E+03  0.7818608E-02  0.1053461E+00
         -1   -1    0    0    0  501 -0.00000000000E+00  0.00000000000E+00  0.35728477516E+03  0.35728477519E+03  0.50400000000E-02 0.  1.
          1   -1    0    0  501    0  0.00000000000E+00 -0.00000000000E+00 -0.13400091720E+04  0.13400091720E+04  0.50400000000E-02 0. -1.
    8880022    1    1    2    0    0 -0.17819191785E+03 -0.29011093494E+03 -0.12059539456E+04  0.12623918908E+04  0.15294330000E+03 0.  0.
    8880022    1    1    2    0    0  0.17819191785E+03  0.29011093494E+03  0.22322954876E+03  0.43490205635E+03  0.15294330000E+03 0.  0.
<mgrwt>
<rscale>  0 0.37324036E+03</rscale>
<asrwt>0</asrwt>
<pdfrwt beam="1">  1        1 0.20615525E+00 0.37324036E+03</pdfrwt>
<pdfrwt beam="2">  1       -1 0.54966889E-01 0.37324036E+03</pdfrwt>
<totfact> 0.31101709E+01</totfact>
</mgrwt>
</event>
<event>
 4    1  0.1678003E-008  0.1081370E+04  0.7818608E-02  0.9223543E-01
          1   -1    0    0  501    0  0.00000000000E+00  0.00000000000E+00  0.20247847132E+04  0.20247847132E+04  0.50400000000E-02 0. -1.
         -1   -1    0    0    0  501 -0.00000000000E+00 -0.00000000000E+00 -0.89152307528E+03  0.89152307529E+03  0.50400000000E-02 0.  1.
    8880022    1    1    2    0    0 -0.88168367031E+03 -0.60712720370E+03  0.14320000505E+04  0.17944317578E+04  0.15294330000E+03 0.  0.
    8880022    1    1    2    0    0  0.88168367031E+03  0.60712720370E+03 -0.29873841256E+03  0.11218760306E+04  0.15294330000E+03 0.  0.
<mgrwt>
<rscale>  0 0.10813701E+04</rscale>
<asrwt>0</asrwt>
<pdfrwt beam="1">  1        1 0.31150534E+00 0.10813701E+04</pdfrwt>
<pdfrwt beam="2">  1       -1 0.13715740E+00 0.10813701E+04</pdfrwt>
<totfact> 0.12667243E+00</totfact>
</mgrwt>
</event>
<event>
 4    1  0.1678003E-008  0.1463322E+04  0.7818608E-02  0.8909217E-01
         -1   -1    0    0    0  501 -0.00000000000E+00  0.00000000000E+00  0.22786237742E+04  0.22786237742E+04  0.50400000000E-02 0.  1.
          1   -1    0    0  501    0  0.00000000000E+00 -0.00000000000E+00 -0.13887372030E+04  0.13887372030E+04  0.50400000000E-02 0. -1.
    8880022    1    1    2    0    0 -0.12170351557E+04 -0.79796290334E+03 -0.59770074103E+03  0.15806825090E+04  0.15294330000E+03 0.  0.
    8880022    1    1    2    0    0  0.12170351557E+04  0.79796290334E+03  0.14875873122E+04  0.20866784683E+04  0.15294330000E+03 0.  0.
<mgrwt>
<rscale>  0 0.14633219E+04</rscale>
<asrwt>0</asrwt>
<pdfrwt beam="1">  1        1 0.21365188E+00 0.14633219E+04</pdfrwt>
<pdfrwt beam="2">  1       -1 0.35055750E+00 0.14633219E+04</pdfrwt>
<totfact> 0.11474150E-01</totfact>
</mgrwt>
</event>
<event>
 4    1  0.1678003E-008  0.7250322E+03  0.7818608E-02  0.9675356E-01
         -1   -1    0    0    0  501 -0.00000000000E+00  0.00000000000E+00  0.35831891367E+03  0.35831891371E+03  0.50400000000E-02 0.  1.
          1   -1    0    0  501    0  0.00000000000E+00 -0.00000000000E+00 -0.21983846851E+04  0.21983846851E+04  0.50400000000E-02 0. -1.
    8880022    1    1    2    0    0  0.66019985681E+03  0.25771330038E+03 -0.18271168515E+03  0.74769994585E+03  0.15294330000E+03 0.  0.
    8880022    1    1    2    0    0 -0.66019985681E+03 -0.25771330038E+03 -0.16573540863E+04  0.18090036530E+04  0.15294330000E+03 0.  0.
<mgrwt>
<rscale>  0 0.72503217E+03</rscale>
<asrwt>0</asrwt>
<pdfrwt beam="1">  1        1 0.33821302E+00 0.72503217E+03</pdfrwt>
<pdfrwt beam="2">  1       -1 0.55125988E-01 0.72503217E+03</pdfrwt>
<totfact> 0.76656452E+00</totfact>
</mgrwt>
</event>
<event>
 4    1  0.1678003E-008  0.2015025E+03  0.7818608E-02  0.1148478E+00
          1   -1    0    0  501    0  0.00000000000E+00  0.00000000000E+00  0.21540531194E+03  0.21540531200E+03  0.50400000000E-02 0. -1.
         -1   -1    0    0    0  501 -0.00000000000E+00 -0.00000000000E+00 -0.67394400965E+03  0.67394400967E+03  0.50400000000E-02 0.  1.
    8880022    1    1    2    0    0 -0.11910709393E+03 -0.55000806718E+02 -0.60666893269E+03  0.63925772226E+03  0.15294330000E+03 0.  1.
    8880022    1    1    2    0    0  0.11910709393E+03  0.55000806718E+02  0.14813023498E+03  0.25009159941E+03  0.15294330000E+03 0.  0.
<mgrwt>
<rscale>  0 0.20150246E+03</rscale>
<asrwt>0</asrwt>
<pdfrwt beam="1">  1        1 0.33139279E-01 0.20150246E+03</pdfrwt>
<pdfrwt beam="2">  1       -1 0.10368369E+00 0.20150246E+03</pdfrwt>
<totfact> 0.12627573E+02</totfact>
</mgrwt>
</event>
<event>
 4    1  0.1678003E-008  0.2181878E+03  0.7818608E-02  0.1135241E+00
         -1   -1    0    0    0  501 -0.00000000000E+00  0.00000000000E+00  0.13808973791E+03  0.13808973800E+03  0.50400000000E-02 0.  1.
          1   -1    0    0  501    0  0.00000000000E+00 -0.00000000000E+00 -0.12420334048E+04  0.12420334048E+04  0.50400000000E-02 0. -1.
    8880022    1    1    2    0    0 -0.76870166412E+02 -0.13529691983E+03  0.34553679034E+02  0.22090696854E+03  0.15294330000E+03 0.  0.
    8880022    1    1    2    0    0  0.76870166412E+02  0.13529691983E+03 -0.11384973459E+04  0.11592161743E+04  0.15294330000E+03 0.  0.
<mgrwt>
<rscale>  0 0.21818784E+03</rscale>
<asrwt>0</asrwt>
<pdfrwt beam="1">  1        1 0.19108205E+00 0.21818784E+03</pdfrwt>
<pdfrwt beam="2">  1       -1 0.21244576E-01 0.21818784E+03</pdfrwt>
<totfact> 0.19916996E+02</totfact>
</mgrwt>
</event>
<event>
 4    1  0.1717901E-008  0.8373058E+03  0.7818608E-02  0.9507535E-01
          1   -1    0    0  501    0  0.00000000000E+00  0.00000000000E+00  0.36807233126E+04  0.36807233126E+04  0.50400000000E-02 0. -1.
         -1   -1    0    0    0  501 -0.00000000000E+00 -0.00000000000E+00 -0.97411823401E+03  0.97411823402E+03  0.50400000000E-02 0.  1.
    8880022    1    1    2    0    0  0.44588444774E+03 -0.69200901085E+03 -0.73420771962E+03  0.11136166488E+04  0.15294330000E+03 0.  0.
    8880022    1    1    2    0    0 -0.44588444774E+03  0.69200901085E+03  0.34408127982E+04  0.35412248979E+04  0.15294330000E+03 0.  0.
<mgrwt>
<rscale>  0 0.83730584E+03</rscale>
<asrwt>0</asrwt>
<pdfrwt beam="1">  1        1 0.56626513E+00 0.83730584E+03</pdfrwt>
<pdfrwt beam="2">  1       -1 0.14986434E+00 0.83730584E+03</pdfrwt>
<totfact> 0.67939046E-02</totfact>
</mgrwt>
</event>
<event>
 4    1  0.1678003E-008  0.1052497E+04  0.7818608E-02  0.9252769E-01
         -1   -1    0    0    0  501 -0.00000000000E+00  0.00000000000E+00  0.63639436603E+03  0.63639436605E+03  0.50400000000E-02 0.  1.
          1   -1    0    0  501    0  0.00000000000E+00 -0.00000000000E+00 -0.23186864081E+04  0.23186864082E+04  0.50400000000E-02 0. -1.
    8880022    1    1    2    0    0 -0.10351835375E+04  0.11293515665E+03 -0.10342969672E+03  0.10575673317E+04  0.15294330000E+03 0.  0.
    8880022    1    1    2    0    0  0.10351835375E+04 -0.11293515665E+03 -0.15788623454E+04  0.18975134425E+04  0.15294330000E+03 0.  0.
<mgrwt>
<rscale>  0 0.10524975E+04</rscale>
<asrwt>0</asrwt>
<pdfrwt beam="1">  1        1 0.35672098E+00 0.10524975E+04</pdfrwt>
<pdfrwt beam="2">  1       -1 0.97906826E-01 0.10524975E+04</pdfrwt>
<totfact> 0.18218470E+00</totfact>
</mgrwt>
</event>
<event>
 4    1  0.1678003E-008  0.6889346E+03  0.7818608E-02  0.9736345E-01
         -1   -1    0    0    0  501 -0.00000000000E+00  0.00000000000E+00  0.39572449370E+03  0.39572449374E+03  0.50400000000E-02 0.  1.
          1   -1    0    0  501    0  0.00000000000E+00 -0.00000000000E+00 -0.18326389361E+04  0.18326389361E+04  0.50400000000E-02 0. -1.
    8880022    1    1    2    0    0 -0.66382625590E+03  0.10282984718E+03 -0.13733983582E+04  0.15365070709E+04  0.15294330000E+03 0.  0.
    8880022    1    1    2    0    0  0.66382625590E+03 -0.10282984718E+03 -0.63516084190E+02  0.69185635898E+03  0.15294330000E+03 0.  0.
<mgrwt>
<rscale>  0 0.68893463E+03</rscale>
<asrwt>0</asrwt>
<pdfrwt beam="1">  1        1 0.28194445E+00 0.68893463E+03</pdfrwt>
<pdfrwt beam="2">  1       -1 0.60880692E-01 0.68893463E+03</pdfrwt>
<totfact> 0.11152766E+01</totfact>
</mgrwt>
</event>
<event>
 4    1  0.1678003E-008  0.1846846E+03  0.7818608E-02  0.1163345E+00
         -1   -1    0    0    0  501 -0.00000000000E+00  0.00000000000E+00  0.44179735106E+02  0.44179735394E+02  0.50400000000E-02 0.  1.
          1   -1    0    0  501    0  0.00000000000E+00 -0.00000000000E+00 -0.13343056973E+04  0.13343056973E+04  0.50400000000E-02 0. -1.
    8880022    1    1    2    0    0 -0.26874556473E+02  0.99972442582E+02 -0.19764181812E+03  0.27050078068E+03  0.15294330000E+03 0.  0.
    8880022    1    1    2    0    0  0.26874556473E+02 -0.99972442582E+02 -0.10924841441E+04  0.11079846520E+04  0.15294330000E+03 0.  0.
<mgrwt>
<rscale>  0 0.18468455E+03</rscale>
<asrwt>0</asrwt>
<pdfrwt beam="1">  1        1 0.20527777E+00 0.18468455E+03</pdfrwt>
<pdfrwt beam="2">  1       -1 0.67968834E-02 0.18468455E+03</pdfrwt>
<totfact> 0.10280063E+03</totfact>
</mgrwt>
</event>
<event>
 4    1  0.1678003E-008  0.8556147E+03  0.7818608E-02  0.9482832E-01
         -1   -1    0    0    0  501 -0.00000000000E+00  0.00000000000E+00  0.20216449969E+04  0.20216449969E+04  0.50400000000E-02 0.  1.
          1   -1    0    0  501    0  0.00000000000E+00 -0.00000000000E+00 -0.13898679748E+04  0.13898679748E+04  0.50400000000E-02 0. -1.
    8880022    1    1    2    0    0  0.71489497779E+03 -0.44453346138E+03  0.17826980983E+04  0.19773944954E+04  0.15294330000E+03 0.  0.
    8880022    1    1    2    0    0 -0.71489497779E+03  0.44453346138E+03 -0.11509210762E+04  0.14341184764E+04  0.15294330000E+03 0.  0.
<mgrwt>
<rscale>  0 0.85561468E+03</rscale>
<asrwt>0</asrwt>
<pdfrwt beam="1">  1        1 0.21382584E+00 0.85561468E+03</pdfrwt>
<pdfrwt beam="2">  1       -1 0.31102231E+00 0.85561468E+03</pdfrwt>
<totfact> 0.22895229E-01</totfact>
</mgrwt>
</event>
<event>
 4    1  0.1678003E-008  0.1580516E+03  0.7818608E-02  0.1190914E+00
          1   -1    0    0  501    0  0.00000000000E+00  0.00000000000E+00  0.81523849034E+02  0.81523849190E+02  0.50400000000E-02 0. -1.
         -1   -1    0    0    0  501 -0.00000000000E+00 -0.00000000000E+00 -0.56829963957E+03  0.56829963959E+03  0.50400000000E-02 0.  1.
    8880022    1    1    2    0    0  0.24074193682E+02 -0.31765908832E+02 -0.46394958456E+03  0.49013213504E+03  0.15294330000E+03 0.  0.
    8880022    1    1    2    0    0 -0.24074193682E+02  0.31765908832E+02 -0.22826205968E+02  0.15969135374E+03  0.15294330000E+03 0. -1.
<mgrwt>
<rscale>  0 0.15805155E+03</rscale>
<asrwt>0</asrwt>
<pdfrwt beam="1">  1        1 0.12542131E-01 0.15805155E+03</pdfrwt>
<pdfrwt beam="2">  1       -1 0.87430711E-01 0.15805155E+03</pdfrwt>
<totfact> 0.63736670E+02</totfact>
</mgrwt>
</event>
<event>
 4    1  0.1678003E-008  0.5000596E+03  0.7818608E-02  0.1013763E+00
         -1   -1    0    0    0  501 -0.00000000000E+00  0.00000000000E+00  0.31246666482E+03  0.31246666486E+03  0.50400000000E-02 0.  1.
          1   -1    0    0  501    0  0.00000000000E+00 -0.00000000000E+00 -0.15173030602E+04  0.15173030602E+04  0.50400000000E-02 0. -1.
    8880022    1    1    2    0    0 -0.46749967632E+03 -0.90066768367E+02  0.26505557938E+02  0.50076158772E+03  0.15294330000E+03 0.  0.
    8880022    1    1    2    0    0  0.46749967632E+03  0.90066768367E+02 -0.12313419533E+04  0.13290081373E+04  0.15294330000E+03 0.  0.
<mgrwt>
<rscale>  0 0.50005962E+03</rscale>
<asrwt>0</asrwt>
<pdfrwt beam="1">  1        1 0.23343124E+00 0.50005962E+03</pdfrwt>
<pdfrwt beam="2">  1       -1 0.48071795E-01 0.50005962E+03</pdfrwt>
<totfact> 0.29512089E+01</totfact>
</mgrwt>
</event>
<event>
 4    1  0.1678003E-008  0.7416238E+03  0.7818608E-02  0.9648584E-01
          1   -1    0    0  501    0  0.00000000000E+00  0.00000000000E+00  0.14469479730E+04  0.14469479731E+04  0.50400000000E-02 0. -1.
         -1   -1    0    0    0  501 -0.00000000000E+00 -0.00000000000E+00 -0.15830413952E+04  0.15830413952E+04  0.50400000000E-02 0.  1.
    8880022    1    1    2    0    0 -0.60759302378E+03  0.39679330653E+03 -0.13886871634E+04  0.15743118819E+04  0.15294330000E+03 0.  0.
    8880022    1    1    2    0    0  0.60759302378E+03 -0.39679330653E+03  0.12525937413E+04  0.14556774864E+04  0.15294330000E+03 0.  0.
<mgrwt>
<rscale>  0 0.74162380E+03</rscale>
<asrwt>0</asrwt>
<pdfrwt beam="1">  1        1 0.22260738E+00 0.74162380E+03</pdfrwt>
<pdfrwt beam="2">  1       -1 0.24354483E+00 0.74162380E+03</pdfrwt>
<totfact> 0.58075569E-01</totfact>
</mgrwt>
</event>
<event>
 4    1  0.1678003E-008  0.6711368E+03  0.7818608E-02  0.9767906E-01
         -1   -1    0    0    0  501 -0.00000000000E+00  0.00000000000E+00  0.94562830144E+03  0.94562830145E+03  0.50400000000E-02 0.  1.
          1   -1    0    0  501    0  0.00000000000E+00 -0.00000000000E+00 -0.66516070110E+03  0.66516070112E+03  0.50400000000E-02 0. -1.
    8880022    1    1    2    0    0  0.46438945298E+03 -0.45975582589E+03 -0.28889688185E+03  0.73067506105E+03  0.15294330000E+03 0.  0.
    8880022    1    1    2    0    0 -0.46438945298E+03  0.45975582589E+03  0.56936448218E+03  0.88011394152E+03  0.15294330000E+03 0.  0.
<mgrwt>
<rscale>  0 0.67113682E+03</rscale>
<asrwt>0</asrwt>
<pdfrwt beam="1">  1        1 0.10233242E+00 0.67113682E+03</pdfrwt>
<pdfrwt beam="2">  1       -1 0.14548128E+00 0.67113682E+03</pdfrwt>
<totfact> 0.11598083E+01</totfact>
</mgrwt>
</event>
<event>
 4    1  0.1678003E-008  0.6708008E+03  0.7818608E-02  0.9768512E-01
          1   -1    0    0  501    0  0.00000000000E+00  0.00000000000E+00  0.10778288576E+04  0.10778288576E+04  0.50400000000E-02 0. -1.
         -1   -1    0    0    0  501 -0.00000000000E+00 -0.00000000000E+00 -0.54913724008E+03  0.54913724010E+03  0.50400000000E-02 0.  1.
    8880022    1    1    2    0    0  0.40938874258E+03 -0.50890361104E+03 -0.13397027883E+03  0.68404803670E+03  0.15294330000E+03 0.  0.
    8880022    1    1    2    0    0 -0.40938874258E+03  0.50890361104E+03  0.66266189636E+03  0.94291806102E+03  0.15294330000E+03 0.  0.
<mgrwt>
<rscale>  0 0.67080078E+03</rscale>
<asrwt>0</asrwt>
<pdfrwt beam="1">  1        1 0.16581982E+00 0.67080078E+03</pdfrwt>
<pdfrwt beam="2">  1       -1 0.84482653E-01 0.67080078E+03</pdfrwt>
<totfact> 0.19032099E+01</totfact>
</mgrwt>
</event>
<event>
 4    1  0.1678003E-008  0.4369647E+03  0.7818608E-02  0.1031682E+00
         -1   -1    0    0    0  501 -0.00000000000E+00  0.00000000000E+00  0.11274267486E+04  0.11274267486E+04  0.50400000000E-02 0.  1.
          1   -1    0    0  501    0  0.00000000000E+00 -0.00000000000E+00 -0.15921587000E+04  0.15921587001E+04  0.50400000000E-02 0. -1.
    8880022    1    1    2    0    0  0.40707436348E+03  0.42860055177E+02  0.10530735431E+04  0.11401324756E+04  0.15294330000E+03 0.  1.
    8880022    1    1    2    0    0 -0.40707436348E+03 -0.42860055177E+02 -0.15178054946E+04  0.15794529730E+04  0.15294330000E+03 0.  0.
<mgrwt>
<rscale>  0 0.43696473E+03</rscale>
<asrwt>0</asrwt>
<pdfrwt beam="1">  1        1 0.24494749E+00 0.43696473E+03</pdfrwt>
<pdfrwt beam="2">  1       -1 0.17345027E+00 0.43696473E+03</pdfrwt>
<totfact> 0.14978367E+00</totfact>
</mgrwt>
</event>
<event>
 4    1  0.1678003E-008  0.3342177E+03  0.7818608E-02  0.1069286E+00
         -1   -1    0    0    0  501 -0.00000000000E+00  0.00000000000E+00  0.43046317805E+03  0.43046317808E+03  0.50400000000E-02 0.  1.
          1   -1    0    0  501    0  0.00000000000E+00 -0.00000000000E+00 -0.14575391160E+04  0.14575391160E+04  0.50400000000E-02 0. -1.
    8880022    1    1    2    0    0  0.12519072103E+03  0.26951271355E+03  0.34231562542E+03  0.47841557230E+03  0.15294330000E+03 0.  0.
    8880022    1    1    2    0    0 -0.12519072103E+03 -0.26951271355E+03 -0.13693915634E+04  0.14095867218E+04  0.15294330000E+03 0. -1.
<mgrwt>
<rscale>  0 0.33421770E+03</rscale>
<asrwt>0</asrwt>
<pdfrwt beam="1">  1        1 0.22423679E+00 0.33421770E+03</pdfrwt>
<pdfrwt beam="2">  1       -1 0.66225105E-01 0.33421770E+03</pdfrwt>
<totfact> 0.18211113E+01</totfact>
</mgrwt>
</event>
<event>
 4    1  0.1678003E-008  0.8747714E+03  0.7818608E-02  0.9457680E-01
         -1   -1    0    0    0  501 -0.00000000000E+00  0.00000000000E+00  0.76430815149E+03  0.76430815151E+03  0.50400000000E-02 0.  1.
          1   -1    0    0  501    0  0.00000000000E+00 -0.00000000000E+00 -0.20209912056E+04  0.20209912056E+04  0.50400000000E-02 0. -1.
    8880022    1    1    2    0    0  0.75183195534E+03  0.42021667333E+03  0.36092973603E+03  0.94630611801E+03  0.15294330000E+03 0.  1.
    8880022    1    1    2    0    0 -0.75183195534E+03 -0.42021667333E+03 -0.16176127901E+04  0.18389932391E+04  0.15294330000E+03 0.  0.
<mgrwt>
<rscale>  0 0.87477140E+03</rscale>
<asrwt>0</asrwt>
<pdfrwt beam="1">  1        1 0.31092172E+00 0.87477140E+03</pdfrwt>
<pdfrwt beam="2">  1       -1 0.11758587E+00 0.87477140E+03</pdfrwt>
<totfact> 0.19345738E+00</totfact>
</mgrwt>
</event>
<event>
 4    1  0.1678003E-008  0.2856818E+03  0.7818608E-02  0.1092626E+00
          1   -1    0    0  501    0  0.00000000000E+00  0.00000000000E+00  0.95886047864E+03  0.95886047865E+03  0.50400000000E-02 0. -1.
         -1   -1    0    0    0  501 -0.00000000000E+00 -0.00000000000E+00 -0.24495112135E+03  0.24495112140E+03  0.50400000000E-02 0.  1.
    8880022    1    1    2    0    0 -0.21134584724E+03  0.11642744587E+03  0.84316630814E+03  0.89024911879E+03  0.15294330000E+03 0. -1.
    8880022    1    1    2    0    0  0.21134584724E+03 -0.11642744587E+03 -0.12925695085E+03  0.31356248127E+03  0.15294330000E+03 0.  0.
<mgrwt>
<rscale>  0 0.28568176E+03</rscale>
<asrwt>0</asrwt>
<pdfrwt beam="1">  1        1 0.14751700E+00 0.28568176E+03</pdfrwt>
<pdfrwt beam="2">  1       -1 0.37684788E-01 0.28568176E+03</pdfrwt>
<totfact> 0.11909587E+02</totfact>
</mgrwt>
</event>
<event>
 4    1  0.1678003E-008  0.5060181E+03  0.7818608E-02  0.1012220E+00
          1   -1    0    0  501    0  0.00000000000E+00  0.00000000000E+00  0.30714767520E+04  0.30714767520E+04  0.50400000000E-02 0. -1.
         -1   -1    0    0    0  501 -0.00000000000E+00 -0.00000000000E+00 -0.12661375743E+03  0.12661375753E+03  0.50400000000E-02 0.  1.
    8880022    1    1    2    0    0 -0.30903349214E+03  0.37035246566E+03  0.53787389481E+03  0.73848671472E+03  0.15294330000E+03 0.  0.
    8880022    1    1    2    0    0  0.30903349214E+03 -0.37035246566E+03  0.24069890998E+04  0.24596037948E+04  0.15294330000E+03 0.  0.
<mgrwt>
<rscale>  0 0.50601808E+03</rscale>
<asrwt>0</asrwt>
<pdfrwt beam="1">  1        1 0.47253487E+00 0.50601808E+03</pdfrwt>
<pdfrwt beam="2">  1       -1 0.19479040E-01 0.50601808E+03</pdfrwt>
<totfact> 0.12628862E+01</totfact>
</mgrwt>
</event>
<event>
 4    1  0.1678003E-008  0.3213076E+03  0.7818608E-02  0.1075049E+00
          1   -1    0    0  501    0  0.00000000000E+00  0.00000000000E+00  0.14369324986E+04  0.14369324986E+04  0.50400000000E-02 0. -1.
         -1   -1    0    0    0  501 -0.00000000000E+00 -0.00000000000E+00 -0.40293895593E+03  0.40293895596E+03  0.50400000000E-02 0.  1.
    8880022    1    1    2    0    0 -0.14732946873E+03 -0.24112431260E+03 -0.31690040862E+03  0.45129195482E+03  0.15294330000E+03 0.  1.
    8880022    1    1    2    0    0  0.14732946873E+03  0.24112431260E+03  0.13508939513E+04  0.13885794998E+04  0.15294330000E+03 0.  0.
<mgrwt>
<rscale>  0 0.32130758E+03</rscale>
<asrwt>0</asrwt>
<pdfrwt beam="1">  1        1 0.22106654E+00 0.32130758E+03</pdfrwt>
<pdfrwt beam="2">  1       -1 0.61990608E-01 0.32130758E+03</pdfrwt>
<totfact> 0.21502595E+01</totfact>
</mgrwt>
</event>
<event>
 4    1  0.1678003E-008  0.1165081E+04  0.7818608E-02  0.9143982E-01
          1   -1    0    0  501    0  0.00000000000E+00  0.00000000000E+00  0.24366839403E+04  0.24366839403E+04  0.50400000000E-02 0. -1.
         -1   -1    0    0    0  501 -0.00000000000E+00 -0.00000000000E+00 -0.73867696603E+03  0.73867696605E+03  0.50400000000E-02 0.  1.
    8880022    1    1    2    0    0  0.10239367231E+04  0.53439274321E+03  0.16362252500E+04  0.20086430092E+04  0.15294330000E+03 0.  0.
    8880022    1    1    2    0    0 -0.10239367231E+04 -0.53439274321E+03  0.61781724316E+02  0.11667178971E+04  0.15294330000E+03 0.  0.
<mgrwt>
<rscale>  0 0.11650810E+04</rscale>
<asrwt>0</asrwt>
<pdfrwt beam="1">  1        1 0.37487445E+00 0.11650810E+04</pdfrwt>
<pdfrwt beam="2">  1       -1 0.11364261E+00 0.11650810E+04</pdfrwt>
<totfact> 0.10511501E+00</totfact>
</mgrwt>
</event>
<event>
 4    1  0.1678003E-008  0.4367447E+03  0.7818608E-02  0.1031750E+00
         -1   -1    0    0    0  501 -0.00000000000E+00  0.00000000000E+00  0.43808809577E+03  0.43808809580E+03  0.50400000000E-02 0.  1.
          1   -1    0    0  501    0  0.00000000000E+00 -0.00000000000E+00 -0.26109594889E+04  0.26109594889E+04  0.50400000000E-02 0. -1.
    8880022    1    1    2    0    0 -0.34749714071E+03  0.21587039408E+03 -0.24780506214E+04  0.25162433954E+04  0.15294330000E+03 0.  0.
    8880022    1    1    2    0    0  0.34749714071E+03 -0.21587039408E+03  0.30517922820E+03  0.53280418934E+03  0.15294330000E+03 0.  0.
<mgrwt>
<rscale>  0 0.43674471E+03</rscale>
<asrwt>0</asrwt>
<pdfrwt beam="1">  1        1 0.40168607E+00 0.43674471E+03</pdfrwt>
<pdfrwt beam="2">  1       -1 0.67398170E-01 0.43674471E+03</pdfrwt>
<totfact> 0.29199227E+00</totfact>
</mgrwt>
</event>
<event>
 4    1  0.1678003E-008  0.7699931E+03  0.7818608E-02  0.9604496E-01
         -1   -1    0    0    0  501 -0.00000000000E+00  0.00000000000E+00  0.12389796972E+04  0.12389796973E+04  0.50400000000E-02 0.  1.
          1   -1    0    0  501    0  0.00000000000E+00 -0.00000000000E+00 -0.73892434222E+03  0.73892434223E+03  0.50400000000E-02 0. -1.
    8880022    1    1    2    0    0 -0.39533268087E+03 -0.64281395432E+03 -0.33704346470E+03  0.84052820211E+03  0.15294330000E+03 0.  0.
    8880022    1    1    2    0    0  0.39533268087E+03  0.64281395432E+03  0.83709881973E+03  0.11373758374E+04  0.15294330000E+03 0.  0.
<mgrwt>
<rscale>  0 0.76999309E+03</rscale>
<asrwt>0</asrwt>
<pdfrwt beam="1">  1        1 0.11368067E+00 0.76999309E+03</pdfrwt>
<pdfrwt beam="2">  1       -1 0.19061226E+00 0.76999309E+03</pdfrwt>
<totfact> 0.45330993E+00</totfact>
</mgrwt>
</event>
<event>
 4    1  0.1678003E-008  0.8046539E+03  0.7818608E-02  0.9553305E-01
          1   -1    0    0  501    0  0.00000000000E+00  0.00000000000E+00  0.79810079042E+03  0.79810079044E+03  0.50400000000E-02 0. -1.
         -1   -1    0    0    0  501 -0.00000000000E+00 -0.00000000000E+00 -0.10304954308E+04  0.10304954308E+04  0.50400000000E-02 0.  1.
    8880022    1    1    2    0    0 -0.47585743327E+03  0.63058379057E+03  0.30551801054E+03  0.86070269055E+03  0.15294330000E+03 0.  0.
    8880022    1    1    2    0    0  0.47585743327E+03 -0.63058379057E+03 -0.53791265090E+03  0.96789353069E+03  0.15294330000E+03 0.  0.
<mgrwt>
<rscale>  0 0.80465388E+03</rscale>
<asrwt>0</asrwt>
<pdfrwt beam="1">  1        1 0.12278474E+00 0.80465388E+03</pdfrwt>
<pdfrwt beam="2">  1       -1 0.15853776E+00 0.80465388E+03</pdfrwt>
<totfact> 0.68258432E+00</totfact>
</mgrwt>
</event>
<event>
 4    1  0.1678003E-008  0.2812796E+03  0.7818608E-02  0.1094992E+00
          1   -1    0    0  501    0  0.00000000000E+00  0.00000000000E+00  0.10885712982E+04  0.10885712982E+04  0.50400000000E-02 0. -1.
         -1   -1    0    0    0  501 -0.00000000000E+00 -0.00000000000E+00 -0.94945961804E+02  0.94945961938E+02  0.50400000000E-02 0.  1.
    8880022    1    1    2    0    0 -0.22857411177E+03  0.58995003561E+02  0.78337538154E+03  0.83234318429E+03  0.15294330000E+03 0.  0.
    8880022    1    1    2    0    0  0.22857411177E+03 -0.58995003561E+02  0.21024995482E+03  0.35117407582E+03  0.15294330000E+03 0.  0.
<mgrwt>
<rscale>  0 0.28127955E+03</rscale>
<asrwt>0</asrwt>
<pdfrwt beam="1">  1        1 0.16747251E+00 0.28127955E+03</pdfrwt>
<pdfrwt beam="2">  1       -1 0.14607071E-01 0.28127955E+03</pdfrwt>
<totfact> 0.46284618E+02</totfact>
</mgrwt>
</event>
<event>
 4    1  0.1678003E-008  0.1190184E+04  0.7818608E-02  0.9121492E-01
         -1   -1    0    0    0  501 -0.00000000000E+00  0.00000000000E+00  0.93472815416E+03  0.93472815417E+03  0.50400000000E-02 0.  1.
          1   -1    0    0  501    0  0.00000000000E+00 -0.00000000000E+00 -0.31456804460E+04  0.31456804460E+04  0.50400000000E-02 0. -1.
    8880022    1    1    2    0    0  0.94564277545E+03  0.70633310094E+03  0.36324789738E+03  0.12443823352E+04  0.15294330000E+03 0.  0.
    8880022    1    1    2    0    0 -0.94564277545E+03 -0.70633310094E+03 -0.25742001892E+04  0.28360262649E+04  0.15294330000E+03 0.  0.
<mgrwt>
<rscale>  0 0.11901842E+04</rscale>
<asrwt>0</asrwt>
<pdfrwt beam="1">  1        1 0.48395083E+00 0.11901842E+04</pdfrwt>
<pdfrwt beam="2">  1       -1 0.14380433E+00 0.11901842E+04</pdfrwt>
<totfact> 0.18171616E-01</totfact>
</mgrwt>
</event>
<event>
 4    1  0.1678003E-008  0.3568251E+03  0.7818608E-02  0.1059848E+00
         -1   -1    0    0    0  501 -0.00000000000E+00  0.00000000000E+00  0.28204384541E+03  0.28204384545E+03  0.50400000000E-02 0.  1.
          1   -1    0    0  501    0  0.00000000000E+00 -0.00000000000E+00 -0.30947691875E+04  0.30947691875E+04  0.50400000000E-02 0. -1.
    8880022    1    1    2    0    0  0.11693385940E+02  0.32217354005E+03 -0.29667736850E+04  0.29881549954E+04  0.15294330000E+03 0. -1.
    8880022    1    1    2    0    0 -0.11693385940E+02 -0.32217354005E+03  0.15404834295E+03  0.38865803757E+03  0.15294330000E+03 0.  0.
<mgrwt>
<rscale>  0 0.35682514E+03</rscale>
<asrwt>0</asrwt>
<pdfrwt beam="1">  1        1 0.47611831E+00 0.35682514E+03</pdfrwt>
<pdfrwt beam="2">  1       -1 0.43391363E-01 0.35682514E+03</pdfrwt>
<totfact> 0.32128711E+00</totfact>
</mgrwt>
</event>
<event>
 4    1  0.1678003E-008  0.7131305E+03  0.7818608E-02  0.9695037E-01
          1   -1    0    0  501    0  0.00000000000E+00  0.00000000000E+00  0.88654029152E+03  0.88654029153E+03  0.50400000000E-02 0. -1.
         -1   -1    0    0    0  501 -0.00000000000E+00 -0.00000000000E+00 -0.19082908747E+04  0.19082908747E+04  0.50400000000E-02 0.  1.
    8880022    1    1    2    0    0 -0.69245727688E+03 -0.75275123868E+02  0.65778184001E+03  0.97017113266E+03  0.15294330000E+03 0.  0.
    8880022    1    1    2    0    0  0.69245727688E+03  0.75275123868E+02 -0.16795324232E+04  0.18246600336E+04  0.15294330000E+03 0.  0.
<mgrwt>
<rscale>  0 0.71313048E+03</rscale>
<asrwt>0</asrwt>
<pdfrwt beam="1">  1        1 0.13639081E+00 0.71313048E+03</pdfrwt>
<pdfrwt beam="2">  1       -1 0.29358321E+00 0.71313048E+03</pdfrwt>
<totfact> 0.72381652E-01</totfact>
</mgrwt>
</event>
<event>
 4    1  0.1678003E-008  0.3605753E+03  0.7818608E-02  0.1058356E+00
         -1   -1    0    0    0  501 -0.00000000000E+00  0.00000000000E+00  0.97788502101E+03  0.97788502103E+03  0.50400000000E-02 0.  1.
          1   -1    0    0  501    0  0.00000000000E+00 -0.00000000000E+00 -0.19597593729E+03  0.19597593735E+03  0.50400000000E-02 0. -1.
    8880022    1    1    2    0    0  0.26874712148E+02  0.32542384585E+03  0.58120191923E+02  0.36522943382E+03  0.15294330000E+03 0.  0.
    8880022    1    1    2    0    0 -0.26874712148E+02 -0.32542384585E+03  0.72378889180E+03  0.80863152456E+03  0.15294330000E+03 0.  0.
<mgrwt>
<rscale>  0 0.36057535E+03</rscale>
<asrwt>0</asrwt>
<pdfrwt beam="1">  1        1 0.30150143E-01 0.36057535E+03</pdfrwt>
<pdfrwt beam="2">  1       -1 0.15044385E+00 0.36057535E+03</pdfrwt>
<totfact> 0.56075864E+01</totfact>
</mgrwt>
</event>
<event>
 4    1  0.1678003E-008  0.1726590E+03  0.7818608E-02  0.1175103E+00
         -1   -1    0    0    0  501 -0.00000000000E+00  0.00000000000E+00  0.10631093543E+03  0.10631093555E+03  0.50400000000E-02 0.  1.
          1   -1    0    0  501    0  0.00000000000E+00 -0.00000000000E+00 -0.78385251382E+03  0.78385251384E+03  0.50400000000E-02 0. -1.
    8880022    1    1    2    0    0  0.79616633764E+02  0.89809765844E+01 -0.69546463941E+03  0.71657671187E+03  0.15294330000E+03 0. -1.
    8880022    1    1    2    0    0 -0.79616633764E+02 -0.89809765844E+01  0.17923061014E+02  0.17358673752E+03  0.15294330000E+03 0.  0.
<mgrwt>
<rscale>  0 0.17265897E+03</rscale>
<asrwt>0</asrwt>
<pdfrwt beam="1">  1        1 0.12059269E+00 0.17265897E+03</pdfrwt>
<pdfrwt beam="2">  1       -1 0.16355529E-01 0.17265897E+03</pdfrwt>
<totfact> 0.67108179E+02</totfact>
</mgrwt>
</event>
<event>
 4    1  0.1678003E-008  0.3323666E+03  0.7818608E-02  0.1070094E+00
         -1   -1    0    0    0  501 -0.00000000000E+00  0.00000000000E+00  0.45844301623E+03  0.45844301626E+03  0.50400000000E-02 0.  1.
          1   -1    0    0  501    0  0.00000000000E+00 -0.00000000000E+00 -0.75235523989E+03  0.75235523990E+03  0.50400000000E-02 0. -1.
    8880022    1    1    2    0    0 -0.15221761726E+02  0.29469344307E+03  0.35216689677E+03  0.48424074964E+03  0.15294330000E+03 0.  1.
    8880022    1    1    2    0    0  0.15221761726E+02 -0.29469344307E+03 -0.64607912043E+03  0.72655750652E+03  0.15294330000E+03 0.  0.
<mgrwt>
<rscale>  0 0.33236664E+03</rscale>
<asrwt>0</asrwt>
<pdfrwt beam="1">  1        1 0.11574696E+00 0.33236664E+03</pdfrwt>
<pdfrwt beam="2">  1       -1 0.70529695E-01 0.33236664E+03</pdfrwt>
<totfact> 0.53532890E+01</totfact>
</mgrwt>
</event>
<event>
 4    1  0.1678003E-008  0.5274506E+03  0.7818608E-02  0.1006852E+00
         -1   -1    0    0    0  501 -0.00000000000E+00  0.00000000000E+00  0.12192560136E+04  0.12192560136E+04  0.50400000000E-02 0.  1.
          1   -1    0    0  501    0  0.00000000000E+00 -0.00000000000E+00 -0.37200431981E+03  0.37200431984E+03  0.50400000000E-02 0. -1.
    8880022    1    1    2    0    0 -0.34894768230E+03 -0.36475743597E+03 -0.71095314386E+02  0.53222050770E+03  0.15294330000E+03 0.  0.
    8880022    1    1    2    0    0  0.34894768230E+03  0.36475743597E+03  0.91834700815E+03  0.10590398257E+04  0.15294330000E+03 0.  0.
<mgrwt>
<rscale>  0 0.52745059E+03</rscale>
<asrwt>0</asrwt>
<pdfrwt beam="1">  1        1 0.57231433E-01 0.52745059E+03</pdfrwt>
<pdfrwt beam="2">  1       -1 0.18757785E+00 0.52745059E+03</pdfrwt>
<totfact> 0.12889624E+01</totfact>
</mgrwt>
</event>
<event>
 4    1  0.1678003E-008  0.2933759E+03  0.7818608E-02  0.1088600E+00
         -1   -1    0    0    0  501 -0.00000000000E+00  0.00000000000E+00  0.35422918176E+03  0.35422918180E+03  0.50400000000E-02 0.  1.
          1   -1    0    0  501    0  0.00000000000E+00 -0.00000000000E+00 -0.14049486704E+04  0.14049486704E+04  0.50400000000E-02 0. -1.
    8880022    1    1    2    0    0 -0.72530526700E+02  0.23961860093E+03 -0.13252812407E+04  0.13573650103E+04  0.15294330000E+03 0.  0.
    8880022    1    1    2    0    0  0.72530526700E+02 -0.23961860093E+03  0.27456175206E+03  0.40181284191E+03  0.15294330000E+03 0.  0.
<mgrwt>
<rscale>  0 0.29337588E+03</rscale>
<asrwt>0</asrwt>
<pdfrwt beam="1">  1        1 0.21614595E+00 0.29337588E+03</pdfrwt>
<pdfrwt beam="2">  1       -1 0.54496798E-01 0.29337588E+03</pdfrwt>
<totfact> 0.29205365E+01</totfact>
</mgrwt>
</event>
<event>
 4    1  0.1678003E-008  0.7055286E+03  0.7818608E-02  0.9707824E-01
         -1   -1    0    0    0  501 -0.00000000000E+00  0.00000000000E+00  0.36721148341E+03  0.36721148344E+03  0.50400000000E-02 0.  1.
          1   -1    0    0  501    0  0.00000000000E+00 -0.00000000000E+00 -0.16857629959E+04  0.16857629959E+04  0.50400000000E-02 0. -1.
    8880022    1    1    2    0    0  0.68506706884E+03  0.71148214233E+02 -0.20496020849E+03  0.73469673831E+03  0.15294330000E+03 0.  1.
    8880022    1    1    2    0    0 -0.68506706884E+03 -0.71148214233E+02 -0.11135913040E+04  0.13182777411E+04  0.15294330000E+03 0. -1.
<mgrwt>
<rscale>  0 0.70552860E+03</rscale>
<asrwt>0</asrwt>
<pdfrwt beam="1">  1        1 0.25934815E+00 0.70552860E+03</pdfrwt>
<pdfrwt beam="2">  1       -1 0.56494075E-01 0.70552860E+03</pdfrwt>
<totfact> 0.16151518E+01</totfact>
</mgrwt>
</event>
<event>
 4    1  0.1678003E-008  0.8848610E+03  0.7818608E-02  0.9444706E-01
         -1   -1    0    0    0  501 -0.00000000000E+00  0.00000000000E+00  0.42926289000E+04  0.42926289000E+04  0.50400000000E-02 0.  1.
          1   -1    0    0  501    0  0.00000000000E+00 -0.00000000000E+00 -0.56604165385E+03  0.56604165388E+03  0.50400000000E-02 0. -1.
    8880022    1    1    2    0    0 -0.82712698551E+03 -0.27467847334E+03  0.38632737614E+04  0.39633146635E+04  0.15294330000E+03 0.  0.
    8880022    1    1    2    0    0  0.82712698551E+03  0.27467847334E+03 -0.13668651524E+03  0.89535589033E+03  0.15294330000E+03 0.  0.
<mgrwt>
<rscale>  0 0.88486099E+03</rscale>
<asrwt>0</asrwt>
<pdfrwt beam="1">  1        1 0.87083330E-01 0.88486099E+03</pdfrwt>
<pdfrwt beam="2">  1       -1 0.66040445E+00 0.88486099E+03</pdfrwt>
<totfact> 0.10224206E-02</totfact>
</mgrwt>
</event>
<event>
 4    1  0.1678003E-008  0.2063267E+03  0.7818608E-02  0.1144508E+00
          1   -1    0    0  501    0  0.00000000000E+00  0.00000000000E+00  0.25490314665E+03  0.25490314670E+03  0.50400000000E-02 0. -1.
         -1   -1    0    0    0  501 -0.00000000000E+00 -0.00000000000E+00 -0.47691689757E+03  0.47691689759E+03  0.50400000000E-02 0.  1.
    8880022    1    1    2    0    0  0.64603991421E+01 -0.13833769380E+03  0.18395806926E+03  0.27642590064E+03  0.15294330000E+03 0.  0.
    8880022    1    1    2    0    0 -0.64603991421E+01  0.13833769380E+03 -0.40597182017E+03  0.45539414365E+03  0.15294330000E+03 0.  0.
<mgrwt>
<rscale>  0 0.20632670E+03</rscale>
<asrwt>0</asrwt>
<pdfrwt beam="1">  1        1 0.39215869E-01 0.20632670E+03</pdfrwt>
<pdfrwt beam="2">  1       -1 0.73371831E-01 0.20632670E+03</pdfrwt>
<totfact> 0.21306469E+02</totfact>
</mgrwt>
</event>
<event>
 4    1  0.1678003E-008  0.8822983E+03  0.7818608E-02  0.9447984E-01
         -1   -1    0    0    0  501 -0.00000000000E+00  0.00000000000E+00  0.10029543856E+04  0.10029543856E+04  0.50400000000E-02 0.  1.
          1   -1    0    0  501    0  0.00000000000E+00 -0.00000000000E+00 -0.12888472549E+04  0.12888472549E+04  0.50400000000E-02 0. -1.
    8880022    1    1    2    0    0 -0.32205599161E+03 -0.80705548041E+03 -0.86567255884E+03  0.12360579446E+04  0.15294330000E+03 0.  0.
    8880022    1    1    2    0    0  0.32205599161E+03  0.80705548041E+03  0.57977968951E+03  0.10557436960E+04  0.15294330000E+03 0.  0.
<mgrwt>
<rscale>  0 0.88229828E+03</rscale>
<asrwt>0</asrwt>
<pdfrwt beam="1">  1        1 0.19828419E+00 0.88229828E+03</pdfrwt>
<pdfrwt beam="2">  1       -1 0.15430067E+00 0.88229828E+03</pdfrwt>
<totfact> 0.30373379E+00</totfact>
</mgrwt>
</event>
<event>
 4    1  0.1678003E-008  0.2848756E+03  0.7818608E-02  0.1093055E+00
         -1   -1    0    0    0  501 -0.00000000000E+00  0.00000000000E+00  0.55636663195E+03  0.55636663197E+03  0.50400000000E-02 0.  1.
          1   -1    0    0  501    0  0.00000000000E+00 -0.00000000000E+00 -0.64550377622E+03  0.64550377624E+03  0.50400000000E-02 0. -1.
    8880022    1    1    2    0    0 -0.23694777452E+03 -0.40227119045E+02  0.48412807094E+03  0.56172423042E+03  0.15294330000E+03 0.  0.
    8880022    1    1    2    0    0  0.23694777452E+03  0.40227119045E+02 -0.57326521521E+03  0.64014617779E+03  0.15294330000E+03 0.  0.
<mgrwt>
<rscale>  0 0.28487563E+03</rscale>
<asrwt>0</asrwt>
<pdfrwt beam="1">  1        1 0.99308274E-01 0.28487563E+03</pdfrwt>
<pdfrwt beam="2">  1       -1 0.85594866E-01 0.28487563E+03</pdfrwt>
<totfact> 0.45405892E+01</totfact>
</mgrwt>
</event>
<event>
 4    1  0.1678003E-008  0.9130579E+03  0.7818608E-02  0.9409404E-01
          1   -1    0    0  501    0  0.00000000000E+00  0.00000000000E+00  0.13029553896E+04  0.13029553896E+04  0.50400000000E-02 0. -1.
         -1   -1    0    0    0  501 -0.00000000000E+00 -0.00000000000E+00 -0.88586771759E+03  0.88586771761E+03  0.50400000000E-02 0.  1.
    8880022    1    1    2    0    0  0.78694421529E+03  0.43703761606E+03 -0.36821444276E+03  0.98450830606E+03  0.15294330000E+03 0.  0.
    8880022    1    1    2    0    0 -0.78694421529E+03 -0.43703761606E+03  0.78530211479E+03  0.12043148012E+04  0.15294330000E+03 0.  0.
<mgrwt>
<rscale>  0 0.91305790E+03</rscale>
<asrwt>0</asrwt>
<pdfrwt beam="1">  1        1 0.20045467E+00 0.91305790E+03</pdfrwt>
<pdfrwt beam="2">  1       -1 0.13628734E+00 0.91305790E+03</pdfrwt>
<totfact> 0.41081332E+00</totfact>
</mgrwt>
</event>
<event>
 4    1  0.1678003E-008  0.2120167E+03  0.7818608E-02  0.1139979E+00
          1   -1    0    0  501    0  0.00000000000E+00  0.00000000000E+00  0.54531471389E+03  0.54531471391E+03  0.50400000000E-02 0. -1.
         -1   -1    0    0    0  501 -0.00000000000E+00 -0.00000000000E+00 -0.24586623238E+03  0.24586623243E+03  0.50400000000E-02 0.  1.
    8880022    1    1    2    0    0 -0.38267026831E+02 -0.14175702677E+03 -0.17280466929E+03  0.27351878678E+03  0.15294330000E+03 0.  0.
    8880022    1    1    2    0    0  0.38267026831E+02  0.14175702677E+03  0.47225315080E+03  0.51766215956E+03  0.15294330000E+03 0. -1.
<mgrwt>
<rscale>  0 0.21201668E+03</rscale>
<asrwt>0</asrwt>
<pdfrwt beam="1">  1        1 0.83894570E-01 0.21201668E+03</pdfrwt>
<pdfrwt beam="2">  1       -1 0.37825575E-01 0.21201668E+03</pdfrwt>
<totfact> 0.27799911E+02</totfact>
</mgrwt>
</event>
<event>
 4    1  0.1678003E-008  0.6630560E+03  0.7818608E-02  0.9782584E-01
          1   -1    0    0  501    0  0.00000000000E+00  0.00000000000E+00  0.11208871234E+04  0.11208871234E+04  0.50400000000E-02 0. -1.
         -1   -1    0    0    0  501 -0.00000000000E+00 -0.00000000000E+00 -0.50381120514E+03  0.50381120517E+03  0.50400000000E-02 0.  1.
    8880022    1    1    2    0    0 -0.38984893934E+03  0.51407135912E+03 -0.73765672229E+02  0.66714659947E+03  0.15294330000E+03 0.  0.
    8880022    1    1    2    0    0  0.38984893934E+03 -0.51407135912E+03  0.69084159051E+03  0.95755172913E+03  0.15294330000E+03 0.  1.
<mgrwt>
<rscale>  0 0.66305596E+03</rscale>
<asrwt>0</asrwt>
<pdfrwt beam="1">  1        1 0.17244417E+00 0.66305596E+03</pdfrwt>
<pdfrwt beam="2">  1       -1 0.77509417E-01 0.66305596E+03</pdfrwt>
<totfact> 0.21253635E+01</totfact>
</mgrwt>
</event>
<event>
 4    1  0.1678003E-008  0.2259795E+03  0.7818608E-02  0.1129502E+00
         -1   -1    0    0    0  501 -0.00000000000E+00  0.00000000000E+00  0.12309507101E+03  0.12309507111E+03  0.50400000000E-02 0.  1.
          1   -1    0    0  501    0  0.00000000000E+00 -0.00000000000E+00 -0.22604460458E+04  0.22604460458E+04  0.50400000000E-02 0. -1.
    8880022    1    1    2    0    0  0.13238012220E+03 -0.10075017882E+03 -0.21455452451E+04  0.21574130683E+04  0.15294330000E+03 0.  0.
    8880022    1    1    2    0    0 -0.13238012220E+03  0.10075017882E+03  0.81942703633E+01  0.22612804861E+03  0.15294330000E+03 0.  0.
<mgrwt>
<rscale>  0 0.22597953E+03</rscale>
<asrwt>0</asrwt>
<pdfrwt beam="1">  1        1 0.34776090E+00 0.22597953E+03</pdfrwt>
<pdfrwt beam="2">  1       -1 0.18937705E-01 0.22597953E+03</pdfrwt>
<totfact> 0.51556649E+01</totfact>
</mgrwt>
</event>
<event>
 4    1  0.1678003E-008  0.5479540E+03  0.7818608E-02  0.1001969E+00
         -1   -1    0    0    0  501 -0.00000000000E+00  0.00000000000E+00  0.30481868226E+03  0.30481868231E+03  0.50400000000E-02 0.  1.
          1   -1    0    0  501    0  0.00000000000E+00 -0.00000000000E+00 -0.12304629288E+04  0.12304629288E+04  0.50400000000E-02 0. -1.
    8880022    1    1    2    0    0  0.37946775510E+03 -0.36450816008E+03 -0.11997874439E+03  0.56093540452E+03  0.15294330000E+03 0.  0.
    8880022    1    1    2    0    0 -0.37946775510E+03  0.36450816008E+03 -0.80566550210E+03  0.97434620655E+03  0.15294330000E+03 0.  0.
<mgrwt>
<rscale>  0 0.54795404E+03</rscale>
<asrwt>0</asrwt>
<pdfrwt beam="1">  1        1 0.18930199E+00 0.54795404E+03</pdfrwt>
<pdfrwt beam="2">  1       -1 0.46895183E-01 0.54795404E+03</pdfrwt>
<totfact> 0.48404695E+01</totfact>
</mgrwt>
</event>
<event>
 4    1  0.1678003E-008  0.2472057E+03  0.7818608E-02  0.1115084E+00
          1   -1    0    0  501    0  0.00000000000E+00  0.00000000000E+00  0.30941727696E+03  0.30941727700E+03  0.50400000000E-02 0. -1.
         -1   -1    0    0    0  501 -0.00000000000E+00 -0.00000000000E+00 -0.43225868364E+03  0.43225868367E+03  0.50400000000E-02 0.  1.
    8880022    1    1    2    0    0 -0.18562026669E+03  0.57132323002E+02  0.21186757503E+03  0.32557412075E+03  0.15294330000E+03 0.  0.
    8880022    1    1    2    0    0  0.18562026669E+03 -0.57132323002E+02 -0.33470898171E+03  0.41610183992E+03  0.15294330000E+03 0.  0.
<mgrwt>
<rscale>  0 0.24720566E+03</rscale>
<asrwt>0</asrwt>
<pdfrwt beam="1">  1        1 0.47602658E-01 0.24720566E+03</pdfrwt>
<pdfrwt beam="2">  1       -1 0.66501336E-01 0.24720566E+03</pdfrwt>
<totfact> 0.20229738E+02</totfact>
</mgrwt>
</event>
<event>
 4    1  0.1678003E-008  0.5472706E+03  0.7818608E-02  0.1002128E+00
          1   -1    0    0  501    0  0.00000000000E+00  0.00000000000E+00  0.47984630734E+03  0.47984630736E+03  0.50400000000E-02 0. -1.
         -1   -1    0    0    0  501 -0.00000000000E+00 -0.00000000000E+00 -0.10538666777E+04  0.10538666777E+04  0.50400000000E-02 0.  1.
    8880022    1    1    2    0    0 -0.35785012902E+03 -0.38478136026E+03 -0.77667951068E+03  0.95012426838E+03  0.15294330000E+03 0.  1.
    8880022    1    1    2    0    0  0.35785012902E+03  0.38478136026E+03  0.20265914034E+03  0.58358871667E+03  0.15294330000E+03 0.  0.
<mgrwt>
<rscale>  0 0.54727056E+03</rscale>
<asrwt>0</asrwt>
<pdfrwt beam="1">  1        1 0.73822509E-01 0.54727056E+03</pdfrwt>
<pdfrwt beam="2">  1       -1 0.16213333E+00 0.54727056E+03</pdfrwt>
<totfact> 0.13965028E+01</totfact>
</mgrwt>
</event>
<event>
 4    1  0.1678003E-008  0.8263381E+03  0.7818608E-02  0.9522657E-01
         -1   -1    0    0    0  501 -0.00000000000E+00  0.00000000000E+00  0.96827307116E+03  0.96827307117E+03  0.50400000000E-02 0.  1.
          1   -1    0    0  501    0  0.00000000000E+00 -0.00000000000E+00 -0.84589637375E+03  0.84589637377E+03  0.50400000000E-02 0. -1.
    8880022    1    1    2    0    0 -0.93934265068E+01  0.81200664718E+03 -0.30873960530E+03  0.88213084541E+03  0.15294330000E+03 0.  0.
    8880022    1    1    2    0    0  0.93934265068E+01 -0.81200664718E+03  0.43111630270E+03  0.93203859952E+03  0.15294330000E+03 0.  0.
<mgrwt>
<rscale>  0 0.82633812E+03</rscale>
<asrwt>0</asrwt>
<pdfrwt beam="1">  1        1 0.13013790E+00 0.82633812E+03</pdfrwt>
<pdfrwt beam="2">  1       -1 0.14896509E+00 0.82633812E+03</pdfrwt>
<totfact> 0.73390865E+00</totfact>
</mgrwt>
</event>
<event>
 4    1  0.1678003E-008  0.7548333E+03  0.7818608E-02  0.9627798E-01
         -1   -1    0    0    0  501 -0.00000000000E+00  0.00000000000E+00  0.17636529566E+04  0.17636529567E+04  0.50400000000E-02 0.  1.
          1   -1    0    0  501    0  0.00000000000E+00 -0.00000000000E+00 -0.56301178338E+03  0.56301178340E+03  0.50400000000E-02 0. -1.
    8880022    1    1    2    0    0  0.46726169103E+03 -0.57275489471E+03 -0.15913637742E+03  0.77142575595E+03  0.15294330000E+03 0.  0.
    8880022    1    1    2    0    0 -0.46726169103E+03  0.57275489471E+03  0.13597775507E+04  0.15552389841E+04  0.15294330000E+03 0.  0.
<mgrwt>
<rscale>  0 0.75483330E+03</rscale>
<asrwt>0</asrwt>
<pdfrwt beam="1">  1        1 0.86617198E-01 0.75483330E+03</pdfrwt>
<pdfrwt beam="2">  1       -1 0.27133122E+00 0.75483330E+03</pdfrwt>
<totfact> 0.19906406E+00</totfact>
</mgrwt>
</event>
<event>
 4    1  0.1678003E-008  0.2110600E+03  0.7818608E-02  0.1140729E+00
         -1   -1    0    0    0  501 -0.00000000000E+00  0.00000000000E+00  0.51357418967E+02  0.51357419215E+02  0.50400000000E-02 0.  1.
          1   -1    0    0  501    0  0.00000000000E+00 -0.00000000000E+00 -0.11575917449E+04  0.11575917449E+04  0.50400000000E-02 0. -1.
    8880022    1    1    2    0    0 -0.11925555571E+03 -0.83263399286E+02 -0.85577976180E+03  0.88142233631E+03  0.15294330000E+03 0.  0.
    8880022    1    1    2    0    0  0.11925555571E+03  0.83263399286E+02 -0.25045456413E+03  0.32752682781E+03  0.15294330000E+03 0. -1.
<mgrwt>
<rscale>  0 0.21106003E+03</rscale>
<asrwt>0</asrwt>
<pdfrwt beam="1">  1        1 0.17809102E+00 0.21106003E+03</pdfrwt>
<pdfrwt beam="2">  1       -1 0.79011423E-02 0.21106003E+03</pdfrwt>
<totfact> 0.10803219E+03</totfact>
</mgrwt>
</event>
<event>
 4    1  0.1678003E-008  0.5234300E+03  0.7818608E-02  0.1007838E+00
          1   -1    0    0  501    0  0.00000000000E+00  0.00000000000E+00  0.22758141979E+04  0.22758141979E+04  0.50400000000E-02 0. -1.
         -1   -1    0    0    0  501 -0.00000000000E+00 -0.00000000000E+00 -0.34654970203E+03  0.34654970207E+03  0.50400000000E-02 0.  1.
    8880022    1    1    2    0    0  0.31678903223E+03  0.38759780550E+03 -0.94598193140E+02  0.53190959845E+03  0.15294330000E+03 0.  0.
    8880022    1    1    2    0    0 -0.31678903223E+03 -0.38759780550E+03  0.20238626891E+04  0.20904543016E+04  0.15294330000E+03 0.  0.
<mgrwt>
<rscale>  0 0.52343004E+03</rscale>
<asrwt>0</asrwt>
<pdfrwt beam="1">  1        1 0.35012526E+00 0.52343004E+03</pdfrwt>
<pdfrwt beam="2">  1       -1 0.53315339E-01 0.52343004E+03</pdfrwt>
<totfact> 0.75622010E+00</totfact>
</mgrwt>
</event>
<event>
 4    1  0.1678003E-008  0.1029426E+04  0.7818608E-02  0.9276847E-01
          1   -1    0    0  501    0  0.00000000000E+00  0.00000000000E+00  0.25423826842E+04  0.25423826842E+04  0.50400000000E-02 0. -1.
         -1   -1    0    0    0  501 -0.00000000000E+00 -0.00000000000E+00 -0.10194594427E+04  0.10194594427E+04  0.50400000000E-02 0.  1.
    8880022    1    1    2    0    0 -0.89338263893E+02 -0.10140736655E+04 -0.60780533161E+03  0.11954688195E+04  0.15294330000E+03 0.  0.
    8880022    1    1    2    0    0  0.89338263893E+02  0.10140736655E+04  0.21307285731E+04  0.23663733073E+04  0.15294330000E+03 0.  0.
<mgrwt>
<rscale>  0 0.10294262E+04</rscale>
<asrwt>0</asrwt>
<pdfrwt beam="1">  1        1 0.39113579E+00 0.10294262E+04</pdfrwt>
<pdfrwt beam="2">  1       -1 0.15683992E+00 0.10294262E+04</pdfrwt>
<totfact> 0.39652115E-01</totfact>
</mgrwt>
</event>
<event>
 4    1  0.1678003E-008  0.4712221E+03  0.7818608E-02  0.1021576E+00
         -1   -1    0    0    0  501 -0.00000000000E+00  0.00000000000E+00  0.14125866612E+04  0.14125866612E+04  0.50400000000E-02 0.  1.
          1   -1    0    0  501    0  0.00000000000E+00 -0.00000000000E+00 -0.29125906761E+03  0.29125906765E+03  0.50400000000E-02 0. -1.
    8880022    1    1    2    0    0  0.42158893967E+03 -0.14464233704E+03 -0.17323370603E+02  0.47154044567E+03  0.15294330000E+03 0.  0.
    8880022    1    1    2    0    0 -0.42158893967E+03  0.14464233704E+03  0.11386509642E+04  0.12323052832E+04  0.15294330000E+03 0.  0.
<mgrwt>
<rscale>  0 0.47122213E+03</rscale>
<asrwt>0</asrwt>
<pdfrwt beam="1">  1        1 0.44809088E-01 0.47122213E+03</pdfrwt>
<pdfrwt beam="2">  1       -1 0.21732102E+00 0.47122213E+03</pdfrwt>
<totfact> 0.11239319E+01</totfact>
</mgrwt>
</event>
<event>
 4    1  0.1678003E-008  0.2604511E+03  0.7818608E-02  0.1106872E+00
         -1   -1    0    0    0  501 -0.00000000000E+00  0.00000000000E+00  0.44002103333E+03  0.44002103336E+03  0.50400000000E-02 0.  1.
          1   -1    0    0  501    0  0.00000000000E+00 -0.00000000000E+00 -0.13180059284E+04  0.13180059284E+04  0.50400000000E-02 0. -1.
    8880022    1    1    2    0    0  0.12878107958E+03  0.16690887797E+03 -0.12650001778E+04  0.12915340657E+04  0.15294330000E+03 0. -1.
    8880022    1    1    2    0    0 -0.12878107958E+03 -0.16690887797E+03  0.38701528273E+03  0.46649289607E+03  0.15294330000E+03 0.  0.
<mgrwt>
<rscale>  0 0.26045113E+03</rscale>
<asrwt>0</asrwt>
<pdfrwt beam="1">  1        1 0.20277014E+00 0.26045113E+03</pdfrwt>
<pdfrwt beam="2">  1       -1 0.67695544E-01 0.26045113E+03</pdfrwt>
<totfact> 0.22231970E+01</totfact>
</mgrwt>
</event>
<event>
 4    1  0.1678003E-008  0.5334859E+03  0.7818608E-02  0.1005390E+00
          1   -1    0    0  501    0  0.00000000000E+00  0.00000000000E+00  0.13736423864E+04  0.13736423864E+04  0.50400000000E-02 0. -1.
         -1   -1    0    0    0  501 -0.00000000000E+00 -0.00000000000E+00 -0.65908128065E+03  0.65908128067E+03  0.50400000000E-02 0.  1.
    8880022    1    1    2    0    0  0.50705375390E+03 -0.64125313205E+02 -0.48429876220E+03  0.72052238634E+03  0.15294330000E+03 0.  0.
    8880022    1    1    2    0    0 -0.50705375390E+03  0.64125313205E+02  0.11988598679E+04  0.13122012807E+04  0.15294330000E+03 0. -1.
<mgrwt>
<rscale>  0 0.53348591E+03</rscale>
<asrwt>0</asrwt>
<pdfrwt beam="1">  1        1 0.21132960E+00 0.53348591E+03</pdfrwt>
<pdfrwt beam="2">  1       -1 0.10139712E+00 0.53348591E+03</pdfrwt>
<totfact> 0.79943104E+00</totfact>
</mgrwt>
</event>
<event>
 4    1  0.1678003E-008  0.9112998E+03  0.7818608E-02  0.9411565E-01
          1   -1    0    0  501    0  0.00000000000E+00  0.00000000000E+00  0.79901402497E+03  0.79901402498E+03  0.50400000000E-02 0. -1.
         -1   -1    0    0    0  501 -0.00000000000E+00 -0.00000000000E+00 -0.14000649172E+04  0.14000649172E+04  0.50400000000E-02 0.  1.
    8880022    1    1    2    0    0 -0.74526545585E+03 -0.50165226581E+03 -0.85862250195E+03  0.12520782121E+04  0.15294330000E+03 0.  0.
    8880022    1    1    2    0    0  0.74526545585E+03  0.50165226581E+03  0.25757160975E+03  0.94700073001E+03  0.15294330000E+03 0.  0.
<mgrwt>
<rscale>  0 0.91129976E+03</rscale>
<asrwt>0</asrwt>
<pdfrwt beam="1">  1        1 0.12292524E+00 0.91129976E+03</pdfrwt>
<pdfrwt beam="2">  1       -1 0.21539460E+00 0.91129976E+03</pdfrwt>
<totfact> 0.26616559E+00</totfact>
</mgrwt>
</event>
<event>
 4    1  0.1678003E-008  0.1827571E+03  0.7818608E-02  0.1165161E+00
         -1   -1    0    0    0  501 -0.00000000000E+00  0.00000000000E+00  0.38055056594E+03  0.38055056597E+03  0.50400000000E-02 0.  1.
          1   -1    0    0  501    0  0.00000000000E+00 -0.00000000000E+00 -0.17971553080E+04  0.17971553080E+04  0.50400000000E-02 0. -1.
    8880022    1    1    2    0    0 -0.61949212894E+01 -0.99850494406E+02 -0.17702342613E+04  0.17796430797E+04  0.15294330000E+03 0.  0.
    8880022    1    1    2    0    0  0.61949212894E+01  0.99850494406E+02  0.35362951924E+03  0.39806279426E+03  0.15294330000E+03 0.  1.
<mgrwt>
<rscale>  0 0.18275708E+03</rscale>
<asrwt>0</asrwt>
<pdfrwt beam="1">  1        1 0.27648543E+00 0.18275708E+03</pdfrwt>
<pdfrwt beam="2">  1       -1 0.58546242E-01 0.18275708E+03</pdfrwt>
<totfact> 0.14842104E+01</totfact>
</mgrwt>
</event>
<event>
 4    1  0.1678003E-008  0.3027684E+03  0.7818608E-02  0.1083865E+00
          1   -1    0    0  501    0  0.00000000000E+00  0.00000000000E+00  0.22546807914E+04  0.22546807914E+04  0.50400000000E-02 0. -1.
         -1   -1    0    0    0  501 -0.00000000000E+00 -0.00000000000E+00 -0.69501650321E+02  0.69501650504E+02  0.50400000000E-02 0.  1.
    8880022    1    1    2    0    0 -0.25351843993E+03 -0.63288680232E+02  0.18412326120E+04  0.18659598712E+04  0.15294330000E+03 0.  1.
    8880022    1    1    2    0    0  0.25351843993E+03  0.63288680232E+02  0.34394652911E+03  0.45822257074E+03  0.15294330000E+03 0.  0.
<mgrwt>
<rscale>  0 0.30276841E+03</rscale>
<asrwt>0</asrwt>
<pdfrwt beam="1">  1        1 0.34687392E+00 0.30276841E+03</pdfrwt>
<pdfrwt beam="2">  1       -1 0.10692563E-01 0.30276841E+03</pdfrwt>
<totfact> 0.12568230E+02</totfact>
</mgrwt>
</event>
<event>
 4    1  0.1678003E-008  0.8075555E+03  0.7818608E-02  0.9549145E-01
          1   -1    0    0  501    0  0.00000000000E+00  0.00000000000E+00  0.10839881170E+04  0.10839881170E+04  0.50400000000E-02 0. -1.
         -1   -1    0    0    0  501 -0.00000000000E+00 -0.00000000000E+00 -0.12219199468E+04  0.12219199468E+04  0.50400000000E-02 0.  1.
    8880022    1    1    2    0    0 -0.78422988553E+03 -0.11720781004E+03 -0.89043738766E+03  0.12020917513E+04  0.15294330000E+03 0.  0.
    8880022    1    1    2    0    0  0.78422988553E+03  0.11720781004E+03  0.75250555791E+03  0.11038163125E+04  0.15294330000E+03 0.  0.
<mgrwt>
<rscale>  0 0.80755547E+03</rscale>
<asrwt>0</asrwt>
<pdfrwt beam="1">  1        1 0.16676740E+00 0.80755547E+03</pdfrwt>
<pdfrwt beam="2">  1       -1 0.18798768E+00 0.80755547E+03</pdfrwt>
<totfact> 0.24570013E+00</totfact>
</mgrwt>
</event>
<event>
 4    1  0.1678003E-008  0.9670207E+03  0.7818608E-02  0.9345474E-01
          1   -1    0    0  501    0  0.00000000000E+00  0.00000000000E+00  0.30445559474E+04  0.30445559474E+04  0.50400000000E-02 0. -1.
         -1   -1    0    0    0  501 -0.00000000000E+00 -0.00000000000E+00 -0.45512540952E+03  0.45512540955E+03  0.50400000000E-02 0.  1.
    8880022    1    1    2    0    0  0.88131704458E+03 -0.36744759021E+03  0.22924859785E+04  0.24880958742E+04  0.15294330000E+03 0.  0.
    8880022    1    1    2    0    0 -0.88131704458E+03  0.36744759021E+03  0.29694455944E+03  0.10115854828E+04  0.15294330000E+03 0.  0.
<mgrwt>
<rscale>  0 0.96702074E+03</rscale>
<asrwt>0</asrwt>
<pdfrwt beam="1">  1        1 0.46839323E+00 0.96702074E+03</pdfrwt>
<pdfrwt beam="2">  1       -1 0.70019293E-01 0.96702074E+03</pdfrwt>
<totfact> 0.11831557E+00</totfact>
</mgrwt>
</event>
<event>
 4    1  0.1678003E-008  0.4029776E+03  0.7818608E-02  0.1042753E+00
         -1   -1    0    0    0  501 -0.00000000000E+00  0.00000000000E+00  0.17020398248E+03  0.17020398255E+03  0.50400000000E-02 0.  1.
          1   -1    0    0  501    0  0.00000000000E+00 -0.00000000000E+00 -0.26802517679E+04  0.26802517679E+04  0.50400000000E-02 0. -1.
    8880022    1    1    2    0    0  0.29252488905E+03  0.23114607363E+03 -0.23987880440E+04  0.24324010876E+04  0.15294330000E+03 0.  0.
    8880022    1    1    2    0    0 -0.29252488905E+03 -0.23114607363E+03 -0.11125974148E+03  0.41805466289E+03  0.15294330000E+03 0.  1.
<mgrwt>
<rscale>  0 0.40297763E+03</rscale>
<asrwt>0</asrwt>
<pdfrwt beam="1">  1        1 0.41234639E+00 0.40297763E+03</pdfrwt>
<pdfrwt beam="2">  1       -1 0.26185230E-01 0.40297763E+03</pdfrwt>
<totfact> 0.14873056E+01</totfact>
</mgrwt>
</event>
<event>
 4    1  0.1678003E-008  0.2250616E+03  0.7818608E-02  0.1130165E+00
          1   -1    0    0  501    0  0.00000000000E+00  0.00000000000E+00  0.30836463827E+03  0.30836463831E+03  0.50400000000E-02 0. -1.
         -1   -1    0    0    0  501 -0.00000000000E+00 -0.00000000000E+00 -0.34890452312E+03  0.34890452315E+03  0.50400000000E-02 0.  1.
    8880022    1    1    2    0    0  0.16464103327E+03 -0.12426323433E+02 -0.25934004830E+03  0.34338025135E+03  0.15294330000E+03 0.  0.
    8880022    1    1    2    0    0 -0.16464103327E+03  0.12426323433E+02  0.21880016345E+03  0.31388891011E+03  0.15294330000E+03 0.  0.
<mgrwt>
<rscale>  0 0.22506163E+03</rscale>
<asrwt>0</asrwt>
<pdfrwt beam="1">  1        1 0.47440713E-01 0.22506163E+03</pdfrwt>
<pdfrwt beam="2">  1       -1 0.53677619E-01 0.22506163E+03</pdfrwt>
<totfact> 0.30741516E+02</totfact>
</mgrwt>
</event>
<event>
 4    1  0.1678003E-008  0.6412806E+03  0.7818608E-02  0.9823280E-01
         -1   -1    0    0    0  501 -0.00000000000E+00  0.00000000000E+00  0.79777888979E+03  0.79777888981E+03  0.50400000000E-02 0.  1.
          1   -1    0    0  501    0  0.00000000000E+00 -0.00000000000E+00 -0.12066533476E+04  0.12066533476E+04  0.50400000000E-02 0. -1.
    8880022    1    1    2    0    0  0.93562167919E+01 -0.62270503528E+03  0.55407563032E+03  0.84749074148E+03  0.15294330000E+03 0.  0.
    8880022    1    1    2    0    0 -0.93562167919E+01  0.62270503528E+03 -0.96295008809E+03  0.11569414959E+04  0.15294330000E+03 0.  0.
<mgrwt>
<rscale>  0 0.64128056E+03</rscale>
<asrwt>0</asrwt>
<pdfrwt beam="1">  1        1 0.18563898E+00 0.64128056E+03</pdfrwt>
<pdfrwt beam="2">  1       -1 0.12273521E+00 0.64128056E+03</pdfrwt>
<totfact> 0.65346096E+00</totfact>
</mgrwt>
</event>
<event>
 4    1  0.1678003E-008  0.2541098E+03  0.7818608E-02  0.1110735E+00
          1   -1    0    0  501    0  0.00000000000E+00  0.00000000000E+00  0.11695891366E+04  0.11695891366E+04  0.50400000000E-02 0. -1.
         -1   -1    0    0    0  501 -0.00000000000E+00 -0.00000000000E+00 -0.40117756613E+03  0.40117756616E+03  0.50400000000E-02 0.  1.
    8880022    1    1    2    0    0 -0.13907873766E+03 -0.14777432856E+03  0.11135486134E+04  0.11421743803E+04  0.15294330000E+03 0. -1.
    8880022    1    1    2    0    0  0.13907873766E+03  0.14777432856E+03 -0.34513704297E+03  0.42859232249E+03  0.15294330000E+03 0.  0.
<mgrwt>
<rscale>  0 0.25410982E+03</rscale>
<asrwt>0</asrwt>
<pdfrwt beam="1">  1        1 0.17993679E+00 0.25410982E+03</pdfrwt>
<pdfrwt beam="2">  1       -1 0.61719626E-01 0.25410982E+03</pdfrwt>
<totfact> 0.33853876E+01</totfact>
</mgrwt>
</event>
<event>
 4    1  0.1678003E-008  0.6492526E+03  0.7818608E-02  0.9808183E-01
          1   -1    0    0  501    0  0.00000000000E+00  0.00000000000E+00  0.33254133243E+04  0.33254133243E+04  0.50400000000E-02 0. -1.
         -1   -1    0    0    0  501 -0.00000000000E+00 -0.00000000000E+00 -0.32478022452E+03  0.32478022456E+03  0.50400000000E-02 0.  1.
    8880022    1    1    2    0    0  0.25375895847E+03 -0.57770557331E+03  0.29254187659E+04  0.29965987298E+04  0.15294330000E+03 0.  0.
    8880022    1    1    2    0    0 -0.25375895847E+03  0.57770557331E+03  0.75214333845E+02  0.65359481904E+03  0.15294330000E+03 0.  0.
<mgrwt>
<rscale>  0 0.64925264E+03</rscale>
<asrwt>0</asrwt>
<pdfrwt beam="1">  1        1 0.51160208E+00 0.64925264E+03</pdfrwt>
<pdfrwt beam="2">  1       -1 0.49966186E-01 0.64925264E+03</pdfrwt>
<totfact> 0.15237334E+00</totfact>
</mgrwt>
</event>
<event>
 4    1  0.1678003E-008  0.3736502E+03  0.7818608E-02  0.1053306E+00
         -1   -1    0    0    0  501 -0.00000000000E+00  0.00000000000E+00  0.14677287665E+03  0.14677287674E+03  0.50400000000E-02 0.  1.
          1   -1    0    0  501    0  0.00000000000E+00 -0.00000000000E+00 -0.20008221741E+04  0.20008221742E+04  0.50400000000E-02 0. -1.
    8880022    1    1    2    0    0 -0.22149818880E+03  0.25915507152E+03 -0.14929459035E+03  0.40237212436E+03  0.15294330000E+03 0.  0.
    8880022    1    1    2    0    0  0.22149818880E+03 -0.25915507152E+03 -0.17047547071E+04  0.17452229265E+04  0.15294330000E+03 0.  0.
<mgrwt>
<rscale>  0 0.37365017E+03</rscale>
<asrwt>0</asrwt>
<pdfrwt beam="1">  1        1 0.30781878E+00 0.37365017E+03</pdfrwt>
<pdfrwt beam="2">  1       -1 0.22580444E-01 0.37365017E+03</pdfrwt>
<totfact> 0.54505838E+01</totfact>
</mgrwt>
</event>
<event>
 4    1  0.1678003E-008  0.3716555E+03  0.7818608E-02  0.1054062E+00
         -1   -1    0    0    0  501 -0.00000000000E+00  0.00000000000E+00  0.25105243625E+04  0.25105243625E+04  0.50400000000E-02 0.  1.
          1   -1    0    0  501    0  0.00000000000E+00 -0.00000000000E+00 -0.21480062622E+03  0.21480062628E+03  0.50400000000E-02 0. -1.
    8880022    1    1    2    0    0 -0.17093690486E+03  0.29243243664E+03  0.23231199947E+04  0.23526611142E+04  0.15294330000E+03 0.  0.
    8880022    1    1    2    0    0  0.17093690486E+03 -0.29243243664E+03 -0.27396258418E+02  0.37266387460E+03  0.15294330000E+03 0.  0.
<mgrwt>
<rscale>  0 0.37165550E+03</rscale>
<asrwt>0</asrwt>
<pdfrwt beam="1">  1        1 0.33046251E-01 0.37165550E+03</pdfrwt>
<pdfrwt beam="2">  1       -1 0.38623450E+00 0.37165550E+03</pdfrwt>
<totfact> 0.14034060E+00</totfact>
</mgrwt>
</event>
<event>
 4    1  0.1678003E-008  0.2097490E+03  0.7818608E-02  0.1141765E+00
          1   -1    0    0  501    0  0.00000000000E+00  0.00000000000E+00  0.38166744571E+03  0.38166744575E+03  0.50400000000E-02 0. -1.
         -1   -1    0    0    0  501 -0.00000000000E+00 -0.00000000000E+00 -0.58698950670E+03  0.58698950673E+03  0.50400000000E-02 0.  1.
    8880022    1    1    2    0    0 -0.18994593152E+02 -0.14227508131E+03 -0.53683816338E+03  0.57635914151E+03  0.15294330000E+03 0.  0.
    8880022    1    1    2    0    0  0.18994593152E+02  0.14227508131E+03  0.33151610238E+03  0.39229781096E+03  0.15294330000E+03 0.  0.
<mgrwt>
<rscale>  0 0.20974901E+03</rscale>
<asrwt>0</asrwt>
<pdfrwt beam="1">  1        1 0.58718068E-01 0.20974901E+03</pdfrwt>
<pdfrwt beam="2">  1       -1 0.90306078E-01 0.20974901E+03</pdfrwt>
<totfact> 0.83208332E+01</totfact>
</mgrwt>
</event>
<event>
 4    1  0.1678003E-008  0.2494121E+03  0.7818608E-02  0.1113677E+00
          1   -1    0    0  501    0  0.00000000000E+00  0.00000000000E+00  0.13589504908E+04  0.13589504908E+04  0.50400000000E-02 0. -1.
         -1   -1    0    0    0  501 -0.00000000000E+00 -0.00000000000E+00 -0.54157694112E+02  0.54157694347E+02  0.50400000000E-02 0.  1.
    8880022    1    1    2    0    0 -0.18606368068E+03 -0.64769069755E+02  0.37442562166E+03  0.44988990301E+03  0.15294330000E+03 0.  0.
    8880022    1    1    2    0    0  0.18606368068E+03  0.64769069755E+02  0.93036717499E+03  0.96321828211E+03  0.15294330000E+03 0.  0.
<mgrwt>
<rscale>  0 0.24941207E+03</rscale>
<asrwt>0</asrwt>
<pdfrwt beam="1">  1        1 0.20906930E+00 0.24941207E+03</pdfrwt>
<pdfrwt beam="2">  1       -1 0.83319532E-02 0.24941207E+03</pdfrwt>
<totfact> 0.72211574E+02</totfact>
</mgrwt>
</event>
<event>
 4    1  0.1678003E-008  0.7189062E+03  0.7818608E-02  0.9685435E-01
         -1   -1    0    0    0  501 -0.00000000000E+00  0.00000000000E+00  0.91772574396E+03  0.91772574397E+03  0.50400000000E-02 0.  1.
          1   -1    0    0  501    0  0.00000000000E+00 -0.00000000000E+00 -0.74616141531E+03  0.74616141533E+03  0.50400000000E-02 0. -1.
    8880022    1    1    2    0    0 -0.49792669017E+03 -0.49548306634E+03 -0.32622533175E+03  0.78946125802E+03  0.15294330000E+03 0.  0.
    8880022    1    1    2    0    0  0.49792669017E+03  0.49548306634E+03  0.49778966040E+03  0.87442590128E+03  0.15294330000E+03 0.  0.
<mgrwt>
<rscale>  0 0.71890619E+03</rscale>
<asrwt>0</asrwt>
<pdfrwt beam="1">  1        1 0.11479406E+00 0.71890619E+03</pdfrwt>
<pdfrwt beam="2">  1       -1 0.14118858E+00 0.71890619E+03</pdfrwt>
<totfact> 0.10475166E+01</totfact>
</mgrwt>
</event>
<event>
 4    1  0.1678003E-008  0.3203455E+03  0.7818608E-02  0.1075490E+00
          1   -1    0    0  501    0  0.00000000000E+00  0.00000000000E+00  0.86920028192E+03  0.86920028194E+03  0.50400000000E-02 0. -1.
         -1   -1    0    0    0  501 -0.00000000000E+00 -0.00000000000E+00 -0.60414993543E+03  0.60414993545E+03  0.50400000000E-02 0.  1.
    8880022    1    1    2    0    0 -0.24928453109E+03 -0.13071653639E+03 -0.52825981242E+03  0.61780229261E+03  0.15294330000E+03 0.  0.
    8880022    1    1    2    0    0  0.24928453109E+03  0.13071653639E+03  0.79331015892E+03  0.85554792477E+03  0.15294330000E+03 0.  0.
<mgrwt>
<rscale>  0 0.32034551E+03</rscale>
<asrwt>0</asrwt>
<pdfrwt beam="1">  1        1 0.13372312E+00 0.32034551E+03</pdfrwt>
<pdfrwt beam="2">  1       -1 0.92946144E-01 0.32034551E+03</pdfrwt>
<totfact> 0.24015802E+01</totfact>
</mgrwt>
</event>
<event>
 4    1  0.1678003E-008  0.3945991E+03  0.7818608E-02  0.1045666E+00
          1   -1    0    0  501    0  0.00000000000E+00  0.00000000000E+00  0.17391915677E+04  0.17391915677E+04  0.50400000000E-02 0. -1.
         -1   -1    0    0    0  501 -0.00000000000E+00 -0.00000000000E+00 -0.15670326450E+03  0.15670326458E+03  0.50400000000E-02 0.  1.
    8880022    1    1    2    0    0  0.36269671772E+03  0.27710649010E+02  0.17059521499E+03  0.42989669632E+03  0.15294330000E+03 0.  0.
    8880022    1    1    2    0    0 -0.36269671772E+03 -0.27710649010E+02  0.14118930882E+04  0.14659981360E+04  0.15294330000E+03 0.  0.
<mgrwt>
<rscale>  0 0.39459909E+03</rscale>
<asrwt>0</asrwt>
<pdfrwt beam="1">  1        1 0.26756792E+00 0.39459909E+03</pdfrwt>
<pdfrwt beam="2">  1       -1 0.24108196E-01 0.39459909E+03</pdfrwt>
<totfact> 0.72250659E+01</totfact>
</mgrwt>
</event>
<event>
 4    1  0.1678003E-008  0.3478032E+03  0.7818608E-02  0.1063520E+00
         -1   -1    0    0    0  501 -0.00000000000E+00  0.00000000000E+00  0.30199022866E+03  0.30199022870E+03  0.50400000000E-02 0.  1.
          1   -1    0    0  501    0  0.00000000000E+00 -0.00000000000E+00 -0.10831647464E+04  0.10831647464E+04  0.50400000000E-02 0. -1.
    8880022    1    1    2    0    0 -0.70537823384E+02  0.30430220513E+03 -0.94038607587E+03  0.10026430278E+04  0.15294330000E+03 0.  0.
    8880022    1    1    2    0    0  0.70537823384E+02 -0.30430220513E+03  0.15921155810E+03  0.38251194730E+03  0.15294330000E+03 0.  0.
<mgrwt>
<rscale>  0 0.34780321E+03</rscale>
<asrwt>0</asrwt>
<pdfrwt beam="1">  1        1 0.16664073E+00 0.34780321E+03</pdfrwt>
<pdfrwt beam="2">  1       -1 0.46460035E-01 0.34780321E+03</pdfrwt>
<totfact> 0.65097163E+01</totfact>
</mgrwt>
</event>
<event>
 4    1  0.1678003E-008  0.5106644E+03  0.7818608E-02  0.1011032E+00
          1   -1    0    0  501    0  0.00000000000E+00  0.00000000000E+00  0.22378927950E+04  0.22378927950E+04  0.50400000000E-02 0. -1.
         -1   -1    0    0    0  501 -0.00000000000E+00 -0.00000000000E+00 -0.27809286491E+03  0.27809286495E+03  0.50400000000E-02 0.  1.
    8880022    1    1    2    0    0  0.37216853875E+03 -0.31444721039E+03  0.21037910087E+02  0.51109756019E+03  0.15294330000E+03 0.  0.
    8880022    1    1    2    0    0 -0.37216853875E+03  0.31444721039E+03  0.19387620200E+04  0.20048880998E+04  0.15294330000E+03 0.  0.
<mgrwt>
<rscale>  0 0.51066439E+03</rscale>
<asrwt>0</asrwt>
<pdfrwt beam="1">  1        1 0.34429118E+00 0.51066439E+03</pdfrwt>
<pdfrwt beam="2">  1       -1 0.42783520E-01 0.51066439E+03</pdfrwt>
<totfact> 0.12119744E+01</totfact>
</mgrwt>
</event>
<event>
 4    1  0.1678003E-008  0.3699612E+03  0.7818608E-02  0.1054708E+00
         -1   -1    0    0    0  501 -0.00000000000E+00  0.00000000000E+00  0.63373285135E+03  0.63373285137E+03  0.50400000000E-02 0.  1.
          1   -1    0    0  501    0  0.00000000000E+00 -0.00000000000E+00 -0.30589017187E+03  0.30589017191E+03  0.50400000000E-02 0. -1.
    8880022    1    1    2    0    0 -0.14499587669E+03 -0.30406547814E+03 -0.90793505949E+02  0.38093927731E+03  0.15294330000E+03 0.  0.
    8880022    1    1    2    0    0  0.14499587669E+03  0.30406547814E+03  0.41863618543E+03  0.55868374598E+03  0.15294330000E+03 0.  1.
<mgrwt>
<rscale>  0 0.36996118E+03</rscale>
<asrwt>0</asrwt>
<pdfrwt beam="1">  1        1 0.47060027E-01 0.36996118E+03</pdfrwt>
<pdfrwt beam="2">  1       -1 0.97497360E-01 0.36996118E+03</pdfrwt>
<totfact> 0.90794516E+01</totfact>
</mgrwt>
</event>
<event>
 4    1  0.1678003E-008  0.2651616E+03  0.7818608E-02  0.1104081E+00
         -1   -1    0    0    0  501 -0.00000000000E+00  0.00000000000E+00  0.40348943946E+03  0.40348943949E+03  0.50400000000E-02 0.  1.
          1   -1    0    0  501    0  0.00000000000E+00 -0.00000000000E+00 -0.47581785145E+03  0.47581785148E+03  0.50400000000E-02 0. -1.
    8880022    1    1    2    0    0 -0.58263826316E+01 -0.21652965153E+03  0.31384389454E+03  0.41086333480E+03  0.15294330000E+03 0.  0.
    8880022    1    1    2    0    0  0.58263826316E+01  0.21652965153E+03 -0.38617230653E+03  0.46844395617E+03  0.15294330000E+03 0. -1.
<mgrwt>
<rscale>  0 0.26516163E+03</rscale>
<asrwt>0</asrwt>
<pdfrwt beam="1">  1        1 0.73202746E-01 0.26516163E+03</pdfrwt>
<pdfrwt beam="2">  1       -1 0.62075298E-01 0.26516163E+03</pdfrwt>
<totfact> 0.13285527E+02</totfact>
</mgrwt>
</event>
<event>
 4    1  0.1678003E-008  0.1534944E+03  0.7818608E-02  0.1196244E+00
          1   -1    0    0  501    0  0.00000000000E+00  0.00000000000E+00  0.48857354565E+03  0.48857354568E+03  0.50400000000E-02 0. -1.
         -1   -1    0    0    0  501 -0.00000000000E+00 -0.00000000000E+00 -0.62336848577E+03  0.62336848579E+03  0.50400000000E-02 0.  1.
    8880022    1    1    2    0    0 -0.12738250749E+02 -0.25709696543E+01 -0.60143103449E+03  0.62070912285E+03  0.15294330000E+03 0.  1.
    8880022    1    1    2    0    0  0.12738250749E+02  0.25709696543E+01  0.46663609438E+03  0.49123290862E+03  0.15294330000E+03 0.  0.
<mgrwt>
<rscale>  0 0.15349438E+03</rscale>
<asrwt>0</asrwt>
<pdfrwt beam="1">  1        1 0.75165161E-01 0.15349438E+03</pdfrwt>
<pdfrwt beam="2">  1       -1 0.95902844E-01 0.15349438E+03</pdfrwt>
<totfact> 0.54125588E+01</totfact>
</mgrwt>
</event>
<event>
 4    1  0.1678003E-008  0.4832887E+03  0.7818608E-02  0.1018235E+00
         -1   -1    0    0    0  501 -0.00000000000E+00  0.00000000000E+00  0.60060893998E+03  0.60060894000E+03  0.50400000000E-02 0.  1.
          1   -1    0    0  501    0  0.00000000000E+00 -0.00000000000E+00 -0.16000352335E+04  0.16000352336E+04  0.50400000000E-02 0. -1.
    8880022    1    1    2    0    0  0.18942791920E+03 -0.41748456393E+03 -0.14570262944E+04  0.15350874807E+04  0.15294330000E+03 0. -1.
    8880022    1    1    2    0    0 -0.18942791920E+03  0.41748456393E+03  0.45760000083E+03  0.66555669290E+03  0.15294330000E+03 0.  0.
<mgrwt>
<rscale>  0 0.48328868E+03</rscale>
<asrwt>0</asrwt>
<pdfrwt beam="1">  1        1 0.24615927E+00 0.48328868E+03</pdfrwt>
<pdfrwt beam="2">  1       -1 0.92401376E-01 0.48328868E+03</pdfrwt>
<totfact> 0.69909499E+00</totfact>
</mgrwt>
</event>
<event>
 4    1  0.1678003E-008  0.3075335E+03  0.7818608E-02  0.1081534E+00
         -1   -1    0    0    0  501 -0.00000000000E+00  0.00000000000E+00  0.28433308337E+03  0.28433308342E+03  0.50400000000E-02 0.  1.
          1   -1    0    0  501    0  0.00000000000E+00 -0.00000000000E+00 -0.12140523671E+04  0.12140523671E+04  0.50400000000E-02 0. -1.
    8880022    1    1    2    0    0 -0.18790277829E+03  0.18941421851E+03 -0.11032225147E+04  0.11452845804E+04  0.15294330000E+03 0.  0.
    8880022    1    1    2    0    0  0.18790277829E+03 -0.18941421851E+03  0.17350323098E+03  0.35310087006E+03  0.15294330000E+03 0.  0.
<mgrwt>
<rscale>  0 0.30753350E+03</rscale>
<asrwt>0</asrwt>
<pdfrwt beam="1">  1        1 0.18677728E+00 0.30753350E+03</pdfrwt>
<pdfrwt beam="2">  1       -1 0.43743552E-01 0.30753350E+03</pdfrwt>
<totfact> 0.59096158E+01</totfact>
</mgrwt>
</event>
<event>
 4    1  0.1678003E-008  0.4331730E+03  0.7818608E-02  0.1032862E+00
         -1   -1    0    0    0  501 -0.00000000000E+00  0.00000000000E+00  0.53334825070E+03  0.53334825072E+03  0.50400000000E-02 0.  1.
          1   -1    0    0  501    0  0.00000000000E+00 -0.00000000000E+00 -0.44224695742E+03  0.44224695745E+03  0.50400000000E-02 0. -1.
    8880022    1    1    2    0    0 -0.81958910469E+02 -0.39690035938E+03 -0.17503292781E+03  0.46719946180E+03  0.15294330000E+03 0.  0.
    8880022    1    1    2    0    0  0.81958910469E+02  0.39690035938E+03  0.26613422108E+03  0.50839574637E+03  0.15294330000E+03 0.  0.
<mgrwt>
<rscale>  0 0.43317296E+03</rscale>
<asrwt>0</asrwt>
<pdfrwt beam="1">  1        1 0.68037994E-01 0.43317296E+03</pdfrwt>
<pdfrwt beam="2">  1       -1 0.82053577E-01 0.43317296E+03</pdfrwt>
<totfact> 0.81236250E+01</totfact>
</mgrwt>
</event>
<event>
 4    1  0.1678003E-008  0.4994130E+03  0.7818608E-02  0.1013932E+00
         -1   -1    0    0    0  501 -0.00000000000E+00  0.00000000000E+00  0.55608773383E+03  0.55608773385E+03  0.50400000000E-02 0.  1.
          1   -1    0    0  501    0  0.00000000000E+00 -0.00000000000E+00 -0.80221400291E+03  0.80221400293E+03  0.50400000000E-02 0. -1.
    8880022    1    1    2    0    0 -0.20312125747E+03 -0.42984116937E+03  0.32789731757E+03  0.59743617233E+03  0.15294330000E+03 0.  0.
    8880022    1    1    2    0    0  0.20312125747E+03  0.42984116937E+03 -0.57402358665E+03  0.76086556445E+03  0.15294330000E+03 0.  0.
<mgrwt>
<rscale>  0 0.49941298E+03</rscale>
<asrwt>0</asrwt>
<pdfrwt beam="1">  1        1 0.12341754E+00 0.49941298E+03</pdfrwt>
<pdfrwt beam="2">  1       -1 0.85551959E-01 0.49941298E+03</pdfrwt>
<totfact> 0.31468553E+01</totfact>
</mgrwt>
</event>
<event>
 4    1  0.1678003E-008  0.3153668E+03  0.7818608E-02  0.1077802E+00
          1   -1    0    0  501    0  0.00000000000E+00  0.00000000000E+00  0.81554506777E+03  0.81554506778E+03  0.50400000000E-02 0. -1.
         -1   -1    0    0    0  501 -0.00000000000E+00 -0.00000000000E+00 -0.99245637860E+03  0.99245637861E+03  0.50400000000E-02 0.  1.
    8880022    1    1    2    0    0 -0.74419219181E+02 -0.26556796917E+03  0.75818455424E+03  0.82115774230E+03  0.15294330000E+03 0.  0.
    8880022    1    1    2    0    0  0.74419219181E+02  0.26556796917E+03 -0.93509586507E+03  0.98684370410E+03  0.15294330000E+03 0.  0.
<mgrwt>
<rscale>  0 0.31536680E+03</rscale>
<asrwt>0</asrwt>
<pdfrwt beam="1">  1        1 0.12546847E+00 0.31536680E+03</pdfrwt>
<pdfrwt beam="2">  1       -1 0.15268560E+00 0.31536680E+03</pdfrwt>
<totfact> 0.80852829E+00</totfact>
</mgrwt>
</event>
<event>
 4    1  0.1678003E-008  0.7298677E+03  0.7818608E-02  0.9667475E-01
          1   -1    0    0  501    0  0.00000000000E+00  0.00000000000E+00  0.72331423887E+03  0.72331423888E+03  0.50400000000E-02 0. -1.
         -1   -1    0    0    0  501 -0.00000000000E+00 -0.00000000000E+00 -0.92306596879E+03  0.92306596880E+03  0.50400000000E-02 0.  1.
    8880022    1    1    2    0    0  0.62002463033E+03  0.35339017584E+03  0.27022722689E+03  0.77828630064E+03  0.15294330000E+03 0.  0.
    8880022    1    1    2    0    0 -0.62002463033E+03 -0.35339017584E+03 -0.46997895681E+03  0.86809390705E+03  0.15294330000E+03 0.  0.
<mgrwt>
<rscale>  0 0.72986767E+03</rscale>
<asrwt>0</asrwt>
<pdfrwt beam="1">  1        1 0.11127911E+00 0.72986767E+03</pdfrwt>
<pdfrwt beam="2">  1       -1 0.14201015E+00 0.72986767E+03</pdfrwt>
<totfact> 0.10807034E+01</totfact>
</mgrwt>
</event>
<event>
 4    1  0.1678003E-008  0.5339901E+03  0.7818608E-02  0.1005269E+00
         -1   -1    0    0    0  501 -0.00000000000E+00  0.00000000000E+00  0.22697205086E+03  0.22697205092E+03  0.50400000000E-02 0.  1.
          1   -1    0    0  501    0  0.00000000000E+00 -0.00000000000E+00 -0.24730977355E+04  0.24730977355E+04  0.50400000000E-02 0. -1.
    8880022    1    1    2    0    0  0.40641356362E+03 -0.31077603062E+03 -0.17609933686E+03  0.56227782755E+03  0.15294330000E+03 0.  0.
    8880022    1    1    2    0    0 -0.40641356362E+03  0.31077603062E+03 -0.20700263477E+04  0.21377919588E+04  0.15294330000E+03 0.  0.
<mgrwt>
<rscale>  0 0.53399006E+03</rscale>
<asrwt>0</asrwt>
<pdfrwt beam="1">  1        1 0.38047656E+00 0.53399006E+03</pdfrwt>
<pdfrwt beam="2">  1       -1 0.34918779E-01 0.53399006E+03</pdfrwt>
<totfact> 0.12076955E+01</totfact>
</mgrwt>
</event>
<event>
 4    1  0.1678003E-008  0.8125271E+03  0.7818608E-02  0.9542060E-01
         -1   -1    0    0    0  501 -0.00000000000E+00  0.00000000000E+00  0.65479674288E+03  0.65479674290E+03  0.50400000000E-02 0.  1.
          1   -1    0    0  501    0  0.00000000000E+00 -0.00000000000E+00 -0.11526718974E+04  0.11526718975E+04  0.50400000000E-02 0. -1.
    8880022    1    1    2    0    0  0.54979520398E+03 -0.57838908691E+03 -0.56882775989E+03  0.99184947225E+03  0.15294330000E+03 0.  0.
    8880022    1    1    2    0    0 -0.54979520398E+03  0.57838908691E+03  0.70952605319E+02  0.81561916811E+03  0.15294330000E+03 0.  0.
<mgrwt>
<rscale>  0 0.81252714E+03</rscale>
<asrwt>0</asrwt>
<pdfrwt beam="1">  1        1 0.17733414E+00 0.81252714E+03</pdfrwt>
<pdfrwt beam="2">  1       -1 0.10073796E+00 0.81252714E+03</pdfrwt>
<totfact> 0.11122761E+01</totfact>
</mgrwt>
</event>
<event>
 4    1  0.1678003E-008  0.4168557E+03  0.7818608E-02  0.1038095E+00
         -1   -1    0    0    0  501 -0.00000000000E+00  0.00000000000E+00  0.12867428750E+03  0.12867428760E+03  0.50400000000E-02 0.  1.
          1   -1    0    0  501    0  0.00000000000E+00 -0.00000000000E+00 -0.26671432523E+04  0.26671432523E+04  0.50400000000E-02 0. -1.
    8880022    1    1    2    0    0 -0.38202309414E+03 -0.66598524346E+02 -0.28704029006E+03  0.50612329430E+03  0.15294330000E+03 0.  0.
    8880022    1    1    2    0    0  0.38202309414E+03  0.66598524346E+02 -0.22514286748E+04  0.22896942456E+04  0.15294330000E+03 0. -1.
<mgrwt>
<rscale>  0 0.41685568E+03</rscale>
<asrwt>0</asrwt>
<pdfrwt beam="1">  1        1 0.41032969E+00 0.41685568E+03</pdfrwt>
<pdfrwt beam="2">  1       -1 0.19796046E-01 0.41685568E+03</pdfrwt>
<totfact> 0.24117878E+01</totfact>
</mgrwt>
</event>
<event>
 4    1  0.1678003E-008  0.7336799E+03  0.7818608E-02  0.9661308E-01
          1   -1    0    0  501    0  0.00000000000E+00  0.00000000000E+00  0.13338977263E+04  0.13338977263E+04  0.50400000000E-02 0. -1.
         -1   -1    0    0    0  501 -0.00000000000E+00 -0.00000000000E+00 -0.41810515452E+03  0.41810515455E+03  0.50400000000E-02 0.  1.
    8880022    1    1    2    0    0 -0.71734758495E+03  0.17522545482E+02  0.62137526170E+03  0.96145382942E+03  0.15294330000E+03 0.  0.
    8880022    1    1    2    0    0  0.71734758495E+03 -0.17522545482E+02  0.29441731006E+03  0.79054905143E+03  0.15294330000E+03 0.  0.
<mgrwt>
<rscale>  0 0.73367994E+03</rscale>
<asrwt>0</asrwt>
<pdfrwt beam="1">  1        1 0.20521503E+00 0.73367994E+03</pdfrwt>
<pdfrwt beam="2">  1       -1 0.64323870E-01 0.73367994E+03</pdfrwt>
<totfact> 0.21688258E+01</totfact>
</mgrwt>
</event>
<event>
 4    1  0.1678003E-008  0.6759120E+03  0.7818608E-02  0.9759336E-01
          1   -1    0    0  501    0  0.00000000000E+00  0.00000000000E+00  0.11418856383E+04  0.11418856383E+04  0.50400000000E-02 0. -1.
         -1   -1    0    0    0  501 -0.00000000000E+00 -0.00000000000E+00 -0.10448762394E+04  0.10448762394E+04  0.50400000000E-02 0.  1.
    8880022    1    1    2    0    0  0.53628724963E+03  0.38191794821E+03 -0.81040392473E+03  0.10552779290E+04  0.15294330000E+03 0.  0.
    8880022    1    1    2    0    0 -0.53628724963E+03 -0.38191794821E+03  0.90741332364E+03  0.11314839487E+04  0.15294330000E+03 0.  0.
<mgrwt>
<rscale>  0 0.67591197E+03</rscale>
<asrwt>0</asrwt>
<pdfrwt beam="1">  1        1 0.17567471E+00 0.67591197E+03</pdfrwt>
<pdfrwt beam="2">  1       -1 0.16075019E+00 0.67591197E+03</pdfrwt>
<totfact> 0.35848494E+00</totfact>
</mgrwt>
</event>
<event>
 4    1  0.1678003E-008  0.7272737E+03  0.7818608E-02  0.9671695E-01
         -1   -1    0    0    0  501 -0.00000000000E+00  0.00000000000E+00  0.80718125459E+03  0.80718125460E+03  0.50400000000E-02 0.  1.
          1   -1    0    0  501    0  0.00000000000E+00 -0.00000000000E+00 -0.21386847621E+04  0.21386847622E+04  0.50400000000E-02 0. -1.
    8880022    1    1    2    0    0  0.68461706648E+03 -0.19192417972E+03  0.56095264969E+03  0.91847424933E+03  0.15294330000E+03 0.  0.
    8880022    1    1    2    0    0 -0.68461706648E+03  0.19192417972E+03 -0.18924561573E+04  0.20273917674E+04  0.15294330000E+03 0.  0.
<mgrwt>
<rscale>  0 0.72727373E+03</rscale>
<asrwt>0</asrwt>
<pdfrwt beam="1">  1        1 0.32902842E+00 0.72727373E+03</pdfrwt>
<pdfrwt beam="2">  1       -1 0.12418173E+00 0.72727373E+03</pdfrwt>
<totfact> 0.14514619E+00</totfact>
</mgrwt>
</event>
<event>
 4    1  0.1678003E-008  0.1696915E+03  0.7818608E-02  0.1178170E+00
         -1   -1    0    0    0  501 -0.00000000000E+00  0.00000000000E+00  0.42661891851E+04  0.42661891851E+04  0.50400000000E-02 0.  1.
          1   -1    0    0  501    0  0.00000000000E+00 -0.00000000000E+00 -0.53051982491E+02  0.53051982731E+02  0.50400000000E-02 0. -1.
    8880022    1    1    2    0    0 -0.30985119224E+02  0.66659443221E+02  0.41241365176E+04  0.41276261008E+04  0.15294330000E+03 0.  1.
    8880022    1    1    2    0    0  0.30985119224E+02 -0.66659443221E+02  0.89000685043E+02  0.19161506709E+03  0.15294330000E+03 0.  0.
<mgrwt>
<rscale>  0 0.16969152E+03</rscale>
<asrwt>0</asrwt>
<pdfrwt beam="1">  1        1 0.81618457E-02 0.16969152E+03</pdfrwt>
<pdfrwt beam="2">  1       -1 0.65633662E+00 0.16969152E+03</pdfrwt>
<totfact> 0.29242759E-01</totfact>
</mgrwt>
</event>
<event>
 4    1  0.1678003E-008  0.4825820E+03  0.7818608E-02  0.1018428E+00
          1   -1    0    0  501    0  0.00000000000E+00  0.00000000000E+00  0.19062044333E+04  0.19062044333E+04  0.50400000000E-02 0. -1.
         -1   -1    0    0    0  501 -0.00000000000E+00 -0.00000000000E+00 -0.20240005010E+03  0.20240005016E+03  0.50400000000E-02 0.  1.
    8880022    1    1    2    0    0 -0.32333641761E+03  0.32395568631E+03  0.18812529784E+03  0.51795415468E+03  0.15294330000E+03 0.  1.
    8880022    1    1    2    0    0  0.32333641761E+03 -0.32395568631E+03  0.15156790853E+04  0.15906503288E+04  0.15294330000E+03 0. -1.
<mgrwt>
<rscale>  0 0.48258199E+03</rscale>
<asrwt>0</asrwt>
<pdfrwt beam="1">  1        1 0.29326221E+00 0.48258199E+03</pdfrwt>
<pdfrwt beam="2">  1       -1 0.31138470E-01 0.48258199E+03</pdfrwt>
<totfact> 0.35592452E+01</totfact>
</mgrwt>
</event>
<event>
 4    1  0.1678003E-008  0.9197936E+03  0.7818608E-02  0.9401171E-01
          1   -1    0    0  501    0  0.00000000000E+00  0.00000000000E+00  0.10216921627E+04  0.10216921628E+04  0.50400000000E-02 0. -1.
         -1   -1    0    0    0  501 -0.00000000000E+00 -0.00000000000E+00 -0.12268944217E+04  0.12268944218E+04  0.50400000000E-02 0.  1.
    8880022    1    1    2    0    0 -0.61424656560E+03  0.66733034091E+03 -0.74362392899E+03  0.11827919631E+04  0.15294330000E+03 0.  0.
    8880022    1    1    2    0    0  0.61424656560E+03 -0.66733034091E+03  0.53842166998E+03  0.10657946214E+04  0.15294330000E+03 0.  0.
<mgrwt>
<rscale>  0 0.91979361E+03</rscale>
<asrwt>0</asrwt>
<pdfrwt beam="1">  1        1 0.15718341E+00 0.91979361E+03</pdfrwt>
<pdfrwt beam="2">  1       -1 0.18875299E+00 0.91979361E+03</pdfrwt>
<totfact> 0.26620509E+00</totfact>
</mgrwt>
</event>
<event>
 4    1  0.1678003E-008  0.3415557E+03  0.7818608E-02  0.1066135E+00
         -1   -1    0    0    0  501 -0.00000000000E+00  0.00000000000E+00  0.56614375531E+03  0.56614375534E+03  0.50400000000E-02 0.  1.
          1   -1    0    0  501    0  0.00000000000E+00 -0.00000000000E+00 -0.33856793791E+03  0.33856793795E+03  0.50400000000E-02 0. -1.
    8880022    1    1    2    0    0 -0.20062586287E+03 -0.23025620085E+03 -0.16920538311E+03  0.38117026323E+03  0.15294330000E+03 0.  0.
    8880022    1    1    2    0    0  0.20062586287E+03  0.23025620085E+03  0.39678120052E+03  0.52354143005E+03  0.15294330000E+03 0.  0.
<mgrwt>
<rscale>  0 0.34155572E+03</rscale>
<asrwt>0</asrwt>
<pdfrwt beam="1">  1        1 0.52087375E-01 0.34155572E+03</pdfrwt>
<pdfrwt beam="2">  1       -1 0.87099039E-01 0.34155572E+03</pdfrwt>
<totfact> 0.10240696E+02</totfact>
</mgrwt>
</event>
<event>
 4    1  0.1678003E-008  0.1908330E+03  0.7818608E-02  0.1157712E+00
         -1   -1    0    0    0  501 -0.00000000000E+00  0.00000000000E+00  0.27762655860E+03  0.27762655865E+03  0.50400000000E-02 0.  1.
          1   -1    0    0  501    0  0.00000000000E+00 -0.00000000000E+00 -0.10553722237E+04  0.10553722237E+04  0.50400000000E-02 0. -1.
    8880022    1    1    2    0    0 -0.10212936859E+03  0.50942999342E+02 -0.10125783803E+04  0.10304039141E+04  0.15294330000E+03 0. -1.
    8880022    1    1    2    0    0  0.10212936859E+03 -0.50942999342E+02  0.23483271519E+03  0.30259486818E+03  0.15294330000E+03 0.  0.
<mgrwt>
<rscale>  0 0.19083304E+03</rscale>
<asrwt>0</asrwt>
<pdfrwt beam="1">  1        1 0.16236496E+00 0.19083304E+03</pdfrwt>
<pdfrwt beam="2">  1       -1 0.42711779E-01 0.19083304E+03</pdfrwt>
<totfact> 0.82816134E+01</totfact>
</mgrwt>
</event>
<event>
 4    1  0.1678003E-008  0.2092810E+03  0.7818608E-02  0.1142137E+00
         -1   -1    0    0    0  501 -0.00000000000E+00  0.00000000000E+00  0.43137765956E+03  0.43137765959E+03  0.50400000000E-02 0.  1.
          1   -1    0    0  501    0  0.00000000000E+00 -0.00000000000E+00 -0.33180900867E+04  0.33180900867E+04  0.50400000000E-02 0. -1.
    8880022    1    1    2    0    0  0.90881037407E+02 -0.11021571227E+03  0.40247190491E+03  0.45363217858E+03  0.15294330000E+03 0.  0.
    8880022    1    1    2    0    0 -0.90881037407E+02  0.11021571227E+03 -0.32891843321E+04  0.32958355677E+04  0.15294330000E+03 0. -1.
<mgrwt>
<rscale>  0 0.20928096E+03</rscale>
<asrwt>0</asrwt>
<pdfrwt beam="1">  1        1 0.51047538E+00 0.20928096E+03</pdfrwt>
<pdfrwt beam="2">  1       -1 0.66365796E-01 0.20928096E+03</pdfrwt>
<totfact> 0.10922530E+00</totfact>
</mgrwt>
</event>
<event>
 4    1  0.1678003E-008  0.2948804E+03  0.7818608E-02  0.1087828E+00
          1   -1    0    0  501    0  0.00000000000E+00  0.00000000000E+00  0.96582022329E+03  0.96582022330E+03  0.50400000000E-02 0. -1.
         -1   -1    0    0    0  501 -0.00000000000E+00 -0.00000000000E+00 -0.10500488362E+03  0.10500488374E+03  0.50400000000E-02 0.  1.
    8880022    1    1    2    0    0 -0.24957134759E+03  0.35733965772E+02  0.63258898767E+03  0.69794215676E+03  0.15294330000E+03 0.  0.
    8880022    1    1    2    0    0  0.24957134759E+03 -0.35733965772E+02  0.22822635199E+03  0.37288295028E+03  0.15294330000E+03 0.  0.
<mgrwt>
<rscale>  0 0.29488036E+03</rscale>
<asrwt>0</asrwt>
<pdfrwt beam="1">  1        1 0.14858773E+00 0.29488036E+03</pdfrwt>
<pdfrwt beam="2">  1       -1 0.16154597E-01 0.29488036E+03</pdfrwt>
<totfact> 0.48567899E+02</totfact>
</mgrwt>
</event>
<event>
 4    1  0.1678003E-008  0.2931725E+03  0.7818608E-02  0.1088704E+00
         -1   -1    0    0    0  501 -0.00000000000E+00  0.00000000000E+00  0.15152922461E+03  0.15152922469E+03  0.50400000000E-02 0.  1.
          1   -1    0    0  501    0  0.00000000000E+00 -0.00000000000E+00 -0.10621033295E+04  0.10621033295E+04  0.50400000000E-02 0. -1.
    8880022    1    1    2    0    0  0.22538234040E+03 -0.10844932276E+03 -0.86950233104E+03  0.91759708569E+03  0.15294330000E+03 0.  0.
    8880022    1    1    2    0    0 -0.22538234040E+03  0.10844932276E+03 -0.41071773806E+02  0.29603546846E+03  0.15294330000E+03 0.  0.
<mgrwt>
<rscale>  0 0.29317249E+03</rscale>
<asrwt>0</asrwt>
<pdfrwt beam="1">  1        1 0.16340051E+00 0.29317249E+03</pdfrwt>
<pdfrwt beam="2">  1       -1 0.23312189E-01 0.29317249E+03</pdfrwt>
<totfact> 0.22620018E+02</totfact>
</mgrwt>
</event>
<event>
 4    1  0.1678003E-008  0.4066928E+03  0.7818608E-02  0.1041487E+00
         -1   -1    0    0    0  501 -0.00000000000E+00  0.00000000000E+00  0.17465589358E+03  0.17465589365E+03  0.50400000000E-02 0.  1.
          1   -1    0    0  501    0  0.00000000000E+00 -0.00000000000E+00 -0.25803847094E+04  0.25803847094E+04  0.50400000000E-02 0. -1.
    8880022    1    1    2    0    0 -0.31913061769E+03 -0.20040724317E+03 -0.10689086629E+03  0.42050532051E+03  0.15294330000E+03 0.  1.
    8880022    1    1    2    0    0  0.31913061769E+03  0.20040724317E+03 -0.22988379496E+04  0.23345352826E+04  0.15294330000E+03 0.  0.
<mgrwt>
<rscale>  0 0.40669284E+03</rscale>
<asrwt>0</asrwt>
<pdfrwt beam="1">  1        1 0.39698223E+00 0.40669284E+03</pdfrwt>
<pdfrwt beam="2">  1       -1 0.26870139E-01 0.40669284E+03</pdfrwt>
<totfact> 0.16625643E+01</totfact>
</mgrwt>
</event>
<event>
 4    1  0.1678003E-008  0.7093104E+03  0.7818608E-02  0.9701441E-01
          1   -1    0    0  501    0  0.00000000000E+00  0.00000000000E+00  0.53407808092E+03  0.53407808094E+03  0.50400000000E-02 0. -1.
         -1   -1    0    0    0  501 -0.00000000000E+00 -0.00000000000E+00 -0.22112613372E+04  0.22112613372E+04  0.50400000000E-02 0.  1.
    8880022    1    1    2    0    0  0.29620731056E+02  0.69199144087E+03 -0.18785483042E+04  0.20080002306E+04  0.15294330000E+03 0.  0.
    8880022    1    1    2    0    0 -0.29620731056E+02 -0.69199144087E+03  0.20136504790E+03  0.73733918754E+03  0.15294330000E+03 0.  0.
<mgrwt>
<rscale>  0 0.70931037E+03</rscale>
<asrwt>0</asrwt>
<pdfrwt beam="1">  1        1 0.82165860E-01 0.70931037E+03</pdfrwt>
<pdfrwt beam="2">  1       -1 0.34019405E+00 0.70931037E+03</pdfrwt>
<totfact> 0.78166430E-01</totfact>
</mgrwt>
</event>
<event>
 4    1  0.1678003E-008  0.5263812E+03  0.7818608E-02  0.1007114E+00
          1   -1    0    0  501    0  0.00000000000E+00  0.00000000000E+00  0.16887866938E+04  0.16887866939E+04  0.50400000000E-02 0. -1.
         -1   -1    0    0    0  501 -0.00000000000E+00 -0.00000000000E+00 -0.33174830944E+03  0.33174830948E+03  0.50400000000E-02 0.  1.
    8880022    1    1    2    0    0 -0.29221041534E+03 -0.41024210329E+03  0.13967632706E+04  0.14926569590E+04  0.15294330000E+03 0.  0.
    8880022    1    1    2    0    0  0.29221041534E+03  0.41024210329E+03 -0.39724886144E+02  0.52787804438E+03  0.15294330000E+03 0.  0.
<mgrwt>
<rscale>  0 0.52638120E+03</rscale>
<asrwt>0</asrwt>
<pdfrwt beam="1">  1        1 0.25981334E+00 0.52638120E+03</pdfrwt>
<pdfrwt beam="2">  1       -1 0.51038202E-01 0.52638120E+03</pdfrwt>
<totfact> 0.20136512E+01</totfact>
</mgrwt>
</event>
<event>
 4    1  0.1678003E-008  0.6968082E+03  0.7818608E-02  0.9722706E-01
          1   -1    0    0  501    0  0.00000000000E+00  0.00000000000E+00  0.48742206851E+03  0.48742206854E+03  0.50400000000E-02 0. -1.
         -1   -1    0    0    0  501 -0.00000000000E+00 -0.00000000000E+00 -0.12037411337E+04  0.12037411337E+04  0.50400000000E-02 0.  1.
    8880022    1    1    2    0    0 -0.65089035567E+03  0.19619327151E+03 -0.70931666866E+03  0.99431978978E+03  0.15294330000E+03 0.  0.
    8880022    1    1    2    0    0  0.65089035567E+03 -0.19619327151E+03 -0.70023964882E+01  0.69684341244E+03  0.15294330000E+03 0.  0.
<mgrwt>
<rscale>  0 0.69680823E+03</rscale>
<asrwt>0</asrwt>
<pdfrwt beam="1">  1        1 0.74988011E-01 0.69680823E+03</pdfrwt>
<pdfrwt beam="2">  1       -1 0.18519094E+00 0.69680823E+03</pdfrwt>
<totfact> 0.91126041E+00</totfact>
</mgrwt>
</event>
<event>
 4    1  0.1678003E-008  0.2533539E+03  0.7818608E-02  0.1111203E+00
         -1   -1    0    0    0  501 -0.00000000000E+00  0.00000000000E+00  0.10177256584E+03  0.10177256596E+03  0.50400000000E-02 0.  1.
          1   -1    0    0  501    0  0.00000000000E+00 -0.00000000000E+00 -0.70816395159E+03  0.70816395161E+03  0.50400000000E-02 0. -1.
    8880022    1    1    2    0    0 -0.20142487918E+03  0.14986125224E+02 -0.43713149881E+03  0.50524465971E+03  0.15294330000E+03 0.  0.
    8880022    1    1    2    0    0  0.20142487918E+03 -0.14986125224E+02 -0.16925988694E+03  0.30469185786E+03  0.15294330000E+03 0.  0.
<mgrwt>
<rscale>  0 0.25335394E+03</rscale>
<asrwt>0</asrwt>
<pdfrwt beam="1">  1        1 0.10894830E+00 0.25335394E+03</pdfrwt>
<pdfrwt beam="2">  1       -1 0.15657318E-01 0.25335394E+03</pdfrwt>
<totfact> 0.83403671E+02</totfact>
</mgrwt>
</event>
<event>
 4    1  0.1678003E-008  0.2481526E+03  0.7818608E-02  0.1114478E+00
          1   -1    0    0  501    0  0.00000000000E+00  0.00000000000E+00  0.88622293712E+03  0.88622293713E+03  0.50400000000E-02 0. -1.
         -1   -1    0    0    0  501 -0.00000000000E+00 -0.00000000000E+00 -0.21359025189E+03  0.21359025194E+03  0.50400000000E-02 0.  1.
    8880022    1    1    2    0    0  0.43708433169E+02 -0.19046691333E+03  0.78800296332E+03  0.82615276760E+03  0.15294330000E+03 0. -1.
    8880022    1    1    2    0    0 -0.43708433169E+02  0.19046691333E+03 -0.11537027808E+03  0.27366042148E+03  0.15294330000E+03 0.  0.
<mgrwt>
<rscale>  0 0.24815262E+03</rscale>
<asrwt>0</asrwt>
<pdfrwt beam="1">  1        1 0.13634199E+00 0.24815262E+03</pdfrwt>
<pdfrwt beam="2">  1       -1 0.32860039E-01 0.24815262E+03</pdfrwt>
<totfact> 0.17354551E+02</totfact>
</mgrwt>
</event>
<event>
 4    1  0.1678003E-008  0.3429024E+03  0.7818608E-02  0.1065566E+00
          1   -1    0    0  501    0  0.00000000000E+00  0.00000000000E+00  0.18795132059E+04  0.18795132059E+04  0.50400000000E-02 0. -1.
         -1   -1    0    0    0  501 -0.00000000000E+00 -0.00000000000E+00 -0.69891067343E+02  0.69891067524E+02  0.50400000000E-02 0.  1.
    8880022    1    1    2    0    0  0.13107780444E+03 -0.27750492769E+03  0.58912916234E+03  0.68165621735E+03  0.15294330000E+03 0.  0.
    8880022    1    1    2    0    0 -0.13107780444E+03  0.27750492769E+03  0.12204929762E+04  0.12677480561E+04  0.15294330000E+03 0.  0.
<mgrwt>
<rscale>  0 0.34290236E+03</rscale>
<asrwt>0</asrwt>
<pdfrwt beam="1">  1        1 0.28915582E+00 0.34290236E+03</pdfrwt>
<pdfrwt beam="2">  1       -1 0.10752474E-01 0.34290236E+03</pdfrwt>
<totfact> 0.21747945E+02</totfact>
</mgrwt>
</event>
<event>
 4    1  0.1678003E-008  0.4681289E+03  0.7818608E-02  0.1022450E+00
          1   -1    0    0  501    0  0.00000000000E+00  0.00000000000E+00  0.67109098732E+03  0.67109098733E+03  0.50400000000E-02 0. -1.
         -1   -1    0    0    0  501 -0.00000000000E+00 -0.00000000000E+00 -0.63174240519E+03  0.63174240521E+03  0.50400000000E-02 0.  1.
    8880022    1    1    2    0    0  0.26201428433E+03  0.35651303529E+03  0.47244238600E+03  0.66509134007E+03  0.15294330000E+03 0.  0.
    8880022    1    1    2    0    0 -0.26201428433E+03 -0.35651303529E+03 -0.43309380388E+03  0.63774205248E+03  0.15294330000E+03 0.  0.
<mgrwt>
<rscale>  0 0.46812892E+03</rscale>
<asrwt>0</asrwt>
<pdfrwt beam="1">  1        1 0.10324477E+00 0.46812892E+03</pdfrwt>
<pdfrwt beam="2">  1       -1 0.97191140E-01 0.46812892E+03</pdfrwt>
<totfact> 0.31374060E+01</totfact>
</mgrwt>
</event>
<event>
 4    1  0.1678003E-008  0.7933914E+03  0.7818608E-02  0.9569632E-01
         -1   -1    0    0    0  501 -0.00000000000E+00  0.00000000000E+00  0.47864904734E+03  0.47864904736E+03  0.50400000000E-02 0.  1.
          1   -1    0    0  501    0  0.00000000000E+00 -0.00000000000E+00 -0.14126460014E+04  0.14126460014E+04  0.50400000000E-02 0. -1.
    8880022    1    1    2    0    0 -0.77796612838E+03  0.29102631466E+02 -0.71549716092E+03  0.10683660891E+04  0.15294330000E+03 0.  0.
    8880022    1    1    2    0    0  0.77796612838E+03 -0.29102631466E+02 -0.21849979316E+03  0.82292895968E+03  0.15294330000E+03 0.  0.
<mgrwt>
<rscale>  0 0.79339140E+03</rscale>
<asrwt>0</asrwt>
<pdfrwt beam="1">  1        1 0.21733015E+00 0.79339140E+03</pdfrwt>
<pdfrwt beam="2">  1       -1 0.73638316E-01 0.79339140E+03</pdfrwt>
<totfact> 0.14393920E+01</totfact>
</mgrwt>
</event>
<event>
 4    1  0.1678003E-008  0.1709832E+03  0.7818608E-02  0.1176826E+00
         -1   -1    0    0    0  501 -0.00000000000E+00  0.00000000000E+00  0.24121784682E+03  0.24121784688E+03  0.50400000000E-02 0.  1.
          1   -1    0    0  501    0  0.00000000000E+00 -0.00000000000E+00 -0.21279982226E+03  0.21279982232E+03  0.50400000000E-02 0. -1.
    8880022    1    1    2    0    0 -0.70858761050E+02  0.28681526517E+02  0.16314784415E+03  0.23633126337E+03  0.15294330000E+03 0.  0.
    8880022    1    1    2    0    0  0.70858761050E+02 -0.28681526517E+02 -0.13472981958E+03  0.21768640583E+03  0.15294330000E+03 0. -1.
<mgrwt>
<rscale>  0 0.17098318E+03</rscale>
<asrwt>0</asrwt>
<pdfrwt beam="1">  1        1 0.32738434E-01 0.17098318E+03</pdfrwt>
<pdfrwt beam="2">  1       -1 0.37110438E-01 0.17098318E+03</pdfrwt>
<totfact> 0.95221780E+02</totfact>
</mgrwt>
</event>
<event>
 4    1  0.1678003E-008  0.1041450E+04  0.7818608E-02  0.9264216E-01
         -1   -1    0    0    0  501 -0.00000000000E+00  0.00000000000E+00  0.13311479633E+04  0.13311479633E+04  0.50400000000E-02 0.  1.
          1   -1    0    0  501    0  0.00000000000E+00 -0.00000000000E+00 -0.11912927707E+04  0.11912927707E+04  0.50400000000E-02 0. -1.
    8880022    1    1    2    0    0 -0.30305773057E+03 -0.98457224661E+03  0.77895099469E+03  0.13005317382E+04  0.15294330000E+03 0.  0.
    8880022    1    1    2    0    0  0.30305773057E+03  0.98457224661E+03 -0.63909580204E+03  0.12219089958E+04  0.15294330000E+03 0. -1.
<mgrwt>
<rscale>  0 0.10414500E+04</rscale>
<asrwt>0</asrwt>
<pdfrwt beam="1">  1        1 0.18327581E+00 0.10414500E+04</pdfrwt>
<pdfrwt beam="2">  1       -1 0.20479199E+00 0.10414500E+04</pdfrwt>
<totfact> 0.15122252E+00</totfact>
</mgrwt>
</event>
<event>
 4    1  0.1678003E-008  0.2863915E+03  0.7818608E-02  0.1092248E+00
          1   -1    0    0  501    0  0.00000000000E+00  0.00000000000E+00  0.91571627255E+03  0.91571627256E+03  0.50400000000E-02 0. -1.
         -1   -1    0    0    0  501 -0.00000000000E+00 -0.00000000000E+00 -0.12019679437E+03  0.12019679448E+03  0.50400000000E-02 0.  1.
    8880022    1    1    2    0    0  0.18035750513E+03  0.16155371824E+03  0.13630143191E+03  0.31717214078E+03  0.15294330000E+03 0.  1.
    8880022    1    1    2    0    0 -0.18035750513E+03 -0.16155371824E+03  0.65921804627E+03  0.71874092626E+03  0.15294330000E+03 0.  0.
<mgrwt>
<rscale>  0 0.28639149E+03</rscale>
<asrwt>0</asrwt>
<pdfrwt beam="1">  1        1 0.14087943E+00 0.28639149E+03</pdfrwt>
<pdfrwt beam="2">  1       -1 0.18491814E-01 0.28639149E+03</pdfrwt>
<totfact> 0.42731204E+02</totfact>
</mgrwt>
</event>
<event>
 4    1  0.1678003E-008  0.1886017E+03  0.7818608E-02  0.1159729E+00
          1   -1    0    0  501    0  0.00000000000E+00  0.00000000000E+00  0.32491561929E+03  0.32491561933E+03  0.50400000000E-02 0. -1.
         -1   -1    0    0    0  501 -0.00000000000E+00 -0.00000000000E+00 -0.28164541164E+03  0.28164541169E+03  0.50400000000E-02 0.  1.
    8880022    1    1    2    0    0  0.91096123567E+01 -0.10998172741E+03  0.25875640053E+03  0.32019602313E+03  0.15294330000E+03 0.  0.
    8880022    1    1    2    0    0 -0.91096123567E+01  0.10998172741E+03 -0.21548619288E+03  0.28636500788E+03  0.15294330000E+03 0.  0.
<mgrwt>
<rscale>  0 0.18860175E+03</rscale>
<asrwt>0</asrwt>
<pdfrwt beam="1">  1        1 0.49987018E-01 0.18860175E+03</pdfrwt>
<pdfrwt beam="2">  1       -1 0.43330063E-01 0.18860175E+03</pdfrwt>
<totfact> 0.42715824E+02</totfact>
</mgrwt>
</event>
<event>
 4    1  0.1678003E-008  0.1447640E+04  0.7818608E-02  0.8920039E-01
          1   -1    0    0  501    0  0.00000000000E+00  0.00000000000E+00  0.34384619100E+04  0.34384619100E+04  0.50400000000E-02 0. -1.
         -1   -1    0    0    0  501 -0.00000000000E+00 -0.00000000000E+00 -0.14436803289E+04  0.14436803289E+04  0.50400000000E-02 0.  1.
    8880022    1    1    2    0    0 -0.46668905361E+03  0.13617893337E+04 -0.85819524069E+03  0.16829021322E+04  0.15294330000E+03 0.  0.
    8880022    1    1    2    0    0  0.46668905361E+03 -0.13617893337E+04  0.28529768218E+04  0.31992401068E+04  0.15294330000E+03 0.  0.
<mgrwt>
<rscale>  0 0.14476396E+04</rscale>
<asrwt>0</asrwt>
<pdfrwt beam="1">  1        1 0.52899413E+00 0.14476396E+04</pdfrwt>
<pdfrwt beam="2">  1       -1 0.22210467E+00 0.14476396E+04</pdfrwt>
<totfact> 0.28489881E-02</totfact>
</mgrwt>
</event>
<event>
 4    1  0.1678003E-008  0.6551120E+03  0.7818608E-02  0.9797234E-01
          1   -1    0    0  501    0  0.00000000000E+00  0.00000000000E+00  0.61711060429E+03  0.61711060431E+03  0.50400000000E-02 0. -1.
         -1   -1    0    0    0  501 -0.00000000000E+00 -0.00000000000E+00 -0.89106837161E+03  0.89106837163E+03  0.50400000000E-02 0.  1.
    8880022    1    1    2    0    0  0.39242701819E+03  0.50177789000E+03  0.21634127506E+03  0.68990957075E+03  0.15294330000E+03 0.  0.
    8880022    1    1    2    0    0 -0.39242701819E+03 -0.50177789000E+03 -0.49029904238E+03  0.81826940519E+03  0.15294330000E+03 0.  0.
<mgrwt>
<rscale>  0 0.65511195E+03</rscale>
<asrwt>0</asrwt>
<pdfrwt beam="1">  1        1 0.94940093E-01 0.65511195E+03</pdfrwt>
<pdfrwt beam="2">  1       -1 0.13708744E+00 0.65511195E+03</pdfrwt>
<totfact> 0.15145229E+01</totfact>
</mgrwt>
</event>
<event>
 4    1  0.1678003E-008  0.1603722E+03  0.7818608E-02  0.1188277E+00
          1   -1    0    0  501    0  0.00000000000E+00  0.00000000000E+00  0.20723611966E+04  0.20723611966E+04  0.50400000000E-02 0. -1.
         -1   -1    0    0    0  501 -0.00000000000E+00 -0.00000000000E+00 -0.18865993559E+02  0.18865994232E+02  0.50400000000E-02 0.  1.
    8880022    1    1    2    0    0  0.46706305368E+02  0.12087647204E+02  0.16383832556E+04  0.16462135146E+04  0.15294330000E+03 0.  0.
    8880022    1    1    2    0    0 -0.46706305368E+02 -0.12087647204E+02  0.41511194741E+03  0.44501367627E+03  0.15294330000E+03 0.  1.
<mgrwt>
<rscale>  0 0.16037220E+03</rscale>
<asrwt>0</asrwt>
<pdfrwt beam="1">  1        1 0.31882465E+00 0.16037220E+03</pdfrwt>
<pdfrwt beam="2">  1       -1 0.29024620E-02 0.16037220E+03</pdfrwt>
<totfact> 0.12106295E+03</totfact>
</mgrwt>
</event>
<event>
 4    1  0.1678003E-008  0.2427052E+03  0.7818608E-02  0.1118004E+00
          1   -1    0    0  501    0  0.00000000000E+00  0.00000000000E+00  0.14051601611E+04  0.14051601611E+04  0.50400000000E-02 0. -1.
         -1   -1    0    0    0  501 -0.00000000000E+00 -0.00000000000E+00 -0.13177818951E+04  0.13177818952E+04  0.50400000000E-02 0.  1.
    8880022    1    1    2    0    0  0.43855029581E+02 -0.18327819607E+03 -0.12959514256E+04  0.13184824273E+04  0.15294330000E+03 0.  0.
    8880022    1    1    2    0    0 -0.43855029581E+02  0.18327819607E+03  0.13833296915E+04  0.14044596289E+04  0.15294330000E+03 0. -1.
<mgrwt>
<rscale>  0 0.24270520E+03</rscale>
<asrwt>0</asrwt>
<pdfrwt beam="1">  1        1 0.21617849E+00 0.24270520E+03</pdfrwt>
<pdfrwt beam="2">  1       -1 0.20273568E+00 0.24270520E+03</pdfrwt>
<totfact> 0.13794132E+00</totfact>
</mgrwt>
</event>
<event>
 4    1  0.1678003E-008  0.2669366E+03  0.7818608E-02  0.1103046E+00
         -1   -1    0    0    0  501 -0.00000000000E+00  0.00000000000E+00  0.18140370368E+03  0.18140370375E+03  0.50400000000E-02 0.  1.
          1   -1    0    0  501    0  0.00000000000E+00 -0.00000000000E+00 -0.15245930477E+04  0.15245930477E+04  0.50400000000E-02 0. -1.
    8880022    1    1    2    0    0 -0.20470490998E+03 -0.77197081020E+02 -0.14065399321E+04  0.14316458092E+04  0.15294330000E+03 0.  0.
    8880022    1    1    2    0    0  0.20470490998E+03  0.77197081020E+02  0.63350588066E+02  0.27435094224E+03  0.15294330000E+03 0.  1.
<mgrwt>
<rscale>  0 0.26693659E+03</rscale>
<asrwt>0</asrwt>
<pdfrwt beam="1">  1        1 0.23455277E+00 0.26693659E+03</pdfrwt>
<pdfrwt beam="2">  1       -1 0.27908263E-01 0.26693659E+03</pdfrwt>
<totfact> 0.80660757E+01</totfact>
</mgrwt>
</event>
<event>
 4    1  0.1678003E-008  0.7741832E+03  0.7818608E-02  0.9598156E-01
          1   -1    0    0  501    0  0.00000000000E+00  0.00000000000E+00  0.15048607054E+04  0.15048607054E+04  0.50400000000E-02 0. -1.
         -1   -1    0    0    0  501 -0.00000000000E+00 -0.00000000000E+00 -0.67327037388E+03  0.67327037390E+03  0.50400000000E-02 0.  1.
    8880022    1    1    2    0    0  0.17266138944E+03 -0.73902373744E+03 -0.28021571802E+03  0.82333501173E+03  0.15294330000E+03 0.  0.
    8880022    1    1    2    0    0 -0.17266138944E+03  0.73902373744E+03  0.11118060496E+04  0.13547960676E+04  0.15294330000E+03 0.  0.
<mgrwt>
<rscale>  0 0.77418324E+03</rscale>
<asrwt>0</asrwt>
<pdfrwt beam="1">  1        1 0.23151703E+00 0.77418324E+03</pdfrwt>
<pdfrwt beam="2">  1       -1 0.10358006E+00 0.77418324E+03</pdfrwt>
<totfact> 0.59161058E+00</totfact>
</mgrwt>
</event>
<event>
 4    1  0.1678003E-008  0.6075431E+03  0.7818608E-02  0.9889879E-01
         -1   -1    0    0    0  501 -0.00000000000E+00  0.00000000000E+00  0.24300781291E+04  0.24300781291E+04  0.50400000000E-02 0.  1.
          1   -1    0    0  501    0  0.00000000000E+00 -0.00000000000E+00 -0.32871987444E+03  0.32871987447E+03  0.50400000000E-02 0. -1.
    8880022    1    1    2    0    0  0.39415062064E+03  0.43630523215E+03  0.20623813339E+04  0.21500059039E+04  0.15294330000E+03 0.  0.
    8880022    1    1    2    0    0 -0.39415062064E+03 -0.43630523215E+03  0.38976920831E+02  0.60879209975E+03  0.15294330000E+03 0.  0.
<mgrwt>
<rscale>  0 0.60754310E+03</rscale>
<asrwt>0</asrwt>
<pdfrwt beam="1">  1        1 0.50572288E-01 0.60754310E+03</pdfrwt>
<pdfrwt beam="2">  1       -1 0.37385817E+00 0.60754310E+03</pdfrwt>
<totfact> 0.91839071E-01</totfact>
</mgrwt>
</event>
<event>
 4    1  0.1678003E-008  0.2924972E+03  0.7818608E-02  0.1089052E+00
         -1   -1    0    0    0  501 -0.00000000000E+00  0.00000000000E+00  0.81479319625E+03  0.81479319626E+03  0.50400000000E-02 0.  1.
          1   -1    0    0  501    0  0.00000000000E+00 -0.00000000000E+00 -0.12719159585E+04  0.12719159585E+04  0.50400000000E-02 0. -1.
    8880022    1    1    2    0    0  0.21495990316E+03  0.12631391664E+03 -0.12279219338E+04  0.12622784534E+04  0.15294330000E+03 0.  0.
    8880022    1    1    2    0    0 -0.21495990316E+03 -0.12631391664E+03  0.77079917152E+03  0.82443070136E+03  0.15294330000E+03 0.  0.
<mgrwt>
<rscale>  0 0.29249721E+03</rscale>
<asrwt>0</asrwt>
<pdfrwt beam="1">  1        1 0.19567938E+00 0.29249721E+03</pdfrwt>
<pdfrwt beam="2">  1       -1 0.12535280E+00 0.29249721E+03</pdfrwt>
<totfact> 0.61405024E+00</totfact>
</mgrwt>
</event>
<event>
 4    1  0.1678003E-008  0.3679510E+03  0.7818608E-02  0.1055479E+00
          1   -1    0    0  501    0  0.00000000000E+00  0.00000000000E+00  0.13245811840E+04  0.13245811840E+04  0.50400000000E-02 0. -1.
         -1   -1    0    0    0  501 -0.00000000000E+00 -0.00000000000E+00 -0.17478806665E+03  0.17478806673E+03  0.50400000000E-02 0.  1.
    8880022    1    1    2    0    0 -0.80614505083E+02 -0.32480392709E+03  0.91815770181E+02  0.37923354038E+03  0.15294330000E+03 0.  0.
    8880022    1    1    2    0    0  0.80614505083E+02  0.32480392709E+03  0.10579773472E+04  0.11201357104E+04  0.15294330000E+03 0.  0.
<mgrwt>
<rscale>  0 0.36795101E+03</rscale>
<asrwt>0</asrwt>
<pdfrwt beam="1">  1        1 0.20378173E+00 0.36795101E+03</pdfrwt>
<pdfrwt beam="2">  1       -1 0.26890470E-01 0.36795101E+03</pdfrwt>
<totfact> 0.11458527E+02</totfact>
</mgrwt>
</event>
<event>
 4    1  0.1678003E-008  0.4504624E+03  0.7818608E-02  0.1027584E+00
          1   -1    0    0  501    0  0.00000000000E+00  0.00000000000E+00  0.96690172982E+03  0.96690172984E+03  0.50400000000E-02 0. -1.
         -1   -1    0    0    0  501 -0.00000000000E+00 -0.00000000000E+00 -0.63581444858E+03  0.63581444860E+03  0.50400000000E-02 0.  1.
    8880022    1    1    2    0    0  0.27200726896E+03 -0.32486426539E+03  0.82144984935E+03  0.93685444617E+03  0.15294330000E+03 0.  0.
    8880022    1    1    2    0    0 -0.27200726896E+03  0.32486426539E+03 -0.49036256811E+03  0.66586173228E+03  0.15294330000E+03 0.  0.
<mgrwt>
<rscale>  0 0.45046243E+03</rscale>
<asrwt>0</asrwt>
<pdfrwt beam="1">  1        1 0.14875411E+00 0.45046243E+03</pdfrwt>
<pdfrwt beam="2">  1       -1 0.97817608E-01 0.45046243E+03</pdfrwt>
<totfact> 0.17403020E+01</totfact>
</mgrwt>
</event>
<event>
 4    1  0.1678003E-008  0.1272976E+04  0.7818608E-02  0.9051274E-01
          1   -1    0    0  501    0  0.00000000000E+00  0.00000000000E+00  0.25802644119E+04  0.25802644119E+04  0.50400000000E-02 0. -1.
         -1   -1    0    0    0  501 -0.00000000000E+00 -0.00000000000E+00 -0.78686371260E+03  0.78686371262E+03  0.50400000000E-02 0.  1.
    8880022    1    1    2    0    0  0.12364520672E+04  0.26127215261E+03  0.14028705347E+03  0.12806830063E+04  0.15294330000E+03 0.  0.
    8880022    1    1    2    0    0 -0.12364520672E+04 -0.26127215261E+03  0.16531136458E+04  0.20864451182E+04  0.15294330000E+03 0.  0.
<mgrwt>
<rscale>  0 0.12729762E+04</rscale>
<asrwt>0</asrwt>
<pdfrwt beam="1">  1        1 0.39696374E+00 0.12729762E+04</pdfrwt>
<pdfrwt beam="2">  1       -1 0.12105596E+00 0.12729762E+04</pdfrwt>
<totfact> 0.70704877E-01</totfact>
</mgrwt>
</event>
<event>
 4    1  0.1678003E-008  0.2445890E+03  0.7818608E-02  0.1116773E+00
         -1   -1    0    0    0  501 -0.00000000000E+00  0.00000000000E+00  0.35543699191E+03  0.35543699195E+03  0.50400000000E-02 0.  1.
          1   -1    0    0  501    0  0.00000000000E+00 -0.00000000000E+00 -0.23005867653E+03  0.23005867658E+03  0.50400000000E-02 0. -1.
    8880022    1    1    2    0    0 -0.55112154357E+02  0.18274241542E+03  0.21435448310E+03  0.32522551774E+03  0.15294330000E+03 0. -1.
    8880022    1    1    2    0    0  0.55112154357E+02 -0.18274241542E+03 -0.88976167713E+02  0.26027015078E+03  0.15294330000E+03 0. -1.
<mgrwt>
<rscale>  0 0.24458903E+03</rscale>
<asrwt>0</asrwt>
<pdfrwt beam="1">  1        1 0.35393643E-01 0.24458903E+03</pdfrwt>
<pdfrwt beam="2">  1       -1 0.54682614E-01 0.24458903E+03</pdfrwt>
<totfact> 0.42858251E+02</totfact>
</mgrwt>
</event>
<event>
 4    1  0.1678003E-008  0.7075796E+03  0.7818608E-02  0.9704357E-01
         -1   -1    0    0    0  501 -0.00000000000E+00  0.00000000000E+00  0.46835850658E+03  0.46835850660E+03  0.50400000000E-02 0.  1.
          1   -1    0    0  501    0  0.00000000000E+00 -0.00000000000E+00 -0.16522767046E+04  0.16522767046E+04  0.50400000000E-02 0. -1.
    8880022    1    1    2    0    0  0.34576206740E+03 -0.59810186240E+03 -0.12219538663E+04  0.14120340468E+04  0.15294330000E+03 0.  0.
    8880022    1    1    2    0    0 -0.34576206740E+03  0.59810186240E+03  0.38035668277E+02  0.70860116436E+03  0.15294330000E+03 0.  0.
<mgrwt>
<rscale>  0 0.70757961E+03</rscale>
<asrwt>0</asrwt>
<pdfrwt beam="1">  1        1 0.25419641E+00 0.70757961E+03</pdfrwt>
<pdfrwt beam="2">  1       -1 0.72055156E-01 0.70757961E+03</pdfrwt>
<totfact> 0.10457933E+01</totfact>
</mgrwt>
</event>
<event>
 4    1  0.1678003E-008  0.6215056E+03  0.7818608E-02  0.9861767E-01
         -1   -1    0    0    0  501 -0.00000000000E+00  0.00000000000E+00  0.33564777657E+03  0.33564777660E+03  0.50400000000E-02 0.  1.
          1   -1    0    0  501    0  0.00000000000E+00 -0.00000000000E+00 -0.18052368022E+04  0.18052368022E+04  0.50400000000E-02 0. -1.
    8880022    1    1    2    0    0 -0.50642567991E+03  0.32620636447E+03 -0.90292410441E+02  0.62803020142E+03  0.15294330000E+03 0.  0.
    8880022    1    1    2    0    0  0.50642567991E+03 -0.32620636447E+03 -0.13792966152E+04  0.15128543774E+04  0.15294330000E+03 0.  0.
<mgrwt>
<rscale>  0 0.62150560E+03</rscale>
<asrwt>0</asrwt>
<pdfrwt beam="1">  1        1 0.27772873E+00 0.62150560E+03</pdfrwt>
<pdfrwt beam="2">  1       -1 0.51638121E-01 0.62150560E+03</pdfrwt>
<totfact> 0.16184001E+01</totfact>
</mgrwt>
</event>
<event>
 4    1  0.1678003E-008  0.5910324E+03  0.7818608E-02  0.9924188E-01
         -1   -1    0    0    0  501 -0.00000000000E+00  0.00000000000E+00  0.14057163698E+04  0.14057163698E+04  0.50400000000E-02 0.  1.
          1   -1    0    0  501    0  0.00000000000E+00 -0.00000000000E+00 -0.31776491391E+03  0.31776491395E+03  0.50400000000E-02 0. -1.
    8880022    1    1    2    0    0 -0.39191910138E+03 -0.41512289330E+03  0.94630634011E+03  0.11157127502E+04  0.15294330000E+03 0.  0.
    8880022    1    1    2    0    0  0.39191910138E+03  0.41512289330E+03  0.14164511577E+03  0.60776853358E+03  0.15294330000E+03 0.  0.
<mgrwt>
<rscale>  0 0.59103236E+03</rscale>
<asrwt>0</asrwt>
<pdfrwt beam="1">  1        1 0.48886909E-01 0.59103236E+03</pdfrwt>
<pdfrwt beam="2">  1       -1 0.21626406E+00 0.59103236E+03</pdfrwt>
<totfact> 0.10002580E+01</totfact>
</mgrwt>
</event>
<event>
 4    1  0.1678003E-008  0.5588747E+03  0.7818608E-02  0.9994604E-01
          1   -1    0    0  501    0  0.00000000000E+00  0.00000000000E+00  0.57832707186E+03  0.57832707188E+03  0.50400000000E-02 0. -1.
         -1   -1    0    0    0  501 -0.00000000000E+00 -0.00000000000E+00 -0.17826376303E+04  0.17826376303E+04  0.50400000000E-02 0.  1.
    8880022    1    1    2    0    0 -0.53357817435E+03  0.65142758410E+02  0.38341326428E+03  0.67775115740E+03  0.15294330000E+03 0.  0.
    8880022    1    1    2    0    0  0.53357817435E+03 -0.65142758410E+02 -0.15877238227E+04  0.16832135447E+04  0.15294330000E+03 0.  1.
<mgrwt>
<rscale>  0 0.55887467E+03</rscale>
<asrwt>0</asrwt>
<pdfrwt beam="1">  1        1 0.88973397E-01 0.55887467E+03</pdfrwt>
<pdfrwt beam="2">  1       -1 0.27425194E+00 0.55887467E+03</pdfrwt>
<totfact> 0.19092436E+00</totfact>
</mgrwt>
</event>
<event>
 4    1  0.1678003E-008  0.5898931E+03  0.7818608E-02  0.9926599E-01
          1   -1    0    0  501    0  0.00000000000E+00  0.00000000000E+00  0.21866278259E+04  0.21866278259E+04  0.50400000000E-02 0. -1.
         -1   -1    0    0    0  501 -0.00000000000E+00 -0.00000000000E+00 -0.18661791839E+03  0.18661791845E+03  0.50400000000E-02 0.  1.
    8880022    1    1    2    0    0 -0.39470121292E+03 -0.41084452482E+03  0.14553595709E+04  0.15703647362E+04  0.15294330000E+03 0.  0.
    8880022    1    1    2    0    0  0.39470121292E+03  0.41084452482E+03  0.54465033658E+03  0.80288100813E+03  0.15294330000E+03 0.  0.
<mgrwt>
<rscale>  0 0.58989315E+03</rscale>
<asrwt>0</asrwt>
<pdfrwt beam="1">  1        1 0.33640427E+00 0.58989315E+03</pdfrwt>
<pdfrwt beam="2">  1       -1 0.28710450E-01 0.58989315E+03</pdfrwt>
<totfact> 0.26166554E+01</totfact>
</mgrwt>
</event>
<event>
 4    1  0.1678003E-008  0.6593099E+03  0.7818608E-02  0.9789465E-01
         -1   -1    0    0    0  501 -0.00000000000E+00  0.00000000000E+00  0.61737890218E+03  0.61737890220E+03  0.50400000000E-02 0.  1.
          1   -1    0    0  501    0  0.00000000000E+00 -0.00000000000E+00 -0.13756906131E+04  0.13756906131E+04  0.50400000000E-02 0. -1.
    8880022    1    1    2    0    0 -0.63798145701E+03 -0.65403281603E+02 -0.10754423763E+04  0.12614538781E+04  0.15294330000E+03 0.  0.
    8880022    1    1    2    0    0  0.63798145701E+03  0.65403281603E+02  0.31713066538E+03  0.73161563725E+03  0.15294330000E+03 0.  0.
<mgrwt>
<rscale>  0 0.65930993E+03</rscale>
<asrwt>0</asrwt>
<pdfrwt beam="1">  1        1 0.21164471E+00 0.65930993E+03</pdfrwt>
<pdfrwt beam="2">  1       -1 0.94981370E-01 0.65930993E+03</pdfrwt>
<totfact> 0.90110982E+00</totfact>
</mgrwt>
</event>
<event>
 4    1  0.1678003E-008  0.1339358E+04  0.7818608E-02  0.8998923E-01
         -1   -1    0    0    0  501 -0.00000000000E+00  0.00000000000E+00  0.19097165635E+04  0.19097165635E+04  0.50400000000E-02 0.  1.
          1   -1    0    0  501    0  0.00000000000E+00 -0.00000000000E+00 -0.11333029861E+04  0.11333029861E+04  0.50400000000E-02 0. -1.
    8880022    1    1    2    0    0  0.13065426635E+04 -0.25186224069E+03  0.10176508860E+04  0.16821097760E+04  0.15294330000E+03 0.  0.
    8880022    1    1    2    0    0 -0.13065426635E+04  0.25186224069E+03 -0.24123730863E+03  0.13609097736E+04  0.15294330000E+03 0.  0.
<mgrwt>
<rscale>  0 0.13393580E+04</rscale>
<asrwt>0</asrwt>
<pdfrwt beam="1">  1        1 0.17435431E+00 0.13393580E+04</pdfrwt>
<pdfrwt beam="2">  1       -1 0.29380254E+00 0.13393580E+04</pdfrwt>
<totfact> 0.41926999E-01</totfact>
</mgrwt>
</event>
<event>
 4    1  0.1678003E-008  0.3039667E+03  0.7818608E-02  0.1083274E+00
          1   -1    0    0  501    0  0.00000000000E+00  0.00000000000E+00  0.62798370050E+03  0.62798370052E+03  0.50400000000E-02 0. -1.
         -1   -1    0    0    0  501 -0.00000000000E+00 -0.00000000000E+00 -0.33772314253E+03  0.33772314256E+03  0.50400000000E-02 0.  1.
    8880022    1    1    2    0    0 -0.23345181495E+03  0.12043405072E+03  0.50786371633E+03  0.59187947916E+03  0.15294330000E+03 0.  0.
    8880022    1    1    2    0    0  0.23345181495E+03 -0.12043405072E+03 -0.21760315835E+03  0.37382736392E+03  0.15294330000E+03 0.  1.
<mgrwt>
<rscale>  0 0.30396671E+03</rscale>
<asrwt>0</asrwt>
<pdfrwt beam="1">  1        1 0.96612877E-01 0.30396671E+03</pdfrwt>
<pdfrwt beam="2">  1       -1 0.51957407E-01 0.30396671E+03</pdfrwt>
<totfact> 0.12695438E+02</totfact>
</mgrwt>
</event>
<event>
 4    1  0.1678003E-008  0.6419750E+03  0.7818608E-02  0.9821955E-01
          1   -1    0    0  501    0  0.00000000000E+00  0.00000000000E+00  0.18825650151E+04  0.18825650151E+04  0.50400000000E-02 0. -1.
         -1   -1    0    0    0  501 -0.00000000000E+00 -0.00000000000E+00 -0.34221513235E+03  0.34221513239E+03  0.50400000000E-02 0.  1.
    8880022    1    1    2    0    0 -0.14401154337E+03 -0.60663082310E+03  0.14378723906E+04  0.15746774098E+04  0.15294330000E+03 0.  0.
    8880022    1    1    2    0    0  0.14401154337E+03  0.60663082310E+03  0.10247749212E+03  0.65010273770E+03  0.15294330000E+03 0.  0.
<mgrwt>
<rscale>  0 0.64197503E+03</rscale>
<asrwt>0</asrwt>
<pdfrwt beam="1">  1        1 0.28962539E+00 0.64197503E+03</pdfrwt>
<pdfrwt beam="2">  1       -1 0.52648482E-01 0.64197503E+03</pdfrwt>
<totfact> 0.13803932E+01</totfact>
</mgrwt>
</event>
<event>
 4    1  0.1678003E-008  0.3364178E+03  0.7818608E-02  0.1068332E+00
         -1   -1    0    0    0  501 -0.00000000000E+00  0.00000000000E+00  0.11579951297E+03  0.11579951308E+03  0.50400000000E-02 0.  1.
          1   -1    0    0  501    0  0.00000000000E+00 -0.00000000000E+00 -0.37607017467E+04  0.37607017467E+04  0.50400000000E-02 0. -1.
    8880022    1    1    2    0    0 -0.26175672211E+03  0.14583787656E+03 -0.34899262079E+04  0.35061035149E+04  0.15294330000E+03 0.  0.
    8880022    1    1    2    0    0  0.26175672211E+03 -0.14583787656E+03 -0.15497602588E+03  0.37039774490E+03  0.15294330000E+03 0.  0.
<mgrwt>
<rscale>  0 0.33641778E+03</rscale>
<asrwt>0</asrwt>
<pdfrwt beam="1">  1        1 0.57856940E+00 0.33641778E+03</pdfrwt>
<pdfrwt beam="2">  1       -1 0.17815313E-01 0.33641778E+03</pdfrwt>
<totfact> 0.46703332E+00</totfact>
</mgrwt>
</event>
<event>
 4    1  0.1678003E-008  0.5052423E+03  0.7818608E-02  0.1012420E+00
          1   -1    0    0  501    0  0.00000000000E+00  0.00000000000E+00  0.45058894338E+03  0.45058894341E+03  0.50400000000E-02 0. -1.
         -1   -1    0    0    0  501 -0.00000000000E+00 -0.00000000000E+00 -0.63941058416E+03  0.63941058418E+03  0.50400000000E-02 0.  1.
    8880022    1    1    2    0    0 -0.40525652053E+03  0.26008715277E+03 -0.27841500944E+03  0.57687498209E+03  0.15294330000E+03 0.  0.
    8880022    1    1    2    0    0  0.40525652053E+03 -0.26008715277E+03  0.89593368671E+02  0.51312454550E+03  0.15294330000E+03 0.  0.
<mgrwt>
<rscale>  0 0.50524235E+03</rscale>
<asrwt>0</asrwt>
<pdfrwt beam="1">  1        1 0.69321376E-01 0.50524235E+03</pdfrwt>
<pdfrwt beam="2">  1       -1 0.98370859E-01 0.50524235E+03</pdfrwt>
<totfact> 0.52901252E+01</totfact>
</mgrwt>
</event>
<event>
 4    1  0.1678003E-008  0.2643110E+03  0.7818608E-02  0.1104580E+00
          1   -1    0    0  501    0  0.00000000000E+00  0.00000000000E+00  0.38157798055E+03  0.38157798058E+03  0.50400000000E-02 0. -1.
         -1   -1    0    0    0  501 -0.00000000000E+00 -0.00000000000E+00 -0.35825372535E+03  0.35825372539E+03  0.50400000000E-02 0.  1.
    8880022    1    1    2    0    0  0.21245895221E+03 -0.36467378935E+02 -0.24700349592E+03  0.36176104836E+03  0.15294330000E+03 0.  0.
    8880022    1    1    2    0    0 -0.21245895221E+03  0.36467378935E+02  0.27032775112E+03  0.37807065760E+03  0.15294330000E+03 0.  0.
<mgrwt>
<rscale>  0 0.26431105E+03</rscale>
<asrwt>0</asrwt>
<pdfrwt beam="1">  1        1 0.58704305E-01 0.26431105E+03</pdfrwt>
<pdfrwt beam="2">  1       -1 0.55115957E-01 0.26431105E+03</pdfrwt>
<totfact> 0.22235828E+02</totfact>
</mgrwt>
</event>
<event>
 4    1  0.1678003E-008  0.3605439E+03  0.7818608E-02  0.1058369E+00
         -1   -1    0    0    0  501 -0.00000000000E+00  0.00000000000E+00  0.26812886131E+03  0.26812886136E+03  0.50400000000E-02 0.  1.
          1   -1    0    0  501    0  0.00000000000E+00 -0.00000000000E+00 -0.10337254583E+04  0.10337254583E+04  0.50400000000E-02 0. -1.
    8880022    1    1    2    0    0  0.31673888989E+03  0.79225884630E+02 -0.85712981185E+03  0.92987280450E+03  0.15294330000E+03 0.  0.
    8880022    1    1    2    0    0 -0.31673888989E+03 -0.79225884630E+02  0.91533214895E+02  0.37198151514E+03  0.15294330000E+03 0.  0.
<mgrwt>
<rscale>  0 0.36054392E+03</rscale>
<asrwt>0</asrwt>
<pdfrwt beam="1">  1        1 0.15903468E+00 0.36054392E+03</pdfrwt>
<pdfrwt beam="2">  1       -1 0.41250595E-01 0.36054392E+03</pdfrwt>
<totfact> 0.87725051E+01</totfact>
</mgrwt>
</event>
<event>
 4    1  0.1678003E-008  0.3214318E+03  0.7818608E-02  0.1074992E+00
          1   -1    0    0  501    0  0.00000000000E+00  0.00000000000E+00  0.32209677695E+03  0.32209677699E+03  0.50400000000E-02 0. -1.
         -1   -1    0    0    0  501 -0.00000000000E+00 -0.00000000000E+00 -0.42776585189E+03  0.42776585192E+03  0.50400000000E-02 0.  1.
    8880022    1    1    2    0    0 -0.16213088557E+03 -0.23160381370E+03  0.13468036160E+03  0.34850710666E+03  0.15294330000E+03 0.  0.
    8880022    1    1    2    0    0  0.16213088557E+03  0.23160381370E+03 -0.24034943654E+03  0.40135552225E+03  0.15294330000E+03 0.  0.
<mgrwt>
<rscale>  0 0.32143180E+03</rscale>
<asrwt>0</asrwt>
<pdfrwt beam="1">  1        1 0.49553350E-01 0.32143180E+03</pdfrwt>
<pdfrwt beam="2">  1       -1 0.65810131E-01 0.32143180E+03</pdfrwt>
<totfact> 0.19476249E+02</totfact>
</mgrwt>
</event>
<event>
 4    1  0.1678003E-008  0.3406033E+03  0.7818608E-02  0.1066539E+00
         -1   -1    0    0    0  501 -0.00000000000E+00  0.00000000000E+00  0.14419895154E+04  0.14419895154E+04  0.50400000000E-02 0.  1.
          1   -1    0    0  501    0  0.00000000000E+00 -0.00000000000E+00 -0.72291138847E+03  0.72291138848E+03  0.50400000000E-02 0. -1.
    8880022    1    1    2    0    0  0.29972729162E+03  0.52749327149E+02 -0.66090314520E+03  0.74350760669E+03  0.15294330000E+03 0. -1.
    8880022    1    1    2    0    0 -0.29972729162E+03 -0.52749327149E+02  0.13799812721E+04  0.14213932972E+04  0.15294330000E+03 0.  0.
<mgrwt>
<rscale>  0 0.34060328E+03</rscale>
<asrwt>0</asrwt>
<pdfrwt beam="1">  1        1 0.11121714E+00 0.34060328E+03</pdfrwt>
<pdfrwt beam="2">  1       -1 0.22184454E+00 0.34060328E+03</pdfrwt>
<totfact> 0.31891058E+00</totfact>
</mgrwt>
</event>
<event>
 4    1  0.1678003E-008  0.1440744E+04  0.7818608E-02  0.8924843E-01
         -1   -1    0    0    0  501 -0.00000000000E+00  0.00000000000E+00  0.12213704711E+04  0.12213704711E+04  0.50400000000E-02 0.  1.
          1   -1    0    0  501    0  0.00000000000E+00 -0.00000000000E+00 -0.20235887107E+04  0.20235887107E+04  0.50400000000E-02 0. -1.
    8880022    1    1    2    0    0 -0.14142761249E+04  0.22841971589E+03 -0.10503955427E+04  0.17829960665E+04  0.15294330000E+03 0.  0.
    8880022    1    1    2    0    0  0.14142761249E+04 -0.22841971589E+03  0.24817730309E+03  0.14619631154E+04  0.15294330000E+03 0.  0.
<mgrwt>
<rscale>  0 0.14407443E+04</rscale>
<asrwt>0</asrwt>
<pdfrwt beam="1">  1        1 0.31132134E+00 0.14407443E+04</pdfrwt>
<pdfrwt beam="2">  1       -1 0.18790315E+00 0.14407443E+04</pdfrwt>
<totfact> 0.50015710E-01</totfact>
</mgrwt>
</event>
<event>
 4    1  0.1678003E-008  0.3154869E+03  0.7818608E-02  0.1077745E+00
         -1   -1    0    0    0  501 -0.00000000000E+00  0.00000000000E+00  0.12528028762E+04  0.12528028762E+04  0.50400000000E-02 0.  1.
          1   -1    0    0  501    0  0.00000000000E+00 -0.00000000000E+00 -0.28029905266E+03  0.28029905271E+03  0.50400000000E-02 0. -1.
    8880022    1    1    2    0    0  0.11235503509E+03  0.25202518426E+03 -0.16263328191E+03  0.35493884658E+03  0.15294330000E+03 0.  0.
    8880022    1    1    2    0    0 -0.11235503509E+03 -0.25202518426E+03  0.11351371054E+04  0.11781630823E+04  0.15294330000E+03 0.  0.
<mgrwt>
<rscale>  0 0.31548693E+03</rscale>
<asrwt>0</asrwt>
<pdfrwt beam="1">  1        1 0.43122931E-01 0.31548693E+03</pdfrwt>
<pdfrwt beam="2">  1       -1 0.19273890E+00 0.31548693E+03</pdfrwt>
<totfact> 0.17835749E+01</totfact>
</mgrwt>
</event>
<event>
 4    1  0.1678003E-008  0.3722519E+03  0.7818608E-02  0.1053835E+00
          1   -1    0    0  501    0  0.00000000000E+00  0.00000000000E+00  0.18940252782E+04  0.18940252782E+04  0.50400000000E-02 0. -1.
         -1   -1    0    0    0  501 -0.00000000000E+00 -0.00000000000E+00 -0.94778461797E+02  0.94778461931E+02  0.50400000000E-02 0.  1.
    8880022    1    1    2    0    0 -0.18280244931E+03  0.28594251098E+03  0.42473124365E+03  0.56477264223E+03  0.15294330000E+03 0.  1.
    8880022    1    1    2    0    0  0.18280244931E+03 -0.28594251098E+03  0.13745155727E+04  0.14240310979E+04  0.15294330000E+03 0. -1.
<mgrwt>
<rscale>  0 0.37225194E+03</rscale>
<asrwt>0</asrwt>
<pdfrwt beam="1">  1        1 0.29138851E+00 0.37225194E+03</pdfrwt>
<pdfrwt beam="2">  1       -1 0.14581302E-01 0.37225194E+03</pdfrwt>
<totfact> 0.13069034E+02</totfact>
</mgrwt>
</event>
<event>
 4    1  0.1678003E-008  0.8094386E+03  0.7818608E-02  0.9546455E-01
          1   -1    0    0  501    0  0.00000000000E+00  0.00000000000E+00  0.23504595879E+04  0.23504595879E+04  0.50400000000E-02 0. -1.
         -1   -1    0    0    0  501 -0.00000000000E+00 -0.00000000000E+00 -0.33635953163E+03  0.33635953166E+03  0.50400000000E-02 0.  1.
    8880022    1    1    2    0    0 -0.61609393075E+03  0.50222259757E+03  0.15630224339E+04  0.17601789826E+04  0.15294330000E+03 0.  0.
    8880022    1    1    2    0    0  0.61609393075E+03 -0.50222259757E+03  0.45107762244E+03  0.92664013700E+03  0.15294330000E+03 0.  0.
<mgrwt>
<rscale>  0 0.80943865E+03</rscale>
<asrwt>0</asrwt>
<pdfrwt beam="1">  1        1 0.36160916E+00 0.80943865E+03</pdfrwt>
<pdfrwt beam="2">  1       -1 0.51747621E-01 0.80943865E+03</pdfrwt>
<totfact> 0.67419072E+00</totfact>
</mgrwt>
</event>
<event>
 4    1  0.1678003E-008  0.2979287E+03  0.7818608E-02  0.1086281E+00
         -1   -1    0    0    0  501 -0.00000000000E+00  0.00000000000E+00  0.10672020020E+03  0.10672020032E+03  0.50400000000E-02 0.  1.
          1   -1    0    0  501    0  0.00000000000E+00 -0.00000000000E+00 -0.11693868391E+04  0.11693868391E+04  0.50400000000E-02 0. -1.
    8880022    1    1    2    0    0  0.24537529926E+03 -0.71838853419E+02 -0.18846994837E+03  0.35253713677E+03  0.15294330000E+03 0.  1.
    8880022    1    1    2    0    0 -0.24537529926E+03  0.71838853419E+02 -0.87419669050E+03  0.92356990263E+03  0.15294330000E+03 0. -1.
<mgrwt>
<rscale>  0 0.29792870E+03</rscale>
<asrwt>0</asrwt>
<pdfrwt beam="1">  1        1 0.17990566E+00 0.29792870E+03</pdfrwt>
<pdfrwt beam="2">  1       -1 0.16418493E-01 0.29792870E+03</pdfrwt>
<totfact> 0.33528104E+02</totfact>
</mgrwt>
</event>
<event>
 4    1  0.1678003E-008  0.3770336E+03  0.7818608E-02  0.1052036E+00
          1   -1    0    0  501    0  0.00000000000E+00  0.00000000000E+00  0.97847982663E+03  0.97847982664E+03  0.50400000000E-02 0. -1.
         -1   -1    0    0    0  501 -0.00000000000E+00 -0.00000000000E+00 -0.45058652787E+03  0.45058652790E+03  0.50400000000E-02 0.  1.
    8880022    1    1    2    0    0  0.24130542273E+03 -0.24603732090E+03 -0.32422052102E+03  0.49726579370E+03  0.15294330000E+03 0.  0.
    8880022    1    1    2    0    0 -0.24130542273E+03  0.24603732090E+03  0.85211381978E+03  0.93180056084E+03  0.15294330000E+03 0.  0.
<mgrwt>
<rscale>  0 0.37703358E+03</rscale>
<asrwt>0</asrwt>
<pdfrwt beam="1">  1        1 0.15053536E+00 0.37703358E+03</pdfrwt>
<pdfrwt beam="2">  1       -1 0.69321005E-01 0.37703358E+03</pdfrwt>
<totfact> 0.35932375E+01</totfact>
</mgrwt>
</event>
<event>
 4    1  0.1678003E-008  0.3857620E+03  0.7818608E-02  0.1048824E+00
         -1   -1    0    0    0  501 -0.00000000000E+00  0.00000000000E+00  0.24851741272E+03  0.24851741278E+03  0.50400000000E-02 0.  1.
          1   -1    0    0  501    0  0.00000000000E+00 -0.00000000000E+00 -0.18913370560E+04  0.18913370560E+04  0.50400000000E-02 0. -1.
    8880022    1    1    2    0    0 -0.30399200185E+03 -0.18168527424E+03 -0.17058963221E+04  0.17489695797E+04  0.15294330000E+03 0.  0.
    8880022    1    1    2    0    0  0.30399200185E+03  0.18168527424E+03  0.63076678817E+02  0.39088488905E+03  0.15294330000E+03 0.  0.
<mgrwt>
<rscale>  0 0.38576201E+03</rscale>
<asrwt>0</asrwt>
<pdfrwt beam="1">  1        1 0.29097492E+00 0.38576201E+03</pdfrwt>
<pdfrwt beam="2">  1       -1 0.38233449E-01 0.38576201E+03</pdfrwt>
<totfact> 0.25945622E+01</totfact>
</mgrwt>
</event>
<event>
 4    1  0.1678003E-008  0.3648908E+03  0.7818608E-02  0.1056664E+00
         -1   -1    0    0    0  501 -0.00000000000E+00  0.00000000000E+00  0.71986928830E+03  0.71986928831E+03  0.50400000000E-02 0.  1.
          1   -1    0    0  501    0  0.00000000000E+00 -0.00000000000E+00 -0.91231588732E+03  0.91231588733E+03  0.50400000000E-02 0. -1.
    8880022    1    1    2    0    0 -0.18369152698E+03 -0.27570103265E+03  0.63246368568E+03  0.73017504970E+03  0.15294330000E+03 0.  0.
    8880022    1    1    2    0    0  0.18369152698E+03  0.27570103265E+03 -0.82491028470E+03  0.90201012595E+03  0.15294330000E+03 0.  0.
<mgrwt>
<rscale>  0 0.36489079E+03</rscale>
<asrwt>0</asrwt>
<pdfrwt beam="1">  1        1 0.14035629E+00 0.36489079E+03</pdfrwt>
<pdfrwt beam="2">  1       -1 0.11074912E+00 0.36489079E+03</pdfrwt>
<totfact> 0.14756274E+01</totfact>
</mgrwt>
</event>
<event>
 4    1  0.1678003E-008  0.5734755E+03  0.7818608E-02  0.9962017E-01
          1   -1    0    0  501    0  0.00000000000E+00  0.00000000000E+00  0.71581333463E+03  0.71581333464E+03  0.50400000000E-02 0. -1.
         -1   -1    0    0    0  501 -0.00000000000E+00 -0.00000000000E+00 -0.63602167510E+03  0.63602167512E+03  0.50400000000E-02 0.  1.
    8880022    1    1    2    0    0 -0.53194763467E+03  0.15004749858E+03 -0.31625091935E+03  0.65489604890E+03  0.15294330000E+03 0. -1.
    8880022    1    1    2    0    0  0.53194763467E+03 -0.15004749858E+03  0.39604257888E+03  0.69693896086E+03  0.15294330000E+03 0.  1.
<mgrwt>
<rscale>  0 0.57347554E+03</rscale>
<asrwt>0</asrwt>
<pdfrwt beam="1">  1        1 0.11012513E+00 0.57347554E+03</pdfrwt>
<pdfrwt beam="2">  1       -1 0.97849489E-01 0.57347554E+03</pdfrwt>
<totfact> 0.27625734E+01</totfact>
</mgrwt>
</event>
<event>
 4    1  0.1678003E-008  0.5553739E+03  0.7818608E-02  0.1000258E+00
         -1   -1    0    0    0  501 -0.00000000000E+00  0.00000000000E+00  0.12974578391E+04  0.12974578391E+04  0.50400000000E-02 0.  1.
          1   -1    0    0  501    0  0.00000000000E+00 -0.00000000000E+00 -0.74032743405E+03  0.74032743406E+03  0.50400000000E-02 0. -1.
    8880022    1    1    2    0    0 -0.48005922736E+03 -0.23364861617E+03  0.11180795472E+04  0.12484158219E+04  0.15294330000E+03 0.  0.
    8880022    1    1    2    0    0  0.48005922736E+03  0.23364861617E+03 -0.56094914208E+03  0.78936945129E+03  0.15294330000E+03 0.  0.
<mgrwt>
<rscale>  0 0.55537392E+03</rscale>
<asrwt>0</asrwt>
<pdfrwt beam="1">  1        1 0.11389653E+00 0.55537392E+03</pdfrwt>
<pdfrwt beam="2">  1       -1 0.19960890E+00 0.55537392E+03</pdfrwt>
<totfact> 0.40704607E+00</totfact>
</mgrwt>
</event>
<event>
 4    1  0.1678003E-008  0.1869288E+03  0.7818608E-02  0.1161261E+00
         -1   -1    0    0    0  501 -0.00000000000E+00  0.00000000000E+00  0.14858312730E+03  0.14858312739E+03  0.50400000000E-02 0.  1.
          1   -1    0    0  501    0  0.00000000000E+00 -0.00000000000E+00 -0.53062337085E+03  0.53062337087E+03  0.50400000000E-02 0. -1.
    8880022    1    1    2    0    0 -0.99484770522E+02 -0.40663102408E+02 -0.44442956557E+03  0.48214105740E+03  0.15294330000E+03 0. -1.
    8880022    1    1    2    0    0  0.99484770522E+02  0.40663102408E+02  0.62389322028E+02  0.19706544086E+03  0.15294330000E+03 0.  0.
<mgrwt>
<rscale>  0 0.18692876E+03</rscale>
<asrwt>0</asrwt>
<pdfrwt beam="1">  1        1 0.81634364E-01 0.18692876E+03</pdfrwt>
<pdfrwt beam="2">  1       -1 0.22858943E-01 0.18692876E+03</pdfrwt>
<totfact> 0.67786292E+02</totfact>
</mgrwt>
</event>
<event>
 4    1  0.1678003E-008  0.2125582E+03  0.7818608E-02  0.1139556E+00
         -1   -1    0    0    0  501 -0.00000000000E+00  0.00000000000E+00  0.17809055734E+03  0.17809055741E+03  0.50400000000E-02 0.  1.
          1   -1    0    0  501    0  0.00000000000E+00 -0.00000000000E+00 -0.34644162289E+04  0.34644162289E+04  0.50400000000E-02 0. -1.
    8880022    1    1    2    0    0  0.14456868862E+03  0.29819661768E+02  0.11013837414E+03  0.23939806271E+03  0.15294330000E+03 0.  0.
    8880022    1    1    2    0    0 -0.14456868862E+03 -0.29819661768E+02 -0.33964640457E+04  0.34031087236E+04  0.15294330000E+03 0.  0.
<mgrwt>
<rscale>  0 0.21255816E+03</rscale>
<asrwt>0</asrwt>
<pdfrwt beam="1">  1        1 0.53298706E+00 0.21255816E+03</pdfrwt>
<pdfrwt beam="2">  1       -1 0.27398550E-01 0.21255816E+03</pdfrwt>
<totfact> 0.41819692E+00</totfact>
</mgrwt>
</event>
<event>
 4    1  0.1678003E-008  0.3167355E+03  0.7818608E-02  0.1077162E+00
         -1   -1    0    0    0  501 -0.00000000000E+00  0.00000000000E+00  0.63497688204E+03  0.63497688206E+03  0.50400000000E-02 0.  1.
          1   -1    0    0  501    0  0.00000000000E+00 -0.00000000000E+00 -0.40511920271E+03  0.40511920274E+03  0.50400000000E-02 0. -1.
    8880022    1    1    2    0    0 -0.26211542351E+03  0.90693146738E+02  0.52110286911E+03  0.60981111446E+03  0.15294330000E+03 0.  0.
    8880022    1    1    2    0    0  0.26211542351E+03 -0.90693146738E+02 -0.29124518979E+03  0.43028497033E+03  0.15294330000E+03 0.  0.
<mgrwt>
<rscale>  0 0.31673553E+03</rscale>
<asrwt>0</asrwt>
<pdfrwt beam="1">  1        1 0.62326031E-01 0.31673553E+03</pdfrwt>
<pdfrwt beam="2">  1       -1 0.97688751E-01 0.31673553E+03</pdfrwt>
<totfact> 0.63521485E+01</totfact>
</mgrwt>
</event>
<event>
 4    1  0.2687510E-007  0.4168847E+03  0.7818608E-02  0.1038085E+00
          1   -1    0    0  501    0  0.00000000000E+00  0.00000000000E+00  0.44858337733E+04  0.44858337733E+04  0.50400000000E-02 0. -1.
         -1   -1    0    0    0  501 -0.00000000000E+00 -0.00000000000E+00 -0.13026641843E+04  0.13026641843E+04  0.50400000000E-02 0.  1.
    8880022    1    1    2    0    0 -0.20068507559E+03  0.33185347553E+03  0.44424699124E+04  0.44619874276E+04  0.15294330000E+03 0.  0.
    8880022    1    1    2    0    0  0.20068507559E+03 -0.33185347553E+03 -0.12593003234E+04  0.13265105300E+04  0.15294330000E+03 0.  0.
<mgrwt>
<rscale>  0 0.41688473E+03</rscale>
<asrwt>0</asrwt>
<pdfrwt beam="1">  1        1 0.69012828E+00 0.41688473E+03</pdfrwt>
<pdfrwt beam="2">  1       -1 0.20040987E+00 0.41688473E+03</pdfrwt>
<totfact> 0.68126078E-03</totfact>
</mgrwt>
</event>
<event>
 4    1  0.1678003E-008  0.3871444E+03  0.7818608E-02  0.1048324E+00
          1   -1    0    0  501    0  0.00000000000E+00  0.00000000000E+00  0.22040989317E+03  0.22040989323E+03  0.50400000000E-02 0. -1.
         -1   -1    0    0    0  501 -0.00000000000E+00 -0.00000000000E+00 -0.89786199735E+03  0.89786199737E+03  0.50400000000E-02 0.  1.
    8880022    1    1    2    0    0 -0.57702747716E+02 -0.35094092870E+03 -0.61414512082E+03  0.72598555424E+03  0.15294330000E+03 0.  1.
    8880022    1    1    2    0    0  0.57702747716E+02  0.35094092870E+03 -0.63306983369E+02  0.39228633635E+03  0.15294330000E+03 0. -1.
<mgrwt>
<rscale>  0 0.38714441E+03</rscale>
<asrwt>0</asrwt>
<pdfrwt beam="1">  1        1 0.33909215E-01 0.38714441E+03</pdfrwt>
<pdfrwt beam="2">  1       -1 0.13813261E+00 0.38714441E+03</pdfrwt>
<totfact> 0.60039928E+01</totfact>
</mgrwt>
</event>
<event>
 4    1  0.1678003E-008  0.4646501E+03  0.7818608E-02  0.1023441E+00
          1   -1    0    0  501    0  0.00000000000E+00  0.00000000000E+00  0.22452597635E+04  0.22452597635E+04  0.50400000000E-02 0. -1.
         -1   -1    0    0    0  501 -0.00000000000E+00 -0.00000000000E+00 -0.19498677854E+03  0.19498677861E+03  0.50400000000E-02 0.  1.
    8880022    1    1    2    0    0 -0.43804392476E+03 -0.25012407052E+02  0.15649058388E+03  0.49029486677E+03  0.15294330000E+03 0.  0.
    8880022    1    1    2    0    0  0.43804392476E+03  0.25012407052E+02  0.18937824011E+04  0.19499516753E+04  0.15294330000E+03 0. -1.
<mgrwt>
<rscale>  0 0.46465014E+03</rscale>
<asrwt>0</asrwt>
<pdfrwt beam="1">  1        1 0.34542456E+00 0.46465014E+03</pdfrwt>
<pdfrwt beam="2">  1       -1 0.29997967E-01 0.46465014E+03</pdfrwt>
<totfact> 0.22741487E+01</totfact>
</mgrwt>
</event>
<event>
 4    1  0.1678003E-008  0.3973043E+03  0.7818608E-02  0.1044717E+00
          1   -1    0    0  501    0  0.00000000000E+00  0.00000000000E+00  0.77364605917E+03  0.77364605918E+03  0.50400000000E-02 0. -1.
         -1   -1    0    0    0  501 -0.00000000000E+00 -0.00000000000E+00 -0.33511041726E+03  0.33511041730E+03  0.50400000000E-02 0.  1.
    8880022    1    1    2    0    0 -0.25455468568E+03  0.26393370311E+03  0.56598321057E+03  0.69151119680E+03  0.15294330000E+03 0.  0.
    8880022    1    1    2    0    0  0.25455468568E+03 -0.26393370311E+03 -0.12744756867E+03  0.41724527968E+03  0.15294330000E+03 0.  1.
<mgrwt>
<rscale>  0 0.39730434E+03</rscale>
<asrwt>0</asrwt>
<pdfrwt beam="1">  1        1 0.11902247E+00 0.39730434E+03</pdfrwt>
<pdfrwt beam="2">  1       -1 0.51555449E-01 0.39730434E+03</pdfrwt>
<totfact> 0.93349137E+01</totfact>
</mgrwt>
</event>
<event>
 4    1  0.1678003E-008  0.2539547E+03  0.7818608E-02  0.1110831E+00
         -1   -1    0    0    0  501 -0.00000000000E+00  0.00000000000E+00  0.48491016484E+02  0.48491016746E+02  0.50400000000E-02 0.  1.
          1   -1    0    0  501    0  0.00000000000E+00 -0.00000000000E+00 -0.25092298392E+04  0.25092298393E+04  0.50400000000E-02 0. -1.
    8880022    1    1    2    0    0  0.12850606025E+02  0.20232690411E+03 -0.35366643739E+03  0.43539971997E+03  0.15294330000E+03 0.  0.
    8880022    1    1    2    0    0 -0.12850606025E+02 -0.20232690411E+03 -0.21070723854E+04  0.21223211360E+04  0.15294330000E+03 0.  1.
<mgrwt>
<rscale>  0 0.25395466E+03</rscale>
<asrwt>0</asrwt>
<pdfrwt beam="1">  1        1 0.38603526E+00 0.25395466E+03</pdfrwt>
<pdfrwt beam="2">  1       -1 0.74601583E-02 0.25395466E+03</pdfrwt>
<totfact> 0.15068087E+02</totfact>
</mgrwt>
</event>
<event>
 4    1  0.1678003E-008  0.3377633E+03  0.7818608E-02  0.1067753E+00
          1   -1    0    0  501    0  0.00000000000E+00  0.00000000000E+00  0.36886806606E+03  0.36886806610E+03  0.50400000000E-02 0. -1.
         -1   -1    0    0    0  501 -0.00000000000E+00 -0.00000000000E+00 -0.74433370821E+03  0.74433370822E+03  0.50400000000E-02 0.  1.
    8880022    1    1    2    0    0  0.19939074609E+03 -0.22568945401E+03  0.23779774554E+03  0.41307604636E+03  0.15294330000E+03 0. -1.
    8880022    1    1    2    0    0 -0.19939074609E+03  0.22568945401E+03 -0.61326338768E+03  0.70012572797E+03  0.15294330000E+03 0.  0.
<mgrwt>
<rscale>  0 0.33776331E+03</rscale>
<asrwt>0</asrwt>
<pdfrwt beam="1">  1        1 0.56748933E-01 0.33776331E+03</pdfrwt>
<pdfrwt beam="2">  1       -1 0.11451288E+00 0.33776331E+03</pdfrwt>
<totfact> 0.49656499E+01</totfact>
</mgrwt>
</event>
<event>
 4    1  0.1678003E-008  0.8013485E+03  0.7818608E-02  0.9558067E-01
         -1   -1    0    0    0  501 -0.00000000000E+00  0.00000000000E+00  0.31827576047E+03  0.31827576051E+03  0.50400000000E-02 0.  1.
          1   -1    0    0  501    0  0.00000000000E+00 -0.00000000000E+00 -0.32713586551E+04  0.32713586551E+04  0.50400000000E-02 0. -1.
    8880022    1    1    2    0    0 -0.62013758213E+03  0.48393924042E+03 -0.25876581978E+04  0.27088991142E+04  0.15294330000E+03 0. -1.
    8880022    1    1    2    0    0  0.62013758213E+03 -0.48393924042E+03 -0.36542469691E+03  0.88073530150E+03  0.15294330000E+03 0.  0.
<mgrwt>
<rscale>  0 0.80134853E+03</rscale>
<asrwt>0</asrwt>
<pdfrwt beam="1">  1        1 0.50328593E+00 0.80134853E+03</pdfrwt>
<pdfrwt beam="2">  1       -1 0.48965504E-01 0.80134853E+03</pdfrwt>
<totfact> 0.16791386E+00</totfact>
</mgrwt>
</event>
<event>
 4    1  0.1678003E-008  0.2057912E+03  0.7818608E-02  0.1144943E+00
         -1   -1    0    0    0  501 -0.00000000000E+00  0.00000000000E+00  0.19083168439E+03  0.19083168446E+03  0.50400000000E-02 0.  1.
          1   -1    0    0  501    0  0.00000000000E+00 -0.00000000000E+00 -0.13494105108E+04  0.13494105108E+04  0.50400000000E-02 0. -1.
    8880022    1    1    2    0    0  0.11518094972E+03  0.75443332803E+02  0.12466216263E+03  0.24060477021E+03  0.15294330000E+03 0.  0.
    8880022    1    1    2    0    0 -0.11518094972E+03 -0.75443332803E+02 -0.12832409890E+04  0.12996374250E+04  0.15294330000E+03 0.  0.
<mgrwt>
<rscale>  0 0.20579116E+03</rscale>
<asrwt>0</asrwt>
<pdfrwt beam="1">  1        1 0.20760161E+00 0.20579116E+03</pdfrwt>
<pdfrwt beam="2">  1       -1 0.29358721E-01 0.20579116E+03</pdfrwt>
<totfact> 0.98693787E+01</totfact>
</mgrwt>
</event>
<event>
 4    1  0.1678003E-008  0.3071558E+03  0.7818608E-02  0.1081717E+00
          1   -1    0    0  501    0  0.00000000000E+00  0.00000000000E+00  0.13084799675E+04  0.13084799675E+04  0.50400000000E-02 0. -1.
         -1   -1    0    0    0  501 -0.00000000000E+00 -0.00000000000E+00 -0.10874558749E+04  0.10874558749E+04  0.50400000000E-02 0.  1.
    8880022    1    1    2    0    0  0.79085117757E+02 -0.25435918951E+03 -0.10470598395E+04  0.10911823925E+04  0.15294330000E+03 0.  0.
    8880022    1    1    2    0    0 -0.79085117757E+02  0.25435918951E+03  0.12680839321E+04  0.13047534499E+04  0.15294330000E+03 0.  0.
<mgrwt>
<rscale>  0 0.30715583E+03</rscale>
<asrwt>0</asrwt>
<pdfrwt beam="1">  1        1 0.20130461E+00 0.30715583E+03</pdfrwt>
<pdfrwt beam="2">  1       -1 0.16730090E+00 0.30715583E+03</pdfrwt>
<totfact> 0.27189473E+00</totfact>
</mgrwt>
</event>
<event>
 4    1  0.1678003E-008  0.4456908E+03  0.7818608E-02  0.1029015E+00
          1   -1    0    0  501    0  0.00000000000E+00  0.00000000000E+00  0.11674465119E+04  0.11674465119E+04  0.50400000000E-02 0. -1.
         -1   -1    0    0    0  501 -0.00000000000E+00 -0.00000000000E+00 -0.44792176052E+03  0.44792176055E+03  0.50400000000E-02 0.  1.
    8880022    1    1    2    0    0  0.15982535297E+03  0.38691663580E+03  0.99580323620E+03  0.10909923761E+04  0.15294330000E+03 0.  0.
    8880022    1    1    2    0    0 -0.15982535297E+03 -0.38691663580E+03 -0.27627848479E+03  0.52437589636E+03  0.15294330000E+03 0.  1.
<mgrwt>
<rscale>  0 0.44569079E+03</rscale>
<asrwt>0</asrwt>
<pdfrwt beam="1">  1        1 0.17960715E+00 0.44569079E+03</pdfrwt>
<pdfrwt beam="2">  1       -1 0.68911042E-01 0.44569079E+03</pdfrwt>
<totfact> 0.25967359E+01</totfact>
</mgrwt>
</event>
<event>
 4    1  0.1678003E-008  0.3766118E+03  0.7818608E-02  0.1052193E+00
         -1   -1    0    0    0  501 -0.00000000000E+00  0.00000000000E+00  0.84656056529E+03  0.84656056531E+03  0.50400000000E-02 0.  1.
          1   -1    0    0  501    0  0.00000000000E+00 -0.00000000000E+00 -0.25670023939E+03  0.25670023944E+03  0.50400000000E-02 0. -1.
    8880022    1    1    2    0    0 -0.32481373372E+03  0.11375783448E+03 -0.30164633481E+02  0.37781789879E+03  0.15294330000E+03 0.  0.
    8880022    1    1    2    0    0  0.32481373372E+03 -0.11375783448E+03  0.62002495939E+03  0.72544290595E+03  0.15294330000E+03 0.  0.
<mgrwt>
<rscale>  0 0.37661182E+03</rscale>
<asrwt>0</asrwt>
<pdfrwt beam="1">  1        1 0.39492344E-01 0.37661182E+03</pdfrwt>
<pdfrwt beam="2">  1       -1 0.13024009E+00 0.37661182E+03</pdfrwt>
<totfact> 0.57416251E+01</totfact>
</mgrwt>
</event>
<event>
 4    1  0.1678003E-008  0.7452090E+03  0.7818608E-02  0.9642897E-01
         -1   -1    0    0    0  501 -0.00000000000E+00  0.00000000000E+00  0.98352457928E+03  0.98352457929E+03  0.50400000000E-02 0.  1.
          1   -1    0    0  501    0  0.00000000000E+00 -0.00000000000E+00 -0.11256894912E+04  0.11256894912E+04  0.50400000000E-02 0. -1.
    8880022    1    1    2    0    0 -0.58130736598E+03  0.44048449463E+03 -0.81561256949E+03  0.11047897358E+04  0.15294330000E+03 0.  0.
    8880022    1    1    2    0    0  0.58130736598E+03 -0.44048449463E+03  0.67344765755E+03  0.10044243347E+04  0.15294330000E+03 0.  1.
<mgrwt>
<rscale>  0 0.74520903E+03</rscale>
<asrwt>0</asrwt>
<pdfrwt beam="1">  1        1 0.17318300E+00 0.74520903E+03</pdfrwt>
<pdfrwt beam="2">  1       -1 0.15131147E+00 0.74520903E+03</pdfrwt>
<totfact> 0.42954429E+00</totfact>
</mgrwt>
</event>
<event>
 4    1  0.1678003E-008  0.4905680E+03  0.7818608E-02  0.1016271E+00
          1   -1    0    0  501    0  0.00000000000E+00  0.00000000000E+00  0.19527550989E+04  0.19527550989E+04  0.50400000000E-02 0. -1.
         -1   -1    0    0    0  501 -0.00000000000E+00 -0.00000000000E+00 -0.31035678297E+03  0.31035678301E+03  0.50400000000E-02 0.  1.
    8880022    1    1    2    0    0  0.34671004751E+03 -0.31154042596E+03  0.16998212742E+04  0.17691945374E+04  0.15294330000E+03 0.  0.
    8880022    1    1    2    0    0 -0.34671004751E+03  0.31154042596E+03 -0.57422958238E+02  0.49391734450E+03  0.15294330000E+03 0.  1.
<mgrwt>
<rscale>  0 0.49056798E+03</rscale>
<asrwt>0</asrwt>
<pdfrwt beam="1">  1        1 0.30042385E+00 0.49056798E+03</pdfrwt>
<pdfrwt beam="2">  1       -1 0.47747198E-01 0.49056798E+03</pdfrwt>
<totfact> 0.15365863E+01</totfact>
</mgrwt>
</event>
<event>
 4    1  0.1678003E-008  0.6696202E+03  0.7818608E-02  0.9770644E-01
          1   -1    0    0  501    0  0.00000000000E+00  0.00000000000E+00  0.98633214423E+03  0.98633214424E+03  0.50400000000E-02 0. -1.
         -1   -1    0    0    0  501 -0.00000000000E+00 -0.00000000000E+00 -0.81722368413E+03  0.81722368414E+03  0.50400000000E-02 0.  1.
    8880022    1    1    2    0    0  0.22211593651E+03 -0.61291441538E+03 -0.51614129173E+03  0.84545434878E+03  0.15294330000E+03 0.  0.
    8880022    1    1    2    0    0 -0.22211593651E+03  0.61291441538E+03  0.68524975182E+03  0.95810147960E+03  0.15294330000E+03 0.  0.
<mgrwt>
<rscale>  0 0.66962021E+03</rscale>
<asrwt>0</asrwt>
<pdfrwt beam="1">  1        1 0.15174341E+00 0.66962021E+03</pdfrwt>
<pdfrwt beam="2">  1       -1 0.12572672E+00 0.66962021E+03</pdfrwt>
<totfact> 0.89452253E+00</totfact>
</mgrwt>
</event>
<event>
 4    1  0.1678003E-008  0.3190416E+03  0.7818608E-02  0.1076091E+00
          1   -1    0    0  501    0  0.00000000000E+00  0.00000000000E+00  0.27409844825E+03  0.27409844830E+03  0.50400000000E-02 0. -1.
         -1   -1    0    0    0  501 -0.00000000000E+00 -0.00000000000E+00 -0.65511702800E+03  0.65511702801E+03  0.50400000000E-02 0.  1.
    8880022    1    1    2    0    0 -0.27991240091E+03  0.67015107018E+01 -0.49628642732E+03  0.58998960447E+03  0.15294330000E+03 0.  0.
    8880022    1    1    2    0    0  0.27991240091E+03 -0.67015107018E+01  0.11526784757E+03  0.33922587185E+03  0.15294330000E+03 0.  0.
<mgrwt>
<rscale>  0 0.31904156E+03</rscale>
<asrwt>0</asrwt>
<pdfrwt beam="1">  1        1 0.42168992E-01 0.31904156E+03</pdfrwt>
<pdfrwt beam="2">  1       -1 0.10078723E+00 0.31904156E+03</pdfrwt>
<totfact> 0.97565305E+01</totfact>
</mgrwt>
</event>
<event>
 4    1  0.1678003E-008  0.2129975E+03  0.7818608E-02  0.1139214E+00
         -1   -1    0    0    0  501 -0.00000000000E+00  0.00000000000E+00  0.28880538529E+03  0.28880538533E+03  0.50400000000E-02 0.  1.
          1   -1    0    0  501    0  0.00000000000E+00 -0.00000000000E+00 -0.29639557181E+03  0.29639557185E+03  0.50400000000E-02 0. -1.
    8880022    1    1    2    0    0 -0.90232586758E+02 -0.11761959349E+03  0.19680267639E+03  0.28999868092E+03  0.15294330000E+03 0.  0.
    8880022    1    1    2    0    0  0.90232586758E+02  0.11761959349E+03 -0.20439286291E+03  0.29520227626E+03  0.15294330000E+03 0. -1.
<mgrwt>
<rscale>  0 0.21299752E+03</rscale>
<asrwt>0</asrwt>
<pdfrwt beam="1">  1        1 0.45599319E-01 0.21299752E+03</pdfrwt>
<pdfrwt beam="2">  1       -1 0.44431598E-01 0.21299752E+03</pdfrwt>
<totfact> 0.45769527E+02</totfact>
</mgrwt>
</event>
<event>
 4    1  0.1678003E-008  0.1216430E+04  0.7818608E-02  0.9098595E-01
         -1   -1    0    0    0  501 -0.00000000000E+00  0.00000000000E+00  0.90080225712E+03  0.90080225713E+03  0.50400000000E-02 0.  1.
          1   -1    0    0  501    0  0.00000000000E+00 -0.00000000000E+00 -0.20985385437E+04  0.20985385437E+04  0.50400000000E-02 0. -1.
    8880022    1    1    2    0    0 -0.10328102522E+04 -0.62419090093E+03  0.10011486543E+03  0.12205432959E+04  0.15294330000E+03 0.  0.
    8880022    1    1    2    0    0  0.10328102522E+04  0.62419090093E+03 -0.12978511520E+04  0.17787975049E+04  0.15294330000E+03 0.  0.
<mgrwt>
<rscale>  0 0.12164304E+04</rscale>
<asrwt>0</asrwt>
<pdfrwt beam="1">  1        1 0.32285208E+00 0.12164304E+04</pdfrwt>
<pdfrwt beam="2">  1       -1 0.13858496E+00 0.12164304E+04</pdfrwt>
<totfact> 0.10796826E+00</totfact>
</mgrwt>
</event>
<event>
 4    1  0.1678003E-008  0.5774049E+03  0.7818608E-02  0.9953425E-01
         -1   -1    0    0    0  501 -0.00000000000E+00  0.00000000000E+00  0.50427123078E+03  0.50427123080E+03  0.50400000000E-02 0.  1.
          1   -1    0    0  501    0  0.00000000000E+00 -0.00000000000E+00 -0.12625018755E+04  0.12625018755E+04  0.50400000000E-02 0. -1.
    8880022    1    1    2    0    0  0.26803250928E+03 -0.48801979517E+03  0.23056322097E+03  0.62173611636E+03  0.15294330000E+03 0.  0.
    8880022    1    1    2    0    0 -0.26803250928E+03  0.48801979517E+03 -0.98879386572E+03  0.11450369900E+04  0.15294330000E+03 0.  0.
<mgrwt>
<rscale>  0 0.57740488E+03</rscale>
<asrwt>0</asrwt>
<pdfrwt beam="1">  1        1 0.19423106E+00 0.57740488E+03</pdfrwt>
<pdfrwt beam="2">  1       -1 0.77580190E-01 0.57740488E+03</pdfrwt>
<totfact> 0.16987116E+01</totfact>
</mgrwt>
</event>
<event>
 4    1  0.1678003E-008  0.6178065E+03  0.7818608E-02  0.9869137E-01
          1   -1    0    0  501    0  0.00000000000E+00  0.00000000000E+00  0.18030172744E+04  0.18030172744E+04  0.50400000000E-02 0. -1.
         -1   -1    0    0    0  501 -0.00000000000E+00 -0.00000000000E+00 -0.27136119495E+03  0.27136119500E+03  0.50400000000E-02 0.  1.
    8880022    1    1    2    0    0  0.18393742783E+03  0.56961411331E+03  0.27946771787E+03  0.67807600886E+03  0.15294330000E+03 0.  0.
    8880022    1    1    2    0    0 -0.18393742783E+03 -0.56961411331E+03  0.12521883616E+04  0.13963024606E+04  0.15294330000E+03 0.  0.
<mgrwt>
<rscale>  0 0.61780650E+03</rscale>
<asrwt>0</asrwt>
<pdfrwt beam="1">  1        1 0.27738727E+00 0.61780650E+03</pdfrwt>
<pdfrwt beam="2">  1       -1 0.41747876E-01 0.61780650E+03</pdfrwt>
<totfact> 0.24139192E+01</totfact>
</mgrwt>
</event>
<event>
 4    1  0.1678003E-008  0.5773311E+03  0.7818608E-02  0.9953586E-01
          1   -1    0    0  501    0  0.00000000000E+00  0.00000000000E+00  0.74300361675E+03  0.74300361677E+03  0.50400000000E-02 0. -1.
         -1   -1    0    0    0  501 -0.00000000000E+00 -0.00000000000E+00 -0.63871929552E+03  0.63871929554E+03  0.50400000000E-02 0.  1.
    8880022    1    1    2    0    0  0.47524695912E+03 -0.28993081333E+03 -0.32477801355E+03  0.66241373761E+03  0.15294330000E+03 0.  0.
    8880022    1    1    2    0    0 -0.47524695912E+03  0.28993081333E+03  0.42906233477E+03  0.71930917470E+03  0.15294330000E+03 0.  0.
<mgrwt>
<rscale>  0 0.57733110E+03</rscale>
<asrwt>0</asrwt>
<pdfrwt beam="1">  1        1 0.11430825E+00 0.57733110E+03</pdfrwt>
<pdfrwt beam="2">  1       -1 0.98264508E-01 0.57733110E+03</pdfrwt>
<totfact> 0.25839047E+01</totfact>
</mgrwt>
</event>
<event>
 4    1  0.1678003E-008  0.3032808E+03  0.7818608E-02  0.1083612E+00
          1   -1    0    0  501    0  0.00000000000E+00  0.00000000000E+00  0.49388550677E+03  0.49388550680E+03  0.50400000000E-02 0. -1.
         -1   -1    0    0    0  501 -0.00000000000E+00 -0.00000000000E+00 -0.32565090268E+03  0.32565090272E+03  0.50400000000E-02 0.  1.
    8880022    1    1    2    0    0 -0.25151018631E+03  0.73008156265E+02  0.35222967174E+03  0.46480636761E+03  0.15294330000E+03 0. -1.
    8880022    1    1    2    0    0  0.25151018631E+03 -0.73008156265E+02 -0.18399506765E+03  0.35473004191E+03  0.15294330000E+03 0.  0.
<mgrwt>
<rscale>  0 0.30328076E+03</rscale>
<asrwt>0</asrwt>
<pdfrwt beam="1">  1        1 0.75982386E-01 0.30328076E+03</pdfrwt>
<pdfrwt beam="2">  1       -1 0.50100139E-01 0.30328076E+03</pdfrwt>
<totfact> 0.18904475E+02</totfact>
</mgrwt>
</event>
<event>
 4    1  0.1678003E-008  0.1177021E+04  0.7818608E-02  0.9133211E-01
          1   -1    0    0  501    0  0.00000000000E+00  0.00000000000E+00  0.18802044669E+04  0.18802044669E+04  0.50400000000E-02 0. -1.
         -1   -1    0    0    0  501 -0.00000000000E+00 -0.00000000000E+00 -0.11110641278E+04  0.11110641278E+04  0.50400000000E-02 0.  1.
    8880022    1    1    2    0    0  0.11345473781E+04  0.27347514501E+03 -0.48345348092E+03  0.12724406978E+04  0.15294330000E+03 0.  0.
    8880022    1    1    2    0    0 -0.11345473781E+04 -0.27347514501E+03  0.12525938200E+04  0.17188278969E+04  0.15294330000E+03 0.  0.
<mgrwt>
<rscale>  0 0.11770208E+04</rscale>
<asrwt>0</asrwt>
<pdfrwt beam="1">  1        1 0.28926222E+00 0.11770208E+04</pdfrwt>
<pdfrwt beam="2">  1       -1 0.17093294E+00 0.11770208E+04</pdfrwt>
<totfact> 0.85684597E-01</totfact>
</mgrwt>
</event>
<event>
 4    1  0.1678003E-008  0.2778385E+03  0.7818608E-02  0.1096875E+00
         -1   -1    0    0    0  501 -0.00000000000E+00  0.00000000000E+00  0.48756852053E+03  0.48756852056E+03  0.50400000000E-02 0.  1.
          1   -1    0    0  501    0  0.00000000000E+00 -0.00000000000E+00 -0.59738354817E+03  0.59738354820E+03  0.50400000000E-02 0. -1.
    8880022    1    1    2    0    0  0.14759133431E+03 -0.17893957198E+03  0.41015914715E+03  0.49540362473E+03  0.15294330000E+03 0.  0.
    8880022    1    1    2    0    0 -0.14759133431E+03  0.17893957198E+03 -0.51997417480E+03  0.58954844403E+03  0.15294330000E+03 0.  0.
<mgrwt>
<rscale>  0 0.27783849E+03</rscale>
<asrwt>0</asrwt>
<pdfrwt beam="1">  1        1 0.91905161E-01 0.27783849E+03</pdfrwt>
<pdfrwt beam="2">  1       -1 0.75010542E-01 0.27783849E+03</pdfrwt>
<totfact> 0.66782997E+01</totfact>
</mgrwt>
</event>
<event>
 4    1  0.1678003E-008  0.2617484E+03  0.7818608E-02  0.1106097E+00
          1   -1    0    0  501    0  0.00000000000E+00  0.00000000000E+00  0.13853818922E+04  0.13853818922E+04  0.50400000000E-02 0. -1.
         -1   -1    0    0    0  501 -0.00000000000E+00 -0.00000000000E+00 -0.12024139028E+03  0.12024139039E+03  0.50400000000E-02 0.  1.
    8880022    1    1    2    0    0  0.21213007975E+03 -0.11017680080E+02  0.54955456984E+02  0.26745525846E+03  0.15294330000E+03 0.  0.
    8880022    1    1    2    0    0 -0.21213007975E+03  0.11017680080E+02  0.12101850449E+04  0.12381680241E+04  0.15294330000E+03 0.  0.
<mgrwt>
<rscale>  0 0.26174838E+03</rscale>
<asrwt>0</asrwt>
<pdfrwt beam="1">  1        1 0.21313568E+00 0.26174838E+03</pdfrwt>
<pdfrwt beam="2">  1       -1 0.18498675E-01 0.26174838E+03</pdfrwt>
<totfact> 0.19740435E+02</totfact>
</mgrwt>
</event>
<event>
 4    1  0.1678003E-008  0.3414303E+03  0.7818608E-02  0.1066188E+00
         -1   -1    0    0    0  501 -0.00000000000E+00  0.00000000000E+00  0.19411638517E+03  0.19411638523E+03  0.50400000000E-02 0.  1.
          1   -1    0    0  501    0  0.00000000000E+00 -0.00000000000E+00 -0.25363906073E+04  0.25363906073E+04  0.50400000000E-02 0. -1.
    8880022    1    1    2    0    0 -0.44344045203E+02  0.30202089511E+03 -0.23638643579E+04  0.23883947268E+04  0.15294330000E+03 0.  0.
    8880022    1    1    2    0    0  0.44344045203E+02 -0.30202089511E+03  0.21590135715E+02  0.34211226579E+03  0.15294330000E+03 0.  1.
<mgrwt>
<rscale>  0 0.34143033E+03</rscale>
<asrwt>0</asrwt>
<pdfrwt beam="1">  1        1 0.39021392E+00 0.34143033E+03</pdfrwt>
<pdfrwt beam="2">  1       -1 0.29864061E-01 0.34143033E+03</pdfrwt>
<totfact> 0.15179152E+01</totfact>
</mgrwt>
</event>
<event>
 4    1  0.1678003E-008  0.2227352E+03  0.7818608E-02  0.1131860E+00
          1   -1    0    0  501    0  0.00000000000E+00  0.00000000000E+00  0.99818116284E+03  0.99818116285E+03  0.50400000000E-02 0. -1.
         -1   -1    0    0    0  501 -0.00000000000E+00 -0.00000000000E+00 -0.55118014522E+02  0.55118014753E+02  0.50400000000E-02 0.  1.
    8880022    1    1    2    0    0  0.11188922047E+03 -0.11704745791E+03  0.30643400824E+03  0.37883077948E+03  0.15294330000E+03 0.  0.
    8880022    1    1    2    0    0 -0.11188922047E+03  0.11704745791E+03  0.63662914007E+03  0.67446839812E+03  0.15294330000E+03 0.  0.
<mgrwt>
<rscale>  0 0.22273517E+03</rscale>
<asrwt>0</asrwt>
<pdfrwt beam="1">  1        1 0.15356631E+00 0.22273517E+03</pdfrwt>
<pdfrwt beam="2">  1       -1 0.84796957E-02 0.22273517E+03</pdfrwt>
<totfact> 0.12642796E+03</totfact>
</mgrwt>
</event>
<event>
 4    1  0.1678003E-008  0.8619062E+03  0.7818608E-02  0.9474495E-01
         -1   -1    0    0    0  501 -0.00000000000E+00  0.00000000000E+00  0.28984435775E+03  0.28984435779E+03  0.50400000000E-02 0.  1.
          1   -1    0    0  501    0  0.00000000000E+00 -0.00000000000E+00 -0.36547028939E+04  0.36547028939E+04  0.50400000000E-02 0. -1.
    8880022    1    1    2    0    0 -0.26079599252E+03  0.80714067849E+03 -0.60451137528E+03  0.10527660141E+04  0.15294330000E+03 0.  0.
    8880022    1    1    2    0    0  0.26079599252E+03 -0.80714067849E+03 -0.27603471609E+04  0.28917812376E+04  0.15294330000E+03 0.  0.
<mgrwt>
<rscale>  0 0.86190619E+03</rscale>
<asrwt>0</asrwt>
<pdfrwt beam="1">  1        1 0.56226195E+00 0.86190619E+03</pdfrwt>
<pdfrwt beam="2">  1       -1 0.44591442E-01 0.86190619E+03</pdfrwt>
<totfact> 0.10010973E+00</totfact>
</mgrwt>
</event>
<event>
 4    1  0.1678003E-008  0.8814146E+03  0.7818608E-02  0.9449117E-01
         -1   -1    0    0    0  501 -0.00000000000E+00  0.00000000000E+00  0.39029357526E+03  0.39029357529E+03  0.50400000000E-02 0.  1.
          1   -1    0    0  501    0  0.00000000000E+00 -0.00000000000E+00 -0.26768226424E+04  0.26768226424E+04  0.50400000000E-02 0. -1.
    8880022    1    1    2    0    0  0.53161512171E+03  0.68621089381E+03 -0.36675889404E+03  0.95467469213E+03  0.15294330000E+03 0.  0.
    8880022    1    1    2    0    0 -0.53161512171E+03 -0.68621089381E+03 -0.19197701731E+04  0.21124415256E+04  0.15294330000E+03 0.  0.
<mgrwt>
<rscale>  0 0.88141459E+03</rscale>
<asrwt>0</asrwt>
<pdfrwt beam="1">  1        1 0.41181886E+00 0.88141459E+03</pdfrwt>
<pdfrwt beam="2">  1       -1 0.60045167E-01 0.88141459E+03</pdfrwt>
<totfact> 0.29820048E+00</totfact>
</mgrwt>
</event>
<event>
 4    1  0.1678003E-008  0.5665052E+03  0.7818608E-02  0.9977442E-01
         -1   -1    0    0    0  501 -0.00000000000E+00  0.00000000000E+00  0.43938898270E+03  0.43938898273E+03  0.50400000000E-02 0.  1.
          1   -1    0    0  501    0  0.00000000000E+00 -0.00000000000E+00 -0.29982902426E+04  0.29982902426E+04  0.50400000000E-02 0. -1.
    8880022    1    1    2    0    0 -0.45526255492E+03 -0.30045384154E+03 -0.27743428214E+04  0.28315907629E+04  0.15294330000E+03 0.  0.
    8880022    1    1    2    0    0  0.45526255492E+03  0.30045384154E+03  0.21544156154E+03  0.60608846241E+03  0.15294330000E+03 0.  1.
<mgrwt>
<rscale>  0 0.56650521E+03</rscale>
<asrwt>0</asrwt>
<pdfrwt beam="1">  1        1 0.46127541E+00 0.56650521E+03</pdfrwt>
<pdfrwt beam="2">  1       -1 0.67598307E-01 0.56650521E+03</pdfrwt>
<totfact> 0.14977453E+00</totfact>
</mgrwt>
</event>
<event>
 4    1  0.1678003E-008  0.7362194E+03  0.7818608E-02  0.9657222E-01
          1   -1    0    0  501    0  0.00000000000E+00  0.00000000000E+00  0.28392447406E+04  0.28392447406E+04  0.50400000000E-02 0. -1.
         -1   -1    0    0    0  501 -0.00000000000E+00 -0.00000000000E+00 -0.73691375901E+03  0.73691375903E+03  0.50400000000E-02 0.  1.
    8880022    1    1    2    0    0  0.67348764389E+03  0.25503269796E+03  0.25903093973E+04  0.26929020982E+04  0.15294330000E+03 0.  0.
    8880022    1    1    2    0    0 -0.67348764389E+03 -0.25503269796E+03 -0.48797841572E+03  0.88325640146E+03  0.15294330000E+03 0.  0.
<mgrwt>
<rscale>  0 0.73621935E+03</rscale>
<asrwt>0</asrwt>
<pdfrwt beam="1">  1        1 0.43680688E+00 0.73621935E+03</pdfrwt>
<pdfrwt beam="2">  1       -1 0.11337135E+00 0.73621935E+03</pdfrwt>
<totfact> 0.59994790E-01</totfact>
</mgrwt>
</event>
<event>
 4    1  0.1678003E-008  0.4722258E+03  0.7818608E-02  0.1021294E+00
         -1   -1    0    0    0  501 -0.00000000000E+00  0.00000000000E+00  0.14596261170E+04  0.14596261170E+04  0.50400000000E-02 0.  1.
          1   -1    0    0  501    0  0.00000000000E+00 -0.00000000000E+00 -0.27599610297E+03  0.27599610302E+03  0.50400000000E-02 0. -1.
    8880022    1    1    2    0    0  0.32493384978E+03 -0.30663253056E+03  0.11716613335E+04  0.12632448096E+04  0.15294330000E+03 0.  0.
    8880022    1    1    2    0    0 -0.32493384978E+03  0.30663253056E+03  0.11968680503E+02  0.47237741041E+03  0.15294330000E+03 0.  0.
<mgrwt>
<rscale>  0 0.47222576E+03</rscale>
<asrwt>0</asrwt>
<pdfrwt beam="1">  1        1 0.42460940E-01 0.47222576E+03</pdfrwt>
<pdfrwt beam="2">  1       -1 0.22455786E+00 0.47222576E+03</pdfrwt>
<totfact> 0.10792482E+01</totfact>
</mgrwt>
</event>
<event>
 4    1  0.1678003E-008  0.2807784E+03  0.7818608E-02  0.1095265E+00
         -1   -1    0    0    0  501 -0.00000000000E+00  0.00000000000E+00  0.24866017241E+03  0.24866017246E+03  0.50400000000E-02 0.  1.
          1   -1    0    0  501    0  0.00000000000E+00 -0.00000000000E+00 -0.12085289410E+04  0.12085289410E+04  0.50400000000E-02 0. -1.
    8880022    1    1    2    0    0  0.23538131415E+03 -0.63630130844E+01 -0.11057034899E+04  0.11407965251E+04  0.15294330000E+03 0.  0.
    8880022    1    1    2    0    0 -0.23538131415E+03  0.63630130844E+01  0.14583472138E+03  0.31639258835E+03  0.15294330000E+03 0.  1.
<mgrwt>
<rscale>  0 0.28077839E+03</rscale>
<asrwt>0</asrwt>
<pdfrwt beam="1">  1        1 0.18592753E+00 0.28077839E+03</pdfrwt>
<pdfrwt beam="2">  1       -1 0.38255412E-01 0.28077839E+03</pdfrwt>
<totfact> 0.76325942E+01</totfact>
</mgrwt>
</event>
<event>
 4    1  0.1678003E-008  0.6803340E+03  0.7818608E-02  0.9751468E-01
         -1   -1    0    0    0  501 -0.00000000000E+00  0.00000000000E+00  0.97686822514E+03  0.97686822516E+03  0.50400000000E-02 0.  1.
          1   -1    0    0  501    0  0.00000000000E+00 -0.00000000000E+00 -0.59477284837E+03  0.59477284839E+03  0.50400000000E-02 0. -1.
    8880022    1    1    2    0    0  0.65343228711E+03  0.11175399218E+03 -0.16332943021E+03  0.69966482289E+03  0.15294330000E+03 0.  0.
    8880022    1    1    2    0    0 -0.65343228711E+03 -0.11175399218E+03  0.54542480699E+03  0.87197625065E+03  0.15294330000E+03 0.  0.
<mgrwt>
<rscale>  0 0.68033401E+03</rscale>
<asrwt>0</asrwt>
<pdfrwt beam="1">  1        1 0.91503516E-01 0.68033401E+03</pdfrwt>
<pdfrwt beam="2">  1       -1 0.15028742E+00 0.68033401E+03</pdfrwt>
<totfact> 0.12501012E+01</totfact>
</mgrwt>
</event>
<event>
 4    1  0.1678003E-008  0.6017775E+03  0.7818608E-02  0.9901725E-01
          1   -1    0    0  501    0  0.00000000000E+00  0.00000000000E+00  0.19217375873E+04  0.19217375873E+04  0.50400000000E-02 0. -1.
         -1   -1    0    0    0  501 -0.00000000000E+00 -0.00000000000E+00 -0.27890701826E+03  0.27890701831E+03  0.50400000000E-02 0.  1.
    8880022    1    1    2    0    0 -0.38607285753E+03 -0.43553679412E+03  0.19475759789E+03  0.63250828082E+03  0.15294330000E+03 0.  0.
    8880022    1    1    2    0    0  0.38607285753E+03  0.43553679412E+03  0.14480729711E+04  0.15681363248E+04  0.15294330000E+03 0.  0.
<mgrwt>
<rscale>  0 0.60177754E+03</rscale>
<asrwt>0</asrwt>
<pdfrwt beam="1">  1        1 0.29565194E+00 0.60177754E+03</pdfrwt>
<pdfrwt beam="2">  1       -1 0.42908771E-01 0.60177754E+03</pdfrwt>
<totfact> 0.19191251E+01</totfact>
</mgrwt>
</event>
<event>
 4    1  0.1678003E-008  0.2789083E+03  0.7818608E-02  0.1096287E+00
          1   -1    0    0  501    0  0.00000000000E+00  0.00000000000E+00  0.28184964004E+03  0.28184964009E+03  0.50400000000E-02 0. -1.
         -1   -1    0    0    0  501 -0.00000000000E+00 -0.00000000000E+00 -0.42505459933E+03  0.42505459936E+03  0.50400000000E-02 0.  1.
    8880022    1    1    2    0    0  0.20024028923E+03  0.11959113778E+03 -0.28090969426E+03  0.39585366363E+03  0.15294330000E+03 0.  0.
    8880022    1    1    2    0    0 -0.20024028923E+03 -0.11959113778E+03  0.13770473498E+03  0.31105057581E+03  0.15294330000E+03 0.  0.
<mgrwt>
<rscale>  0 0.27890835E+03</rscale>
<asrwt>0</asrwt>
<pdfrwt beam="1">  1        1 0.43361483E-01 0.27890835E+03</pdfrwt>
<pdfrwt beam="2">  1       -1 0.65393015E-01 0.27890835E+03</pdfrwt>
<totfact> 0.23451896E+02</totfact>
</mgrwt>
</event>
<event>
 4    1  0.1678003E-008  0.2953785E+03  0.7818608E-02  0.1087574E+00
          1   -1    0    0  501    0  0.00000000000E+00  0.00000000000E+00  0.58852086487E+03  0.58852086489E+03  0.50400000000E-02 0. -1.
         -1   -1    0    0    0  501 -0.00000000000E+00 -0.00000000000E+00 -0.28293801516E+03  0.28293801520E+03  0.50400000000E-02 0.  1.
    8880022    1    1    2    0    0 -0.24397462580E+03 -0.65826885588E+02  0.45342334763E+03  0.54114802235E+03  0.15294330000E+03 0.  0.
    8880022    1    1    2    0    0  0.24397462580E+03  0.65826885588E+02 -0.14784049792E+03  0.33031085774E+03  0.15294330000E+03 0.  0.
<mgrwt>
<rscale>  0 0.29537849E+03</rscale>
<asrwt>0</asrwt>
<pdfrwt beam="1">  1        1 0.90541671E-01 0.29537849E+03</pdfrwt>
<pdfrwt beam="2">  1       -1 0.43528926E-01 0.29537849E+03</pdfrwt>
<totfact> 0.19291216E+02</totfact>
</mgrwt>
</event>
<event>
 4    1  0.1678003E-008  0.2072096E+03  0.7818608E-02  0.1143795E+00
          1   -1    0    0  501    0  0.00000000000E+00  0.00000000000E+00  0.11130239606E+04  0.11130239606E+04  0.50400000000E-02 0. -1.
         -1   -1    0    0    0  501 -0.00000000000E+00 -0.00000000000E+00 -0.25852995422E+03  0.25852995427E+03  0.50400000000E-02 0.  1.
    8880022    1    1    2    0    0  0.12809063663E+03  0.56008670530E+02 -0.20530101250E+03  0.29169220270E+03  0.15294330000E+03 0.  0.
    8880022    1    1    2    0    0 -0.12809063663E+03 -0.56008670530E+02  0.10597950188E+04  0.10798617121E+04  0.15294330000E+03 0. -1.
<mgrwt>
<rscale>  0 0.20720964E+03</rscale>
<asrwt>0</asrwt>
<pdfrwt beam="1">  1        1 0.17123445E+00 0.20720964E+03</pdfrwt>
<pdfrwt beam="2">  1       -1 0.39773840E-01 0.20720964E+03</pdfrwt>
<totfact> 0.84985004E+01</totfact>
</mgrwt>
</event>
<event>
 4    1  0.1678003E-008  0.5233238E+03  0.7818608E-02  0.1007864E+00
         -1   -1    0    0    0  501 -0.00000000000E+00  0.00000000000E+00  0.46816401673E+03  0.46816401676E+03  0.50400000000E-02 0.  1.
          1   -1    0    0  501    0  0.00000000000E+00 -0.00000000000E+00 -0.12117921050E+04  0.12117921050E+04  0.50400000000E-02 0. -1.
    8880022    1    1    2    0    0 -0.46487808942E+03  0.18537658042E+03 -0.97593193453E+03  0.11073892308E+04  0.15294330000E+03 0.  0.
    8880022    1    1    2    0    0  0.46487808942E+03 -0.18537658042E+03  0.23230384630E+03  0.57256689095E+03  0.15294330000E+03 0.  0.
<mgrwt>
<rscale>  0 0.52332377E+03</rscale>
<asrwt>0</asrwt>
<pdfrwt beam="1">  1        1 0.18642955E+00 0.52332377E+03</pdfrwt>
<pdfrwt beam="2">  1       -1 0.72025234E-01 0.52332377E+03</pdfrwt>
<totfact> 0.21733476E+01</totfact>
</mgrwt>
</event>
<event>
 4    1  0.1678003E-008  0.5091447E+03  0.7818608E-02  0.1011419E+00
         -1   -1    0    0    0  501 -0.00000000000E+00  0.00000000000E+00  0.43310549613E+03  0.43310549616E+03  0.50400000000E-02 0.  1.
          1   -1    0    0  501    0  0.00000000000E+00 -0.00000000000E+00 -0.18739926672E+04  0.18739926672E+04  0.50400000000E-02 0. -1.
    8880022    1    1    2    0    0 -0.47856715665E+03 -0.82523560268E+02 -0.16721113278E+04  0.17479086381E+04  0.15294330000E+03 0.  0.
    8880022    1    1    2    0    0  0.47856715665E+03  0.82523560268E+02  0.23122415681E+03  0.55918952523E+03  0.15294330000E+03 0.  0.
<mgrwt>
<rscale>  0 0.50914469E+03</rscale>
<asrwt>0</asrwt>
<pdfrwt beam="1">  1        1 0.28830656E+00 0.50914469E+03</pdfrwt>
<pdfrwt beam="2">  1       -1 0.66631616E-01 0.50914469E+03</pdfrwt>
<totfact> 0.90666448E+00</totfact>
</mgrwt>
</event>
<event>
 4    1  0.1678003E-008  0.1792442E+03  0.7818608E-02  0.1168537E+00
          1   -1    0    0  501    0  0.00000000000E+00  0.00000000000E+00  0.23196022750E+04  0.23196022750E+04  0.50400000000E-02 0. -1.
         -1   -1    0    0    0  501 -0.00000000000E+00 -0.00000000000E+00 -0.12595380275E+03  0.12595380285E+03  0.50400000000E-02 0.  1.
    8880022    1    1    2    0    0  0.27404937372E+02 -0.89363205415E+02 -0.56763184709E+02  0.18801735353E+03  0.15294330000E+03 0.  1.
    8880022    1    1    2    0    0 -0.27404937372E+02  0.89363205415E+02  0.22504116569E+04  0.22575387243E+04  0.15294330000E+03 0.  0.
<mgrwt>
<rscale>  0 0.17924415E+03</rscale>
<asrwt>0</asrwt>
<pdfrwt beam="1">  1        1 0.35686186E+00 0.17924415E+03</pdfrwt>
<pdfrwt beam="2">  1       -1 0.19377510E-01 0.17924415E+03</pdfrwt>
<totfact> 0.46505684E+01</totfact>
</mgrwt>
</event>
<event>
 4    1  0.1678003E-008  0.4012533E+03  0.7818608E-02  0.1043347E+00
         -1   -1    0    0    0  501 -0.00000000000E+00  0.00000000000E+00  0.27028878500E+03  0.27028878505E+03  0.50400000000E-02 0.  1.
          1   -1    0    0  501    0  0.00000000000E+00 -0.00000000000E+00 -0.15053006608E+04  0.15053006608E+04  0.50400000000E-02 0. -1.
    8880022    1    1    2    0    0  0.17760984314E+03  0.32567978558E+03 -0.13076381840E+04  0.13678164542E+04  0.15294330000E+03 0.  0.
    8880022    1    1    2    0    0 -0.17760984314E+03 -0.32567978558E+03  0.72626308148E+02  0.40777299171E+03  0.15294330000E+03 0.  0.
<mgrwt>
<rscale>  0 0.40125333E+03</rscale>
<asrwt>0</asrwt>
<pdfrwt beam="1">  1        1 0.23158471E+00 0.40125333E+03</pdfrwt>
<pdfrwt beam="2">  1       -1 0.41582891E-01 0.40125333E+03</pdfrwt>
<totfact> 0.40040032E+01</totfact>
</mgrwt>
</event>
<event>
 4    1  0.1678003E-008  0.9847781E+03  0.7818608E-02  0.9325399E-01
         -1   -1    0    0    0  501 -0.00000000000E+00  0.00000000000E+00  0.10879296476E+04  0.10879296476E+04  0.50400000000E-02 0.  1.
          1   -1    0    0  501    0  0.00000000000E+00 -0.00000000000E+00 -0.94998190832E+03  0.94998190834E+03  0.50400000000E-02 0. -1.
    8880022    1    1    2    0    0  0.95764067655E+03 -0.17123238483E+03 -0.18404583713E+03  0.10018286870E+04  0.15294330000E+03 0. -1.
    8880022    1    1    2    0    0 -0.95764067655E+03  0.17123238483E+03  0.32199357642E+03  0.10360828689E+04  0.15294330000E+03 0.  1.
<mgrwt>
<rscale>  0 0.98477807E+03</rscale>
<asrwt>0</asrwt>
<pdfrwt beam="1">  1        1 0.14615106E+00 0.98477807E+03</pdfrwt>
<pdfrwt beam="2">  1       -1 0.16737379E+00 0.98477807E+03</pdfrwt>
<totfact> 0.42846708E+00</totfact>
</mgrwt>
</event>
<event>
 4    1  0.1678003E-008  0.9830622E+03  0.7818608E-02  0.9327319E-01
         -1   -1    0    0    0  501 -0.00000000000E+00  0.00000000000E+00  0.15987858719E+04  0.15987858720E+04  0.50400000000E-02 0.  1.
          1   -1    0    0  501    0  0.00000000000E+00 -0.00000000000E+00 -0.82028585988E+03  0.82028585990E+03  0.50400000000E-02 0. -1.
    8880022    1    1    2    0    0  0.96538827154E+03 -0.10509566092E+03 -0.23116474516E+03  0.10098754404E+04  0.15294330000E+03 0.  0.
    8880022    1    1    2    0    0 -0.96538827154E+03  0.10509566092E+03  0.10096647572E+04  0.14091962914E+04  0.15294330000E+03 0.  0.
<mgrwt>
<rscale>  0 0.98306219E+03</rscale>
<asrwt>0</asrwt>
<pdfrwt beam="1">  1        1 0.12619782E+00 0.98306219E+03</pdfrwt>
<pdfrwt beam="2">  1       -1 0.24596706E+00 0.98306219E+03</pdfrwt>
<totfact> 0.15885633E+00</totfact>
</mgrwt>
</event>
<event>
 4    1  0.1678003E-008  0.6242821E+03  0.7818608E-02  0.9856271E-01
          1   -1    0    0  501    0  0.00000000000E+00  0.00000000000E+00  0.10076212700E+04  0.10076212700E+04  0.50400000000E-02 0. -1.
         -1   -1    0    0    0  501 -0.00000000000E+00 -0.00000000000E+00 -0.98592676613E+03  0.98592676614E+03  0.50400000000E-02 0.  1.
    8880022    1    1    2    0    0  0.68021480205E+02  0.60142292097E+03 -0.76618825508E+03  0.98831803933E+03  0.15294330000E+03 0.  0.
    8880022    1    1    2    0    0 -0.68021480205E+02 -0.60142292097E+03  0.78788275898E+03  0.10052299968E+04  0.15294330000E+03 0.  0.
<mgrwt>
<rscale>  0 0.62428207E+03</rscale>
<asrwt>0</asrwt>
<pdfrwt beam="1">  1        1 0.15501866E+00 0.62428207E+03</pdfrwt>
<pdfrwt beam="2">  1       -1 0.15168104E+00 0.62428207E+03</pdfrwt>
<totfact> 0.53493905E+00</totfact>
</mgrwt>
</event>
<event>
 4    1  0.1678003E-008  0.9188770E+03  0.7818608E-02  0.9402287E-01
         -1   -1    0    0    0  501 -0.00000000000E+00  0.00000000000E+00  0.25497136006E+04  0.25497136006E+04  0.50400000000E-02 0.  1.
          1   -1    0    0  501    0  0.00000000000E+00 -0.00000000000E+00 -0.45929762244E+03  0.45929762247E+03  0.50400000000E-02 0. -1.
    8880022    1    1    2    0    0 -0.14971100200E+03 -0.89360504306E+03  0.25050700630E+03  0.95241208010E+03  0.15294330000E+03 0.  0.
    8880022    1    1    2    0    0  0.14971100200E+03  0.89360504306E+03  0.18399089718E+04  0.20565991429E+04  0.15294330000E+03 0.  0.
<mgrwt>
<rscale>  0 0.91887704E+03</rscale>
<asrwt>0</asrwt>
<pdfrwt beam="1">  1        1 0.70661174E-01 0.91887704E+03</pdfrwt>
<pdfrwt beam="2">  1       -1 0.39226362E+00 0.91887704E+03</pdfrwt>
<totfact> 0.41790218E-01</totfact>
</mgrwt>
</event>
<event>
 4    1  0.1678003E-008  0.4300565E+03  0.7818608E-02  0.1033842E+00
         -1   -1    0    0    0  501 -0.00000000000E+00  0.00000000000E+00  0.21489138059E+04  0.21489138059E+04  0.50400000000E-02 0.  1.
          1   -1    0    0  501    0  0.00000000000E+00 -0.00000000000E+00 -0.18709522033E+03  0.18709522040E+03  0.50400000000E-02 0. -1.
    8880022    1    1    2    0    0  0.31477153185E+03 -0.24995171780E+03  0.18392040492E+04  0.18888144869E+04  0.15294330000E+03 0.  1.
    8880022    1    1    2    0    0 -0.31477153185E+03  0.24995171780E+03  0.12261453637E+03  0.44719453936E+03  0.15294330000E+03 0.  0.
<mgrwt>
<rscale>  0 0.43005654E+03</rscale>
<asrwt>0</asrwt>
<pdfrwt beam="1">  1        1 0.28783879E-01 0.43005654E+03</pdfrwt>
<pdfrwt beam="2">  1       -1 0.33060214E+00 0.43005654E+03</pdfrwt>
<totfact> 0.37873108E+00</totfact>
</mgrwt>
</event>
<event>
 4    1  0.1678003E-008  0.2382107E+03  0.7818608E-02  0.1120991E+00
          1   -1    0    0  501    0  0.00000000000E+00  0.00000000000E+00  0.30626555820E+03  0.30626555824E+03  0.50400000000E-02 0. -1.
         -1   -1    0    0    0  501 -0.00000000000E+00 -0.00000000000E+00 -0.25547039016E+03  0.25547039021E+03  0.50400000000E-02 0.  1.
    8880022    1    1    2    0    0  0.51756417805E+02  0.17513987173E+03 -0.12182556394E+03  0.26755526999E+03  0.15294330000E+03 0.  0.
    8880022    1    1    2    0    0 -0.51756417805E+02 -0.17513987173E+03  0.17262073198E+03  0.29418067846E+03  0.15294330000E+03 0. -1.
<mgrwt>
<rscale>  0 0.23821074E+03</rscale>
<asrwt>0</asrwt>
<pdfrwt beam="1">  1        1 0.47117778E-01 0.23821074E+03</pdfrwt>
<pdfrwt beam="2">  1       -1 0.39303137E-01 0.23821074E+03</pdfrwt>
<totfact> 0.54652630E+02</totfact>
</mgrwt>
</event>
<event>
 4    1  0.1678003E-008  0.6235725E+03  0.7818608E-02  0.9857672E-01
         -1   -1    0    0    0  501 -0.00000000000E+00  0.00000000000E+00  0.25100485037E+03  0.25100485043E+03  0.50400000000E-02 0.  1.
          1   -1    0    0  501    0  0.00000000000E+00 -0.00000000000E+00 -0.18096430993E+04  0.18096430993E+04  0.50400000000E-02 0. -1.
    8880022    1    1    2    0    0 -0.21766507602E+03  0.56397956787E+03 -0.38840591825E+03  0.73464402852E+03  0.15294330000E+03 0.  0.
    8880022    1    1    2    0    0  0.21766507602E+03 -0.56397956787E+03 -0.11702323307E+04  0.13260039212E+04  0.15294330000E+03 0.  0.
<mgrwt>
<rscale>  0 0.62357252E+03</rscale>
<asrwt>0</asrwt>
<pdfrwt beam="1">  1        1 0.27840662E+00 0.62357252E+03</pdfrwt>
<pdfrwt beam="2">  1       -1 0.38616132E-01 0.62357252E+03</pdfrwt>
<totfact> 0.27500479E+01</totfact>
</mgrwt>
</event>
<event>
 4    1  0.1678003E-008  0.1002283E+04  0.7818608E-02  0.9306044E-01
         -1   -1    0    0    0  501 -0.00000000000E+00  0.00000000000E+00  0.24866921815E+04  0.24866921815E+04  0.50400000000E-02 0.  1.
          1   -1    0    0  501    0  0.00000000000E+00 -0.00000000000E+00 -0.49228570609E+03  0.49228570612E+03  0.50400000000E-02 0. -1.
    8880022    1    1    2    0    0  0.42681755207E+03 -0.89387151370E+03  0.16280527517E+04  0.19118386232E+04  0.15294330000E+03 0.  0.
    8880022    1    1    2    0    0 -0.42681755207E+03  0.89387151370E+03  0.36635372366E+03  0.10671392644E+04  0.15294330000E+03 0.  0.
<mgrwt>
<rscale>  0 0.10022830E+04</rscale>
<asrwt>0</asrwt>
<pdfrwt beam="1">  1        1 0.75736262E-01 0.10022830E+04</pdfrwt>
<pdfrwt beam="2">  1       -1 0.38256803E+00 0.10022830E+04</pdfrwt>
<totfact> 0.43600410E-01</totfact>
</mgrwt>
</event>
<event>
 4    1  0.1678003E-008  0.1051506E+04  0.7818608E-02  0.9253791E-01
          1   -1    0    0  501    0  0.00000000000E+00  0.00000000000E+00  0.19391556259E+04  0.19391556259E+04  0.50400000000E-02 0. -1.
         -1   -1    0    0    0  501 -0.00000000000E+00 -0.00000000000E+00 -0.94822017716E+03  0.94822017718E+03  0.50400000000E-02 0.  1.
    8880022    1    1    2    0    0 -0.10401201677E+04 -0.20573996374E+02  0.14070346174E+04  0.17565338938E+04  0.15294330000E+03 0. -1.
    8880022    1    1    2    0    0  0.10401201677E+04  0.20573996374E+02 -0.41609916868E+03  0.11308419093E+04  0.15294330000E+03 0.  0.
<mgrwt>
<rscale>  0 0.10515060E+04</rscale>
<asrwt>0</asrwt>
<pdfrwt beam="1">  1        1 0.29833163E+00 0.10515060E+04</pdfrwt>
<pdfrwt beam="2">  1       -1 0.14588003E+00 0.10515060E+04</pdfrwt>
<totfact> 0.12352146E+00</totfact>
</mgrwt>
</event>
<event>
 4    1  0.1678003E-008  0.1747794E+03  0.7818608E-02  0.1172953E+00
         -1   -1    0    0    0  501 -0.00000000000E+00  0.00000000000E+00  0.28040271341E+03  0.28040271345E+03  0.50400000000E-02 0.  1.
          1   -1    0    0  501    0  0.00000000000E+00 -0.00000000000E+00 -0.18441994345E+03  0.18441994351E+03  0.50400000000E-02 0. -1.
    8880022    1    1    2    0    0  0.82111226587E+02 -0.20345203406E+02 -0.10069161436E+03  0.20170928350E+03  0.15294330000E+03 0. -1.
    8880022    1    1    2    0    0 -0.82111226587E+02  0.20345203406E+02  0.19667438432E+03  0.26311337347E+03  0.15294330000E+03 0.  0.
<mgrwt>
<rscale>  0 0.17477939E+03</rscale>
<asrwt>0</asrwt>
<pdfrwt beam="1">  1        1 0.28372299E-01 0.17477939E+03</pdfrwt>
<pdfrwt beam="2">  1       -1 0.43138879E-01 0.17477939E+03</pdfrwt>
<totfact> 0.87379376E+02</totfact>
</mgrwt>
</event>
<event>
 4    1  0.1678003E-008  0.3177320E+03  0.7818608E-02  0.1076698E+00
         -1   -1    0    0    0  501 -0.00000000000E+00  0.00000000000E+00  0.36395639989E+03  0.36395639992E+03  0.50400000000E-02 0.  1.
          1   -1    0    0  501    0  0.00000000000E+00 -0.00000000000E+00 -0.13699770213E+04  0.13699770213E+04  0.50400000000E-02 0. -1.
    8880022    1    1    2    0    0 -0.14637027910E+03  0.23693396678E+03 -0.12772512288E+04  0.13161779202E+04  0.15294330000E+03 0.  0.
    8880022    1    1    2    0    0  0.14637027910E+03 -0.23693396678E+03  0.27123060739E+03  0.41775550100E+03  0.15294330000E+03 0.  0.
<mgrwt>
<rscale>  0 0.31773199E+03</rscale>
<asrwt>0</asrwt>
<pdfrwt beam="1">  1        1 0.21076569E+00 0.31773199E+03</pdfrwt>
<pdfrwt beam="2">  1       -1 0.55993293E-01 0.31773199E+03</pdfrwt>
<totfact> 0.29074409E+01</totfact>
</mgrwt>
</event>
<event>
 4    1  0.1678003E-008  0.7549578E+03  0.7818608E-02  0.9627604E-01
          1   -1    0    0  501    0  0.00000000000E+00  0.00000000000E+00  0.33539174483E+04  0.33539174483E+04  0.50400000000E-02 0. -1.
         -1   -1    0    0    0  501 -0.00000000000E+00 -0.00000000000E+00 -0.17183216562E+03  0.17183216569E+03  0.50400000000E-02 0.  1.
    8880022    1    1    2    0    0 -0.70467521335E+03 -0.22361228383E+03  0.17760834263E+04  0.19298791672E+04  0.15294330000E+03 0.  0.
    8880022    1    1    2    0    0  0.70467521335E+03  0.22361228383E+03  0.14060018564E+04  0.15958704468E+04  0.15294330000E+03 0.  0.
<mgrwt>
<rscale>  0 0.75495779E+03</rscale>
<asrwt>0</asrwt>
<pdfrwt beam="1">  1        1 0.51598730E+00 0.75495779E+03</pdfrwt>
<pdfrwt beam="2">  1       -1 0.26435718E-01 0.75495779E+03</pdfrwt>
<totfact> 0.44400747E+00</totfact>
</mgrwt>
</event>
<event>
 4    1  0.1678003E-008  0.4833074E+03  0.7818608E-02  0.1018230E+00
         -1   -1    0    0    0  501 -0.00000000000E+00  0.00000000000E+00  0.35546676325E+03  0.35546676328E+03  0.50400000000E-02 0.  1.
          1   -1    0    0  501    0  0.00000000000E+00 -0.00000000000E+00 -0.12017720737E+04  0.12017720737E+04  0.50400000000E-02 0. -1.
    8880022    1    1    2    0    0  0.27660131008E+02 -0.45763443678E+03  0.10101697811E+03  0.49375139843E+03  0.15294330000E+03 0.  0.
    8880022    1    1    2    0    0 -0.27660131008E+02  0.45763443678E+03 -0.94732228858E+03  0.10634874386E+04  0.15294330000E+03 0.  0.
<mgrwt>
<rscale>  0 0.48330737E+03</rscale>
<asrwt>0</asrwt>
<pdfrwt beam="1">  1        1 0.18488801E+00 0.48330737E+03</pdfrwt>
<pdfrwt beam="2">  1       -1 0.54687195E-01 0.48330737E+03</pdfrwt>
<totfact> 0.38362068E+01</totfact>
</mgrwt>
</event>
<event>
 4    1  0.1678003E-008  0.6565265E+03  0.7818608E-02  0.9794609E-01
          1   -1    0    0  501    0  0.00000000000E+00  0.00000000000E+00  0.10777958493E+04  0.10777958493E+04  0.50400000000E-02 0. -1.
         -1   -1    0    0    0  501 -0.00000000000E+00 -0.00000000000E+00 -0.58731829056E+03  0.58731829058E+03  0.50400000000E-02 0.  1.
    8880022    1    1    2    0    0 -0.13387199066E+03  0.62427053124E+03 -0.22505095541E+03  0.69402809137E+03  0.15294330000E+03 0.  0.
    8880022    1    1    2    0    0  0.13387199066E+03 -0.62427053124E+03  0.71552851413E+03  0.97108604851E+03  0.15294330000E+03 0.  0.
<mgrwt>
<rscale>  0 0.65652651E+03</rscale>
<asrwt>0</asrwt>
<pdfrwt beam="1">  1        1 0.16581475E+00 0.65652651E+03</pdfrwt>
<pdfrwt beam="2">  1       -1 0.90356660E-01 0.65652651E+03</pdfrwt>
<totfact> 0.16478479E+01</totfact>
</mgrwt>
</event>
<event>
 4    1  0.1678003E-008  0.5410702E+03  0.7818608E-02  0.1003582E+00
          1   -1    0    0  501    0  0.00000000000E+00  0.00000000000E+00  0.90344025445E+03  0.90344025446E+03  0.50400000000E-02 0. -1.
         -1   -1    0    0    0  501 -0.00000000000E+00 -0.00000000000E+00 -0.44802889608E+03  0.44802889611E+03  0.50400000000E-02 0.  1.
    8880022    1    1    2    0    0 -0.43237552729E+03 -0.28708302353E+03 -0.12776406187E+03  0.55595014841E+03  0.15294330000E+03 0.  0.
    8880022    1    1    2    0    0  0.43237552729E+03  0.28708302353E+03  0.58317542024E+03  0.79551900215E+03  0.15294330000E+03 0.  0.
<mgrwt>
<rscale>  0 0.54107015E+03</rscale>
<asrwt>0</asrwt>
<pdfrwt beam="1">  1        1 0.13899081E+00 0.54107015E+03</pdfrwt>
<pdfrwt beam="2">  1       -1 0.68927522E-01 0.54107015E+03</pdfrwt>
<totfact> 0.40453174E+01</totfact>
</mgrwt>
</event>
<event>
 4    1  0.1678003E-008  0.2011811E+03  0.7818608E-02  0.1148746E+00
          1   -1    0    0  501    0  0.00000000000E+00  0.00000000000E+00  0.11026331804E+04  0.11026331804E+04  0.50400000000E-02 0. -1.
         -1   -1    0    0    0  501 -0.00000000000E+00 -0.00000000000E+00 -0.19564789505E+03  0.19564789511E+03  0.50400000000E-02 0.  1.
    8880022    1    1    2    0    0 -0.32187575889E+02  0.12667329448E+03 -0.13159326359E+03  0.24039676290E+03  0.15294330000E+03 0.  1.
    8880022    1    1    2    0    0  0.32187575889E+02 -0.12667329448E+03  0.10385785489E+04  0.10578843126E+04  0.15294330000E+03 0.  0.
<mgrwt>
<rscale>  0 0.20118105E+03</rscale>
<asrwt>0</asrwt>
<pdfrwt beam="1">  1        1 0.16963588E+00 0.20118105E+03</pdfrwt>
<pdfrwt beam="2">  1       -1 0.30099676E-01 0.20118105E+03</pdfrwt>
<totfact> 0.14029977E+02</totfact>
</mgrwt>
</event>
<event>
 4    1  0.1678003E-008  0.6276431E+03  0.7818608E-02  0.9849659E-01
          1   -1    0    0  501    0  0.00000000000E+00  0.00000000000E+00  0.93809629745E+03  0.93809629747E+03  0.50400000000E-02 0. -1.
         -1   -1    0    0    0  501 -0.00000000000E+00 -0.00000000000E+00 -0.55169557515E+03  0.55169557517E+03  0.50400000000E-02 0.  1.
    8880022    1    1    2    0    0  0.49291197250E+03  0.35718618007E+03  0.55723690533E+03  0.83931448310E+03  0.15294330000E+03 0.  0.
    8880022    1    1    2    0    0 -0.49291197250E+03 -0.35718618007E+03 -0.17083618302E+03  0.65047738954E+03  0.15294330000E+03 0.  0.
<mgrwt>
<rscale>  0 0.62764308E+03</rscale>
<asrwt>0</asrwt>
<pdfrwt beam="1">  1        1 0.14432251E+00 0.62764308E+03</pdfrwt>
<pdfrwt beam="2">  1       -1 0.84876242E-01 0.62764308E+03</pdfrwt>
<totfact> 0.24286173E+01</totfact>
</mgrwt>
</event>
<event>
 4    1  0.1678003E-008  0.4508839E+03  0.7818608E-02  0.1027459E+00
          1   -1    0    0  501    0  0.00000000000E+00  0.00000000000E+00  0.60809158930E+03  0.60809158933E+03  0.50400000000E-02 0. -1.
         -1   -1    0    0    0  501 -0.00000000000E+00 -0.00000000000E+00 -0.20453597126E+04  0.20453597126E+04  0.50400000000E-02 0.  1.
    8880022    1    1    2    0    0 -0.42342170330E+03  0.24874411686E+02  0.49482882947E+03  0.66944148263E+03  0.15294330000E+03 0. -1.
    8880022    1    1    2    0    0  0.42342170330E+03 -0.24874411686E+02 -0.19320969527E+04  0.19840098193E+04  0.15294330000E+03 0.  0.
<mgrwt>
<rscale>  0 0.45088394E+03</rscale>
<asrwt>0</asrwt>
<pdfrwt beam="1">  1        1 0.93552553E-01 0.45088394E+03</pdfrwt>
<pdfrwt beam="2">  1       -1 0.31467072E+00 0.45088394E+03</pdfrwt>
<totfact> 0.10157600E+00</totfact>
</mgrwt>
</event>
<event>
 4    1  0.1678003E-008  0.2858232E+03  0.7818608E-02  0.1092550E+00
         -1   -1    0    0    0  501 -0.00000000000E+00  0.00000000000E+00  0.12586730480E+03  0.12586730490E+03  0.50400000000E-02 0.  1.
          1   -1    0    0  501    0  0.00000000000E+00 -0.00000000000E+00 -0.23141398078E+04  0.23141398078E+04  0.50400000000E-02 0. -1.
    8880022    1    1    2    0    0 -0.12227289319E+03  0.20821285726E+03 -0.59269648498E+02  0.29190374884E+03  0.15294330000E+03 0.  1.
    8880022    1    1    2    0    0  0.12227289319E+03 -0.20821285726E+03 -0.21290028545E+04  0.21481033638E+04  0.15294330000E+03 0.  0.
<mgrwt>
<rscale>  0 0.28582321E+03</rscale>
<asrwt>0</asrwt>
<pdfrwt beam="1">  1        1 0.35602148E+00 0.28582321E+03</pdfrwt>
<pdfrwt beam="2">  1       -1 0.19364202E-01 0.28582321E+03</pdfrwt>
<totfact> 0.44828334E+01</totfact>
</mgrwt>
</event>
<event>
 4    1  0.1678003E-008  0.7956771E+03  0.7818608E-02  0.9566296E-01
          1   -1    0    0  501    0  0.00000000000E+00  0.00000000000E+00  0.59600286908E+03  0.59600286910E+03  0.50400000000E-02 0. -1.
         -1   -1    0    0    0  501 -0.00000000000E+00 -0.00000000000E+00 -0.18613424616E+04  0.18613424616E+04  0.50400000000E-02 0.  1.
    8880022    1    1    2    0    0  0.35959877190E+03 -0.69310827368E+03  0.17237954799E+03  0.81413556449E+03  0.15294330000E+03 0.  0.
    8880022    1    1    2    0    0 -0.35959877190E+03  0.69310827368E+03 -0.14377191405E+04  0.16432097662E+04  0.15294330000E+03 0.  0.
<mgrwt>
<rscale>  0 0.79567708E+03</rscale>
<asrwt>0</asrwt>
<pdfrwt beam="1">  1        1 0.91692750E-01 0.79567708E+03</pdfrwt>
<pdfrwt beam="2">  1       -1 0.28636038E+00 0.79567708E+03</pdfrwt>
<totfact> 0.14610457E+00</totfact>
</mgrwt>
</event>
<event>
 4    1  0.1678003E-008  0.5800736E+03  0.7818608E-02  0.9947632E-01
          1   -1    0    0  501    0  0.00000000000E+00  0.00000000000E+00  0.17225671144E+04  0.17225671144E+04  0.50400000000E-02 0. -1.
         -1   -1    0    0    0  501 -0.00000000000E+00 -0.00000000000E+00 -0.12756047225E+04  0.12756047225E+04  0.50400000000E-02 0.  1.
    8880022    1    1    2    0    0  0.29156922625E+03 -0.47757834044E+03 -0.11560568110E+04  0.12934267231E+04  0.15294330000E+03 0.  0.
    8880022    1    1    2    0    0 -0.29156922625E+03  0.47757834044E+03  0.16030192029E+04  0.17047451137E+04  0.15294330000E+03 0.  0.
<mgrwt>
<rscale>  0 0.58007356E+03</rscale>
<asrwt>0</asrwt>
<pdfrwt beam="1">  1        1 0.26501032E+00 0.58007356E+03</pdfrwt>
<pdfrwt beam="2">  1       -1 0.19624688E+00 0.58007356E+03</pdfrwt>
<totfact> 0.81079082E-01</totfact>
</mgrwt>
</event>
<event>
 4    1  0.1678003E-008  0.8629048E+03  0.7818608E-02  0.9473178E-01
          1   -1    0    0  501    0  0.00000000000E+00  0.00000000000E+00  0.15511694216E+04  0.15511694216E+04  0.50400000000E-02 0. -1.
         -1   -1    0    0    0  501 -0.00000000000E+00 -0.00000000000E+00 -0.93964746705E+03  0.93964746707E+03  0.50400000000E-02 0.  1.
    8880022    1    1    2    0    0 -0.84900946706E+03 -0.19898673681E+02 -0.56525989279E+03  0.10315635859E+04  0.15294330000E+03 0.  0.
    8880022    1    1    2    0    0  0.84900946706E+03  0.19898673681E+02  0.11767818473E+04  0.14592533027E+04  0.15294330000E+03 0.  0.
<mgrwt>
<rscale>  0 0.86290480E+03</rscale>
<asrwt>0</asrwt>
<pdfrwt beam="1">  1        1 0.23864145E+00 0.86290480E+03</pdfrwt>
<pdfrwt beam="2">  1       -1 0.14456115E+00 0.86290480E+03</pdfrwt>
<totfact> 0.23837637E+00</totfact>
</mgrwt>
</event>
<event>
 4    1  0.1678003E-008  0.1075654E+04  0.7818608E-02  0.9229252E-01
          1   -1    0    0  501    0  0.00000000000E+00  0.00000000000E+00  0.21017865100E+04  0.21017865100E+04  0.50400000000E-02 0. -1.
         -1   -1    0    0    0  501 -0.00000000000E+00 -0.00000000000E+00 -0.88361220731E+03  0.88361220733E+03  0.50400000000E-02 0.  1.
    8880022    1    1    2    0    0 -0.68989777611E+02 -0.10624875255E+04 -0.30742354722E+03  0.11187225848E+04  0.15294330000E+03 0.  0.
    8880022    1    1    2    0    0  0.68989777611E+02  0.10624875255E+04  0.15255978499E+04  0.18666761326E+04  0.15294330000E+03 0.  0.
<mgrwt>
<rscale>  0 0.10756537E+04</rscale>
<asrwt>0</asrwt>
<pdfrwt beam="1">  1        1 0.32335176E+00 0.10756537E+04</pdfrwt>
<pdfrwt beam="2">  1       -1 0.13594034E+00 0.10756537E+04</pdfrwt>
<totfact> 0.11509914E+00</totfact>
</mgrwt>
</event>
<event>
 4    1  0.1678003E-008  0.1000229E+04  0.7818608E-02  0.9308294E-01
         -1   -1    0    0    0  501 -0.00000000000E+00  0.00000000000E+00  0.11886364348E+04  0.11886364348E+04  0.50400000000E-02 0.  1.
          1   -1    0    0  501    0  0.00000000000E+00 -0.00000000000E+00 -0.11163166139E+04  0.11163166139E+04  0.50400000000E-02 0. -1.
    8880022    1    1    2    0    0  0.12285400678E+03 -0.98080195691E+03 -0.53546849773E+03  0.11345412072E+04  0.15294330000E+03 0.  0.
    8880022    1    1    2    0    0 -0.12285400678E+03  0.98080195691E+03  0.60778831862E+03  0.11704118416E+04  0.15294330000E+03 0.  0.
<mgrwt>
<rscale>  0 0.10002286E+04</rscale>
<asrwt>0</asrwt>
<pdfrwt beam="1">  1        1 0.17174102E+00 0.10002286E+04</pdfrwt>
<pdfrwt beam="2">  1       -1 0.18286714E+00 0.10002286E+04</pdfrwt>
<totfact> 0.24559642E+00</totfact>
</mgrwt>
</event>
<event>
 4    1  0.1678003E-008  0.7081429E+03  0.7818608E-02  0.9703407E-01
         -1   -1    0    0    0  501 -0.00000000000E+00  0.00000000000E+00  0.10619019915E+04  0.10619019915E+04  0.50400000000E-02 0.  1.
          1   -1    0    0  501    0  0.00000000000E+00 -0.00000000000E+00 -0.66656642573E+03  0.66656642575E+03  0.50400000000E-02 0. -1.
    8880022    1    1    2    0    0  0.10146329464E+03 -0.68394441668E+03 -0.26897243684E+03  0.75750418485E+03  0.15294330000E+03 0.  0.
    8880022    1    1    2    0    0 -0.10146329464E+03  0.68394441668E+03  0.66430800260E+03  0.97096423240E+03  0.15294330000E+03 0.  0.
<mgrwt>
<rscale>  0 0.70814294E+03</rscale>
<asrwt>0</asrwt>
<pdfrwt beam="1">  1        1 0.10254868E+00 0.70814294E+03</pdfrwt>
<pdfrwt beam="2">  1       -1 0.16336954E+00 0.70814294E+03</pdfrwt>
<totfact> 0.83913544E+00</totfact>
</mgrwt>
</event>
<event>
 4    1  0.1678003E-008  0.9878563E+03  0.7818608E-02  0.9321965E-01
          1   -1    0    0  501    0  0.00000000000E+00  0.00000000000E+00  0.72410627538E+03  0.72410627539E+03  0.50400000000E-02 0. -1.
         -1   -1    0    0    0  501 -0.00000000000E+00 -0.00000000000E+00 -0.19224590184E+04  0.19224590185E+04  0.50400000000E-02 0.  1.
    8880022    1    1    2    0    0  0.95046614466E+03 -0.22154578061E+03  0.12438660087E+03  0.99565661979E+03  0.15294330000E+03 0.  0.
    8880022    1    1    2    0    0 -0.95046614466E+03  0.22154578061E+03 -0.13227393439E+04  0.16509086741E+04  0.15294330000E+03 0.  0.
<mgrwt>
<rscale>  0 0.98785630E+03</rscale>
<asrwt>0</asrwt>
<pdfrwt beam="1">  1        1 0.11140097E+00 0.98785630E+03</pdfrwt>
<pdfrwt beam="2">  1       -1 0.29576292E+00 0.98785630E+03</pdfrwt>
<totfact> 0.92377921E-01</totfact>
</mgrwt>
</event>
<event>
 4    1  0.1678003E-008  0.4284460E+03  0.7818608E-02  0.1034352E+00
         -1   -1    0    0    0  501 -0.00000000000E+00  0.00000000000E+00  0.33581558496E+03  0.33581558500E+03  0.50400000000E-02 0.  1.
          1   -1    0    0  501    0  0.00000000000E+00 -0.00000000000E+00 -0.58795106557E+03  0.58795106559E+03  0.50400000000E-02 0. -1.
    8880022    1    1    2    0    0 -0.39083968284E+03  0.86131520855E+02 -0.24851861807E+03  0.49530541398E+03  0.15294330000E+03 0.  0.
    8880022    1    1    2    0    0  0.39083968284E+03 -0.86131520855E+02 -0.36168625311E+01  0.42846123661E+03  0.15294330000E+03 0. -1.
<mgrwt>
<rscale>  0 0.42844597E+03</rscale>
<asrwt>0</asrwt>
<pdfrwt beam="1">  1        1 0.90454010E-01 0.42844597E+03</pdfrwt>
<pdfrwt beam="2">  1       -1 0.51663936E-01 0.42844597E+03</pdfrwt>
<totfact> 0.13861370E+02</totfact>
</mgrwt>
</event>
<event>
 4    1  0.1678003E-008  0.3119357E+03  0.7818608E-02  0.1079422E+00
          1   -1    0    0  501    0  0.00000000000E+00  0.00000000000E+00  0.50262107932E+03  0.50262107935E+03  0.50400000000E-02 0. -1.
         -1   -1    0    0    0  501 -0.00000000000E+00 -0.00000000000E+00 -0.38210752112E+03  0.38210752116E+03  0.50400000000E-02 0.  1.
    8880022    1    1    2    0    0  0.23118027428E+03 -0.14306608538E+03  0.37097003886E+03  0.48468819539E+03  0.15294330000E+03 0.  0.
    8880022    1    1    2    0    0 -0.23118027428E+03  0.14306608538E+03 -0.25045648067E+03  0.40004040511E+03  0.15294330000E+03 0.  0.
<mgrwt>
<rscale>  0 0.31193569E+03</rscale>
<asrwt>0</asrwt>
<pdfrwt beam="1">  1        1 0.77326319E-01 0.31193569E+03</pdfrwt>
<pdfrwt beam="2">  1       -1 0.58785773E-01 0.31193569E+03</pdfrwt>
<totfact> 0.13629660E+02</totfact>
</mgrwt>
</event>
<event>
 4    1  0.1678003E-008  0.8218534E+03  0.7818608E-02  0.9528913E-01
         -1   -1    0    0    0  501 -0.00000000000E+00  0.00000000000E+00  0.22542742236E+03  0.22542742242E+03  0.50400000000E-02 0.  1.
          1   -1    0    0  501    0  0.00000000000E+00 -0.00000000000E+00 -0.32865154742E+04  0.32865154742E+04  0.50400000000E-02 0. -1.
    8880022    1    1    2    0    0  0.73207187680E+03  0.34076706385E+03 -0.10087166660E+04  0.13011350391E+04  0.15294330000E+03 0.  0.
    8880022    1    1    2    0    0 -0.73207187680E+03 -0.34076706385E+03 -0.20523713859E+04  0.22108078576E+04  0.15294330000E+03 0.  0.
<mgrwt>
<rscale>  0 0.82185344E+03</rscale>
<asrwt>0</asrwt>
<pdfrwt beam="1">  1        1 0.50561773E+00 0.82185344E+03</pdfrwt>
<pdfrwt beam="2">  1       -1 0.34681144E-01 0.82185344E+03</pdfrwt>
<totfact> 0.30660212E+00</totfact>
</mgrwt>
</event>
<event>
 4    1  0.1678003E-008  0.5938437E+03  0.7818608E-02  0.9918261E-01
          1   -1    0    0  501    0  0.00000000000E+00  0.00000000000E+00  0.10652725578E+04  0.10652725578E+04  0.50400000000E-02 0. -1.
         -1   -1    0    0    0  501 -0.00000000000E+00 -0.00000000000E+00 -0.97074062065E+03  0.97074062066E+03  0.50400000000E-02 0.  1.
    8880022    1    1    2    0    0 -0.46358238130E+03 -0.33815692068E+03  0.87365883600E+03  0.10563759473E+04  0.15294330000E+03 0.  0.
    8880022    1    1    2    0    0  0.46358238130E+03  0.33815692068E+03 -0.77912689884E+03  0.97963723121E+03  0.15294330000E+03 0.  0.
<mgrwt>
<rscale>  0 0.59384373E+03</rscale>
<asrwt>0</asrwt>
<pdfrwt beam="1">  1        1 0.16388809E+00 0.59384373E+03</pdfrwt>
<pdfrwt beam="2">  1       -1 0.14934471E+00 0.59384373E+03</pdfrwt>
<totfact> 0.50714396E+00</totfact>
</mgrwt>
</event>
<event>
 4    1  0.1678003E-008  0.6089944E+03  0.7818608E-02  0.9886919E-01
         -1   -1    0    0    0  501 -0.00000000000E+00  0.00000000000E+00  0.40067080122E+03  0.40067080125E+03  0.50400000000E-02 0.  1.
          1   -1    0    0  501    0  0.00000000000E+00 -0.00000000000E+00 -0.10963058393E+04  0.10963058393E+04  0.50400000000E-02 0. -1.
    8880022    1    1    2    0    0 -0.51619100634E+03  0.28465659582E+03 -0.52491882195E+02  0.61125247098E+03  0.15294330000E+03 0. -1.
    8880022    1    1    2    0    0  0.51619100634E+03 -0.28465659582E+03 -0.64314315587E+03  0.88572416955E+03  0.15294330000E+03 0.  1.
<mgrwt>
<rscale>  0 0.60899441E+03</rscale>
<asrwt>0</asrwt>
<pdfrwt beam="1">  1        1 0.16866244E+00 0.60899441E+03</pdfrwt>
<pdfrwt beam="2">  1       -1 0.61641662E-01 0.60899441E+03</pdfrwt>
<totfact> 0.35584553E+01</totfact>
</mgrwt>
</event>
<event>
 4    1  0.1678003E-008  0.3484969E+03  0.7818608E-02  0.1063234E+00
         -1   -1    0    0    0  501 -0.00000000000E+00  0.00000000000E+00  0.10662591290E+04  0.10662591290E+04  0.50400000000E-02 0.  1.
          1   -1    0    0  501    0  0.00000000000E+00 -0.00000000000E+00 -0.40021339657E+03  0.40021339660E+03  0.50400000000E-02 0. -1.
    8880022    1    1    2    0    0 -0.30681585988E+03 -0.62629647728E+02  0.95320134985E+03  0.10149102970E+04  0.15294330000E+03 0.  0.
    8880022    1    1    2    0    0  0.30681585988E+03  0.62629647728E+02 -0.28715561742E+03  0.45156222858E+03  0.15294330000E+03 0.  0.
<mgrwt>
<rscale>  0 0.34849691E+03</rscale>
<asrwt>0</asrwt>
<pdfrwt beam="1">  1        1 0.61571292E-01 0.34849691E+03</pdfrwt>
<pdfrwt beam="2">  1       -1 0.16403986E+00 0.34849691E+03</pdfrwt>
<totfact> 0.17867386E+01</totfact>
</mgrwt>
</event>
<event>
 4    1  0.1678003E-008  0.2359655E+03  0.7818608E-02  0.1122510E+00
          1   -1    0    0  501    0  0.00000000000E+00  0.00000000000E+00  0.28580255765E+03  0.28580255769E+03  0.50400000000E-02 0. -1.
         -1   -1    0    0    0  501 -0.00000000000E+00 -0.00000000000E+00 -0.62686917822E+03  0.62686917824E+03  0.50400000000E-02 0.  1.
    8880022    1    1    2    0    0  0.15821110090E+03  0.85189803564E+02  0.20831324927E+03  0.31476041351E+03  0.15294330000E+03 0. -1.
    8880022    1    1    2    0    0 -0.15821110090E+03 -0.85189803564E+02 -0.54937986983E+03  0.59791132242E+03  0.15294330000E+03 0.  0.
<mgrwt>
<rscale>  0 0.23596548E+03</rscale>
<asrwt>0</asrwt>
<pdfrwt beam="1">  1        1 0.43969624E-01 0.23596548E+03</pdfrwt>
<pdfrwt beam="2">  1       -1 0.96441412E-01 0.23596548E+03</pdfrwt>
<totfact> 0.10340767E+02</totfact>
</mgrwt>
</event>
<event>
 4    1  0.1678003E-008  0.1721981E+03  0.7818608E-02  0.1175575E+00
          1   -1    0    0  501    0  0.00000000000E+00  0.00000000000E+00  0.40338568595E+04  0.40338568595E+04  0.50400000000E-02 0. -1.
         -1   -1    0    0    0  501 -0.00000000000E+00 -0.00000000000E+00 -0.64779590076E+02  0.64779590272E+02  0.50400000000E-02 0.  1.
    8880022    1    1    2    0    0  0.66118518560E+01 -0.78846764458E+02  0.54993073657E+02  0.18076620264E+03  0.15294330000E+03 0.  0.
    8880022    1    1    2    0    0 -0.66118518560E+01  0.78846764458E+02  0.39140841958E+04  0.39178702471E+04  0.15294330000E+03 0. -1.
<mgrwt>
<rscale>  0 0.17219809E+03</rscale>
<asrwt>0</asrwt>
<pdfrwt beam="1">  1        1 0.62059366E+00 0.17219809E+03</pdfrwt>
<pdfrwt beam="2">  1       -1 0.99660860E-02 0.17219809E+03</pdfrwt>
<totfact> 0.77164050E+00</totfact>
</mgrwt>
</event>
<event>
 4    1  0.1678003E-008  0.3464618E+03  0.7818608E-02  0.1064077E+00
         -1   -1    0    0    0  501 -0.00000000000E+00  0.00000000000E+00  0.20228002522E+03  0.20228002528E+03  0.50400000000E-02 0.  1.
          1   -1    0    0  501    0  0.00000000000E+00 -0.00000000000E+00 -0.16929538052E+04  0.16929538052E+04  0.50400000000E-02 0. -1.
    8880022    1    1    2    0    0 -0.30578559812E+03  0.56029671543E+02  0.18350674065E+02  0.34694748358E+03  0.15294330000E+03 0.  0.
    8880022    1    1    2    0    0  0.30578559812E+03 -0.56029671543E+02 -0.15090244541E+04  0.15482863469E+04  0.15294330000E+03 0. -1.
<mgrwt>
<rscale>  0 0.34646184E+03</rscale>
<asrwt>0</asrwt>
<pdfrwt beam="1">  1        1 0.26045442E+00 0.34646184E+03</pdfrwt>
<pdfrwt beam="2">  1       -1 0.31120005E-01 0.34646184E+03</pdfrwt>
<totfact> 0.50761744E+01</totfact>
</mgrwt>
</event>
<event>
 4    1  0.1678003E-008  0.2291866E+03  0.7818608E-02  0.1127214E+00
         -1   -1    0    0    0  501 -0.00000000000E+00  0.00000000000E+00  0.29793403645E+03  0.29793403649E+03  0.50400000000E-02 0.  1.
          1   -1    0    0  501    0  0.00000000000E+00 -0.00000000000E+00 -0.13034806997E+04  0.13034806997E+04  0.50400000000E-02 0. -1.
    8880022    1    1    2    0    0  0.11394179833E+03  0.12709095567E+03  0.24181774011E+03  0.33317010199E+03  0.15294330000E+03 0.  0.
    8880022    1    1    2    0    0 -0.11394179833E+03 -0.12709095567E+03 -0.12473644034E+04  0.12682446342E+04  0.15294330000E+03 0. -1.
<mgrwt>
<rscale>  0 0.22918660E+03</rscale>
<asrwt>0</asrwt>
<pdfrwt beam="1">  1        1 0.20053549E+00 0.22918660E+03</pdfrwt>
<pdfrwt beam="2">  1       -1 0.45836007E-01 0.22918660E+03</pdfrwt>
<totfact> 0.48209497E+01</totfact>
</mgrwt>
</event>
<event>
 4    1  0.1678003E-008  0.5934506E+03  0.7818608E-02  0.9919088E-01
         -1   -1    0    0    0  501 -0.00000000000E+00  0.00000000000E+00  0.28092521857E+03  0.28092521861E+03  0.50400000000E-02 0.  1.
          1   -1    0    0  501    0  0.00000000000E+00 -0.00000000000E+00 -0.15042975708E+04  0.15042975708E+04  0.50400000000E-02 0. -1.
    8880022    1    1    2    0    0  0.57087499366E+03 -0.53793225069E+02 -0.24733347929E+03  0.64292882377E+03  0.15294330000E+03 0.  0.
    8880022    1    1    2    0    0 -0.57087499366E+03  0.53793225069E+02 -0.97603887298E+03  0.11422939657E+04  0.15294330000E+03 0.  0.
<mgrwt>
<rscale>  0 0.59345061E+03</rscale>
<asrwt>0</asrwt>
<pdfrwt beam="1">  1        1 0.23143039E+00 0.59345061E+03</pdfrwt>
<pdfrwt beam="2">  1       -1 0.43219265E-01 0.59345061E+03</pdfrwt>
<totfact> 0.36099584E+01</totfact>
</mgrwt>
</event>
<event>
 4    1  0.1678003E-008  0.2740579E+03  0.7818608E-02  0.1098979E+00
         -1   -1    0    0    0  501 -0.00000000000E+00  0.00000000000E+00  0.15172254385E+03  0.15172254393E+03  0.50400000000E-02 0.  1.
          1   -1    0    0  501    0  0.00000000000E+00 -0.00000000000E+00 -0.65905309596E+03  0.65905309598E+03  0.50400000000E-02 0. -1.
    8880022    1    1    2    0    0  0.13026412822E+03 -0.18640640075E+03 -0.45590122584E+03  0.53193389634E+03  0.15294330000E+03 0.  0.
    8880022    1    1    2    0    0 -0.13026412822E+03  0.18640640075E+03 -0.51429326278E+02  0.27884174357E+03  0.15294330000E+03 0.  0.
<mgrwt>
<rscale>  0 0.27405792E+03</rscale>
<asrwt>0</asrwt>
<pdfrwt beam="1">  1        1 0.10139278E+00 0.27405792E+03</pdfrwt>
<pdfrwt beam="2">  1       -1 0.23341930E-01 0.27405792E+03</pdfrwt>
<totfact> 0.48331384E+02</totfact>
</mgrwt>
</event>
<event>
 4    1  0.1678003E-008  0.5734920E+03  0.7818608E-02  0.9961981E-01
          1   -1    0    0  501    0  0.00000000000E+00  0.00000000000E+00  0.17067209550E+04  0.17067209550E+04  0.50400000000E-02 0. -1.
         -1   -1    0    0    0  501 -0.00000000000E+00 -0.00000000000E+00 -0.22254996949E+03  0.22254996955E+03  0.50400000000E-02 0.  1.
    8880022    1    1    2    0    0 -0.55268342634E+03  0.65146764880E+01  0.38883109877E+03  0.69287999477E+03  0.15294330000E+03 0.  0.
    8880022    1    1    2    0    0  0.55268342634E+03 -0.65146764880E+01  0.10953398868E+04  0.12363909298E+04  0.15294330000E+03 0.  0.
<mgrwt>
<rscale>  0 0.57349199E+03</rscale>
<asrwt>0</asrwt>
<pdfrwt beam="1">  1        1 0.26257246E+00 0.57349199E+03</pdfrwt>
<pdfrwt beam="2">  1       -1 0.34238457E-01 0.57349199E+03</pdfrwt>
<totfact> 0.40236217E+01</totfact>
</mgrwt>
</event>
<event>
 4    1  0.1678003E-008  0.3424769E+03  0.7818608E-02  0.1065746E+00
          1   -1    0    0  501    0  0.00000000000E+00  0.00000000000E+00  0.14183797414E+04  0.14183797414E+04  0.50400000000E-02 0. -1.
         -1   -1    0    0    0  501 -0.00000000000E+00 -0.00000000000E+00 -0.25208137443E+03  0.25208137448E+03  0.50400000000E-02 0.  1.
    8880022    1    1    2    0    0 -0.23905886846E+03 -0.19170185131E+03  0.12678132063E+04  0.13132557716E+04  0.15294330000E+03 0.  0.
    8880022    1    1    2    0    0  0.23905886846E+03  0.19170185131E+03 -0.10151483937E+03  0.35720534432E+03  0.15294330000E+03 0.  0.
<mgrwt>
<rscale>  0 0.34247685E+03</rscale>
<asrwt>0</asrwt>
<pdfrwt beam="1">  1        1 0.21821227E+00 0.34247685E+03</pdfrwt>
<pdfrwt beam="2">  1       -1 0.38781749E-01 0.34247685E+03</pdfrwt>
<totfact> 0.52642153E+01</totfact>
</mgrwt>
</event>
<event>
 4    1  0.1678003E-008  0.1017599E+04  0.7818608E-02  0.9289451E-01
         -1   -1    0    0    0  501 -0.00000000000E+00  0.00000000000E+00  0.98557389949E+03  0.98557389950E+03  0.50400000000E-02 0.  1.
          1   -1    0    0  501    0  0.00000000000E+00 -0.00000000000E+00 -0.13633460978E+04  0.13633460978E+04  0.50400000000E-02 0. -1.
    8880022    1    1    2    0    0  0.10050757550E+04  0.44026325075E+02  0.37356726358E+03  0.10840017270E+04  0.15294330000E+03 0.  0.
    8880022    1    1    2    0    0 -0.10050757550E+04 -0.44026325075E+02 -0.75133946193E+03  0.12649182704E+04  0.15294330000E+03 0.  0.
<mgrwt>
<rscale>  0 0.10175988E+04</rscale>
<asrwt>0</asrwt>
<pdfrwt beam="1">  1        1 0.20974555E+00 0.10175988E+04</pdfrwt>
<pdfrwt beam="2">  1       -1 0.15162675E+00 0.10175988E+04</pdfrwt>
<totfact> 0.27690832E+00</totfact>
</mgrwt>
</event>
<event>
 4    1  0.1678003E-008  0.7706520E+03  0.7818608E-02  0.9603496E-01
         -1   -1    0    0    0  501 -0.00000000000E+00  0.00000000000E+00  0.44537814081E+03  0.44537814083E+03  0.50400000000E-02 0.  1.
          1   -1    0    0  501    0  0.00000000000E+00 -0.00000000000E+00 -0.15848260082E+04  0.15848260082E+04  0.50400000000E-02 0. -1.
    8880022    1    1    2    0    0  0.72482220805E+03  0.21247492417E+03 -0.16547233862E+03  0.78821670532E+03  0.15294330000E+03 0.  0.
    8880022    1    1    2    0    0 -0.72482220805E+03 -0.21247492417E+03 -0.97397552877E+03  0.12419874437E+04  0.15294330000E+03 0.  0.
<mgrwt>
<rscale>  0 0.77065198E+03</rscale>
<asrwt>0</asrwt>
<pdfrwt beam="1">  1        1 0.24381938E+00 0.77065198E+03</pdfrwt>
<pdfrwt beam="2">  1       -1 0.68519715E-01 0.77065198E+03</pdfrwt>
<totfact> 0.12756388E+01</totfact>
</mgrwt>
</event>
<event>
 4    1  0.1678003E-008  0.7079131E+03  0.7818608E-02  0.9703795E-01
         -1   -1    0    0    0  501 -0.00000000000E+00  0.00000000000E+00  0.66363123938E+03  0.66363123940E+03  0.50400000000E-02 0.  1.
          1   -1    0    0  501    0  0.00000000000E+00 -0.00000000000E+00 -0.11742638399E+04  0.11742638400E+04  0.50400000000E-02 0. -1.
    8880022    1    1    2    0    0 -0.61588559130E+03  0.31374225930E+03  0.29368584456E+03  0.76641522372E+03  0.15294330000E+03 0.  0.
    8880022    1    1    2    0    0  0.61588559130E+03 -0.31374225930E+03 -0.80431844513E+03  0.10714798556E+04  0.15294330000E+03 0.  0.
<mgrwt>
<rscale>  0 0.70791307E+03</rscale>
<asrwt>0</asrwt>
<pdfrwt beam="1">  1        1 0.18065598E+00 0.70791307E+03</pdfrwt>
<pdfrwt beam="2">  1       -1 0.10209711E+00 0.70791307E+03</pdfrwt>
<totfact> 0.10551612E+01</totfact>
</mgrwt>
</event>
<event>
 4    1  0.1678003E-008  0.3383558E+03  0.7818608E-02  0.1067498E+00
          1   -1    0    0  501    0  0.00000000000E+00  0.00000000000E+00  0.54802812189E+03  0.54802812191E+03  0.50400000000E-02 0. -1.
         -1   -1    0    0    0  501 -0.00000000000E+00 -0.00000000000E+00 -0.38115935463E+03  0.38115935467E+03  0.50400000000E-02 0.  1.
    8880022    1    1    2    0    0 -0.29699928269E+03 -0.53706977907E+02  0.39576014491E+03  0.52068297333E+03  0.15294330000E+03 0.  0.
    8880022    1    1    2    0    0  0.29699928269E+03  0.53706977907E+02 -0.22889137766E+03  0.40850450325E+03  0.15294330000E+03 0.  1.
<mgrwt>
<rscale>  0 0.33835583E+03</rscale>
<asrwt>0</asrwt>
<pdfrwt beam="1">  1        1 0.84312018E-01 0.33835583E+03</pdfrwt>
<pdfrwt beam="2">  1       -1 0.58639901E-01 0.33835583E+03</pdfrwt>
<totfact> 0.12135155E+02</totfact>
</mgrwt>
</event>
<event>
 4    1  0.1678003E-008  0.4838413E+03  0.7818608E-02  0.1018085E+00
         -1   -1    0    0    0  501 -0.00000000000E+00  0.00000000000E+00  0.16938507423E+04  0.16938507423E+04  0.50400000000E-02 0.  1.
          1   -1    0    0  501    0  0.00000000000E+00 -0.00000000000E+00 -0.43506059024E+03  0.43506059027E+03  0.50400000000E-02 0. -1.
    8880022    1    1    2    0    0 -0.10054560143E+02  0.45892228839E+03  0.15086679855E+04  0.15843552330E+04  0.15294330000E+03 0.  0.
    8880022    1    1    2    0    0  0.10054560143E+02 -0.45892228839E+03 -0.24987783340E+03  0.54455609959E+03  0.15294330000E+03 0. -1.
<mgrwt>
<rscale>  0 0.48384131E+03</rscale>
<asrwt>0</asrwt>
<pdfrwt beam="1">  1        1 0.66932399E-01 0.48384131E+03</pdfrwt>
<pdfrwt beam="2">  1       -1 0.26059242E+00 0.48384131E+03</pdfrwt>
<totfact> 0.35001451E+00</totfact>
</mgrwt>
</event>
<event>
 4    1  0.1678003E-008  0.4383419E+03  0.7818608E-02  0.1031257E+00
          1   -1    0    0  501    0  0.00000000000E+00  0.00000000000E+00  0.12268410931E+04  0.12268410931E+04  0.50400000000E-02 0. -1.
         -1   -1    0    0    0  501 -0.00000000000E+00 -0.00000000000E+00 -0.84625521713E+03  0.84625521714E+03  0.50400000000E-02 0.  1.
    8880022    1    1    2    0    0  0.40972401349E+03 -0.29634969899E+02  0.11260208774E+04  0.12083321845E+04  0.15294330000E+03 0.  0.
    8880022    1    1    2    0    0 -0.40972401349E+03  0.29634969899E+02 -0.74543500149E+03  0.86476412572E+03  0.15294330000E+03 0.  0.
<mgrwt>
<rscale>  0 0.43834193E+03</rscale>
<asrwt>0</asrwt>
<pdfrwt beam="1">  1        1 0.18874478E+00 0.43834193E+03</pdfrwt>
<pdfrwt beam="2">  1       -1 0.13019311E+00 0.43834193E+03</pdfrwt>
<totfact> 0.57181286E+00</totfact>
</mgrwt>
</event>
<event>
 4    1  0.1678003E-008  0.1960076E+03  0.7818608E-02  0.1153152E+00
         -1   -1    0    0    0  501 -0.00000000000E+00  0.00000000000E+00  0.63331742829E+03  0.63331742831E+03  0.50400000000E-02 0.  1.
          1   -1    0    0  501    0  0.00000000000E+00 -0.00000000000E+00 -0.61738380327E+03  0.61738380329E+03  0.50400000000E-02 0. -1.
    8880022    1    1    2    0    0  0.11808111476E+03  0.32926819748E+02  0.60180027240E+03  0.63291590752E+03  0.15294330000E+03 0.  1.
    8880022    1    1    2    0    0 -0.11808111476E+03 -0.32926819748E+02 -0.58586664738E+03  0.61778532408E+03  0.15294330000E+03 0.  0.
<mgrwt>
<rscale>  0 0.19600760E+03</rscale>
<asrwt>0</asrwt>
<pdfrwt beam="1">  1        1 0.94982124E-01 0.19600760E+03</pdfrwt>
<pdfrwt beam="2">  1       -1 0.97433450E-01 0.19600760E+03</pdfrwt>
<totfact> 0.37545774E+01</totfact>
</mgrwt>
</event>
<event>
 4    1  0.1678003E-008  0.4658477E+03  0.7818608E-02  0.1023099E+00
          1   -1    0    0  501    0  0.00000000000E+00  0.00000000000E+00  0.65373779153E+03  0.65373779155E+03  0.50400000000E-02 0. -1.
         -1   -1    0    0    0  501 -0.00000000000E+00 -0.00000000000E+00 -0.41373749855E+03  0.41373749858E+03  0.50400000000E-02 0.  1.
    8880022    1    1    2    0    0 -0.40454021637E+03 -0.17311754363E+03  0.35729320845E+03  0.58708820495E+03  0.15294330000E+03 0.  0.
    8880022    1    1    2    0    0  0.40454021637E+03  0.17311754363E+03 -0.11729291546E+03  0.48038708518E+03  0.15294330000E+03 0.  1.
<mgrwt>
<rscale>  0 0.46584775E+03</rscale>
<asrwt>0</asrwt>
<pdfrwt beam="1">  1        1 0.10057505E+00 0.46584775E+03</pdfrwt>
<pdfrwt beam="2">  1       -1 0.63651923E-01 0.46584775E+03</pdfrwt>
<totfact> 0.79249904E+01</totfact>
</mgrwt>
</event>
<event>
 4    1  0.1678003E-008  0.3057069E+03  0.7818608E-02  0.1082422E+00
         -1   -1    0    0    0  501 -0.00000000000E+00  0.00000000000E+00  0.43605718340E+03  0.43605718343E+03  0.50400000000E-02 0.  1.
          1   -1    0    0  501    0  0.00000000000E+00 -0.00000000000E+00 -0.13875714789E+04  0.13875714789E+04  0.50400000000E-02 0. -1.
    8880022    1    1    2    0    0 -0.20403641984E+03  0.16862444425E+03  0.36268651633E+03  0.47433977902E+03  0.15294330000E+03 0.  0.
    8880022    1    1    2    0    0  0.20403641984E+03 -0.16862444425E+03 -0.13142008119E+04  0.13492888833E+04  0.15294330000E+03 0. -1.
<mgrwt>
<rscale>  0 0.30570691E+03</rscale>
<asrwt>0</asrwt>
<pdfrwt beam="1">  1        1 0.21347253E+00 0.30570691E+03</pdfrwt>
<pdfrwt beam="2">  1       -1 0.67085721E-01 0.30570691E+03</pdfrwt>
<totfact> 0.19972910E+01</totfact>
</mgrwt>
</event>
<event>
 4    1  0.1678003E-008  0.2924979E+03  0.7818608E-02  0.1089052E+00
          1   -1    0    0  501    0  0.00000000000E+00  0.00000000000E+00  0.29428698890E+03  0.29428698895E+03  0.50400000000E-02 0. -1.
         -1   -1    0    0    0  501 -0.00000000000E+00 -0.00000000000E+00 -0.74953322254E+03  0.74953322256E+03  0.50400000000E-02 0.  1.
    8880022    1    1    2    0    0 -0.24612473998E+03  0.39824162424E+02 -0.63595980324E+03  0.69999991135E+03  0.15294330000E+03 0.  0.
    8880022    1    1    2    0    0  0.24612473998E+03 -0.39824162424E+02  0.18071356960E+03  0.34382030015E+03  0.15294330000E+03 0.  0.
<mgrwt>
<rscale>  0 0.29249787E+03</rscale>
<asrwt>0</asrwt>
<pdfrwt beam="1">  1        1 0.45274922E-01 0.29249787E+03</pdfrwt>
<pdfrwt beam="2">  1       -1 0.11531280E+00 0.29249787E+03</pdfrwt>
<totfact> 0.65696154E+01</totfact>
</mgrwt>
</event>
<event>
 4    1  0.1678003E-008  0.8425127E+03  0.7818608E-02  0.9500442E-01
         -1   -1    0    0    0  501 -0.00000000000E+00  0.00000000000E+00  0.12725458240E+04  0.12725458240E+04  0.50400000000E-02 0.  1.
          1   -1    0    0  501    0  0.00000000000E+00 -0.00000000000E+00 -0.15236469388E+04  0.15236469389E+04  0.50400000000E-02 0. -1.
    8880022    1    1    2    0    0 -0.72164275501E+03  0.40702291930E+03 -0.12386880891E+04  0.14980573279E+04  0.15294330000E+03 0.  0.
    8880022    1    1    2    0    0  0.72164275501E+03 -0.40702291930E+03  0.98758697424E+03  0.12981354349E+04  0.15294330000E+03 0.  0.
<mgrwt>
<rscale>  0 0.84251266E+03</rscale>
<asrwt>0</asrwt>
<pdfrwt beam="1">  1        1 0.23440722E+00 0.84251266E+03</pdfrwt>
<pdfrwt beam="2">  1       -1 0.19577628E+00 0.84251266E+03</pdfrwt>
<totfact> 0.10485743E+00</totfact>
</mgrwt>
</event>
<event>
 4    1  0.1678003E-008  0.3259474E+03  0.7818608E-02  0.1072944E+00
          1   -1    0    0  501    0  0.00000000000E+00  0.00000000000E+00  0.14987773897E+04  0.14987773897E+04  0.50400000000E-02 0. -1.
         -1   -1    0    0    0  501 -0.00000000000E+00 -0.00000000000E+00 -0.38419341852E+03  0.38419341856E+03  0.50400000000E-02 0.  1.
    8880022    1    1    2    0    0  0.79017860253E+02  0.27677829736E+03  0.14074981763E+04  0.14447466274E+04  0.15294330000E+03 0. -1.
    8880022    1    1    2    0    0 -0.79017860253E+02 -0.27677829736E+03 -0.29291420511E+03  0.43822418087E+03  0.15294330000E+03 0.  0.
<mgrwt>
<rscale>  0 0.32594739E+03</rscale>
<asrwt>0</asrwt>
<pdfrwt beam="1">  1        1 0.23058114E+00 0.32594739E+03</pdfrwt>
<pdfrwt beam="2">  1       -1 0.59106680E-01 0.32594739E+03</pdfrwt>
<totfact> 0.21407386E+01</totfact>
</mgrwt>
</event>
<event>
 4    1  0.1812245E-008  0.6474528E+03  0.7818608E-02  0.9811571E-01
         -1   -1    0    0    0  501 -0.00000000000E+00  0.00000000000E+00  0.14119438369E+04  0.14119438369E+04  0.50400000000E-02 0.  1.
          1   -1    0    0  501    0  0.00000000000E+00 -0.00000000000E+00 -0.28090481277E+04  0.28090481277E+04  0.50400000000E-02 0. -1.
    8880022    1    1    2    0    0 -0.17387597459E+03  0.60462441594E+03  0.12972993830E+04  0.14498899548E+04  0.15294330000E+03 0.  0.
    8880022    1    1    2    0    0  0.17387597459E+03 -0.60462441594E+03 -0.26944036737E+04  0.27711020098E+04  0.15294330000E+03 0.  0.
<mgrwt>
<rscale>  0 0.64745285E+03</rscale>
<asrwt>0</asrwt>
<pdfrwt beam="1">  1        1 0.43216125E+00 0.64745285E+03</pdfrwt>
<pdfrwt beam="2">  1       -1 0.21722213E+00 0.64745285E+03</pdfrwt>
<totfact> 0.10614986E-01</totfact>
</mgrwt>
</event>
<event>
 4    1  0.1678003E-008  0.9306195E+03  0.7818608E-02  0.9388095E-01
          1   -1    0    0  501    0  0.00000000000E+00  0.00000000000E+00  0.14411585792E+04  0.14411585793E+04  0.50400000000E-02 0. -1.
         -1   -1    0    0    0  501 -0.00000000000E+00 -0.00000000000E+00 -0.80719517819E+03  0.80719517821E+03  0.50400000000E-02 0.  1.
    8880022    1    1    2    0    0 -0.18338869381E+03 -0.89946075173E+03  0.88523988646E+03  0.12844073990E+04  0.15294330000E+03 0.  0.
    8880022    1    1    2    0    0  0.18338869381E+03  0.89946075173E+03 -0.25127648541E+03  0.96394635850E+03  0.15294330000E+03 0.  0.
<mgrwt>
<rscale>  0 0.93061953E+03</rscale>
<asrwt>0</asrwt>
<pdfrwt beam="1">  1        1 0.22171670E+00 0.93061953E+03</pdfrwt>
<pdfrwt beam="2">  1       -1 0.12418387E+00 0.93061953E+03</pdfrwt>
<totfact> 0.41466186E+00</totfact>
</mgrwt>
</event>
<event>
 4    1  0.1678003E-008  0.5449861E+03  0.7818608E-02  0.1002661E+00
         -1   -1    0    0    0  501 -0.00000000000E+00  0.00000000000E+00  0.29728876036E+03  0.29728876040E+03  0.50400000000E-02 0.  1.
          1   -1    0    0  501    0  0.00000000000E+00 -0.00000000000E+00 -0.11277854437E+04  0.11277854437E+04  0.50400000000E-02 0. -1.
    8880022    1    1    2    0    0 -0.31299955515E+03 -0.41910555103E+03 -0.17452209714E+03  0.57224802300E+03  0.15294330000E+03 0.  0.
    8880022    1    1    2    0    0  0.31299955515E+03  0.41910555103E+03 -0.65597458616E+03  0.85282618108E+03  0.15294330000E+03 0.  0.
<mgrwt>
<rscale>  0 0.54498609E+03</rscale>
<asrwt>0</asrwt>
<pdfrwt beam="1">  1        1 0.17350545E+00 0.54498609E+03</pdfrwt>
<pdfrwt beam="2">  1       -1 0.45736733E-01 0.54498609E+03</pdfrwt>
<totfact> 0.60161532E+01</totfact>
</mgrwt>
</event>
<event>
 4    1  0.1678003E-008  0.1191279E+04  0.7818608E-02  0.9120524E-01
          1   -1    0    0  501    0  0.00000000000E+00  0.00000000000E+00  0.15354093576E+04  0.15354093576E+04  0.50400000000E-02 0. -1.
         -1   -1    0    0    0  501 -0.00000000000E+00 -0.00000000000E+00 -0.12804014659E+04  0.12804014659E+04  0.50400000000E-02 0.  1.
    8880022    1    1    2    0    0  0.90347940528E+03  0.76123554402E+03 -0.61500251180E+03  0.13406619006E+04  0.15294330000E+03 0.  0.
    8880022    1    1    2    0    0 -0.90347940528E+03 -0.76123554402E+03  0.87001040354E+03  0.14751489228E+04  0.15294330000E+03 0.  0.
<mgrwt>
<rscale>  0 0.11912792E+04</rscale>
<asrwt>0</asrwt>
<pdfrwt beam="1">  1        1 0.23621682E+00 0.11912792E+04</pdfrwt>
<pdfrwt beam="2">  1       -1 0.19698484E+00 0.11912792E+04</pdfrwt>
<totfact> 0.95776505E-01</totfact>
</mgrwt>
</event>
<event>
 4    1  0.1678003E-008  0.4499251E+03  0.7818608E-02  0.1027744E+00
          1   -1    0    0  501    0  0.00000000000E+00  0.00000000000E+00  0.47594116336E+03  0.47594116339E+03  0.50400000000E-02 0. -1.
         -1   -1    0    0    0  501 -0.00000000000E+00 -0.00000000000E+00 -0.95812317693E+03  0.95812317694E+03  0.50400000000E-02 0.  1.
    8880022    1    1    2    0    0  0.37887390156E+03 -0.18840260319E+03  0.29360483343E+03  0.53724894174E+03  0.15294330000E+03 0. -1.
    8880022    1    1    2    0    0 -0.37887390156E+03  0.18840260319E+03 -0.77578684699E+03  0.89681539859E+03  0.15294330000E+03 0.  0.
<mgrwt>
<rscale>  0 0.44992514E+03</rscale>
<asrwt>0</asrwt>
<pdfrwt beam="1">  1        1 0.73221717E-01 0.44992514E+03</pdfrwt>
<pdfrwt beam="2">  1       -1 0.14740357E+00 0.44992514E+03</pdfrwt>
<totfact> 0.18575566E+01</totfact>
</mgrwt>
</event>
<event>
 4    1  0.1678003E-008  0.2795549E+03  0.7818608E-02  0.1095932E+00
         -1   -1    0    0    0  501 -0.00000000000E+00  0.00000000000E+00  0.49902194660E+03  0.49902194663E+03  0.50400000000E-02 0.  1.
          1   -1    0    0  501    0  0.00000000000E+00 -0.00000000000E+00 -0.57205922753E+03  0.57205922756E+03  0.50400000000E-02 0. -1.
    8880022    1    1    2    0    0  0.23276752813E+03  0.24053509358E+02 -0.49290409327E+03  0.56666162006E+03  0.15294330000E+03 0.  0.
    8880022    1    1    2    0    0 -0.23276752813E+03 -0.24053509358E+02  0.41986681234E+03  0.50441955412E+03  0.15294330000E+03 0.  0.
<mgrwt>
<rscale>  0 0.27955491E+03</rscale>
<asrwt>0</asrwt>
<pdfrwt beam="1">  1        1 0.88009112E-01 0.27955491E+03</pdfrwt>
<pdfrwt beam="2">  1       -1 0.76772607E-01 0.27955491E+03</pdfrwt>
<totfact> 0.67594484E+01</totfact>
</mgrwt>
</event>
<event>
 4    1  0.1678003E-008  0.1614217E+03  0.7818608E-02  0.1187101E+00
          1   -1    0    0  501    0  0.00000000000E+00  0.00000000000E+00  0.20316097245E+03  0.20316097251E+03  0.50400000000E-02 0. -1.
         -1   -1    0    0    0  501 -0.00000000000E+00 -0.00000000000E+00 -0.43016326119E+03  0.43016326122E+03  0.50400000000E-02 0.  1.
    8880022    1    1    2    0    0 -0.25391591116E+02  0.44950905404E+02  0.15178524634E+03  0.22157556458E+03  0.15294330000E+03 0. -1.
    8880022    1    1    2    0    0  0.25391591116E+02 -0.44950905404E+02 -0.37878753509E+03  0.41174866915E+03  0.15294330000E+03 0.  0.
<mgrwt>
<rscale>  0 0.16142171E+03</rscale>
<asrwt>0</asrwt>
<pdfrwt beam="1">  1        1 0.31255534E-01 0.16142171E+03</pdfrwt>
<pdfrwt beam="2">  1       -1 0.66178963E-01 0.16142171E+03</pdfrwt>
<totfact> 0.34864438E+02</totfact>
</mgrwt>
</event>
<event>
 4    1  0.1678003E-008  0.2722056E+03  0.7818608E-02  0.1100024E+00
          1   -1    0    0  501    0  0.00000000000E+00  0.00000000000E+00  0.25509010218E+04  0.25509010218E+04  0.50400000000E-02 0. -1.
         -1   -1    0    0    0  501 -0.00000000000E+00 -0.00000000000E+00 -0.19759033180E+03  0.19759033186E+03  0.50400000000E-02 0.  1.
    8880022    1    1    2    0    0 -0.22385164004E+03 -0.24386091520E+02  0.24458767498E+04  0.24609772381E+04  0.15294330000E+03 0.  0.
    8880022    1    1    2    0    0  0.22385164004E+03  0.24386091520E+02 -0.92566059800E+02  0.28751411557E+03  0.15294330000E+03 0.  0.
<mgrwt>
<rscale>  0 0.27220560E+03</rscale>
<asrwt>0</asrwt>
<pdfrwt beam="1">  1        1 0.39244631E+00 0.27220560E+03</pdfrwt>
<pdfrwt beam="2">  1       -1 0.30398512E-01 0.27220560E+03</pdfrwt>
<totfact> 0.14807575E+01</totfact>
</mgrwt>
</event>
<event>
 4    1  0.1678003E-008  0.4551585E+03  0.7818608E-02  0.1026195E+00
         -1   -1    0    0    0  501 -0.00000000000E+00  0.00000000000E+00  0.23316850543E+04  0.23316850543E+04  0.50400000000E-02 0.  1.
          1   -1    0    0  501    0  0.00000000000E+00 -0.00000000000E+00 -0.13768655215E+03  0.13768655224E+03  0.50400000000E-02 0. -1.
    8880022    1    1    2    0    0  0.42053398842E+03  0.83239514871E+02  0.18323337278E+04  0.18880191194E+04  0.15294330000E+03 0.  0.
    8880022    1    1    2    0    0 -0.42053398842E+03 -0.83239514871E+02  0.36166477431E+03  0.58135248709E+03  0.15294330000E+03 0. -1.
<mgrwt>
<rscale>  0 0.45515855E+03</rscale>
<asrwt>0</asrwt>
<pdfrwt beam="1">  1        1 0.21182546E-01 0.45515855E+03</pdfrwt>
<pdfrwt beam="2">  1       -1 0.35872078E+00 0.45515855E+03</pdfrwt>
<totfact> 0.36860372E+00</totfact>
</mgrwt>
</event>
<event>
 4    1  0.1678003E-008  0.6894851E+03  0.7818608E-02  0.9735385E-01
          1   -1    0    0  501    0  0.00000000000E+00  0.00000000000E+00  0.59633232798E+03  0.59633232800E+03  0.50400000000E-02 0. -1.
         -1   -1    0    0    0  501 -0.00000000000E+00 -0.00000000000E+00 -0.86952286218E+03  0.86952286220E+03  0.50400000000E-02 0.  1.
    8880022    1    1    2    0    0  0.59779038517E+03 -0.30764383194E+03 -0.34798828026E+03  0.77232478152E+03  0.15294330000E+03 0.  0.
    8880022    1    1    2    0    0 -0.59779038517E+03  0.30764383194E+03  0.74797746060E+02  0.69353040868E+03  0.15294330000E+03 0.  1.
<mgrwt>
<rscale>  0 0.68948512E+03</rscale>
<asrwt>0</asrwt>
<pdfrwt beam="1">  1        1 0.91743436E-01 0.68948512E+03</pdfrwt>
<pdfrwt beam="2">  1       -1 0.13377275E+00 0.68948512E+03</pdfrwt>
<totfact> 0.16860566E+01</totfact>
</mgrwt>
</event>
<event>
 4    1  0.1678003E-008  0.2205351E+03  0.7818608E-02  0.1133485E+00
          1   -1    0    0  501    0  0.00000000000E+00  0.00000000000E+00  0.42042425183E+03  0.42042425186E+03  0.50400000000E-02 0. -1.
         -1   -1    0    0    0  501 -0.00000000000E+00 -0.00000000000E+00 -0.16889456976E+03  0.16889456984E+03  0.50400000000E-02 0.  1.
    8880022    1    1    2    0    0 -0.15876900390E+03  0.60415608624E+01 -0.39628240832E+02  0.22406728352E+03  0.15294330000E+03 0.  0.
    8880022    1    1    2    0    0  0.15876900390E+03 -0.60415608624E+01  0.29115792290E+03  0.36525153818E+03  0.15294330000E+03 0.  0.
<mgrwt>
<rscale>  0 0.22053514E+03</rscale>
<asrwt>0</asrwt>
<pdfrwt beam="1">  1        1 0.64680654E-01 0.22053514E+03</pdfrwt>
<pdfrwt beam="2">  1       -1 0.25983780E-01 0.22053514E+03</pdfrwt>
<totfact> 0.74359879E+02</totfact>
</mgrwt>
</event>
<event>
 4    1  0.1678003E-008  0.5872011E+03  0.7818608E-02  0.9932321E-01
         -1   -1    0    0    0  501 -0.00000000000E+00  0.00000000000E+00  0.48123187732E+03  0.48123187734E+03  0.50400000000E-02 0.  1.
          1   -1    0    0  501    0  0.00000000000E+00 -0.00000000000E+00 -0.14660653980E+04  0.14660653980E+04  0.50400000000E-02 0. -1.
    8880022    1    1    2    0    0  0.41904479653E+03  0.38185717998E+03 -0.11886085106E+04  0.13257432979E+04  0.15294330000E+03 0.  0.
    8880022    1    1    2    0    0 -0.41904479653E+03 -0.38185717998E+03  0.20377498990E+03  0.62155397749E+03  0.15294330000E+03 0.  0.
<mgrwt>
<rscale>  0 0.58720107E+03</rscale>
<asrwt>0</asrwt>
<pdfrwt beam="1">  1        1 0.22554852E+00 0.58720107E+03</pdfrwt>
<pdfrwt beam="2">  1       -1 0.74035675E-01 0.58720107E+03</pdfrwt>
<totfact> 0.13499994E+01</totfact>
</mgrwt>
</event>
<event>
 4    1  0.1678003E-008  0.2697254E+03  0.7818608E-02  0.1101437E+00
          1   -1    0    0  501    0  0.00000000000E+00  0.00000000000E+00  0.48054990951E+03  0.48054990954E+03  0.50400000000E-02 0. -1.
         -1   -1    0    0    0  501 -0.00000000000E+00 -0.00000000000E+00 -0.26468597774E+03  0.26468597779E+03  0.50400000000E-02 0.  1.
    8880022    1    1    2    0    0 -0.20908091421E+03 -0.75135449407E+02 -0.13584916798E+03  0.30200465874E+03  0.15294330000E+03 0.  1.
    8880022    1    1    2    0    0  0.20908091421E+03  0.75135449407E+02  0.35171309975E+03  0.44323122859E+03  0.15294330000E+03 0.  0.
<mgrwt>
<rscale>  0 0.26972545E+03</rscale>
<asrwt>0</asrwt>
<pdfrwt beam="1">  1        1 0.73930756E-01 0.26972545E+03</pdfrwt>
<pdfrwt beam="2">  1       -1 0.40720919E-01 0.26972545E+03</pdfrwt>
<totfact> 0.28708551E+02</totfact>
</mgrwt>
</event>
<event>
 4    1  0.1678003E-008  0.8770943E+03  0.7818608E-02  0.9454676E-01
         -1   -1    0    0    0  501 -0.00000000000E+00  0.00000000000E+00  0.59905561885E+03  0.59905561887E+03  0.50400000000E-02 0.  1.
          1   -1    0    0  501    0  0.00000000000E+00 -0.00000000000E+00 -0.18778951149E+04  0.18778951150E+04  0.50400000000E-02 0. -1.
    8880022    1    1    2    0    0 -0.77912905712E+03  0.37264023048E+03 -0.13357916273E+04  0.15980093096E+04  0.15294330000E+03 0.  0.
    8880022    1    1    2    0    0  0.77912905712E+03 -0.37264023048E+03  0.56952131166E+02  0.87894142426E+03  0.15294330000E+03 0.  0.
<mgrwt>
<rscale>  0 0.87709434E+03</rscale>
<asrwt>0</asrwt>
<pdfrwt beam="1">  1        1 0.28890694E+00 0.87709434E+03</pdfrwt>
<pdfrwt beam="2">  1       -1 0.92162404E-01 0.87709434E+03</pdfrwt>
<totfact> 0.42449161E+00</totfact>
</mgrwt>
</event>
<event>
 4    1  0.1678003E-008  0.6580991E+03  0.7818608E-02  0.9791699E-01
         -1   -1    0    0    0  501 -0.00000000000E+00  0.00000000000E+00  0.29756151166E+03  0.29756151170E+03  0.50400000000E-02 0.  1.
          1   -1    0    0  501    0  0.00000000000E+00 -0.00000000000E+00 -0.15968693740E+04  0.15968693740E+04  0.50400000000E-02 0. -1.
    8880022    1    1    2    0    0 -0.75941830248E+02  0.63555933223E+03 -0.93150797138E+03  0.11405268871E+04  0.15294330000E+03 0.  0.
    8880022    1    1    2    0    0  0.75941830248E+02 -0.63555933223E+03 -0.36779989095E+03  0.75390399864E+03  0.15294330000E+03 0.  0.
<mgrwt>
<rscale>  0 0.65809914E+03</rscale>
<asrwt>0</asrwt>
<pdfrwt beam="1">  1        1 0.24567221E+00 0.65809914E+03</pdfrwt>
<pdfrwt beam="2">  1       -1 0.45778695E-01 0.65809914E+03</pdfrwt>
<totfact> 0.27830556E+01</totfact>
</mgrwt>
</event>
<event>
 4    1  0.1678003E-008  0.7991019E+03  0.7818608E-02  0.9561318E-01
          1   -1    0    0  501    0  0.00000000000E+00  0.00000000000E+00  0.11138577906E+04  0.11138577906E+04  0.50400000000E-02 0. -1.
         -1   -1    0    0    0  501 -0.00000000000E+00 -0.00000000000E+00 -0.75522143100E+03  0.75522143102E+03  0.50400000000E-02 0.  1.
    8880022    1    1    2    0    0 -0.66491263412E+03 -0.41600885495E+03  0.63800272652E+03  0.10225513730E+04  0.15294330000E+03 0.  0.
    8880022    1    1    2    0    0  0.66491263412E+03  0.41600885495E+03 -0.27936636695E+03  0.84652784857E+03  0.15294330000E+03 0.  0.
<mgrwt>
<rscale>  0 0.79910189E+03</rscale>
<asrwt>0</asrwt>
<pdfrwt beam="1">  1        1 0.17136274E+00 0.79910189E+03</pdfrwt>
<pdfrwt beam="2">  1       -1 0.11618791E+00 0.79910189E+03</pdfrwt>
<totfact> 0.85158543E+00</totfact>
</mgrwt>
</event>
<event>
 4    1  0.1678003E-008  0.1585271E+03  0.7818608E-02  0.1190370E+00
         -1   -1    0    0    0  501 -0.00000000000E+00  0.00000000000E+00  0.75997804544E+02  0.75997804711E+02  0.50400000000E-02 0.  1.
          1   -1    0    0  501    0  0.00000000000E+00 -0.00000000000E+00 -0.15189963756E+04  0.15189963756E+04  0.50400000000E-02 0. -1.
    8880022    1    1    2    0    0 -0.40678041954E+02  0.91922182775E+01 -0.14268693464E+04  0.14356486285E+04  0.15294330000E+03 0.  0.
    8880022    1    1    2    0    0  0.40678041954E+02 -0.91922182775E+01 -0.16129224696E+02  0.15934555180E+03  0.15294330000E+03 0.  1.
<mgrwt>
<rscale>  0 0.15852714E+03</rscale>
<asrwt>0</asrwt>
<pdfrwt beam="1">  1        1 0.23369173E+00 0.15852714E+03</pdfrwt>
<pdfrwt beam="2">  1       -1 0.11691971E-01 0.15852714E+03</pdfrwt>
<totfact> 0.34057644E+02</totfact>
</mgrwt>
</event>
<event>
 4    1  0.1678003E-008  0.1611303E+03  0.7818608E-02  0.1187427E+00
         -1   -1    0    0    0  501 -0.00000000000E+00  0.00000000000E+00  0.14877609014E+03  0.14877609022E+03  0.50400000000E-02 0.  1.
          1   -1    0    0  501    0  0.00000000000E+00 -0.00000000000E+00 -0.28074444212E+03  0.28074444216E+03  0.50400000000E-02 0. -1.
    8880022    1    1    2    0    0  0.41812863429E+01  0.50535416022E+02  0.66124198351E+02  0.17417053152E+03  0.15294330000E+03 0.  0.
    8880022    1    1    2    0    0 -0.41812863429E+01 -0.50535416022E+02 -0.19809255034E+03  0.25535000086E+03  0.15294330000E+03 0. -1.
<mgrwt>
<rscale>  0 0.16113027E+03</rscale>
<asrwt>0</asrwt>
<pdfrwt beam="1">  1        1 0.43191453E-01 0.16113027E+03</pdfrwt>
<pdfrwt beam="2">  1       -1 0.22888629E-01 0.16113027E+03</pdfrwt>
<totfact> 0.15199695E+03</totfact>
</mgrwt>
</event>
<event>
 4    1  0.1678003E-008  0.1251872E+04  0.7818608E-02  0.9068626E-01
          1   -1    0    0  501    0  0.00000000000E+00  0.00000000000E+00  0.20226440392E+04  0.20226440392E+04  0.50400000000E-02 0. -1.
         -1   -1    0    0    0  501 -0.00000000000E+00 -0.00000000000E+00 -0.90127348715E+03  0.90127348717E+03  0.50400000000E-02 0.  1.
    8880022    1    1    2    0    0  0.11347077844E+03 -0.12373022679E+04  0.13073247864E+02  0.12519405268E+04  0.15294330000E+03 0.  0.
    8880022    1    1    2    0    0 -0.11347077844E+03  0.12373022679E+04  0.11082973041E+04  0.16719769996E+04  0.15294330000E+03 0.  0.
<mgrwt>
<rscale>  0 0.12518723E+04</rscale>
<asrwt>0</asrwt>
<pdfrwt beam="1">  1        1 0.31117601E+00 0.12518723E+04</pdfrwt>
<pdfrwt beam="2">  1       -1 0.13865746E+00 0.12518723E+04</pdfrwt>
<totfact> 0.12082850E+00</totfact>
</mgrwt>
</event>
<event>
 4    1  0.1678003E-008  0.1299974E+04  0.7818608E-02  0.9029586E-01
          1   -1    0    0  501    0  0.00000000000E+00  0.00000000000E+00  0.19816209063E+04  0.19816209063E+04  0.50400000000E-02 0. -1.
         -1   -1    0    0    0  501 -0.00000000000E+00 -0.00000000000E+00 -0.15664804876E+04  0.15664804876E+04  0.50400000000E-02 0.  1.
    8880022    1    1    2    0    0  0.11158952774E+04  0.64908976468E+03  0.14050126716E+04  0.19141557024E+04  0.15294330000E+03 0.  0.
    8880022    1    1    2    0    0 -0.11158952774E+04 -0.64908976468E+03 -0.98987225293E+03  0.16339456915E+04  0.15294330000E+03 0.  0.
<mgrwt>
<rscale>  0 0.12999736E+04</rscale>
<asrwt>0</asrwt>
<pdfrwt beam="1">  1        1 0.30486475E+00 0.12999736E+04</pdfrwt>
<pdfrwt beam="2">  1       -1 0.24099700E+00 0.12999736E+04</pdfrwt>
<totfact> 0.23713536E-01</totfact>
</mgrwt>
</event>
<event>
 4    1  0.1678003E-008  0.5459877E+03  0.7818608E-02  0.1002427E+00
         -1   -1    0    0    0  501 -0.00000000000E+00  0.00000000000E+00  0.16426337828E+04  0.16426337828E+04  0.50400000000E-02 0.  1.
          1   -1    0    0  501    0  0.00000000000E+00 -0.00000000000E+00 -0.48434188669E+03  0.48434188672E+03  0.50400000000E-02 0. -1.
    8880022    1    1    2    0    0 -0.32779331592E+03 -0.40897736946E+03 -0.26182297890E+03  0.60551950587E+03  0.15294330000E+03 0.  0.
    8880022    1    1    2    0    0  0.32779331592E+03  0.40897736946E+03  0.14201148750E+04  0.15214561636E+04  0.15294330000E+03 0.  0.
<mgrwt>
<rscale>  0 0.54598773E+03</rscale>
<asrwt>0</asrwt>
<pdfrwt beam="1">  1        1 0.74514137E-01 0.54598773E+03</pdfrwt>
<pdfrwt beam="2">  1       -1 0.25271289E+00 0.54598773E+03</pdfrwt>
<totfact> 0.33554082E+00</totfact>
</mgrwt>
</event>
<event>
 4    1  0.1678003E-008  0.6232560E+03  0.7818608E-02  0.9858298E-01
         -1   -1    0    0    0  501 -0.00000000000E+00  0.00000000000E+00  0.19923485138E+03  0.19923485145E+03  0.50400000000E-02 0.  1.
          1   -1    0    0  501    0  0.00000000000E+00 -0.00000000000E+00 -0.23872055226E+04  0.23872055226E+04  0.50400000000E-02 0. -1.
    8880022    1    1    2    0    0  0.28896093505E+03 -0.53062034471E+03 -0.54035516445E+03  0.82488285772E+03  0.15294330000E+03 0.  0.
    8880022    1    1    2    0    0 -0.28896093505E+03  0.53062034471E+03 -0.16476155068E+04  0.17615575164E+04  0.15294330000E+03 0.  0.
<mgrwt>
<rscale>  0 0.62325599E+03</rscale>
<asrwt>0</asrwt>
<pdfrwt beam="1">  1        1 0.36726237E+00 0.62325599E+03</pdfrwt>
<pdfrwt beam="2">  1       -1 0.30651517E-01 0.62325599E+03</pdfrwt>
<totfact> 0.17037830E+01</totfact>
</mgrwt>
</event>
<event>
 4    1  0.1678003E-008  0.6578372E+03  0.7818608E-02  0.9792183E-01
          1   -1    0    0  501    0  0.00000000000E+00  0.00000000000E+00  0.12637988174E+04  0.12637988174E+04  0.50400000000E-02 0. -1.
         -1   -1    0    0    0  501 -0.00000000000E+00 -0.00000000000E+00 -0.63925212598E+03  0.63925212600E+03  0.50400000000E-02 0.  1.
    8880022    1    1    2    0    0 -0.52269177432E+03  0.36898711437E+03 -0.33612197193E+03  0.73873392675E+03  0.15294330000E+03 0.  0.
    8880022    1    1    2    0    0  0.52269177432E+03 -0.36898711437E+03  0.96066866333E+03  0.11643170166E+04  0.15294330000E+03 0.  0.
<mgrwt>
<rscale>  0 0.65783724E+03</rscale>
<asrwt>0</asrwt>
<pdfrwt beam="1">  1        1 0.19443059E+00 0.65783724E+03</pdfrwt>
<pdfrwt beam="2">  1       -1 0.98346481E-01 0.65783724E+03</pdfrwt>
<totfact> 0.99875723E+00</totfact>
</mgrwt>
</event>
<event>
 4    1  0.1678003E-008  0.5021956E+03  0.7818608E-02  0.1013207E+00
         -1   -1    0    0    0  501 -0.00000000000E+00  0.00000000000E+00  0.12836708829E+04  0.12836708830E+04  0.50400000000E-02 0.  1.
          1   -1    0    0  501    0  0.00000000000E+00 -0.00000000000E+00 -0.32065933924E+03  0.32065933928E+03  0.50400000000E-02 0. -1.
    8880022    1    1    2    0    0  0.38782191442E+02  0.47676488361E+03 -0.17708721458E+02  0.50250777551E+03  0.15294330000E+03 0.  0.
    8880022    1    1    2    0    0 -0.38782191442E+02 -0.47676488361E+03  0.98072026516E+03  0.11018224467E+04  0.15294330000E+03 0.  0.
<mgrwt>
<rscale>  0 0.50219564E+03</rscale>
<asrwt>0</asrwt>
<pdfrwt beam="1">  1        1 0.49332206E-01 0.50219564E+03</pdfrwt>
<pdfrwt beam="2">  1       -1 0.19748783E+00 0.50219564E+03</pdfrwt>
<totfact> 0.13410852E+01</totfact>
</mgrwt>
</event>
<event>
 4    1  0.1678003E-008  0.2416917E+03  0.7818608E-02  0.1118671E+00
          1   -1    0    0  501    0  0.00000000000E+00  0.00000000000E+00  0.42087839368E+03  0.42087839371E+03  0.50400000000E-02 0. -1.
         -1   -1    0    0    0  501 -0.00000000000E+00 -0.00000000000E+00 -0.18847435386E+03  0.18847435392E+03  0.50400000000E-02 0.  1.
    8880022    1    1    2    0    0 -0.18700878437E+03 -0.71374156450E+01  0.27262852107E+03  0.36433664604E+03  0.15294330000E+03 0.  0.
    8880022    1    1    2    0    0  0.18700878437E+03  0.71374156450E+01 -0.40224481247E+02  0.24501610159E+03  0.15294330000E+03 0.  0.
<mgrwt>
<rscale>  0 0.24169171E+03</rscale>
<asrwt>0</asrwt>
<pdfrwt beam="1">  1        1 0.64750521E-01 0.24169171E+03</pdfrwt>
<pdfrwt beam="2">  1       -1 0.28996055E-01 0.24169171E+03</pdfrwt>
<totfact> 0.61726196E+02</totfact>
</mgrwt>
</event>
<event>
 4    1  0.1678003E-008  0.7032397E+03  0.7818608E-02  0.9711708E-01
         -1   -1    0    0    0  501 -0.00000000000E+00  0.00000000000E+00  0.38571490137E+03  0.38571490140E+03  0.50400000000E-02 0.  1.
          1   -1    0    0  501    0  0.00000000000E+00 -0.00000000000E+00 -0.12821571795E+04  0.12821571795E+04  0.50400000000E-02 0. -1.
    8880022    1    1    2    0    0  0.64058463758E+03  0.24658831104E+03 -0.44703291700E+03  0.83329739886E+03  0.15294330000E+03 0.  1.
    8880022    1    1    2    0    0 -0.64058463758E+03 -0.24658831104E+03 -0.44940936116E+03  0.83457468208E+03  0.15294330000E+03 0. -1.
<mgrwt>
<rscale>  0 0.70323974E+03</rscale>
<asrwt>0</asrwt>
<pdfrwt beam="1">  1        1 0.19725495E+00 0.70323974E+03</pdfrwt>
<pdfrwt beam="2">  1       -1 0.59340755E-01 0.70323974E+03</pdfrwt>
<totfact> 0.27787781E+01</totfact>
</mgrwt>
</event>
<event>
 4    1  0.1678003E-008  0.1868272E+03  0.7818608E-02  0.1161355E+00
          1   -1    0    0  501    0  0.00000000000E+00  0.00000000000E+00  0.37898548090E+03  0.37898548093E+03  0.50400000000E-02 0. -1.
         -1   -1    0    0    0  501 -0.00000000000E+00 -0.00000000000E+00 -0.10547951516E+03  0.10547951528E+03  0.50400000000E-02 0.  1.
    8880022    1    1    2    0    0 -0.10556451995E+03  0.19205869215E+02  0.50479745943E+02  0.19352671922E+03  0.15294330000E+03 0.  0.
    8880022    1    1    2    0    0  0.10556451995E+03 -0.19205869215E+02  0.22302621980E+03  0.29093827699E+03  0.15294330000E+03 0.  0.
<mgrwt>
<rscale>  0 0.18682716E+03</rscale>
<asrwt>0</asrwt>
<pdfrwt beam="1">  1        1 0.58305457E-01 0.18682716E+03</pdfrwt>
<pdfrwt beam="2">  1       -1 0.16227618E-01 0.18682716E+03</pdfrwt>
<totfact> 0.18224337E+03</totfact>
</mgrwt>
</event>
<event>
 4    1  0.1678003E-008  0.5618588E+03  0.7818608E-02  0.9987858E-01
         -1   -1    0    0    0  501 -0.00000000000E+00  0.00000000000E+00  0.26659776998E+03  0.26659777003E+03  0.50400000000E-02 0.  1.
          1   -1    0    0  501    0  0.00000000000E+00 -0.00000000000E+00 -0.19177666962E+04  0.19177666962E+04  0.50400000000E-02 0. -1.
    8880022    1    1    2    0    0 -0.49729394212E+03 -0.21211408727E+03 -0.15011056593E+04  0.16028111256E+04  0.15294330000E+03 0.  0.
    8880022    1    1    2    0    0  0.49729394212E+03  0.21211408727E+03 -0.15006326685E+03  0.58155334060E+03  0.15294330000E+03 0.  1.
<mgrwt>
<rscale>  0 0.56185879E+03</rscale>
<asrwt>0</asrwt>
<pdfrwt beam="1">  1        1 0.29504102E+00 0.56185879E+03</pdfrwt>
<pdfrwt beam="2">  1       -1 0.41015043E-01 0.56185879E+03</pdfrwt>
<totfact> 0.21120360E+01</totfact>
</mgrwt>
</event>
<event>
 4    1  0.1678003E-008  0.5591043E+03  0.7818608E-02  0.9994083E-01
          1   -1    0    0  501    0  0.00000000000E+00  0.00000000000E+00  0.11249962382E+04  0.11249962383E+04  0.50400000000E-02 0. -1.
         -1   -1    0    0    0  501 -0.00000000000E+00 -0.00000000000E+00 -0.32844466280E+03  0.32844466283E+03  0.50400000000E-02 0.  1.
    8880022    1    1    2    0    0  0.24006627718E+03 -0.48122147735E+03  0.11309364326E+03  0.57042769293E+03  0.15294330000E+03 0.  0.
    8880022    1    1    2    0    0 -0.24006627718E+03  0.48122147735E+03  0.68345793218E+03  0.88301320816E+03  0.15294330000E+03 0.  0.
<mgrwt>
<rscale>  0 0.55910427E+03</rscale>
<asrwt>0</asrwt>
<pdfrwt beam="1">  1        1 0.17307634E+00 0.55910427E+03</pdfrwt>
<pdfrwt beam="2">  1       -1 0.50529948E-01 0.55910427E+03</pdfrwt>
<totfact> 0.50076421E+01</totfact>
</mgrwt>
</event>
<event>
 4    1  0.1678003E-008  0.5719202E+03  0.7818608E-02  0.9965438E-01
          1   -1    0    0  501    0  0.00000000000E+00  0.00000000000E+00  0.31720088321E+04  0.31720088321E+04  0.50400000000E-02 0. -1.
         -1   -1    0    0    0  501 -0.00000000000E+00 -0.00000000000E+00 -0.21590152610E+03  0.21590152616E+03  0.50400000000E-02 0.  1.
    8880022    1    1    2    0    0  0.79221148715E+02 -0.54536691015E+03  0.27023765755E+04  0.27622331302E+04  0.15294330000E+03 0. -1.
    8880022    1    1    2    0    0 -0.79221148715E+02  0.54536691015E+03  0.25373073058E+03  0.62567722808E+03  0.15294330000E+03 0.  0.
<mgrwt>
<rscale>  0 0.57192020E+03</rscale>
<asrwt>0</asrwt>
<pdfrwt beam="1">  1        1 0.48800132E+00 0.57192020E+03</pdfrwt>
<pdfrwt beam="2">  1       -1 0.33215622E-01 0.57192020E+03</pdfrwt>
<totfact> 0.42407559E+00</totfact>
</mgrwt>
</event>
<event>
 4    1  0.1678003E-008  0.5697985E+03  0.7818608E-02  0.9970125E-01
          1   -1    0    0  501    0  0.00000000000E+00  0.00000000000E+00  0.12465121579E+04  0.12465121579E+04  0.50400000000E-02 0. -1.
         -1   -1    0    0    0  501 -0.00000000000E+00 -0.00000000000E+00 -0.74094556380E+03  0.74094556381E+03  0.50400000000E-02 0.  1.
    8880022    1    1    2    0    0 -0.33224188001E+03 -0.43691419719E+03  0.10530109482E+04  0.11972896026E+04  0.15294330000E+03 0. -1.
    8880022    1    1    2    0    0  0.33224188001E+03  0.43691419719E+03 -0.54744435411E+03  0.79016811907E+03  0.15294330000E+03 0.  0.
<mgrwt>
<rscale>  0 0.56979850E+03</rscale>
<asrwt>0</asrwt>
<pdfrwt beam="1">  1        1 0.19177110E+00 0.56979850E+03</pdfrwt>
<pdfrwt beam="2">  1       -1 0.11399163E+00 0.56979850E+03</pdfrwt>
<totfact> 0.74152989E+00</totfact>
</mgrwt>
</event>
<event>
 4    1  0.1678003E-008  0.2793477E+03  0.7818608E-02  0.1096046E+00
          1   -1    0    0  501    0  0.00000000000E+00  0.00000000000E+00  0.59911048276E+03  0.59911048278E+03  0.50400000000E-02 0. -1.
         -1   -1    0    0    0  501 -0.00000000000E+00 -0.00000000000E+00 -0.21547572510E+03  0.21547572515E+03  0.50400000000E-02 0.  1.
    8880022    1    1    2    0    0 -0.19888842100E+03 -0.12282859221E+03  0.44796425717E+03  0.52792716902E+03  0.15294330000E+03 0.  0.
    8880022    1    1    2    0    0  0.19888842100E+03  0.12282859221E+03 -0.64329499506E+02  0.28665903892E+03  0.15294330000E+03 0.  0.
<mgrwt>
<rscale>  0 0.27934767E+03</rscale>
<asrwt>0</asrwt>
<pdfrwt beam="1">  1        1 0.92170844E-01 0.27934767E+03</pdfrwt>
<pdfrwt beam="2">  1       -1 0.33150111E-01 0.27934767E+03</pdfrwt>
<totfact> 0.30528633E+02</totfact>
</mgrwt>
</event>
<event>
 4    1  0.1678003E-008  0.2763840E+03  0.7818608E-02  0.1097680E+00
          1   -1    0    0  501    0  0.00000000000E+00  0.00000000000E+00  0.31120082911E+03  0.31120082915E+03  0.50400000000E-02 0. -1.
         -1   -1    0    0    0  501 -0.00000000000E+00 -0.00000000000E+00 -0.31017201671E+03  0.31017201675E+03  0.50400000000E-02 0.  1.
    8880022    1    1    2    0    0 -0.19887961623E+03  0.11594540746E+03 -0.14139314019E+03  0.31045146540E+03  0.15294330000E+03 0.  0.
    8880022    1    1    2    0    0  0.19887961623E+03 -0.11594540746E+03  0.14242195258E+03  0.31092138050E+03  0.15294330000E+03 0.  0.
<mgrwt>
<rscale>  0 0.27638396E+03</rscale>
<asrwt>0</asrwt>
<pdfrwt beam="1">  1        1 0.47877051E-01 0.27638396E+03</pdfrwt>
<pdfrwt beam="2">  1       -1 0.47718772E-01 0.27638396E+03</pdfrwt>
<totfact> 0.37680482E+02</totfact>
</mgrwt>
</event>
<event>
 4    1  0.1837598E-008  0.5576818E+03  0.7818608E-02  0.9997314E-01
         -1   -1    0    0    0  501 -0.00000000000E+00  0.00000000000E+00  0.14886310943E+04  0.14886310943E+04  0.50400000000E-02 0.  1.
          1   -1    0    0  501    0  0.00000000000E+00 -0.00000000000E+00 -0.13123019645E+04  0.13123019645E+04  0.50400000000E-02 0. -1.
    8880022    1    1    2    0    0  0.28522739463E+03  0.45416152743E+03  0.13723218767E+04  0.14813089974E+04  0.15294330000E+03 0.  0.
    8880022    1    1    2    0    0 -0.28522739463E+03 -0.45416152743E+03 -0.11959927469E+04  0.13196240613E+04  0.15294330000E+03 0.  0.
<mgrwt>
<rscale>  0 0.55768182E+03</rscale>
<asrwt>0</asrwt>
<pdfrwt beam="1">  1        1 0.20189261E+00 0.55768182E+03</pdfrwt>
<pdfrwt beam="2">  1       -1 0.22902017E+00 0.55768182E+03</pdfrwt>
<totfact> 0.93759770E-01</totfact>
</mgrwt>
</event>
<event>
 4    1  0.1678003E-008  0.9899927E+03  0.7818608E-02  0.9319589E-01
          1   -1    0    0  501    0  0.00000000000E+00  0.00000000000E+00  0.15962145840E+04  0.15962145840E+04  0.50400000000E-02 0. -1.
         -1   -1    0    0    0  501 -0.00000000000E+00 -0.00000000000E+00 -0.10026903146E+04  0.10026903146E+04  0.50400000000E-02 0.  1.
    8880022    1    1    2    0    0  0.69407617948E+03  0.68916772908E+03 -0.51228795717E+03  0.11146858328E+04  0.15294330000E+03 0.  0.
    8880022    1    1    2    0    0 -0.69407617948E+03 -0.68916772908E+03  0.11058122266E+04  0.14842190658E+04  0.15294330000E+03 0.  0.
<mgrwt>
<rscale>  0 0.98999270E+03</rscale>
<asrwt>0</asrwt>
<pdfrwt beam="1">  1        1 0.24557147E+00 0.98999270E+03</pdfrwt>
<pdfrwt beam="2">  1       -1 0.15426005E+00 0.98999270E+03</pdfrwt>
<totfact> 0.18294871E+00</totfact>
</mgrwt>
</event>
<event>
 4    1  0.1678003E-008  0.6026455E+03  0.7818608E-02  0.9899933E-01
          1   -1    0    0  501    0  0.00000000000E+00  0.00000000000E+00  0.20614562717E+04  0.20614562717E+04  0.50400000000E-02 0. -1.
         -1   -1    0    0    0  501 -0.00000000000E+00 -0.00000000000E+00 -0.43651998072E+03  0.43651998075E+03  0.50400000000E-02 0.  1.
    8880022    1    1    2    0    0 -0.10133659654E+03 -0.57403905631E+03  0.17770276268E+04  0.18764351264E+04  0.15294330000E+03 0.  0.
    8880022    1    1    2    0    0  0.10133659654E+03  0.57403905631E+03 -0.15209133584E+03  0.62154112609E+03  0.15294330000E+03 0.  0.
<mgrwt>
<rscale>  0 0.60264550E+03</rscale>
<asrwt>0</asrwt>
<pdfrwt beam="1">  1        1 0.31714712E+00 0.60264550E+03</pdfrwt>
<pdfrwt beam="2">  1       -1 0.67156919E-01 0.60264550E+03</pdfrwt>
<totfact> 0.65621847E+00</totfact>
</mgrwt>
</event>
<event>
 4    1  0.1678003E-008  0.5962875E+03  0.7818608E-02  0.9913138E-01
         -1   -1    0    0    0  501 -0.00000000000E+00  0.00000000000E+00  0.16176651711E+03  0.16176651718E+03  0.50400000000E-02 0.  1.
          1   -1    0    0  501    0  0.00000000000E+00 -0.00000000000E+00 -0.22644550752E+04  0.22644550752E+04  0.50400000000E-02 0. -1.
    8880022    1    1    2    0    0  0.40993104991E+02 -0.57487976724E+03 -0.84348813244E+03  0.10329719570E+04  0.15294330000E+03 0.  0.
    8880022    1    1    2    0    0 -0.40993104991E+02  0.57487976724E+03 -0.12592004256E+04  0.13932496353E+04  0.15294330000E+03 0.  0.
<mgrwt>
<rscale>  0 0.59628754E+03</rscale>
<asrwt>0</asrwt>
<pdfrwt beam="1">  1        1 0.34837768E+00 0.59628754E+03</pdfrwt>
<pdfrwt beam="2">  1       -1 0.24887158E-01 0.59628754E+03</pdfrwt>
<totfact> 0.29611001E+01</totfact>
</mgrwt>
</event>
<event>
 4    1  0.1678003E-008  0.4536928E+03  0.7818608E-02  0.1026626E+00
          1   -1    0    0  501    0  0.00000000000E+00  0.00000000000E+00  0.14325927010E+04  0.14325927010E+04  0.50400000000E-02 0. -1.
         -1   -1    0    0    0  501 -0.00000000000E+00 -0.00000000000E+00 -0.56864882206E+03  0.56864882208E+03  0.50400000000E-02 0.  1.
    8880022    1    1    2    0    0 -0.42411379743E+03  0.50724864315E+02 -0.43304610422E+03  0.62718905158E+03  0.15294330000E+03 0.  0.
    8880022    1    1    2    0    0  0.42411379743E+03 -0.50724864315E+02  0.12969899831E+04  0.13740524715E+04  0.15294330000E+03 0.  0.
<mgrwt>
<rscale>  0 0.45369282E+03</rscale>
<asrwt>0</asrwt>
<pdfrwt beam="1">  1        1 0.22039888E+00 0.45369282E+03</pdfrwt>
<pdfrwt beam="2">  1       -1 0.87484434E-01 0.45369282E+03</pdfrwt>
<totfact> 0.10292796E+01</totfact>
</mgrwt>
</event>
<event>
 4    1  0.1678003E-008  0.8703000E+03  0.7818608E-02  0.9463489E-01
         -1   -1    0    0    0  501 -0.00000000000E+00  0.00000000000E+00  0.13354184914E+04  0.13354184914E+04  0.50400000000E-02 0.  1.
          1   -1    0    0  501    0  0.00000000000E+00 -0.00000000000E+00 -0.93601192395E+03  0.93601192396E+03  0.50400000000E-02 0. -1.
    8880022    1    1    2    0    0 -0.56348570336E+03 -0.64537912387E+03  0.91262737636E+03  0.12610752287E+04  0.15294330000E+03 0.  0.
    8880022    1    1    2    0    0  0.56348570336E+03  0.64537912387E+03 -0.51322080892E+03  0.10103551866E+04  0.15294330000E+03 0.  0.
<mgrwt>
<rscale>  0 0.87029995E+03</rscale>
<asrwt>0</asrwt>
<pdfrwt beam="1">  1        1 0.14400183E+00 0.87029995E+03</pdfrwt>
<pdfrwt beam="2">  1       -1 0.20544900E+00 0.87029995E+03</pdfrwt>
<totfact> 0.24011789E+00</totfact>
</mgrwt>
</event>
<event>
 4    1  0.1678003E-008  0.3622929E+03  0.7818608E-02  0.1057680E+00
          1   -1    0    0  501    0  0.00000000000E+00  0.00000000000E+00  0.70700262561E+03  0.70700262562E+03  0.50400000000E-02 0. -1.
         -1   -1    0    0    0  501 -0.00000000000E+00 -0.00000000000E+00 -0.44287616623E+03  0.44287616626E+03  0.50400000000E-02 0.  1.
    8880022    1    1    2    0    0  0.11074116381E+03  0.30919392655E+03 -0.30610124868E+03  0.47429328167E+03  0.15294330000E+03 0.  0.
    8880022    1    1    2    0    0 -0.11074116381E+03 -0.30919392655E+03  0.57022770805E+03  0.67558551022E+03  0.15294330000E+03 0.  0.
<mgrwt>
<rscale>  0 0.36229290E+03</rscale>
<asrwt>0</asrwt>
<pdfrwt beam="1">  1        1 0.10876963E+00 0.36229290E+03</pdfrwt>
<pdfrwt beam="2">  1       -1 0.68134796E-01 0.36229290E+03</pdfrwt>
<totfact> 0.62630653E+01</totfact>
</mgrwt>
</event>
<event>
 4    1  0.1678003E-008  0.2966805E+03  0.7818608E-02  0.1086912E+00
         -1   -1    0    0    0  501 -0.00000000000E+00  0.00000000000E+00  0.23757536766E+03  0.23757536772E+03  0.50400000000E-02 0.  1.
          1   -1    0    0  501    0  0.00000000000E+00 -0.00000000000E+00 -0.44138517652E+03  0.44138517655E+03  0.50400000000E-02 0. -1.
    8880022    1    1    2    0    0 -0.13237617784E+03 -0.21703511048E+03  0.34149752715E+02  0.29863949883E+03  0.15294330000E+03 0.  0.
    8880022    1    1    2    0    0  0.13237617784E+03  0.21703511048E+03 -0.23795956157E+03  0.38032104543E+03  0.15294330000E+03 0.  0.
<mgrwt>
<rscale>  0 0.29668054E+03</rscale>
<asrwt>0</asrwt>
<pdfrwt beam="1">  1        1 0.67905412E-01 0.29668054E+03</pdfrwt>
<pdfrwt beam="2">  1       -1 0.36550057E-01 0.29668054E+03</pdfrwt>
<totfact> 0.38808060E+02</totfact>
</mgrwt>
</event>
<event>
 4    1  0.1678003E-008  0.5358745E+03  0.7818608E-02  0.1004817E+00
          1   -1    0    0  501    0  0.00000000000E+00  0.00000000000E+00  0.99392133317E+03  0.99392133318E+03  0.50400000000E-02 0. -1.
         -1   -1    0    0    0  501 -0.00000000000E+00 -0.00000000000E+00 -0.63898215416E+03  0.63898215418E+03  0.50400000000E-02 0.  1.
    8880022    1    1    2    0    0 -0.40183593830E+03  0.31984008828E+03 -0.42684095084E+03  0.68509463121E+03  0.15294330000E+03 0.  0.
    8880022    1    1    2    0    0  0.40183593830E+03 -0.31984008828E+03  0.78178012985E+03  0.94780885616E+03  0.15294330000E+03 0.  0.
<mgrwt>
<rscale>  0 0.53587448E+03</rscale>
<asrwt>0</asrwt>
<pdfrwt beam="1">  1        1 0.15291097E+00 0.53587448E+03</pdfrwt>
<pdfrwt beam="2">  1       -1 0.98304947E-01 0.53587448E+03</pdfrwt>
<totfact> 0.16131696E+01</totfact>
</mgrwt>
</event>
<event>
 4    1  0.1678003E-008  0.8759069E+03  0.7818608E-02  0.9456210E-01
         -1   -1    0    0    0  501 -0.00000000000E+00  0.00000000000E+00  0.50016151179E+03  0.50016151181E+03  0.50400000000E-02 0.  1.
          1   -1    0    0  501    0  0.00000000000E+00 -0.00000000000E+00 -0.18906093521E+04  0.18906093521E+04  0.50400000000E-02 0. -1.
    8880022    1    1    2    0    0  0.47214186429E+03 -0.72173625662E+03 -0.12144373988E+04  0.14973546716E+04  0.15294330000E+03 0.  0.
    8880022    1    1    2    0    0 -0.47214186429E+03  0.72173625662E+03 -0.17601044158E+03  0.89341619232E+03  0.15294330000E+03 0.  0.
<mgrwt>
<rscale>  0 0.87590685E+03</rscale>
<asrwt>0</asrwt>
<pdfrwt beam="1">  1        1 0.29086297E+00 0.87590685E+03</pdfrwt>
<pdfrwt beam="2">  1       -1 0.76947926E-01 0.87590685E+03</pdfrwt>
<totfact> 0.61493640E+00</totfact>
</mgrwt>
</event>
<event>
 4    1  0.1678003E-008  0.7164525E+03  0.7818608E-02  0.9689503E-01
         -1   -1    0    0    0  501 -0.00000000000E+00  0.00000000000E+00  0.47880789086E+03  0.47880789089E+03  0.50400000000E-02 0.  1.
          1   -1    0    0  501    0  0.00000000000E+00 -0.00000000000E+00 -0.11621753010E+04  0.11621753010E+04  0.50400000000E-02 0. -1.
    8880022    1    1    2    0    0 -0.21627985507E+03 -0.66568429144E+03 -0.57017555396E+03  0.91564423600E+03  0.15294330000E+03 0.  0.
    8880022    1    1    2    0    0  0.21627985507E+03  0.66568429144E+03 -0.11319185613E+03  0.72533895586E+03  0.15294330000E+03 0.  0.
<mgrwt>
<rscale>  0 0.71645251E+03</rscale>
<asrwt>0</asrwt>
<pdfrwt beam="1">  1        1 0.17879620E+00 0.71645251E+03</pdfrwt>
<pdfrwt beam="2">  1       -1 0.73662753E-01 0.71645251E+03</pdfrwt>
<totfact> 0.21882119E+01</totfact>
</mgrwt>
</event>
<event>
 4    1  0.1678003E-008  0.3519489E+03  0.7818608E-02  0.1061818E+00
         -1   -1    0    0    0  501 -0.00000000000E+00  0.00000000000E+00  0.31857674776E+03  0.31857674780E+03  0.50400000000E-02 0.  1.
          1   -1    0    0  501    0  0.00000000000E+00 -0.00000000000E+00 -0.67218612198E+03  0.67218612200E+03  0.50400000000E-02 0. -1.
    8880022    1    1    2    0    0 -0.31031829531E+03 -0.64644473393E+02 -0.49844563876E+03  0.61017707279E+03  0.15294330000E+03 0.  0.
    8880022    1    1    2    0    0  0.31031829531E+03  0.64644473393E+02  0.14483626454E+03  0.38058579701E+03  0.15294330000E+03 0.  0.
<mgrwt>
<rscale>  0 0.35194887E+03</rscale>
<asrwt>0</asrwt>
<pdfrwt beam="1">  1        1 0.10341325E+00 0.35194887E+03</pdfrwt>
<pdfrwt beam="2">  1       -1 0.49011807E-01 0.35194887E+03</pdfrwt>
<totfact> 0.12747807E+02</totfact>
</mgrwt>
</event>
<event>
 4    1  0.1678003E-008  0.4056764E+03  0.7818608E-02  0.1041832E+00
         -1   -1    0    0    0  501 -0.00000000000E+00  0.00000000000E+00  0.21564532034E+03  0.21564532039E+03  0.50400000000E-02 0.  1.
          1   -1    0    0  501    0  0.00000000000E+00 -0.00000000000E+00 -0.11577656271E+04  0.11577656271E+04  0.50400000000E-02 0. -1.
    8880022    1    1    2    0    0  0.84474435920E+02  0.36612261076E+03 -0.70158287595E+02  0.41169835410E+03  0.15294330000E+03 0.  0.
    8880022    1    1    2    0    0 -0.84474435920E+02 -0.36612261076E+03 -0.87196201918E+03  0.96171259341E+03  0.15294330000E+03 0.  0.
<mgrwt>
<rscale>  0 0.40567641E+03</rscale>
<asrwt>0</asrwt>
<pdfrwt beam="1">  1        1 0.17811779E+00 0.40567641E+03</pdfrwt>
<pdfrwt beam="2">  1       -1 0.33176204E-01 0.40567641E+03</pdfrwt>
<totfact> 0.10392624E+02</totfact>
</mgrwt>
</event>
<event>
 4    1  0.1678003E-008  0.4705172E+03  0.7818608E-02  0.1021774E+00
         -1   -1    0    0    0  501 -0.00000000000E+00  0.00000000000E+00  0.84923302063E+03  0.84923302064E+03  0.50400000000E-02 0.  1.
          1   -1    0    0  501    0  0.00000000000E+00 -0.00000000000E+00 -0.48088947678E+03  0.48088947681E+03  0.50400000000E-02 0. -1.
    8880022    1    1    2    0    0  0.17300493382E+02  0.44462958912E+03  0.63420780994E+03  0.78968726582E+03  0.15294330000E+03 0.  0.
    8880022    1    1    2    0    0 -0.17300493382E+02 -0.44462958912E+03 -0.26586426609E+03  0.54043523163E+03  0.15294330000E+03 0. -1.
<mgrwt>
<rscale>  0 0.47051720E+03</rscale>
<asrwt>0</asrwt>
<pdfrwt beam="1">  1        1 0.73982996E-01 0.47051720E+03</pdfrwt>
<pdfrwt beam="2">  1       -1 0.13065123E+00 0.47051720E+03</pdfrwt>
<totfact> 0.24878327E+01</totfact>
</mgrwt>
</event>
<event>
 4    1  0.1678003E-008  0.2518148E+03  0.7818608E-02  0.1112163E+00
         -1   -1    0    0    0  501 -0.00000000000E+00  0.00000000000E+00  0.45292501547E+03  0.45292501550E+03  0.50400000000E-02 0.  1.
          1   -1    0    0  501    0  0.00000000000E+00 -0.00000000000E+00 -0.72373580203E+03  0.72373580205E+03  0.50400000000E-02 0. -1.
    8880022    1    1    2    0    0 -0.52294359440E+02 -0.19309154008E+03 -0.66377575996E+03  0.70993588119E+03  0.15294330000E+03 0. -1.
    8880022    1    1    2    0    0  0.52294359440E+02  0.19309154008E+03  0.39296497340E+03  0.46672493635E+03  0.15294330000E+03 0.  0.
<mgrwt>
<rscale>  0 0.25181480E+03</rscale>
<asrwt>0</asrwt>
<pdfrwt beam="1">  1        1 0.11134397E+00 0.25181480E+03</pdfrwt>
<pdfrwt beam="2">  1       -1 0.69680772E-01 0.25181480E+03</pdfrwt>
<totfact> 0.59230142E+01</totfact>
</mgrwt>
</event>
<event>
 4    1  0.1678003E-008  0.5569824E+03  0.7818608E-02  0.9998906E-01
         -1   -1    0    0    0  501 -0.00000000000E+00  0.00000000000E+00  0.67640971779E+03  0.67640971780E+03  0.50400000000E-02 0.  1.
          1   -1    0    0  501    0  0.00000000000E+00 -0.00000000000E+00 -0.75397195686E+03  0.75397195688E+03  0.50400000000E-02 0. -1.
    8880022    1    1    2    0    0 -0.74012552430E+02 -0.53043370680E+03  0.40882767968E+03  0.69091931505E+03  0.15294330000E+03 0.  0.
    8880022    1    1    2    0    0  0.74012552430E+02  0.53043370680E+03 -0.48638991876E+03  0.73946235963E+03  0.15294330000E+03 0.  0.
<mgrwt>
<rscale>  0 0.55698243E+03</rscale>
<asrwt>0</asrwt>
<pdfrwt beam="1">  1        1 0.11599569E+00 0.55698243E+03</pdfrwt>
<pdfrwt beam="2">  1       -1 0.10406303E+00 0.55698243E+03</pdfrwt>
<totfact> 0.22235995E+01</totfact>
</mgrwt>
</event>
<event>
 4    1  0.1678003E-008  0.3476843E+03  0.7818608E-02  0.1063570E+00
          1   -1    0    0  501    0  0.00000000000E+00  0.00000000000E+00  0.77806069471E+03  0.77806069473E+03  0.50400000000E-02 0. -1.
         -1   -1    0    0    0  501 -0.00000000000E+00 -0.00000000000E+00 -0.20820365325E+03  0.20820365331E+03  0.50400000000E-02 0.  1.
    8880022    1    1    2    0    0  0.11749320764E+03 -0.28928888211E+03  0.53335045692E+03  0.63666873181E+03  0.15294330000E+03 0. -1.
    8880022    1    1    2    0    0 -0.11749320764E+03  0.28928888211E+03  0.36506584539E+02  0.34959561622E+03  0.15294330000E+03 0.  0.
<mgrwt>
<rscale>  0 0.34768429E+03</rscale>
<asrwt>0</asrwt>
<pdfrwt beam="1">  1        1 0.11970165E+00 0.34768429E+03</pdfrwt>
<pdfrwt beam="2">  1       -1 0.32031331E-01 0.34768429E+03</pdfrwt>
<totfact> 0.21951290E+02</totfact>
</mgrwt>
</event>
<event>
 4    1  0.1678003E-008  0.4188509E+03  0.7818608E-02  0.1037441E+00
         -1   -1    0    0    0  501 -0.00000000000E+00  0.00000000000E+00  0.25925414345E+03  0.25925414349E+03  0.50400000000E-02 0.  1.
          1   -1    0    0  501    0  0.00000000000E+00 -0.00000000000E+00 -0.11210627009E+04  0.11210627009E+04  0.50400000000E-02 0. -1.
    8880022    1    1    2    0    0 -0.33754332690E+03  0.19521504143E+03  0.36108792783E+01  0.41886644817E+03  0.15294330000E+03 0.  0.
    8880022    1    1    2    0    0  0.33754332690E+03 -0.19521504143E+03 -0.86541943676E+03  0.96145039626E+03  0.15294330000E+03 0. -1.
<mgrwt>
<rscale>  0 0.41885088E+03</rscale>
<asrwt>0</asrwt>
<pdfrwt beam="1">  1        1 0.17247118E+00 0.41885088E+03</pdfrwt>
<pdfrwt beam="2">  1       -1 0.39885253E-01 0.41885088E+03</pdfrwt>
<totfact> 0.79567472E+01</totfact>
</mgrwt>
</event>
<event>
 4    1  0.1678003E-008  0.4614854E+03  0.7818608E-02  0.1024351E+00
          1   -1    0    0  501    0  0.00000000000E+00  0.00000000000E+00  0.31732772339E+04  0.31732772339E+04  0.50400000000E-02 0. -1.
         -1   -1    0    0    0  501 -0.00000000000E+00 -0.00000000000E+00 -0.97893671761E+02  0.97893671890E+02  0.50400000000E-02 0.  1.
    8880022    1    1    2    0    0 -0.10997148483E+02 -0.43526561327E+03  0.24548276249E+04  0.24978285394E+04  0.15294330000E+03 0.  0.
    8880022    1    1    2    0    0  0.10997148483E+02  0.43526561327E+03  0.62055593724E+03  0.77334236637E+03  0.15294330000E+03 0.  0.
<mgrwt>
<rscale>  0 0.46148537E+03</rscale>
<asrwt>0</asrwt>
<pdfrwt beam="1">  1        1 0.48819645E+00 0.46148537E+03</pdfrwt>
<pdfrwt beam="2">  1       -1 0.15060566E-01 0.46148537E+03</pdfrwt>
<totfact> 0.16405517E+01</totfact>
</mgrwt>
</event>
<event>
 4    1  0.1678003E-008  0.2850180E+03  0.7818608E-02  0.1092979E+00
          1   -1    0    0  501    0  0.00000000000E+00  0.00000000000E+00  0.22325196470E+03  0.22325196475E+03  0.50400000000E-02 0. -1.
         -1   -1    0    0    0  501 -0.00000000000E+00 -0.00000000000E+00 -0.93634276398E+03  0.93634276399E+03  0.50400000000E-02 0.  1.
    8880022    1    1    2    0    0  0.14032069359E+03  0.19532969374E+03  0.96806346714E+02  0.30100948172E+03  0.15294330000E+03 0.  0.
    8880022    1    1    2    0    0 -0.14032069359E+03 -0.19532969374E+03 -0.80989714600E+03  0.85858524703E+03  0.15294330000E+03 0.  0.
<mgrwt>
<rscale>  0 0.28501796E+03</rscale>
<asrwt>0</asrwt>
<pdfrwt beam="1">  1        1 0.34346457E-01 0.28501796E+03</pdfrwt>
<pdfrwt beam="2">  1       -1 0.14405273E+00 0.28501796E+03</pdfrwt>
<totfact> 0.53913043E+01</totfact>
</mgrwt>
</event>
<event>
 4    1  0.1678003E-008  0.7821082E+03  0.7818608E-02  0.9586282E-01
         -1   -1    0    0    0  501 -0.00000000000E+00  0.00000000000E+00  0.69369165126E+03  0.69369165128E+03  0.50400000000E-02 0.  1.
          1   -1    0    0  501    0  0.00000000000E+00 -0.00000000000E+00 -0.11322849960E+04  0.11322849960E+04  0.50400000000E-02 0. -1.
    8880022    1    1    2    0    0  0.73995604211E+03  0.20190767686E+03  0.21012424245E+03  0.80984288878E+03  0.15294330000E+03 0.  0.
    8880022    1    1    2    0    0 -0.73995604211E+03 -0.20190767686E+03 -0.64871758719E+03  0.10161337585E+04  0.15294330000E+03 0.  0.
<mgrwt>
<rscale>  0 0.78210825E+03</rscale>
<asrwt>0</asrwt>
<pdfrwt beam="1">  1        1 0.17419769E+00 0.78210825E+03</pdfrwt>
<pdfrwt beam="2">  1       -1 0.10672179E+00 0.78210825E+03</pdfrwt>
<totfact> 0.10115304E+01</totfact>
</mgrwt>
</event>
<event>
 4    1  0.1678003E-008  0.7031208E+03  0.7818608E-02  0.9711910E-01
         -1   -1    0    0    0  501 -0.00000000000E+00  0.00000000000E+00  0.12949198029E+04  0.12949198029E+04  0.50400000000E-02 0.  1.
          1   -1    0    0  501    0  0.00000000000E+00 -0.00000000000E+00 -0.67630222087E+03  0.67630222089E+03  0.50400000000E-02 0. -1.
    8880022    1    1    2    0    0  0.28780272680E+03 -0.62302227413E+03  0.95972552425E+03  0.11897276573E+04  0.15294330000E+03 0.  0.
    8880022    1    1    2    0    0 -0.28780272680E+03  0.62302227413E+03 -0.34110794222E+03  0.78149436650E+03  0.15294330000E+03 0.  0.
<mgrwt>
<rscale>  0 0.70312077E+03</rscale>
<asrwt>0</asrwt>
<pdfrwt beam="1">  1        1 0.10404650E+00 0.70312077E+03</pdfrwt>
<pdfrwt beam="2">  1       -1 0.19921843E+00 0.70312077E+03</pdfrwt>
<totfact> 0.45684059E+00</totfact>
</mgrwt>
</event>
<event>
 4    1  0.1678003E-008  0.1108514E+04  0.7818608E-02  0.9196933E-01
         -1   -1    0    0    0  501 -0.00000000000E+00  0.00000000000E+00  0.84727521843E+03  0.84727521845E+03  0.50400000000E-02 0.  1.
          1   -1    0    0  501    0  0.00000000000E+00 -0.00000000000E+00 -0.22759050825E+04  0.22759050825E+04  0.50400000000E-02 0. -1.
    8880022    1    1    2    0    0 -0.19980125665E+03 -0.10795788189E+04 -0.16548529653E+04  0.19918185053E+04  0.15294330000E+03 0.  0.
    8880022    1    1    2    0    0  0.19980125665E+03  0.10795788189E+04  0.22622310115E+03  0.11313617957E+04  0.15294330000E+03 0.  0.
<mgrwt>
<rscale>  0 0.11085137E+04</rscale>
<asrwt>0</asrwt>
<pdfrwt beam="1">  1        1 0.35013924E+00 0.11085137E+04</pdfrwt>
<pdfrwt beam="2">  1       -1 0.13035003E+00 0.11085137E+04</pdfrwt>
<totfact> 0.97218081E-01</totfact>
</mgrwt>
</event>
<event>
 4    1  0.1678003E-008  0.1228615E+04  0.7818608E-02  0.9088172E-01
         -1   -1    0    0    0  501 -0.00000000000E+00  0.00000000000E+00  0.77845149660E+03  0.77845149661E+03  0.50400000000E-02 0.  1.
          1   -1    0    0  501    0  0.00000000000E+00 -0.00000000000E+00 -0.32375483926E+04  0.32375483926E+04  0.50400000000E-02 0. -1.
    8880022    1    1    2    0    0 -0.35371067441E+03  0.11666155951E+04 -0.25011996518E+04  0.27866636932E+04  0.15294330000E+03 0.  0.
    8880022    1    1    2    0    0  0.35371067441E+03 -0.11666155951E+04  0.42102755769E+02  0.12293361960E+04  0.15294330000E+03 0.  0.
<mgrwt>
<rscale>  0 0.12286150E+04</rscale>
<asrwt>0</asrwt>
<pdfrwt beam="1">  1        1 0.49808436E+00 0.12286150E+04</pdfrwt>
<pdfrwt beam="2">  1       -1 0.11976177E+00 0.12286150E+04</pdfrwt>
<totfact> 0.24622051E-01</totfact>
</mgrwt>
</event>
<event>
 4    1  0.1678003E-008  0.1976938E+03  0.7818608E-02  0.1151699E+00
          1   -1    0    0  501    0  0.00000000000E+00  0.00000000000E+00  0.28842505136E+03  0.28842505140E+03  0.50400000000E-02 0. -1.
         -1   -1    0    0    0  501 -0.00000000000E+00 -0.00000000000E+00 -0.14287940911E+03  0.14287940920E+03  0.50400000000E-02 0.  1.
    8880022    1    1    2    0    0  0.12494806095E+03  0.88977293825E+01  0.23777708355E+02  0.19911860775E+03  0.15294330000E+03 0.  0.
    8880022    1    1    2    0    0 -0.12494806095E+03 -0.88977293825E+01  0.12176793389E+03  0.23218585285E+03  0.15294330000E+03 0.  0.
<mgrwt>
<rscale>  0 0.19769381E+03</rscale>
<asrwt>0</asrwt>
<pdfrwt beam="1">  1        1 0.44373084E-01 0.19769381E+03</pdfrwt>
<pdfrwt beam="2">  1       -1 0.21981448E-01 0.19769381E+03</pdfrwt>
<totfact> 0.15776218E+03</totfact>
</mgrwt>
</event>
<event>
 4    1  0.1678003E-008  0.1057801E+04  0.7818608E-02  0.9247327E-01
         -1   -1    0    0    0  501 -0.00000000000E+00  0.00000000000E+00  0.19988073068E+04  0.19988073068E+04  0.50400000000E-02 0.  1.
          1   -1    0    0  501    0  0.00000000000E+00 -0.00000000000E+00 -0.10593253972E+04  0.10593253972E+04  0.50400000000E-02 0. -1.
    8880022    1    1    2    0    0 -0.26502143765E+03 -0.10125784161E+04  0.15197380358E+04  0.18516335386E+04  0.15294330000E+03 0.  0.
    8880022    1    1    2    0    0  0.26502143765E+03  0.10125784161E+04 -0.58025612619E+03  0.12064991654E+04  0.15294330000E+03 0.  0.
<mgrwt>
<rscale>  0 0.10578011E+04</rscale>
<asrwt>0</asrwt>
<pdfrwt beam="1">  1        1 0.16297314E+00 0.10578011E+04</pdfrwt>
<pdfrwt beam="2">  1       -1 0.30750882E+00 0.10578011E+04</pdfrwt>
<totfact> 0.40420403E-01</totfact>
</mgrwt>
</event>
<event>
 4    1  0.1678003E-008  0.5133361E+03  0.7818608E-02  0.1010355E+00
          1   -1    0    0  501    0  0.00000000000E+00  0.00000000000E+00  0.31475921539E+03  0.31475921543E+03  0.50400000000E-02 0. -1.
         -1   -1    0    0    0  501 -0.00000000000E+00 -0.00000000000E+00 -0.15045638696E+04  0.15045638696E+04  0.50400000000E-02 0.  1.
    8880022    1    1    2    0    0  0.19441385872E+03  0.44980615393E+03 -0.12007429431E+04  0.13058704350E+04  0.15294330000E+03 0.  0.
    8880022    1    1    2    0    0 -0.19441385872E+03 -0.44980615393E+03  0.10938288960E+02  0.51345264997E+03  0.15294330000E+03 0.  0.
<mgrwt>
<rscale>  0 0.51333613E+03</rscale>
<asrwt>0</asrwt>
<pdfrwt beam="1">  1        1 0.48424496E-01 0.51333613E+03</pdfrwt>
<pdfrwt beam="2">  1       -1 0.23147136E+00 0.51333613E+03</pdfrwt>
<totfact> 0.81552232E+00</totfact>
</mgrwt>
</event>
<event>
 4    1  0.1678003E-008  0.2350532E+03  0.7818608E-02  0.1123133E+00
          1   -1    0    0  501    0  0.00000000000E+00  0.00000000000E+00  0.43581991565E+03  0.43581991568E+03  0.50400000000E-02 0. -1.
         -1   -1    0    0    0  501 -0.00000000000E+00 -0.00000000000E+00 -0.82677892123E+03  0.82677892125E+03  0.50400000000E-02 0.  1.
    8880022    1    1    2    0    0  0.17534906382E+03 -0.33332321131E+02 -0.77636655435E+03  0.81116892047E+03  0.15294330000E+03 0.  1.
    8880022    1    1    2    0    0 -0.17534906382E+03  0.33332321131E+02  0.38540754877E+03  0.45142991646E+03  0.15294330000E+03 0.  0.
<mgrwt>
<rscale>  0 0.23505317E+03</rscale>
<asrwt>0</asrwt>
<pdfrwt beam="1">  1        1 0.67049218E-01 0.23505317E+03</pdfrwt>
<pdfrwt beam="2">  1       -1 0.12719676E+00 0.23505317E+03</pdfrwt>
<totfact> 0.31883717E+01</totfact>
</mgrwt>
</event>
<event>
 4    1  0.1678003E-008  0.4959394E+03  0.7818608E-02  0.1014844E+00
         -1   -1    0    0    0  501 -0.00000000000E+00  0.00000000000E+00  0.38089943649E+03  0.38089943652E+03  0.50400000000E-02 0.  1.
          1   -1    0    0  501    0  0.00000000000E+00 -0.00000000000E+00 -0.14640191240E+04  0.14640191241E+04  0.50400000000E-02 0. -1.
    8880022    1    1    2    0    0 -0.16633947307E+03  0.44146963339E+03 -0.12312099528E+04  0.13273408976E+04  0.15294330000E+03 0.  0.
    8880022    1    1    2    0    0  0.16633947307E+03 -0.44146963339E+03  0.14809026528E+03  0.51757766296E+03  0.15294330000E+03 0.  0.
<mgrwt>
<rscale>  0 0.49593942E+03</rscale>
<asrwt>0</asrwt>
<pdfrwt beam="1">  1        1 0.22523371E+00 0.49593942E+03</pdfrwt>
<pdfrwt beam="2">  1       -1 0.58599914E-01 0.49593942E+03</pdfrwt>
<totfact> 0.22018202E+01</totfact>
</mgrwt>
</event>
<event>
 4    1  0.1678003E-008  0.6646850E+03  0.7818608E-02  0.9779608E-01
         -1   -1    0    0    0  501 -0.00000000000E+00  0.00000000000E+00  0.41760263005E+03  0.41760263008E+03  0.50400000000E-02 0.  1.
          1   -1    0    0  501    0  0.00000000000E+00 -0.00000000000E+00 -0.19442956972E+04  0.19442956972E+04  0.50400000000E-02 0. -1.
    8880022    1    1    2    0    0 -0.10961964974E+03  0.63749350100E+03  0.34004628827E+02  0.66555420457E+03  0.15294330000E+03 0.  0.
    8880022    1    1    2    0    0  0.10961964974E+03 -0.63749350100E+03 -0.15606976959E+04  0.16963441227E+04  0.15294330000E+03 0.  0.
<mgrwt>
<rscale>  0 0.66468495E+03</rscale>
<asrwt>0</asrwt>
<pdfrwt beam="1">  1        1 0.29912241E+00 0.66468495E+03</pdfrwt>
<pdfrwt beam="2">  1       -1 0.64246559E-01 0.66468495E+03</pdfrwt>
<totfact> 0.84789648E+00</totfact>
</mgrwt>
</event>
<event>
 4    1  0.1678003E-008  0.2138843E+03  0.7818608E-02  0.1138526E+00
         -1   -1    0    0    0  501 -0.00000000000E+00  0.00000000000E+00  0.59199777943E+03  0.59199777945E+03  0.50400000000E-02 0.  1.
          1   -1    0    0  501    0  0.00000000000E+00 -0.00000000000E+00 -0.73564235493E+03  0.73564235495E+03  0.50400000000E-02 0. -1.
    8880022    1    1    2    0    0 -0.12903032920E+03  0.75538221789E+02 -0.69981011942E+03  0.73176547135E+03  0.15294330000E+03 0.  0.
    8880022    1    1    2    0    0  0.12903032920E+03 -0.75538221789E+02  0.55616554392E+03  0.59587466305E+03  0.15294330000E+03 0.  1.
<mgrwt>
<rscale>  0 0.21388432E+03</rscale>
<asrwt>0</asrwt>
<pdfrwt beam="1">  1        1 0.11317575E+00 0.21388432E+03</pdfrwt>
<pdfrwt beam="2">  1       -1 0.91076582E-01 0.21388432E+03</pdfrwt>
<totfact> 0.33595003E+01</totfact>
</mgrwt>
</event>
<event>
 4    1  0.1678003E-008  0.6266853E+03  0.7818608E-02  0.9851539E-01
          1   -1    0    0  501    0  0.00000000000E+00  0.00000000000E+00  0.25452544291E+04  0.25452544291E+04  0.50400000000E-02 0. -1.
         -1   -1    0    0    0  501 -0.00000000000E+00 -0.00000000000E+00 -0.40333920601E+03  0.40333920604E+03  0.50400000000E-02 0.  1.
    8880022    1    1    2    0    0  0.60000786276E+03 -0.96609416437E+02 -0.87507567878E+02  0.63276539267E+03  0.15294330000E+03 0.  0.
    8880022    1    1    2    0    0 -0.60000786276E+03  0.96609416437E+02  0.22294227910E+04  0.23158282425E+04  0.15294330000E+03 0.  0.
<mgrwt>
<rscale>  0 0.62668530E+03</rscale>
<asrwt>0</asrwt>
<pdfrwt beam="1">  1        1 0.39157761E+00 0.62668530E+03</pdfrwt>
<pdfrwt beam="2">  1       -1 0.62052185E-01 0.62668530E+03</pdfrwt>
<totfact> 0.36161867E+00</totfact>
</mgrwt>
</event>
<event>
 4    1  0.1678003E-008  0.2087737E+03  0.7818608E-02  0.1142541E+00
         -1   -1    0    0    0  501 -0.00000000000E+00  0.00000000000E+00  0.21787929886E+03  0.21787929892E+03  0.50400000000E-02 0.  1.
          1   -1    0    0  501    0  0.00000000000E+00 -0.00000000000E+00 -0.17976509806E+04  0.17976509806E+04  0.50400000000E-02 0. -1.
    8880022    1    1    2    0    0  0.75387698071E+01  0.14190833825E+03 -0.17399238573E+04  0.17524044886E+04  0.15294330000E+03 0. -1.
    8880022    1    1    2    0    0 -0.75387698071E+01 -0.14190833825E+03  0.16015217552E+03  0.26312579094E+03  0.15294330000E+03 0.  0.
<mgrwt>
<rscale>  0 0.20877371E+03</rscale>
<asrwt>0</asrwt>
<pdfrwt beam="1">  1        1 0.27656168E+00 0.20877371E+03</pdfrwt>
<pdfrwt beam="2">  1       -1 0.33519893E-01 0.20877371E+03</pdfrwt>
<totfact> 0.39980094E+01</totfact>
</mgrwt>
</event>
<event>
 4    1  0.1678003E-008  0.2275862E+03  0.7818608E-02  0.1128350E+00
         -1   -1    0    0    0  501 -0.00000000000E+00  0.00000000000E+00  0.66827617004E+02  0.66827617194E+02  0.50400000000E-02 0.  1.
          1   -1    0    0  501    0  0.00000000000E+00 -0.00000000000E+00 -0.14726913532E+04  0.14726913532E+04  0.50400000000E-02 0. -1.
    8880022    1    1    2    0    0  0.14600530819E+03 -0.84180127687E+02 -0.12327316615E+04  0.12535640575E+04  0.15294330000E+03 0.  0.
    8880022    1    1    2    0    0 -0.14600530819E+03  0.84180127687E+02 -0.17313207466E+03  0.28595491289E+03  0.15294330000E+03 0.  0.
<mgrwt>
<rscale>  0 0.22758624E+03</rscale>
<asrwt>0</asrwt>
<pdfrwt beam="1">  1        1 0.22656788E+00 0.22758624E+03</pdfrwt>
<pdfrwt beam="2">  1       -1 0.10281173E-01 0.22758624E+03</pdfrwt>
<totfact> 0.43958700E+02</totfact>
</mgrwt>
</event>
<event>
 4    1  0.1678003E-008  0.1097827E+04  0.7818608E-02  0.9207313E-01
          1   -1    0    0  501    0  0.00000000000E+00  0.00000000000E+00  0.12670764160E+04  0.12670764160E+04  0.50400000000E-02 0. -1.
         -1   -1    0    0    0  501 -0.00000000000E+00 -0.00000000000E+00 -0.13598228321E+04  0.13598228321E+04  0.50400000000E-02 0.  1.
    8880022    1    1    2    0    0 -0.73978062939E+03  0.79659027876E+03 -0.76638888289E+03  0.13388708021E+04  0.15294330000E+03 0.  0.
    8880022    1    1    2    0    0  0.73978062939E+03 -0.79659027876E+03  0.67364246675E+03  0.12880284461E+04  0.15294330000E+03 0.  0.
<mgrwt>
<rscale>  0 0.10978265E+04</rscale>
<asrwt>0</asrwt>
<pdfrwt beam="1">  1        1 0.19493483E+00 0.10978265E+04</pdfrwt>
<pdfrwt beam="2">  1       -1 0.20920351E+00 0.10978265E+04</pdfrwt>
<totfact> 0.12341585E+00</totfact>
</mgrwt>
</event>
<event>
 4    1  0.1678003E-008  0.1128040E+04  0.7818608E-02  0.9178285E-01
          1   -1    0    0  501    0  0.00000000000E+00  0.00000000000E+00  0.12865197018E+04  0.12865197018E+04  0.50400000000E-02 0. -1.
         -1   -1    0    0    0  501 -0.00000000000E+00 -0.00000000000E+00 -0.12570467165E+04  0.12570467165E+04  0.50400000000E-02 0.  1.
    8880022    1    1    2    0    0 -0.25140091389E+03  0.10889812035E+04  0.60192260087E+03  0.12785870918E+04  0.15294330000E+03 0.  0.
    8880022    1    1    2    0    0  0.25140091389E+03 -0.10889812035E+04 -0.57244961563E+03  0.12649793265E+04  0.15294330000E+03 0.  0.
<mgrwt>
<rscale>  0 0.11280400E+04</rscale>
<asrwt>0</asrwt>
<pdfrwt beam="1">  1        1 0.19792611E+00 0.11280400E+04</pdfrwt>
<pdfrwt beam="2">  1       -1 0.19339180E+00 0.11280400E+04</pdfrwt>
<totfact> 0.15293940E+00</totfact>
</mgrwt>
</event>
<event>
 4    1  0.1678003E-008  0.1740682E+04  0.7818608E-02  0.8738496E-01
          1   -1    0    0  501    0  0.00000000000E+00  0.00000000000E+00  0.19175921139E+04  0.19175921139E+04  0.50400000000E-02 0. -1.
         -1   -1    0    0    0  501 -0.00000000000E+00 -0.00000000000E+00 -0.22037682638E+04  0.22037682638E+04  0.50400000000E-02 0.  1.
    8880022    1    1    2    0    0 -0.67363148490E+03  0.15977496675E+04 -0.12393306974E+04  0.21368003202E+04  0.15294330000E+03 0.  0.
    8880022    1    1    2    0    0  0.67363148490E+03 -0.15977496675E+04  0.95315454752E+03  0.19845600576E+04  0.15294330000E+03 0.  0.
<mgrwt>
<rscale>  0 0.17406823E+04</rscale>
<asrwt>0</asrwt>
<pdfrwt beam="1">  1        1 0.29501417E+00 0.17406823E+04</pdfrwt>
<pdfrwt beam="2">  1       -1 0.33904127E+00 0.17406823E+04</pdfrwt>
<totfact> 0.57019570E-02</totfact>
</mgrwt>
</event>
<event>
 4    1  0.1678003E-008  0.1748413E+03  0.7818608E-02  0.1172891E+00
          1   -1    0    0  501    0  0.00000000000E+00  0.00000000000E+00  0.14255570451E+03  0.14255570460E+03  0.50400000000E-02 0. -1.
         -1   -1    0    0    0  501 -0.00000000000E+00 -0.00000000000E+00 -0.12059591696E+04  0.12059591696E+04  0.50400000000E-02 0.  1.
    8880022    1    1    2    0    0  0.60513851865E+02 -0.59295179600E+02 -0.11430803251E+04  0.11563745618E+04  0.15294330000E+03 0.  1.
    8880022    1    1    2    0    0 -0.60513851865E+02  0.59295179600E+02  0.79676860035E+02  0.19214031235E+03  0.15294330000E+03 0.  0.
<mgrwt>
<rscale>  0 0.17484135E+03</rscale>
<asrwt>0</asrwt>
<pdfrwt beam="1">  1        1 0.21931648E-01 0.17484135E+03</pdfrwt>
<pdfrwt beam="2">  1       -1 0.18553217E+00 0.17484135E+03</pdfrwt>
<totfact> 0.48878291E+01</totfact>
</mgrwt>
</event>
<event>
 4    1  0.1678003E-008  0.5430551E+03  0.7818608E-02  0.1003114E+00
         -1   -1    0    0    0  501 -0.00000000000E+00  0.00000000000E+00  0.40626237711E+03  0.40626237714E+03  0.50400000000E-02 0.  1.
          1   -1    0    0  501    0  0.00000000000E+00 -0.00000000000E+00 -0.14442734282E+04  0.14442734282E+04  0.50400000000E-02 0. -1.
    8880022    1    1    2    0    0 -0.13724322257E+03  0.50267429953E+03  0.13354737367E+03  0.55923493058E+03  0.15294330000E+03 0.  0.
    8880022    1    1    2    0    0  0.13724322257E+03 -0.50267429953E+03 -0.11715584248E+04  0.12913008748E+04  0.15294330000E+03 0.  0.
<mgrwt>
<rscale>  0 0.54305507E+03</rscale>
<asrwt>0</asrwt>
<pdfrwt beam="1">  1        1 0.22219591E+00 0.54305507E+03</pdfrwt>
<pdfrwt beam="2">  1       -1 0.62501905E-01 0.54305507E+03</pdfrwt>
<totfact> 0.19834596E+01</totfact>
</mgrwt>
</event>
<event>
 4    1  0.1678003E-008  0.3466129E+03  0.7818608E-02  0.1064014E+00
          1   -1    0    0  501    0  0.00000000000E+00  0.00000000000E+00  0.10812367968E+04  0.10812367969E+04  0.50400000000E-02 0. -1.
         -1   -1    0    0    0  501 -0.00000000000E+00 -0.00000000000E+00 -0.11284123867E+04  0.11284123867E+04  0.50400000000E-02 0.  1.
    8880022    1    1    2    0    0  0.21453370293E+02 -0.31030404633E+03  0.10254317905E+04  0.10824282231E+04  0.15294330000E+03 0.  0.
    8880022    1    1    2    0    0 -0.21453370293E+02  0.31030404633E+03 -0.10726073804E+04  0.11272209605E+04  0.15294330000E+03 0.  0.
<mgrwt>
<rscale>  0 0.34661290E+03</rscale>
<asrwt>0</asrwt>
<pdfrwt beam="1">  1        1 0.16634412E+00 0.34661290E+03</pdfrwt>
<pdfrwt beam="2">  1       -1 0.17360191E+00 0.34661290E+03</pdfrwt>
<totfact> 0.34891622E+00</totfact>
</mgrwt>
</event>
<event>
 4    1  0.1678003E-008  0.8059517E+03  0.7818608E-02  0.9551442E-01
         -1   -1    0    0    0  501 -0.00000000000E+00  0.00000000000E+00  0.10402855438E+04  0.10402855438E+04  0.50400000000E-02 0.  1.
          1   -1    0    0  501    0  0.00000000000E+00 -0.00000000000E+00 -0.94996737545E+03  0.94996737547E+03  0.50400000000E-02 0. -1.
    8880022    1    1    2    0    0  0.19443775946E+03 -0.76704656734E+03  0.62772075472E+03  0.10215632519E+04  0.15294330000E+03 0.  0.
    8880022    1    1    2    0    0 -0.19443775946E+03  0.76704656734E+03 -0.53740258638E+03  0.96868966735E+03  0.15294330000E+03 0.  0.
<mgrwt>
<rscale>  0 0.80595169E+03</rscale>
<asrwt>0</asrwt>
<pdfrwt beam="1">  1        1 0.14614883E+00 0.80595169E+03</pdfrwt>
<pdfrwt beam="2">  1       -1 0.16004393E+00 0.80595169E+03</pdfrwt>
<totfact> 0.49746990E+00</totfact>
</mgrwt>
</event>
<event>
 4    1  0.1678003E-008  0.3724729E+03  0.7818608E-02  0.1053751E+00
          1   -1    0    0  501    0  0.00000000000E+00  0.00000000000E+00  0.15000902249E+04  0.15000902249E+04  0.50400000000E-02 0. -1.
         -1   -1    0    0    0  501 -0.00000000000E+00 -0.00000000000E+00 -0.12060239566E+04  0.12060239566E+04  0.50400000000E-02 0.  1.
    8880022    1    1    2    0    0  0.12419069831E+03 -0.31610290857E+03 -0.11531090139E+04  0.12117740834E+04  0.15294330000E+03 0.  0.
    8880022    1    1    2    0    0 -0.12419069831E+03  0.31610290857E+03  0.14471752822E+04  0.14943400981E+04  0.15294330000E+03 0.  0.
<mgrwt>
<rscale>  0 0.37247286E+03</rscale>
<asrwt>0</asrwt>
<pdfrwt beam="1">  1        1 0.23078311E+00 0.37247286E+03</pdfrwt>
<pdfrwt beam="2">  1       -1 0.18554215E+00 0.37247286E+03</pdfrwt>
<totfact> 0.14544834E+00</totfact>
</mgrwt>
</event>
<event>
 4    1  0.1678003E-008  0.5084153E+03  0.7818608E-02  0.1011605E+00
          1   -1    0    0  501    0  0.00000000000E+00  0.00000000000E+00  0.26023375838E+04  0.26023375838E+04  0.50400000000E-02 0. -1.
         -1   -1    0    0    0  501 -0.00000000000E+00 -0.00000000000E+00 -0.16439790246E+03  0.16439790254E+03  0.50400000000E-02 0.  1.
    8880022    1    1    2    0    0 -0.12637359773E+03 -0.46810706649E+03  0.34865161810E+03  0.61647718183E+03  0.15294330000E+03 0.  0.
    8880022    1    1    2    0    0  0.12637359773E+03  0.46810706649E+03  0.20892880632E+04  0.21502583045E+04  0.15294330000E+03 0.  0.
<mgrwt>
<rscale>  0 0.50841535E+03</rscale>
<asrwt>0</asrwt>
<pdfrwt beam="1">  1        1 0.40035967E+00 0.50841535E+03</pdfrwt>
<pdfrwt beam="2">  1       -1 0.25291983E-01 0.50841535E+03</pdfrwt>
<totfact> 0.17342041E+01</totfact>
</mgrwt>
</event>
<event>
 4    1  0.1678003E-008  0.6652015E+03  0.7818608E-02  0.9778665E-01
         -1   -1    0    0    0  501 -0.00000000000E+00  0.00000000000E+00  0.32492352645E+03  0.32492352649E+03  0.50400000000E-02 0.  1.
          1   -1    0    0  501    0  0.00000000000E+00 -0.00000000000E+00 -0.30823476369E+04  0.30823476369E+04  0.50400000000E-02 0. -1.
    8880022    1    1    2    0    0 -0.44833275737E+03 -0.46701085055E+03 -0.10589933028E+03  0.67357829317E+03  0.15294330000E+03 0.  0.
    8880022    1    1    2    0    0  0.44833275737E+03  0.46701085055E+03 -0.26515247802E+04  0.27336928702E+04  0.15294330000E+03 0.  0.
<mgrwt>
<rscale>  0 0.66520151E+03</rscale>
<asrwt>0</asrwt>
<pdfrwt beam="1">  1        1 0.47420731E+00 0.66520151E+03</pdfrwt>
<pdfrwt beam="2">  1       -1 0.49988237E-01 0.66520151E+03</pdfrwt>
<totfact> 0.22885991E+00</totfact>
</mgrwt>
</event>
<event>
 4    1  0.1678003E-008  0.5133970E+03  0.7818608E-02  0.1010340E+00
         -1   -1    0    0    0  501 -0.00000000000E+00  0.00000000000E+00  0.15803898511E+04  0.15803898511E+04  0.50400000000E-02 0.  1.
          1   -1    0    0  501    0  0.00000000000E+00 -0.00000000000E+00 -0.37895812330E+03  0.37895812333E+03  0.50400000000E-02 0. -1.
    8880022    1    1    2    0    0  0.16283756140E+03 -0.46224313497E+03  0.13337714407E+04  0.14291685332E+04  0.15294330000E+03 0.  0.
    8880022    1    1    2    0    0 -0.16283756140E+03  0.46224313497E+03 -0.13233971295E+03  0.53017944119E+03  0.15294330000E+03 0.  0.
<mgrwt>
<rscale>  0 0.51339696E+03</rscale>
<asrwt>0</asrwt>
<pdfrwt beam="1">  1        1 0.58301250E-01 0.51339696E+03</pdfrwt>
<pdfrwt beam="2">  1       -1 0.24313690E+00 0.51339696E+03</pdfrwt>
<totfact> 0.53897545E+00</totfact>
</mgrwt>
</event>
<event>
 4    1  0.1678003E-008  0.2312512E+03  0.7818608E-02  0.1125762E+00
          1   -1    0    0  501    0  0.00000000000E+00  0.00000000000E+00  0.19527382164E+03  0.19527382171E+03  0.50400000000E-02 0. -1.
         -1   -1    0    0    0  501 -0.00000000000E+00 -0.00000000000E+00 -0.29785946600E+03  0.29785946604E+03  0.50400000000E-02 0.  1.
    8880022    1    1    2    0    0 -0.72366624087E+00  0.17345005344E+03 -0.12128617465E+03  0.26112723701E+03  0.15294330000E+03 0.  0.
    8880022    1    1    2    0    0  0.72366624087E+00 -0.17345005344E+03  0.18700530292E+02  0.23200605074E+03  0.15294330000E+03 0.  0.
<mgrwt>
<rscale>  0 0.23125116E+03</rscale>
<asrwt>0</asrwt>
<pdfrwt beam="1">  1        1 0.30042127E-01 0.23125116E+03</pdfrwt>
<pdfrwt beam="2">  1       -1 0.45824533E-01 0.23125116E+03</pdfrwt>
<totfact> 0.73100236E+02</totfact>
</mgrwt>
</event>
<event>
 4    1  0.1678003E-008  0.8418904E+03  0.7818608E-02  0.9501286E-01
         -1   -1    0    0    0  501 -0.00000000000E+00  0.00000000000E+00  0.58307489385E+03  0.58307489387E+03  0.50400000000E-02 0.  1.
          1   -1    0    0  501    0  0.00000000000E+00 -0.00000000000E+00 -0.14637447429E+04  0.14637447429E+04  0.50400000000E-02 0. -1.
    8880022    1    1    2    0    0  0.69558593896E+03  0.44894097400E+03 -0.86171989001E+03  0.12047159908E+04  0.15294330000E+03 0.  0.
    8880022    1    1    2    0    0 -0.69558593896E+03 -0.44894097400E+03 -0.18949959028E+02  0.84210364598E+03  0.15294330000E+03 0.  0.
<mgrwt>
<rscale>  0 0.84189040E+03</rscale>
<asrwt>0</asrwt>
<pdfrwt beam="1">  1        1 0.22519150E+00 0.84189040E+03</pdfrwt>
<pdfrwt beam="2">  1       -1 0.89703830E-01 0.84189040E+03</pdfrwt>
<totfact> 0.86470746E+00</totfact>
</mgrwt>
</event>
<event>
 4    1  0.1678003E-008  0.4567475E+03  0.7818608E-02  0.1025729E+00
         -1   -1    0    0    0  501 -0.00000000000E+00  0.00000000000E+00  0.55072692719E+03  0.55072692722E+03  0.50400000000E-02 0.  1.
          1   -1    0    0  501    0  0.00000000000E+00 -0.00000000000E+00 -0.10179748190E+04  0.10179748190E+04  0.50400000000E-02 0. -1.
    8880022    1    1    2    0    0 -0.39888143962E+03 -0.16161765970E+03  0.38788855306E+03  0.59922938296E+03  0.15294330000E+03 0.  0.
    8880022    1    1    2    0    0  0.39888143962E+03  0.16161765970E+03 -0.85513644489E+03  0.96947236330E+03  0.15294330000E+03 0. -1.
<mgrwt>
<rscale>  0 0.45674755E+03</rscale>
<asrwt>0</asrwt>
<pdfrwt beam="1">  1        1 0.15661151E+00 0.45674755E+03</pdfrwt>
<pdfrwt beam="2">  1       -1 0.84727219E-01 0.45674755E+03</pdfrwt>
<totfact> 0.21746833E+01</totfact>
</mgrwt>
</event>
<event>
 4    1  0.1678003E-008  0.9785625E+03  0.7818608E-02  0.9332375E-01
          1   -1    0    0  501    0  0.00000000000E+00  0.00000000000E+00  0.78943603198E+03  0.78943603199E+03  0.50400000000E-02 0. -1.
         -1   -1    0    0    0  501 -0.00000000000E+00 -0.00000000000E+00 -0.13042952976E+04  0.13042952976E+04  0.50400000000E-02 0.  1.
    8880022    1    1    2    0    0 -0.60734110149E+03 -0.75188412731E+03  0.19539333902E+02  0.97875757624E+03  0.15294330000E+03 0.  0.
    8880022    1    1    2    0    0  0.60734110149E+03  0.75188412731E+03 -0.53439859950E+03  0.11149737533E+04  0.15294330000E+03 0.  0.
<mgrwt>
<rscale>  0 0.97856252E+03</rscale>
<asrwt>0</asrwt>
<pdfrwt beam="1">  1        1 0.12145170E+00 0.97856252E+03</pdfrwt>
<pdfrwt beam="2">  1       -1 0.20066081E+00 0.97856252E+03</pdfrwt>
<totfact> 0.33861535E+00</totfact>
</mgrwt>
</event>
<event>
 4    1  0.1678003E-008  0.8376860E+03  0.7818608E-02  0.9507015E-01
         -1   -1    0    0    0  501 -0.00000000000E+00  0.00000000000E+00  0.14161134420E+04  0.14161134420E+04  0.50400000000E-02 0.  1.
          1   -1    0    0  501    0  0.00000000000E+00 -0.00000000000E+00 -0.15690781122E+04  0.15690781123E+04  0.50400000000E-02 0. -1.
    8880022    1    1    2    0    0  0.52240846027E+03  0.63672251708E+03  0.11581338066E+04  0.14293326171E+04  0.15294330000E+03 0.  0.
    8880022    1    1    2    0    0 -0.52240846027E+03 -0.63672251708E+03 -0.13110984769E+04  0.15558589372E+04  0.15294330000E+03 0.  0.
<mgrwt>
<rscale>  0 0.83768599E+03</rscale>
<asrwt>0</asrwt>
<pdfrwt beam="1">  1        1 0.24139663E+00 0.83768599E+03</pdfrwt>
<pdfrwt beam="2">  1       -1 0.21786361E+00 0.83768599E+03</pdfrwt>
<totfact> 0.69210922E-01</totfact>
</mgrwt>
</event>
<event>
 4    1  0.1678003E-008  0.7471637E+03  0.7818608E-02  0.9639811E-01
         -1   -1    0    0    0  501 -0.00000000000E+00  0.00000000000E+00  0.14621199511E+04  0.14621199511E+04  0.50400000000E-02 0.  1.
          1   -1    0    0  501    0  0.00000000000E+00 -0.00000000000E+00 -0.10917368235E+04  0.10917368235E+04  0.50400000000E-02 0. -1.
    8880022    1    1    2    0    0  0.24665147246E+03 -0.68849471092E+03  0.12148994310E+04  0.14262658224E+04  0.15294330000E+03 0.  0.
    8880022    1    1    2    0    0 -0.24665147246E+03  0.68849471092E+03 -0.84451630334E+03  0.11275909522E+04  0.15294330000E+03 0.  0.
<mgrwt>
<rscale>  0 0.74716368E+03</rscale>
<asrwt>0</asrwt>
<pdfrwt beam="1">  1        1 0.16795951E+00 0.74716368E+03</pdfrwt>
<pdfrwt beam="2">  1       -1 0.22494153E+00 0.74716368E+03</pdfrwt>
<totfact> 0.13760822E+00</totfact>
</mgrwt>
</event>
<event>
 4    1  0.1678003E-008  0.7052599E+03  0.7818608E-02  0.9708279E-01
         -1   -1    0    0    0  501 -0.00000000000E+00  0.00000000000E+00  0.28474424004E+03  0.28474424008E+03  0.50400000000E-02 0.  1.
          1   -1    0    0  501    0  0.00000000000E+00 -0.00000000000E+00 -0.20867222122E+04  0.20867222123E+04  0.50400000000E-02 0. -1.
    8880022    1    1    2    0    0 -0.61309152766E+03  0.31323904719E+03 -0.13795570214E+04  0.15493770200E+04  0.15294330000E+03 0.  0.
    8880022    1    1    2    0    0  0.61309152766E+03 -0.31323904719E+03 -0.42242095083E+03  0.82208943229E+03  0.15294330000E+03 0.  0.
<mgrwt>
<rscale>  0 0.70525993E+03</rscale>
<asrwt>0</asrwt>
<pdfrwt beam="1">  1        1 0.32103418E+00 0.70525993E+03</pdfrwt>
<pdfrwt beam="2">  1       -1 0.43806808E-01 0.70525993E+03</pdfrwt>
<totfact> 0.14095633E+01</totfact>
</mgrwt>
</event>
<event>
 4    1  0.1678003E-008  0.1946120E+03  0.7818608E-02  0.1154366E+00
          1   -1    0    0  501    0  0.00000000000E+00  0.00000000000E+00  0.47201936081E+03  0.47201936083E+03  0.50400000000E-02 0. -1.
         -1   -1    0    0    0  501 -0.00000000000E+00 -0.00000000000E+00 -0.38572972724E+03  0.38572972727E+03  0.50400000000E-02 0.  1.
    8880022    1    1    2    0    0  0.51971333692E+02  0.10854110331E+03 -0.33852560977E+03  0.39047846563E+03  0.15294330000E+03 0.  1.
    8880022    1    1    2    0    0 -0.51971333692E+02 -0.10854110331E+03  0.42481524334E+03  0.46727062247E+03  0.15294330000E+03 0.  0.
<mgrwt>
<rscale>  0 0.19461203E+03</rscale>
<asrwt>0</asrwt>
<pdfrwt beam="1">  1        1 0.72618364E-01 0.19461203E+03</pdfrwt>
<pdfrwt beam="2">  1       -1 0.59343035E-01 0.19461203E+03</pdfrwt>
<totfact> 0.14827283E+02</totfact>
</mgrwt>
</event>
<event>
 4    1  0.1678003E-008  0.3494401E+03  0.7818608E-02  0.1062845E+00
          1   -1    0    0  501    0  0.00000000000E+00  0.00000000000E+00  0.12230193850E+04  0.12230193850E+04  0.50400000000E-02 0. -1.
         -1   -1    0    0    0  501 -0.00000000000E+00 -0.00000000000E+00 -0.22709567090E+03  0.22709567096E+03  0.50400000000E-02 0.  1.
    8880022    1    1    2    0    0 -0.26438631647E+03 -0.16975447355E+03 -0.44792947130E+02  0.35229925739E+03  0.15294330000E+03 0.  0.
    8880022    1    1    2    0    0  0.26438631647E+03  0.16975447355E+03  0.10407166612E+04  0.10978157986E+04  0.15294330000E+03 0.  0.
<mgrwt>
<rscale>  0 0.34944006E+03</rscale>
<asrwt>0</asrwt>
<pdfrwt beam="1">  1        1 0.18815683E+00 0.34944006E+03</pdfrwt>
<pdfrwt beam="2">  1       -1 0.34937796E-01 0.34944006E+03</pdfrwt>
<totfact> 0.86154962E+01</totfact>
</mgrwt>
</event>
<event>
 4    1  0.1678003E-008  0.3959280E+03  0.7818608E-02  0.1045199E+00
         -1   -1    0    0    0  501 -0.00000000000E+00  0.00000000000E+00  0.24765182115E+03  0.24765182120E+03  0.50400000000E-02 0.  1.
          1   -1    0    0  501    0  0.00000000000E+00 -0.00000000000E+00 -0.79477923015E+03  0.79477923017E+03  0.50400000000E-02 0. -1.
    8880022    1    1    2    0    0 -0.27051453870E+03 -0.24533493910E+03 -0.50873288793E+03  0.64464575720E+03  0.15294330000E+03 0. -1.
    8880022    1    1    2    0    0  0.27051453870E+03  0.24533493910E+03 -0.38394521070E+02  0.39778529417E+03  0.15294330000E+03 0.  0.
<mgrwt>
<rscale>  0 0.39592803E+03</rscale>
<asrwt>0</asrwt>
<pdfrwt beam="1">  1        1 0.12227373E+00 0.39592803E+03</pdfrwt>
<pdfrwt beam="2">  1       -1 0.38100281E-01 0.39592803E+03</pdfrwt>
<totfact> 0.15572921E+02</totfact>
</mgrwt>
</event>
<event>
 4    1  0.1678003E-008  0.8776930E+03  0.7818608E-02  0.9453904E-01
          1   -1    0    0  501    0  0.00000000000E+00  0.00000000000E+00  0.48379549747E+03  0.48379549749E+03  0.50400000000E-02 0. -1.
         -1   -1    0    0    0  501 -0.00000000000E+00 -0.00000000000E+00 -0.32528005255E+04  0.32528005255E+04  0.50400000000E-02 0.  1.
    8880022    1    1    2    0    0  0.52873513565E+03  0.68366111401E+03 -0.27193684027E+04  0.28575005731E+04  0.15294330000E+03 0.  0.
    8880022    1    1    2    0    0 -0.52873513565E+03 -0.68366111401E+03 -0.49636625322E+02  0.87909544992E+03  0.15294330000E+03 0.  0.
<mgrwt>
<rscale>  0 0.87769301E+03</rscale>
<asrwt>0</asrwt>
<pdfrwt beam="1">  1        1 0.74430079E-01 0.87769301E+03</pdfrwt>
<pdfrwt beam="2">  1       -1 0.50043084E+00 0.87769301E+03</pdfrwt>
<totfact> 0.71476023E-02</totfact>
</mgrwt>
</event>
<event>
 4    1  0.1678003E-008  0.3667239E+03  0.7818608E-02  0.1055953E+00
          1   -1    0    0  501    0  0.00000000000E+00  0.00000000000E+00  0.72527974289E+03  0.72527974291E+03  0.50400000000E-02 0. -1.
         -1   -1    0    0    0  501 -0.00000000000E+00 -0.00000000000E+00 -0.44808030180E+03  0.44808030183E+03  0.50400000000E-02 0.  1.
    8880022    1    1    2    0    0 -0.21969706206E+03 -0.25065506999E+03  0.58777395997E+03  0.69279480673E+03  0.15294330000E+03 0.  0.
    8880022    1    1    2    0    0  0.21969706206E+03  0.25065506999E+03 -0.31057451888E+03  0.48056523801E+03  0.15294330000E+03 0.  0.
<mgrwt>
<rscale>  0 0.36672390E+03</rscale>
<asrwt>0</asrwt>
<pdfrwt beam="1">  1        1 0.11158150E+00 0.36672390E+03</pdfrwt>
<pdfrwt beam="2">  1       -1 0.68935431E-01 0.36672390E+03</pdfrwt>
<totfact> 0.58847523E+01</totfact>
</mgrwt>
</event>
<event>
 4    1  0.1678003E-008  0.2591030E+03  0.7818608E-02  0.1107683E+00
          1   -1    0    0  501    0  0.00000000000E+00  0.00000000000E+00  0.72414357879E+03  0.72414357880E+03  0.50400000000E-02 0. -1.
         -1   -1    0    0    0  501 -0.00000000000E+00 -0.00000000000E+00 -0.22914148404E+03  0.22914148410E+03  0.50400000000E-02 0.  1.
    8880022    1    1    2    0    0  0.71104521727E+02  0.19668971514E+03 -0.12028939034E+03  0.28566394154E+03  0.15294330000E+03 0.  0.
    8880022    1    1    2    0    0 -0.71104521727E+02 -0.19668971514E+03  0.61529148508E+03  0.66762112136E+03  0.15294330000E+03 0.  0.
<mgrwt>
<rscale>  0 0.25910297E+03</rscale>
<asrwt>0</asrwt>
<pdfrwt beam="1">  1        1 0.11140671E+00 0.25910297E+03</pdfrwt>
<pdfrwt beam="2">  1       -1 0.35252536E-01 0.25910297E+03</pdfrwt>
<totfact> 0.20948027E+02</totfact>
</mgrwt>
</event>
<event>
 4    1  0.1678003E-008  0.2985750E+03  0.7818608E-02  0.1085955E+00
         -1   -1    0    0    0  501 -0.00000000000E+00  0.00000000000E+00  0.30253027063E+03  0.30253027067E+03  0.50400000000E-02 0.  1.
          1   -1    0    0  501    0  0.00000000000E+00 -0.00000000000E+00 -0.82037259262E+03  0.82037259264E+03  0.50400000000E-02 0. -1.
    8880022    1    1    2    0    0 -0.21509469067E+03 -0.13960526974E+03  0.19052338471E+03  0.35418380882E+03  0.15294330000E+03 0.  1.
    8880022    1    1    2    0    0  0.21509469067E+03  0.13960526974E+03 -0.70836570670E+03  0.76871905449E+03  0.15294330000E+03 0.  0.
<mgrwt>
<rscale>  0 0.29857497E+03</rscale>
<asrwt>0</asrwt>
<pdfrwt beam="1">  1        1 0.12621117E+00 0.29857497E+03</pdfrwt>
<pdfrwt beam="2">  1       -1 0.46543119E-01 0.29857497E+03</pdfrwt>
<totfact> 0.10472721E+02</totfact>
</mgrwt>
</event>
<event>
 4    1  0.1678003E-008  0.5380962E+03  0.7818608E-02  0.1004287E+00
         -1   -1    0    0    0  501 -0.00000000000E+00  0.00000000000E+00  0.24328667231E+03  0.24328667237E+03  0.50400000000E-02 0.  1.
          1   -1    0    0  501    0  0.00000000000E+00 -0.00000000000E+00 -0.21398091687E+04  0.21398091687E+04  0.50400000000E-02 0. -1.
    8880022    1    1    2    0    0  0.39899699661E+03 -0.32704315862E+03 -0.15446687874E+03  0.55982809910E+03  0.15294330000E+03 0.  0.
    8880022    1    1    2    0    0 -0.39899699661E+03  0.32704315862E+03 -0.17420556176E+04  0.18232677419E+04  0.15294330000E+03 0.  0.
<mgrwt>
<rscale>  0 0.53809617E+03</rscale>
<asrwt>0</asrwt>
<pdfrwt beam="1">  1        1 0.32920140E+00 0.53809617E+03</pdfrwt>
<pdfrwt beam="2">  1       -1 0.37428720E-01 0.53809617E+03</pdfrwt>
<totfact> 0.17825591E+01</totfact>
</mgrwt>
</event>
<event>
 4    1  0.1678003E-008  0.2183303E+03  0.7818608E-02  0.1135134E+00
         -1   -1    0    0    0  501 -0.00000000000E+00  0.00000000000E+00  0.88969765595E+02  0.88969765737E+02  0.50400000000E-02 0.  1.
          1   -1    0    0  501    0  0.00000000000E+00 -0.00000000000E+00 -0.12538245673E+04  0.12538245673E+04  0.50400000000E-02 0. -1.
    8880022    1    1    2    0    0 -0.10569394741E+03  0.11447815790E+03 -0.10905133525E+04  0.11121544335E+04  0.15294330000E+03 0.  0.
    8880022    1    1    2    0    0  0.10569394741E+03 -0.11447815790E+03 -0.74341449261E+02  0.23063989951E+03  0.15294330000E+03 0.  1.
<mgrwt>
<rscale>  0 0.21833028E+03</rscale>
<asrwt>0</asrwt>
<pdfrwt beam="1">  1        1 0.19289607E+00 0.21833028E+03</pdfrwt>
<pdfrwt beam="2">  1       -1 0.13687657E-01 0.21833028E+03</pdfrwt>
<totfact> 0.39539452E+02</totfact>
</mgrwt>
</event>
<event>
 4    1  0.1678003E-008  0.6744750E+03  0.7818608E-02  0.9761907E-01
          1   -1    0    0  501    0  0.00000000000E+00  0.00000000000E+00  0.11056980345E+04  0.11056980345E+04  0.50400000000E-02 0. -1.
         -1   -1    0    0    0  501 -0.00000000000E+00 -0.00000000000E+00 -0.59782878430E+03  0.59782878433E+03  0.50400000000E-02 0.  1.
    8880022    1    1    2    0    0 -0.63289688493E+03  0.17597292205E+03 -0.22167748030E+03  0.70997006594E+03  0.15294330000E+03 0.  0.
    8880022    1    1    2    0    0  0.63289688493E+03 -0.17597292205E+03  0.72954673050E+03  0.99355675291E+03  0.15294330000E+03 0.  0.
<mgrwt>
<rscale>  0 0.67447505E+03</rscale>
<asrwt>0</asrwt>
<pdfrwt beam="1">  1        1 0.17010739E+00 0.67447505E+03</pdfrwt>
<pdfrwt beam="2">  1       -1 0.91973659E-01 0.67447505E+03</pdfrwt>
<totfact> 0.15065703E+01</totfact>
</mgrwt>
</event>
<event>
 4    1  0.1678003E-008  0.1919952E+03  0.7818608E-02  0.1156674E+00
          1   -1    0    0  501    0  0.00000000000E+00  0.00000000000E+00  0.26345241177E+03  0.26345241182E+03  0.50400000000E-02 0. -1.
         -1   -1    0    0    0  501 -0.00000000000E+00 -0.00000000000E+00 -0.21882656799E+03  0.21882656805E+03  0.50400000000E-02 0.  1.
    8880022    1    1    2    0    0  0.86319912540E+02 -0.77584527883E+02 -0.12248961377E+03  0.22774074024E+03  0.15294330000E+03 0.  0.
    8880022    1    1    2    0    0 -0.86319912540E+02  0.77584527883E+02  0.16711545755E+03  0.25453823963E+03  0.15294330000E+03 0.  0.
<mgrwt>
<rscale>  0 0.19199515E+03</rscale>
<asrwt>0</asrwt>
<pdfrwt beam="1">  1        1 0.40531140E-01 0.19199515E+03</pdfrwt>
<pdfrwt beam="2">  1       -1 0.33665626E-01 0.19199515E+03</pdfrwt>
<totfact> 0.86456225E+02</totfact>
</mgrwt>
</event>
<event>
 4    1  0.1678003E-008  0.3796007E+03  0.7818608E-02  0.1051081E+00
          1   -1    0    0  501    0  0.00000000000E+00  0.00000000000E+00  0.86214828050E+03  0.86214828051E+03  0.50400000000E-02 0. -1.
         -1   -1    0    0    0  501 -0.00000000000E+00 -0.00000000000E+00 -0.53520705591E+03  0.53520705593E+03  0.50400000000E-02 0.  1.
    8880022    1    1    2    0    0  0.26096029613E+03 -0.22935721967E+03  0.74287440919E+03  0.83424160242E+03  0.15294330000E+03 0.  0.
    8880022    1    1    2    0    0 -0.26096029613E+03  0.22935721967E+03 -0.41593318460E+03  0.56311373402E+03  0.15294330000E+03 0.  1.
<mgrwt>
<rscale>  0 0.37960066E+03</rscale>
<asrwt>0</asrwt>
<pdfrwt beam="1">  1        1 0.13263820E+00 0.37960066E+03</pdfrwt>
<pdfrwt beam="2">  1       -1 0.82339547E-01 0.37960066E+03</pdfrwt>
<totfact> 0.31114301E+01</totfact>
</mgrwt>
</event>
<event>
 4    1  0.1678003E-008  0.3679238E+03  0.7818608E-02  0.1055490E+00
         -1   -1    0    0    0  501 -0.00000000000E+00  0.00000000000E+00  0.44437453247E+03  0.44437453250E+03  0.50400000000E-02 0.  1.
          1   -1    0    0  501    0  0.00000000000E+00 -0.00000000000E+00 -0.70839140461E+03  0.70839140463E+03  0.50400000000E-02 0. -1.
    8880022    1    1    2    0    0 -0.25351510747E+03 -0.21841785639E+03 -0.56715863659E+03  0.67604499982E+03  0.15294330000E+03 0.  0.
    8880022    1    1    2    0    0  0.25351510747E+03  0.21841785639E+03  0.30314176444E+03  0.47672093731E+03  0.15294330000E+03 0.  0.
<mgrwt>
<rscale>  0 0.36792380E+03</rscale>
<asrwt>0</asrwt>
<pdfrwt beam="1">  1        1 0.10898329E+00 0.36792380E+03</pdfrwt>
<pdfrwt beam="2">  1       -1 0.68365313E-01 0.36792380E+03</pdfrwt>
<totfact> 0.61965423E+01</totfact>
</mgrwt>
</event>
<event>
 4    1  0.1678003E-008  0.2006231E+03  0.7818608E-02  0.1149214E+00
          1   -1    0    0  501    0  0.00000000000E+00  0.00000000000E+00  0.72510390742E+03  0.72510390744E+03  0.50400000000E-02 0. -1.
         -1   -1    0    0    0  501 -0.00000000000E+00 -0.00000000000E+00 -0.89894517393E+03  0.89894517394E+03  0.50400000000E-02 0.  1.
    8880022    1    1    2    0    0  0.12785553940E+03  0.22604090972E+02  0.69963368367E+03  0.72783028807E+03  0.15294330000E+03 0. -1.
    8880022    1    1    2    0    0 -0.12785553940E+03 -0.22604090972E+02 -0.87347495018E+03  0.89621879332E+03  0.15294330000E+03 0.  0.
<mgrwt>
<rscale>  0 0.20062312E+03</rscale>
<asrwt>0</asrwt>
<pdfrwt beam="1">  1        1 0.11155445E+00 0.20062312E+03</pdfrwt>
<pdfrwt beam="2">  1       -1 0.13829926E+00 0.20062312E+03</pdfrwt>
<totfact> 0.13093378E+01</totfact>
</mgrwt>
</event>
<event>
 4    1  0.1678003E-008  0.1295614E+04  0.7818608E-02  0.9033051E-01
          1   -1    0    0  501    0  0.00000000000E+00  0.00000000000E+00  0.25154371067E+04  0.25154371067E+04  0.50400000000E-02 0. -1.
         -1   -1    0    0    0  501 -0.00000000000E+00 -0.00000000000E+00 -0.10895963594E+04  0.10895963595E+04  0.50400000000E-02 0.  1.
    8880022    1    1    2    0    0  0.63584866150E+03 -0.11184453383E+04 -0.40920678981E+03  0.13586998731E+04  0.15294330000E+03 0.  0.
    8880022    1    1    2    0    0 -0.63584866150E+03  0.11184453383E+04  0.18350475370E+04  0.22463335931E+04  0.15294330000E+03 0.  0.
<mgrwt>
<rscale>  0 0.12956138E+04</rscale>
<asrwt>0</asrwt>
<pdfrwt beam="1">  1        1 0.38699032E+00 0.12956138E+04</pdfrwt>
<pdfrwt beam="2">  1       -1 0.16763021E+00 0.12956138E+04</pdfrwt>
<totfact> 0.32942991E-01</totfact>
</mgrwt>
</event>
<event>
 4    1  0.1678003E-008  0.5378620E+03  0.7818608E-02  0.1004343E+00
          1   -1    0    0  501    0  0.00000000000E+00  0.00000000000E+00  0.14488091450E+04  0.14488091450E+04  0.50400000000E-02 0. -1.
         -1   -1    0    0    0  501 -0.00000000000E+00 -0.00000000000E+00 -0.10517043898E+04  0.10517043898E+04  0.50400000000E-02 0.  1.
    8880022    1    1    2    0    0  0.51077257508E+03  0.70818140631E+02  0.13238796998E+04  0.14289691897E+04  0.15294330000E+03 0.  0.
    8880022    1    1    2    0    0 -0.51077257508E+03 -0.70818140631E+02 -0.92677494463E+03  0.10715443451E+04  0.15294330000E+03 0.  1.
<mgrwt>
<rscale>  0 0.53786196E+03</rscale>
<asrwt>0</asrwt>
<pdfrwt beam="1">  1        1 0.22289371E+00 0.53786196E+03</pdfrwt>
<pdfrwt beam="2">  1       -1 0.16180068E+00 0.53786196E+03</pdfrwt>
<totfact> 0.22062748E+00</totfact>
</mgrwt>
</event>
<event>
 4    1  0.1678003E-008  0.2855043E+03  0.7818608E-02  0.1092720E+00
          1   -1    0    0  501    0  0.00000000000E+00  0.00000000000E+00  0.38965200322E+03  0.38965200325E+03  0.50400000000E-02 0. -1.
         -1   -1    0    0    0  501 -0.00000000000E+00 -0.00000000000E+00 -0.62928555489E+03  0.62928555491E+03  0.50400000000E-02 0.  1.
    8880022    1    1    2    0    0  0.23747796903E+03 -0.41536522134E+02 -0.53607790166E+03  0.60736499579E+03  0.15294330000E+03 0.  0.
    8880022    1    1    2    0    0 -0.23747796903E+03  0.41536522134E+02  0.29644434999E+03  0.41157256238E+03  0.15294330000E+03 0.  0.
<mgrwt>
<rscale>  0 0.28550433E+03</rscale>
<asrwt>0</asrwt>
<pdfrwt beam="1">  1        1 0.59946462E-01 0.28550433E+03</pdfrwt>
<pdfrwt beam="2">  1       -1 0.96813162E-01 0.28550433E+03</pdfrwt>
<totfact> 0.68537128E+01</totfact>
</mgrwt>
</event>
<event>
 4    1  0.1678003E-008  0.5200030E+03  0.7818608E-02  0.1008686E+00
          1   -1    0    0  501    0  0.00000000000E+00  0.00000000000E+00  0.21264242680E+04  0.21264242680E+04  0.50400000000E-02 0. -1.
         -1   -1    0    0    0  501 -0.00000000000E+00 -0.00000000000E+00 -0.21315808635E+03  0.21315808641E+03  0.50400000000E-02 0.  1.
    8880022    1    1    2    0    0 -0.30935104343E+03  0.38899021011E+03  0.16996411472E+04  0.17774091071E+04  0.15294330000E+03 0.  0.
    8880022    1    1    2    0    0  0.30935104343E+03 -0.38899021011E+03  0.21362503440E+03  0.56217324729E+03  0.15294330000E+03 0.  0.
<mgrwt>
<rscale>  0 0.52000299E+03</rscale>
<asrwt>0</asrwt>
<pdfrwt beam="1">  1        1 0.32714221E+00 0.52000299E+03</pdfrwt>
<pdfrwt beam="2">  1       -1 0.32793551E-01 0.52000299E+03</pdfrwt>
<totfact> 0.23074993E+01</totfact>
</mgrwt>
</event>
<event>
 4    1  0.1678003E-008  0.2265222E+03  0.7818608E-02  0.1129112E+00
         -1   -1    0    0    0  501 -0.00000000000E+00  0.00000000000E+00  0.68472891566E+02  0.68472891751E+02  0.50400000000E-02 0.  1.
          1   -1    0    0  501    0  0.00000000000E+00 -0.00000000000E+00 -0.13567801493E+04  0.13567801493E+04  0.50400000000E-02 0. -1.
    8880022    1    1    2    0    0  0.37744948054E+02  0.16277581458E+03 -0.11209624121E+04  0.11436210164E+04  0.15294330000E+03 0.  0.
    8880022    1    1    2    0    0 -0.37744948054E+02 -0.16277581458E+03 -0.16734484566E+03  0.28163202463E+03  0.15294330000E+03 0.  1.
<mgrwt>
<rscale>  0 0.22652218E+03</rscale>
<asrwt>0</asrwt>
<pdfrwt beam="1">  1        1 0.20873539E+00 0.22652218E+03</pdfrwt>
<pdfrwt beam="2">  1       -1 0.10534292E-01 0.22652218E+03</pdfrwt>
<totfact> 0.50598647E+02</totfact>
</mgrwt>
</event>
<event>
 4    1  0.1678003E-008  0.5880898E+03  0.7818608E-02  0.9930429E-01
          1   -1    0    0  501    0  0.00000000000E+00  0.00000000000E+00  0.88879892310E+03  0.88879892312E+03  0.50400000000E-02 0. -1.
         -1   -1    0    0    0  501 -0.00000000000E+00 -0.00000000000E+00 -0.61632094356E+03  0.61632094358E+03  0.50400000000E-02 0.  1.
    8880022    1    1    2    0    0 -0.31222714668E+02  0.56699476702E+03 -0.32068351049E+03  0.66984139217E+03  0.15294330000E+03 0.  0.
    8880022    1    1    2    0    0  0.31222714668E+02 -0.56699476702E+03  0.59316149003E+03  0.83527847453E+03  0.15294330000E+03 0.  0.
<mgrwt>
<rscale>  0 0.58808977E+03</rscale>
<asrwt>0</asrwt>
<pdfrwt beam="1">  1        1 0.13673830E+00 0.58808977E+03</pdfrwt>
<pdfrwt beam="2">  1       -1 0.94818607E-01 0.58808977E+03</pdfrwt>
<totfact> 0.20994889E+01</totfact>
</mgrwt>
</event>
<event>
 4    1  0.1678003E-008  0.1133582E+04  0.7818608E-02  0.9173065E-01
         -1   -1    0    0    0  501 -0.00000000000E+00  0.00000000000E+00  0.73732484485E+03  0.73732484486E+03  0.50400000000E-02 0.  1.
          1   -1    0    0  501    0  0.00000000000E+00 -0.00000000000E+00 -0.30835444405E+04  0.30835444405E+04  0.50400000000E-02 0. -1.
    8880022    1    1    2    0    0 -0.94951117659E+03 -0.60003674055E+03 -0.24328489730E+04  0.26839823664E+04  0.15294330000E+03 0.  0.
    8880022    1    1    2    0    0  0.94951117659E+03  0.60003674055E+03  0.86629377393E+02  0.11368869190E+04  0.15294330000E+03 0.  0.
<mgrwt>
<rscale>  0 0.11335816E+04</rscale>
<asrwt>0</asrwt>
<pdfrwt beam="1">  1        1 0.47439145E+00 0.11335816E+04</pdfrwt>
<pdfrwt beam="2">  1       -1 0.11343459E+00 0.11335816E+04</pdfrwt>
<totfact> 0.37054666E-01</totfact>
</mgrwt>
</event>
<event>
 4    1  0.1678003E-008  0.1576001E+04  0.7818608E-02  0.8835429E-01
          1   -1    0    0  501    0  0.00000000000E+00  0.00000000000E+00  0.10963010702E+04  0.10963010702E+04  0.50400000000E-02 0. -1.
         -1   -1    0    0    0  501 -0.00000000000E+00 -0.00000000000E+00 -0.27234144336E+04  0.27234144336E+04  0.50400000000E-02 0.  1.
    8880022    1    1    2    0    0  0.51004441258E+02  0.15677328855E+04 -0.30507607323E+02  0.15762963618E+04  0.15294330000E+03 0.  0.
    8880022    1    1    2    0    0 -0.51004441258E+02 -0.15677328855E+04 -0.15966057560E+04  0.22434191419E+04  0.15294330000E+03 0.  0.
<mgrwt>
<rscale>  0 0.15760011E+04</rscale>
<asrwt>0</asrwt>
<pdfrwt beam="1">  1        1 0.16866170E+00 0.15760011E+04</pdfrwt>
<pdfrwt beam="2">  1       -1 0.41898683E+00 0.15760011E+04</pdfrwt>
<totfact> 0.63707841E-02</totfact>
</mgrwt>
</event>
<event>
 4    1  0.1678003E-008  0.8554979E+03  0.7818608E-02  0.9482987E-01
         -1   -1    0    0    0  501 -0.00000000000E+00  0.00000000000E+00  0.15929954697E+04  0.15929954697E+04  0.50400000000E-02 0.  1.
          1   -1    0    0  501    0  0.00000000000E+00 -0.00000000000E+00 -0.52169707474E+03  0.52169707476E+03  0.50400000000E-02 0. -1.
    8880022    1    1    2    0    0  0.73355428559E+03 -0.41277480627E+03  0.90092647416E+03  0.12423949032E+04  0.15294330000E+03 0.  0.
    8880022    1    1    2    0    0 -0.73355428559E+03  0.41277480627E+03  0.17037192082E+03  0.87229764130E+03  0.15294330000E+03 0.  0.
<mgrwt>
<rscale>  0 0.85549786E+03</rscale>
<asrwt>0</asrwt>
<pdfrwt beam="1">  1        1 0.80261088E-01 0.85549786E+03</pdfrwt>
<pdfrwt beam="2">  1       -1 0.24507623E+00 0.85549786E+03</pdfrwt>
<totfact> 0.32196411E+00</totfact>
</mgrwt>
</event>
<event>
 4    1  0.1678003E-008  0.4471065E+03  0.7818608E-02  0.1028588E+00
          1   -1    0    0  501    0  0.00000000000E+00  0.00000000000E+00  0.57721964939E+03  0.57721964941E+03  0.50400000000E-02 0. -1.
         -1   -1    0    0    0  501 -0.00000000000E+00 -0.00000000000E+00 -0.46766246532E+03  0.46766246535E+03  0.50400000000E-02 0.  1.
    8880022    1    1    2    0    0 -0.37125780318E+03 -0.19667282443E+03 -0.21133851777E+03  0.49453834876E+03  0.15294330000E+03 0.  0.
    8880022    1    1    2    0    0  0.37125780318E+03  0.19667282443E+03  0.32089570184E+03  0.55034376599E+03  0.15294330000E+03 0.  0.
<mgrwt>
<rscale>  0 0.44710649E+03</rscale>
<asrwt>0</asrwt>
<pdfrwt beam="1">  1        1 0.88803023E-01 0.44710649E+03</pdfrwt>
<pdfrwt beam="2">  1       -1 0.71948071E-01 0.44710649E+03</pdfrwt>
<totfact> 0.74182062E+01</totfact>
</mgrwt>
</event>
<event>
 4    1  0.1678003E-008  0.1001990E+04  0.7818608E-02  0.9306365E-01
         -1   -1    0    0    0  501 -0.00000000000E+00  0.00000000000E+00  0.13826142122E+04  0.13826142123E+04  0.50400000000E-02 0.  1.
          1   -1    0    0  501    0  0.00000000000E+00 -0.00000000000E+00 -0.18164190952E+04  0.18164190952E+04  0.50400000000E-02 0. -1.
    8880022    1    1    2    0    0 -0.47918851945E+02  0.98908862370E+03 -0.14561205503E+04  0.17675608142E+04  0.15294330000E+03 0.  0.
    8880022    1    1    2    0    0  0.47918851945E+02 -0.98908862370E+03  0.10223156674E+04  0.14314724932E+04  0.15294330000E+03 0.  0.
<mgrwt>
<rscale>  0 0.10019901E+04</rscale>
<asrwt>0</asrwt>
<pdfrwt beam="1">  1        1 0.27944909E+00 0.10019901E+04</pdfrwt>
<pdfrwt beam="2">  1       -1 0.21270988E+00 0.10019901E+04</pdfrwt>
<totfact> 0.49464991E-01</totfact>
</mgrwt>
</event>
<event>
 4    1  0.1678003E-008  0.1873987E+03  0.7818608E-02  0.1160829E+00
          1   -1    0    0  501    0  0.00000000000E+00  0.00000000000E+00  0.30918045053E+03  0.30918045057E+03  0.50400000000E-02 0. -1.
         -1   -1    0    0    0  501 -0.00000000000E+00 -0.00000000000E+00 -0.16022097067E+03  0.16022097075E+03  0.50400000000E-02 0.  1.
    8880022    1    1    2    0    0 -0.84513383117E+02  0.67706103627E+02  0.20110342128E+03  0.27488337065E+03  0.15294330000E+03 0.  0.
    8880022    1    1    2    0    0  0.84513383117E+02 -0.67706103627E+02 -0.52143941417E+02  0.19451805067E+03  0.15294330000E+03 0.  0.
<mgrwt>
<rscale>  0 0.18739872E+03</rscale>
<asrwt>0</asrwt>
<pdfrwt beam="1">  1        1 0.47566223E-01 0.18739872E+03</pdfrwt>
<pdfrwt beam="2">  1       -1 0.24649380E-01 0.18739872E+03</pdfrwt>
<totfact> 0.11967361E+03</totfact>
</mgrwt>
</event>
<event>
 4    1  0.1678003E-008  0.3121132E+03  0.7818608E-02  0.1079337E+00
         -1   -1    0    0    0  501 -0.00000000000E+00  0.00000000000E+00  0.76102688168E+03  0.76102688169E+03  0.50400000000E-02 0.  1.
          1   -1    0    0  501    0  0.00000000000E+00 -0.00000000000E+00 -0.54027723864E+03  0.54027723866E+03  0.50400000000E-02 0. -1.
    8880022    1    1    2    0    0 -0.26571232844E+03  0.58480473078E+02 -0.45799750531E+03  0.55423494576E+03  0.15294330000E+03 0. -1.
    8880022    1    1    2    0    0  0.26571232844E+03 -0.58480473078E+02  0.67874714835E+03  0.74706917459E+03  0.15294330000E+03 0.  0.
<mgrwt>
<rscale>  0 0.31211322E+03</rscale>
<asrwt>0</asrwt>
<pdfrwt beam="1">  1        1 0.83119575E-01 0.31211322E+03</pdfrwt>
<pdfrwt beam="2">  1       -1 0.11708106E+00 0.31211322E+03</pdfrwt>
<totfact> 0.28644560E+01</totfact>
</mgrwt>
</event>
<event>
 4    1  0.1678003E-008  0.3307679E+03  0.7818608E-02  0.1070798E+00
          1   -1    0    0  501    0  0.00000000000E+00  0.00000000000E+00  0.15038639186E+04  0.15038639186E+04  0.50400000000E-02 0. -1.
         -1   -1    0    0    0  501 -0.00000000000E+00 -0.00000000000E+00 -0.30227380257E+03  0.30227380262E+03  0.50400000000E-02 0.  1.
    8880022    1    1    2    0    0  0.13426511234E+03  0.26074633849E+03  0.13877206027E+04  0.14265959125E+04  0.15294330000E+03 0.  0.
    8880022    1    1    2    0    0 -0.13426511234E+03 -0.26074633849E+03 -0.18613048672E+03  0.37954180867E+03  0.15294330000E+03 0.  0.
<mgrwt>
<rscale>  0 0.33076793E+03</rscale>
<asrwt>0</asrwt>
<pdfrwt beam="1">  1        1 0.23136368E+00 0.33076793E+03</pdfrwt>
<pdfrwt beam="2">  1       -1 0.46503662E-01 0.33076793E+03</pdfrwt>
<totfact> 0.33308775E+01</totfact>
</mgrwt>
</event>
<event>
 4    1  0.1678003E-008  0.7190979E+03  0.7818608E-02  0.9685118E-01
          1   -1    0    0  501    0  0.00000000000E+00  0.00000000000E+00  0.11153346887E+04  0.11153346887E+04  0.50400000000E-02 0. -1.
         -1   -1    0    0    0  501 -0.00000000000E+00 -0.00000000000E+00 -0.51295599550E+03  0.51295599553E+03  0.50400000000E-02 0.  1.
    8880022    1    1    2    0    0  0.70253457295E+03  0.12459944072E+02  0.48723091010E+02  0.72074660527E+03  0.15294330000E+03 0.  0.
    8880022    1    1    2    0    0 -0.70253457295E+03 -0.12459944072E+02  0.55365560216E+03  0.90754407893E+03  0.15294330000E+03 0.  0.
<mgrwt>
<rscale>  0 0.71909786E+03</rscale>
<asrwt>0</asrwt>
<pdfrwt beam="1">  1        1 0.17158995E+00 0.71909786E+03</pdfrwt>
<pdfrwt beam="2">  1       -1 0.78916308E-01 0.71909786E+03</pdfrwt>
<totfact> 0.20503149E+01</totfact>
</mgrwt>
</event>
<event>
 4    1  0.1678003E-008  0.4486331E+03  0.7818608E-02  0.1028130E+00
          1   -1    0    0  501    0  0.00000000000E+00  0.00000000000E+00  0.57441355971E+03  0.57441355973E+03  0.50400000000E-02 0. -1.
         -1   -1    0    0    0  501 -0.00000000000E+00 -0.00000000000E+00 -0.41040662737E+03  0.41040662740E+03  0.50400000000E-02 0.  1.
    8880022    1    1    2    0    0 -0.34308965192E+03  0.24529475625E+03 -0.10629085027E+03  0.46105251822E+03  0.15294330000E+03 0.  1.
    8880022    1    1    2    0    0  0.34308965192E+03 -0.24529475625E+03  0.27029778261E+03  0.52376766891E+03  0.15294330000E+03 0.  0.
<mgrwt>
<rscale>  0 0.44863312E+03</rscale>
<asrwt>0</asrwt>
<pdfrwt beam="1">  1        1 0.88371317E-01 0.44863312E+03</pdfrwt>
<pdfrwt beam="2">  1       -1 0.63139481E-01 0.44863312E+03</pdfrwt>
<totfact> 0.97054556E+01</totfact>
</mgrwt>
</event>
<event>
 4    1  0.1678003E-008  0.6225324E+03  0.7818608E-02  0.9859731E-01
         -1   -1    0    0    0  501 -0.00000000000E+00  0.00000000000E+00  0.50490330570E+03  0.50490330573E+03  0.50400000000E-02 0.  1.
          1   -1    0    0  501    0  0.00000000000E+00 -0.00000000000E+00 -0.13839155966E+04  0.13839155966E+04  0.50400000000E-02 0. -1.
    8880022    1    1    2    0    0 -0.20046062001E+02 -0.60311944886E+03  0.19075293451E+03  0.65110156599E+03  0.15294330000E+03 0.  0.
    8880022    1    1    2    0    0  0.20046062001E+02  0.60311944886E+03 -0.10697652254E+04  0.12377173364E+04  0.15294330000E+03 0.  0.
<mgrwt>
<rscale>  0 0.62253238E+03</rscale>
<asrwt>0</asrwt>
<pdfrwt beam="1">  1        1 0.21291009E+00 0.62253238E+03</pdfrwt>
<pdfrwt beam="2">  1       -1 0.77677432E-01 0.62253238E+03</pdfrwt>
<totfact> 0.13825919E+01</totfact>
</mgrwt>
</event>
<event>
 4    1  0.1678003E-008  0.5976178E+03  0.7818608E-02  0.9910361E-01
         -1   -1    0    0    0  501 -0.00000000000E+00  0.00000000000E+00  0.12579535058E+04  0.12579535058E+04  0.50400000000E-02 0.  1.
          1   -1    0    0  501    0  0.00000000000E+00 -0.00000000000E+00 -0.93664942548E+03  0.93664942549E+03  0.50400000000E-02 0. -1.
    8880022    1    1    2    0    0 -0.43503031648E+03  0.38013676225E+03 -0.75537221626E+03  0.96318958279E+03  0.15294330000E+03 0.  0.
    8880022    1    1    2    0    0  0.43503031648E+03 -0.38013676225E+03  0.10766762966E+04  0.12314133485E+04  0.15294330000E+03 0.  0.
<mgrwt>
<rscale>  0 0.59761776E+03</rscale>
<asrwt>0</asrwt>
<pdfrwt beam="1">  1        1 0.14409991E+00 0.59761776E+03</pdfrwt>
<pdfrwt beam="2">  1       -1 0.19353131E+00 0.59761776E+03</pdfrwt>
<totfact> 0.30365331E+00</totfact>
</mgrwt>
</event>
<event>
 4    1  0.1678003E-008  0.4481512E+03  0.7818608E-02  0.1028275E+00
         -1   -1    0    0    0  501 -0.00000000000E+00  0.00000000000E+00  0.23866816654E+03  0.23866816660E+03  0.50400000000E-02 0.  1.
          1   -1    0    0  501    0  0.00000000000E+00 -0.00000000000E+00 -0.12076253783E+04  0.12076253783E+04  0.50400000000E-02 0. -1.
    8880022    1    1    2    0    0  0.25217497534E+03  0.33742496626E+03 -0.88265427117E+03  0.98990809749E+03  0.15294330000E+03 0.  0.
    8880022    1    1    2    0    0 -0.25217497534E+03 -0.33742496626E+03 -0.86302940582E+02  0.45638544741E+03  0.15294330000E+03 0.  0.
<mgrwt>
<rscale>  0 0.44815118E+03</rscale>
<asrwt>0</asrwt>
<pdfrwt beam="1">  1        1 0.18578852E+00 0.44815118E+03</pdfrwt>
<pdfrwt beam="2">  1       -1 0.36718180E-01 0.44815118E+03</pdfrwt>
<totfact> 0.79549254E+01</totfact>
</mgrwt>
</event>
<event>
 4    1  0.1678003E-008  0.1327689E+04  0.7818608E-02  0.9007891E-01
          1   -1    0    0  501    0  0.00000000000E+00  0.00000000000E+00  0.13826560235E+04  0.13826560235E+04  0.50400000000E-02 0. -1.
         -1   -1    0    0    0  501 -0.00000000000E+00 -0.00000000000E+00 -0.35668180174E+04  0.35668180174E+04  0.50400000000E-02 0.  1.
    8880022    1    1    2    0    0 -0.95538599948E+03  0.90917745068E+03  0.89167140376E+03  0.15993234789E+04  0.15294330000E+03 0. -1.
    8880022    1    1    2    0    0  0.95538599948E+03 -0.90917745068E+03 -0.30758333977E+04  0.33501505620E+04  0.15294330000E+03 0.  0.
<mgrwt>
<rscale>  0 0.13276889E+04</rscale>
<asrwt>0</asrwt>
<pdfrwt beam="1">  1        1 0.21271631E+00 0.13276889E+04</pdfrwt>
<pdfrwt beam="2">  1       -1 0.54874123E+00 0.13276889E+04</pdfrwt>
<totfact> 0.57205116E-03</totfact>
</mgrwt>
</event>
<event>
 4    1  0.1678003E-008  0.3463121E+03  0.7818608E-02  0.1064139E+00
          1   -1    0    0  501    0  0.00000000000E+00  0.00000000000E+00  0.18360942248E+04  0.18360942248E+04  0.50400000000E-02 0. -1.
         -1   -1    0    0    0  501 -0.00000000000E+00 -0.00000000000E+00 -0.16484820120E+03  0.16484820127E+03  0.50400000000E-02 0.  1.
    8880022    1    1    2    0    0 -0.10068071198E+03  0.29394521100E+03  0.16130104237E+04  0.16497680663E+04  0.15294330000E+03 0. -1.
    8880022    1    1    2    0    0  0.10068071198E+03 -0.29394521100E+03  0.58235599949E+02  0.35117435975E+03  0.15294330000E+03 0.  0.
<mgrwt>
<rscale>  0 0.34631206E+03</rscale>
<asrwt>0</asrwt>
<pdfrwt beam="1">  1        1 0.28247605E+00 0.34631206E+03</pdfrwt>
<pdfrwt beam="2">  1       -1 0.25361260E-01 0.34631206E+03</pdfrwt>
<totfact> 0.57930225E+01</totfact>
</mgrwt>
</event>
<event>
 4    1  0.1678003E-008  0.6456219E+03  0.7818608E-02  0.9815029E-01
          1   -1    0    0  501    0  0.00000000000E+00  0.00000000000E+00  0.38055302462E+04  0.38055302462E+04  0.50400000000E-02 0. -1.
         -1   -1    0    0    0  501 -0.00000000000E+00 -0.00000000000E+00 -0.21236446783E+03  0.21236446789E+03  0.50400000000E-02 0.  1.
    8880022    1    1    2    0    0 -0.53068581457E+03 -0.33437776126E+03  0.31945360760E+04  0.32591238570E+04  0.15294330000E+03 0.  0.
    8880022    1    1    2    0    0  0.53068581457E+03  0.33437776126E+03  0.39862970233E+03  0.75877085712E+03  0.15294330000E+03 0.  0.
<mgrwt>
<rscale>  0 0.64562185E+03</rscale>
<asrwt>0</asrwt>
<pdfrwt beam="1">  1        1 0.58546620E+00 0.64562185E+03</pdfrwt>
<pdfrwt beam="2">  1       -1 0.32671456E-01 0.64562185E+03</pdfrwt>
<totfact> 0.13919692E+00</totfact>
</mgrwt>
</event>
<event>
 4    1  0.1678003E-008  0.5397057E+03  0.7818608E-02  0.1003905E+00
          1   -1    0    0  501    0  0.00000000000E+00  0.00000000000E+00  0.73284576805E+03  0.73284576807E+03  0.50400000000E-02 0. -1.
         -1   -1    0    0    0  501 -0.00000000000E+00 -0.00000000000E+00 -0.68405750741E+03  0.68405750743E+03  0.50400000000E-02 0.  1.
    8880022    1    1    2    0    0  0.42512237988E+03 -0.29523132530E+03 -0.43416418979E+03  0.69266208935E+03  0.15294330000E+03 0.  0.
    8880022    1    1    2    0    0 -0.42512237988E+03  0.29523132530E+03  0.48295245044E+03  0.72424118615E+03  0.15294330000E+03 0.  0.
<mgrwt>
<rscale>  0 0.53970568E+03</rscale>
<asrwt>0</asrwt>
<pdfrwt beam="1">  1        1 0.11274550E+00 0.53970568E+03</pdfrwt>
<pdfrwt beam="2">  1       -1 0.10523962E+00 0.53970568E+03</pdfrwt>
<totfact> 0.22691957E+01</totfact>
</mgrwt>
</event>
<event>
 4    1  0.1678003E-008  0.5798764E+03  0.7818608E-02  0.9948059E-01
         -1   -1    0    0    0  501 -0.00000000000E+00  0.00000000000E+00  0.70859985769E+03  0.70859985770E+03  0.50400000000E-02 0.  1.
          1   -1    0    0  501    0  0.00000000000E+00 -0.00000000000E+00 -0.35507807186E+04  0.35507807186E+04  0.50400000000E-02 0. -1.
    8880022    1    1    2    0    0 -0.47814586177E+03 -0.29024384688E+03  0.56118919890E+03  0.80696339803E+03  0.15294330000E+03 0.  1.
    8880022    1    1    2    0    0  0.47814586177E+03  0.29024384688E+03 -0.34033700598E+04  0.34524171783E+04  0.15294330000E+03 0.  0.
<mgrwt>
<rscale>  0 0.57987637E+03</rscale>
<asrwt>0</asrwt>
<pdfrwt beam="1">  1        1 0.54627395E+00 0.57987637E+03</pdfrwt>
<pdfrwt beam="2">  1       -1 0.10901536E+00 0.57987637E+03</pdfrwt>
<totfact> 0.20627150E-01</totfact>
</mgrwt>
</event>
<event>
 4    1  0.1678003E-008  0.8617468E+03  0.7818608E-02  0.9474705E-01
         -1   -1    0    0    0  501 -0.00000000000E+00  0.00000000000E+00  0.12091900320E+04  0.12091900320E+04  0.50400000000E-02 0.  1.
          1   -1    0    0  501    0  0.00000000000E+00 -0.00000000000E+00 -0.10741892954E+04  0.10741892954E+04  0.50400000000E-02 0. -1.
    8880022    1    1    2    0    0 -0.49461538006E+03 -0.68889155449E+03  0.81465681494E+03  0.11858639581E+04  0.15294330000E+03 0.  0.
    8880022    1    1    2    0    0  0.49461538006E+03  0.68889155449E+03 -0.67965607835E+03  0.10975153693E+04  0.15294330000E+03 0.  0.
<mgrwt>
<rscale>  0 0.86174683E+03</rscale>
<asrwt>0</asrwt>
<pdfrwt beam="1">  1        1 0.16525989E+00 0.86174683E+03</pdfrwt>
<pdfrwt beam="2">  1       -1 0.18602924E+00 0.86174683E+03</pdfrwt>
<totfact> 0.25577489E+00</totfact>
</mgrwt>
</event>
<event>
 4    1  0.1678003E-008  0.4962260E+03  0.7818608E-02  0.1014769E+00
          1   -1    0    0  501    0  0.00000000000E+00  0.00000000000E+00  0.19867040421E+04  0.19867040421E+04  0.50400000000E-02 0. -1.
         -1   -1    0    0    0  501 -0.00000000000E+00 -0.00000000000E+00 -0.35605278454E+03  0.35605278457E+03  0.50400000000E-02 0.  1.
    8880022    1    1    2    0    0 -0.10111525907E+03 -0.46111203525E+03  0.17610960165E+04  0.18296719479E+04  0.15294330000E+03 0.  0.
    8880022    1    1    2    0    0  0.10111525907E+03  0.46111203525E+03 -0.13044475893E+03  0.51308487876E+03  0.15294330000E+03 0.  1.
<mgrwt>
<rscale>  0 0.49622601E+03</rscale>
<asrwt>0</asrwt>
<pdfrwt beam="1">  1        1 0.30564678E+00 0.49622601E+03</pdfrwt>
<pdfrwt beam="2">  1       -1 0.54777350E-01 0.49622601E+03</pdfrwt>
<totfact> 0.11244271E+01</totfact>
</mgrwt>
</event>
<event>
 4    1  0.1678003E-008  0.2547900E+03  0.7818608E-02  0.1110315E+00
          1   -1    0    0  501    0  0.00000000000E+00  0.00000000000E+00  0.35727641331E+03  0.35727641335E+03  0.50400000000E-02 0. -1.
         -1   -1    0    0    0  501 -0.00000000000E+00 -0.00000000000E+00 -0.71116588023E+03  0.71116588025E+03  0.50400000000E-02 0.  1.
    8880022    1    1    2    0    0 -0.17706537918E+03 -0.10086703076E+03 -0.63789455359E+03  0.68689695072E+03  0.15294330000E+03 0.  1.
    8880022    1    1    2    0    0  0.17706537918E+03  0.10086703076E+03  0.28400508667E+03  0.38154534287E+03  0.15294330000E+03 0.  0.
<mgrwt>
<rscale>  0 0.25479003E+03</rscale>
<asrwt>0</asrwt>
<pdfrwt beam="1">  1        1 0.54965602E-01 0.25479003E+03</pdfrwt>
<pdfrwt beam="2">  1       -1 0.10941014E+00 0.25479003E+03</pdfrwt>
<totfact> 0.58477396E+01</totfact>
</mgrwt>
</event>
<event>
 4    1  0.1678003E-008  0.3129283E+03  0.7818608E-02  0.1078951E+00
          1   -1    0    0  501    0  0.00000000000E+00  0.00000000000E+00  0.16936305223E+04  0.16936305223E+04  0.50400000000E-02 0. -1.
         -1   -1    0    0    0  501 -0.00000000000E+00 -0.00000000000E+00 -0.46559957815E+03  0.46559957818E+03  0.50400000000E-02 0.  1.
    8880022    1    1    2    0    0 -0.58444454259E+02  0.26667715090E+03  0.16243748629E+04  0.16542423660E+04  0.15294330000E+03 0.  0.
    8880022    1    1    2    0    0  0.58444454259E+02 -0.26667715090E+03 -0.39634391878E+03  0.50498773452E+03  0.15294330000E+03 0.  0.
<mgrwt>
<rscale>  0 0.31292828E+03</rscale>
<asrwt>0</asrwt>
<pdfrwt beam="1">  1        1 0.26055854E+00 0.31292828E+03</pdfrwt>
<pdfrwt beam="2">  1       -1 0.71630705E-01 0.31292828E+03</pdfrwt>
<totfact> 0.10932417E+01</totfact>
</mgrwt>
</event>
<event>
 4    1  0.1678003E-008  0.1224463E+04  0.7818608E-02  0.9091709E-01
          1   -1    0    0  501    0  0.00000000000E+00  0.00000000000E+00  0.13021651255E+04  0.13021651255E+04  0.50400000000E-02 0. -1.
         -1   -1    0    0    0  501 -0.00000000000E+00 -0.00000000000E+00 -0.15031775036E+04  0.15031775036E+04  0.50400000000E-02 0.  1.
    8880022    1    1    2    0    0 -0.92392362335E+03  0.78884953271E+03 -0.77906290373E+03  0.14512922201E+04  0.15294330000E+03 0.  0.
    8880022    1    1    2    0    0  0.92392362335E+03 -0.78884953271E+03  0.57805052567E+03  0.13540504091E+04  0.15294330000E+03 0.  0.
<mgrwt>
<rscale>  0 0.12244632E+04</rscale>
<asrwt>0</asrwt>
<pdfrwt beam="1">  1        1 0.20033309E+00 0.12244632E+04</pdfrwt>
<pdfrwt beam="2">  1       -1 0.23125808E+00 0.12244632E+04</pdfrwt>
<totfact> 0.81573137E-01</totfact>
</mgrwt>
</event>
<event>
 4    1  0.1678003E-008  0.3308390E+03  0.7818608E-02  0.1070766E+00
          1   -1    0    0  501    0  0.00000000000E+00  0.00000000000E+00  0.61322265496E+03  0.61322265498E+03  0.50400000000E-02 0. -1.
         -1   -1    0    0    0  501 -0.00000000000E+00 -0.00000000000E+00 -0.40484160141E+03  0.40484160144E+03  0.50400000000E-02 0.  1.
    8880022    1    1    2    0    0  0.18426630739E+03  0.22827335819E+03  0.48481252236E+03  0.58693920720E+03  0.15294330000E+03 0. -1.
    8880022    1    1    2    0    0 -0.18426630739E+03 -0.22827335819E+03 -0.27643146881E+03  0.43112504922E+03  0.15294330000E+03 0.  0.
<mgrwt>
<rscale>  0 0.33083901E+03</rscale>
<asrwt>0</asrwt>
<pdfrwt beam="1">  1        1 0.94341946E-01 0.33083901E+03</pdfrwt>
<pdfrwt beam="2">  1       -1 0.62283324E-01 0.33083901E+03</pdfrwt>
<totfact> 0.92415463E+01</totfact>
</mgrwt>
</event>
<event>
 4    1  0.1678003E-008  0.4881230E+03  0.7818608E-02  0.1016926E+00
          1   -1    0    0  501    0  0.00000000000E+00  0.00000000000E+00  0.28796175359E+03  0.28796175363E+03  0.50400000000E-02 0. -1.
         -1   -1    0    0    0  501 -0.00000000000E+00 -0.00000000000E+00 -0.15338293608E+04  0.15338293608E+04  0.50400000000E-02 0.  1.
    8880022    1    1    2    0    0  0.31605886337E+03  0.33908581017E+03 -0.12411062426E+04  0.13336449116E+04  0.15294330000E+03 0.  0.
    8880022    1    1    2    0    0 -0.31605886337E+03 -0.33908581017E+03 -0.47613646389E+01  0.48814620287E+03  0.15294330000E+03 0. -1.
<mgrwt>
<rscale>  0 0.48812298E+03</rscale>
<asrwt>0</asrwt>
<pdfrwt beam="1">  1        1 0.44301809E-01 0.48812298E+03</pdfrwt>
<pdfrwt beam="2">  1       -1 0.23597374E+00 0.48812298E+03</pdfrwt>
<totfact> 0.85904480E+00</totfact>
</mgrwt>
</event>
<event>
 4    1  0.1678003E-008  0.3339679E+03  0.7818608E-02  0.1069395E+00
          1   -1    0    0  501    0  0.00000000000E+00  0.00000000000E+00  0.95663388675E+03  0.95663388677E+03  0.50400000000E-02 0. -1.
         -1   -1    0    0    0  501 -0.00000000000E+00 -0.00000000000E+00 -0.54251887591E+03  0.54251887593E+03  0.50400000000E-02 0.  1.
    8880022    1    1    2    0    0  0.36583978936E+02 -0.29462601024E+03  0.87122359696E+03  0.93304077206E+03  0.15294330000E+03 0.  0.
    8880022    1    1    2    0    0 -0.36583978936E+02  0.29462601024E+03 -0.45710858611E+03  0.56611199063E+03  0.15294330000E+03 0.  1.
<mgrwt>
<rscale>  0 0.33396785E+03</rscale>
<asrwt>0</asrwt>
<pdfrwt beam="1">  1        1 0.14717444E+00 0.33396785E+03</pdfrwt>
<pdfrwt beam="2">  1       -1 0.83464443E-01 0.33396785E+03</pdfrwt>
<totfact> 0.25729867E+01</totfact>
</mgrwt>
</event>
<event>
 4    1  0.1678003E-008  0.5654539E+03  0.7818608E-02  0.9979789E-01
         -1   -1    0    0    0  501 -0.00000000000E+00  0.00000000000E+00  0.10713913072E+04  0.10713913073E+04  0.50400000000E-02 0.  1.
          1   -1    0    0  501    0  0.00000000000E+00 -0.00000000000E+00 -0.55725911880E+03  0.55725911883E+03  0.50400000000E-02 0. -1.
    8880022    1    1    2    0    0  0.54233493429E+02 -0.54166886439E+03  0.81204143051E+03  0.98951976653E+03  0.15294330000E+03 0.  0.
    8880022    1    1    2    0    0 -0.54233493429E+02  0.54166886439E+03 -0.29790924207E+03  0.63913065956E+03  0.15294330000E+03 0.  0.
<mgrwt>
<rscale>  0 0.56545387E+03</rscale>
<asrwt>0</asrwt>
<pdfrwt beam="1">  1        1 0.85732172E-01 0.56545387E+03</pdfrwt>
<pdfrwt beam="2">  1       -1 0.16482943E+00 0.56545387E+03</pdfrwt>
<totfact> 0.10827219E+01</totfact>
</mgrwt>
</event>
<event>
 4    1  0.1678003E-008  0.4861287E+03  0.7818608E-02  0.1017464E+00
         -1   -1    0    0    0  501 -0.00000000000E+00  0.00000000000E+00  0.32982503191E+03  0.32982503194E+03  0.50400000000E-02 0.  1.
          1   -1    0    0  501    0  0.00000000000E+00 -0.00000000000E+00 -0.10776716915E+04  0.10776716915E+04  0.50400000000E-02 0. -1.
    8880022    1    1    2    0    0 -0.54706125248E+02  0.45818851133E+03  0.33483490802E+02  0.48728048311E+03  0.15294330000E+03 0.  0.
    8880022    1    1    2    0    0  0.54706125248E+02 -0.45818851133E+03 -0.78133015036E+03  0.92021624031E+03  0.15294330000E+03 0.  0.
<mgrwt>
<rscale>  0 0.48612871E+03</rscale>
<asrwt>0</asrwt>
<pdfrwt beam="1">  1        1 0.16579564E+00 0.48612871E+03</pdfrwt>
<pdfrwt beam="2">  1       -1 0.50742313E-01 0.48612871E+03</pdfrwt>
<totfact> 0.54412841E+01</totfact>
</mgrwt>
</event>
<event>
 4    1  0.1678003E-008  0.5624455E+03  0.7818608E-02  0.9986536E-01
         -1   -1    0    0    0  501 -0.00000000000E+00  0.00000000000E+00  0.30339574193E+04  0.30339574193E+04  0.50400000000E-02 0.  1.
          1   -1    0    0  501    0  0.00000000000E+00 -0.00000000000E+00 -0.40899506030E+03  0.40899506033E+03  0.50400000000E-02 0. -1.
    8880022    1    1    2    0    0  0.16051245665E+03 -0.51690329308E+03 -0.17344575579E+03  0.58858163949E+03  0.15294330000E+03 0.  0.
    8880022    1    1    2    0    0 -0.16051245665E+03  0.51690329308E+03  0.27984081148E+04  0.28543708401E+04  0.15294330000E+03 0.  0.
<mgrwt>
<rscale>  0 0.56244548E+03</rscale>
<asrwt>0</asrwt>
<pdfrwt beam="1">  1        1 0.62922318E-01 0.56244548E+03</pdfrwt>
<pdfrwt beam="2">  1       -1 0.46676267E+00 0.56244548E+03</pdfrwt>
<totfact> 0.16267000E-01</totfact>
</mgrwt>
</event>
<event>
 4    1  0.1678003E-008  0.3449273E+03  0.7818608E-02  0.1064717E+00
         -1   -1    0    0    0  501 -0.00000000000E+00  0.00000000000E+00  0.41245949109E+03  0.41245949112E+03  0.50400000000E-02 0.  1.
          1   -1    0    0  501    0  0.00000000000E+00 -0.00000000000E+00 -0.85140005169E+03  0.85140005171E+03  0.50400000000E-02 0. -1.
    8880022    1    1    2    0    0  0.23665023808E+03 -0.19894694123E+03 -0.73331989940E+03  0.81039061475E+03  0.15294330000E+03 0.  0.
    8880022    1    1    2    0    0 -0.23665023808E+03  0.19894694123E+03  0.29437933879E+03  0.45346892808E+03  0.15294330000E+03 0.  0.
<mgrwt>
<rscale>  0 0.34492735E+03</rscale>
<asrwt>0</asrwt>
<pdfrwt beam="1">  1        1 0.13098462E+00 0.34492735E+03</pdfrwt>
<pdfrwt beam="2">  1       -1 0.63455306E-01 0.34492735E+03</pdfrwt>
<totfact> 0.54356240E+01</totfact>
</mgrwt>
</event>
<event>
 4    1  0.1678003E-008  0.8047759E+03  0.7818608E-02  0.9553130E-01
          1   -1    0    0  501    0  0.00000000000E+00  0.00000000000E+00  0.26947959031E+04  0.26947959031E+04  0.50400000000E-02 0. -1.
         -1   -1    0    0    0  501 -0.00000000000E+00 -0.00000000000E+00 -0.28215702180E+03  0.28215702184E+03  0.50400000000E-02 0.  1.
    8880022    1    1    2    0    0  0.15579961173E+02 -0.78995557092E+03  0.63328730628E+03  0.10240688476E+04  0.15294330000E+03 0.  0.
    8880022    1    1    2    0    0 -0.15579961173E+02  0.78995557092E+03  0.17793515751E+04  0.19528840774E+04  0.15294330000E+03 0.  0.
<mgrwt>
<rscale>  0 0.80477586E+03</rscale>
<asrwt>0</asrwt>
<pdfrwt beam="1">  1        1 0.41458399E+00 0.80477586E+03</pdfrwt>
<pdfrwt beam="2">  1       -1 0.43408772E-01 0.80477586E+03</pdfrwt>
<totfact> 0.54504076E+00</totfact>
</mgrwt>
</event>
<event>
 4    1  0.1678003E-008  0.3531155E+03  0.7818608E-02  0.1061344E+00
         -1   -1    0    0    0  501 -0.00000000000E+00  0.00000000000E+00  0.32307887732E+03  0.32307887735E+03  0.50400000000E-02 0.  1.
          1   -1    0    0  501    0  0.00000000000E+00 -0.00000000000E+00 -0.38670559941E+03  0.38670559944E+03  0.50400000000E-02 0. -1.
    8880022    1    1    2    0    0 -0.51402771888E+02 -0.31409655214E+03 -0.16069770541E+02  0.35348094653E+03  0.15294330000E+03 0.  1.
    8880022    1    1    2    0    0  0.51402771888E+02  0.31409655214E+03 -0.47556951554E+02  0.35630353026E+03  0.15294330000E+03 0. -1.
<mgrwt>
<rscale>  0 0.35311548E+03</rscale>
<asrwt>0</asrwt>
<pdfrwt beam="1">  1        1 0.59493169E-01 0.35311548E+03</pdfrwt>
<pdfrwt beam="2">  1       -1 0.49704443E-01 0.35311548E+03</pdfrwt>
<totfact> 0.26328938E+02</totfact>
</mgrwt>
</event>
<event>
 4    1  0.1678003E-008  0.6163180E+03  0.7818608E-02  0.9872118E-01
          1   -1    0    0  501    0  0.00000000000E+00  0.00000000000E+00  0.38767459460E+03  0.38767459463E+03  0.50400000000E-02 0. -1.
         -1   -1    0    0    0  501 -0.00000000000E+00 -0.00000000000E+00 -0.10805143440E+04  0.10805143440E+04  0.50400000000E-02 0.  1.
    8880022    1    1    2    0    0 -0.57544880272E+03  0.15910674416E+03 -0.57052823908E+03  0.83985141852E+03  0.15294330000E+03 0.  0.
    8880022    1    1    2    0    0  0.57544880272E+03 -0.15910674416E+03 -0.12231151028E+03  0.62833752009E+03  0.15294330000E+03 0.  0.
<mgrwt>
<rscale>  0 0.61631805E+03</rscale>
<asrwt>0</asrwt>
<pdfrwt beam="1">  1        1 0.59642246E-01 0.61631805E+03</pdfrwt>
<pdfrwt beam="2">  1       -1 0.16623297E+00 0.61631805E+03</pdfrwt>
<totfact> 0.17126503E+01</totfact>
</mgrwt>
</event>
<event>
 4    1  0.1678003E-008  0.6012167E+03  0.7818608E-02  0.9902885E-01
         -1   -1    0    0    0  501 -0.00000000000E+00  0.00000000000E+00  0.18275001538E+03  0.18275001545E+03  0.50400000000E-02 0.  1.
          1   -1    0    0  501    0  0.00000000000E+00 -0.00000000000E+00 -0.26273888440E+04  0.26273888440E+04  0.50400000000E-02 0. -1.
    8880022    1    1    2    0    0 -0.43862331593E+03 -0.38167977985E+03 -0.52373165449E+03  0.79734331787E+03  0.15294330000E+03 0.  1.
    8880022    1    1    2    0    0  0.43862331593E+03  0.38167977985E+03 -0.19209071741E+04  0.20127955416E+04  0.15294330000E+03 0.  0.
<mgrwt>
<rscale>  0 0.60121670E+03</rscale>
<asrwt>0</asrwt>
<pdfrwt beam="1">  1        1 0.40421364E+00 0.60121670E+03</pdfrwt>
<pdfrwt beam="2">  1       -1 0.28115389E-01 0.60121670E+03</pdfrwt>
<totfact> 0.13641789E+01</totfact>
</mgrwt>
</event>
<event>
 4    1  0.1678003E-008  0.7258527E+03  0.7818608E-02  0.9674014E-01
         -1   -1    0    0    0  501 -0.00000000000E+00  0.00000000000E+00  0.81417946318E+03  0.81417946319E+03  0.50400000000E-02 0.  1.
          1   -1    0    0  501    0  0.00000000000E+00 -0.00000000000E+00 -0.18976486951E+04  0.18976486951E+04  0.50400000000E-02 0. -1.
    8880022    1    1    2    0    0 -0.28537782045E+03 -0.64963837134E+03 -0.16424452204E+04  0.17956860719E+04  0.15294330000E+03 0.  0.
    8880022    1    1    2    0    0  0.28537782045E+03  0.64963837134E+03  0.55897598840E+03  0.91614208644E+03  0.15294330000E+03 0.  0.
<mgrwt>
<rscale>  0 0.72585272E+03</rscale>
<asrwt>0</asrwt>
<pdfrwt beam="1">  1        1 0.29194595E+00 0.72585272E+03</pdfrwt>
<pdfrwt beam="2">  1       -1 0.12525838E+00 0.72585272E+03</pdfrwt>
<totfact> 0.20593084E+00</totfact>
</mgrwt>
</event>
<event>
 4    1  0.1678003E-008  0.3943670E+03  0.7818608E-02  0.1045748E+00
         -1   -1    0    0    0  501 -0.00000000000E+00  0.00000000000E+00  0.42121064053E+03  0.42121064056E+03  0.50400000000E-02 0.  1.
          1   -1    0    0  501    0  0.00000000000E+00 -0.00000000000E+00 -0.81579951005E+03  0.81579951007E+03  0.50400000000E-02 0. -1.
    8880022    1    1    2    0    0 -0.14098065270E+03  0.33504943358E+03 -0.65490295399E+03  0.76447576779E+03  0.15294330000E+03 0.  0.
    8880022    1    1    2    0    0  0.14098065270E+03 -0.33504943358E+03  0.26031408446E+03  0.47253438284E+03  0.15294330000E+03 0.  0.
<mgrwt>
<rscale>  0 0.39436699E+03</rscale>
<asrwt>0</asrwt>
<pdfrwt beam="1">  1        1 0.12550762E+00 0.39436699E+03</pdfrwt>
<pdfrwt beam="2">  1       -1 0.64801637E-01 0.39436699E+03</pdfrwt>
<totfact> 0.55293895E+01</totfact>
</mgrwt>
</event>
<event>
 4    1  0.1678003E-008  0.2201227E+03  0.7818608E-02  0.1133792E+00
          1   -1    0    0  501    0  0.00000000000E+00  0.00000000000E+00  0.62278163481E+03  0.62278163483E+03  0.50400000000E-02 0. -1.
         -1   -1    0    0    0  501 -0.00000000000E+00 -0.00000000000E+00 -0.42817663021E+03  0.42817663024E+03  0.50400000000E-02 0.  1.
    8880022    1    1    2    0    0  0.21841143635E+02 -0.15679700543E+03 -0.37804365721E+03  0.43745970814E+03  0.15294330000E+03 0.  0.
    8880022    1    1    2    0    0 -0.21841143635E+02  0.15679700543E+03  0.57264866181E+03  0.61349855693E+03  0.15294330000E+03 0. -1.
<mgrwt>
<rscale>  0 0.22012267E+03</rscale>
<asrwt>0</asrwt>
<pdfrwt beam="1">  1        1 0.95812559E-01 0.22012267E+03</pdfrwt>
<pdfrwt beam="2">  1       -1 0.65873328E-01 0.22012267E+03</pdfrwt>
<totfact> 0.82853379E+01</totfact>
</mgrwt>
</event>
<event>
 4    1  0.1678003E-008  0.2660705E+03  0.7818608E-02  0.1103550E+00
         -1   -1    0    0    0  501 -0.00000000000E+00  0.00000000000E+00  0.28654610709E+03  0.28654610714E+03  0.50400000000E-02 0.  1.
          1   -1    0    0  501    0  0.00000000000E+00 -0.00000000000E+00 -0.51459802119E+03  0.51459802121E+03  0.50400000000E-02 0. -1.
    8880022    1    1    2    0    0  0.12992029966E+03  0.17470711163E+03 -0.40285507217E+03  0.48278952071E+03  0.15294330000E+03 0.  0.
    8880022    1    1    2    0    0 -0.12992029966E+03 -0.17470711163E+03  0.17480315808E+03  0.31835460764E+03  0.15294330000E+03 0.  0.
<mgrwt>
<rscale>  0 0.26607050E+03</rscale>
<asrwt>0</asrwt>
<pdfrwt beam="1">  1        1 0.79168926E-01 0.26607050E+03</pdfrwt>
<pdfrwt beam="2">  1       -1 0.44084016E-01 0.26607050E+03</pdfrwt>
<totfact> 0.22727038E+02</totfact>
</mgrwt>
</event>
<event>
 4    1  0.1678003E-008  0.1147490E+04  0.7818608E-02  0.9160103E-01
          1   -1    0    0  501    0  0.00000000000E+00  0.00000000000E+00  0.20677103404E+04  0.20677103404E+04  0.50400000000E-02 0. -1.
         -1   -1    0    0    0  501 -0.00000000000E+00 -0.00000000000E+00 -0.83106721515E+03  0.83106721517E+03  0.50400000000E-02 0.  1.
    8880022    1    1    2    0    0 -0.71567900346E+03 -0.88382368752E+03 -0.82421428098E+02  0.11504458664E+04  0.15294330000E+03 0.  0.
    8880022    1    1    2    0    0  0.71567900346E+03  0.88382368752E+03  0.13190645534E+04  0.17483316892E+04  0.15294330000E+03 0.  0.
<mgrwt>
<rscale>  0 0.11474896E+04</rscale>
<asrwt>0</asrwt>
<pdfrwt beam="1">  1        1 0.31810928E+00 0.11474896E+04</pdfrwt>
<pdfrwt beam="2">  1       -1 0.12785649E+00 0.11474896E+04</pdfrwt>
<totfact> 0.14051025E+00</totfact>
</mgrwt>
</event>
<event>
 4    1  0.1678003E-008  0.8649703E+03  0.7818608E-02  0.9470462E-01
         -1   -1    0    0    0  501 -0.00000000000E+00  0.00000000000E+00  0.98235603596E+03  0.98235603597E+03  0.50400000000E-02 0.  1.
          1   -1    0    0  501    0  0.00000000000E+00 -0.00000000000E+00 -0.13187819635E+04  0.13187819635E+04  0.50400000000E-02 0. -1.
    8880022    1    1    2    0    0  0.36817097126E+03  0.76761457052E+03 -0.91607280875E+03  0.12599059635E+04  0.15294330000E+03 0.  0.
    8880022    1    1    2    0    0 -0.36817097126E+03 -0.76761457052E+03  0.57964688117E+03  0.10412320360E+04  0.15294330000E+03 0.  0.
<mgrwt>
<rscale>  0 0.86497032E+03</rscale>
<asrwt>0</asrwt>
<pdfrwt beam="1">  1        1 0.20288953E+00 0.86497032E+03</pdfrwt>
<pdfrwt beam="2">  1       -1 0.15113170E+00 0.86497032E+03</pdfrwt>
<totfact> 0.30676864E+00</totfact>
</mgrwt>
</event>
<event>
 4    1  0.1678003E-008  0.1493555E+04  0.7818608E-02  0.8888750E-01
         -1   -1    0    0    0  501 -0.00000000000E+00  0.00000000000E+00  0.12657257474E+04  0.12657257474E+04  0.50400000000E-02 0.  1.
          1   -1    0    0  501    0  0.00000000000E+00 -0.00000000000E+00 -0.17904034323E+04  0.17904034323E+04  0.50400000000E-02 0. -1.
    8880022    1    1    2    0    0  0.10087001902E+04 -0.10907972450E+04 -0.71210456772E+02  0.14952515793E+04  0.15294330000E+03 0.  0.
    8880022    1    1    2    0    0 -0.10087001902E+04  0.10907972450E+04 -0.45346722805E+03  0.15608776004E+04  0.15294330000E+03 0.  0.
<mgrwt>
<rscale>  0 0.14935549E+04</rscale>
<asrwt>0</asrwt>
<pdfrwt beam="1">  1        1 0.27544668E+00 0.14935549E+04</pdfrwt>
<pdfrwt beam="2">  1       -1 0.19472704E+00 0.14935549E+04</pdfrwt>
<totfact> 0.64132474E-01</totfact>
</mgrwt>
</event>
<event>
 4    1  0.1678003E-008  0.1107229E+04  0.7818608E-02  0.9198175E-01
          1   -1    0    0  501    0  0.00000000000E+00  0.00000000000E+00  0.13355855640E+04  0.13355855640E+04  0.50400000000E-02 0. -1.
         -1   -1    0    0    0  501 -0.00000000000E+00 -0.00000000000E+00 -0.21770943993E+04  0.21770943993E+04  0.50400000000E-02 0.  1.
    8880022    1    1    2    0    0  0.73116194555E+03 -0.81729196673E+03 -0.17564686653E+04  0.20763279545E+04  0.15294330000E+03 0.  0.
    8880022    1    1    2    0    0 -0.73116194555E+03  0.81729196673E+03  0.91495983006E+03  0.14363520088E+04  0.15294330000E+03 0.  0.
<mgrwt>
<rscale>  0 0.11072288E+04</rscale>
<asrwt>0</asrwt>
<pdfrwt beam="1">  1        1 0.20547470E+00 0.11072288E+04</pdfrwt>
<pdfrwt beam="2">  1       -1 0.33493760E+00 0.11072288E+04</pdfrwt>
<totfact> 0.16692925E-01</totfact>
</mgrwt>
</event>
<event>
 4    1  0.1678003E-008  0.6291367E+03  0.7818608E-02  0.9846735E-01
          1   -1    0    0  501    0  0.00000000000E+00  0.00000000000E+00  0.15605522775E+04  0.15605522775E+04  0.50400000000E-02 0. -1.
         -1   -1    0    0    0  501 -0.00000000000E+00 -0.00000000000E+00 -0.49081774561E+03  0.49081774563E+03  0.50400000000E-02 0.  1.
    8880022    1    1    2    0    0  0.30177902396E+03  0.53042502149E+03 -0.17814024020E+03  0.65387069128E+03  0.15294330000E+03 0.  0.
    8880022    1    1    2    0    0 -0.30177902396E+03 -0.53042502149E+03  0.12478747721E+04  0.13974993319E+04  0.15294330000E+03 0.  0.
<mgrwt>
<rscale>  0 0.62913666E+03</rscale>
<asrwt>0</asrwt>
<pdfrwt beam="1">  1        1 0.24008497E+00 0.62913666E+03</pdfrwt>
<pdfrwt beam="2">  1       -1 0.75510420E-01 0.62913666E+03</pdfrwt>
<totfact> 0.11093162E+01</totfact>
</mgrwt>
</event>
<event>
 4    1  0.1678003E-008  0.1219272E+04  0.7818608E-02  0.9096153E-01
         -1   -1    0    0    0  501 -0.00000000000E+00  0.00000000000E+00  0.17995724104E+04  0.17995724104E+04  0.50400000000E-02 0.  1.
          1   -1    0    0  501    0  0.00000000000E+00 -0.00000000000E+00 -0.11712155881E+04  0.11712155881E+04  0.50400000000E-02 0. -1.
    8880022    1    1    2    0    0  0.12094557218E+04 -0.21205627210E+02 -0.49213954810E+03  0.13148482078E+04  0.15294330000E+03 0.  0.
    8880022    1    1    2    0    0 -0.12094557218E+04  0.21205627210E+02  0.11204963704E+04  0.16559397908E+04  0.15294330000E+03 0.  0.
<mgrwt>
<rscale>  0 0.12192721E+04</rscale>
<asrwt>0</asrwt>
<pdfrwt beam="1">  1        1 0.18018701E+00 0.12192721E+04</pdfrwt>
<pdfrwt beam="2">  1       -1 0.27685729E+00 0.12192721E+04</pdfrwt>
<totfact> 0.51301949E-01</totfact>
</mgrwt>
</event>
<event>
 4    1  0.1678003E-008  0.2174404E+03  0.7818608E-02  0.1135806E+00
         -1   -1    0    0    0  501 -0.00000000000E+00  0.00000000000E+00  0.68695429207E+03  0.68695429209E+03  0.50400000000E-02 0.  1.
          1   -1    0    0  501    0  0.00000000000E+00 -0.00000000000E+00 -0.75992539820E+03  0.75992539822E+03  0.50400000000E-02 0. -1.
    8880022    1    1    2    0    0  0.88610794011E+02 -0.12663648710E+03 -0.72638722594E+03  0.75823395314E+03  0.15294330000E+03 0. -1.
    8880022    1    1    2    0    0 -0.88610794011E+02  0.12663648710E+03  0.65341611980E+03  0.68864573716E+03  0.15294330000E+03 0.  0.
<mgrwt>
<rscale>  0 0.21744040E+03</rscale>
<asrwt>0</asrwt>
<pdfrwt beam="1">  1        1 0.11691160E+00 0.21744040E+03</pdfrwt>
<pdfrwt beam="2">  1       -1 0.10568528E+00 0.21744040E+03</pdfrwt>
<totfact> 0.23012495E+01</totfact>
</mgrwt>
</event>
<event>
 4    1  0.1678003E-008  0.9877651E+03  0.7818608E-02  0.9322067E-01
          1   -1    0    0  501    0  0.00000000000E+00  0.00000000000E+00  0.14793410157E+04  0.14793410157E+04  0.50400000000E-02 0. -1.
         -1   -1    0    0    0  501 -0.00000000000E+00 -0.00000000000E+00 -0.78765988457E+03  0.78765988458E+03  0.50400000000E-02 0.  1.
    8880022    1    1    2    0    0  0.25778575207E+03 -0.94118794388E+03 -0.11131705678E+03  0.99401779653E+03  0.15294330000E+03 0.  0.
    8880022    1    1    2    0    0 -0.25778575207E+03  0.94118794388E+03  0.80299818793E+03  0.12729831038E+04  0.15294330000E+03 0.  0.
<mgrwt>
<rscale>  0 0.98776510E+03</rscale>
<asrwt>0</asrwt>
<pdfrwt beam="1">  1        1 0.22759092E+00 0.98776510E+03</pdfrwt>
<pdfrwt beam="2">  1       -1 0.12117845E+00 0.98776510E+03</pdfrwt>
<totfact> 0.41143994E+00</totfact>
</mgrwt>
</event>
<event>
 4    1  0.1678003E-008  0.4189338E+03  0.7818608E-02  0.1037414E+00
          1   -1    0    0  501    0  0.00000000000E+00  0.00000000000E+00  0.14622606261E+04  0.14622606261E+04  0.50400000000E-02 0. -1.
         -1   -1    0    0    0  501 -0.00000000000E+00 -0.00000000000E+00 -0.12570084467E+03  0.12570084477E+03  0.50400000000E-02 0.  1.
    8880022    1    1    2    0    0 -0.37728830369E+03  0.98830263874E+02  0.83701914177E+03  0.93600565269E+03  0.15294330000E+03 0.  1.
    8880022    1    1    2    0    0  0.37728830369E+03 -0.98830263874E+02  0.49954063962E+03  0.65195581814E+03  0.15294330000E+03 0. -1.
<mgrwt>
<rscale>  0 0.41893381E+03</rscale>
<asrwt>0</asrwt>
<pdfrwt beam="1">  1        1 0.22496318E+00 0.41893381E+03</pdfrwt>
<pdfrwt beam="2">  1       -1 0.19338591E-01 0.41893381E+03</pdfrwt>
<totfact> 0.15867120E+02</totfact>
</mgrwt>
</event>
<event>
 4    1  0.1678003E-008  0.6544760E+03  0.7818608E-02  0.9798416E-01
          1   -1    0    0  501    0  0.00000000000E+00  0.00000000000E+00  0.93345064940E+03  0.93345064942E+03  0.50400000000E-02 0. -1.
         -1   -1    0    0    0  501 -0.00000000000E+00 -0.00000000000E+00 -0.63781509928E+03  0.63781509930E+03  0.50400000000E-02 0.  1.
    8880022    1    1    2    0    0  0.52497511040E+02  0.63418541818E+03 -0.26830739085E+03  0.70733842134E+03  0.15294330000E+03 0.  0.
    8880022    1    1    2    0    0 -0.52497511040E+02 -0.63418541818E+03  0.56394294098E+03  0.86392732738E+03  0.15294330000E+03 0.  0.
<mgrwt>
<rscale>  0 0.65447596E+03</rscale>
<asrwt>0</asrwt>
<pdfrwt beam="1">  1        1 0.14360779E+00 0.65447596E+03</pdfrwt>
<pdfrwt beam="2">  1       -1 0.98125400E-01 0.65447596E+03</pdfrwt>
<totfact> 0.17725825E+01</totfact>
</mgrwt>
</event>
<event>
 4    1  0.1678003E-008  0.6996820E+03  0.7818608E-02  0.9717776E-01
         -1   -1    0    0    0  501 -0.00000000000E+00  0.00000000000E+00  0.22150850483E+03  0.22150850489E+03  0.50400000000E-02 0.  1.
          1   -1    0    0  501    0  0.00000000000E+00 -0.00000000000E+00 -0.33147028328E+04  0.33147028328E+04  0.50400000000E-02 0. -1.
    8880022    1    1    2    0    0  0.60332827106E+03  0.31962206261E+03 -0.25672778704E+04  0.26609153655E+04  0.15294330000E+03 0. -1.
    8880022    1    1    2    0    0 -0.60332827106E+03 -0.31962206261E+03 -0.52591645757E+03  0.87529597219E+03  0.15294330000E+03 0.  0.
<mgrwt>
<rscale>  0 0.69968201E+03</rscale>
<asrwt>0</asrwt>
<pdfrwt beam="1">  1        1 0.50995424E+00 0.69968201E+03</pdfrwt>
<pdfrwt beam="2">  1       -1 0.34078234E-01 0.69968201E+03</pdfrwt>
<totfact> 0.30860677E+00</totfact>
</mgrwt>
</event>
<event>
 4    1  0.1678003E-008  0.7605764E+03  0.7818608E-02  0.9618902E-01
         -1   -1    0    0    0  501 -0.00000000000E+00  0.00000000000E+00  0.16513233492E+04  0.16513233492E+04  0.50400000000E-02 0.  1.
          1   -1    0    0  501    0  0.00000000000E+00 -0.00000000000E+00 -0.53436475652E+03  0.53436475655E+03  0.50400000000E-02 0. -1.
    8880022    1    1    2    0    0  0.54408951616E+03  0.50897085996E+03 -0.82895482099E+02  0.76508042182E+03  0.15294330000E+03 0.  0.
    8880022    1    1    2    0    0 -0.54408951616E+03 -0.50897085996E+03  0.11998540748E+04  0.14206076839E+04  0.15294330000E+03 0.  0.
<mgrwt>
<rscale>  0 0.76057635E+03</rscale>
<asrwt>0</asrwt>
<pdfrwt beam="1">  1        1 0.82209961E-01 0.76057635E+03</pdfrwt>
<pdfrwt beam="2">  1       -1 0.25404975E+00 0.76057635E+03</pdfrwt>
<totfact> 0.27625650E+00</totfact>
</mgrwt>
</event>
<event>
 4    1  0.1678003E-008  0.4201885E+03  0.7818608E-02  0.1037005E+00
          1   -1    0    0  501    0  0.00000000000E+00  0.00000000000E+00  0.11913925109E+04  0.11913925109E+04  0.50400000000E-02 0. -1.
         -1   -1    0    0    0  501 -0.00000000000E+00 -0.00000000000E+00 -0.36568080908E+03  0.36568080912E+03  0.50400000000E-02 0.  1.
    8880022    1    1    2    0    0  0.33982733848E+03  0.19412383096E+03 -0.18754805797E+03  0.46014411741E+03  0.15294330000E+03 0.  0.
    8880022    1    1    2    0    0 -0.33982733848E+03 -0.19412383096E+03  0.10132597598E+04  0.10969292026E+04  0.15294330000E+03 0. -1.
<mgrwt>
<rscale>  0 0.42018845E+03</rscale>
<asrwt>0</asrwt>
<pdfrwt beam="1">  1        1 0.18329116E+00 0.42018845E+03</pdfrwt>
<pdfrwt beam="2">  1       -1 0.56258586E-01 0.42018845E+03</pdfrwt>
<totfact> 0.37399242E+01</totfact>
</mgrwt>
</event>
<event>
 4    1  0.1678003E-008  0.3951902E+03  0.7818608E-02  0.1045458E+00
         -1   -1    0    0    0  501 -0.00000000000E+00  0.00000000000E+00  0.23192900963E+03  0.23192900968E+03  0.50400000000E-02 0.  1.
          1   -1    0    0  501    0  0.00000000000E+00 -0.00000000000E+00 -0.91617822807E+03  0.91617822808E+03  0.50400000000E-02 0. -1.
    8880022    1    1    2    0    0  0.36060371749E+03  0.52427367723E+02 -0.46603017271E+02  0.39792859182E+03  0.15294330000E+03 0.  0.
    8880022    1    1    2    0    0 -0.36060371749E+03 -0.52427367723E+02 -0.63764620117E+03  0.75017864594E+03  0.15294330000E+03 0.  0.
<mgrwt>
<rscale>  0 0.39519024E+03</rscale>
<asrwt>0</asrwt>
<pdfrwt beam="1">  1        1 0.14095049E+00 0.39519024E+03</pdfrwt>
<pdfrwt beam="2">  1       -1 0.35681387E-01 0.39519024E+03</pdfrwt>
<totfact> 0.13911049E+02</totfact>
</mgrwt>
</event>
<event>
 4    1  0.1678003E-008  0.2437570E+03  0.7818608E-02  0.1117315E+00
          1   -1    0    0  501    0  0.00000000000E+00  0.00000000000E+00  0.14312307069E+03  0.14312307078E+03  0.50400000000E-02 0. -1.
         -1   -1    0    0    0  501 -0.00000000000E+00 -0.00000000000E+00 -0.42875184807E+03  0.42875184810E+03  0.50400000000E-02 0.  1.
    8880022    1    1    2    0    0  0.14704166233E+02 -0.18923423652E+03 -0.19374466715E+03  0.31137510793E+03  0.15294330000E+03 0.  0.
    8880022    1    1    2    0    0 -0.14704166233E+02  0.18923423652E+03 -0.91884110228E+02  0.26049981094E+03  0.15294330000E+03 0.  0.
<mgrwt>
<rscale>  0 0.24375697E+03</rscale>
<asrwt>0</asrwt>
<pdfrwt beam="1">  1        1 0.22018934E-01 0.24375697E+03</pdfrwt>
<pdfrwt beam="2">  1       -1 0.65961822E-01 0.24375697E+03</pdfrwt>
<totfact> 0.54559787E+02</totfact>
</mgrwt>
</event>
<event>
 4    1  0.1678003E-008  0.5978136E+03  0.7818608E-02  0.9909953E-01
          1   -1    0    0  501    0  0.00000000000E+00  0.00000000000E+00  0.99157039573E+03  0.99157039574E+03  0.50400000000E-02 0. -1.
         -1   -1    0    0    0  501 -0.00000000000E+00 -0.00000000000E+00 -0.55962033628E+03  0.55962033630E+03  0.50400000000E-02 0.  1.
    8880022    1    1    2    0    0 -0.11633865368E+02 -0.57780106776E+03 -0.24676204401E+03  0.64673996328E+03  0.15294330000E+03 0.  0.
    8880022    1    1    2    0    0  0.11633865368E+02  0.57780106776E+03  0.67871210346E+03  0.90445076877E+03  0.15294330000E+03 0.  0.
<mgrwt>
<rscale>  0 0.59781358E+03</rscale>
<asrwt>0</asrwt>
<pdfrwt beam="1">  1        1 0.15254929E+00 0.59781358E+03</pdfrwt>
<pdfrwt beam="2">  1       -1 0.86095438E-01 0.59781358E+03</pdfrwt>
<totfact> 0.21477572E+01</totfact>
</mgrwt>
</event>
<event>
 4    1  0.1678003E-008  0.3783138E+03  0.7818608E-02  0.1051559E+00
         -1   -1    0    0    0  501 -0.00000000000E+00  0.00000000000E+00  0.17742666108E+04  0.17742666108E+04  0.50400000000E-02 0.  1.
          1   -1    0    0  501    0  0.00000000000E+00 -0.00000000000E+00 -0.14093879849E+03  0.14093879858E+03  0.50400000000E-02 0. -1.
    8880022    1    1    2    0    0 -0.33809854226E+03  0.73614276026E+02  0.14428942586E+04  0.14916652374E+04  0.15294330000E+03 0.  0.
    8880022    1    1    2    0    0  0.33809854226E+03 -0.73614276026E+02  0.19043355371E+03  0.42354017201E+03  0.15294330000E+03 0.  0.
<mgrwt>
<rscale>  0 0.37831381E+03</rscale>
<asrwt>0</asrwt>
<pdfrwt beam="1">  1        1 0.21682891E-01 0.37831381E+03</pdfrwt>
<pdfrwt beam="2">  1       -1 0.27296411E+00 0.37831381E+03</pdfrwt>
<totfact> 0.12804835E+01</totfact>
</mgrwt>
</event>
<event>
 4    1  0.1678003E-008  0.4727589E+03  0.7818608E-02  0.1021144E+00
         -1   -1    0    0    0  501 -0.00000000000E+00  0.00000000000E+00  0.29336431049E+03  0.29336431053E+03  0.50400000000E-02 0.  1.
          1   -1    0    0  501    0  0.00000000000E+00 -0.00000000000E+00 -0.77202306518E+03  0.77202306519E+03  0.50400000000E-02 0. -1.
    8880022    1    1    2    0    0 -0.32582927342E+03  0.30650387235E+03 -0.30046396734E+03  0.56016032336E+03  0.15294330000E+03 0.  0.
    8880022    1    1    2    0    0  0.32582927342E+03 -0.30650387235E+03 -0.17819478735E+03  0.50522705236E+03  0.15294330000E+03 0.  0.
<mgrwt>
<rscale>  0 0.47275892E+03</rscale>
<asrwt>0</asrwt>
<pdfrwt beam="1">  1        1 0.11877278E+00 0.47275892E+03</pdfrwt>
<pdfrwt beam="2">  1       -1 0.45132971E-01 0.47275892E+03</pdfrwt>
<totfact> 0.11882680E+02</totfact>
</mgrwt>
</event>
<event>
 4    1  0.1678003E-008  0.5817373E+03  0.7818608E-02  0.9944037E-01
          1   -1    0    0  501    0  0.00000000000E+00  0.00000000000E+00  0.79335408185E+03  0.79335408187E+03  0.50400000000E-02 0. -1.
         -1   -1    0    0    0  501 -0.00000000000E+00 -0.00000000000E+00 -0.20198272040E+04  0.20198272040E+04  0.50400000000E-02 0.  1.
    8880022    1    1    2    0    0  0.19627907563E+03  0.52583379060E+03  0.63602688556E+03  0.86194460556E+03  0.15294330000E+03 0.  0.
    8880022    1    1    2    0    0 -0.19627907563E+03 -0.52583379060E+03 -0.18625000077E+04  0.19512366803E+04  0.15294330000E+03 0.  0.
<mgrwt>
<rscale>  0 0.58173732E+03</rscale>
<asrwt>0</asrwt>
<pdfrwt beam="1">  1        1 0.12205447E+00 0.58173732E+03</pdfrwt>
<pdfrwt beam="2">  1       -1 0.31074265E+00 0.58173732E+03</pdfrwt>
<totfact> 0.69546815E-01</totfact>
</mgrwt>
</event>
<event>
 4    1  0.1678003E-008  0.1099595E+04  0.7818608E-02  0.9205586E-01
         -1   -1    0    0    0  501 -0.00000000000E+00  0.00000000000E+00  0.74180100788E+03  0.74180100790E+03  0.50400000000E-02 0.  1.
          1   -1    0    0  501    0  0.00000000000E+00 -0.00000000000E+00 -0.17429755595E+04  0.17429755595E+04  0.50400000000E-02 0. -1.
    8880022    1    1    2    0    0 -0.40013534717E+03  0.10127239000E+04 -0.81693979497E+03  0.13698541073E+04  0.15294330000E+03 0.  0.
    8880022    1    1    2    0    0  0.40013534717E+03 -0.10127239000E+04 -0.18423475669E+03  0.11149224602E+04  0.15294330000E+03 0.  0.
<mgrwt>
<rscale>  0 0.10995952E+04</rscale>
<asrwt>0</asrwt>
<pdfrwt beam="1">  1        1 0.26815008E+00 0.10995952E+04</pdfrwt>
<pdfrwt beam="2">  1       -1 0.11412323E+00 0.10995952E+04</pdfrwt>
<totfact> 0.30997562E+00</totfact>
</mgrwt>
</event>
<event>
 4    1  0.2858966E-008  0.6354865E+03  0.7818608E-02  0.9834400E-01
         -1   -1    0    0    0  501 -0.00000000000E+00  0.00000000000E+00  0.17573847355E+04  0.17573847355E+04  0.50400000000E-02 0.  1.
          1   -1    0    0  501    0  0.00000000000E+00 -0.00000000000E+00 -0.23941137524E+04  0.23941137524E+04  0.50400000000E-02 0. -1.
    8880022    1    1    2    0    0  0.61667173422E+03  0.12940911105E+02 -0.22919812836E+04  0.23784493588E+04  0.15294330000E+03 0.  0.
    8880022    1    1    2    0    0 -0.61667173422E+03 -0.12940911105E+02  0.16552522666E+04  0.17730491291E+04  0.15294330000E+03 0.  1.
<mgrwt>
<rscale>  0 0.63548654E+03</rscale>
<asrwt>0</asrwt>
<pdfrwt beam="1">  1        1 0.36832520E+00 0.63548654E+03</pdfrwt>
<pdfrwt beam="2">  1       -1 0.27036688E+00 0.63548654E+03</pdfrwt>
<totfact> 0.92967223E-02</totfact>
</mgrwt>
</event>
<event>
 4    1  0.1678003E-008  0.1129852E+04  0.7818608E-02  0.9176575E-01
         -1   -1    0    0    0  501 -0.00000000000E+00  0.00000000000E+00  0.20694217792E+04  0.20694217792E+04  0.50400000000E-02 0.  1.
          1   -1    0    0  501    0  0.00000000000E+00 -0.00000000000E+00 -0.87873484340E+03  0.87873484341E+03  0.50400000000E-02 0. -1.
    8880022    1    1    2    0    0 -0.11172433397E+04 -0.70287432132E+02  0.14000361524E+04  0.17990736183E+04  0.15294330000E+03 0.  0.
    8880022    1    1    2    0    0  0.11172433397E+04  0.70287432132E+02 -0.20934921664E+03  0.11490830042E+04  0.15294330000E+03 0.  0.
<mgrwt>
<rscale>  0 0.11298516E+04</rscale>
<asrwt>0</asrwt>
<pdfrwt beam="1">  1        1 0.13518998E+00 0.11298516E+04</pdfrwt>
<pdfrwt beam="2">  1       -1 0.31837258E+00 0.11298516E+04</pdfrwt>
<totfact> 0.47378889E-01</totfact>
</mgrwt>
</event>
<event>
 4    1  0.1678003E-008  0.4970153E+03  0.7818608E-02  0.1014561E+00
         -1   -1    0    0    0  501 -0.00000000000E+00  0.00000000000E+00  0.17710479933E+03  0.17710479940E+03  0.50400000000E-02 0.  1.
          1   -1    0    0  501    0  0.00000000000E+00 -0.00000000000E+00 -0.15258727563E+04  0.15258727563E+04  0.50400000000E-02 0. -1.
    8880022    1    1    2    0    0 -0.24376060706E+02  0.47226937905E+03 -0.42481500073E+03  0.65382872114E+03  0.15294330000E+03 0.  0.
    8880022    1    1    2    0    0  0.24376060706E+02 -0.47226937905E+03 -0.92395295626E+03  0.10491488346E+04  0.15294330000E+03 0.  0.
<mgrwt>
<rscale>  0 0.49701530E+03</rscale>
<asrwt>0</asrwt>
<pdfrwt beam="1">  1        1 0.23474965E+00 0.49701530E+03</pdfrwt>
<pdfrwt beam="2">  1       -1 0.27246893E-01 0.49701530E+03</pdfrwt>
<totfact> 0.80040565E+01</totfact>
</mgrwt>
</event>
<event>
 4    1  0.1678003E-008  0.6462498E+03  0.7818608E-02  0.9813842E-01
         -1   -1    0    0    0  501 -0.00000000000E+00  0.00000000000E+00  0.25925078159E+03  0.25925078164E+03  0.50400000000E-02 0.  1.
          1   -1    0    0  501    0  0.00000000000E+00 -0.00000000000E+00 -0.21564633999E+04  0.21564633999E+04  0.50400000000E-02 0. -1.
    8880022    1    1    2    0    0 -0.57998665070E+03 -0.24054647615E+03 -0.34110226816E+03  0.73074587412E+03  0.15294330000E+03 0.  0.
    8880022    1    1    2    0    0  0.57998665070E+03  0.24054647615E+03 -0.15561103501E+04  0.16849683074E+04  0.15294330000E+03 0.  0.
<mgrwt>
<rscale>  0 0.64624978E+03</rscale>
<asrwt>0</asrwt>
<pdfrwt beam="1">  1        1 0.33176359E+00 0.64624978E+03</pdfrwt>
<pdfrwt beam="2">  1       -1 0.39884737E-01 0.64624978E+03</pdfrwt>
<totfact> 0.15182382E+01</totfact>
</mgrwt>
</event>
<event>
 4    1  0.2342491E-008  0.9690488E+03  0.7818608E-02  0.9343158E-01
          1   -1    0    0  501    0  0.00000000000E+00  0.00000000000E+00  0.20069929426E+04  0.20069929426E+04  0.50400000000E-02 0. -1.
         -1   -1    0    0    0  501 -0.00000000000E+00 -0.00000000000E+00 -0.25587742238E+04  0.25587742238E+04  0.50400000000E-02 0.  1.
    8880022    1    1    2    0    0  0.73779849588E+03  0.60935807152E+03  0.17877429468E+04  0.20334897041E+04  0.15294330000E+03 0.  0.
    8880022    1    1    2    0    0 -0.73779849588E+03 -0.60935807152E+03 -0.23395242279E+04  0.25322774623E+04  0.15294330000E+03 0.  0.
<mgrwt>
<rscale>  0 0.96904878E+03</rscale>
<asrwt>0</asrwt>
<pdfrwt beam="1">  1        1 0.30876814E+00 0.96904878E+03</pdfrwt>
<pdfrwt beam="2">  1       -1 0.39365757E+00 0.96904878E+03</pdfrwt>
<totfact> 0.24263347E-02</totfact>
</mgrwt>
</event>
<event>
 4    1  0.1678003E-008  0.6818756E+03  0.7818608E-02  0.9748739E-01
         -1   -1    0    0    0  501 -0.00000000000E+00  0.00000000000E+00  0.21026156085E+03  0.21026156091E+03  0.50400000000E-02 0.  1.
          1   -1    0    0  501    0  0.00000000000E+00 -0.00000000000E+00 -0.28360391650E+04  0.28360391650E+04  0.50400000000E-02 0. -1.
    8880022    1    1    2    0    0 -0.66437830089E+03  0.12814289480E+02 -0.20277653991E+04  0.21393426326E+04  0.15294330000E+03 0. -1.
    8880022    1    1    2    0    0  0.66437830089E+03 -0.12814289480E+02 -0.59801220509E+03  0.90695809339E+03  0.15294330000E+03 0.  0.
<mgrwt>
<rscale>  0 0.68187564E+03</rscale>
<asrwt>0</asrwt>
<pdfrwt beam="1">  1        1 0.43631369E+00 0.68187564E+03</pdfrwt>
<pdfrwt beam="2">  1       -1 0.32347935E-01 0.68187564E+03</pdfrwt>
<totfact> 0.75390303E+00</totfact>
</mgrwt>
</event>
<event>
 4    1  0.1678003E-008  0.6578946E+03  0.7818608E-02  0.9792077E-01
          1   -1    0    0  501    0  0.00000000000E+00  0.00000000000E+00  0.62269107587E+03  0.62269107589E+03  0.50400000000E-02 0. -1.
         -1   -1    0    0    0  501 -0.00000000000E+00 -0.00000000000E+00 -0.87663708172E+03  0.87663708173E+03  0.50400000000E-02 0.  1.
    8880022    1    1    2    0    0  0.35332547757E+03 -0.53347419499E+03  0.21418336957E+03  0.69188133277E+03  0.15294330000E+03 0.  0.
    8880022    1    1    2    0    0 -0.35332547757E+03  0.53347419499E+03 -0.46812937542E+03  0.80744682485E+03  0.15294330000E+03 0.  0.
<mgrwt>
<rscale>  0 0.65789457E+03</rscale>
<asrwt>0</asrwt>
<pdfrwt beam="1">  1        1 0.95798627E-01 0.65789457E+03</pdfrwt>
<pdfrwt beam="2">  1       -1 0.13486724E+00 0.65789457E+03</pdfrwt>
<totfact> 0.15580688E+01</totfact>
</mgrwt>
</event>
<event>
 4    1  0.1678003E-008  0.3780132E+03  0.7818608E-02  0.1051671E+00
          1   -1    0    0  501    0  0.00000000000E+00  0.00000000000E+00  0.18459090772E+04  0.18459090772E+04  0.50400000000E-02 0. -1.
         -1   -1    0    0    0  501 -0.00000000000E+00 -0.00000000000E+00 -0.17270465175E+03  0.17270465182E+03  0.50400000000E-02 0.  1.
    8880022    1    1    2    0    0 -0.28111341997E+03 -0.20119042276E+03  0.86875834561E+02  0.38786776709E+03  0.15294330000E+03 0.  0.
    8880022    1    1    2    0    0  0.28111341997E+03  0.20119042276E+03  0.15863285909E+04  0.16307459619E+04  0.15294330000E+03 0.  0.
<mgrwt>
<rscale>  0 0.37801322E+03</rscale>
<asrwt>0</asrwt>
<pdfrwt beam="1">  1        1 0.28398603E+00 0.37801322E+03</pdfrwt>
<pdfrwt beam="2">  1       -1 0.26569945E-01 0.37801322E+03</pdfrwt>
<totfact> 0.52364775E+01</totfact>
</mgrwt>
</event>
<event>
 4    1  0.1678003E-008  0.1966076E+03  0.7818608E-02  0.1152633E+00
          1   -1    0    0  501    0  0.00000000000E+00  0.00000000000E+00  0.13208586167E+04  0.13208586167E+04  0.50400000000E-02 0. -1.
         -1   -1    0    0    0  501 -0.00000000000E+00 -0.00000000000E+00 -0.29966322856E+03  0.29966322860E+03  0.50400000000E-02 0.  1.
    8880022    1    1    2    0    0 -0.95781792495E+02  0.78030507651E+02 -0.25908249537E+03  0.32523576729E+03  0.15294330000E+03 0.  0.
    8880022    1    1    2    0    0  0.95781792495E+02 -0.78030507651E+02  0.12802778835E+04  0.12952860780E+04  0.15294330000E+03 0. -1.
<mgrwt>
<rscale>  0 0.19660764E+03</rscale>
<asrwt>0</asrwt>
<pdfrwt beam="1">  1        1 0.20320902E+00 0.19660764E+03</pdfrwt>
<pdfrwt beam="2">  1       -1 0.46102036E-01 0.19660764E+03</pdfrwt>
<totfact> 0.47033706E+01</totfact>
</mgrwt>
</event>
<event>
 4    1  0.1678003E-008  0.3737129E+03  0.7818608E-02  0.1053282E+00
          1   -1    0    0  501    0  0.00000000000E+00  0.00000000000E+00  0.71919103809E+03  0.71919103811E+03  0.50400000000E-02 0. -1.
         -1   -1    0    0    0  501 -0.00000000000E+00 -0.00000000000E+00 -0.40477088279E+03  0.40477088283E+03  0.50400000000E-02 0.  1.
    8880022    1    1    2    0    0 -0.23026443032E+02 -0.34020499247E+03  0.56255445030E+03  0.67537309433E+03  0.15294330000E+03 0. -1.
    8880022    1    1    2    0    0  0.23026443032E+02  0.34020499247E+03 -0.24813429500E+03  0.44858882660E+03  0.15294330000E+03 0.  0.
<mgrwt>
<rscale>  0 0.37371287E+03</rscale>
<asrwt>0</asrwt>
<pdfrwt beam="1">  1        1 0.11064477E+00 0.37371287E+03</pdfrwt>
<pdfrwt beam="2">  1       -1 0.62272444E-01 0.37371287E+03</pdfrwt>
<totfact> 0.72831253E+01</totfact>
</mgrwt>
</event>
<event>
 4    1  0.1678003E-008  0.4526750E+03  0.7818608E-02  0.1026927E+00
         -1   -1    0    0    0  501 -0.00000000000E+00  0.00000000000E+00  0.23305087602E+03  0.23305087608E+03  0.50400000000E-02 0.  1.
          1   -1    0    0  501    0  0.00000000000E+00 -0.00000000000E+00 -0.11476672463E+04  0.11476672464E+04  0.50400000000E-02 0. -1.
    8880022    1    1    2    0    0 -0.42228919060E+03  0.56522706000E+02 -0.12345454778E+03  0.46920747561E+03  0.15294330000E+03 0.  0.
    8880022    1    1    2    0    0  0.42228919060E+03 -0.56522706000E+02 -0.79116182255E+03  0.91151064682E+03  0.15294330000E+03 0.  0.
<mgrwt>
<rscale>  0 0.45267497E+03</rscale>
<asrwt>0</asrwt>
<pdfrwt beam="1">  1        1 0.17656419E+00 0.45267497E+03</pdfrwt>
<pdfrwt beam="2">  1       -1 0.35853982E-01 0.45267497E+03</pdfrwt>
<totfact> 0.91558405E+01</totfact>
</mgrwt>
</event>
<event>
 4    1  0.1678003E-008  0.4690682E+03  0.7818608E-02  0.1022184E+00
         -1   -1    0    0    0  501 -0.00000000000E+00  0.00000000000E+00  0.20785118377E+03  0.20785118383E+03  0.50400000000E-02 0.  1.
          1   -1    0    0  501    0  0.00000000000E+00 -0.00000000000E+00 -0.23254300490E+04  0.23254300490E+04  0.50400000000E-02 0. -1.
    8880022    1    1    2    0    0 -0.99028057607E+02  0.43223459524E+03 -0.19936915658E+04  0.20481286615E+04  0.15294330000E+03 0.  0.
    8880022    1    1    2    0    0  0.99028057607E+02 -0.43223459524E+03 -0.12388729945E+03  0.48515257136E+03  0.15294330000E+03 0.  0.
<mgrwt>
<rscale>  0 0.46906818E+03</rscale>
<asrwt>0</asrwt>
<pdfrwt beam="1">  1        1 0.35775845E+00 0.46906818E+03</pdfrwt>
<pdfrwt beam="2">  1       -1 0.31977107E-01 0.46906818E+03</pdfrwt>
<totfact> 0.17981927E+01</totfact>
</mgrwt>
</event>
<event>
 4    1  0.1678003E-008  0.2562473E+03  0.7818608E-02  0.1109419E+00
         -1   -1    0    0    0  501 -0.00000000000E+00  0.00000000000E+00  0.91621996109E+02  0.91621996247E+02  0.50400000000E-02 0.  1.
          1   -1    0    0  501    0  0.00000000000E+00 -0.00000000000E+00 -0.10996960025E+04  0.10996960026E+04  0.50400000000E-02 0. -1.
    8880022    1    1    2    0    0 -0.71112912726E+01 -0.20547615181E+03 -0.15249606557E+03  0.29819074844E+03  0.15294330000E+03 0. -1.
    8880022    1    1    2    0    0  0.71112912726E+01  0.20547615181E+03 -0.85557794087E+03  0.89312725036E+03  0.15294330000E+03 0.  0.
<mgrwt>
<rscale>  0 0.25624729E+03</rscale>
<asrwt>0</asrwt>
<pdfrwt beam="1">  1        1 0.16918399E+00 0.25624729E+03</pdfrwt>
<pdfrwt beam="2">  1       -1 0.14095692E-01 0.25624729E+03</pdfrwt>
<totfact> 0.48204901E+02</totfact>
</mgrwt>
</event>
<event>
 4    1  0.1678003E-008  0.7826698E+03  0.7818608E-02  0.9585446E-01
         -1   -1    0    0    0  501 -0.00000000000E+00  0.00000000000E+00  0.83408179383E+03  0.83408179384E+03  0.50400000000E-02 0.  1.
          1   -1    0    0  501    0  0.00000000000E+00 -0.00000000000E+00 -0.10225869205E+04  0.10225869206E+04  0.50400000000E-02 0. -1.
    8880022    1    1    2    0    0  0.46649287494E+02 -0.76616203244E+03 -0.58705313602E+03  0.97836774962E+03  0.15294330000E+03 0.  0.
    8880022    1    1    2    0    0 -0.46649287494E+02  0.76616203244E+03  0.39854800930E+03  0.87830096477E+03  0.15294330000E+03 0.  0.
<mgrwt>
<rscale>  0 0.78266983E+03</rscale>
<asrwt>0</asrwt>
<pdfrwt beam="1">  1        1 0.15732106E+00 0.78266983E+03</pdfrwt>
<pdfrwt beam="2">  1       -1 0.12832028E+00 0.78266983E+03</pdfrwt>
<totfact> 0.78378623E+00</totfact>
</mgrwt>
</event>
<event>
 4    1  0.1678003E-008  0.5071547E+03  0.7818608E-02  0.1011928E+00
         -1   -1    0    0    0  501 -0.00000000000E+00  0.00000000000E+00  0.13063820150E+04  0.13063820151E+04  0.50400000000E-02 0.  1.
          1   -1    0    0  501    0  0.00000000000E+00 -0.00000000000E+00 -0.25801240545E+03  0.25801240550E+03  0.50400000000E-02 0. -1.
    8880022    1    1    2    0    0  0.45577237466E+03  0.16151087030E+03  0.14345482057E+03  0.52705327747E+03  0.15294330000E+03 0.  0.
    8880022    1    1    2    0    0 -0.45577237466E+03 -0.16151087030E+03  0.90491478903E+03  0.10373411431E+04  0.15294330000E+03 0.  0.
<mgrwt>
<rscale>  0 0.50715468E+03</rscale>
<asrwt>0</asrwt>
<pdfrwt beam="1">  1        1 0.39694216E-01 0.50715468E+03</pdfrwt>
<pdfrwt beam="2">  1       -1 0.20098185E+00 0.50715468E+03</pdfrwt>
<totfact> 0.16771785E+01</totfact>
</mgrwt>
</event>
<event>
 4    1  0.1678003E-008  0.7519418E+03  0.7818608E-02  0.9632309E-01
          1   -1    0    0  501    0  0.00000000000E+00  0.00000000000E+00  0.12421309357E+04  0.12421309358E+04  0.50400000000E-02 0. -1.
         -1   -1    0    0    0  501 -0.00000000000E+00 -0.00000000000E+00 -0.19985486270E+04  0.19985486270E+04  0.50400000000E-02 0.  1.
    8880022    1    1    2    0    0 -0.52308953136E+03 -0.51807538972E+03  0.10456958884E+04  0.12879814872E+04  0.15294330000E+03 0.  0.
    8880022    1    1    2    0    0  0.52308953136E+03  0.51807538972E+03 -0.18021135797E+04  0.19526980756E+04  0.15294330000E+03 0.  0.
<mgrwt>
<rscale>  0 0.75194177E+03</rscale>
<asrwt>0</asrwt>
<pdfrwt beam="1">  1        1 0.19109707E+00 0.75194177E+03</pdfrwt>
<pdfrwt beam="2">  1       -1 0.30746902E+00 0.75194177E+03</pdfrwt>
<totfact> 0.31408983E-01</totfact>
</mgrwt>
</event>
<event>
 4    1  0.1678003E-008  0.2369186E+03  0.7818608E-02  0.1121863E+00
          1   -1    0    0  501    0  0.00000000000E+00  0.00000000000E+00  0.25504199842E+02  0.25504200340E+02  0.50400000000E-02 0. -1.
         -1   -1    0    0    0  501 -0.00000000000E+00 -0.00000000000E+00 -0.30351550720E+04  0.30351550720E+04  0.50400000000E-02 0.  1.
    8880022    1    1    2    0    0 -0.56146480876E+01 -0.18085145734E+03 -0.23071720197E+04  0.23193044551E+04  0.15294330000E+03 0.  1.
    8880022    1    1    2    0    0  0.56146480876E+01  0.18085145734E+03 -0.70247885239E+03  0.74135481718E+03  0.15294330000E+03 0.  0.
<mgrwt>
<rscale>  0 0.23691861E+03</rscale>
<asrwt>0</asrwt>
<pdfrwt beam="1">  1        1 0.39237255E-02 0.23691861E+03</pdfrwt>
<pdfrwt beam="2">  1       -1 0.46694665E+00 0.23691861E+03</pdfrwt>
<totfact> 0.72583904E+00</totfact>
</mgrwt>
</event>
<event>
 4    1  0.1678003E-008  0.7896925E+03  0.7818608E-02  0.9575058E-01
          1   -1    0    0  501    0  0.00000000000E+00  0.00000000000E+00  0.86259811002E+03  0.86259811003E+03  0.50400000000E-02 0. -1.
         -1   -1    0    0    0  501 -0.00000000000E+00 -0.00000000000E+00 -0.15066389352E+04  0.15066389352E+04  0.50400000000E-02 0.  1.
    8880022    1    1    2    0    0  0.77387131833E+03 -0.36684243410E+02 -0.11763907001E+04  0.14168660075E+04  0.15294330000E+03 0.  0.
    8880022    1    1    2    0    0 -0.77387131833E+03  0.36684243410E+02  0.53234987493E+03  0.95237103767E+03  0.15294330000E+03 0.  0.
<mgrwt>
<rscale>  0 0.78969247E+03</rscale>
<asrwt>0</asrwt>
<pdfrwt beam="1">  1        1 0.13270740E+00 0.78969247E+03</pdfrwt>
<pdfrwt beam="2">  1       -1 0.23179060E+00 0.78969247E+03</pdfrwt>
<totfact> 0.18638793E+00</totfact>
</mgrwt>
</event>
<event>
 4    1  0.1678003E-008  0.1892551E+03  0.7818608E-02  0.1159135E+00
          1   -1    0    0  501    0  0.00000000000E+00  0.00000000000E+00  0.15240762032E+04  0.15240762032E+04  0.50400000000E-02 0. -1.
         -1   -1    0    0    0  501 -0.00000000000E+00 -0.00000000000E+00 -0.17475519562E+03  0.17475519569E+03  0.50400000000E-02 0.  1.
    8880022    1    1    2    0    0  0.46005882236E+02 -0.10153473151E+03 -0.11557907981E+03  0.22175666756E+03  0.15294330000E+03 0.  1.
    8880022    1    1    2    0    0 -0.46005882236E+02  0.10153473151E+03  0.14649000874E+04  0.14770747314E+04  0.15294330000E+03 0.  0.
<mgrwt>
<rscale>  0 0.18925511E+03</rscale>
<asrwt>0</asrwt>
<pdfrwt beam="1">  1        1 0.23447326E+00 0.18925511E+03</pdfrwt>
<pdfrwt beam="2">  1       -1 0.26885415E-01 0.18925511E+03</pdfrwt>
<totfact> 0.88186845E+01</totfact>
</mgrwt>
</event>
<event>
 4    1  0.1678003E-008  0.4110534E+03  0.7818608E-02  0.1040018E+00
         -1   -1    0    0    0  501 -0.00000000000E+00  0.00000000000E+00  0.32254193545E+03  0.32254193549E+03  0.50400000000E-02 0.  1.
          1   -1    0    0  501    0  0.00000000000E+00 -0.00000000000E+00 -0.75033477029E+03  0.75033477031E+03  0.50400000000E-02 0. -1.
    8880022    1    1    2    0    0 -0.14076481453E+03 -0.35462451575E+03  0.80822356733E+02  0.41892384337E+03  0.15294330000E+03 0.  1.
    8880022    1    1    2    0    0  0.14076481453E+03  0.35462451575E+03 -0.50861519157E+03  0.65395286244E+03  0.15294330000E+03 0.  0.
<mgrwt>
<rscale>  0 0.41105344E+03</rscale>
<asrwt>0</asrwt>
<pdfrwt beam="1">  1        1 0.11543612E+00 0.41105344E+03</pdfrwt>
<pdfrwt beam="2">  1       -1 0.49621836E-01 0.41105344E+03</pdfrwt>
<totfact> 0.10490351E+02</totfact>
</mgrwt>
</event>
<event>
 4    1  0.1678003E-008  0.5597640E+03  0.7818608E-02  0.9992589E-01
          1   -1    0    0  501    0  0.00000000000E+00  0.00000000000E+00  0.72178941777E+03  0.72178941779E+03  0.50400000000E-02 0. -1.
         -1   -1    0    0    0  501 -0.00000000000E+00 -0.00000000000E+00 -0.22085833390E+04  0.22085833390E+04  0.50400000000E-02 0.  1.
    8880022    1    1    2    0    0 -0.53517233210E+03 -0.59453351629E+02 -0.20567175536E+04  0.21315306412E+04  0.15294330000E+03 0.  0.
    8880022    1    1    2    0    0  0.53517233210E+03  0.59453351629E+02  0.56992363231E+03  0.79884211566E+03  0.15294330000E+03 0.  0.
<mgrwt>
<rscale>  0 0.55976404E+03</rscale>
<asrwt>0</asrwt>
<pdfrwt beam="1">  1        1 0.11104453E+00 0.55976404E+03</pdfrwt>
<pdfrwt beam="2">  1       -1 0.33978205E+00 0.55976404E+03</pdfrwt>
<totfact> 0.52729459E-01</totfact>
</mgrwt>
</event>
<event>
 4    1  0.1678003E-008  0.5039816E+03  0.7818608E-02  0.1012745E+00
         -1   -1    0    0    0  501 -0.00000000000E+00  0.00000000000E+00  0.76174338514E+03  0.76174338515E+03  0.50400000000E-02 0.  1.
          1   -1    0    0  501    0  0.00000000000E+00 -0.00000000000E+00 -0.53828428401E+03  0.53828428404E+03  0.50400000000E-02 0. -1.
    8880022    1    1    2    0    0 -0.47952023759E+03 -0.25809892585E+02  0.51271281126E+03  0.71893802838E+03  0.15294330000E+03 0.  0.
    8880022    1    1    2    0    0  0.47952023759E+03  0.25809892585E+02 -0.28925371014E+03  0.58108964081E+03  0.15294330000E+03 0.  0.
<mgrwt>
<rscale>  0 0.50398161E+03</rscale>
<asrwt>0</asrwt>
<pdfrwt beam="1">  1        1 0.82812967E-01 0.50398161E+03</pdfrwt>
<pdfrwt beam="2">  1       -1 0.11719129E+00 0.50398161E+03</pdfrwt>
<totfact> 0.27692628E+01</totfact>
</mgrwt>
</event>
<event>
 4    1  0.1678003E-008  0.8386594E+03  0.7818608E-02  0.9505686E-01
          1   -1    0    0  501    0  0.00000000000E+00  0.00000000000E+00  0.93087257308E+03  0.93087257310E+03  0.50400000000E-02 0. -1.
         -1   -1    0    0    0  501 -0.00000000000E+00 -0.00000000000E+00 -0.14046594374E+04  0.14046594374E+04  0.50400000000E-02 0.  1.
    8880022    1    1    2    0    0  0.80047870274E+03  0.19796922293E+03 -0.10307077030E+04  0.13287994540E+04  0.15294330000E+03 0.  0.
    8880022    1    1    2    0    0 -0.80047870274E+03 -0.19796922293E+03  0.55692083871E+03  0.10067325565E+04  0.15294330000E+03 0.  0.
<mgrwt>
<rscale>  0 0.83865942E+03</rscale>
<asrwt>0</asrwt>
<pdfrwt beam="1">  1        1 0.14321116E+00 0.83865942E+03</pdfrwt>
<pdfrwt beam="2">  1       -1 0.21610145E+00 0.83865942E+03</pdfrwt>
<totfact> 0.20648311E+00</totfact>
</mgrwt>
</event>
<event>
 4    1  0.1678003E-008  0.8196318E+03  0.7818608E-02  0.9532028E-01
          1   -1    0    0  501    0  0.00000000000E+00  0.00000000000E+00  0.23617199258E+04  0.23617199258E+04  0.50400000000E-02 0. -1.
         -1   -1    0    0    0  501 -0.00000000000E+00 -0.00000000000E+00 -0.77096789667E+03  0.77096789669E+03  0.50400000000E-02 0.  1.
    8880022    1    1    2    0    0 -0.63353987663E+03 -0.49702307016E+03  0.20396539998E+04  0.21981776087E+04  0.15294330000E+03 0.  0.
    8880022    1    1    2    0    0  0.63353987663E+03  0.49702307016E+03 -0.44890197060E+03  0.93451021385E+03  0.15294330000E+03 0.  0.
<mgrwt>
<rscale>  0 0.81963184E+03</rscale>
<asrwt>0</asrwt>
<pdfrwt beam="1">  1        1 0.36334153E+00 0.81963184E+03</pdfrwt>
<pdfrwt beam="2">  1       -1 0.11861044E+00 0.81963184E+03</pdfrwt>
<totfact> 0.11280284E+00</totfact>
</mgrwt>
</event>
<event>
 4    1  0.1678003E-008  0.2572327E+03  0.7818608E-02  0.1108817E+00
         -1   -1    0    0    0  501 -0.00000000000E+00  0.00000000000E+00  0.95119385420E+03  0.95119385421E+03  0.50400000000E-02 0.  1.
          1   -1    0    0  501    0  0.00000000000E+00 -0.00000000000E+00 -0.24385127393E+03  0.24385127399E+03  0.50400000000E-02 0. -1.
    8880022    1    1    2    0    0 -0.19281774045E+03  0.74822109872E+02  0.85882651944E+03  0.89652198672E+03  0.15294330000E+03 0.  0.
    8880022    1    1    2    0    0  0.19281774045E+03 -0.74822109872E+02 -0.15148393917E+03  0.29852314148E+03  0.15294330000E+03 0.  0.
<mgrwt>
<rscale>  0 0.25723274E+03</rscale>
<asrwt>0</asrwt>
<pdfrwt beam="1">  1        1 0.37515581E-01 0.25723274E+03</pdfrwt>
<pdfrwt beam="2">  1       -1 0.14633752E+00 0.25723274E+03</pdfrwt>
<totfact> 0.46570193E+01</totfact>
</mgrwt>
</event>
<event>
 4    1  0.1678003E-008  0.3210346E+03  0.7818608E-02  0.1075174E+00
          1   -1    0    0  501    0  0.00000000000E+00  0.00000000000E+00  0.58922271383E+03  0.58922271385E+03  0.50400000000E-02 0. -1.
         -1   -1    0    0    0  501 -0.00000000000E+00 -0.00000000000E+00 -0.58338693850E+03  0.58338693852E+03  0.50400000000E-02 0.  1.
    8880022    1    1    2    0    0 -0.28158886932E+03  0.19474679759E+02  0.49351710188E+03  0.58874641174E+03  0.15294330000E+03 0.  0.
    8880022    1    1    2    0    0  0.28158886932E+03 -0.19474679759E+02 -0.48768132655E+03  0.58386324063E+03  0.15294330000E+03 0.  1.
<mgrwt>
<rscale>  0 0.32103459E+03</rscale>
<asrwt>0</asrwt>
<pdfrwt beam="1">  1        1 0.90649648E-01 0.32103459E+03</pdfrwt>
<pdfrwt beam="2">  1       -1 0.89751837E-01 0.32103459E+03</pdfrwt>
<totfact> 0.46271772E+01</totfact>
</mgrwt>
</event>
<event>
 4    1  0.1678003E-008  0.2433829E+03  0.7818608E-02  0.1117560E+00
          1   -1    0    0  501    0  0.00000000000E+00  0.00000000000E+00  0.21597340751E+04  0.21597340751E+04  0.50400000000E-02 0. -1.
         -1   -1    0    0    0  501 -0.00000000000E+00 -0.00000000000E+00 -0.17628009730E+03  0.17628009737E+03  0.50400000000E-02 0.  1.
    8880022    1    1    2    0    0 -0.57093648784E+02 -0.18051015859E+03 -0.81576695818E+02  0.25669049924E+03  0.15294330000E+03 0.  0.
    8880022    1    1    2    0    0  0.57093648784E+02  0.18051015859E+03  0.20650306736E+04  0.20793236732E+04  0.15294330000E+03 0.  0.
<mgrwt>
<rscale>  0 0.24338294E+03</rscale>
<asrwt>0</asrwt>
<pdfrwt beam="1">  1        1 0.33226678E+00 0.24338294E+03</pdfrwt>
<pdfrwt beam="2">  1       -1 0.27120015E-01 0.24338294E+03</pdfrwt>
<totfact> 0.32932200E+01</totfact>
</mgrwt>
</event>
<event>
 4    1  0.1678003E-008  0.2124529E+03  0.7818608E-02  0.1139638E+00
         -1   -1    0    0    0  501 -0.00000000000E+00  0.00000000000E+00  0.86721703420E+03  0.86721703422E+03  0.50400000000E-02 0.  1.
          1   -1    0    0  501    0  0.00000000000E+00 -0.00000000000E+00 -0.66206134819E+02  0.66206135011E+02  0.50400000000E-02 0. -1.
    8880022    1    1    2    0    0  0.13257473638E+03 -0.64564114995E+02  0.18467416382E+03  0.28149739869E+03  0.15294330000E+03 0. -1.
    8880022    1    1    2    0    0 -0.13257473638E+03  0.64564114995E+02  0.61633673556E+03  0.65192577054E+03  0.15294330000E+03 0.  1.
<mgrwt>
<rscale>  0 0.21245291E+03</rscale>
<asrwt>0</asrwt>
<pdfrwt beam="1">  1        1 0.10185559E-01 0.21245291E+03</pdfrwt>
<pdfrwt beam="2">  1       -1 0.13341801E+00 0.21245291E+03</pdfrwt>
<totfact> 0.32053849E+02</totfact>
</mgrwt>
</event>
<event>
 4    1  0.1678003E-008  0.2085289E+03  0.7818608E-02  0.1142736E+00
          1   -1    0    0  501    0  0.00000000000E+00  0.00000000000E+00  0.94571570908E+03  0.94571570909E+03  0.50400000000E-02 0. -1.
         -1   -1    0    0    0  501 -0.00000000000E+00 -0.00000000000E+00 -0.69099423334E+02  0.69099423518E+02  0.50400000000E-02 0.  1.
    8880022    1    1    2    0    0  0.12369035324E+03  0.69234093690E+02  0.73180615805E+03  0.76093663941E+03  0.15294330000E+03 0.  0.
    8880022    1    1    2    0    0 -0.12369035324E+03 -0.69234093690E+02  0.14481012769E+03  0.25387849320E+03  0.15294330000E+03 0.  1.
<mgrwt>
<rscale>  0 0.20852893E+03</rscale>
<asrwt>0</asrwt>
<pdfrwt beam="1">  1        1 0.14549472E+00 0.20852893E+03</pdfrwt>
<pdfrwt beam="2">  1       -1 0.10630681E-01 0.20852893E+03</pdfrwt>
<totfact> 0.97809749E+02</totfact>
</mgrwt>
</event>
<event>
 4    1  0.1678003E-008  0.5452930E+03  0.7818608E-02  0.1002589E+00
         -1   -1    0    0    0  501 -0.00000000000E+00  0.00000000000E+00  0.11818437898E+04  0.11818437898E+04  0.50400000000E-02 0.  1.
          1   -1    0    0  501    0  0.00000000000E+00 -0.00000000000E+00 -0.32244522139E+03  0.32244522143E+03  0.50400000000E-02 0. -1.
    8880022    1    1    2    0    0  0.13756417126E+03 -0.50500381372E+03  0.77127118174E+02  0.55072043585E+03  0.15294330000E+03 0.  0.
    8880022    1    1    2    0    0 -0.13756417126E+03  0.50500381372E+03  0.78227145020E+03  0.95356857535E+03  0.15294330000E+03 0.  0.
<mgrwt>
<rscale>  0 0.54529295E+03</rscale>
<asrwt>0</asrwt>
<pdfrwt beam="1">  1        1 0.49606956E-01 0.54529295E+03</pdfrwt>
<pdfrwt beam="2">  1       -1 0.18182212E+00 0.54529295E+03</pdfrwt>
<totfact> 0.16979527E+01</totfact>
</mgrwt>
</event>
<event>
 4    1  0.1678003E-008  0.5719537E+03  0.7818608E-02  0.9965365E-01
         -1   -1    0    0    0  501 -0.00000000000E+00  0.00000000000E+00  0.21418961319E+03  0.21418961325E+03  0.50400000000E-02 0.  1.
          1   -1    0    0  501    0  0.00000000000E+00 -0.00000000000E+00 -0.20847244070E+04  0.20847244070E+04  0.50400000000E-02 0. -1.
    8880022    1    1    2    0    0 -0.31330714604E+03 -0.45340716151E+03 -0.34088941913E+03  0.66583531820E+03  0.15294330000E+03 0.  0.
    8880022    1    1    2    0    0  0.31330714604E+03  0.45340716151E+03 -0.15296453747E+04  0.16330787021E+04  0.15294330000E+03 0.  0.
<mgrwt>
<rscale>  0 0.57195373E+03</rscale>
<asrwt>0</asrwt>
<pdfrwt beam="1">  1        1 0.32072682E+00 0.57195373E+03</pdfrwt>
<pdfrwt beam="2">  1       -1 0.32952250E-01 0.57195373E+03</pdfrwt>
<totfact> 0.24143284E+01</totfact>
</mgrwt>
</event>
<event>
 4    1  0.1678003E-008  0.9193761E+03  0.7818608E-02  0.9401679E-01
          1   -1    0    0  501    0  0.00000000000E+00  0.00000000000E+00  0.12775683807E+04  0.12775683807E+04  0.50400000000E-02 0. -1.
         -1   -1    0    0    0  501 -0.00000000000E+00 -0.00000000000E+00 -0.12263143357E+04  0.12263143357E+04  0.50400000000E-02 0.  1.
    8880022    1    1    2    0    0 -0.64371413736E+03 -0.63835170289E+03  0.87518596884E+03  0.12693316825E+04  0.15294330000E+03 0.  0.
    8880022    1    1    2    0    0  0.64371413736E+03  0.63835170289E+03 -0.82393192386E+03  0.12345510339E+04  0.15294330000E+03 0.  0.
<mgrwt>
<rscale>  0 0.91937611E+03</rscale>
<asrwt>0</asrwt>
<pdfrwt beam="1">  1        1 0.19654898E+00 0.91937611E+03</pdfrwt>
<pdfrwt beam="2">  1       -1 0.18866374E+00 0.91937611E+03</pdfrwt>
<totfact> 0.17234751E+00</totfact>
</mgrwt>
</event>
<event>
 4    1  0.1678003E-008  0.1008211E+04  0.7818608E-02  0.9299585E-01
          1   -1    0    0  501    0  0.00000000000E+00  0.00000000000E+00  0.14818729189E+04  0.14818729189E+04  0.50400000000E-02 0. -1.
         -1   -1    0    0    0  501 -0.00000000000E+00 -0.00000000000E+00 -0.84217723988E+03  0.84217723989E+03  0.50400000000E-02 0.  1.
    8880022    1    1    2    0    0  0.98853521744E+03  0.12607586863E+03 -0.18064063107E+03  0.10242654399E+04  0.15294330000E+03 0.  0.
    8880022    1    1    2    0    0 -0.98853521744E+03 -0.12607586863E+03  0.82033631005E+03  0.12997847189E+04  0.15294330000E+03 0.  0.
<mgrwt>
<rscale>  0 0.10082106E+04</rscale>
<asrwt>0</asrwt>
<pdfrwt beam="1">  1        1 0.22798045E+00 0.10082106E+04</pdfrwt>
<pdfrwt beam="2">  1       -1 0.12956573E+00 0.10082106E+04</pdfrwt>
<totfact> 0.34586606E+00</totfact>
</mgrwt>
</event>
<event>
 4    1  0.1678003E-008  0.8272505E+03  0.7818608E-02  0.9521390E-01
         -1   -1    0    0    0  501 -0.00000000000E+00  0.00000000000E+00  0.17996992341E+04  0.17996992341E+04  0.50400000000E-02 0.  1.
          1   -1    0    0  501    0  0.00000000000E+00 -0.00000000000E+00 -0.68292306884E+03  0.68292306886E+03  0.50400000000E-02 0. -1.
    8880022    1    1    2    0    0  0.53118590932E+03 -0.61546181071E+03 -0.26798958843E+03  0.86957563399E+03  0.15294330000E+03 0.  0.
    8880022    1    1    2    0    0 -0.53118590932E+03  0.61546181071E+03  0.13847657537E+04  0.16130466690E+04  0.15294330000E+03 0.  0.
<mgrwt>
<rscale>  0 0.82725048E+03</rscale>
<asrwt>0</asrwt>
<pdfrwt beam="1">  1        1 0.10506509E+00 0.82725048E+03</pdfrwt>
<pdfrwt beam="2">  1       -1 0.27687680E+00 0.82725048E+03</pdfrwt>
<totfact> 0.13682157E+00</totfact>
</mgrwt>
</event>
<event>
 4    1  0.1678003E-008  0.9482028E+03  0.7818608E-02  0.9367254E-01
         -1   -1    0    0    0  501 -0.00000000000E+00  0.00000000000E+00  0.82972332139E+03  0.82972332141E+03  0.50400000000E-02 0.  1.
          1   -1    0    0  501    0  0.00000000000E+00 -0.00000000000E+00 -0.15501348451E+04  0.15501348451E+04  0.50400000000E-02 0. -1.
    8880022    1    1    2    0    0 -0.75813289883E+03 -0.54857213046E+03 -0.10130028286E+04  0.13875385610E+04  0.15294330000E+03 0.  0.
    8880022    1    1    2    0    0  0.75813289883E+03  0.54857213046E+03  0.29259130493E+03  0.99231960544E+03  0.15294330000E+03 0.  0.
<mgrwt>
<rscale>  0 0.94820279E+03</rscale>
<asrwt>0</asrwt>
<pdfrwt beam="1">  1        1 0.23848228E+00 0.94820279E+03</pdfrwt>
<pdfrwt beam="2">  1       -1 0.12764974E+00 0.94820279E+03</pdfrwt>
<totfact> 0.32483926E+00</totfact>
</mgrwt>
</event>
<event>
 4    1  0.1678003E-008  0.4019942E+03  0.7818608E-02  0.1043091E+00
          1   -1    0    0  501    0  0.00000000000E+00  0.00000000000E+00  0.35088448292E+03  0.35088448295E+03  0.50400000000E-02 0. -1.
         -1   -1    0    0    0  501 -0.00000000000E+00 -0.00000000000E+00 -0.49283329009E+03  0.49283329012E+03  0.50400000000E-02 0.  1.
    8880022    1    1    2    0    0 -0.17249738753E+03 -0.32932105399E+03 -0.17894748039E+03  0.44002449825E+03  0.15294330000E+03 0. -1.
    8880022    1    1    2    0    0  0.17249738753E+03  0.32932105399E+03  0.36998673215E+02  0.40369327482E+03  0.15294330000E+03 0.  0.
<mgrwt>
<rscale>  0 0.40199423E+03</rscale>
<asrwt>0</asrwt>
<pdfrwt beam="1">  1        1 0.53982228E-01 0.40199423E+03</pdfrwt>
<pdfrwt beam="2">  1       -1 0.75820506E-01 0.40199423E+03</pdfrwt>
<totfact> 0.13003684E+02</totfact>
</mgrwt>
</event>
<event>
 4    1  0.1678003E-008  0.4131636E+03  0.7818608E-02  0.1039315E+00
          1   -1    0    0  501    0  0.00000000000E+00  0.00000000000E+00  0.17221865183E+04  0.17221865183E+04  0.50400000000E-02 0. -1.
         -1   -1    0    0    0  501 -0.00000000000E+00 -0.00000000000E+00 -0.11133713346E+03  0.11133713357E+03  0.50400000000E-02 0.  1.
    8880022    1    1    2    0    0 -0.30378986566E+03 -0.23457247759E+03  0.11091005554E+04  0.11835574446E+04  0.15294330000E+03 0.  0.
    8880022    1    1    2    0    0  0.30378986566E+03  0.23457247759E+03  0.50174882946E+03  0.64996620728E+03  0.15294330000E+03 0.  0.
<mgrwt>
<rscale>  0 0.41316363E+03</rscale>
<asrwt>0</asrwt>
<pdfrwt beam="1">  1        1 0.26495175E+00 0.41316363E+03</pdfrwt>
<pdfrwt beam="2">  1       -1 0.17128791E-01 0.41316363E+03</pdfrwt>
<totfact> 0.12985180E+02</totfact>
</mgrwt>
</event>
<event>
 4    1  0.1678003E-008  0.3049433E+03  0.7818608E-02  0.1082795E+00
         -1   -1    0    0    0  501 -0.00000000000E+00  0.00000000000E+00  0.61085167506E+03  0.61085167508E+03  0.50400000000E-02 0.  1.
          1   -1    0    0  501    0  0.00000000000E+00 -0.00000000000E+00 -0.67386419674E+03  0.67386419676E+03  0.50400000000E-02 0. -1.
    8880022    1    1    2    0    0 -0.19383112000E+03  0.17896434773E+03  0.53365661703E+03  0.61463792492E+03  0.15294330000E+03 0.  0.
    8880022    1    1    2    0    0  0.19383112000E+03 -0.17896434773E+03 -0.59666913871E+03  0.67007794692E+03  0.15294330000E+03 0.  0.
<mgrwt>
<rscale>  0 0.30494326E+03</rscale>
<asrwt>0</asrwt>
<pdfrwt beam="1">  1        1 0.10367142E+00 0.30494326E+03</pdfrwt>
<pdfrwt beam="2">  1       -1 0.93977180E-01 0.30494326E+03</pdfrwt>
<totfact> 0.34717038E+01</totfact>
</mgrwt>
</event>
<event>
 4    1  0.1678003E-008  0.4066452E+03  0.7818608E-02  0.1041503E+00
         -1   -1    0    0    0  501 -0.00000000000E+00  0.00000000000E+00  0.10038097998E+04  0.10038097998E+04  0.50400000000E-02 0.  1.
          1   -1    0    0  501    0  0.00000000000E+00 -0.00000000000E+00 -0.25262385353E+03  0.25262385358E+03  0.50400000000E-02 0. -1.
    8880022    1    1    2    0    0 -0.37667161935E+03  0.93364934980E+01  0.50446202400E+01  0.40667650552E+03  0.15294330000E+03 0.  0.
    8880022    1    1    2    0    0  0.37667161935E+03 -0.93364934980E+01  0.74614132602E+03  0.84975714786E+03  0.15294330000E+03 0.  0.
<mgrwt>
<rscale>  0 0.40664522E+03</rscale>
<asrwt>0</asrwt>
<pdfrwt beam="1">  1        1 0.38865209E-01 0.40664522E+03</pdfrwt>
<pdfrwt beam="2">  1       -1 0.15443227E+00 0.40664522E+03</pdfrwt>
<totfact> 0.37561797E+01</totfact>
</mgrwt>
</event>
<event>
 4    1  0.1678003E-008  0.4071506E+03  0.7818608E-02  0.1041331E+00
         -1   -1    0    0    0  501 -0.00000000000E+00  0.00000000000E+00  0.61884840545E+02  0.61884840751E+02  0.50400000000E-02 0.  1.
          1   -1    0    0  501    0  0.00000000000E+00 -0.00000000000E+00 -0.30400240326E+04  0.30400240326E+04  0.50400000000E-02 0. -1.
    8880022    1    1    2    0    0  0.37649178661E+03 -0.25177185634E+02 -0.95437931599E+03  0.10375989051E+04  0.15294330000E+03 0.  0.
    8880022    1    1    2    0    0 -0.37649178661E+03  0.25177185634E+02 -0.20237598761E+04  0.20643099683E+04  0.15294330000E+03 0.  1.
<mgrwt>
<rscale>  0 0.40715060E+03</rscale>
<asrwt>0</asrwt>
<pdfrwt beam="1">  1        1 0.46769589E+00 0.40715060E+03</pdfrwt>
<pdfrwt beam="2">  1       -1 0.95207471E-02 0.40715060E+03</pdfrwt>
<totfact> 0.42898098E+01</totfact>
</mgrwt>
</event>
<event>
 4    1  0.1678003E-008  0.5966002E+03  0.7818608E-02  0.9912485E-01
          1   -1    0    0  501    0  0.00000000000E+00  0.00000000000E+00  0.12267421984E+04  0.12267421984E+04  0.50400000000E-02 0. -1.
         -1   -1    0    0    0  501 -0.00000000000E+00 -0.00000000000E+00 -0.66644022233E+03  0.66644022235E+03  0.50400000000E-02 0.  1.
    8880022    1    1    2    0    0 -0.53267992253E+02  0.57419741413E+03  0.99144120724E+03  0.11571030507E+04  0.15294330000E+03 0.  0.
    8880022    1    1    2    0    0  0.53267992253E+02 -0.57419741413E+03 -0.43113923119E+03  0.73607937010E+03  0.15294330000E+03 0.  0.
<mgrwt>
<rscale>  0 0.59660020E+03</rscale>
<asrwt>0</asrwt>
<pdfrwt beam="1">  1        1 0.18872957E+00 0.59660020E+03</pdfrwt>
<pdfrwt beam="2">  1       -1 0.10252927E+00 0.59660020E+03</pdfrwt>
<totfact> 0.97563055E+00</totfact>
</mgrwt>
</event>
<event>
 4    1  0.1678003E-008  0.6633919E+03  0.7818608E-02  0.9781970E-01
          1   -1    0    0  501    0  0.00000000000E+00  0.00000000000E+00  0.98918454882E+03  0.98918454884E+03  0.50400000000E-02 0. -1.
         -1   -1    0    0    0  501 -0.00000000000E+00 -0.00000000000E+00 -0.52765490340E+03  0.52765490342E+03  0.50400000000E-02 0.  1.
    8880022    1    1    2    0    0  0.63075204400E+03  0.13729153688E+03 -0.69586831842E+02  0.66703154894E+03  0.15294330000E+03 0.  0.
    8880022    1    1    2    0    0 -0.63075204400E+03 -0.13729153688E+03  0.53111647726E+03  0.84980790332E+03  0.15294330000E+03 0.  0.
<mgrwt>
<rscale>  0 0.66339186E+03</rscale>
<asrwt>0</asrwt>
<pdfrwt beam="1">  1        1 0.15218224E+00 0.66339186E+03</pdfrwt>
<pdfrwt beam="2">  1       -1 0.81177679E-01 0.66339186E+03</pdfrwt>
<totfact> 0.24242686E+01</totfact>
</mgrwt>
</event>
<event>
 4    1  0.1678003E-008  0.5001917E+03  0.7818608E-02  0.1013729E+00
          1   -1    0    0  501    0  0.00000000000E+00  0.00000000000E+00  0.99890352357E+03  0.99890352358E+03  0.50400000000E-02 0. -1.
         -1   -1    0    0    0  501 -0.00000000000E+00 -0.00000000000E+00 -0.38282138526E+03  0.38282138529E+03  0.50400000000E-02 0.  1.
    8880022    1    1    2    0    0 -0.37716951611E+03 -0.29076319077E+03 -0.98181186031E+02  0.50973647632E+03  0.15294330000E+03 0.  0.
    8880022    1    1    2    0    0  0.37716951611E+03  0.29076319077E+03  0.71426332434E+03  0.87198843255E+03  0.15294330000E+03 0.  0.
<mgrwt>
<rscale>  0 0.50019169E+03</rscale>
<asrwt>0</asrwt>
<pdfrwt beam="1">  1        1 0.15367746E+00 0.50019169E+03</pdfrwt>
<pdfrwt beam="2">  1       -1 0.58895598E-01 0.50019169E+03</pdfrwt>
<totfact> 0.46803508E+01</totfact>
</mgrwt>
</event>
<event>
 4    1  0.1678003E-008  0.5769371E+03  0.7818608E-02  0.9954444E-01
         -1   -1    0    0    0  501 -0.00000000000E+00  0.00000000000E+00  0.91904803604E+03  0.91904803605E+03  0.50400000000E-02 0.  1.
          1   -1    0    0  501    0  0.00000000000E+00 -0.00000000000E+00 -0.98526321424E+03  0.98526321425E+03  0.50400000000E-02 0. -1.
    8880022    1    1    2    0    0 -0.21110898274E+03 -0.51468213904E+03  0.72408528738E+03  0.92582712384E+03  0.15294330000E+03 0.  0.
    8880022    1    1    2    0    0  0.21110898274E+03  0.51468213904E+03 -0.79030046557E+03  0.97848412646E+03  0.15294330000E+03 0.  0.
<mgrwt>
<rscale>  0 0.57693705E+03</rscale>
<asrwt>0</asrwt>
<pdfrwt beam="1">  1        1 0.15157896E+00 0.57693705E+03</pdfrwt>
<pdfrwt beam="2">  1       -1 0.14139201E+00 0.57693705E+03</pdfrwt>
<totfact> 0.67631267E+00</totfact>
</mgrwt>
</event>
<event>
 4    1  0.1678003E-008  0.8016839E+03  0.7818608E-02  0.9557583E-01
          1   -1    0    0  501    0  0.00000000000E+00  0.00000000000E+00  0.99221397232E+03  0.99221397234E+03  0.50400000000E-02 0. -1.
         -1   -1    0    0    0  501 -0.00000000000E+00 -0.00000000000E+00 -0.14569642394E+04  0.14569642394E+04  0.50400000000E-02 0.  1.
    8880022    1    1    2    0    0  0.53428495550E+03  0.57779315825E+03  0.68026654841E+03  0.10514083780E+04  0.15294330000E+03 0.  0.
    8880022    1    1    2    0    0 -0.53428495550E+03 -0.57779315825E+03 -0.11450168155E+04  0.13977698337E+04  0.15294330000E+03 0.  0.
<mgrwt>
<rscale>  0 0.80168385E+03</rscale>
<asrwt>0</asrwt>
<pdfrwt beam="1">  1        1 0.15264830E+00 0.80168385E+03</pdfrwt>
<pdfrwt beam="2">  1       -1 0.22414834E+00 0.80168385E+03</pdfrwt>
<totfact> 0.16426180E+00</totfact>
</mgrwt>
</event>
<event>
 4    1  0.1678003E-008  0.8446616E+03  0.7818608E-02  0.9497530E-01
          1   -1    0    0  501    0  0.00000000000E+00  0.00000000000E+00  0.23166577830E+04  0.23166577830E+04  0.50400000000E-02 0. -1.
         -1   -1    0    0    0  501 -0.00000000000E+00 -0.00000000000E+00 -0.55482101719E+03  0.55482101721E+03  0.50400000000E-02 0.  1.
    8880022    1    1    2    0    0  0.75697123866E+03  0.34213463303E+03 -0.76759857051E+02  0.84814225927E+03  0.15294330000E+03 0.  0.
    8880022    1    1    2    0    0 -0.75697123866E+03 -0.34213463303E+03  0.18385966228E+04  0.20233365409E+04  0.15294330000E+03 0.  0.
<mgrwt>
<rscale>  0 0.84466160E+03</rscale>
<asrwt>0</asrwt>
<pdfrwt beam="1">  1        1 0.35640888E+00 0.84466160E+03</pdfrwt>
<pdfrwt beam="2">  1       -1 0.85357081E-01 0.84466160E+03</pdfrwt>
<totfact> 0.25598999E+00</totfact>
</mgrwt>
</event>
<event>
 4    1  0.1678003E-008  0.7816531E+03  0.7818608E-02  0.9586960E-01
         -1   -1    0    0    0  501 -0.00000000000E+00  0.00000000000E+00  0.63705293411E+03  0.63705293413E+03  0.50400000000E-02 0.  1.
          1   -1    0    0  501    0  0.00000000000E+00 -0.00000000000E+00 -0.10980332762E+04  0.10980332762E+04  0.50400000000E-02 0. -1.
    8880022    1    1    2    0    0 -0.49626018372E+03 -0.58422236837E+03  0.78130764647E+02  0.78554822580E+03  0.15294330000E+03 0.  0.
    8880022    1    1    2    0    0  0.49626018372E+03  0.58422236837E+03 -0.53911110671E+03  0.94953798452E+03  0.15294330000E+03 0.  0.
<mgrwt>
<rscale>  0 0.78165312E+03</rscale>
<asrwt>0</asrwt>
<pdfrwt beam="1">  1        1 0.16892820E+00 0.78165312E+03</pdfrwt>
<pdfrwt beam="2">  1       -1 0.98008144E-01 0.78165312E+03</pdfrwt>
<totfact> 0.13049859E+01</totfact>
</mgrwt>
</event>
<event>
 4    1  0.1678003E-008  0.7616821E+03  0.7818608E-02  0.9617199E-01
          1   -1    0    0  501    0  0.00000000000E+00  0.00000000000E+00  0.56474257728E+03  0.56474257731E+03  0.50400000000E-02 0. -1.
         -1   -1    0    0    0  501 -0.00000000000E+00 -0.00000000000E+00 -0.15117151022E+04  0.15117151022E+04  0.50400000000E-02 0.  1.
    8880022    1    1    2    0    0 -0.28979338928E+03  0.68759565610E+03  0.11422940549E+03  0.77019997718E+03  0.15294330000E+03 0.  0.
    8880022    1    1    2    0    0  0.28979338928E+03 -0.68759565610E+03 -0.10612019304E+04  0.13062577023E+04  0.15294330000E+03 0.  0.
<mgrwt>
<rscale>  0 0.76168212E+03</rscale>
<asrwt>0</asrwt>
<pdfrwt beam="1">  1        1 0.86883474E-01 0.76168212E+03</pdfrwt>
<pdfrwt beam="2">  1       -1 0.23257155E+00 0.76168212E+03</pdfrwt>
<totfact> 0.35220420E+00</totfact>
</mgrwt>
</event>
<event>
 4    1  0.1791478E-008  0.1373358E+04  0.7818608E-02  0.8973332E-01
          1   -1    0    0  501    0  0.00000000000E+00  0.00000000000E+00  0.22852745549E+04  0.22852745549E+04  0.50400000000E-02 0. -1.
         -1   -1    0    0    0  501 -0.00000000000E+00 -0.00000000000E+00 -0.14642913787E+04  0.14642913787E+04  0.50400000000E-02 0.  1.
    8880022    1    1    2    0    0 -0.12516822273E+04 -0.54406999161E+03 -0.82794443297E+03  0.16036222095E+04  0.15294330000E+03 0.  0.
    8880022    1    1    2    0    0  0.12516822273E+04  0.54406999161E+03  0.16489276091E+04  0.21459437241E+04  0.15294330000E+03 0.  0.
<mgrwt>
<rscale>  0 0.13733580E+04</rscale>
<asrwt>0</asrwt>
<pdfrwt beam="1">  1        1 0.35158070E+00 0.13733580E+04</pdfrwt>
<pdfrwt beam="2">  1       -1 0.22527560E+00 0.13733580E+04</pdfrwt>
<totfact> 0.18547597E-01</totfact>
</mgrwt>
</event>
<event>
 4    1  0.1678003E-008  0.2797745E+03  0.7818608E-02  0.1095812E+00
          1   -1    0    0  501    0  0.00000000000E+00  0.00000000000E+00  0.90785043297E+02  0.90785043437E+02  0.50400000000E-02 0. -1.
         -1   -1    0    0    0  501 -0.00000000000E+00 -0.00000000000E+00 -0.23999767073E+04  0.23999767073E+04  0.50400000000E-02 0.  1.
    8880022    1    1    2    0    0 -0.18361764236E+03 -0.14548774116E+03 -0.21514853129E+04  0.21695996926E+04  0.15294330000E+03 0.  0.
    8880022    1    1    2    0    0  0.18361764236E+03  0.14548774116E+03 -0.15770635112E+03  0.32116205818E+03  0.15294330000E+03 0.  0.
<mgrwt>
<rscale>  0 0.27977451E+03</rscale>
<asrwt>0</asrwt>
<pdfrwt beam="1">  1        1 0.13966932E-01 0.27977451E+03</pdfrwt>
<pdfrwt beam="2">  1       -1 0.36922714E+00 0.27977451E+03</pdfrwt>
<totfact> 0.57399888E+00</totfact>
</mgrwt>
</event>
<event>
 4    1  0.1678003E-008  0.2524310E+03  0.7818608E-02  0.1111778E+00
          1   -1    0    0  501    0  0.00000000000E+00  0.00000000000E+00  0.10431654776E+04  0.10431654776E+04  0.50400000000E-02 0. -1.
         -1   -1    0    0    0  501 -0.00000000000E+00 -0.00000000000E+00 -0.14612430485E+03  0.14612430493E+03  0.50400000000E-02 0.  1.
    8880022    1    1    2    0    0  0.19407787317E+03  0.51609332429E+02 -0.51150978766E+01  0.25248279404E+03  0.15294330000E+03 0.  0.
    8880022    1    1    2    0    0 -0.19407787317E+03 -0.51609332429E+02  0.90215627064E+03  0.93680698850E+03  0.15294330000E+03 0. -1.
<mgrwt>
<rscale>  0 0.25243097E+03</rscale>
<asrwt>0</asrwt>
<pdfrwt beam="1">  1        1 0.16048700E+00 0.25243097E+03</pdfrwt>
<pdfrwt beam="2">  1       -1 0.22480662E-01 0.25243097E+03</pdfrwt>
<totfact> 0.24962206E+02</totfact>
</mgrwt>
</event>
<event>
 4    1  0.1678003E-008  0.8079972E+03  0.7818608E-02  0.9548513E-01
         -1   -1    0    0    0  501 -0.00000000000E+00  0.00000000000E+00  0.47881878959E+03  0.47881878962E+03  0.50400000000E-02 0.  1.
          1   -1    0    0  501    0  0.00000000000E+00 -0.00000000000E+00 -0.16550615299E+04  0.16550615299E+04  0.50400000000E-02 0. -1.
    8880022    1    1    2    0    0 -0.31193845745E+03  0.72949454990E+03 -0.10359516424E+04  0.13137942601E+04  0.15294330000E+03 0.  0.
    8880022    1    1    2    0    0  0.31193845745E+03 -0.72949454990E+03 -0.14029109785E+03  0.82008605934E+03  0.15294330000E+03 0.  0.
<mgrwt>
<rscale>  0 0.80799725E+03</rscale>
<asrwt>0</asrwt>
<pdfrwt beam="1">  1        1 0.25462485E+00 0.80799725E+03</pdfrwt>
<pdfrwt beam="2">  1       -1 0.73664430E-01 0.80799725E+03</pdfrwt>
<totfact> 0.97991102E+00</totfact>
</mgrwt>
</event>
<event>
 4    1  0.1678003E-008  0.6211238E+03  0.7818608E-02  0.9862525E-01
          1   -1    0    0  501    0  0.00000000000E+00  0.00000000000E+00  0.32243342603E+04  0.32243342603E+04  0.50400000000E-02 0. -1.
         -1   -1    0    0    0  501 -0.00000000000E+00 -0.00000000000E+00 -0.47993665825E+03  0.47993665828E+03  0.50400000000E-02 0.  1.
    8880022    1    1    2    0    0  0.59519459726E+03  0.90258311010E+02  0.29769372972E+04  0.30410443101E+04  0.15294330000E+03 0.  0.
    8880022    1    1    2    0    0 -0.59519459726E+03 -0.90258311010E+02 -0.23253969520E+03  0.66322660846E+03  0.15294330000E+03 0.  0.
<mgrwt>
<rscale>  0 0.62112384E+03</rscale>
<asrwt>0</asrwt>
<pdfrwt beam="1">  1        1 0.49605142E+00 0.62112384E+03</pdfrwt>
<pdfrwt beam="2">  1       -1 0.73836410E-01 0.62112384E+03</pdfrwt>
<totfact> 0.84457586E-01</totfact>
</mgrwt>
</event>
<event>
 4    1  0.1678003E-008  0.1062654E+04  0.7818608E-02  0.9242377E-01
          1   -1    0    0  501    0  0.00000000000E+00  0.00000000000E+00  0.10566535033E+04  0.10566535033E+04  0.50400000000E-02 0. -1.
         -1   -1    0    0    0  501 -0.00000000000E+00 -0.00000000000E+00 -0.10909339791E+04  0.10909339791E+04  0.50400000000E-02 0.  1.
    8880022    1    1    2    0    0  0.72731361496E+03 -0.75951041253E+03 -0.17047773317E+03  0.10762413632E+04  0.15294330000E+03 0.  0.
    8880022    1    1    2    0    0 -0.72731361496E+03  0.75951041253E+03  0.13619725733E+03  0.10713461192E+04  0.15294330000E+03 0.  0.
<mgrwt>
<rscale>  0 0.10626537E+04</rscale>
<asrwt>0</asrwt>
<pdfrwt beam="1">  1        1 0.16256208E+00 0.10626537E+04</pdfrwt>
<pdfrwt beam="2">  1       -1 0.16783600E+00 0.10626537E+04</pdfrwt>
<totfact> 0.34767738E+00</totfact>
</mgrwt>
</event>
<event>
 4    1  0.1678003E-008  0.5351765E+03  0.7818608E-02  0.1004984E+00
         -1   -1    0    0    0  501 -0.00000000000E+00  0.00000000000E+00  0.21527307017E+04  0.21527307017E+04  0.50400000000E-02 0.  1.
          1   -1    0    0  501    0  0.00000000000E+00 -0.00000000000E+00 -0.59868717558E+03  0.59868717560E+03  0.50400000000E-02 0. -1.
    8880022    1    1    2    0    0 -0.33531370923E+03  0.38805537131E+03 -0.43623271223E+03  0.69044397820E+03  0.15294330000E+03 0.  0.
    8880022    1    1    2    0    0  0.33531370923E+03 -0.38805537131E+03  0.19902762383E+04  0.20609738991E+04  0.15294330000E+03 0.  0.
<mgrwt>
<rscale>  0 0.53517652E+03</rscale>
<asrwt>0</asrwt>
<pdfrwt beam="1">  1        1 0.92105718E-01 0.53517652E+03</pdfrwt>
<pdfrwt beam="2">  1       -1 0.33118934E+00 0.53517652E+03</pdfrwt>
<totfact> 0.79374030E-01</totfact>
</mgrwt>
</event>
<event>
 4    1  0.1678003E-008  0.8661811E+03  0.7818608E-02  0.9468873E-01
          1   -1    0    0  501    0  0.00000000000E+00  0.00000000000E+00  0.29845547979E+04  0.29845547979E+04  0.50400000000E-02 0. -1.
         -1   -1    0    0    0  501 -0.00000000000E+00 -0.00000000000E+00 -0.36781678702E+03  0.36781678705E+03  0.50400000000E-02 0.  1.
    8880022    1    1    2    0    0  0.28895642203E+03  0.80211105499E+03  0.36529918158E+03  0.94006015948E+03  0.15294330000E+03 0.  0.
    8880022    1    1    2    0    0 -0.28895642203E+03 -0.80211105499E+03  0.22514388293E+04  0.24123114255E+04  0.15294330000E+03 0.  0.
<mgrwt>
<rscale>  0 0.86618105E+03</rscale>
<asrwt>0</asrwt>
<pdfrwt beam="1">  1        1 0.45916226E+00 0.86618105E+03</pdfrwt>
<pdfrwt beam="2">  1       -1 0.56587199E-01 0.86618105E+03</pdfrwt>
<totfact> 0.20367978E+00</totfact>
</mgrwt>
</event>
<event>
 4    1  0.1678003E-008  0.7251446E+03  0.7818608E-02  0.9675172E-01
          1   -1    0    0  501    0  0.00000000000E+00  0.00000000000E+00  0.15016373916E+04  0.15016373916E+04  0.50400000000E-02 0. -1.
         -1   -1    0    0    0  501 -0.00000000000E+00 -0.00000000000E+00 -0.81932918414E+03  0.81932918416E+03  0.50400000000E-02 0.  1.
    8880022    1    1    2    0    0  0.40273286040E+03 -0.58330887120E+03  0.12193023791E+04  0.14186377059E+04  0.15294330000E+03 0.  0.
    8880022    1    1    2    0    0 -0.40273286040E+03  0.58330887120E+03 -0.53699417158E+03  0.90232886987E+03  0.15294330000E+03 0.  1.
<mgrwt>
<rscale>  0 0.72514457E+03</rscale>
<asrwt>0</asrwt>
<pdfrwt beam="1">  1        1 0.23102114E+00 0.72514457E+03</pdfrwt>
<pdfrwt beam="2">  1       -1 0.12605064E+00 0.72514457E+03</pdfrwt>
<totfact> 0.37476413E+00</totfact>
</mgrwt>
</event>
<event>
 4    1  0.1678003E-008  0.6748933E+03  0.7818608E-02  0.9761158E-01
          1   -1    0    0  501    0  0.00000000000E+00  0.00000000000E+00  0.11595857866E+04  0.11595857866E+04  0.50400000000E-02 0. -1.
         -1   -1    0    0    0  501 -0.00000000000E+00 -0.00000000000E+00 -0.52872885123E+03  0.52872885126E+03  0.50400000000E-02 0.  1.
    8880022    1    1    2    0    0  0.63733816545E+03 -0.16090194198E+03 -0.11259599819E+03  0.68422137053E+03  0.15294330000E+03 0.  1.
    8880022    1    1    2    0    0 -0.63733816545E+03  0.16090194198E+03  0.74345293352E+03  0.10040932673E+04  0.15294330000E+03 0.  0.
<mgrwt>
<rscale>  0 0.67489334E+03</rscale>
<asrwt>0</asrwt>
<pdfrwt beam="1">  1        1 0.17839781E+00 0.67489334E+03</pdfrwt>
<pdfrwt beam="2">  1       -1 0.81342901E-01 0.67489334E+03</pdfrwt>
<totfact> 0.17946866E+01</totfact>
</mgrwt>
</event>
<event>
 4    1  0.1678003E-008  0.1418145E+04  0.7818608E-02  0.8940788E-01
          1   -1    0    0  501    0  0.00000000000E+00  0.00000000000E+00  0.68580913673E+03  0.68580913675E+03  0.50400000000E-02 0. -1.
         -1   -1    0    0    0  501 -0.00000000000E+00 -0.00000000000E+00 -0.35073653067E+04  0.35073653067E+04  0.50400000000E-02 0.  1.
    8880022    1    1    2    0    0  0.12014222841E+04 -0.73778500930E+03 -0.22595798292E+04  0.26677396578E+04  0.15294330000E+03 0.  0.
    8880022    1    1    2    0    0 -0.12014222841E+04  0.73778500930E+03 -0.56197634085E+03  0.15254347857E+04  0.15294330000E+03 0.  0.
<mgrwt>
<rscale>  0 0.14181445E+04</rscale>
<asrwt>0</asrwt>
<pdfrwt beam="1">  1        1 0.10550910E+00 0.14181445E+04</pdfrwt>
<pdfrwt beam="2">  1       -1 0.53959465E+00 0.14181445E+04</pdfrwt>
<totfact> 0.22842613E-02</totfact>
</mgrwt>
</event>
<event>
 4    1  0.1678003E-008  0.6997853E+03  0.7818608E-02  0.9717599E-01
         -1   -1    0    0    0  501 -0.00000000000E+00  0.00000000000E+00  0.64684360382E+03  0.64684360383E+03  0.50400000000E-02 0.  1.
          1   -1    0    0  501    0  0.00000000000E+00 -0.00000000000E+00 -0.18514370165E+04  0.18514370165E+04  0.50400000000E-02 0. -1.
    8880022    1    1    2    0    0  0.33000493714E+03 -0.59783326610E+03 -0.15626702801E+04  0.17122026544E+04  0.15294330000E+03 0.  0.
    8880022    1    1    2    0    0 -0.33000493714E+03  0.59783326610E+03  0.35807686736E+03  0.78607796594E+03  0.15294330000E+03 0.  0.
<mgrwt>
<rscale>  0 0.69978534E+03</rscale>
<asrwt>0</asrwt>
<pdfrwt beam="1">  1        1 0.28483646E+00 0.69978534E+03</pdfrwt>
<pdfrwt beam="2">  1       -1 0.99514401E-01 0.69978534E+03</pdfrwt>
<totfact> 0.38350449E+00</totfact>
</mgrwt>
</event>
<event>
 4    1  0.1678003E-008  0.5250923E+03  0.7818608E-02  0.1007429E+00
          1   -1    0    0  501    0  0.00000000000E+00  0.00000000000E+00  0.10887082058E+04  0.10887082058E+04  0.50400000000E-02 0. -1.
         -1   -1    0    0    0  501 -0.00000000000E+00 -0.00000000000E+00 -0.32826786365E+03  0.32826786369E+03  0.50400000000E-02 0.  1.
    8880022    1    1    2    0    0 -0.29870814986E+03  0.40386096062E+03  0.41545039397E+02  0.52673321294E+03  0.15294330000E+03 0.  0.
    8880022    1    1    2    0    0  0.29870814986E+03 -0.40386096062E+03  0.71889530271E+03  0.89024285651E+03  0.15294330000E+03 0.  0.
<mgrwt>
<rscale>  0 0.52509227E+03</rscale>
<asrwt>0</asrwt>
<pdfrwt beam="1">  1        1 0.16749357E+00 0.52509227E+03</pdfrwt>
<pdfrwt beam="2">  1       -1 0.50502749E-01 0.52509227E+03</pdfrwt>
<totfact> 0.53566607E+01</totfact>
</mgrwt>
</event>
<event>
 4    1  0.1678003E-008  0.3945419E+03  0.7818608E-02  0.1045686E+00
          1   -1    0    0  501    0  0.00000000000E+00  0.00000000000E+00  0.30710382092E+04  0.30710382092E+04  0.50400000000E-02 0. -1.
         -1   -1    0    0    0  501 -0.00000000000E+00 -0.00000000000E+00 -0.12081199175E+03  0.12081199185E+03  0.50400000000E-02 0.  1.
    8880022    1    1    2    0    0  0.30121901504E+03  0.20381057244E+03  0.26909975408E+04  0.27197667293E+04  0.15294330000E+03 0.  0.
    8880022    1    1    2    0    0 -0.30121901504E+03 -0.20381057244E+03  0.25922867668E+03  0.47208347174E+03  0.15294330000E+03 0.  0.
<mgrwt>
<rscale>  0 0.39454188E+03</rscale>
<asrwt>0</asrwt>
<pdfrwt beam="1">  1        1 0.47246750E+00 0.39454188E+03</pdfrwt>
<pdfrwt beam="2">  1       -1 0.18586457E-01 0.39454188E+03</pdfrwt>
<totfact> 0.14082187E+01</totfact>
</mgrwt>
</event>
<event>
 4    1  0.1678003E-008  0.1932239E+03  0.7818608E-02  0.1155585E+00
          1   -1    0    0  501    0  0.00000000000E+00  0.00000000000E+00  0.46424838658E+03  0.46424838661E+03  0.50400000000E-02 0. -1.
         -1   -1    0    0    0  501 -0.00000000000E+00 -0.00000000000E+00 -0.38723390295E+03  0.38723390299E+03  0.50400000000E-02 0.  1.
    8880022    1    1    2    0    0  0.32591185878E+02 -0.11349731808E+03 -0.34045461764E+03  0.39146497455E+03  0.15294330000E+03 0.  0.
    8880022    1    1    2    0    0 -0.32591185878E+02  0.11349731808E+03  0.41746910127E+03  0.46001731504E+03  0.15294330000E+03 0. -1.
<mgrwt>
<rscale>  0 0.19322391E+03</rscale>
<asrwt>0</asrwt>
<pdfrwt beam="1">  1        1 0.71422829E-01 0.19322391E+03</pdfrwt>
<pdfrwt beam="2">  1       -1 0.59574446E-01 0.19322391E+03</pdfrwt>
<totfact> 0.15043642E+02</totfact>
</mgrwt>
</event>
<event>
 4    1  0.1678003E-008  0.4284206E+03  0.7818608E-02  0.1034360E+00
         -1   -1    0    0    0  501 -0.00000000000E+00  0.00000000000E+00  0.36656322673E+03  0.36656322677E+03  0.50400000000E-02 0.  1.
          1   -1    0    0  501    0  0.00000000000E+00 -0.00000000000E+00 -0.67129184863E+03  0.67129184865E+03  0.50400000000E-02 0. -1.
    8880022    1    1    2    0    0 -0.17401529279E+03 -0.36037650669E+03 -0.41394721269E+03  0.59573189994E+03  0.15294330000E+03 0.  0.
    8880022    1    1    2    0    0  0.17401529279E+03  0.36037650669E+03  0.10921859080E+03  0.44212317547E+03  0.15294330000E+03 0.  0.
<mgrwt>
<rscale>  0 0.42842059E+03</rscale>
<asrwt>0</asrwt>
<pdfrwt beam="1">  1        1 0.10327567E+00 0.42842059E+03</pdfrwt>
<pdfrwt beam="2">  1       -1 0.56394343E-01 0.42842059E+03</pdfrwt>
<totfact> 0.97001918E+01</totfact>
</mgrwt>
</event>
<event>
 4    1  0.1678003E-008  0.2322440E+03  0.7818608E-02  0.1125070E+00
         -1   -1    0    0    0  501 -0.00000000000E+00  0.00000000000E+00  0.65176903757E+02  0.65176903951E+02  0.50400000000E-02 0.  1.
          1   -1    0    0  501    0  0.00000000000E+00 -0.00000000000E+00 -0.83932579062E+03  0.83932579064E+03  0.50400000000E-02 0. -1.
    8880022    1    1    2    0    0  0.79583316665E+02 -0.15560236833E+03 -0.33350967952E+03  0.40640615236E+03  0.15294330000E+03 0. -1.
    8880022    1    1    2    0    0 -0.79583316665E+02  0.15560236833E+03 -0.44063920734E+03  0.49809654223E+03  0.15294330000E+03 0.  0.
<mgrwt>
<rscale>  0 0.23224395E+03</rscale>
<asrwt>0</asrwt>
<pdfrwt beam="1">  1        1 0.12912704E+00 0.23224395E+03</pdfrwt>
<pdfrwt beam="2">  1       -1 0.10027217E-01 0.23224395E+03</pdfrwt>
<totfact> 0.12978039E+03</totfact>
</mgrwt>
</event>
<event>
 4    1  0.1678003E-008  0.9093432E+03  0.7818608E-02  0.9413977E-01
          1   -1    0    0  501    0  0.00000000000E+00  0.00000000000E+00  0.37545613199E+04  0.37545613199E+04  0.50400000000E-02 0. -1.
         -1   -1    0    0    0  501 -0.00000000000E+00 -0.00000000000E+00 -0.36672947376E+03  0.36672947379E+03  0.50400000000E-02 0.  1.
    8880022    1    1    2    0    0  0.37641967540E+02  0.89559841604E+03  0.29962828662E+04  0.31312323625E+04  0.15294330000E+03 0.  0.
    8880022    1    1    2    0    0 -0.37641967540E+02 -0.89559841604E+03  0.39154897995E+03  0.99005843123E+03  0.15294330000E+03 0.  1.
<mgrwt>
<rscale>  0 0.90934322E+03</rscale>
<asrwt>0</asrwt>
<pdfrwt beam="1">  1        1 0.57762484E+00 0.90934322E+03</pdfrwt>
<pdfrwt beam="2">  1       -1 0.56419917E-01 0.90934322E+03</pdfrwt>
<totfact> 0.52652820E-01</totfact>
</mgrwt>
</event>
<event>
 4    1  0.1678003E-008  0.8039127E+03  0.7818608E-02  0.9554371E-01
         -1   -1    0    0    0  501 -0.00000000000E+00  0.00000000000E+00  0.31748489718E+03  0.31748489722E+03  0.50400000000E-02 0.  1.
          1   -1    0    0  501    0  0.00000000000E+00 -0.00000000000E+00 -0.23910985902E+04  0.23910985902E+04  0.50400000000E-02 0. -1.
    8880022    1    1    2    0    0  0.53608392839E+03 -0.57922183011E+03 -0.51461982257E+03  0.95452036204E+03  0.15294330000E+03 0.  0.
    8880022    1    1    2    0    0 -0.53608392839E+03  0.57922183011E+03 -0.15589938705E+04  0.17540631254E+04  0.15294330000E+03 0.  0.
<mgrwt>
<rscale>  0 0.80391266E+03</rscale>
<asrwt>0</asrwt>
<pdfrwt beam="1">  1        1 0.36786131E+00 0.80391266E+03</pdfrwt>
<pdfrwt beam="2">  1       -1 0.48843832E-01 0.80391266E+03</pdfrwt>
<totfact> 0.70669882E+00</totfact>
</mgrwt>
</event>
<event>
 4    1  0.1678003E-008  0.2401943E+03  0.7818608E-02  0.1119663E+00
          1   -1    0    0  501    0  0.00000000000E+00  0.00000000000E+00  0.10685308359E+03  0.10685308371E+03  0.50400000000E-02 0. -1.
         -1   -1    0    0    0  501 -0.00000000000E+00 -0.00000000000E+00 -0.31295408483E+04  0.31295408483E+04  0.50400000000E-02 0.  1.
    8880022    1    1    2    0    0  0.13612512972E+03  0.12558498453E+03 -0.39342427241E+02  0.24339498532E+03  0.15294330000E+03 0.  0.
    8880022    1    1    2    0    0 -0.13612512972E+03 -0.12558498453E+03 -0.29833453374E+04  0.29929989467E+04  0.15294330000E+03 0.  0.
<mgrwt>
<rscale>  0 0.24019428E+03</rscale>
<asrwt>0</asrwt>
<pdfrwt beam="1">  1        1 0.16438938E-01 0.24019428E+03</pdfrwt>
<pdfrwt beam="2">  1       -1 0.48146775E+00 0.24019428E+03</pdfrwt>
<totfact> 0.82412579E-01</totfact>
</mgrwt>
</event>
<event>
 4    1  0.1678003E-008  0.4125517E+03  0.7818608E-02  0.1039518E+00
         -1   -1    0    0    0  501 -0.00000000000E+00  0.00000000000E+00  0.12890421029E+03  0.12890421039E+03  0.50400000000E-02 0.  1.
          1   -1    0    0  501    0  0.00000000000E+00 -0.00000000000E+00 -0.14532188789E+04  0.14532188790E+04  0.50400000000E-02 0. -1.
    8880022    1    1    2    0    0  0.37659883785E+03  0.70573040309E+02 -0.42296148774E+03  0.59084288251E+03  0.15294330000E+03 0.  0.
    8880022    1    1    2    0    0 -0.37659883785E+03 -0.70573040309E+02 -0.90135318092E+03  0.99128020683E+03  0.15294330000E+03 0.  0.
<mgrwt>
<rscale>  0 0.41255168E+03</rscale>
<asrwt>0</asrwt>
<pdfrwt beam="1">  1        1 0.22357212E+00 0.41255168E+03</pdfrwt>
<pdfrwt beam="2">  1       -1 0.19831418E-01 0.41255168E+03</pdfrwt>
<totfact> 0.15453963E+02</totfact>
</mgrwt>
</event>
<event>
 4    1  0.1678003E-008  0.5561357E+03  0.7818608E-02  0.1000084E+00
          1   -1    0    0  501    0  0.00000000000E+00  0.00000000000E+00  0.16712235420E+04  0.16712235420E+04  0.50400000000E-02 0. -1.
         -1   -1    0    0    0  501 -0.00000000000E+00 -0.00000000000E+00 -0.62972247826E+03  0.62972247828E+03  0.50400000000E-02 0.  1.
    8880022    1    1    2    0    0 -0.50385312149E+03 -0.17896163409E+03 -0.44599924620E+03  0.71288303048E+03  0.15294330000E+03 0.  1.
    8880022    1    1    2    0    0  0.50385312149E+03  0.17896163409E+03  0.14875003100E+04  0.15880629898E+04  0.15294330000E+03 0.  0.
<mgrwt>
<rscale>  0 0.55613567E+03</rscale>
<asrwt>0</asrwt>
<pdfrwt beam="1">  1        1 0.25711131E+00 0.55613567E+03</pdfrwt>
<pdfrwt beam="2">  1       -1 0.96880382E-01 0.55613567E+03</pdfrwt>
<totfact> 0.55409862E+00</totfact>
</mgrwt>
</event>
<event>
 4    1  0.2300536E-008  0.8993823E+03  0.7818608E-02  0.9426354E-01
          1   -1    0    0  501    0  0.00000000000E+00  0.00000000000E+00  0.22254254386E+04  0.22254254386E+04  0.50400000000E-02 0. -1.
         -1   -1    0    0    0  501 -0.00000000000E+00 -0.00000000000E+00 -0.10062022792E+04  0.10062022792E+04  0.50400000000E-02 0.  1.
    8880022    1    1    2    0    0 -0.61708570965E+03 -0.63616205738E+03 -0.68179124332E+03  0.11285955382E+04  0.15294330000E+03 0.  0.
    8880022    1    1    2    0    0  0.61708570965E+03  0.63616205738E+03  0.19010144027E+04  0.21030321796E+04  0.15294330000E+03 0.  0.
<mgrwt>
<rscale>  0 0.89938234E+03</rscale>
<asrwt>0</asrwt>
<pdfrwt beam="1">  1        1 0.34237314E+00 0.89938234E+03</pdfrwt>
<pdfrwt beam="2">  1       -1 0.15480035E+00 0.89938234E+03</pdfrwt>
<totfact> 0.69204976E-01</totfact>
</mgrwt>
</event>
<event>
 4    1  0.1678003E-008  0.2563321E+03  0.7818608E-02  0.1109367E+00
          1   -1    0    0  501    0  0.00000000000E+00  0.00000000000E+00  0.16047395432E+04  0.16047395432E+04  0.50400000000E-02 0. -1.
         -1   -1    0    0    0  501 -0.00000000000E+00 -0.00000000000E+00 -0.18393256290E+03  0.18393256297E+03  0.50400000000E-02 0.  1.
    8880022    1    1    2    0    0 -0.15512658079E+03  0.13509348769E+03  0.14989375664E+04  0.15206972044E+04  0.15294330000E+03 0. -1.
    8880022    1    1    2    0    0  0.15512658079E+03 -0.13509348769E+03 -0.78130586104E+02  0.26797490178E+03  0.15294330000E+03 0.  0.
<mgrwt>
<rscale>  0 0.25633213E+03</rscale>
<asrwt>0</asrwt>
<pdfrwt beam="1">  1        1 0.24688300E+00 0.25633213E+03</pdfrwt>
<pdfrwt beam="2">  1       -1 0.28297318E-01 0.25633213E+03</pdfrwt>
<totfact> 0.69991684E+01</totfact>
</mgrwt>
</event>
<event>
 4    1  0.1678003E-008  0.5263974E+03  0.7818608E-02  0.1007110E+00
          1   -1    0    0  501    0  0.00000000000E+00  0.00000000000E+00  0.26504400185E+04  0.26504400185E+04  0.50400000000E-02 0. -1.
         -1   -1    0    0    0  501 -0.00000000000E+00 -0.00000000000E+00 -0.15975969547E+03  0.15975969555E+03  0.50400000000E-02 0.  1.
    8880022    1    1    2    0    0  0.29584919057E+03 -0.40764673923E+03  0.20713685436E+04  0.21372089051E+04  0.15294330000E+03 0.  0.
    8880022    1    1    2    0    0 -0.29584919057E+03  0.40764673923E+03  0.41931177942E+03  0.67299080896E+03  0.15294330000E+03 0.  0.
<mgrwt>
<rscale>  0 0.52639744E+03</rscale>
<asrwt>0</asrwt>
<pdfrwt beam="1">  1        1 0.40775997E+00 0.52639744E+03</pdfrwt>
<pdfrwt beam="2">  1       -1 0.24578416E-01 0.52639744E+03</pdfrwt>
<totfact> 0.16807926E+01</totfact>
</mgrwt>
</event>
<event>
 4    1  0.1678003E-008  0.1937096E+03  0.7818608E-02  0.1155157E+00
          1   -1    0    0  501    0  0.00000000000E+00  0.00000000000E+00  0.10239893418E+04  0.10239893418E+04  0.50400000000E-02 0. -1.
         -1   -1    0    0    0  501 -0.00000000000E+00 -0.00000000000E+00 -0.45502271168E+03  0.45502271171E+03  0.50400000000E-02 0.  1.
    8880022    1    1    2    0    0  0.10709267828E+02 -0.11839371807E+03  0.99358708307E+03  0.10122937842E+04  0.15294330000E+03 0.  0.
    8880022    1    1    2    0    0 -0.10709267828E+02  0.11839371807E+03 -0.42462045292E+03  0.46671826935E+03  0.15294330000E+03 0.  1.
<mgrwt>
<rscale>  0 0.19370961E+03</rscale>
<asrwt>0</asrwt>
<pdfrwt beam="1">  1        1 0.15753682E+00 0.19370961E+03</pdfrwt>
<pdfrwt beam="2">  1       -1 0.70003494E-01 0.19370961E+03</pdfrwt>
<totfact> 0.34444722E+01</totfact>
</mgrwt>
</event>
<event>
 4    1  0.1678003E-008  0.1051795E+04  0.7818608E-02  0.9253493E-01
          1   -1    0    0  501    0  0.00000000000E+00  0.00000000000E+00  0.32823048461E+04  0.32823048461E+04  0.50400000000E-02 0. -1.
         -1   -1    0    0    0  501 -0.00000000000E+00 -0.00000000000E+00 -0.36940166207E+03  0.36940166211E+03  0.50400000000E-02 0.  1.
    8880022    1    1    2    0    0  0.59388868921E+03  0.85450379178E+03  0.91604155398E+03  0.13947775045E+04  0.15294330000E+03 0.  0.
    8880022    1    1    2    0    0 -0.59388868921E+03 -0.85450379178E+03  0.19968616300E+04  0.22569290037E+04  0.15294330000E+03 0.  0.
<mgrwt>
<rscale>  0 0.10517947E+04</rscale>
<asrwt>0</asrwt>
<pdfrwt beam="1">  1        1 0.50496996E+00 0.10517947E+04</pdfrwt>
<pdfrwt beam="2">  1       -1 0.56831027E-01 0.10517947E+04</pdfrwt>
<totfact> 0.11844386E+00</totfact>
</mgrwt>
</event>
<event>
 4    1  0.1678003E-008  0.5194530E+03  0.7818608E-02  0.1008823E+00
         -1   -1    0    0    0  501 -0.00000000000E+00  0.00000000000E+00  0.64343268841E+03  0.64343268843E+03  0.50400000000E-02 0.  1.
          1   -1    0    0  501    0  0.00000000000E+00 -0.00000000000E+00 -0.52907817913E+03  0.52907817915E+03  0.50400000000E-02 0. -1.
    8880022    1    1    2    0    0  0.38766810152E+03 -0.31008576891E+03  0.32414682054E+03  0.61229286726E+03  0.15294330000E+03 0.  0.
    8880022    1    1    2    0    0 -0.38766810152E+03  0.31008576891E+03 -0.20979231125E+03  0.56021800033E+03  0.15294330000E+03 0.  0.
<mgrwt>
<rscale>  0 0.51945298E+03</rscale>
<asrwt>0</asrwt>
<pdfrwt beam="1">  1        1 0.81396642E-01 0.51945298E+03</pdfrwt>
<pdfrwt beam="2">  1       -1 0.98989645E-01 0.51945298E+03</pdfrwt>
<totfact> 0.41887905E+01</totfact>
</mgrwt>
</event>
<event>
 4    1  0.1678003E-008  0.5710302E+03  0.7818608E-02  0.9967402E-01
          1   -1    0    0  501    0  0.00000000000E+00  0.00000000000E+00  0.11742078904E+04  0.11742078905E+04  0.50400000000E-02 0. -1.
         -1   -1    0    0    0  501 -0.00000000000E+00 -0.00000000000E+00 -0.34278112866E+03  0.34278112870E+03  0.50400000000E-02 0.  1.
    8880022    1    1    2    0    0 -0.48805520827E+03  0.25394084836E+03  0.74621783488E+03  0.93963639292E+03  0.15294330000E+03 0.  0.
    8880022    1    1    2    0    0  0.48805520827E+03 -0.25394084836E+03  0.85208926895E+02  0.57735262624E+03  0.15294330000E+03 0.  0.
<mgrwt>
<rscale>  0 0.57103020E+03</rscale>
<asrwt>0</asrwt>
<pdfrwt beam="1">  1        1 0.18064737E+00 0.57103020E+03</pdfrwt>
<pdfrwt beam="2">  1       -1 0.52735559E-01 0.57103020E+03</pdfrwt>
<totfact> 0.42450635E+01</totfact>
</mgrwt>
</event>
<event>
 4    1  0.1678003E-008  0.6562251E+03  0.7818608E-02  0.9795168E-01
          1   -1    0    0  501    0  0.00000000000E+00  0.00000000000E+00  0.11148066841E+04  0.11148066841E+04  0.50400000000E-02 0. -1.
         -1   -1    0    0    0  501 -0.00000000000E+00 -0.00000000000E+00 -0.60404377938E+03  0.60404377940E+03  0.50400000000E-02 0.  1.
    8880022    1    1    2    0    0 -0.42855939546E+03 -0.47283889568E+03  0.77139751733E+03  0.10127613537E+04  0.15294330000E+03 0.  0.
    8880022    1    1    2    0    0  0.42855939546E+03  0.47283889568E+03 -0.26063461263E+03  0.70608910983E+03  0.15294330000E+03 0.  0.
<mgrwt>
<rscale>  0 0.65622514E+03</rscale>
<asrwt>0</asrwt>
<pdfrwt beam="1">  1        1 0.17150872E+00 0.65622514E+03</pdfrwt>
<pdfrwt beam="2">  1       -1 0.92929813E-01 0.65622514E+03</pdfrwt>
<totfact> 0.14537084E+01</totfact>
</mgrwt>
</event>
<event>
 4    1  0.1678003E-008  0.9669737E+03  0.7818608E-02  0.9345528E-01
         -1   -1    0    0    0  501 -0.00000000000E+00  0.00000000000E+00  0.12040576472E+04  0.12040576472E+04  0.50400000000E-02 0.  1.
          1   -1    0    0  501    0  0.00000000000E+00 -0.00000000000E+00 -0.17622723900E+04  0.17622723900E+04  0.50400000000E-02 0. -1.
    8880022    1    1    2    0    0 -0.62213808763E+03 -0.72428636273E+03 -0.13883467665E+04  0.16919057103E+04  0.15294330000E+03 0.  0.
    8880022    1    1    2    0    0  0.62213808763E+03  0.72428636273E+03  0.83013202367E+03  0.12744243269E+04  0.15294330000E+03 0.  0.
<mgrwt>
<rscale>  0 0.96697373E+03</rscale>
<asrwt>0</asrwt>
<pdfrwt beam="1">  1        1 0.27111883E+00 0.96697373E+03</pdfrwt>
<pdfrwt beam="2">  1       -1 0.18523964E+00 0.96697373E+03</pdfrwt>
<totfact> 0.83718589E-01</totfact>
</mgrwt>
</event>
<event>
 4    1  0.1678003E-008  0.7609663E+03  0.7818608E-02  0.9618301E-01
          1   -1    0    0  501    0  0.00000000000E+00  0.00000000000E+00  0.85824946274E+03  0.85824946276E+03  0.50400000000E-02 0. -1.
         -1   -1    0    0    0  501 -0.00000000000E+00 -0.00000000000E+00 -0.21511418828E+04  0.21511418828E+04  0.50400000000E-02 0.  1.
    8880022    1    1    2    0    0 -0.69335743896E+03  0.27373983976E+03  0.60013569317E+03  0.96914010404E+03  0.15294330000E+03 0.  0.
    8880022    1    1    2    0    0  0.69335743896E+03 -0.27373983976E+03 -0.18930281132E+04  0.20402512415E+04  0.15294330000E+03 0.  0.
<mgrwt>
<rscale>  0 0.76096629E+03</rscale>
<asrwt>0</asrwt>
<pdfrwt beam="1">  1        1 0.13203838E+00 0.76096629E+03</pdfrwt>
<pdfrwt beam="2">  1       -1 0.33094490E+00 0.76096629E+03</pdfrwt>
<totfact> 0.43524009E-01</totfact>
</mgrwt>
</event>
<event>
 4    1  0.1678003E-008  0.2624147E+03  0.7818608E-02  0.1105701E+00
          1   -1    0    0  501    0  0.00000000000E+00  0.00000000000E+00  0.46337239775E+03  0.46337239778E+03  0.50400000000E-02 0. -1.
         -1   -1    0    0    0  501 -0.00000000000E+00 -0.00000000000E+00 -0.27723867578E+03  0.27723867582E+03  0.50400000000E-02 0.  1.
    8880022    1    1    2    0    0  0.20646582415E+03 -0.53307269014E+02  0.34530070237E+03  0.43369808571E+03  0.15294330000E+03 0.  0.
    8880022    1    1    2    0    0 -0.20646582415E+03  0.53307269014E+02 -0.15916698040E+03  0.30691298789E+03  0.15294330000E+03 0.  0.
<mgrwt>
<rscale>  0 0.26241466E+03</rscale>
<asrwt>0</asrwt>
<pdfrwt beam="1">  1        1 0.71288060E-01 0.26241466E+03</pdfrwt>
<pdfrwt beam="2">  1       -1 0.42652105E-01 0.26241466E+03</pdfrwt>
<totfact> 0.27737970E+02</totfact>
</mgrwt>
</event>
<event>
 4    1  0.1678003E-008  0.1127556E+04  0.7818608E-02  0.9178743E-01
         -1   -1    0    0    0  501 -0.00000000000E+00  0.00000000000E+00  0.87568783233E+03  0.87568783234E+03  0.50400000000E-02 0.  1.
          1   -1    0    0  501    0  0.00000000000E+00 -0.00000000000E+00 -0.15001972017E+04  0.15001972017E+04  0.50400000000E-02 0. -1.
    8880022    1    1    2    0    0  0.72016900547E+03  0.85401807951E+03 -0.99032552964E+02  0.11318963628E+04  0.15294330000E+03 0.  0.
    8880022    1    1    2    0    0 -0.72016900547E+03 -0.85401807951E+03 -0.52547681639E+03  0.12439886712E+04  0.15294330000E+03 0.  0.
<mgrwt>
<rscale>  0 0.11275557E+04</rscale>
<asrwt>0</asrwt>
<pdfrwt beam="1">  1        1 0.23079957E+00 0.11275557E+04</pdfrwt>
<pdfrwt beam="2">  1       -1 0.13472121E+00 0.11275557E+04</pdfrwt>
<totfact> 0.29975961E+00</totfact>
</mgrwt>
</event>
<event>
 4    1  0.1678003E-008  0.4512348E+03  0.7818608E-02  0.1027354E+00
          1   -1    0    0  501    0  0.00000000000E+00  0.00000000000E+00  0.24096972216E+04  0.24096972216E+04  0.50400000000E-02 0. -1.
         -1   -1    0    0    0  501 -0.00000000000E+00 -0.00000000000E+00 -0.12783499819E+03  0.12783499829E+03  0.50400000000E-02 0.  1.
    8880022    1    1    2    0    0 -0.26875476342E+03  0.32862146560E+03  0.40219429843E+03  0.60446099727E+03  0.15294330000E+03 0.  0.
    8880022    1    1    2    0    0  0.26875476342E+03 -0.32862146560E+03  0.18796679250E+04  0.19330712226E+04  0.15294330000E+03 0.  0.
<mgrwt>
<rscale>  0 0.45123480E+03</rscale>
<asrwt>0</asrwt>
<pdfrwt beam="1">  1        1 0.37072264E+00 0.45123480E+03</pdfrwt>
<pdfrwt beam="2">  1       -1 0.19666923E-01 0.45123480E+03</pdfrwt>
<totfact> 0.36090302E+01</totfact>
</mgrwt>
</event>
<event>
 4    1  0.1678003E-008  0.2563606E+03  0.7818608E-02  0.1109350E+00
          1   -1    0    0  501    0  0.00000000000E+00  0.00000000000E+00  0.23449296118E+04  0.23449296118E+04  0.50400000000E-02 0. -1.
         -1   -1    0    0    0  501 -0.00000000000E+00 -0.00000000000E+00 -0.98039426059E+02  0.98039426188E+02  0.50400000000E-02 0.  1.
    8880022    1    1    2    0    0 -0.45035828115E+02 -0.20075082274E+03  0.21556737341E+04  0.21708638879E+04  0.15294330000E+03 0.  0.
    8880022    1    1    2    0    0  0.45035828115E+02  0.20075082274E+03  0.91216451569E+02  0.27210515008E+03  0.15294330000E+03 0.  1.
<mgrwt>
<rscale>  0 0.25636063E+03</rscale>
<asrwt>0</asrwt>
<pdfrwt beam="1">  1        1 0.36075839E+00 0.25636063E+03</pdfrwt>
<pdfrwt beam="2">  1       -1 0.15082989E-01 0.25636063E+03</pdfrwt>
<totfact> 0.64634849E+01</totfact>
</mgrwt>
</event>
<event>
 4    1  0.1678003E-008  0.1192755E+04  0.7818608E-02  0.9119222E-01
         -1   -1    0    0    0  501 -0.00000000000E+00  0.00000000000E+00  0.17478320686E+04  0.17478320686E+04  0.50400000000E-02 0.  1.
          1   -1    0    0  501    0  0.00000000000E+00 -0.00000000000E+00 -0.12234782662E+04  0.12234782662E+04  0.50400000000E-02 0. -1.
    8880022    1    1    2    0    0 -0.17109617337E+03 -0.11704691849E+04 -0.59734520405E+03  0.13339733727E+04  0.15294330000E+03 0.  0.
    8880022    1    1    2    0    0  0.17109617337E+03  0.11704691849E+04  0.11216990064E+04  0.16373369621E+04  0.15294330000E+03 0.  0.
<mgrwt>
<rscale>  0 0.11927547E+04</rscale>
<asrwt>0</asrwt>
<pdfrwt beam="1">  1        1 0.18822743E+00 0.11927547E+04</pdfrwt>
<pdfrwt beam="2">  1       -1 0.26889724E+00 0.11927547E+04</pdfrwt>
<totfact> 0.53048850E-01</totfact>
</mgrwt>
</event>
<event>
 4    1  0.1678003E-008  0.1114308E+04  0.7818608E-02  0.9191357E-01
          1   -1    0    0  501    0  0.00000000000E+00  0.00000000000E+00  0.37947278143E+04  0.37947278143E+04  0.50400000000E-02 0. -1.
         -1   -1    0    0    0  501 -0.00000000000E+00 -0.00000000000E+00 -0.47704223414E+03  0.47704223417E+03  0.50400000000E-02 0.  1.
    8880022    1    1    2    0    0 -0.96684857358E+03 -0.53244284781E+03  0.28558537962E+04  0.30655479296E+04  0.15294330000E+03 0.  0.
    8880022    1    1    2    0    0  0.96684857358E+03  0.53244284781E+03  0.46183178402E+03  0.12062221189E+04  0.15294330000E+03 0.  0.
<mgrwt>
<rscale>  0 0.11143084E+04</rscale>
<asrwt>0</asrwt>
<pdfrwt beam="1">  1        1 0.58380426E+00 0.11143084E+04</pdfrwt>
<pdfrwt beam="2">  1       -1 0.73391116E-01 0.11143084E+04</pdfrwt>
<totfact> 0.27660902E-01</totfact>
</mgrwt>
</event>
<event>
 4    1  0.1678003E-008  0.6856063E+03  0.7818608E-02  0.9742169E-01
          1   -1    0    0  501    0  0.00000000000E+00  0.00000000000E+00  0.11481490969E+04  0.11481490969E+04  0.50400000000E-02 0. -1.
         -1   -1    0    0    0  501 -0.00000000000E+00 -0.00000000000E+00 -0.61511377898E+03  0.61511377900E+03  0.50400000000E-02 0.  1.
    8880022    1    1    2    0    0  0.54788753057E+03 -0.38273177199E+03  0.77636195761E+03  0.10357576443E+04  0.15294330000E+03 0.  0.
    8880022    1    1    2    0    0 -0.54788753057E+03  0.38273177199E+03 -0.24332663970E+03  0.72750523163E+03  0.15294330000E+03 0.  0.
<mgrwt>
<rscale>  0 0.68560631E+03</rscale>
<asrwt>0</asrwt>
<pdfrwt beam="1">  1        1 0.17663832E+00 0.68560631E+03</pdfrwt>
<pdfrwt beam="2">  1       -1 0.94632889E-01 0.68560631E+03</pdfrwt>
<totfact> 0.13136127E+01</totfact>
</mgrwt>
</event>
<event>
 4    1  0.1678003E-008  0.2764484E+03  0.7818608E-02  0.1097645E+00
         -1   -1    0    0    0  501 -0.00000000000E+00  0.00000000000E+00  0.12890807895E+03  0.12890807905E+03  0.50400000000E-02 0.  1.
          1   -1    0    0  501    0  0.00000000000E+00 -0.00000000000E+00 -0.96581378325E+03  0.96581378326E+03  0.50400000000E-02 0. -1.
    8880022    1    1    2    0    0 -0.16334606336E+03 -0.16232725702E+03 -0.75859295465E+03  0.80739519359E+03  0.15294330000E+03 0. -1.
    8880022    1    1    2    0    0  0.16334606336E+03  0.16232725702E+03 -0.78312749653E+02  0.28732666872E+03  0.15294330000E+03 0.  0.
<mgrwt>
<rscale>  0 0.27644842E+03</rscale>
<asrwt>0</asrwt>
<pdfrwt beam="1">  1        1 0.14858673E+00 0.27644842E+03</pdfrwt>
<pdfrwt beam="2">  1       -1 0.19832013E-01 0.27644842E+03</pdfrwt>
<totfact> 0.34917555E+02</totfact>
</mgrwt>
</event>
<event>
 4    1  0.1678003E-008  0.4682999E+03  0.7818608E-02  0.1022401E+00
          1   -1    0    0  501    0  0.00000000000E+00  0.00000000000E+00  0.78070059326E+03  0.78070059327E+03  0.50400000000E-02 0. -1.
         -1   -1    0    0    0  501 -0.00000000000E+00 -0.00000000000E+00 -0.67212367510E+03  0.67212367512E+03  0.50400000000E-02 0.  1.
    8880022    1    1    2    0    0  0.44260729684E+03 -0.34488044622E+01 -0.49991191341E+03  0.68499393257E+03  0.15294330000E+03 0.  1.
    8880022    1    1    2    0    0 -0.44260729684E+03  0.34488044622E+01  0.60848883156E+03  0.76783033583E+03  0.15294330000E+03 0. -1.
<mgrwt>
<rscale>  0 0.46829987E+03</rscale>
<asrwt>0</asrwt>
<pdfrwt beam="1">  1        1 0.12010778E+00 0.46829987E+03</pdfrwt>
<pdfrwt beam="2">  1       -1 0.10340364E+00 0.46829987E+03</pdfrwt>
<totfact> 0.21698343E+01</totfact>
</mgrwt>
</event>
<event>
 4    1  0.1678003E-008  0.4303418E+03  0.7818608E-02  0.1033752E+00
          1   -1    0    0  501    0  0.00000000000E+00  0.00000000000E+00  0.29370154715E+03  0.29370154719E+03  0.50400000000E-02 0. -1.
         -1   -1    0    0    0  501 -0.00000000000E+00 -0.00000000000E+00 -0.10221966379E+04  0.10221966379E+04  0.50400000000E-02 0.  1.
    8880022    1    1    2    0    0 -0.40150122090E+03  0.24477813577E+02 -0.77150707683E+03  0.88341225730E+03  0.15294330000E+03 0.  1.
    8880022    1    1    2    0    0  0.40150122090E+03 -0.24477813577E+02  0.43011986115E+02  0.43248592776E+03  0.15294330000E+03 0.  0.
<mgrwt>
<rscale>  0 0.43034178E+03</rscale>
<asrwt>0</asrwt>
<pdfrwt beam="1">  1        1 0.45184854E-01 0.43034178E+03</pdfrwt>
<pdfrwt beam="2">  1       -1 0.15726102E+00 0.43034178E+03</pdfrwt>
<totfact> 0.29395100E+01</totfact>
</mgrwt>
</event>
<event>
 4    1  0.1678003E-008  0.5942018E+03  0.7818608E-02  0.9917509E-01
         -1   -1    0    0    0  501 -0.00000000000E+00  0.00000000000E+00  0.25835146967E+03  0.25835146972E+03  0.50400000000E-02 0.  1.
          1   -1    0    0  501    0  0.00000000000E+00 -0.00000000000E+00 -0.16906926364E+04  0.16906926364E+04  0.50400000000E-02 0. -1.
    8880022    1    1    2    0    0 -0.35756431874E+03  0.44925701437E+03 -0.11428101558E+04  0.12880569911E+04  0.15294330000E+03 0.  0.
    8880022    1    1    2    0    0  0.35756431874E+03 -0.44925701437E+03 -0.28953101096E+03  0.66098711510E+03  0.15294330000E+03 0.  0.
<mgrwt>
<rscale>  0 0.59420178E+03</rscale>
<asrwt>0</asrwt>
<pdfrwt beam="1">  1        1 0.26010655E+00 0.59420178E+03</pdfrwt>
<pdfrwt beam="2">  1       -1 0.39746381E-01 0.59420178E+03</pdfrwt>
<totfact> 0.31487588E+01</totfact>
</mgrwt>
</event>
<event>
 4    1  0.1678003E-008  0.3404243E+03  0.7818608E-02  0.1066615E+00
          1   -1    0    0  501    0  0.00000000000E+00  0.00000000000E+00  0.67420015521E+03  0.67420015523E+03  0.50400000000E-02 0. -1.
         -1   -1    0    0    0  501 -0.00000000000E+00 -0.00000000000E+00 -0.60010969460E+03  0.60010969462E+03  0.50400000000E-02 0.  1.
    8880022    1    1    2    0    0  0.30299921922E+03 -0.26239193523E+02 -0.50117836501E+03  0.60586172407E+03  0.15294330000E+03 0.  0.
    8880022    1    1    2    0    0 -0.30299921922E+03  0.26239193523E+02  0.57526882562E+03  0.66844812578E+03  0.15294330000E+03 0.  0.
<mgrwt>
<rscale>  0 0.34042426E+03</rscale>
<asrwt>0</asrwt>
<pdfrwt beam="1">  1        1 0.10372310E+00 0.34042426E+03</pdfrwt>
<pdfrwt beam="2">  1       -1 0.92324568E-01 0.34042426E+03</pdfrwt>
<totfact> 0.35764498E+01</totfact>
</mgrwt>
</event>
<event>
 4    1  0.1678003E-008  0.1088814E+04  0.7818608E-02  0.9216164E-01
          1   -1    0    0  501    0  0.00000000000E+00  0.00000000000E+00  0.19924892614E+04  0.19924892614E+04  0.50400000000E-02 0. -1.
         -1   -1    0    0    0  501 -0.00000000000E+00 -0.00000000000E+00 -0.13784456110E+04  0.13784456110E+04  0.50400000000E-02 0.  1.
    8880022    1    1    2    0    0 -0.44829943616E+03  0.98038346286E+03 -0.96364622014E+03  0.14540047487E+04  0.15294330000E+03 0.  0.
    8880022    1    1    2    0    0  0.44829943616E+03 -0.98038346286E+03  0.15776898705E+04  0.19169301237E+04  0.15294330000E+03 0.  0.
<mgrwt>
<rscale>  0 0.10888139E+04</rscale>
<asrwt>0</asrwt>
<pdfrwt beam="1">  1        1 0.30653681E+00 0.10888139E+04</pdfrwt>
<pdfrwt beam="2">  1       -1 0.21206856E+00 0.10888139E+04</pdfrwt>
<totfact> 0.37470721E-01</totfact>
</mgrwt>
</event>
<event>
 4    1  0.1678003E-008  0.4516354E+03  0.7818608E-02  0.1027235E+00
         -1   -1    0    0    0  501 -0.00000000000E+00  0.00000000000E+00  0.10375268941E+04  0.10375268941E+04  0.50400000000E-02 0.  1.
          1   -1    0    0  501    0  0.00000000000E+00 -0.00000000000E+00 -0.38014656151E+03  0.38014656155E+03  0.50400000000E-02 0. -1.
    8880022    1    1    2    0    0 -0.16055874284E+03 -0.39345112550E+03  0.82123695919E+03  0.93723246540E+03  0.15294330000E+03 0.  0.
    8880022    1    1    2    0    0  0.16055874284E+03  0.39345112550E+03 -0.16385662657E+03  0.48044099028E+03  0.15294330000E+03 0. -1.
<mgrwt>
<rscale>  0 0.45163542E+03</rscale>
<asrwt>0</asrwt>
<pdfrwt beam="1">  1        1 0.58484087E-01 0.45163542E+03</pdfrwt>
<pdfrwt beam="2">  1       -1 0.15961952E+00 0.45163542E+03</pdfrwt>
<totfact> 0.20168634E+01</totfact>
</mgrwt>
</event>
<event>
 4    1  0.1678003E-008  0.8438792E+03  0.7818608E-02  0.9498589E-01
          1   -1    0    0  501    0  0.00000000000E+00  0.00000000000E+00  0.21755689810E+04  0.21755689810E+04  0.50400000000E-02 0. -1.
         -1   -1    0    0    0  501 -0.00000000000E+00 -0.00000000000E+00 -0.36345478841E+03  0.36345478845E+03  0.50400000000E-02 0.  1.
    8880022    1    1    2    0    0 -0.21647485892E+03  0.80117360289E+03  0.50583092462E+03  0.98386842811E+03  0.15294330000E+03 0.  0.
    8880022    1    1    2    0    0  0.21647485892E+03 -0.80117360289E+03  0.13062832680E+04  0.15551553413E+04  0.15294330000E+03 0.  0.
<mgrwt>
<rscale>  0 0.84387923E+03</rscale>
<asrwt>0</asrwt>
<pdfrwt beam="1">  1        1 0.33470293E+00 0.84387923E+03</pdfrwt>
<pdfrwt beam="2">  1       -1 0.55916120E-01 0.84387923E+03</pdfrwt>
<totfact> 0.75805673E+00</totfact>
</mgrwt>
</event>
<event>
 4    1  0.1678003E-008  0.3086493E+03  0.7818608E-02  0.1080995E+00
         -1   -1    0    0    0  501 -0.00000000000E+00  0.00000000000E+00  0.11452259152E+03  0.11452259163E+03  0.50400000000E-02 0.  1.
          1   -1    0    0  501    0  0.00000000000E+00 -0.00000000000E+00 -0.20830229483E+04  0.20830229483E+04  0.50400000000E-02 0. -1.
    8880022    1    1    2    0    0 -0.18666834307E+03 -0.19242579079E+03 -0.18358221657E+04  0.18615873421E+04  0.15294330000E+03 0.  0.
    8880022    1    1    2    0    0  0.18666834307E+03  0.19242579079E+03 -0.13267819105E+03  0.33595819779E+03  0.15294330000E+03 0.  0.
<mgrwt>
<rscale>  0 0.30864933E+03</rscale>
<asrwt>0</asrwt>
<pdfrwt beam="1">  1        1 0.32046504E+00 0.30864933E+03</pdfrwt>
<pdfrwt beam="2">  1       -1 0.17618862E-01 0.30864933E+03</pdfrwt>
<totfact> 0.73551998E+01</totfact>
</mgrwt>
</event>
<event>
 4    1  0.1678003E-008  0.1190684E+04  0.7818608E-02  0.9121050E-01
          1   -1    0    0  501    0  0.00000000000E+00  0.00000000000E+00  0.17491450808E+04  0.17491450808E+04  0.50400000000E-02 0. -1.
         -1   -1    0    0    0  501 -0.00000000000E+00 -0.00000000000E+00 -0.94217642184E+03  0.94217642185E+03  0.50400000000E-02 0.  1.
    8880022    1    1    2    0    0  0.11463053284E+04 -0.28341002747E+03  0.90649758631E+03  0.14964847733E+04  0.15294330000E+03 0.  0.
    8880022    1    1    2    0    0 -0.11463053284E+04  0.28341002747E+03 -0.99528927339E+02  0.11948367294E+04  0.15294330000E+03 0.  0.
<mgrwt>
<rscale>  0 0.11906842E+04</rscale>
<asrwt>0</asrwt>
<pdfrwt beam="1">  1        1 0.26909924E+00 0.11906842E+04</pdfrwt>
<pdfrwt beam="2">  1       -1 0.14495022E+00 0.11906842E+04</pdfrwt>
<totfact> 0.16585782E+00</totfact>
</mgrwt>
</event>
<event>
 4    1  0.1678003E-008  0.4890936E+03  0.7818608E-02  0.1016666E+00
         -1   -1    0    0    0  501 -0.00000000000E+00  0.00000000000E+00  0.74167172544E+03  0.74167172546E+03  0.50400000000E-02 0.  1.
          1   -1    0    0  501    0  0.00000000000E+00 -0.00000000000E+00 -0.15099515843E+04  0.15099515843E+04  0.50400000000E-02 0. -1.
    8880022    1    1    2    0    0  0.24384761516E+03  0.39542284975E+03  0.61421832390E+03  0.78516029698E+03  0.15294330000E+03 0.  0.
    8880022    1    1    2    0    0 -0.24384761516E+03 -0.39542284975E+03 -0.13824981827E+04  0.14664630127E+04  0.15294330000E+03 0.  0.
<mgrwt>
<rscale>  0 0.48909359E+03</rscale>
<asrwt>0</asrwt>
<pdfrwt beam="1">  1        1 0.23230024E+00 0.48909359E+03</pdfrwt>
<pdfrwt beam="2">  1       -1 0.11410334E+00 0.48909359E+03</pdfrwt>
<totfact> 0.49577861E+00</totfact>
</mgrwt>
</event>
<event>
 4    1  0.1678003E-008  0.6725611E+03  0.7818608E-02  0.9765342E-01
         -1   -1    0    0    0  501 -0.00000000000E+00  0.00000000000E+00  0.12241664058E+04  0.12241664058E+04  0.50400000000E-02 0.  1.
          1   -1    0    0  501    0  0.00000000000E+00 -0.00000000000E+00 -0.69651748879E+03  0.69651748880E+03  0.50400000000E-02 0. -1.
    8880022    1    1    2    0    0  0.54310888564E+03  0.36603221519E+03 -0.39419765444E+03  0.77957057923E+03  0.15294330000E+03 0.  0.
    8880022    1    1    2    0    0 -0.54310888564E+03 -0.36603221519E+03  0.92184657147E+03  0.11411133154E+04  0.15294330000E+03 0.  1.
<mgrwt>
<rscale>  0 0.67256115E+03</rscale>
<asrwt>0</asrwt>
<pdfrwt beam="1">  1        1 0.10715654E+00 0.67256115E+03</pdfrwt>
<pdfrwt beam="2">  1       -1 0.18833329E+00 0.67256115E+03</pdfrwt>
<totfact> 0.52239105E+00</totfact>
</mgrwt>
</event>
<event>
 4    1  0.1883883E-008  0.7732171E+03  0.7818608E-02  0.9599614E-01
          1   -1    0    0  501    0  0.00000000000E+00  0.00000000000E+00  0.13830592101E+04  0.13830592101E+04  0.50400000000E-02 0. -1.
         -1   -1    0    0    0  501 -0.00000000000E+00 -0.00000000000E+00 -0.15325332361E+04  0.15325332361E+04  0.50400000000E-02 0.  1.
    8880022    1    1    2    0    0  0.20226059217E+03  0.73045439760E+03 -0.13099413208E+04  0.15211215898E+04  0.15294330000E+03 0.  0.
    8880022    1    1    2    0    0 -0.20226059217E+03 -0.73045439760E+03  0.11604672948E+04  0.13944708564E+04  0.15294330000E+03 0.  0.
<mgrwt>
<rscale>  0 0.77321706E+03</rscale>
<asrwt>0</asrwt>
<pdfrwt beam="1">  1        1 0.21277834E+00 0.77321706E+03</pdfrwt>
<pdfrwt beam="2">  1       -1 0.23577434E+00 0.77321706E+03</pdfrwt>
<totfact> 0.71751365E-01</totfact>
</mgrwt>
</event>
<event>
 4    1  0.1678003E-008  0.2663623E+03  0.7818608E-02  0.1103380E+00
         -1   -1    0    0    0  501 -0.00000000000E+00  0.00000000000E+00  0.98595584472E+03  0.98595584473E+03  0.50400000000E-02 0.  1.
          1   -1    0    0  501    0  0.00000000000E+00 -0.00000000000E+00 -0.47489411151E+03  0.47489411153E+03  0.50400000000E-02 0. -1.
    8880022    1    1    2    0    0  0.20585384335E+03 -0.71982014750E+02 -0.41728236344E+03  0.49504892599E+03  0.15294330000E+03 0.  0.
    8880022    1    1    2    0    0 -0.20585384335E+03  0.71982014750E+02  0.92834409666E+03  0.96580103028E+03  0.15294330000E+03 0.  1.
<mgrwt>
<rscale>  0 0.26636229E+03</rscale>
<asrwt>0</asrwt>
<pdfrwt beam="1">  1        1 0.73060633E-01 0.26636229E+03</pdfrwt>
<pdfrwt beam="2">  1       -1 0.15168551E+00 0.26636229E+03</pdfrwt>
<totfact> 0.18054174E+01</totfact>
</mgrwt>
</event>
<event>
 4    1  0.1678003E-008  0.6047817E+03  0.7818608E-02  0.9895535E-01
         -1   -1    0    0    0  501 -0.00000000000E+00  0.00000000000E+00  0.11999404985E+04  0.11999404985E+04  0.50400000000E-02 0.  1.
          1   -1    0    0  501    0  0.00000000000E+00 -0.00000000000E+00 -0.55577851588E+03  0.55577851590E+03  0.50400000000E-02 0. -1.
    8880022    1    1    2    0    0  0.35947288710E+03  0.46168004497E+03 -0.26781942943E+03  0.66142884748E+03  0.15294330000E+03 0.  0.
    8880022    1    1    2    0    0 -0.35947288710E+03 -0.46168004497E+03  0.91198141201E+03  0.10942901669E+04  0.15294330000E+03 0.  0.
<mgrwt>
<rscale>  0 0.60478167E+03</rscale>
<asrwt>0</asrwt>
<pdfrwt beam="1">  1        1 0.85504387E-01 0.60478167E+03</pdfrwt>
<pdfrwt beam="2">  1       -1 0.18460623E+00 0.60478167E+03</pdfrwt>
<totfact> 0.77807907E+00</totfact>
</mgrwt>
</event>
<event>
 4    1  0.1678003E-008  0.6874436E+03  0.7818608E-02  0.9738949E-01
         -1   -1    0    0    0  501 -0.00000000000E+00  0.00000000000E+00  0.66890178637E+03  0.66890178639E+03  0.50400000000E-02 0.  1.
          1   -1    0    0  501    0  0.00000000000E+00 -0.00000000000E+00 -0.11500839267E+04  0.11500839268E+04  0.50400000000E-02 0. -1.
    8880022    1    1    2    0    0 -0.48937163717E+03 -0.45793286314E+03 -0.80542748015E+03  0.10589108486E+04  0.15294330000E+03 0.  0.
    8880022    1    1    2    0    0  0.48937163717E+03  0.45793286314E+03  0.32424533977E+03  0.76007486459E+03  0.15294330000E+03 0.  0.
<mgrwt>
<rscale>  0 0.68744364E+03</rscale>
<asrwt>0</asrwt>
<pdfrwt beam="1">  1        1 0.17693599E+00 0.68744364E+03</pdfrwt>
<pdfrwt beam="2">  1       -1 0.10290797E+00 0.68744364E+03</pdfrwt>
<totfact> 0.10825079E+01</totfact>
</mgrwt>
</event>
<event>
 4    1  0.1678003E-008  0.8216886E+03  0.7818608E-02  0.9529144E-01
         -1   -1    0    0    0  501 -0.00000000000E+00  0.00000000000E+00  0.10599373652E+04  0.10599373652E+04  0.50400000000E-02 0.  1.
          1   -1    0    0  501    0  0.00000000000E+00 -0.00000000000E+00 -0.11580281970E+04  0.11580281970E+04  0.50400000000E-02 0. -1.
    8880022    1    1    2    0    0  0.79005379628E+03  0.16611912964E+03 -0.79291867826E+03  0.11418810138E+04  0.15294330000E+03 0.  0.
    8880022    1    1    2    0    0 -0.79005379628E+03 -0.16611912964E+03  0.69482784641E+03  0.10760845484E+04  0.15294330000E+03 0.  0.
<mgrwt>
<rscale>  0 0.82168864E+03</rscale>
<asrwt>0</asrwt>
<pdfrwt beam="1">  1        1 0.17815818E+00 0.82168864E+03</pdfrwt>
<pdfrwt beam="2">  1       -1 0.16306729E+00 0.82168864E+03</pdfrwt>
<totfact> 0.32698676E+00</totfact>
</mgrwt>
</event>
<event>
 4    1  0.1678003E-008  0.8260864E+03  0.7818608E-02  0.9523007E-01
          1   -1    0    0  501    0  0.00000000000E+00  0.00000000000E+00  0.38346030469E+03  0.38346030472E+03  0.50400000000E-02 0. -1.
         -1   -1    0    0    0  501 -0.00000000000E+00 -0.00000000000E+00 -0.22341150833E+04  0.22341150834E+04  0.50400000000E-02 0.  1.
    8880022    1    1    2    0    0  0.52096385876E+03  0.62259440102E+03 -0.15156298630E+04  0.17261380782E+04  0.15294330000E+03 0.  0.
    8880022    1    1    2    0    0 -0.52096385876E+03 -0.62259440102E+03 -0.33502491563E+03  0.89143730987E+03  0.15294330000E+03 0.  0.
<mgrwt>
<rscale>  0 0.82608643E+03</rscale>
<asrwt>0</asrwt>
<pdfrwt beam="1">  1        1 0.58993894E-01 0.82608643E+03</pdfrwt>
<pdfrwt beam="2">  1       -1 0.34371000E+00 0.82608643E+03</pdfrwt>
<totfact> 0.11362149E+00</totfact>
</mgrwt>
</event>
<event>
 4    1  0.1678003E-008  0.2500468E+03  0.7818608E-02  0.1113275E+00
         -1   -1    0    0    0  501 -0.00000000000E+00  0.00000000000E+00  0.35637888297E+03  0.35637888300E+03  0.50400000000E-02 0.  1.
          1   -1    0    0  501    0  0.00000000000E+00 -0.00000000000E+00 -0.11774846728E+04  0.11774846728E+04  0.50400000000E-02 0. -1.
    8880022    1    1    2    0    0 -0.19565945756E+03  0.29139992111E+02  0.29694061227E+03  0.38819729868E+03  0.15294330000E+03 0.  0.
    8880022    1    1    2    0    0  0.19565945756E+03 -0.29139992111E+02 -0.11180464021E+04  0.11456662572E+04  0.15294330000E+03 0.  0.
<mgrwt>
<rscale>  0 0.25004683E+03</rscale>
<asrwt>0</asrwt>
<pdfrwt beam="1">  1        1 0.18115149E+00 0.25004683E+03</pdfrwt>
<pdfrwt beam="2">  1       -1 0.54827521E-01 0.25004683E+03</pdfrwt>
<totfact> 0.41981626E+01</totfact>
</mgrwt>
</event>
<event>
 4    1  0.1678003E-008  0.4987838E+03  0.7818608E-02  0.1014097E+00
         -1   -1    0    0    0  501 -0.00000000000E+00  0.00000000000E+00  0.18448851971E+03  0.18448851978E+03  0.50400000000E-02 0.  1.
          1   -1    0    0  501    0  0.00000000000E+00 -0.00000000000E+00 -0.20882106716E+04  0.20882106716E+04  0.50400000000E-02 0. -1.
    8880022    1    1    2    0    0  0.38675334849E+03 -0.27534610133E+03 -0.16281803292E+04  0.17028671309E+04  0.15294330000E+03 0.  0.
    8880022    1    1    2    0    0 -0.38675334849E+03  0.27534610133E+03 -0.27554182268E+03  0.56983206048E+03  0.15294330000E+03 0.  0.
<mgrwt>
<rscale>  0 0.49878380E+03</rscale>
<asrwt>0</asrwt>
<pdfrwt beam="1">  1        1 0.32126316E+00 0.49878380E+03</pdfrwt>
<pdfrwt beam="2">  1       -1 0.28382851E-01 0.49878380E+03</pdfrwt>
<totfact> 0.31560084E+01</totfact>
</mgrwt>
</event>
<event>
 4    1  0.1678003E-008  0.9806132E+03  0.7818608E-02  0.9330067E-01
         -1   -1    0    0    0  501 -0.00000000000E+00  0.00000000000E+00  0.16687136563E+04  0.16687136563E+04  0.50400000000E-02 0.  1.
          1   -1    0    0  501    0  0.00000000000E+00 -0.00000000000E+00 -0.11100845108E+04  0.11100845108E+04  0.50400000000E-02 0. -1.
    8880022    1    1    2    0    0  0.62543941193E+03 -0.73961897105E+03 -0.68418344493E+03  0.11957045286E+04  0.15294330000E+03 0.  0.
    8880022    1    1    2    0    0 -0.62543941193E+03  0.73961897105E+03  0.12428125905E+04  0.15830936385E+04  0.15294330000E+03 0.  0.
<mgrwt>
<rscale>  0 0.98061324E+03</rscale>
<asrwt>0</asrwt>
<pdfrwt beam="1">  1        1 0.17078223E+00 0.98061324E+03</pdfrwt>
<pdfrwt beam="2">  1       -1 0.25672518E+00 0.98061324E+03</pdfrwt>
<totfact> 0.79485799E-01</totfact>
</mgrwt>
</event>
<event>
 4    1  0.1678003E-008  0.1649442E+03  0.7818608E-02  0.1183225E+00
          1   -1    0    0  501    0  0.00000000000E+00  0.00000000000E+00  0.18511469476E+04  0.18511469476E+04  0.50400000000E-02 0. -1.
         -1   -1    0    0    0  501 -0.00000000000E+00 -0.00000000000E+00 -0.33578609756E+02  0.33578610134E+02  0.50400000000E-02 0.  1.
    8880022    1    1    2    0    0 -0.61749714726E+02  0.13873528541E+01  0.16154342690E+04  0.16238332680E+04  0.15294330000E+03 0.  0.
    8880022    1    1    2    0    0  0.61749714726E+02 -0.13873528541E+01  0.20213406892E+03  0.26089228975E+03  0.15294330000E+03 0.  1.
<mgrwt>
<rscale>  0 0.16494425E+03</rscale>
<asrwt>0</asrwt>
<pdfrwt beam="1">  1        1 0.28479183E+00 0.16494425E+03</pdfrwt>
<pdfrwt beam="2">  1       -1 0.51659401E-02 0.16494425E+03</pdfrwt>
<totfact> 0.71641158E+02</totfact>
</mgrwt>
</event>
<event>
 4    1  0.1678003E-008  0.1036510E+04  0.7818608E-02  0.9269383E-01
         -1   -1    0    0    0  501 -0.00000000000E+00  0.00000000000E+00  0.16610784666E+04  0.16610784666E+04  0.50400000000E-02 0.  1.
          1   -1    0    0  501    0  0.00000000000E+00 -0.00000000000E+00 -0.99747924776E+03  0.99747924778E+03  0.50400000000E-02 0. -1.
    8880022    1    1    2    0    0  0.46851600252E+03  0.91184139229E+03 -0.45639071315E+03  0.11325396706E+04  0.15294330000E+03 0.  0.
    8880022    1    1    2    0    0 -0.46851600252E+03 -0.91184139229E+03  0.11199899320E+04  0.15260180438E+04  0.15294330000E+03 0.  0.
<mgrwt>
<rscale>  0 0.10365103E+04</rscale>
<asrwt>0</asrwt>
<pdfrwt beam="1">  1        1 0.15345835E+00 0.10365103E+04</pdfrwt>
<pdfrwt beam="2">  1       -1 0.25555053E+00 0.10365103E+04</pdfrwt>
<totfact> 0.97834489E-01</totfact>
</mgrwt>
</event>
<event>
 4    1  0.1678003E-008  0.2081534E+03  0.7818608E-02  0.1143037E+00
          1   -1    0    0  501    0  0.00000000000E+00  0.00000000000E+00  0.14413272607E+04  0.14413272608E+04  0.50400000000E-02 0. -1.
         -1   -1    0    0    0  501 -0.00000000000E+00 -0.00000000000E+00 -0.84790935928E+03  0.84790935929E+03  0.50400000000E-02 0.  1.
    8880022    1    1    2    0    0 -0.11233881806E+03  0.85534719662E+02 -0.82743608508E+03  0.85321645918E+03  0.15294330000E+03 0.  0.
    8880022    1    1    2    0    0  0.11233881806E+03 -0.85534719662E+02  0.14208539865E+04  0.14360201609E+04  0.15294330000E+03 0.  0.
<mgrwt>
<rscale>  0 0.20815343E+03</rscale>
<asrwt>0</asrwt>
<pdfrwt beam="1">  1        1 0.22174265E+00 0.20815343E+03</pdfrwt>
<pdfrwt beam="2">  1       -1 0.13044759E+00 0.20815343E+03</pdfrwt>
<totfact> 0.44781873E+00</totfact>
</mgrwt>
</event>
<event>
 4    1  0.1678003E-008  0.7571568E+03  0.7818608E-02  0.9624189E-01
         -1   -1    0    0    0  501 -0.00000000000E+00  0.00000000000E+00  0.94386434557E+03  0.94386434559E+03  0.50400000000E-02 0.  1.
          1   -1    0    0  501    0  0.00000000000E+00 -0.00000000000E+00 -0.13103245943E+04  0.13103245943E+04  0.50400000000E-02 0. -1.
    8880022    1    1    2    0    0  0.73185760206E+03 -0.11949589080E+03 -0.10087560533E+04  0.12612990310E+04  0.15294330000E+03 0.  0.
    8880022    1    1    2    0    0 -0.73185760206E+03  0.11949589080E+03  0.64229580455E+03  0.99288990888E+03  0.15294330000E+03 0.  0.
<mgrwt>
<rscale>  0 0.75715683E+03</rscale>
<asrwt>0</asrwt>
<pdfrwt beam="1">  1        1 0.20158840E+00 0.75715683E+03</pdfrwt>
<pdfrwt beam="2">  1       -1 0.14520990E+00 0.75715683E+03</pdfrwt>
<totfact> 0.35210449E+00</totfact>
</mgrwt>
</event>
<event>
 4    1  0.1678003E-008  0.2079079E+03  0.7818608E-02  0.1143234E+00
         -1   -1    0    0    0  501 -0.00000000000E+00  0.00000000000E+00  0.46565373874E+03  0.46565373877E+03  0.50400000000E-02 0.  1.
          1   -1    0    0  501    0  0.00000000000E+00 -0.00000000000E+00 -0.10402468212E+03  0.10402468224E+03  0.50400000000E-02 0. -1.
    8880022    1    1    2    0    0 -0.77012873897E+02 -0.11791117216E+03  0.27426409475E+03  0.34416053515E+03  0.15294330000E+03 0.  1.
    8880022    1    1    2    0    0  0.77012873897E+02  0.11791117216E+03  0.87364961871E+02  0.22551788586E+03  0.15294330000E+03 0.  1.
<mgrwt>
<rscale>  0 0.20790786E+03</rscale>
<asrwt>0</asrwt>
<pdfrwt beam="1">  1        1 0.16003798E-01 0.20790786E+03</pdfrwt>
<pdfrwt beam="2">  1       -1 0.71639035E-01 0.20790786E+03</pdfrwt>
<totfact> 0.69939768E+02</totfact>
</mgrwt>
</event>
<event>
 4    1  0.1678003E-008  0.1109632E+04  0.7818608E-02  0.9195855E-01
         -1   -1    0    0    0  501 -0.00000000000E+00  0.00000000000E+00  0.10072287740E+04  0.10072287740E+04  0.50400000000E-02 0.  1.
          1   -1    0    0  501    0  0.00000000000E+00 -0.00000000000E+00 -0.27050273325E+04  0.27050273325E+04  0.50400000000E-02 0. -1.
    8880022    1    1    2    0    0  0.65000214137E+03 -0.88622145755E+03  0.52524189133E+03  0.12276652447E+04  0.15294330000E+03 0.  0.
    8880022    1    1    2    0    0 -0.65000214137E+03  0.88622145755E+03 -0.22230404498E+04  0.24845908617E+04  0.15294330000E+03 0. -1.
<mgrwt>
<rscale>  0 0.11096319E+04</rscale>
<asrwt>0</asrwt>
<pdfrwt beam="1">  1        1 0.41615805E+00 0.11096319E+04</pdfrwt>
<pdfrwt beam="2">  1       -1 0.15495827E+00 0.11096319E+04</pdfrwt>
<totfact> 0.31178715E-01</totfact>
</mgrwt>
</event>
<event>
 4    1  0.1678003E-008  0.4828758E+03  0.7818608E-02  0.1018348E+00
          1   -1    0    0  501    0  0.00000000000E+00  0.00000000000E+00  0.46074267971E+03  0.46074267973E+03  0.50400000000E-02 0. -1.
         -1   -1    0    0    0  501 -0.00000000000E+00 -0.00000000000E+00 -0.22866451282E+04  0.22866451282E+04  0.50400000000E-02 0.  1.
    8880022    1    1    2    0    0  0.75965021168E+02 -0.45167098434E+03  0.29923817315E+03  0.56807789943E+03  0.15294330000E+03 0.  0.
    8880022    1    1    2    0    0 -0.75965021168E+02  0.45167098434E+03 -0.21251406216E+04  0.21793099085E+04  0.15294330000E+03 0.  0.
<mgrwt>
<rscale>  0 0.48287578E+03</rscale>
<asrwt>0</asrwt>
<pdfrwt beam="1">  1        1 0.70883491E-01 0.48287578E+03</pdfrwt>
<pdfrwt beam="2">  1       -1 0.35179155E+00 0.48287578E+03</pdfrwt>
<totfact> 0.85076887E-01</totfact>
</mgrwt>
</event>
<event>
 4    1  0.1678003E-008  0.3692528E+03  0.7818608E-02  0.1054979E+00
          1   -1    0    0  501    0  0.00000000000E+00  0.00000000000E+00  0.11737348113E+04  0.11737348113E+04  0.50400000000E-02 0. -1.
         -1   -1    0    0    0  501 -0.00000000000E+00 -0.00000000000E+00 -0.13611798501E+03  0.13611798510E+03  0.50400000000E-02 0.  1.
    8880022    1    1    2    0    0  0.58675042640E+02  0.33092778929E+03  0.76955330026E+03  0.85355720212E+03  0.15294330000E+03 0.  0.
    8880022    1    1    2    0    0 -0.58675042640E+02 -0.33092778929E+03  0.26806352602E+03  0.45629559427E+03  0.15294330000E+03 0.  0.
<mgrwt>
<rscale>  0 0.36925278E+03</rscale>
<asrwt>0</asrwt>
<pdfrwt beam="1">  1        1 0.18057459E+00 0.36925278E+03</pdfrwt>
<pdfrwt beam="2">  1       -1 0.20941228E-01 0.36925278E+03</pdfrwt>
<totfact> 0.22195279E+02</totfact>
</mgrwt>
</event>
<event>
 4    1  0.1678003E-008  0.3734331E+03  0.7818608E-02  0.1053388E+00
         -1   -1    0    0    0  501 -0.00000000000E+00  0.00000000000E+00  0.13865665112E+04  0.13865665112E+04  0.50400000000E-02 0.  1.
          1   -1    0    0  501    0  0.00000000000E+00 -0.00000000000E+00 -0.34068341618E+03  0.34068341622E+03  0.50400000000E-02 0. -1.
    8880022    1    1    2    0    0 -0.33306273439E+03 -0.71623093776E+02 -0.20208588602E+03  0.42460688989E+03  0.15294330000E+03 0.  0.
    8880022    1    1    2    0    0  0.33306273439E+03  0.71623093776E+02  0.12479689811E+04  0.13026430376E+04  0.15294330000E+03 0.  1.
<mgrwt>
<rscale>  0 0.37343313E+03</rscale>
<asrwt>0</asrwt>
<pdfrwt beam="1">  1        1 0.52412832E-01 0.37343313E+03</pdfrwt>
<pdfrwt beam="2">  1       -1 0.21331793E+00 0.37343313E+03</pdfrwt>
<totfact> 0.99804289E+00</totfact>
</mgrwt>
</event>
<event>
 4    1  0.1678003E-008  0.7933113E+03  0.7818608E-02  0.9569749E-01
          1   -1    0    0  501    0  0.00000000000E+00  0.00000000000E+00  0.11672921330E+04  0.11672921331E+04  0.50400000000E-02 0. -1.
         -1   -1    0    0    0  501 -0.00000000000E+00 -0.00000000000E+00 -0.72902492400E+03  0.72902492402E+03  0.50400000000E-02 0.  1.
    8880022    1    1    2    0    0 -0.28363916394E+03 -0.72491382081E+03  0.70302310355E+03  0.10599926226E+04  0.15294330000E+03 0.  0.
    8880022    1    1    2    0    0  0.28363916394E+03  0.72491382081E+03 -0.26475589451E+03  0.83632443443E+03  0.15294330000E+03 0.  0.
<mgrwt>
<rscale>  0 0.79331134E+03</rscale>
<asrwt>0</asrwt>
<pdfrwt beam="1">  1        1 0.17958340E+00 0.79331134E+03</pdfrwt>
<pdfrwt beam="2">  1       -1 0.11215768E+00 0.79331134E+03</pdfrwt>
<totfact> 0.84676288E+00</totfact>
</mgrwt>
</event>
<event>
 4    1  0.1678003E-008  0.7926364E+03  0.7818608E-02  0.9570737E-01
          1   -1    0    0  501    0  0.00000000000E+00  0.00000000000E+00  0.11286476066E+04  0.11286476066E+04  0.50400000000E-02 0. -1.
         -1   -1    0    0    0  501 -0.00000000000E+00 -0.00000000000E+00 -0.13596282137E+04  0.13596282137E+04  0.50400000000E-02 0.  1.
    8880022    1    1    2    0    0 -0.75679233907E+03 -0.17929372166E+03  0.84061939160E+03  0.11553845670E+04  0.15294330000E+03 0.  0.
    8880022    1    1    2    0    0  0.75679233907E+03  0.17929372166E+03 -0.10715999987E+04  0.13328912533E+04  0.15294330000E+03 0.  0.
<mgrwt>
<rscale>  0 0.79263645E+03</rscale>
<asrwt>0</asrwt>
<pdfrwt beam="1">  1        1 0.17363809E+00 0.79263645E+03</pdfrwt>
<pdfrwt beam="2">  1       -1 0.20917357E+00 0.79263645E+03</pdfrwt>
<totfact> 0.16317140E+00</totfact>
</mgrwt>
</event>
<event>
 4    1  0.1678003E-008  0.9286116E+03  0.7818608E-02  0.9390506E-01
         -1   -1    0    0    0  501 -0.00000000000E+00  0.00000000000E+00  0.11520059818E+04  0.11520059819E+04  0.50400000000E-02 0.  1.
          1   -1    0    0  501    0  0.00000000000E+00 -0.00000000000E+00 -0.84207134498E+03  0.84207134500E+03  0.50400000000E-02 0. -1.
    8880022    1    1    2    0    0  0.86937929685E+03  0.28828359665E+03 -0.17732661624E+03  0.94539101737E+03  0.15294330000E+03 0.  0.
    8880022    1    1    2    0    0 -0.86937929685E+03 -0.28828359665E+03  0.48726125311E+03  0.10486863095E+04  0.15294330000E+03 0.  0.
<mgrwt>
<rscale>  0 0.92861157E+03</rscale>
<asrwt>0</asrwt>
<pdfrwt beam="1">  1        1 0.12954944E+00 0.92861157E+03</pdfrwt>
<pdfrwt beam="2">  1       -1 0.17723169E+00 0.92861157E+03</pdfrwt>
<totfact> 0.44831625E+00</totfact>
</mgrwt>
</event>
<event>
 4    1  0.1678003E-008  0.3791008E+03  0.7818608E-02  0.1051267E+00
          1   -1    0    0  501    0  0.00000000000E+00  0.00000000000E+00  0.27345762628E+03  0.27345762633E+03  0.50400000000E-02 0. -1.
         -1   -1    0    0    0  501 -0.00000000000E+00 -0.00000000000E+00 -0.11567803337E+04  0.11567803338E+04  0.50400000000E-02 0.  1.
    8880022    1    1    2    0    0 -0.13934268166E+02 -0.34660006182E+03 -0.96991751067E+03  0.10413728425E+04  0.15294330000E+03 0.  0.
    8880022    1    1    2    0    0  0.13934268166E+02  0.34660006182E+03  0.86594803201E+02  0.38886511754E+03  0.15294330000E+03 0.  0.
<mgrwt>
<rscale>  0 0.37910080E+03</rscale>
<asrwt>0</asrwt>
<pdfrwt beam="1">  1        1 0.42070405E-01 0.37910080E+03</pdfrwt>
<pdfrwt beam="2">  1       -1 0.17796620E+00 0.37910080E+03</pdfrwt>
<totfact> 0.22969132E+01</totfact>
</mgrwt>
</event>
<event>
 4    1  0.1678003E-008  0.2709978E+03  0.7818608E-02  0.1100710E+00
         -1   -1    0    0    0  501 -0.00000000000E+00  0.00000000000E+00  0.33698866583E+03  0.33698866586E+03  0.50400000000E-02 0.  1.
          1   -1    0    0  501    0  0.00000000000E+00 -0.00000000000E+00 -0.16420419513E+04  0.16420419513E+04  0.50400000000E-02 0. -1.
    8880022    1    1    2    0    0  0.15973419998E+03  0.15663063593E+03 -0.15740418603E+04  0.15971999254E+04  0.15294330000E+03 0.  0.
    8880022    1    1    2    0    0 -0.15973419998E+03 -0.15663063593E+03  0.26898857484E+03  0.38183069175E+03  0.15294330000E+03 0.  1.
<mgrwt>
<rscale>  0 0.27099783E+03</rscale>
<asrwt>0</asrwt>
<pdfrwt beam="1">  1        1 0.25262183E+00 0.27099783E+03</pdfrwt>
<pdfrwt beam="2">  1       -1 0.51844411E-01 0.27099783E+03</pdfrwt>
<totfact> 0.22506050E+01</totfact>
</mgrwt>
</event>
<event>
 4    1  0.1678003E-008  0.3990678E+03  0.7818608E-02  0.1044103E+00
          1   -1    0    0  501    0  0.00000000000E+00  0.00000000000E+00  0.58562425510E+03  0.58562425512E+03  0.50400000000E-02 0. -1.
         -1   -1    0    0    0  501 -0.00000000000E+00 -0.00000000000E+00 -0.31704656350E+03  0.31704656354E+03  0.50400000000E-02 0.  1.
    8880022    1    1    2    0    0 -0.28619626057E+03 -0.23228255582E+03  0.30452579209E+03  0.50198714761E+03  0.15294330000E+03 0.  0.
    8880022    1    1    2    0    0  0.28619626057E+03  0.23228255582E+03 -0.35948100484E+02  0.40068367105E+03  0.15294330000E+03 0.  0.
<mgrwt>
<rscale>  0 0.39906784E+03</rscale>
<asrwt>0</asrwt>
<pdfrwt beam="1">  1        1 0.90096039E-01 0.39906784E+03</pdfrwt>
<pdfrwt beam="2">  1       -1 0.48776395E-01 0.39906784E+03</pdfrwt>
<totfact> 0.15573202E+02</totfact>
</mgrwt>
</event>
<event>
 4    1  0.1678003E-008  0.7003636E+03  0.7818608E-02  0.9716611E-01
         -1   -1    0    0    0  501 -0.00000000000E+00  0.00000000000E+00  0.19448263670E+04  0.19448263670E+04  0.50400000000E-02 0.  1.
          1   -1    0    0  501    0  0.00000000000E+00 -0.00000000000E+00 -0.32599868379E+03  0.32599868383E+03  0.50400000000E-02 0. -1.
    8880022    1    1    2    0    0  0.60537737433E+03 -0.31723145561E+03  0.26923975751E+03  0.75033276739E+03  0.15294330000E+03 0.  0.
    8880022    1    1    2    0    0 -0.60537737433E+03  0.31723145561E+03  0.13495879257E+04  0.15204922834E+04  0.15294330000E+03 0.  1.
<mgrwt>
<rscale>  0 0.70036363E+03</rscale>
<asrwt>0</asrwt>
<pdfrwt beam="1">  1        1 0.50153645E-01 0.70036363E+03</pdfrwt>
<pdfrwt beam="2">  1       -1 0.29920405E+00 0.70036363E+03</pdfrwt>
<totfact> 0.27791919E+00</totfact>
</mgrwt>
</event>
<event>
 4    1  0.1678003E-008  0.4317595E+03  0.7818608E-02  0.1033306E+00
          1   -1    0    0  501    0  0.00000000000E+00  0.00000000000E+00  0.10376219780E+04  0.10376219780E+04  0.50400000000E-02 0. -1.
         -1   -1    0    0    0  501 -0.00000000000E+00 -0.00000000000E+00 -0.33763175539E+03  0.33763175543E+03  0.50400000000E-02 0.  1.
    8880022    1    1    2    0    0 -0.20065243056E+03 -0.35037578972E+03  0.82034904814E+03  0.92703225711E+03  0.15294330000E+03 0.  0.
    8880022    1    1    2    0    0  0.20065243056E+03  0.35037578972E+03 -0.12035882557E+03  0.44822147630E+03  0.15294330000E+03 0.  0.
<mgrwt>
<rscale>  0 0.43175948E+03</rscale>
<asrwt>0</asrwt>
<pdfrwt beam="1">  1        1 0.15963415E+00 0.43175948E+03</pdfrwt>
<pdfrwt beam="2">  1       -1 0.51943348E-01 0.43175948E+03</pdfrwt>
<totfact> 0.56266171E+01</totfact>
</mgrwt>
</event>
<event>
 4    1  0.1678003E-008  0.4541869E+03  0.7818608E-02  0.1026481E+00
         -1   -1    0    0    0  501 -0.00000000000E+00  0.00000000000E+00  0.23287042650E+03  0.23287042655E+03  0.50400000000E-02 0.  1.
          1   -1    0    0  501    0  0.00000000000E+00 -0.00000000000E+00 -0.17001394955E+04  0.17001394955E+04  0.50400000000E-02 0. -1.
    8880022    1    1    2    0    0  0.19610746052E+03  0.38004724983E+03 -0.64745364825E+02  0.45877844703E+03  0.15294330000E+03 0.  0.
    8880022    1    1    2    0    0 -0.19610746052E+03 -0.38004724983E+03 -0.14025237042E+04  0.14742314751E+04  0.15294330000E+03 0.  0.
<mgrwt>
<rscale>  0 0.45418686E+03</rscale>
<asrwt>0</asrwt>
<pdfrwt beam="1">  1        1 0.26155991E+00 0.45418686E+03</pdfrwt>
<pdfrwt beam="2">  1       -1 0.35826221E-01 0.45418686E+03</pdfrwt>
<totfact> 0.38318318E+01</totfact>
</mgrwt>
</event>
<event>
 4    1  0.1678003E-008  0.4945764E+03  0.7818608E-02  0.1015204E+00
         -1   -1    0    0    0  501 -0.00000000000E+00  0.00000000000E+00  0.38447058121E+03  0.38447058125E+03  0.50400000000E-02 0.  1.
          1   -1    0    0  501    0  0.00000000000E+00 -0.00000000000E+00 -0.14953438655E+04  0.14953438655E+04  0.50400000000E-02 0. -1.
    8880022    1    1    2    0    0 -0.36710181967E+03 -0.29402459814E+03 -0.12678690445E+04  0.13609179907E+04  0.15294330000E+03 0.  0.
    8880022    1    1    2    0    0  0.36710181967E+03  0.29402459814E+03  0.15699576027E+03  0.51889645602E+03  0.15294330000E+03 0.  0.
<mgrwt>
<rscale>  0 0.49457645E+03</rscale>
<asrwt>0</asrwt>
<pdfrwt beam="1">  1        1 0.23005290E+00 0.49457645E+03</pdfrwt>
<pdfrwt beam="2">  1       -1 0.59149321E-01 0.49457645E+03</pdfrwt>
<totfact> 0.20594986E+01</totfact>
</mgrwt>
</event>
<event>
 4    1  0.1678003E-008  0.7061890E+03  0.7818608E-02  0.9706706E-01
          1   -1    0    0  501    0  0.00000000000E+00  0.00000000000E+00  0.96438957438E+03  0.96438957440E+03  0.50400000000E-02 0. -1.
         -1   -1    0    0    0  501 -0.00000000000E+00 -0.00000000000E+00 -0.64420517122E+03  0.64420517124E+03  0.50400000000E-02 0.  1.
    8880022    1    1    2    0    0 -0.68919421626E+03  0.17960057877E+02  0.51732882557E+03  0.87540390574E+03  0.15294330000E+03 0.  0.
    8880022    1    1    2    0    0  0.68919421626E+03 -0.17960057877E+02 -0.19714442241E+03  0.73319083989E+03  0.15294330000E+03 0.  0.
<mgrwt>
<rscale>  0 0.70618899E+03</rscale>
<asrwt>0</asrwt>
<pdfrwt beam="1">  1        1 0.14836763E+00 0.70618899E+03</pdfrwt>
<pdfrwt beam="2">  1       -1 0.99108488E-01 0.70618899E+03</pdfrwt>
<totfact> 0.16264285E+01</totfact>
</mgrwt>
</event>
<event>
 4    1  0.1678003E-008  0.8756344E+03  0.7818608E-02  0.9456563E-01
         -1   -1    0    0    0  501 -0.00000000000E+00  0.00000000000E+00  0.84191274973E+03  0.84191274975E+03  0.50400000000E-02 0.  1.
          1   -1    0    0  501    0  0.00000000000E+00 -0.00000000000E+00 -0.17209525532E+04  0.17209525532E+04  0.50400000000E-02 0. -1.
    8880022    1    1    2    0    0  0.57648843126E+03  0.64109672202E+03  0.43974502384E+03  0.97985267126E+03  0.15294330000E+03 0.  0.
    8880022    1    1    2    0    0 -0.57648843126E+03 -0.64109672202E+03 -0.13187848273E+04  0.15830126317E+04  0.15294330000E+03 0.  0.
<mgrwt>
<rscale>  0 0.87563438E+03</rscale>
<asrwt>0</asrwt>
<pdfrwt beam="1">  1        1 0.26476193E+00 0.87563438E+03</pdfrwt>
<pdfrwt beam="2">  1       -1 0.12952504E+00 0.87563438E+03</pdfrwt>
<totfact> 0.24225659E+00</totfact>
</mgrwt>
</event>
<event>
 4    1  0.1678003E-008  0.1657211E+03  0.7818608E-02  0.1182385E+00
         -1   -1    0    0    0  501 -0.00000000000E+00  0.00000000000E+00  0.25192652631E+04  0.25192652631E+04  0.50400000000E-02 0.  1.
          1   -1    0    0  501    0  0.00000000000E+00 -0.00000000000E+00 -0.12251315555E+02  0.12251316591E+02  0.50400000000E-02 0. -1.
    8880022    1    1    2    0    0  0.60767345949E+02 -0.19471738693E+02  0.16736679899E+04  0.16818525537E+04  0.15294330000E+03 0.  0.
    8880022    1    1    2    0    0 -0.60767345949E+02  0.19471738693E+02  0.83334595764E+03  0.84966402600E+03  0.15294330000E+03 0.  0.
<mgrwt>
<rscale>  0 0.16572107E+03</rscale>
<asrwt>0</asrwt>
<pdfrwt beam="1">  1        1 0.18848181E-02 0.16572107E+03</pdfrwt>
<pdfrwt beam="2">  1       -1 0.38757922E+00 0.16572107E+03</pdfrwt>
<totfact> 0.71179980E+01</totfact>
</mgrwt>
</event>
<event>
 4    1  0.1678003E-008  0.7148097E+03  0.7818608E-02  0.9692236E-01
         -1   -1    0    0    0  501 -0.00000000000E+00  0.00000000000E+00  0.96379311559E+03  0.96379311560E+03  0.50400000000E-02 0.  1.
          1   -1    0    0  501    0  0.00000000000E+00 -0.00000000000E+00 -0.66880584465E+03  0.66880584466E+03  0.50400000000E-02 0. -1.
    8880022    1    1    2    0    0  0.62456061895E+03  0.31222622627E+03  0.51917600996E+03  0.88345716673E+03  0.15294330000E+03 0.  0.
    8880022    1    1    2    0    0 -0.62456061895E+03 -0.31222622627E+03 -0.22418873902E+03  0.74914179354E+03  0.15294330000E+03 0.  0.
<mgrwt>
<rscale>  0 0.71480965E+03</rscale>
<asrwt>0</asrwt>
<pdfrwt beam="1">  1        1 0.10289321E+00 0.71480965E+03</pdfrwt>
<pdfrwt beam="2">  1       -1 0.14827586E+00 0.71480965E+03</pdfrwt>
<totfact> 0.10872001E+01</totfact>
</mgrwt>
</event>
<event>
 4    1  0.1678003E-008  0.5947259E+03  0.7818608E-02  0.9916409E-01
          1   -1    0    0  501    0  0.00000000000E+00  0.00000000000E+00  0.14719625736E+04  0.14719625736E+04  0.50400000000E-02 0. -1.
         -1   -1    0    0    0  501 -0.00000000000E+00 -0.00000000000E+00 -0.10780915006E+04  0.10780915006E+04  0.50400000000E-02 0.  1.
    8880022    1    1    2    0    0  0.82745790046E+02  0.56873572337E+03 -0.92705325865E+03  0.11014202587E+04  0.15294330000E+03 0.  0.
    8880022    1    1    2    0    0 -0.82745790046E+02 -0.56873572337E+03  0.13209243316E+04  0.14486338156E+04  0.15294330000E+03 0.  0.
<mgrwt>
<rscale>  0 0.59472585E+03</rscale>
<asrwt>0</asrwt>
<pdfrwt beam="1">  1        1 0.22645578E+00 0.59472585E+03</pdfrwt>
<pdfrwt beam="2">  1       -1 0.16586023E+00 0.59472585E+03</pdfrwt>
<totfact> 0.19564253E+00</totfact>
</mgrwt>
</event>
<event>
 4    1  0.1678003E-008  0.2843714E+03  0.7818608E-02  0.1093325E+00
          1   -1    0    0  501    0  0.00000000000E+00  0.00000000000E+00  0.53266461769E+03  0.53266461772E+03  0.50400000000E-02 0. -1.
         -1   -1    0    0    0  501 -0.00000000000E+00 -0.00000000000E+00 -0.56873732927E+03  0.56873732929E+03  0.50400000000E-02 0.  1.
    8880022    1    1    2    0    0 -0.22829657389E+03 -0.73185331794E+02  0.45346937480E+03  0.53525839119E+03  0.15294330000E+03 0.  0.
    8880022    1    1    2    0    0  0.22829657389E+03  0.73185331794E+02 -0.48954208638E+03  0.56614355582E+03  0.15294330000E+03 0.  0.
<mgrwt>
<rscale>  0 0.28437136E+03</rscale>
<asrwt>0</asrwt>
<pdfrwt beam="1">  1        1 0.81948402E-01 0.28437136E+03</pdfrwt>
<pdfrwt beam="2">  1       -1 0.87498051E-01 0.28437136E+03</pdfrwt>
<totfact> 0.56589552E+01</totfact>
</mgrwt>
</event>
<event>
 4    1  0.1678003E-008  0.1045141E+04  0.7818608E-02  0.9260375E-01
         -1   -1    0    0    0  501 -0.00000000000E+00  0.00000000000E+00  0.11724994641E+04  0.11724994641E+04  0.50400000000E-02 0.  1.
          1   -1    0    0  501    0  0.00000000000E+00 -0.00000000000E+00 -0.12447098516E+04  0.12447098516E+04  0.50400000000E-02 0. -1.
    8880022    1    1    2    0    0 -0.75388504260E+03 -0.70752059811E+03 -0.64226509812E+03  0.12267127469E+04  0.15294330000E+03 0.  0.
    8880022    1    1    2    0    0  0.75388504260E+03  0.70752059811E+03  0.57005471063E+03  0.11904965688E+04  0.15294330000E+03 0.  0.
<mgrwt>
<rscale>  0 0.10451410E+04</rscale>
<asrwt>0</asrwt>
<pdfrwt beam="1">  1        1 0.19149382E+00 0.10451410E+04</pdfrwt>
<pdfrwt beam="2">  1       -1 0.18038453E+00 0.10451410E+04</pdfrwt>
<totfact> 0.20468833E+00</totfact>
</mgrwt>
</event>
<event>
 4    1  0.1678003E-008  0.1297887E+04  0.7818608E-02  0.9031243E-01
          1   -1    0    0  501    0  0.00000000000E+00  0.00000000000E+00  0.22391143982E+04  0.22391143983E+04  0.50400000000E-02 0. -1.
         -1   -1    0    0    0  501 -0.00000000000E+00 -0.00000000000E+00 -0.88100269694E+03  0.88100269696E+03  0.50400000000E-02 0.  1.
    8880022    1    1    2    0    0  0.12443250386E+04 -0.33581820563E+03  0.12753047565E+04  0.18195913123E+04  0.15294330000E+03 0.  0.
    8880022    1    1    2    0    0 -0.12443250386E+04  0.33581820563E+03  0.82806944803E+02  0.13005257829E+04  0.15294330000E+03 0.  0.
<mgrwt>
<rscale>  0 0.12978869E+04</rscale>
<asrwt>0</asrwt>
<pdfrwt beam="1">  1        1 0.34447913E+00 0.12978869E+04</pdfrwt>
<pdfrwt beam="2">  1       -1 0.13553888E+00 0.12978869E+04</pdfrwt>
<totfact> 0.90897768E-01</totfact>
</mgrwt>
</event>
<event>
 4    1  0.1678003E-008  0.7336863E+03  0.7818608E-02  0.9661297E-01
          1   -1    0    0  501    0  0.00000000000E+00  0.00000000000E+00  0.23391679964E+04  0.23391679964E+04  0.50400000000E-02 0. -1.
         -1   -1    0    0    0  501 -0.00000000000E+00 -0.00000000000E+00 -0.26322554558E+03  0.26322554563E+03  0.50400000000E-02 0.  1.
    8880022    1    1    2    0    0  0.40459579886E+03  0.59262645538E+03  0.14994077600E+04  0.16692870214E+04  0.15294330000E+03 0.  0.
    8880022    1    1    2    0    0 -0.40459579886E+03 -0.59262645538E+03  0.57653469075E+03  0.93310652057E+03  0.15294330000E+03 0.  0.
<mgrwt>
<rscale>  0 0.73368626E+03</rscale>
<asrwt>0</asrwt>
<pdfrwt beam="1">  1        1 0.35987200E+00 0.73368626E+03</pdfrwt>
<pdfrwt beam="2">  1       -1 0.40496238E-01 0.73368626E+03</pdfrwt>
<totfact> 0.10970393E+01</totfact>
</mgrwt>
</event>
<event>
 4    1  0.1678003E-008  0.4765849E+03  0.7818608E-02  0.1020078E+00
          1   -1    0    0  501    0  0.00000000000E+00  0.00000000000E+00  0.15212664304E+04  0.15212664305E+04  0.50400000000E-02 0. -1.
         -1   -1    0    0    0  501 -0.00000000000E+00 -0.00000000000E+00 -0.39233128646E+03  0.39233128649E+03  0.50400000000E-02 0.  1.
    8880022    1    1    2    0    0 -0.34264279672E+03  0.29383233795E+03  0.13175118458E+04  0.14010605432E+04  0.15294330000E+03 0.  0.
    8880022    1    1    2    0    0  0.34264279672E+03 -0.29383233795E+03 -0.18857670181E+03  0.51253717372E+03  0.15294330000E+03 0.  0.
<mgrwt>
<rscale>  0 0.47658492E+03</rscale>
<asrwt>0</asrwt>
<pdfrwt beam="1">  1        1 0.23404099E+00 0.47658492E+03</pdfrwt>
<pdfrwt beam="2">  1       -1 0.60358659E-01 0.47658492E+03</pdfrwt>
<totfact> 0.19087227E+01</totfact>
</mgrwt>
</event>
<event>
 4    1  0.1678003E-008  0.8505956E+03  0.7818608E-02  0.9489538E-01
         -1   -1    0    0    0  501 -0.00000000000E+00  0.00000000000E+00  0.81797789001E+03  0.81797789002E+03  0.50400000000E-02 0.  1.
          1   -1    0    0  501    0  0.00000000000E+00 -0.00000000000E+00 -0.91633446663E+03  0.91633446664E+03  0.50400000000E-02 0. -1.
    8880022    1    1    2    0    0  0.81385115471E+03  0.19433860065E+03 -0.21077182635E+03  0.87632049475E+03  0.15294330000E+03 0.  0.
    8880022    1    1    2    0    0 -0.81385115471E+03 -0.19433860065E+03  0.11241524972E+03  0.85799186191E+03  0.15294330000E+03 0.  0.
<mgrwt>
<rscale>  0 0.85059558E+03</rscale>
<asrwt>0</asrwt>
<pdfrwt beam="1">  1        1 0.14097453E+00 0.85059558E+03</pdfrwt>
<pdfrwt beam="2">  1       -1 0.12584275E+00 0.85059558E+03</pdfrwt>
<totfact> 0.98930653E+00</totfact>
</mgrwt>
</event>
<event>
 4    1  0.1678003E-008  0.7005350E+03  0.7818608E-02  0.9716318E-01
         -1   -1    0    0    0  501 -0.00000000000E+00  0.00000000000E+00  0.17928845446E+04  0.17928845446E+04  0.50400000000E-02 0.  1.
          1   -1    0    0  501    0  0.00000000000E+00 -0.00000000000E+00 -0.55783174796E+03  0.55783174798E+03  0.50400000000E-02 0. -1.
    8880022    1    1    2    0    0 -0.32872331934E+03  0.59941528370E+03 -0.22128201586E+03  0.73465303822E+03  0.15294330000E+03 0.  0.
    8880022    1    1    2    0    0  0.32872331934E+03 -0.59941528370E+03  0.14563348125E+04  0.16160632544E+04  0.15294330000E+03 0.  1.
<mgrwt>
<rscale>  0 0.70053505E+03</rscale>
<asrwt>0</asrwt>
<pdfrwt beam="1">  1        1 0.85820268E-01 0.70053505E+03</pdfrwt>
<pdfrwt beam="2">  1       -1 0.27582839E+00 0.70053505E+03</pdfrwt>
<totfact> 0.19058211E+00</totfact>
</mgrwt>
</event>
<event>
 4    1  0.1678003E-008  0.5340190E+03  0.7818608E-02  0.1005262E+00
         -1   -1    0    0    0  501 -0.00000000000E+00  0.00000000000E+00  0.10391642716E+04  0.10391642716E+04  0.50400000000E-02 0.  1.
          1   -1    0    0  501    0  0.00000000000E+00 -0.00000000000E+00 -0.90325874242E+03  0.90325874244E+03  0.50400000000E-02 0. -1.
    8880022    1    1    2    0    0  0.10925489790E+03  0.49984802319E+03  0.87830610995E+03  0.10279095071E+04  0.15294330000E+03 0.  0.
    8880022    1    1    2    0    0 -0.10925489790E+03 -0.49984802319E+03 -0.74240058078E+03  0.91451350693E+03  0.15294330000E+03 0.  0.
<mgrwt>
<rscale>  0 0.53401904E+03</rscale>
<asrwt>0</asrwt>
<pdfrwt beam="1">  1        1 0.13896288E+00 0.53401904E+03</pdfrwt>
<pdfrwt beam="2">  1       -1 0.15987143E+00 0.53401904E+03</pdfrwt>
<totfact> 0.57017454E+00</totfact>
</mgrwt>
</event>
<event>
 4    1  0.1678003E-008  0.2871177E+03  0.7818608E-02  0.1091864E+00
         -1   -1    0    0    0  501 -0.00000000000E+00  0.00000000000E+00  0.53263553260E+03  0.53263553263E+03  0.50400000000E-02 0.  1.
          1   -1    0    0  501    0  0.00000000000E+00 -0.00000000000E+00 -0.50208382068E+03  0.50208382071E+03  0.50400000000E-02 0. -1.
    8880022    1    1    2    0    0  0.24256688386E+03  0.14361386856E+02 -0.41501765666E+03  0.50465458577E+03  0.15294330000E+03 0.  0.
    8880022    1    1    2    0    0 -0.24256688386E+03 -0.14361386856E+02  0.44556936858E+03  0.53006476757E+03  0.15294330000E+03 0.  1.
<mgrwt>
<rscale>  0 0.28711774E+03</rscale>
<asrwt>0</asrwt>
<pdfrwt beam="1">  1        1 0.77243665E-01 0.28711774E+03</pdfrwt>
<pdfrwt beam="2">  1       -1 0.81943928E-01 0.28711774E+03</pdfrwt>
<totfact> 0.70367561E+01</totfact>
</mgrwt>
</event>
<event>
 4    1  0.1678003E-008  0.2892553E+03  0.7818608E-02  0.1090739E+00
          1   -1    0    0  501    0  0.00000000000E+00  0.00000000000E+00  0.23391357671E+04  0.23391357671E+04  0.50400000000E-02 0. -1.
         -1   -1    0    0    0  501 -0.00000000000E+00 -0.00000000000E+00 -0.81532079228E+03  0.81532079230E+03  0.50400000000E-02 0.  1.
    8880022    1    1    2    0    0  0.17300512398E+03 -0.17420165910E+03  0.23041503609E+04  0.23222354596E+04  0.15294330000E+03 0.  0.
    8880022    1    1    2    0    0 -0.17300512398E+03  0.17420165910E+03 -0.78033538617E+03  0.83222109976E+03  0.15294330000E+03 0.  0.
<mgrwt>
<rscale>  0 0.28925533E+03</rscale>
<asrwt>0</asrwt>
<pdfrwt beam="1">  1        1 0.35986704E+00 0.28925533E+03</pdfrwt>
<pdfrwt beam="2">  1       -1 0.12543397E+00 0.28925533E+03</pdfrwt>
<totfact> 0.12147063E+00</totfact>
</mgrwt>
</event>
<event>
 4    1  0.1678003E-008  0.9875880E+03  0.7818608E-02  0.9322264E-01
         -1   -1    0    0    0  501 -0.00000000000E+00  0.00000000000E+00  0.50438025584E+03  0.50438025587E+03  0.50400000000E-02 0.  1.
          1   -1    0    0  501    0  0.00000000000E+00 -0.00000000000E+00 -0.30780993357E+04  0.30780993357E+04  0.50400000000E-02 0. -1.
    8880022    1    1    2    0    0  0.60667684619E+03 -0.76412150097E+03 -0.23790476495E+04  0.25758877762E+04  0.15294330000E+03 0.  0.
    8880022    1    1    2    0    0 -0.60667684619E+03  0.76412150097E+03 -0.19467143034E+03  0.10065918154E+04  0.15294330000E+03 0.  0.
<mgrwt>
<rscale>  0 0.98758803E+03</rscale>
<asrwt>0</asrwt>
<pdfrwt beam="1">  1        1 0.47355373E+00 0.98758803E+03</pdfrwt>
<pdfrwt beam="2">  1       -1 0.77596965E-01 0.98758803E+03</pdfrwt>
<totfact> 0.89971995E-01</totfact>
</mgrwt>
</event>
<event>
 4    1  0.1678003E-008  0.4680071E+03  0.7818608E-02  0.1022484E+00
         -1   -1    0    0    0  501 -0.00000000000E+00  0.00000000000E+00  0.60601294833E+03  0.60601294835E+03  0.50400000000E-02 0.  1.
          1   -1    0    0  501    0  0.00000000000E+00 -0.00000000000E+00 -0.15386729327E+04  0.15386729327E+04  0.50400000000E-02 0. -1.
    8880022    1    1    2    0    0 -0.32584722237E+03 -0.29910299045E+03 -0.14043104005E+04  0.14802426710E+04  0.15294330000E+03 0.  0.
    8880022    1    1    2    0    0  0.32584722237E+03  0.29910299045E+03  0.47165041616E+03  0.66444320999E+03  0.15294330000E+03 0.  1.
<mgrwt>
<rscale>  0 0.46800712E+03</rscale>
<asrwt>0</asrwt>
<pdfrwt beam="1">  1        1 0.23671891E+00 0.46800712E+03</pdfrwt>
<pdfrwt beam="2">  1       -1 0.93232762E-01 0.46800712E+03</pdfrwt>
<totfact> 0.75661403E+00</totfact>
</mgrwt>
</event>
<event>
 4    1  0.1678003E-008  0.6448004E+03  0.7818608E-02  0.9816585E-01
         -1   -1    0    0    0  501 -0.00000000000E+00  0.00000000000E+00  0.24888792743E+03  0.24888792749E+03  0.50400000000E-02 0.  1.
          1   -1    0    0  501    0  0.00000000000E+00 -0.00000000000E+00 -0.25233340995E+04  0.25233340995E+04  0.50400000000E-02 0. -1.
    8880022    1    1    2    0    0 -0.28069676227E+03  0.55998678359E+03 -0.19430516701E+04  0.20472462763E+04  0.15294330000E+03 0.  0.
    8880022    1    1    2    0    0  0.28069676227E+03 -0.55998678359E+03 -0.33139450198E+03  0.72497575070E+03  0.15294330000E+03 0.  0.
<mgrwt>
<rscale>  0 0.64480037E+03</rscale>
<asrwt>0</asrwt>
<pdfrwt beam="1">  1        1 0.38820523E+00 0.64480037E+03</pdfrwt>
<pdfrwt beam="2">  1       -1 0.38290452E-01 0.64480037E+03</pdfrwt>
<totfact> 0.92532695E+00</totfact>
</mgrwt>
</event>
<event>
 4    1  0.1678003E-008  0.5424323E+03  0.7818608E-02  0.1003261E+00
         -1   -1    0    0    0  501 -0.00000000000E+00  0.00000000000E+00  0.23949169778E+03  0.23949169784E+03  0.50400000000E-02 0.  1.
          1   -1    0    0  501    0  0.00000000000E+00 -0.00000000000E+00 -0.32033865337E+04  0.32033865337E+04  0.50400000000E-02 0. -1.
    8880022    1    1    2    0    0 -0.27158438933E+03  0.44394037510E+03 -0.13034128568E+03  0.55787242353E+03  0.15294330000E+03 0.  0.
    8880022    1    1    2    0    0  0.27158438933E+03 -0.44394037510E+03 -0.28335535502E+04  0.28850058080E+04  0.15294330000E+03 0.  0.
<mgrwt>
<rscale>  0 0.54243229E+03</rscale>
<asrwt>0</asrwt>
<pdfrwt beam="1">  1        1 0.49282867E+00 0.54243229E+03</pdfrwt>
<pdfrwt beam="2">  1       -1 0.36844879E-01 0.54243229E+03</pdfrwt>
<totfact> 0.33744074E+00</totfact>
</mgrwt>
</event>
<event>
 4    1  0.1678003E-008  0.1629029E+04  0.7818608E-02  0.8802910E-01
         -1   -1    0    0    0  501 -0.00000000000E+00  0.00000000000E+00  0.22020368908E+04  0.22020368909E+04  0.50400000000E-02 0.  1.
          1   -1    0    0  501    0  0.00000000000E+00 -0.00000000000E+00 -0.14279100804E+04  0.14279100804E+04  0.50400000000E-02 0. -1.
    8880022    1    1    2    0    0 -0.14568229454E+03 -0.16152775775E+04  0.11039654849E+04  0.19678608762E+04  0.15294330000E+03 0.  0.
    8880022    1    1    2    0    0  0.14568229454E+03  0.16152775775E+04 -0.32983867441E+03  0.16620860951E+04  0.15294330000E+03 0.  0.
<mgrwt>
<rscale>  0 0.16290294E+04</rscale>
<asrwt>0</asrwt>
<pdfrwt beam="1">  1        1 0.21967847E+00 0.16290294E+04</pdfrwt>
<pdfrwt beam="2">  1       -1 0.33877491E+00 0.16290294E+04</pdfrwt>
<totfact> 0.12627208E-01</totfact>
</mgrwt>
</event>
<event>
 4    1  0.1678003E-008  0.6704372E+03  0.7818608E-02  0.9769168E-01
          1   -1    0    0  501    0  0.00000000000E+00  0.00000000000E+00  0.22236252100E+04  0.22236252100E+04  0.50400000000E-02 0. -1.
         -1   -1    0    0    0  501 -0.00000000000E+00 -0.00000000000E+00 -0.56525647346E+03  0.56525647348E+03  0.50400000000E-02 0.  1.
    8880022    1    1    2    0    0 -0.13215110498E+03  0.63924215797E+03 -0.28844968152E+03  0.72985568632E+03  0.15294330000E+03 0.  0.
    8880022    1    1    2    0    0  0.13215110498E+03 -0.63924215797E+03  0.19468184180E+04  0.20590259971E+04  0.15294330000E+03 0.  0.
<mgrwt>
<rscale>  0 0.67043725E+03</rscale>
<asrwt>0</asrwt>
<pdfrwt beam="1">  1        1 0.34209619E+00 0.67043725E+03</pdfrwt>
<pdfrwt beam="2">  1       -1 0.86962534E-01 0.67043725E+03</pdfrwt>
<totfact> 0.29367546E+00</totfact>
</mgrwt>
</event>
<event>
 4    1  0.1678003E-008  0.6074061E+03  0.7818608E-02  0.9890159E-01
         -1   -1    0    0    0  501 -0.00000000000E+00  0.00000000000E+00  0.15914796698E+04  0.15914796698E+04  0.50400000000E-02 0.  1.
          1   -1    0    0  501    0  0.00000000000E+00 -0.00000000000E+00 -0.10302538573E+04  0.10302538573E+04  0.50400000000E-02 0. -1.
    8880022    1    1    2    0    0 -0.58368666992E+03 -0.69716200948E+02  0.14346107360E+04  0.15578992567E+04  0.15294330000E+03 0.  0.
    8880022    1    1    2    0    0  0.58368666992E+03  0.69716200948E+02 -0.87338492350E+03  0.10638342704E+04  0.15294330000E+03 0.  0.
<mgrwt>
<rscale>  0 0.60740607E+03</rscale>
<asrwt>0</asrwt>
<pdfrwt beam="1">  1        1 0.15850059E+00 0.60740607E+03</pdfrwt>
<pdfrwt beam="2">  1       -1 0.24484302E+00 0.60740607E+03</pdfrwt>
<totfact> 0.11709854E+00</totfact>
</mgrwt>
</event>
<event>
 4    1  0.1678003E-008  0.2553109E+03  0.7818608E-02  0.1109994E+00
         -1   -1    0    0    0  501 -0.00000000000E+00  0.00000000000E+00  0.19086770678E+03  0.19086770684E+03  0.50400000000E-02 0.  1.
          1   -1    0    0  501    0  0.00000000000E+00 -0.00000000000E+00 -0.89803261140E+03  0.89803261141E+03  0.50400000000E-02 0. -1.
    8880022    1    1    2    0    0 -0.11170402753E+03  0.17121391985E+03  0.75018001493E+02  0.26610402041E+03  0.15294330000E+03 0.  1.
    8880022    1    1    2    0    0  0.11170402753E+03 -0.17121391985E+03 -0.78218290612E+03  0.82279629785E+03  0.15294330000E+03 0.  0.
<mgrwt>
<rscale>  0 0.25531089E+03</rscale>
<asrwt>0</asrwt>
<pdfrwt beam="1">  1        1 0.13815886E+00 0.25531089E+03</pdfrwt>
<pdfrwt beam="2">  1       -1 0.29364263E-01 0.25531089E+03</pdfrwt>
<totfact> 0.20568958E+02</totfact>
</mgrwt>
</event>
<event>
 4    1  0.1678003E-008  0.2852152E+03  0.7818608E-02  0.1092874E+00
          1   -1    0    0  501    0  0.00000000000E+00  0.00000000000E+00  0.13769990189E+04  0.13769990189E+04  0.50400000000E-02 0. -1.
         -1   -1    0    0    0  501 -0.00000000000E+00 -0.00000000000E+00 -0.81081634729E+03  0.81081634731E+03  0.50400000000E-02 0.  1.
    8880022    1    1    2    0    0 -0.13605988465E+03  0.19860454346E+03  0.13363943582E+04  0.13664909771E+04  0.15294330000E+03 0. -1.
    8880022    1    1    2    0    0  0.13605988465E+03 -0.19860454346E+03 -0.77021168661E+03  0.82132438908E+03  0.15294330000E+03 0.  0.
<mgrwt>
<rscale>  0 0.28521520E+03</rscale>
<asrwt>0</asrwt>
<pdfrwt beam="1">  1        1 0.21184600E+00 0.28521520E+03</pdfrwt>
<pdfrwt beam="2">  1       -1 0.12474098E+00 0.28521520E+03</pdfrwt>
<totfact> 0.52839263E+00</totfact>
</mgrwt>
</event>
<event>
 4    1  0.1678003E-008  0.2863168E+03  0.7818608E-02  0.1092288E+00
         -1   -1    0    0    0  501 -0.00000000000E+00  0.00000000000E+00  0.22454833026E+03  0.22454833032E+03  0.50400000000E-02 0.  1.
          1   -1    0    0  501    0  0.00000000000E+00 -0.00000000000E+00 -0.72457418262E+03  0.72457418264E+03  0.50400000000E-02 0. -1.
    8880022    1    1    2    0    0  0.95339204691E+02  0.22247720976E+03 -0.58428406376E+03  0.65066519270E+03  0.15294330000E+03 0. -1.
    8880022    1    1    2    0    0 -0.95339204691E+02 -0.22247720976E+03  0.84258211397E+02  0.29845732026E+03  0.15294330000E+03 0.  0.
<mgrwt>
<rscale>  0 0.28631683E+03</rscale>
<asrwt>0</asrwt>
<pdfrwt beam="1">  1        1 0.11147295E+00 0.28631683E+03</pdfrwt>
<pdfrwt beam="2">  1       -1 0.34545897E-01 0.28631683E+03</pdfrwt>
<totfact> 0.21600005E+02</totfact>
</mgrwt>
</event>
<event>
 4    1  0.1678003E-008  0.6243685E+03  0.7818608E-02  0.9856100E-01
          1   -1    0    0  501    0  0.00000000000E+00  0.00000000000E+00  0.62656302983E+03  0.62656302985E+03  0.50400000000E-02 0. -1.
         -1   -1    0    0    0  501 -0.00000000000E+00 -0.00000000000E+00 -0.11072935421E+04  0.11072935421E+04  0.50400000000E-02 0.  1.
    8880022    1    1    2    0    0  0.55479495691E+03  0.24217122954E+03 -0.81418140075E+03  0.10260250265E+04  0.15294330000E+03 0.  1.
    8880022    1    1    2    0    0 -0.55479495691E+03 -0.24217122954E+03  0.33345088852E+03  0.70783154543E+03  0.15294330000E+03 0.  0.
<mgrwt>
<rscale>  0 0.62436848E+03</rscale>
<asrwt>0</asrwt>
<pdfrwt beam="1">  1        1 0.96394312E-01 0.62436848E+03</pdfrwt>
<pdfrwt beam="2">  1       -1 0.17035285E+00 0.62436848E+03</pdfrwt>
<totfact> 0.82677582E+00</totfact>
</mgrwt>
</event>
<event>
 4    1  0.1678003E-008  0.2033112E+03  0.7818608E-02  0.1146975E+00
         -1   -1    0    0    0  501 -0.00000000000E+00  0.00000000000E+00  0.69335733330E+02  0.69335733514E+02  0.50400000000E-02 0.  1.
          1   -1    0    0  501    0  0.00000000000E+00 -0.00000000000E+00 -0.25391586704E+04  0.25391586704E+04  0.50400000000E-02 0. -1.
    8880022    1    1    2    0    0  0.80666485136E+02 -0.10694259178E+03 -0.94002949577E+02  0.22399108756E+03  0.15294330000E+03 0.  0.
    8880022    1    1    2    0    0 -0.80666485136E+02  0.10694259178E+03 -0.23758199874E+04  0.23845033163E+04  0.15294330000E+03 0.  0.
<mgrwt>
<rscale>  0 0.20331122E+03</rscale>
<asrwt>0</asrwt>
<pdfrwt beam="1">  1        1 0.39063972E+00 0.20331122E+03</pdfrwt>
<pdfrwt beam="2">  1       -1 0.10667038E-01 0.20331122E+03</pdfrwt>
<totfact> 0.84580798E+01</totfact>
</mgrwt>
</event>
<event>
 4    1  0.1678003E-008  0.6068821E+03  0.7818608E-02  0.9891230E-01
         -1   -1    0    0    0  501 -0.00000000000E+00  0.00000000000E+00  0.20644218047E+03  0.20644218053E+03  0.50400000000E-02 0.  1.
          1   -1    0    0  501    0  0.00000000000E+00 -0.00000000000E+00 -0.24268897271E+04  0.24268897271E+04  0.50400000000E-02 0. -1.
    8880022    1    1    2    0    0 -0.45361511506E+03 -0.37302488435E+03 -0.17878613661E+04  0.18880556545E+04  0.15294330000E+03 0.  0.
    8880022    1    1    2    0    0  0.45361511506E+03  0.37302488435E+03 -0.43258618056E+03  0.74527625319E+03  0.15294330000E+03 0.  0.
<mgrwt>
<rscale>  0 0.60688211E+03</rscale>
<asrwt>0</asrwt>
<pdfrwt beam="1">  1        1 0.37336763E+00 0.60688211E+03</pdfrwt>
<pdfrwt beam="2">  1       -1 0.31760337E-01 0.60688211E+03</pdfrwt>
<totfact> 0.15100180E+01</totfact>
</mgrwt>
</event>
<event>
 4    1  0.1678003E-008  0.3879189E+03  0.7818608E-02  0.1048045E+00
         -1   -1    0    0    0  501 -0.00000000000E+00  0.00000000000E+00  0.10404893250E+04  0.10404893251E+04  0.50400000000E-02 0.  1.
          1   -1    0    0  501    0  0.00000000000E+00 -0.00000000000E+00 -0.51272367675E+03  0.51272367678E+03  0.50400000000E-02 0. -1.
    8880022    1    1    2    0    0  0.21103205374E+03 -0.28732367899E+03 -0.39414050088E+03  0.55301700848E+03  0.15294330000E+03 0.  0.
    8880022    1    1    2    0    0 -0.21103205374E+03  0.28732367899E+03  0.92190614917E+03  0.10001959933E+04  0.15294330000E+03 0.  0.
<mgrwt>
<rscale>  0 0.38791891E+03</rscale>
<asrwt>0</asrwt>
<pdfrwt beam="1">  1        1 0.78880566E-01 0.38791891E+03</pdfrwt>
<pdfrwt beam="2">  1       -1 0.16007528E+00 0.38791891E+03</pdfrwt>
<totfact> 0.13637404E+01</totfact>
</mgrwt>
</event>
<event>
 4    1  0.1678003E-008  0.2451294E+03  0.7818608E-02  0.1116422E+00
          1   -1    0    0  501    0  0.00000000000E+00  0.00000000000E+00  0.14869202038E+04  0.14869202038E+04  0.50400000000E-02 0. -1.
         -1   -1    0    0    0  501 -0.00000000000E+00 -0.00000000000E+00 -0.15971111080E+03  0.15971111088E+03  0.50400000000E-02 0.  1.
    8880022    1    1    2    0    0 -0.19062205500E+03  0.18973327303E+02  0.13751762193E+04  0.13968529064E+04  0.15294330000E+03 0.  0.
    8880022    1    1    2    0    0  0.19062205500E+03 -0.18973327303E+02 -0.47967126341E+02  0.24977840825E+03  0.15294330000E+03 0.  1.
<mgrwt>
<rscale>  0 0.24512937E+03</rscale>
<asrwt>0</asrwt>
<pdfrwt beam="1">  1        1 0.22875695E+00 0.24512937E+03</pdfrwt>
<pdfrwt beam="2">  1       -1 0.24570941E-01 0.24512937E+03</pdfrwt>
<totfact> 0.10642130E+02</totfact>
</mgrwt>
</event>
<event>
 4    1  0.1678003E-008  0.1692166E+03  0.7818608E-02  0.1178667E+00
         -1   -1    0    0    0  501 -0.00000000000E+00  0.00000000000E+00  0.13773519345E+03  0.13773519354E+03  0.50400000000E-02 0.  1.
          1   -1    0    0  501    0  0.00000000000E+00 -0.00000000000E+00 -0.12157994073E+04  0.12157994073E+04  0.50400000000E-02 0. -1.
    8880022    1    1    2    0    0  0.62289265112E+02  0.36914291975E+02 -0.11552273884E+04  0.11675549621E+04  0.15294330000E+03 0. -1.
    8880022    1    1    2    0    0 -0.62289265112E+02 -0.36914291975E+02  0.77163174591E+02  0.18597963875E+03  0.15294330000E+03 0.  0.
<mgrwt>
<rscale>  0 0.16921664E+03</rscale>
<asrwt>0</asrwt>
<pdfrwt beam="1">  1        1 0.18704606E+00 0.16921664E+03</pdfrwt>
<pdfrwt beam="2">  1       -1 0.21190031E-01 0.16921664E+03</pdfrwt>
<totfact> 0.21107397E+02</totfact>
</mgrwt>
</event>
<event>
 4    1  0.1678003E-008  0.4111871E+03  0.7818608E-02  0.1039973E+00
         -1   -1    0    0    0  501 -0.00000000000E+00  0.00000000000E+00  0.84924445909E+03  0.84924445910E+03  0.50400000000E-02 0.  1.
          1   -1    0    0  501    0  0.00000000000E+00 -0.00000000000E+00 -0.12916328665E+04  0.12916328665E+04  0.50400000000E-02 0. -1.
    8880022    1    1    2    0    0 -0.41817173543E+02  0.37938701021E+03  0.76329685874E+03  0.86700457155E+03  0.15294330000E+03 0.  0.
    8880022    1    1    2    0    0  0.41817173543E+02 -0.37938701021E+03 -0.12056852662E+04  0.12738727541E+04  0.15294330000E+03 0. -1.
<mgrwt>
<rscale>  0 0.41118710E+03</rscale>
<asrwt>0</asrwt>
<pdfrwt beam="1">  1        1 0.19871275E+00 0.41118710E+03</pdfrwt>
<pdfrwt beam="2">  1       -1 0.13065299E+00 0.41118710E+03</pdfrwt>
<totfact> 0.51456467E+00</totfact>
</mgrwt>
</event>
<event>
 4    1  0.1678003E-008  0.5086601E+03  0.7818608E-02  0.1011543E+00
         -1   -1    0    0    0  501 -0.00000000000E+00  0.00000000000E+00  0.20359578724E+03  0.20359578730E+03  0.50400000000E-02 0.  1.
          1   -1    0    0  501    0  0.00000000000E+00 -0.00000000000E+00 -0.32937641393E+04  0.32937641394E+04  0.50400000000E-02 0. -1.
    8880022    1    1    2    0    0 -0.40562233272E+03 -0.26610890183E+03 -0.17465924483E+03  0.53781123943E+03  0.15294330000E+03 0.  0.
    8880022    1    1    2    0    0  0.40562233272E+03  0.26610890183E+03 -0.29155091073E+04  0.29595486872E+04  0.15294330000E+03 0.  0.
<mgrwt>
<rscale>  0 0.50866008E+03</rscale>
<asrwt>0</asrwt>
<pdfrwt beam="1">  1        1 0.50673291E+00 0.50866008E+03</pdfrwt>
<pdfrwt beam="2">  1       -1 0.31322431E-01 0.50866008E+03</pdfrwt>
<totfact> 0.38908840E+00</totfact>
</mgrwt>
</event>
<event>
 4    1  0.1678003E-008  0.3953536E+03  0.7818608E-02  0.1045401E+00
          1   -1    0    0  501    0  0.00000000000E+00  0.00000000000E+00  0.11518860601E+03  0.11518860612E+03  0.50400000000E-02 0. -1.
         -1   -1    0    0    0  501 -0.00000000000E+00 -0.00000000000E+00 -0.19186082299E+04  0.19186082299E+04  0.50400000000E-02 0.  1.
    8880022    1    1    2    0    0 -0.99615560817E+02  0.35069870496E+03 -0.35150703162E+03  0.52901955343E+03  0.15294330000E+03 0.  0.
    8880022    1    1    2    0    0  0.99615560817E+02 -0.35069870496E+03 -0.14519125923E+04  0.15047772826E+04  0.15294330000E+03 0.  0.
<mgrwt>
<rscale>  0 0.39535363E+03</rscale>
<asrwt>0</asrwt>
<pdfrwt beam="1">  1        1 0.17721325E-01 0.39535363E+03</pdfrwt>
<pdfrwt beam="2">  1       -1 0.29517047E+00 0.39535363E+03</pdfrwt>
<totfact> 0.12038077E+01</totfact>
</mgrwt>
</event>
<event>
 4    1  0.1678003E-008  0.4385684E+03  0.7818608E-02  0.1031187E+00
          1   -1    0    0  501    0  0.00000000000E+00  0.00000000000E+00  0.13277644268E+04  0.13277644268E+04  0.50400000000E-02 0. -1.
         -1   -1    0    0    0  501 -0.00000000000E+00 -0.00000000000E+00 -0.18540198573E+03  0.18540198579E+03  0.50400000000E-02 0.  1.
    8880022    1    1    2    0    0 -0.30316925401E+03 -0.27755893512E+03  0.21739337436E+03  0.48949166619E+03  0.15294330000E+03 0.  0.
    8880022    1    1    2    0    0  0.30316925401E+03  0.27755893512E+03  0.92496906672E+03  0.10236747464E+04  0.15294330000E+03 0.  0.
<mgrwt>
<rscale>  0 0.43856837E+03</rscale>
<asrwt>0</asrwt>
<pdfrwt beam="1">  1        1 0.20427144E+00 0.43856837E+03</pdfrwt>
<pdfrwt beam="2">  1       -1 0.28523384E-01 0.43856837E+03</pdfrwt>
<totfact> 0.10193025E+02</totfact>
</mgrwt>
</event>
<event>
 4    1  0.1678003E-008  0.1542693E+03  0.7818608E-02  0.1195323E+00
         -1   -1    0    0    0  501 -0.00000000000E+00  0.00000000000E+00  0.12955683165E+03  0.12955683175E+03  0.50400000000E-02 0.  1.
          1   -1    0    0  501    0  0.00000000000E+00 -0.00000000000E+00 -0.11680788479E+04  0.11680788479E+04  0.50400000000E-02 0. -1.
    8880022    1    1    2    0    0  0.34095160095E+01 -0.19892896539E+02  0.76358392493E+02  0.17213253397E+03  0.15294330000E+03 0.  0.
    8880022    1    1    2    0    0 -0.34095160095E+01  0.19892896539E+02 -0.11148804087E+04  0.11255031457E+04  0.15294330000E+03 0. -1.
<mgrwt>
<rscale>  0 0.15426926E+03</rscale>
<asrwt>0</asrwt>
<pdfrwt beam="1">  1        1 0.17970443E+00 0.15426926E+03</pdfrwt>
<pdfrwt beam="2">  1       -1 0.19931821E-01 0.15426926E+03</pdfrwt>
<totfact> 0.25242088E+02</totfact>
</mgrwt>
</event>
<event>
 4    1  0.1837497E-008  0.9201909E+03  0.7818608E-02  0.9400688E-01
         -1   -1    0    0    0  501 -0.00000000000E+00  0.00000000000E+00  0.13796720105E+04  0.13796720105E+04  0.50400000000E-02 0.  1.
          1   -1    0    0  501    0  0.00000000000E+00 -0.00000000000E+00 -0.20631768383E+04  0.20631768383E+04  0.50400000000E-02 0. -1.
    8880022    1    1    2    0    0  0.90739104479E+03  0.10573551997E+01 -0.17845995355E+04  0.20078712063E+04  0.15294330000E+03 0.  0.
    8880022    1    1    2    0    0 -0.90739104479E+03 -0.10573551997E+01  0.11010947077E+04  0.14349776425E+04  0.15294330000E+03 0.  0.
<mgrwt>
<rscale>  0 0.92019089E+03</rscale>
<asrwt>0</asrwt>
<pdfrwt beam="1">  1        1 0.31741182E+00 0.92019089E+03</pdfrwt>
<pdfrwt beam="2">  1       -1 0.21225723E+00 0.92019089E+03</pdfrwt>
<totfact> 0.34494855E-01</totfact>
</mgrwt>
</event>
<event>
 4    1  0.1678003E-008  0.2103787E+03  0.7818608E-02  0.1141266E+00
          1   -1    0    0  501    0  0.00000000000E+00  0.00000000000E+00  0.28594436002E+03  0.28594436006E+03  0.50400000000E-02 0. -1.
         -1   -1    0    0    0  501 -0.00000000000E+00 -0.00000000000E+00 -0.20488743397E+03  0.20488743403E+03  0.50400000000E-02 0.  1.
    8880022    1    1    2    0    0 -0.13296087948E+03  0.56470873925E+02 -0.80834143465E+02  0.22537383796E+03  0.15294330000E+03 0.  1.
    8880022    1    1    2    0    0  0.13296087948E+03 -0.56470873925E+02  0.16189106951E+03  0.26545795613E+03  0.15294330000E+03 0.  0.
<mgrwt>
<rscale>  0 0.21037873E+03</rscale>
<asrwt>0</asrwt>
<pdfrwt beam="1">  1        1 0.43991440E-01 0.21037873E+03</pdfrwt>
<pdfrwt beam="2">  1       -1 0.31521144E-01 0.21037873E+03</pdfrwt>
<totfact> 0.87423384E+02</totfact>
</mgrwt>
</event>
<event>
 4    1  0.1678003E-008  0.2180398E+03  0.7818608E-02  0.1135353E+00
         -1   -1    0    0    0  501 -0.00000000000E+00  0.00000000000E+00  0.31400921664E+03  0.31400921668E+03  0.50400000000E-02 0.  1.
          1   -1    0    0  501    0  0.00000000000E+00 -0.00000000000E+00 -0.86005234338E+03  0.86005234339E+03  0.50400000000E-02 0. -1.
    8880022    1    1    2    0    0 -0.14028666918E+03  0.66853177186E+02 -0.80588350085E+03  0.83485901014E+03  0.15294330000E+03 0.  0.
    8880022    1    1    2    0    0  0.14028666918E+03 -0.66853177186E+02  0.25984037411E+03  0.33920254994E+03  0.15294330000E+03 0.  0.
<mgrwt>
<rscale>  0 0.21803979E+03</rscale>
<asrwt>0</asrwt>
<pdfrwt beam="1">  1        1 0.13231574E+00 0.21803979E+03</pdfrwt>
<pdfrwt beam="2">  1       -1 0.48309111E-01 0.21803979E+03</pdfrwt>
<totfact> 0.92458072E+01</totfact>
</mgrwt>
</event>
<event>
 4    1  0.1678003E-008  0.6215880E+03  0.7818608E-02  0.9861603E-01
         -1   -1    0    0    0  501 -0.00000000000E+00  0.00000000000E+00  0.21783812647E+03  0.21783812653E+03  0.50400000000E-02 0.  1.
          1   -1    0    0  501    0  0.00000000000E+00 -0.00000000000E+00 -0.22521705766E+04  0.22521705766E+04  0.50400000000E-02 0. -1.
    8880022    1    1    2    0    0 -0.60216818886E+03  0.19324449775E+02 -0.15864277882E+04  0.17038558455E+04  0.15294330000E+03 0.  0.
    8880022    1    1    2    0    0  0.60216818886E+03 -0.19324449775E+02 -0.44790466185E+03  0.76615285757E+03  0.15294330000E+03 0.  0.
<mgrwt>
<rscale>  0 0.62158798E+03</rscale>
<asrwt>0</asrwt>
<pdfrwt beam="1">  1        1 0.34648776E+00 0.62158798E+03</pdfrwt>
<pdfrwt beam="2">  1       -1 0.33513560E-01 0.62158798E+03</pdfrwt>
<totfact> 0.17960811E+01</totfact>
</mgrwt>
</event>
<event>
 4    1  0.1678003E-008  0.2030978E+03  0.7818608E-02  0.1147151E+00
         -1   -1    0    0    0  501 -0.00000000000E+00  0.00000000000E+00  0.24313603998E+03  0.24313604004E+03  0.50400000000E-02 0.  1.
          1   -1    0    0  501    0  0.00000000000E+00 -0.00000000000E+00 -0.10834968326E+04  0.10834968326E+04  0.50400000000E-02 0. -1.
    8880022    1    1    2    0    0  0.47640840191E+02 -0.12484950661E+03 -0.10293566752E+04  0.10492015377E+04  0.15294330000E+03 0. -1.
    8880022    1    1    2    0    0 -0.47640840191E+02  0.12484950661E+03  0.18899588258E+03  0.27743133493E+03  0.15294330000E+03 0.  0.
<mgrwt>
<rscale>  0 0.20309776E+03</rscale>
<asrwt>0</asrwt>
<pdfrwt beam="1">  1        1 0.16669182E+00 0.20309776E+03</pdfrwt>
<pdfrwt beam="2">  1       -1 0.37405545E-01 0.20309776E+03</pdfrwt>
<totfact> 0.99530754E+01</totfact>
</mgrwt>
</event>
<event>
 4    1  0.1678003E-008  0.1005812E+04  0.7818608E-02  0.9302193E-01
          1   -1    0    0  501    0  0.00000000000E+00  0.00000000000E+00  0.27919391738E+04  0.27919391738E+04  0.50400000000E-02 0. -1.
         -1   -1    0    0    0  501 -0.00000000000E+00 -0.00000000000E+00 -0.38948122411E+03  0.38948122414E+03  0.50400000000E-02 0.  1.
    8880022    1    1    2    0    0  0.30504665917E+03  0.94615702045E+03  0.78138765624E+03  0.12736659271E+04  0.15294330000E+03 0.  0.
    8880022    1    1    2    0    0 -0.30504665917E+03 -0.94615702045E+03  0.16210702935E+04  0.19077544708E+04  0.15294330000E+03 0.  0.
<mgrwt>
<rscale>  0 0.10058122E+04</rscale>
<asrwt>0</asrwt>
<pdfrwt beam="1">  1        1 0.42952910E+00 0.10058122E+04</pdfrwt>
<pdfrwt beam="2">  1       -1 0.59920189E-01 0.10058122E+04</pdfrwt>
<totfact> 0.24399848E+00</totfact>
</mgrwt>
</event>
<event>
 4    1  0.1678003E-008  0.7878952E+03  0.7818608E-02  0.9577706E-01
          1   -1    0    0  501    0  0.00000000000E+00  0.00000000000E+00  0.18137302515E+04  0.18137302515E+04  0.50400000000E-02 0. -1.
         -1   -1    0    0    0  501 -0.00000000000E+00 -0.00000000000E+00 -0.53239647497E+03  0.53239647499E+03  0.50400000000E-02 0.  1.
    8880022    1    1    2    0    0 -0.68250456464E+03  0.36273221199E+03 -0.60351449432E+02  0.79020319465E+03  0.15294330000E+03 0.  0.
    8880022    1    1    2    0    0  0.68250456464E+03 -0.36273221199E+03  0.13416852260E+04  0.15559235318E+04  0.15294330000E+03 0.  0.
<mgrwt>
<rscale>  0 0.78789517E+03</rscale>
<asrwt>0</asrwt>
<pdfrwt beam="1">  1        1 0.27903542E+00 0.78789517E+03</pdfrwt>
<pdfrwt beam="2">  1       -1 0.81907150E-01 0.78789517E+03</pdfrwt>
<totfact> 0.61462473E+00</totfact>
</mgrwt>
</event>
<event>
 4    1  0.1678003E-008  0.3011956E+03  0.7818608E-02  0.1084644E+00
         -1   -1    0    0    0  501 -0.00000000000E+00  0.00000000000E+00  0.12777401105E+03  0.12777401115E+03  0.50400000000E-02 0.  1.
          1   -1    0    0  501    0  0.00000000000E+00 -0.00000000000E+00 -0.13387458572E+04  0.13387458572E+04  0.50400000000E-02 0. -1.
    8880022    1    1    2    0    0 -0.25659928369E+03 -0.38521780282E+02 -0.11080003659E+04  0.11482088590E+04  0.15294330000E+03 0.  0.
    8880022    1    1    2    0    0  0.25659928369E+03  0.38521780282E+02 -0.10297148024E+03  0.31831100940E+03  0.15294330000E+03 0.  0.
<mgrwt>
<rscale>  0 0.30119557E+03</rscale>
<asrwt>0</asrwt>
<pdfrwt beam="1">  1        1 0.20596089E+00 0.30119557E+03</pdfrwt>
<pdfrwt beam="2">  1       -1 0.19657541E-01 0.30119557E+03</pdfrwt>
<totfact> 0.19090547E+02</totfact>
</mgrwt>
</event>
<event>
 4    1  0.1678003E-008  0.2484364E+03  0.7818608E-02  0.1114297E+00
          1   -1    0    0  501    0  0.00000000000E+00  0.00000000000E+00  0.15374885595E+04  0.15374885595E+04  0.50400000000E-02 0. -1.
         -1   -1    0    0    0  501 -0.00000000000E+00 -0.00000000000E+00 -0.17690638939E+03  0.17690638946E+03  0.50400000000E-02 0.  1.
    8880022    1    1    2    0    0  0.19526845369E+03  0.14115146129E+02  0.14339810866E+04  0.14553427143E+04  0.15294330000E+03 0.  0.
    8880022    1    1    2    0    0 -0.19526845369E+03 -0.14115146129E+02 -0.73398916446E+02  0.25905223471E+03  0.15294330000E+03 0.  0.
<mgrwt>
<rscale>  0 0.24843643E+03</rscale>
<asrwt>0</asrwt>
<pdfrwt beam="1">  1        1 0.23653670E+00 0.24843643E+03</pdfrwt>
<pdfrwt beam="2">  1       -1 0.27216368E-01 0.24843643E+03</pdfrwt>
<totfact> 0.82964382E+01</totfact>
</mgrwt>
</event>
<event>
 4    1  0.1678003E-008  0.2628440E+03  0.7818608E-02  0.1105446E+00
          1   -1    0    0  501    0  0.00000000000E+00  0.00000000000E+00  0.12197104161E+04  0.12197104161E+04  0.50400000000E-02 0. -1.
         -1   -1    0    0    0  501 -0.00000000000E+00 -0.00000000000E+00 -0.21606314406E+03  0.21606314412E+03  0.50400000000E-02 0.  1.
    8880022    1    1    2    0    0  0.19100638106E+03  0.95978638489E+02  0.11184731603E+04  0.11489426444E+04  0.15294330000E+03 0.  0.
    8880022    1    1    2    0    0 -0.19100638106E+03 -0.95978638489E+02 -0.11482588830E+03  0.28683091586E+03  0.15294330000E+03 0.  1.
<mgrwt>
<rscale>  0 0.26284404E+03</rscale>
<asrwt>0</asrwt>
<pdfrwt beam="1">  1        1 0.18764776E+00 0.26284404E+03</pdfrwt>
<pdfrwt beam="2">  1       -1 0.33240483E-01 0.26284404E+03</pdfrwt>
<totfact> 0.96293778E+01</totfact>
</mgrwt>
</event>
<event>
 4    1  0.1678003E-008  0.3294671E+03  0.7818608E-02  0.1071373E+00
          1   -1    0    0  501    0  0.00000000000E+00  0.00000000000E+00  0.66064396880E+03  0.66064396882E+03  0.50400000000E-02 0. -1.
         -1   -1    0    0    0  501 -0.00000000000E+00 -0.00000000000E+00 -0.13004164431E+04  0.13004164432E+04  0.50400000000E-02 0.  1.
    8880022    1    1    2    0    0  0.29175887507E+03 -0.58029287523E+01  0.59660811978E+03  0.68153489769E+03  0.15294330000E+03 0.  0.
    8880022    1    1    2    0    0 -0.29175887507E+03  0.58029287523E+01 -0.12363805941E+04  0.12795255143E+04  0.15294330000E+03 0.  0.
<mgrwt>
<rscale>  0 0.32946710E+03</rscale>
<asrwt>0</asrwt>
<pdfrwt beam="1">  1        1 0.10163753E+00 0.32946710E+03</pdfrwt>
<pdfrwt beam="2">  1       -1 0.20006407E+00 0.32946710E+03</pdfrwt>
<totfact> 0.50908763E+00</totfact>
</mgrwt>
</event>
<event>
 4    1  0.1678003E-008  0.5335023E+03  0.7818608E-02  0.1005386E+00
         -1   -1    0    0    0  501 -0.00000000000E+00  0.00000000000E+00  0.94876464241E+03  0.94876464242E+03  0.50400000000E-02 0.  1.
          1   -1    0    0  501    0  0.00000000000E+00 -0.00000000000E+00 -0.67996592938E+03  0.67996592940E+03  0.50400000000E-02 0. -1.
    8880022    1    1    2    0    0 -0.50106048693E+03  0.10085357327E+03  0.74316597012E+03  0.91483351872E+03  0.15294330000E+03 0.  0.
    8880022    1    1    2    0    0  0.50106048693E+03 -0.10085357327E+03 -0.47436725710E+03  0.71389705310E+03  0.15294330000E+03 0.  0.
<mgrwt>
<rscale>  0 0.53350230E+03</rscale>
<asrwt>0</asrwt>
<pdfrwt beam="1">  1        1 0.10461014E+00 0.53350230E+03</pdfrwt>
<pdfrwt beam="2">  1       -1 0.14596379E+00 0.53350230E+03</pdfrwt>
<totfact> 0.11375330E+01</totfact>
</mgrwt>
</event>
<event>
 4    1  0.1678003E-008  0.3140654E+03  0.7818608E-02  0.1078413E+00
          1   -1    0    0  501    0  0.00000000000E+00  0.00000000000E+00  0.10691647999E+04  0.10691647999E+04  0.50400000000E-02 0. -1.
         -1   -1    0    0    0  501 -0.00000000000E+00 -0.00000000000E+00 -0.72569819157E+03  0.72569819159E+03  0.50400000000E-02 0.  1.
    8880022    1    1    2    0    0 -0.26837697952E+03  0.56738323517E+02  0.10101824139E+04  0.10578778771E+04  0.15294330000E+03 0.  0.
    8880022    1    1    2    0    0  0.26837697952E+03 -0.56738323517E+02 -0.66671580555E+03  0.73698511442E+03  0.15294330000E+03 0.  0.
<mgrwt>
<rscale>  0 0.31406543E+03</rscale>
<asrwt>0</asrwt>
<pdfrwt beam="1">  1        1 0.16448689E+00 0.31406543E+03</pdfrwt>
<pdfrwt beam="2">  1       -1 0.11164588E+00 0.31406543E+03</pdfrwt>
<totfact> 0.11177211E+01</totfact>
</mgrwt>
</event>
<event>
 4    1  0.1678003E-008  0.4588155E+03  0.7818608E-02  0.1025125E+00
         -1   -1    0    0    0  501 -0.00000000000E+00  0.00000000000E+00  0.40554802314E+03  0.40554802317E+03  0.50400000000E-02 0.  1.
          1   -1    0    0  501    0  0.00000000000E+00 -0.00000000000E+00 -0.22436064528E+04  0.22436064528E+04  0.50400000000E-02 0. -1.
    8880022    1    1    2    0    0 -0.43179585685E+03 -0.25929971647E+02 -0.20803145361E+04  0.21303098947E+04  0.15294330000E+03 0.  0.
    8880022    1    1    2    0    0  0.43179585685E+03  0.25929971647E+02  0.24225610641E+03  0.51884458128E+03  0.15294330000E+03 0.  1.
<mgrwt>
<rscale>  0 0.45881552E+03</rscale>
<asrwt>0</asrwt>
<pdfrwt beam="1">  1        1 0.34517022E+00 0.45881552E+03</pdfrwt>
<pdfrwt beam="2">  1       -1 0.62392005E-01 0.45881552E+03</pdfrwt>
<totfact> 0.59626551E+00</totfact>
</mgrwt>
</event>
<event>
 4    1  0.1678003E-008  0.2110242E+03  0.7818608E-02  0.1140757E+00
         -1   -1    0    0    0  501 -0.00000000000E+00  0.00000000000E+00  0.10752993150E+03  0.10752993162E+03  0.50400000000E-02 0.  1.
          1   -1    0    0  501    0  0.00000000000E+00 -0.00000000000E+00 -0.11792817145E+04  0.11792817145E+04  0.50400000000E-02 0. -1.
    8880022    1    1    2    0    0  0.14532873242E+03 -0.43731561744E+01 -0.17612675824E+02  0.21175793805E+03  0.15294330000E+03 0.  1.
    8880022    1    1    2    0    0 -0.14532873242E+03  0.43731561744E+01 -0.10541391072E+04  0.10750537081E+04  0.15294330000E+03 0.  0.
<mgrwt>
<rscale>  0 0.21102421E+03</rscale>
<asrwt>0</asrwt>
<pdfrwt beam="1">  1        1 0.18142795E+00 0.21102421E+03</pdfrwt>
<pdfrwt beam="2">  1       -1 0.16543067E-01 0.21102421E+03</pdfrwt>
<totfact> 0.33017821E+02</totfact>
</mgrwt>
</event>
<event>
 4    1  0.1678003E-008  0.5942944E+03  0.7818608E-02  0.9917315E-01
         -1   -1    0    0    0  501 -0.00000000000E+00  0.00000000000E+00  0.85601664408E+03  0.85601664410E+03  0.50400000000E-02 0.  1.
          1   -1    0    0  501    0  0.00000000000E+00 -0.00000000000E+00 -0.13444175127E+04  0.13444175127E+04  0.50400000000E-02 0. -1.
    8880022    1    1    2    0    0  0.23353465789E+03  0.52464817491E+03 -0.11601647437E+04  0.13035213959E+04  0.15294330000E+03 0.  0.
    8880022    1    1    2    0    0 -0.23353465789E+03 -0.52464817491E+03  0.67176387509E+03  0.89691276096E+03  0.15294330000E+03 0.  0.
<mgrwt>
<rscale>  0 0.59429437E+03</rscale>
<asrwt>0</asrwt>
<pdfrwt beam="1">  1        1 0.20683346E+00 0.59429437E+03</pdfrwt>
<pdfrwt beam="2">  1       -1 0.13169487E+00 0.59429437E+03</pdfrwt>
<totfact> 0.44230478E+00</totfact>
</mgrwt>
</event>
<event>
 4    1  0.1678003E-008  0.8679049E+03  0.7818608E-02  0.9466616E-01
          1   -1    0    0  501    0  0.00000000000E+00  0.00000000000E+00  0.95976861447E+03  0.95976861448E+03  0.50400000000E-02 0. -1.
         -1   -1    0    0    0  501 -0.00000000000E+00 -0.00000000000E+00 -0.30179728888E+04  0.30179728888E+04  0.50400000000E-02 0.  1.
    8880022    1    1    2    0    0  0.25132952544E+03  0.81651747757E+03  0.68172751177E+03  0.11036355263E+04  0.15294330000E+03 0.  0.
    8880022    1    1    2    0    0 -0.25132952544E+03 -0.81651747757E+03 -0.27399317861E+04  0.28741059770E+04  0.15294330000E+03 0.  0.
<mgrwt>
<rscale>  0 0.86790493E+03</rscale>
<asrwt>0</asrwt>
<pdfrwt beam="1">  1        1 0.14765671E+00 0.86790493E+03</pdfrwt>
<pdfrwt beam="2">  1       -1 0.46430352E+00 0.86790493E+03</pdfrwt>
<totfact> 0.44263417E-02</totfact>
</mgrwt>
</event>
<event>
 4    1  0.1678003E-008  0.3096305E+03  0.7818608E-02  0.1080523E+00
         -1   -1    0    0    0  501 -0.00000000000E+00  0.00000000000E+00  0.70869921983E+03  0.70869921985E+03  0.50400000000E-02 0.  1.
          1   -1    0    0  501    0  0.00000000000E+00 -0.00000000000E+00 -0.82389670257E+03  0.82389670259E+03  0.50400000000E-02 0. -1.
    8880022    1    1    2    0    0  0.12541123055E+03 -0.23822555099E+03  0.64297016722E+03  0.71363974024E+03  0.15294330000E+03 0.  0.
    8880022    1    1    2    0    0 -0.12541123055E+03  0.23822555099E+03 -0.75816764996E+03  0.81895618220E+03  0.15294330000E+03 0.  0.
<mgrwt>
<rscale>  0 0.30963049E+03</rscale>
<asrwt>0</asrwt>
<pdfrwt beam="1">  1        1 0.12675334E+00 0.30963049E+03</pdfrwt>
<pdfrwt beam="2">  1       -1 0.10903065E+00 0.30963049E+03</pdfrwt>
<totfact> 0.18327778E+01</totfact>
</mgrwt>
</event>
<event>
 4    1  0.1678003E-008  0.3572749E+03  0.7818608E-02  0.1059668E+00
         -1   -1    0    0    0  501 -0.00000000000E+00  0.00000000000E+00  0.23832805906E+03  0.23832805911E+03  0.50400000000E-02 0.  1.
          1   -1    0    0  501    0  0.00000000000E+00 -0.00000000000E+00 -0.93726765200E+03  0.93726765202E+03  0.50400000000E-02 0. -1.
    8880022    1    1    2    0    0 -0.12358251998E+03  0.29829691287E+03 -0.73427133330E+03  0.81657806203E+03  0.15294330000E+03 0.  0.
    8880022    1    1    2    0    0  0.12358251998E+03 -0.29829691287E+03  0.35331740357E+02  0.35901764910E+03  0.15294330000E+03 0.  0.
<mgrwt>
<rscale>  0 0.35727488E+03</rscale>
<asrwt>0</asrwt>
<pdfrwt beam="1">  1        1 0.14419502E+00 0.35727488E+03</pdfrwt>
<pdfrwt beam="2">  1       -1 0.36665856E-01 0.35727488E+03</pdfrwt>
<totfact> 0.12830894E+02</totfact>
</mgrwt>
</event>
<event>
 4    1  0.1678003E-008  0.4231806E+03  0.7818608E-02  0.1036036E+00
         -1   -1    0    0    0  501 -0.00000000000E+00  0.00000000000E+00  0.64739937437E+03  0.64739937439E+03  0.50400000000E-02 0.  1.
          1   -1    0    0  501    0  0.00000000000E+00 -0.00000000000E+00 -0.87152105328E+03  0.87152105330E+03  0.50400000000E-02 0. -1.
    8880022    1    1    2    0    0 -0.93210228012E+02 -0.38340840528E+03 -0.73952579529E+03  0.85204472110E+03  0.15294330000E+03 0. -1.
    8880022    1    1    2    0    0  0.93210228012E+02  0.38340840528E+03  0.51540411637E+03  0.66687570659E+03  0.15294330000E+03 0.  0.
<mgrwt>
<rscale>  0 0.42318058E+03</rscale>
<asrwt>0</asrwt>
<pdfrwt beam="1">  1        1 0.13408016E+00 0.42318058E+03</pdfrwt>
<pdfrwt beam="2">  1       -1 0.99599904E-01 0.42318058E+03</pdfrwt>
<totfact> 0.20007101E+01</totfact>
</mgrwt>
</event>
<event>
 4    1  0.1678003E-008  0.3215475E+03  0.7818608E-02  0.1074939E+00
         -1   -1    0    0    0  501 -0.00000000000E+00  0.00000000000E+00  0.26845441501E+03  0.26845441506E+03  0.50400000000E-02 0.  1.
          1   -1    0    0  501    0  0.00000000000E+00 -0.00000000000E+00 -0.96254398825E+03  0.96254398827E+03  0.50400000000E-02 0. -1.
    8880022    1    1    2    0    0  0.26724523250E+03  0.92634288898E+02  0.12966794072E+03  0.34670816783E+03  0.15294330000E+03 0.  0.
    8880022    1    1    2    0    0 -0.26724523250E+03 -0.92634288898E+02 -0.82375751396E+03  0.88429023550E+03  0.15294330000E+03 0.  0.
<mgrwt>
<rscale>  0 0.32154748E+03</rscale>
<asrwt>0</asrwt>
<pdfrwt beam="1">  1        1 0.14808369E+00 0.32154748E+03</pdfrwt>
<pdfrwt beam="2">  1       -1 0.41300680E-01 0.32154748E+03</pdfrwt>
<totfact> 0.99810162E+01</totfact>
</mgrwt>
</event>
<event>
 4    1  0.1678003E-008  0.4446868E+03  0.7818608E-02  0.1029318E+00
         -1   -1    0    0    0  501 -0.00000000000E+00  0.00000000000E+00  0.21302501555E+03  0.21302501561E+03  0.50400000000E-02 0.  1.
          1   -1    0    0  501    0  0.00000000000E+00 -0.00000000000E+00 -0.20675939052E+04  0.20675939052E+04  0.50400000000E-02 0. -1.
    8880022    1    1    2    0    0 -0.41743962933E+03 -0.99435332007E+01 -0.80813133522E+02  0.45197027950E+03  0.15294330000E+03 0.  0.
    8880022    1    1    2    0    0  0.41743962933E+03  0.99435332007E+01 -0.17737557562E+04  0.18286486414E+04  0.15294330000E+03 0.  0.
<mgrwt>
<rscale>  0 0.44468682E+03</rscale>
<asrwt>0</asrwt>
<pdfrwt beam="1">  1        1 0.31809136E+00 0.44468682E+03</pdfrwt>
<pdfrwt beam="2">  1       -1 0.32773081E-01 0.44468682E+03</pdfrwt>
<totfact> 0.25686940E+01</totfact>
</mgrwt>
</event>
<event>
 4    1  0.1678003E-008  0.8378902E+03  0.7818608E-02  0.9506736E-01
          1   -1    0    0  501    0  0.00000000000E+00  0.00000000000E+00  0.14418076567E+04  0.14418076567E+04  0.50400000000E-02 0. -1.
         -1   -1    0    0    0  501 -0.00000000000E+00 -0.00000000000E+00 -0.54729928023E+03  0.54729928025E+03  0.50400000000E-02 0.  1.
    8880022    1    1    2    0    0  0.21222542976E+03 -0.79600802563E+03  0.11694393977E+03  0.84601178949E+03  0.15294330000E+03 0.  0.
    8880022    1    1    2    0    0 -0.21222542976E+03  0.79600802563E+03  0.77756443668E+03  0.11430951474E+04  0.15294330000E+03 0.  0.
<mgrwt>
<rscale>  0 0.83789025E+03</rscale>
<asrwt>0</asrwt>
<pdfrwt beam="1">  1        1 0.22181656E+00 0.83789025E+03</pdfrwt>
<pdfrwt beam="2">  1       -1 0.84199891E-01 0.83789025E+03</pdfrwt>
<totfact> 0.10285580E+01</totfact>
</mgrwt>
</event>
<event>
 4    1  0.1678003E-008  0.5764485E+03  0.7818608E-02  0.9955510E-01
          1   -1    0    0  501    0  0.00000000000E+00  0.00000000000E+00  0.70982724463E+03  0.70982724465E+03  0.50400000000E-02 0. -1.
         -1   -1    0    0    0  501 -0.00000000000E+00 -0.00000000000E+00 -0.54151038277E+03  0.54151038280E+03  0.50400000000E-02 0.  1.
    8880022    1    1    2    0    0  0.32384362329E+03 -0.45169299036E+03 -0.14615801596E+03  0.59468905197E+03  0.15294330000E+03 0.  0.
    8880022    1    1    2    0    0 -0.32384362329E+03  0.45169299036E+03  0.31447487782E+03  0.65664857548E+03  0.15294330000E+03 0.  0.
<mgrwt>
<rscale>  0 0.57644853E+03</rscale>
<asrwt>0</asrwt>
<pdfrwt beam="1">  1        1 0.10920419E+00 0.57644853E+03</pdfrwt>
<pdfrwt beam="2">  1       -1 0.83309289E-01 0.57644853E+03</pdfrwt>
<totfact> 0.39790508E+01</totfact>
</mgrwt>
</event>
<event>
 4    1  0.1678003E-008  0.2574589E+03  0.7818608E-02  0.1108680E+00
         -1   -1    0    0    0  501 -0.00000000000E+00  0.00000000000E+00  0.39421400449E+03  0.39421400452E+03  0.50400000000E-02 0.  1.
          1   -1    0    0  501    0  0.00000000000E+00 -0.00000000000E+00 -0.41562358917E+03  0.41562358920E+03  0.50400000000E-02 0. -1.
    8880022    1    1    2    0    0 -0.11729899687E+03  0.17068802459E+03 -0.32315920977E+03  0.41317911888E+03  0.15294330000E+03 0.  0.
    8880022    1    1    2    0    0  0.11729899687E+03 -0.17068802459E+03  0.30174962509E+03  0.39665847484E+03  0.15294330000E+03 0.  1.
<mgrwt>
<rscale>  0 0.25745895E+03</rscale>
<asrwt>0</asrwt>
<pdfrwt beam="1">  1        1 0.63942091E-01 0.25745895E+03</pdfrwt>
<pdfrwt beam="2">  1       -1 0.60648308E-01 0.25745895E+03</pdfrwt>
<totfact> 0.16603488E+02</totfact>
</mgrwt>
</event>
<event>
 4    1  0.1678003E-008  0.7918748E+03  0.7818608E-02  0.9571853E-01
         -1   -1    0    0    0  501 -0.00000000000E+00  0.00000000000E+00  0.13270031380E+04  0.13270031380E+04  0.50400000000E-02 0.  1.
          1   -1    0    0  501    0  0.00000000000E+00 -0.00000000000E+00 -0.12302686736E+04  0.12302686736E+04  0.50400000000E-02 0. -1.
    8880022    1    1    2    0    0 -0.25320526982E+03  0.73454820120E+03  0.10518340256E+04  0.13165942575E+04  0.15294330000E+03 0.  0.
    8880022    1    1    2    0    0  0.25320526982E+03 -0.73454820120E+03 -0.95509956118E+03  0.12406775541E+04  0.15294330000E+03 0.  0.
<mgrwt>
<rscale>  0 0.79187475E+03</rscale>
<asrwt>0</asrwt>
<pdfrwt beam="1">  1        1 0.18927210E+00 0.79187475E+03</pdfrwt>
<pdfrwt beam="2">  1       -1 0.20415433E+00 0.79187475E+03</pdfrwt>
<totfact> 0.14877425E+00</totfact>
</mgrwt>
</event>
<event>
 4    1  0.1678003E-008  0.5712209E+03  0.7818608E-02  0.9966981E-01
          1   -1    0    0  501    0  0.00000000000E+00  0.00000000000E+00  0.12005777290E+04  0.12005777291E+04  0.50400000000E-02 0. -1.
         -1   -1    0    0    0  501 -0.00000000000E+00 -0.00000000000E+00 -0.15497454023E+04  0.15497454023E+04  0.50400000000E-02 0.  1.
    8880022    1    1    2    0    0 -0.48262114649E+03  0.26453438639E+03 -0.14233555718E+04  0.15336995630E+04  0.15294330000E+03 0.  0.
    8880022    1    1    2    0    0  0.48262114649E+03 -0.26453438639E+03  0.10741878986E+04  0.12166235684E+04  0.15294330000E+03 0.  0.
<mgrwt>
<rscale>  0 0.57122086E+03</rscale>
<asrwt>0</asrwt>
<pdfrwt beam="1">  1        1 0.18470426E+00 0.57122086E+03</pdfrwt>
<pdfrwt beam="2">  1       -1 0.23842237E+00 0.57122086E+03</pdfrwt>
<totfact> 0.97364394E-01</totfact>
</mgrwt>
</event>
<event>
 4    1  0.1678003E-008  0.9962374E+03  0.7818608E-02  0.9312681E-01
         -1   -1    0    0    0  501 -0.00000000000E+00  0.00000000000E+00  0.81604011202E+03  0.81604011203E+03  0.50400000000E-02 0.  1.
          1   -1    0    0  501    0  0.00000000000E+00 -0.00000000000E+00 -0.18957235844E+04  0.18957235844E+04  0.50400000000E-02 0. -1.
    8880022    1    1    2    0    0  0.30910612308E+03  0.93463934178E+03  0.27191966701E+03  0.10326806151E+04  0.15294330000E+03 0.  0.
    8880022    1    1    2    0    0 -0.30910612308E+03 -0.93463934178E+03 -0.13516031394E+04  0.16790830813E+04  0.15294330000E+03 0. -1.
<mgrwt>
<rscale>  0 0.99623740E+03</rscale>
<asrwt>0</asrwt>
<pdfrwt beam="1">  1        1 0.29164978E+00 0.99623740E+03</pdfrwt>
<pdfrwt beam="2">  1       -1 0.12554463E+00 0.99623740E+03</pdfrwt>
<totfact> 0.19614654E+00</totfact>
</mgrwt>
</event>
<event>
 4    1  0.1678003E-008  0.9338891E+03  0.7818608E-02  0.9384182E-01
         -1   -1    0    0    0  501 -0.00000000000E+00  0.00000000000E+00  0.72709387327E+03  0.72709387329E+03  0.50400000000E-02 0.  1.
          1   -1    0    0  501    0  0.00000000000E+00 -0.00000000000E+00 -0.20662860898E+04  0.20662860898E+04  0.50400000000E-02 0. -1.
    8880022    1    1    2    0    0  0.81266974535E+03 -0.43396448556E+03  0.23501270175E+03  0.96300566600E+03  0.15294330000E+03 0.  0.
    8880022    1    1    2    0    0 -0.81266974535E+03  0.43396448556E+03 -0.15742049183E+04  0.18303742971E+04  0.15294330000E+03 0.  0.
<mgrwt>
<rscale>  0 0.93388915E+03</rscale>
<asrwt>0</asrwt>
<pdfrwt beam="1">  1        1 0.31789016E+00 0.93388915E+03</pdfrwt>
<pdfrwt beam="2">  1       -1 0.11186060E+00 0.93388915E+03</pdfrwt>
<totfact> 0.20137561E+00</totfact>
</mgrwt>
</event>
<event>
 4    1  0.1678003E-008  0.5278255E+03  0.7818608E-02  0.1006761E+00
         -1   -1    0    0    0  501 -0.00000000000E+00  0.00000000000E+00  0.38689786216E+03  0.38689786219E+03  0.50400000000E-02 0.  1.
          1   -1    0    0  501    0  0.00000000000E+00 -0.00000000000E+00 -0.10128203394E+04  0.10128203394E+04  0.50400000000E-02 0. -1.
    8880022    1    1    2    0    0 -0.54213657230E+01 -0.50515214149E+03  0.63292868900E+02  0.53160673201E+03  0.15294330000E+03 0.  0.
    8880022    1    1    2    0    0  0.54213657230E+01  0.50515214149E+03 -0.68921534615E+03  0.86811146959E+03  0.15294330000E+03 0.  0.
<mgrwt>
<rscale>  0 0.52782547E+03</rscale>
<asrwt>0</asrwt>
<pdfrwt beam="1">  1        1 0.15581851E+00 0.52782547E+03</pdfrwt>
<pdfrwt beam="2">  1       -1 0.59522748E-01 0.52782547E+03</pdfrwt>
<totfact> 0.44553827E+01</totfact>
</mgrwt>
</event>
<event>
 4    1  0.1678003E-008  0.3863291E+03  0.7818608E-02  0.1048619E+00
         -1   -1    0    0    0  501 -0.00000000000E+00  0.00000000000E+00  0.13345706630E+04  0.13345706630E+04  0.50400000000E-02 0.  1.
          1   -1    0    0  501    0  0.00000000000E+00 -0.00000000000E+00 -0.32172839781E+03  0.32172839785E+03  0.50400000000E-02 0. -1.
    8880022    1    1    2    0    0 -0.33619316146E+03  0.11328133232E+03 -0.16248419712E+03  0.41910770620E+03  0.15294330000E+03 0.  0.
    8880022    1    1    2    0    0  0.33619316146E+03 -0.11328133232E+03  0.11753264623E+04  0.12371913547E+04  0.15294330000E+03 0.  0.
<mgrwt>
<rscale>  0 0.38632908E+03</rscale>
<asrwt>0</asrwt>
<pdfrwt beam="1">  1        1 0.49496677E-01 0.38632908E+03</pdfrwt>
<pdfrwt beam="2">  1       -1 0.20531856E+00 0.38632908E+03</pdfrwt>
<totfact> 0.12099080E+01</totfact>
</mgrwt>
</event>
<event>
 4    1  0.1678003E-008  0.7973020E+03  0.7818608E-02  0.9563931E-01
         -1   -1    0    0    0  501 -0.00000000000E+00  0.00000000000E+00  0.25320591636E+04  0.25320591637E+04  0.50400000000E-02 0.  1.
          1   -1    0    0  501    0  0.00000000000E+00 -0.00000000000E+00 -0.46372732178E+03  0.46372732181E+03  0.50400000000E-02 0. -1.
    8880022    1    1    2    0    0 -0.14849861484E+03 -0.76827535328E+03  0.19779953696E+02  0.79754733818E+03  0.15294330000E+03 0.  0.
    8880022    1    1    2    0    0  0.14849861484E+03  0.76827535328E+03  0.20485518882E+04  0.21982391473E+04  0.15294330000E+03 0.  0.
<mgrwt>
<rscale>  0 0.79730202E+03</rscale>
<asrwt>0</asrwt>
<pdfrwt beam="1">  1        1 0.71342666E-01 0.79730202E+03</pdfrwt>
<pdfrwt beam="2">  1       -1 0.38954756E+00 0.79730202E+03</pdfrwt>
<totfact> 0.43970549E-01</totfact>
</mgrwt>
</event>
<event>
 4    1  0.1678003E-008  0.2597746E+03  0.7818608E-02  0.1107279E+00
         -1   -1    0    0    0  501 -0.00000000000E+00  0.00000000000E+00  0.41761736413E+03  0.41761736416E+03  0.50400000000E-02 0.  1.
          1   -1    0    0  501    0  0.00000000000E+00 -0.00000000000E+00 -0.37185135302E+03  0.37185135305E+03  0.50400000000E-02 0. -1.
    8880022    1    1    2    0    0  0.20124510294E+03 -0.59930152923E+02  0.31970753087E+03  0.41194146793E+03  0.15294330000E+03 0.  0.
    8880022    1    1    2    0    0 -0.20124510294E+03  0.59930152923E+02 -0.27394151976E+03  0.37752724928E+03  0.15294330000E+03 0.  0.
<mgrwt>
<rscale>  0 0.25977465E+03</rscale>
<asrwt>0</asrwt>
<pdfrwt beam="1">  1        1 0.57207901E-01 0.25977465E+03</pdfrwt>
<pdfrwt beam="2">  1       -1 0.64248825E-01 0.25977465E+03</pdfrwt>
<totfact> 0.17116485E+02</totfact>
</mgrwt>
</event>
<event>
 4    1  0.1678003E-008  0.8042676E+03  0.7818608E-02  0.9553860E-01
         -1   -1    0    0    0  501 -0.00000000000E+00  0.00000000000E+00  0.10843864610E+04  0.10843864610E+04  0.50400000000E-02 0.  1.
          1   -1    0    0  501    0  0.00000000000E+00 -0.00000000000E+00 -0.17361720130E+04  0.17361720130E+04  0.50400000000E-02 0. -1.
    8880022    1    1    2    0    0 -0.77397332048E+03 -0.15626907661E+03  0.81671439850E+03  0.11462411556E+04  0.15294330000E+03 0.  0.
    8880022    1    1    2    0    0  0.77397332048E+03  0.15626907661E+03 -0.14684999505E+04  0.16743173184E+04  0.15294330000E+03 0.  0.
<mgrwt>
<rscale>  0 0.80426760E+03</rscale>
<asrwt>0</asrwt>
<pdfrwt beam="1">  1        1 0.26710339E+00 0.80426760E+03</pdfrwt>
<pdfrwt beam="2">  1       -1 0.16682869E+00 0.80426760E+03</pdfrwt>
<totfact> 0.12188877E+00</totfact>
</mgrwt>
</event>
<event>
 4    1  0.1678003E-008  0.4916455E+03  0.7818608E-02  0.1015983E+00
          1   -1    0    0  501    0  0.00000000000E+00  0.00000000000E+00  0.26269215256E+04  0.26269215256E+04  0.50400000000E-02 0. -1.
         -1   -1    0    0    0  501 -0.00000000000E+00 -0.00000000000E+00 -0.16974638112E+03  0.16974638119E+03  0.50400000000E-02 0.  1.
    8880022    1    1    2    0    0 -0.46620714900E+03  0.31217818050E+02  0.21748460027E+04  0.22297242982E+04  0.15294330000E+03 0.  0.
    8880022    1    1    2    0    0  0.46620714900E+03 -0.31217818050E+02  0.28232914184E+03  0.56694360856E+03  0.15294330000E+03 0.  0.
<mgrwt>
<rscale>  0 0.49164551E+03</rscale>
<asrwt>0</asrwt>
<pdfrwt beam="1">  1        1 0.40414173E+00 0.49164551E+03</pdfrwt>
<pdfrwt beam="2">  1       -1 0.26114831E-01 0.49164551E+03</pdfrwt>
<totfact> 0.15864257E+01</totfact>
</mgrwt>
</event>
<event>
 4    1  0.1678003E-008  0.5832104E+03  0.7818608E-02  0.9940865E-01
          1   -1    0    0  501    0  0.00000000000E+00  0.00000000000E+00  0.38101734902E+04  0.38101734902E+04  0.50400000000E-02 0. -1.
         -1   -1    0    0    0  501 -0.00000000000E+00 -0.00000000000E+00 -0.20541509146E+03  0.20541509152E+03  0.50400000000E-02 0.  1.
    8880022    1    1    2    0    0 -0.54077345924E+03  0.15590622942E+03  0.33121234934E+04  0.33630784075E+04  0.15294330000E+03 0. -1.
    8880022    1    1    2    0    0  0.54077345924E+03 -0.15590622942E+03  0.29263490532E+03  0.65251017418E+03  0.15294330000E+03 0.  0.
<mgrwt>
<rscale>  0 0.58321037E+03</rscale>
<asrwt>0</asrwt>
<pdfrwt beam="1">  1        1 0.58618050E+00 0.58321037E+03</pdfrwt>
<pdfrwt beam="2">  1       -1 0.31602324E-01 0.58321037E+03</pdfrwt>
<totfact> 0.14877932E+00</totfact>
</mgrwt>
</event>
<event>
 4    1  0.1678003E-008  0.5776146E+03  0.7818608E-02  0.9952969E-01
          1   -1    0    0  501    0  0.00000000000E+00  0.00000000000E+00  0.71569412482E+03  0.71569412484E+03  0.50400000000E-02 0. -1.
         -1   -1    0    0    0  501 -0.00000000000E+00 -0.00000000000E+00 -0.11496721959E+04  0.11496721960E+04  0.50400000000E-02 0.  1.
    8880022    1    1    2    0    0 -0.49926734462E+03  0.24693951827E+03  0.50215438527E+03  0.76537421354E+03  0.15294330000E+03 0.  0.
    8880022    1    1    2    0    0  0.49926734462E+03 -0.24693951827E+03 -0.93613245639E+03  0.10999921073E+04  0.15294330000E+03 0.  0.
<mgrwt>
<rscale>  0 0.57761463E+03</rscale>
<asrwt>0</asrwt>
<pdfrwt beam="1">  1        1 0.11010679E+00 0.57761463E+03</pdfrwt>
<pdfrwt beam="2">  1       -1 0.17687265E+00 0.57761463E+03</pdfrwt>
<totfact> 0.61435494E+00</totfact>
</mgrwt>
</event>
<event>
 4    1  0.1678003E-008  0.2146399E+03  0.7818608E-02  0.1137943E+00
         -1   -1    0    0    0  501 -0.00000000000E+00  0.00000000000E+00  0.46248170265E+03  0.46248170268E+03  0.50400000000E-02 0.  1.
          1   -1    0    0  501    0  0.00000000000E+00 -0.00000000000E+00 -0.58243407186E+03  0.58243407188E+03  0.50400000000E-02 0. -1.
    8880022    1    1    2    0    0 -0.14333242515E+03 -0.46200138910E+02 -0.53566171554E+03  0.57706478271E+03  0.15294330000E+03 0.  0.
    8880022    1    1    2    0    0  0.14333242515E+03  0.46200138910E+02  0.41570934633E+03  0.46785099185E+03  0.15294330000E+03 0.  1.
<mgrwt>
<rscale>  0 0.21463991E+03</rscale>
<asrwt>0</asrwt>
<pdfrwt beam="1">  1        1 0.89605242E-01 0.21463991E+03</pdfrwt>
<pdfrwt beam="2">  1       -1 0.71151031E-01 0.21463991E+03</pdfrwt>
<totfact> 0.78134700E+01</totfact>
</mgrwt>
</event>
<event>
 4    1  0.1678003E-008  0.1288695E+04  0.7818608E-02  0.9038579E-01
         -1   -1    0    0    0  501 -0.00000000000E+00  0.00000000000E+00  0.27867972773E+04  0.27867972773E+04  0.50400000000E-02 0.  1.
          1   -1    0    0  501    0  0.00000000000E+00 -0.00000000000E+00 -0.97222583458E+03  0.97222583459E+03  0.50400000000E-02 0. -1.
    8880022    1    1    2    0    0 -0.10420297543E+04 -0.74264152356E+03  0.20765873181E+04  0.24439617395E+04  0.15294330000E+03 0.  0.
    8880022    1    1    2    0    0  0.10420297543E+04  0.74264152356E+03 -0.26201587536E+03  0.13150613724E+04  0.15294330000E+03 0.  0.
<mgrwt>
<rscale>  0 0.12886947E+04</rscale>
<asrwt>0</asrwt>
<pdfrwt beam="1">  1        1 0.14957321E+00 0.12886947E+04</pdfrwt>
<pdfrwt beam="2">  1       -1 0.42873804E+00 0.12886947E+04</pdfrwt>
<totfact> 0.70730286E-02</totfact>
</mgrwt>
</event>
<event>
 4    1  0.1678003E-008  0.5276056E+03  0.7818608E-02  0.1006814E+00
         -1   -1    0    0    0  501 -0.00000000000E+00  0.00000000000E+00  0.19660537245E+04  0.19660537245E+04  0.50400000000E-02 0.  1.
          1   -1    0    0  501    0  0.00000000000E+00 -0.00000000000E+00 -0.40443060375E+03  0.40443060378E+03  0.50400000000E-02 0. -1.
    8880022    1    1    2    0    0  0.34442494190E+03 -0.36925261589E+03  0.17363183490E+04  0.18147090943E+04  0.15294330000E+03 0.  0.
    8880022    1    1    2    0    0 -0.34442494190E+03  0.36925261589E+03 -0.17469522822E+03  0.55577523399E+03  0.15294330000E+03 0.  0.
<mgrwt>
<rscale>  0 0.52760562E+03</rscale>
<asrwt>0</asrwt>
<pdfrwt beam="1">  1        1 0.62220092E-01 0.52760562E+03</pdfrwt>
<pdfrwt beam="2">  1       -1 0.30246981E+00 0.52760562E+03</pdfrwt>
<totfact> 0.20695350E+00</totfact>
</mgrwt>
</event>
<event>
 4    1  0.1678003E-008  0.6097673E+03  0.7818608E-02  0.9885347E-01
          1   -1    0    0  501    0  0.00000000000E+00  0.00000000000E+00  0.23320235787E+04  0.23320235787E+04  0.50400000000E-02 0. -1.
         -1   -1    0    0    0  501 -0.00000000000E+00 -0.00000000000E+00 -0.39916792234E+03  0.39916792237E+03  0.50400000000E-02 0.  1.
    8880022    1    1    2    0    0  0.57564532210E+03 -0.13060231297E+03 -0.91861228462E+02  0.61664790547E+03  0.15294330000E+03 0.  0.
    8880022    1    1    2    0    0 -0.57564532210E+03  0.13060231297E+03  0.20247168848E+04  0.21145435956E+04  0.15294330000E+03 0.  0.
<mgrwt>
<rscale>  0 0.60976729E+03</rscale>
<asrwt>0</asrwt>
<pdfrwt beam="1">  1        1 0.35877285E+00 0.60976729E+03</pdfrwt>
<pdfrwt beam="2">  1       -1 0.61410451E-01 0.60976729E+03</pdfrwt>
<totfact> 0.51657719E+00</totfact>
</mgrwt>
</event>
<event>
 4    1  0.1678003E-008  0.6163482E+03  0.7818608E-02  0.9872057E-01
          1   -1    0    0  501    0  0.00000000000E+00  0.00000000000E+00  0.24746796245E+04  0.24746796245E+04  0.50400000000E-02 0. -1.
         -1   -1    0    0    0  501 -0.00000000000E+00 -0.00000000000E+00 -0.27914028325E+03  0.27914028330E+03  0.50400000000E-02 0.  1.
    8880022    1    1    2    0    0 -0.59573874039E+03  0.39860176213E+02  0.17404295973E+03  0.64044990850E+03  0.15294330000E+03 0.  0.
    8880022    1    1    2    0    0  0.59573874039E+03 -0.39860176213E+02  0.20214963815E+04  0.21133699993E+04  0.15294330000E+03 0.  0.
<mgrwt>
<rscale>  0 0.61634822E+03</rscale>
<asrwt>0</asrwt>
<pdfrwt beam="1">  1        1 0.38071995E+00 0.61634822E+03</pdfrwt>
<pdfrwt beam="2">  1       -1 0.42944658E-01 0.61634822E+03</pdfrwt>
<totfact> 0.81524970E+00</totfact>
</mgrwt>
</event>
<event>
 4    1  0.1678003E-008  0.4265673E+03  0.7818608E-02  0.1034950E+00
          1   -1    0    0  501    0  0.00000000000E+00  0.00000000000E+00  0.39333823953E+03  0.39333823956E+03  0.50400000000E-02 0. -1.
         -1   -1    0    0    0  501 -0.00000000000E+00 -0.00000000000E+00 -0.53096635211E+03  0.53096635214E+03  0.50400000000E-02 0.  1.
    8880022    1    1    2    0    0  0.13838371702E+03  0.37338715191E+03  0.97015332145E+02  0.43746045082E+03  0.15294330000E+03 0.  0.
    8880022    1    1    2    0    0 -0.13838371702E+03 -0.37338715191E+03 -0.23464344473E+03  0.48684414088E+03  0.15294330000E+03 0.  0.
<mgrwt>
<rscale>  0 0.42656731E+03</rscale>
<asrwt>0</asrwt>
<pdfrwt beam="1">  1        1 0.60513576E-01 0.42656731E+03</pdfrwt>
<pdfrwt beam="2">  1       -1 0.81687131E-01 0.42656731E+03</pdfrwt>
<totfact> 0.95731401E+01</totfact>
</mgrwt>
</event>
<event>
 4    1  0.1678003E-008  0.2642355E+03  0.7818608E-02  0.1104625E+00
         -1   -1    0    0    0  501 -0.00000000000E+00  0.00000000000E+00  0.28770815117E+03  0.28770815122E+03  0.50400000000E-02 0.  1.
          1   -1    0    0  501    0  0.00000000000E+00 -0.00000000000E+00 -0.36003419938E+04  0.36003419938E+04  0.50400000000E-02 0. -1.
    8880022    1    1    2    0    0 -0.78612314398E+01 -0.21532986922E+03 -0.35336814512E+04  0.35435469523E+04  0.15294330000E+03 0. -1.
    8880022    1    1    2    0    0  0.78612314398E+01  0.21532986922E+03  0.22104760857E+03  0.34450319274E+03  0.15294330000E+03 0.  0.
<mgrwt>
<rscale>  0 0.26423551E+03</rscale>
<asrwt>0</asrwt>
<pdfrwt beam="1">  1        1 0.55389874E+00 0.26423551E+03</pdfrwt>
<pdfrwt beam="2">  1       -1 0.44262795E-01 0.26423551E+03</pdfrwt>
<totfact> 0.13786928E+00</totfact>
</mgrwt>
</event>
<event>
 4    1  0.1678003E-008  0.4249408E+03  0.7818608E-02  0.1035470E+00
         -1   -1    0    0    0  501 -0.00000000000E+00  0.00000000000E+00  0.13921709302E+04  0.13921709302E+04  0.50400000000E-02 0.  1.
          1   -1    0    0  501    0  0.00000000000E+00 -0.00000000000E+00 -0.11166044639E+04  0.11166044639E+04  0.50400000000E-02 0. -1.
    8880022    1    1    2    0    0  0.13421929529E+03  0.37305254899E+03  0.13170663072E+04  0.13839213612E+04  0.15294330000E+03 0.  1.
    8880022    1    1    2    0    0 -0.13421929529E+03 -0.37305254899E+03 -0.10414998409E+04  0.11248540328E+04  0.15294330000E+03 0.  0.
<mgrwt>
<rscale>  0 0.42494079E+03</rscale>
<asrwt>0</asrwt>
<pdfrwt beam="1">  1        1 0.17178530E+00 0.42494079E+03</pdfrwt>
<pdfrwt beam="2">  1       -1 0.21418014E+00 0.42494079E+03</pdfrwt>
<totfact> 0.16864133E+00</totfact>
</mgrwt>
</event>
<event>
 4    1  0.1678003E-008  0.6931933E+03  0.7818608E-02  0.9728944E-01
          1   -1    0    0  501    0  0.00000000000E+00  0.00000000000E+00  0.21862777148E+04  0.21862777148E+04  0.50400000000E-02 0. -1.
         -1   -1    0    0    0  501 -0.00000000000E+00 -0.00000000000E+00 -0.33368491374E+03  0.33368491378E+03  0.50400000000E-02 0.  1.
    8880022    1    1    2    0    0 -0.10604453720E+03  0.66774239804E+03  0.19017012609E+03  0.71880573445E+03  0.15294330000E+03 0.  0.
    8880022    1    1    2    0    0  0.10604453720E+03 -0.66774239804E+03  0.16624226750E+04  0.18011568941E+04  0.15294330000E+03 0.  0.
<mgrwt>
<rscale>  0 0.69319334E+03</rscale>
<asrwt>0</asrwt>
<pdfrwt beam="1">  1        1 0.33635042E+00 0.69319334E+03</pdfrwt>
<pdfrwt beam="2">  1       -1 0.51336141E-01 0.69319334E+03</pdfrwt>
<totfact> 0.90027264E+00</totfact>
</mgrwt>
</event>
<event>
 4    1  0.1678003E-008  0.3617995E+03  0.7818608E-02  0.1057874E+00
         -1   -1    0    0    0  501 -0.00000000000E+00  0.00000000000E+00  0.79741968026E+02  0.79741968185E+02  0.50400000000E-02 0.  1.
          1   -1    0    0  501    0  0.00000000000E+00 -0.00000000000E+00 -0.22086145241E+04  0.22086145241E+04  0.50400000000E-02 0. -1.
    8880022    1    1    2    0    0  0.20214783906E+03 -0.25815393366E+03 -0.48466390783E+03  0.60481233360E+03  0.15294330000E+03 0.  0.
    8880022    1    1    2    0    0 -0.20214783906E+03  0.25815393366E+03 -0.16442086483E+04  0.16835441587E+04  0.15294330000E+03 0.  0.
<mgrwt>
<rscale>  0 0.36179947E+03</rscale>
<asrwt>0</asrwt>
<pdfrwt beam="1">  1        1 0.33978680E+00 0.36179947E+03</pdfrwt>
<pdfrwt beam="2">  1       -1 0.12267997E-01 0.36179947E+03</pdfrwt>
<totfact> 0.10713912E+02</totfact>
</mgrwt>
</event>
<event>
 4    1  0.1678003E-008  0.2784640E+03  0.7818608E-02  0.1096531E+00
          1   -1    0    0  501    0  0.00000000000E+00  0.00000000000E+00  0.89955675440E+03  0.89955675441E+03  0.50400000000E-02 0. -1.
         -1   -1    0    0    0  501 -0.00000000000E+00 -0.00000000000E+00 -0.15611509228E+03  0.15611509236E+03  0.50400000000E-02 0.  1.
    8880022    1    1    2    0    0 -0.21644830166E+03  0.85443997663E+02  0.72495326108E+03  0.77659476420E+03  0.15294330000E+03 0.  0.
    8880022    1    1    2    0    0  0.21644830166E+03 -0.85443997663E+02  0.18488401041E+02  0.27907708257E+03  0.15294330000E+03 0.  0.
<mgrwt>
<rscale>  0 0.27846400E+03</rscale>
<asrwt>0</asrwt>
<pdfrwt beam="1">  1        1 0.13839334E+00 0.27846400E+03</pdfrwt>
<pdfrwt beam="2">  1       -1 0.24017707E-01 0.27846400E+03</pdfrwt>
<totfact> 0.28663111E+02</totfact>
</mgrwt>
</event>
<event>
 4    1  0.1678003E-008  0.4772139E+03  0.7818608E-02  0.1019904E+00
          1   -1    0    0  501    0  0.00000000000E+00  0.00000000000E+00  0.13366470337E+04  0.13366470337E+04  0.50400000000E-02 0. -1.
         -1   -1    0    0    0  501 -0.00000000000E+00 -0.00000000000E+00 -0.92245222918E+03  0.92245222920E+03  0.50400000000E-02 0.  1.
    8880022    1    1    2    0    0 -0.32380790595E+03 -0.31542012444E+03  0.12270129223E+04  0.13165461554E+04  0.15294330000E+03 0.  0.
    8880022    1    1    2    0    0  0.32380790595E+03  0.31542012444E+03 -0.81281811777E+03  0.94255310749E+03  0.15294330000E+03 0.  0.
<mgrwt>
<rscale>  0 0.47721386E+03</rscale>
<asrwt>0</asrwt>
<pdfrwt beam="1">  1        1 0.20563801E+00 0.47721386E+03</pdfrwt>
<pdfrwt beam="2">  1       -1 0.14191573E+00 0.47721386E+03</pdfrwt>
<totfact> 0.38064862E+00</totfact>
</mgrwt>
</event>
<event>
 4    1  0.1678003E-008  0.2540504E+03  0.7818608E-02  0.1110772E+00
         -1   -1    0    0    0  501 -0.00000000000E+00  0.00000000000E+00  0.33463388937E+03  0.33463388941E+03  0.50400000000E-02 0.  1.
          1   -1    0    0  501    0  0.00000000000E+00 -0.00000000000E+00 -0.15540559686E+04  0.15540559686E+04  0.50400000000E-02 0. -1.
    8880022    1    1    2    0    0 -0.19507684647E+03 -0.55632297373E+02 -0.14935145093E+04  0.15149677129E+04  0.15294330000E+03 0.  0.
    8880022    1    1    2    0    0  0.19507684647E+03  0.55632297373E+02  0.27409243007E+03  0.37372214515E+03  0.15294330000E+03 0.  0.
<mgrwt>
<rscale>  0 0.25405035E+03</rscale>
<asrwt>0</asrwt>
<pdfrwt beam="1">  1        1 0.23908553E+00 0.25405035E+03</pdfrwt>
<pdfrwt beam="2">  1       -1 0.51482138E-01 0.25405035E+03</pdfrwt>
<totfact> 0.26224513E+01</totfact>
</mgrwt>
</event>
<event>
 4    1  0.1678003E-008  0.3063698E+03  0.7818608E-02  0.1082099E+00
          1   -1    0    0  501    0  0.00000000000E+00  0.00000000000E+00  0.57754134160E+03  0.57754134162E+03  0.50400000000E-02 0. -1.
         -1   -1    0    0    0  501 -0.00000000000E+00 -0.00000000000E+00 -0.43788077150E+03  0.43788077153E+03  0.50400000000E-02 0.  1.
    8880022    1    1    2    0    0 -0.18131454135E+03  0.19389639569E+03 -0.33278398149E+03  0.45233572324E+03  0.15294330000E+03 0.  0.
    8880022    1    1    2    0    0  0.18131454135E+03 -0.19389639569E+03  0.47244455159E+03  0.56308638991E+03  0.15294330000E+03 0. -1.
<mgrwt>
<rscale>  0 0.30636976E+03</rscale>
<asrwt>0</asrwt>
<pdfrwt beam="1">  1        1 0.88852514E-01 0.30636976E+03</pdfrwt>
<pdfrwt beam="2">  1       -1 0.67366273E-01 0.30636976E+03</pdfrwt>
<totfact> 0.86446334E+01</totfact>
</mgrwt>
</event>
<event>
 4    1  0.1678003E-008  0.3174218E+03  0.7818608E-02  0.1076842E+00
         -1   -1    0    0    0  501 -0.00000000000E+00  0.00000000000E+00  0.24196045292E+03  0.24196045297E+03  0.50400000000E-02 0.  1.
          1   -1    0    0  501    0  0.00000000000E+00 -0.00000000000E+00 -0.17757121010E+04  0.17757121010E+04  0.50400000000E-02 0. -1.
    8880022    1    1    2    0    0 -0.27588608751E+03 -0.35380999013E+02  0.11577958465E+03  0.33787795667E+03  0.15294330000E+03 0.  0.
    8880022    1    1    2    0    0  0.27588608751E+03  0.35380999013E+02 -0.16495312327E+04  0.16797945973E+04  0.15294330000E+03 0. -1.
<mgrwt>
<rscale>  0 0.31742180E+03</rscale>
<asrwt>0</asrwt>
<pdfrwt beam="1">  1        1 0.27318647E+00 0.31742180E+03</pdfrwt>
<pdfrwt beam="2">  1       -1 0.37224686E-01 0.31742180E+03</pdfrwt>
<totfact> 0.33034923E+01</totfact>
</mgrwt>
</event>
<event>
 4    1  0.1678003E-008  0.3306889E+03  0.7818608E-02  0.1070832E+00
         -1   -1    0    0    0  501 -0.00000000000E+00  0.00000000000E+00  0.17942327495E+03  0.17942327502E+03  0.50400000000E-02 0.  1.
          1   -1    0    0  501    0  0.00000000000E+00 -0.00000000000E+00 -0.21567489885E+04  0.21567489886E+04  0.50400000000E-02 0. -1.
    8880022    1    1    2    0    0 -0.12300105835E+03 -0.26614704673E+03 -0.19780306498E+04  0.20054825891E+04  0.15294330000E+03 0.  0.
    8880022    1    1    2    0    0  0.12300105835E+03  0.26614704673E+03  0.70493616701E+00  0.33068967445E+03  0.15294330000E+03 0.  0.
<mgrwt>
<rscale>  0 0.33068892E+03</rscale>
<asrwt>0</asrwt>
<pdfrwt beam="1">  1        1 0.33180752E+00 0.33068892E+03</pdfrwt>
<pdfrwt beam="2">  1       -1 0.27603582E-01 0.33068892E+03</pdfrwt>
<totfact> 0.31100563E+01</totfact>
</mgrwt>
</event>
<event>
 4    1  0.1678003E-008  0.1105852E+04  0.7818608E-02  0.9199507E-01
         -1   -1    0    0    0  501 -0.00000000000E+00  0.00000000000E+00  0.83258997695E+03  0.83258997696E+03  0.50400000000E-02 0.  1.
          1   -1    0    0  501    0  0.00000000000E+00 -0.00000000000E+00 -0.15209692161E+04  0.15209692161E+04  0.50400000000E-02 0. -1.
    8880022    1    1    2    0    0 -0.32162775259E+03  0.10469350333E+04 -0.56213000940E+03  0.12405237506E+04  0.15294330000E+03 0.  0.
    8880022    1    1    2    0    0  0.32162775259E+03 -0.10469350333E+04 -0.12624922976E+03  0.11130354425E+04  0.15294330000E+03 0.  0.
<mgrwt>
<rscale>  0 0.11058522E+04</rscale>
<asrwt>0</asrwt>
<pdfrwt beam="1">  1        1 0.23399526E+00 0.11058522E+04</pdfrwt>
<pdfrwt beam="2">  1       -1 0.12809077E+00 0.11058522E+04</pdfrwt>
<totfact> 0.33058603E+00</totfact>
</mgrwt>
</event>
<event>
 4    1  0.1678003E-008  0.2064567E+03  0.7818608E-02  0.1144403E+00
          1   -1    0    0  501    0  0.00000000000E+00  0.00000000000E+00  0.25821547358E+04  0.25821547359E+04  0.50400000000E-02 0. -1.
         -1   -1    0    0    0  501 -0.00000000000E+00 -0.00000000000E+00 -0.12446275702E+03  0.12446275712E+03  0.50400000000E-02 0.  1.
    8880022    1    1    2    0    0 -0.18324017981E+02 -0.13746619770E+03  0.24892201751E+04  0.24977672947E+04  0.15294330000E+03 0.  0.
    8880022    1    1    2    0    0  0.18324017981E+02  0.13746619770E+03 -0.31528196299E+02  0.20885019828E+03  0.15294330000E+03 0.  0.
<mgrwt>
<rscale>  0 0.20645672E+03</rscale>
<asrwt>0</asrwt>
<pdfrwt beam="1">  1        1 0.39725453E+00 0.20645672E+03</pdfrwt>
<pdfrwt beam="2">  1       -1 0.19148119E-01 0.20645672E+03</pdfrwt>
<totfact> 0.31404702E+01</totfact>
</mgrwt>
</event>
<event>
 4    1  0.1678003E-008  0.1119921E+04  0.7818608E-02  0.9185990E-01
          1   -1    0    0  501    0  0.00000000000E+00  0.00000000000E+00  0.27778733745E+04  0.27778733745E+04  0.50400000000E-02 0. -1.
         -1   -1    0    0    0  501 -0.00000000000E+00 -0.00000000000E+00 -0.57567583598E+03  0.57567583600E+03  0.50400000000E-02 0.  1.
    8880022    1    1    2    0    0 -0.45293675557E+03 -0.10127583368E+04  0.18798451911E+04  0.21881592147E+04  0.15294330000E+03 0.  0.
    8880022    1    1    2    0    0  0.45293675557E+03  0.10127583368E+04  0.32235234743E+03  0.11653899958E+04  0.15294330000E+03 0.  0.
<mgrwt>
<rscale>  0 0.11199209E+04</rscale>
<asrwt>0</asrwt>
<pdfrwt beam="1">  1        1 0.42736513E+00 0.11199209E+04</pdfrwt>
<pdfrwt beam="2">  1       -1 0.88565513E-01 0.11199209E+04</pdfrwt>
<totfact> 0.10872791E+00</totfact>
</mgrwt>
</event>
<event>
 4    1  0.1678003E-008  0.6236258E+03  0.7818608E-02  0.9857567E-01
          1   -1    0    0  501    0  0.00000000000E+00  0.00000000000E+00  0.24971762419E+04  0.24971762419E+04  0.50400000000E-02 0. -1.
         -1   -1    0    0    0  501 -0.00000000000E+00 -0.00000000000E+00 -0.25391515180E+03  0.25391515185E+03  0.50400000000E-02 0.  1.
    8880022    1    1    2    0    0  0.19791053310E+02 -0.60425635369E+03  0.26630287507E+03  0.67810493365E+03  0.15294330000E+03 0.  0.
    8880022    1    1    2    0    0 -0.19791053310E+02  0.60425635369E+03  0.19769582150E+04  0.20729864601E+04  0.15294330000E+03 0.  0.
<mgrwt>
<rscale>  0 0.62362575E+03</rscale>
<asrwt>0</asrwt>
<pdfrwt beam="1">  1        1 0.38418094E+00 0.62362575E+03</pdfrwt>
<pdfrwt beam="2">  1       -1 0.39063872E-01 0.62362575E+03</pdfrwt>
<totfact> 0.93379181E+00</totfact>
</mgrwt>
</event>
<event>
 4    1  0.1678003E-008  0.4810014E+03  0.7818608E-02  0.1018860E+00
         -1   -1    0    0    0  501 -0.00000000000E+00  0.00000000000E+00  0.36852230477E+03  0.36852230480E+03  0.50400000000E-02 0.  1.
          1   -1    0    0  501    0  0.00000000000E+00 -0.00000000000E+00 -0.95019522203E+03  0.95019522204E+03  0.50400000000E-02 0. -1.
    8880022    1    1    2    0    0 -0.25643680557E+03 -0.37710849450E+03  0.93226431355E+02  0.48995252055E+03  0.15294330000E+03 0.  0.
    8880022    1    1    2    0    0  0.25643680557E+03  0.37710849450E+03 -0.67489934862E+03  0.82876500629E+03  0.15294330000E+03 0.  0.
<mgrwt>
<rscale>  0 0.48100136E+03</rscale>
<asrwt>0</asrwt>
<pdfrwt beam="1">  1        1 0.14618388E+00 0.48100136E+03</pdfrwt>
<pdfrwt beam="2">  1       -1 0.56695740E-01 0.48100136E+03</pdfrwt>
<totfact> 0.55116725E+01</totfact>
</mgrwt>
</event>
<event>
 4    1  0.1678003E-008  0.6073153E+03  0.7818608E-02  0.9890344E-01
          1   -1    0    0  501    0  0.00000000000E+00  0.00000000000E+00  0.16438636639E+04  0.16438636640E+04  0.50400000000E-02 0. -1.
         -1   -1    0    0    0  501 -0.00000000000E+00 -0.00000000000E+00 -0.27879359605E+03  0.27879359610E+03  0.50400000000E-02 0.  1.
    8880022    1    1    2    0    0  0.35580874689E+03  0.46780376664E+03  0.11072802415E+04  0.12628940631E+04  0.15294330000E+03 0.  0.
    8880022    1    1    2    0    0 -0.35580874689E+03 -0.46780376664E+03  0.25778982643E+03  0.65976319697E+03  0.15294330000E+03 0.  0.
<mgrwt>
<rscale>  0 0.60731531E+03</rscale>
<asrwt>0</asrwt>
<pdfrwt beam="1">  1        1 0.25290210E+00 0.60731531E+03</pdfrwt>
<pdfrwt beam="2">  1       -1 0.42891323E-01 0.60731531E+03</pdfrwt>
<totfact> 0.29403111E+01</totfact>
</mgrwt>
</event>
<event>
 4    1  0.1678003E-008  0.2513221E+03  0.7818608E-02  0.1112472E+00
          1   -1    0    0  501    0  0.00000000000E+00  0.00000000000E+00  0.11188059793E+04  0.11188059793E+04  0.50400000000E-02 0. -1.
         -1   -1    0    0    0  501 -0.00000000000E+00 -0.00000000000E+00 -0.98811737648E+03  0.98811737650E+03  0.50400000000E-02 0.  1.
    8880022    1    1    2    0    0  0.13130697562E+03 -0.15009876635E+03  0.10882689004E+04  0.11169118202E+04  0.15294330000E+03 0. -1.
    8880022    1    1    2    0    0 -0.13130697562E+03  0.15009876635E+03 -0.95758029753E+03  0.99001153566E+03  0.15294330000E+03 0.  0.
<mgrwt>
<rscale>  0 0.25132213E+03</rscale>
<asrwt>0</asrwt>
<pdfrwt beam="1">  1        1 0.17212400E+00 0.25132213E+03</pdfrwt>
<pdfrwt beam="2">  1       -1 0.15201806E+00 0.25132213E+03</pdfrwt>
<totfact> 0.49208106E+00</totfact>
</mgrwt>
</event>
<event>
 4    1  0.1678003E-008  0.4494580E+03  0.7818608E-02  0.1027884E+00
         -1   -1    0    0    0  501 -0.00000000000E+00  0.00000000000E+00  0.55852141958E+03  0.55852141961E+03  0.50400000000E-02 0.  1.
          1   -1    0    0  501    0  0.00000000000E+00 -0.00000000000E+00 -0.98609746433E+03  0.98609746434E+03  0.50400000000E-02 0. -1.
    8880022    1    1    2    0    0  0.21206289491E+03  0.36558193997E+03  0.40077287870E+03  0.60218882383E+03  0.15294330000E+03 0.  0.
    8880022    1    1    2    0    0 -0.21206289491E+03 -0.36558193997E+03 -0.82834892344E+03  0.94243006012E+03  0.15294330000E+03 0.  0.
<mgrwt>
<rscale>  0 0.44945798E+03</rscale>
<asrwt>0</asrwt>
<pdfrwt beam="1">  1        1 0.15170730E+00 0.44945798E+03</pdfrwt>
<pdfrwt beam="2">  1       -1 0.85926372E-01 0.44945798E+03</pdfrwt>
<totfact> 0.22349895E+01</totfact>
</mgrwt>
</event>
<event>
 4    1  0.1678003E-008  0.4780865E+03  0.7818608E-02  0.1019662E+00
         -1   -1    0    0    0  501 -0.00000000000E+00  0.00000000000E+00  0.28060051232E+03  0.28060051237E+03  0.50400000000E-02 0.  1.
          1   -1    0    0  501    0  0.00000000000E+00 -0.00000000000E+00 -0.11642154741E+04  0.11642154741E+04  0.50400000000E-02 0. -1.
    8880022    1    1    2    0    0  0.22475245992E+03  0.39327012866E+03 -0.83770642039E+03  0.96453033240E+03  0.15294330000E+03 0.  0.
    8880022    1    1    2    0    0 -0.22475245992E+03 -0.39327012866E+03 -0.45908541408E+02  0.48028565410E+03  0.15294330000E+03 0.  0.
<mgrwt>
<rscale>  0 0.47808651E+03</rscale>
<asrwt>0</asrwt>
<pdfrwt beam="1">  1        1 0.17911007E+00 0.47808651E+03</pdfrwt>
<pdfrwt beam="2">  1       -1 0.43169310E-01 0.47808651E+03</pdfrwt>
<totfact> 0.63552569E+01</totfact>
</mgrwt>
</event>
<event>
 4    1  0.1678003E-008  0.5791011E+03  0.7818608E-02  0.9949739E-01
          1   -1    0    0  501    0  0.00000000000E+00  0.00000000000E+00  0.14580332229E+04  0.14580332229E+04  0.50400000000E-02 0. -1.
         -1   -1    0    0    0  501 -0.00000000000E+00 -0.00000000000E+00 -0.28140303505E+03  0.28140303509E+03  0.50400000000E-02 0.  1.
    8880022    1    1    2    0    0  0.44843378848E+03 -0.33297675789E+03  0.96000296864E+03  0.11211439411E+04  0.15294330000E+03 0.  0.
    8880022    1    1    2    0    0 -0.44843378848E+03  0.33297675789E+03  0.21662721917E+03  0.61829231682E+03  0.15294330000E+03 0.  0.
<mgrwt>
<rscale>  0 0.57910106E+03</rscale>
<asrwt>0</asrwt>
<pdfrwt beam="1">  1        1 0.22431281E+00 0.57910106E+03</pdfrwt>
<pdfrwt beam="2">  1       -1 0.43292774E-01 0.57910106E+03</pdfrwt>
<totfact> 0.38781493E+01</totfact>
</mgrwt>
</event>
<event>
 4    1  0.1678003E-008  0.9419871E+03  0.7818608E-02  0.9374566E-01
         -1   -1    0    0    0  501 -0.00000000000E+00  0.00000000000E+00  0.48930332059E+03  0.48930332062E+03  0.50400000000E-02 0.  1.
          1   -1    0    0  501    0  0.00000000000E+00 -0.00000000000E+00 -0.24737907305E+04  0.24737907305E+04  0.50400000000E-02 0. -1.
    8880022    1    1    2    0    0  0.68896166647E+03  0.62392303057E+03 -0.22680664017E+03  0.96890713228E+03  0.15294330000E+03 0.  0.
    8880022    1    1    2    0    0 -0.68896166647E+03 -0.62392303057E+03 -0.17576807697E+04  0.19941869188E+04  0.15294330000E+03 0.  0.
<mgrwt>
<rscale>  0 0.94198714E+03</rscale>
<asrwt>0</asrwt>
<pdfrwt beam="1">  1        1 0.38058318E+00 0.94198714E+03</pdfrwt>
<pdfrwt beam="2">  1       -1 0.75277435E-01 0.94198714E+03</pdfrwt>
<totfact> 0.25746140E+00</totfact>
</mgrwt>
</event>
<event>
 4    1  0.1678003E-008  0.6873989E+03  0.7818608E-02  0.9739028E-01
          1   -1    0    0  501    0  0.00000000000E+00  0.00000000000E+00  0.10601250425E+04  0.10601250426E+04  0.50400000000E-02 0. -1.
         -1   -1    0    0    0  501 -0.00000000000E+00 -0.00000000000E+00 -0.51377578868E+03  0.51377578870E+03  0.50400000000E-02 0.  1.
    8880022    1    1    2    0    0  0.55406996628E+03 -0.37700409141E+03 -0.13241923036E+02  0.68752644605E+03  0.15294330000E+03 0.  0.
    8880022    1    1    2    0    0 -0.55406996628E+03  0.37700409141E+03  0.55959117690E+03  0.88637438521E+03  0.15294330000E+03 0.  0.
<mgrwt>
<rscale>  0 0.68739891E+03</rscale>
<asrwt>0</asrwt>
<pdfrwt beam="1">  1        1 0.16309616E+00 0.68739891E+03</pdfrwt>
<pdfrwt beam="2">  1       -1 0.79042430E-01 0.68739891E+03</pdfrwt>
<totfact> 0.22565948E+01</totfact>
</mgrwt>
</event>
<event>
 4    1  0.1678003E-008  0.6958685E+03  0.7818608E-02  0.9724324E-01
         -1   -1    0    0    0  501 -0.00000000000E+00  0.00000000000E+00  0.20970975715E+04  0.20970975715E+04  0.50400000000E-02 0.  1.
          1   -1    0    0  501    0  0.00000000000E+00 -0.00000000000E+00 -0.30521296479E+03  0.30521296483E+03  0.50400000000E-02 0. -1.
    8880022    1    1    2    0    0  0.67396191099E+03 -0.81342867756E+02  0.14886105249E+04  0.16432267851E+04  0.15294330000E+03 0.  0.
    8880022    1    1    2    0    0 -0.67396191099E+03  0.81342867756E+02  0.30327408184E+03  0.75908375120E+03  0.15294330000E+03 0.  0.
<mgrwt>
<rscale>  0 0.69586850E+03</rscale>
<asrwt>0</asrwt>
<pdfrwt beam="1">  1        1 0.46955841E-01 0.69586850E+03</pdfrwt>
<pdfrwt beam="2">  1       -1 0.32263039E+00 0.69586850E+03</pdfrwt>
<totfact> 0.21445810E+00</totfact>
</mgrwt>
</event>
<event>
 4    1  0.1678003E-008  0.2450123E+03  0.7818608E-02  0.1116498E+00
         -1   -1    0    0    0  501 -0.00000000000E+00  0.00000000000E+00  0.15834313261E+03  0.15834313270E+03  0.50400000000E-02 0.  1.
          1   -1    0    0  501    0  0.00000000000E+00 -0.00000000000E+00 -0.67107120396E+03  0.67107120398E+03  0.50400000000E-02 0. -1.
    8880022    1    1    2    0    0 -0.16171098979E+03 -0.10241541193E+03 -0.52989880544E+03  0.58380112868E+03  0.15294330000E+03 0.  0.
    8880022    1    1    2    0    0  0.16171098979E+03  0.10241541193E+03  0.17170734092E+02  0.24561320800E+03  0.15294330000E+03 0.  0.
<mgrwt>
<rscale>  0 0.24501227E+03</rscale>
<asrwt>0</asrwt>
<pdfrwt beam="1">  1        1 0.10324172E+00 0.24501227E+03</pdfrwt>
<pdfrwt beam="2">  1       -1 0.24360482E-01 0.24501227E+03</pdfrwt>
<totfact> 0.43961761E+02</totfact>
</mgrwt>
</event>
<event>
 4    1  0.1678003E-008  0.3361054E+03  0.7818608E-02  0.1068467E+00
          1   -1    0    0  501    0  0.00000000000E+00  0.00000000000E+00  0.22754654360E+04  0.22754654361E+04  0.50400000000E-02 0. -1.
         -1   -1    0    0    0  501 -0.00000000000E+00 -0.00000000000E+00 -0.52269783588E+03  0.52269783591E+03  0.50400000000E-02 0.  1.
    8880022    1    1    2    0    0  0.67961755015E+02  0.29147278007E+03 -0.45459843043E+03  0.56535525789E+03  0.15294330000E+03 0.  0.
    8880022    1    1    2    0    0 -0.67961755015E+02 -0.29147278007E+03  0.22073660306E+04  0.22328080141E+04  0.15294330000E+03 0.  0.
<mgrwt>
<rscale>  0 0.33610539E+03</rscale>
<asrwt>0</asrwt>
<pdfrwt beam="1">  1        1 0.35007161E+00 0.33610539E+03</pdfrwt>
<pdfrwt beam="2">  1       -1 0.80415051E-01 0.33610539E+03</pdfrwt>
<totfact> 0.35491879E+00</totfact>
</mgrwt>
</event>
<event>
 4    1  0.1678003E-008  0.8778251E+03  0.7818608E-02  0.9453734E-01
         -1   -1    0    0    0  501 -0.00000000000E+00  0.00000000000E+00  0.11811947306E+04  0.11811947307E+04  0.50400000000E-02 0.  1.
          1   -1    0    0  501    0  0.00000000000E+00 -0.00000000000E+00 -0.72894959464E+03  0.72894959465E+03  0.50400000000E-02 0. -1.
    8880022    1    1    2    0    0  0.61932941631E+03 -0.60300601672E+03  0.53568053076E+03  0.10283630031E+04  0.15294330000E+03 0.  0.
    8880022    1    1    2    0    0 -0.61932941631E+03  0.60300601672E+03 -0.83435394741E+02  0.88178132221E+03  0.15294330000E+03 0.  0.
<mgrwt>
<rscale>  0 0.87782506E+03</rscale>
<asrwt>0</asrwt>
<pdfrwt beam="1">  1        1 0.11214609E+00 0.87782506E+03</pdfrwt>
<pdfrwt beam="2">  1       -1 0.18172227E+00 0.87782506E+03</pdfrwt>
<totfact> 0.52691597E+00</totfact>
</mgrwt>
</event>
<event>
 4    1  0.1678003E-008  0.6057873E+03  0.7818608E-02  0.9893471E-01
          1   -1    0    0  501    0  0.00000000000E+00  0.00000000000E+00  0.30266418312E+04  0.30266418312E+04  0.50400000000E-02 0. -1.
         -1   -1    0    0    0  501 -0.00000000000E+00 -0.00000000000E+00 -0.47393522912E+03  0.47393522915E+03  0.50400000000E-02 0.  1.
    8880022    1    1    2    0    0 -0.31122443705E+01 -0.58615437057E+03  0.27862394482E+04  0.28513345206E+04  0.15294330000E+03 0.  0.
    8880022    1    1    2    0    0  0.31122443705E+01  0.58615437057E+03 -0.23353284617E+03  0.64924253978E+03  0.15294330000E+03 0.  0.
<mgrwt>
<rscale>  0 0.60578733E+03</rscale>
<asrwt>0</asrwt>
<pdfrwt beam="1">  1        1 0.46563719E+00 0.60578733E+03</pdfrwt>
<pdfrwt beam="2">  1       -1 0.72913114E-01 0.60578733E+03</pdfrwt>
<totfact> 0.12113778E+00</totfact>
</mgrwt>
</event>
<event>
 4    1  0.1678003E-008  0.6134540E+03  0.7818608E-02  0.9877880E-01
         -1   -1    0    0    0  501 -0.00000000000E+00  0.00000000000E+00  0.11634653786E+04  0.11634653786E+04  0.50400000000E-02 0.  1.
          1   -1    0    0  501    0  0.00000000000E+00 -0.00000000000E+00 -0.36349792051E+03  0.36349792055E+03  0.50400000000E-02 0. -1.
    8880022    1    1    2    0    0  0.11925086683E+03 -0.58199084439E+03  0.65339396968E+03  0.89624184505E+03  0.15294330000E+03 0.  0.
    8880022    1    1    2    0    0 -0.11925086683E+03  0.58199084439E+03  0.14657348845E+03  0.63072145415E+03  0.15294330000E+03 0.  0.
<mgrwt>
<rscale>  0 0.61345396E+03</rscale>
<asrwt>0</asrwt>
<pdfrwt beam="1">  1        1 0.55922757E-01 0.61345396E+03</pdfrwt>
<pdfrwt beam="2">  1       -1 0.17899467E+00 0.61345396E+03</pdfrwt>
<totfact> 0.15071089E+01</totfact>
</mgrwt>
</event>
<event>
 4    1  0.1678003E-008  0.3923481E+03  0.7818608E-02  0.1046462E+00
         -1   -1    0    0    0  501 -0.00000000000E+00  0.00000000000E+00  0.15200828446E+03  0.15200828454E+03  0.50400000000E-02 0.  1.
          1   -1    0    0  501    0  0.00000000000E+00 -0.00000000000E+00 -0.15019338447E+04  0.15019338447E+04  0.50400000000E-02 0. -1.
    8880022    1    1    2    0    0 -0.35360140707E+03  0.74239018246E+02 -0.11469478576E+04  0.12121990051E+04  0.15294330000E+03 0.  0.
    8880022    1    1    2    0    0  0.35360140707E+03 -0.74239018246E+02 -0.20297770257E+03  0.44174312408E+03  0.15294330000E+03 0. -1.
<mgrwt>
<rscale>  0 0.39234811E+03</rscale>
<asrwt>0</asrwt>
<pdfrwt beam="1">  1        1 0.23106674E+00 0.39234811E+03</pdfrwt>
<pdfrwt beam="2">  1       -1 0.23385891E-01 0.39234811E+03</pdfrwt>
<totfact> 0.10935935E+02</totfact>
</mgrwt>
</event>
<event>
 4    1  0.1678003E-008  0.4937191E+03  0.7818608E-02  0.1015431E+00
          1   -1    0    0  501    0  0.00000000000E+00  0.00000000000E+00  0.72543507684E+03  0.72543507685E+03  0.50400000000E-02 0. -1.
         -1   -1    0    0    0  501 -0.00000000000E+00 -0.00000000000E+00 -0.81014791491E+03  0.81014791493E+03  0.50400000000E-02 0.  1.
    8880022    1    1    2    0    0 -0.45210196058E+03  0.12637531746E+03 -0.62972437644E+03  0.80019456817E+03  0.15294330000E+03 0.  0.
    8880022    1    1    2    0    0  0.45210196058E+03 -0.12637531746E+03  0.54501153836E+03  0.73538842362E+03  0.15294330000E+03 0. -1.
<mgrwt>
<rscale>  0 0.49371911E+03</rscale>
<asrwt>0</asrwt>
<pdfrwt beam="1">  1        1 0.11160540E+00 0.49371911E+03</pdfrwt>
<pdfrwt beam="2">  1       -1 0.12463814E+00 0.49371911E+03</pdfrwt>
<totfact> 0.15535288E+01</totfact>
</mgrwt>
</event>
<event>
 4    1  0.1678003E-008  0.1036497E+04  0.7818608E-02  0.9269397E-01
          1   -1    0    0  501    0  0.00000000000E+00  0.00000000000E+00  0.12316557022E+04  0.12316557022E+04  0.50400000000E-02 0. -1.
         -1   -1    0    0    0  501 -0.00000000000E+00 -0.00000000000E+00 -0.10619898019E+04  0.10619898019E+04  0.50400000000E-02 0.  1.
    8880022    1    1    2    0    0 -0.96255495665E+03 -0.35273650057E+03 -0.39989868453E+03  0.11109661085E+04  0.15294330000E+03 0.  0.
    8880022    1    1    2    0    0  0.96255495665E+03  0.35273650057E+03  0.56956458485E+03  0.11826793956E+04  0.15294330000E+03 0.  0.
<mgrwt>
<rscale>  0 0.10364973E+04</rscale>
<asrwt>0</asrwt>
<pdfrwt beam="1">  1        1 0.18948549E+00 0.10364973E+04</pdfrwt>
<pdfrwt beam="2">  1       -1 0.16338305E+00 0.10364973E+04</pdfrwt>
<totfact> 0.27898294E+00</totfact>
</mgrwt>
</event>
<event>
 4    1  0.1678003E-008  0.4163574E+03  0.7818608E-02  0.1038258E+00
          1   -1    0    0  501    0  0.00000000000E+00  0.00000000000E+00  0.10649669752E+04  0.10649669752E+04  0.50400000000E-02 0. -1.
         -1   -1    0    0    0  501 -0.00000000000E+00 -0.00000000000E+00 -0.29974478277E+03  0.29974478281E+03  0.50400000000E-02 0.  1.
    8880022    1    1    2    0    0  0.32863855842E+03  0.20483778499E+03 -0.78645227637E+02  0.42371988989E+03  0.15294330000E+03 0.  0.
    8880022    1    1    2    0    0 -0.32863855842E+03 -0.20483778499E+03  0.84386742010E+03  0.94099186817E+03  0.15294330000E+03 0.  0.
<mgrwt>
<rscale>  0 0.41635739E+03</rscale>
<asrwt>0</asrwt>
<pdfrwt beam="1">  1        1 0.16384107E+00 0.41635739E+03</pdfrwt>
<pdfrwt beam="2">  1       -1 0.46114582E-01 0.41635739E+03</pdfrwt>
<totfact> 0.67205055E+01</totfact>
</mgrwt>
</event>
<event>
 4    1  0.1678003E-008  0.3052594E+03  0.7818608E-02  0.1082641E+00
          1   -1    0    0  501    0  0.00000000000E+00  0.00000000000E+00  0.10912648863E+04  0.10912648863E+04  0.50400000000E-02 0. -1.
         -1   -1    0    0    0  501 -0.00000000000E+00 -0.00000000000E+00 -0.34867004225E+03  0.34867004229E+03  0.50400000000E-02 0.  1.
    8880022    1    1    2    0    0  0.22236208928E+03 -0.14264195671E+03 -0.25432800896E+03  0.39732356552E+03  0.15294330000E+03 0.  0.
    8880022    1    1    2    0    0 -0.22236208928E+03  0.14264195671E+03  0.99692285296E+03  0.10426113630E+04  0.15294330000E+03 0. -1.
<mgrwt>
<rscale>  0 0.30525936E+03</rscale>
<asrwt>0</asrwt>
<pdfrwt beam="1">  1        1 0.16788691E+00 0.30525936E+03</pdfrwt>
<pdfrwt beam="2">  1       -1 0.53641545E-01 0.30525936E+03</pdfrwt>
<totfact> 0.49616882E+01</totfact>
</mgrwt>
</event>
<event>
 4    1  0.1678003E-008  0.2294633E+03  0.7818608E-02  0.1127018E+00
          1   -1    0    0  501    0  0.00000000000E+00  0.00000000000E+00  0.56122999218E+03  0.56122999220E+03  0.50400000000E-02 0. -1.
         -1   -1    0    0    0  501 -0.00000000000E+00 -0.00000000000E+00 -0.36209476652E+03  0.36209476655E+03  0.50400000000E-02 0.  1.
    8880022    1    1    2    0    0 -0.11115579879E+02  0.17069911645E+03 -0.29781147236E+03  0.37595886818E+03  0.15294330000E+03 0.  0.
    8880022    1    1    2    0    0  0.11115579879E+02 -0.17069911645E+03  0.49694669803E+03  0.54736589058E+03  0.15294330000E+03 0. -1.
<mgrwt>
<rscale>  0 0.22946328E+03</rscale>
<asrwt>0</asrwt>
<pdfrwt beam="1">  1        1 0.86343076E-01 0.22946328E+03</pdfrwt>
<pdfrwt beam="2">  1       -1 0.55706887E-01 0.22946328E+03</pdfrwt>
<totfact> 0.13185785E+02</totfact>
</mgrwt>
</event>
<event>
 4    1  0.1678003E-008  0.6108856E+03  0.7818608E-02  0.9883076E-01
         -1   -1    0    0    0  501 -0.00000000000E+00  0.00000000000E+00  0.16306746173E+04  0.16306746173E+04  0.50400000000E-02 0.  1.
          1   -1    0    0  501    0  0.00000000000E+00 -0.00000000000E+00 -0.41135691615E+03  0.41135691618E+03  0.50400000000E-02 0. -1.
    8880022    1    1    2    0    0  0.42083665842E+03 -0.41555516790E+03 -0.70423837573E+02  0.61493150883E+03  0.15294330000E+03 0.  0.
    8880022    1    1    2    0    0 -0.42083665842E+03  0.41555516790E+03  0.12897415387E+04  0.14271000247E+04  0.15294330000E+03 0.  0.
<mgrwt>
<rscale>  0 0.61088562E+03</rscale>
<asrwt>0</asrwt>
<pdfrwt beam="1">  1        1 0.63285680E-01 0.61088562E+03</pdfrwt>
<pdfrwt beam="2">  1       -1 0.25087302E+00 0.61088562E+03</pdfrwt>
<totfact> 0.42347171E+00</totfact>
</mgrwt>
</event>
<event>
 4    1  0.1678003E-008  0.1028772E+04  0.7818608E-02  0.9277539E-01
          1   -1    0    0  501    0  0.00000000000E+00  0.00000000000E+00  0.10637634270E+04  0.10637634270E+04  0.50400000000E-02 0. -1.
         -1   -1    0    0    0  501 -0.00000000000E+00 -0.00000000000E+00 -0.16259026940E+04  0.16259026940E+04  0.50400000000E-02 0.  1.
    8880022    1    1    2    0    0 -0.81762151344E+03  0.60537201840E+03  0.55670233636E+03  0.11697390154E+04  0.15294330000E+03 0.  0.
    8880022    1    1    2    0    0  0.81762151344E+03 -0.60537201840E+03 -0.11188416034E+04  0.15199271056E+04  0.15294330000E+03 0.  0.
<mgrwt>
<rscale>  0 0.10287720E+04</rscale>
<asrwt>0</asrwt>
<pdfrwt beam="1">  1        1 0.16365591E+00 0.10287720E+04</pdfrwt>
<pdfrwt beam="2">  1       -1 0.25013888E+00 0.10287720E+04</pdfrwt>
<totfact> 0.94373431E-01</totfact>
</mgrwt>
</event>
<event>
 4    1  0.1678003E-008  0.4767863E+03  0.7818608E-02  0.1020022E+00
         -1   -1    0    0    0  501 -0.00000000000E+00  0.00000000000E+00  0.16155030011E+04  0.16155030011E+04  0.50400000000E-02 0.  1.
          1   -1    0    0  501    0  0.00000000000E+00 -0.00000000000E+00 -0.22474191864E+03  0.22474191869E+03  0.50400000000E-02 0. -1.
    8880022    1    1    2    0    0  0.42750934407E+03  0.14549675662E+03  0.13276296075E+03  0.49492545117E+03  0.15294330000E+03 0.  0.
    8880022    1    1    2    0    0 -0.42750934407E+03 -0.14549675662E+03  0.12579981217E+04  0.13453194687E+04  0.15294330000E+03 0.  0.
<mgrwt>
<rscale>  0 0.47678632E+03</rscale>
<asrwt>0</asrwt>
<pdfrwt beam="1">  1        1 0.34575680E-01 0.47678632E+03</pdfrwt>
<pdfrwt beam="2">  1       -1 0.24853892E+00 0.47678632E+03</pdfrwt>
<totfact> 0.98208722E+00</totfact>
</mgrwt>
</event>
<event>
 4    1  0.1678003E-008  0.3820385E+03  0.7818608E-02  0.1050183E+00
          1   -1    0    0  501    0  0.00000000000E+00  0.00000000000E+00  0.72622508506E+03  0.72622508507E+03  0.50400000000E-02 0. -1.
         -1   -1    0    0    0  501 -0.00000000000E+00 -0.00000000000E+00 -0.15634253320E+04  0.15634253320E+04  0.50400000000E-02 0.  1.
    8880022    1    1    2    0    0 -0.19178872183E+03  0.29288020491E+03  0.65011237001E+03  0.75405535268E+03  0.15294330000E+03 0.  0.
    8880022    1    1    2    0    0  0.19178872183E+03 -0.29288020491E+03 -0.14873126170E+04  0.15355950644E+04  0.15294330000E+03 0.  0.
<mgrwt>
<rscale>  0 0.38203846E+03</rscale>
<asrwt>0</asrwt>
<pdfrwt beam="1">  1        1 0.11172694E+00 0.38203846E+03</pdfrwt>
<pdfrwt beam="2">  1       -1 0.24052697E+00 0.38203846E+03</pdfrwt>
<totfact> 0.23643702E+00</totfact>
</mgrwt>
</event>
<event>
 4    1  0.1678003E-008  0.7779047E+03  0.7818608E-02  0.9592562E-01
         -1   -1    0    0    0  501 -0.00000000000E+00  0.00000000000E+00  0.97493489475E+03  0.97493489476E+03  0.50400000000E-02 0.  1.
          1   -1    0    0  501    0  0.00000000000E+00 -0.00000000000E+00 -0.13056382956E+04  0.13056382956E+04  0.50400000000E-02 0. -1.
    8880022    1    1    2    0    0 -0.30375405457E+03 -0.69962670397E+03 -0.99125724148E+03  0.12600502460E+04  0.15294330000E+03 0.  0.
    8880022    1    1    2    0    0  0.30375405457E+03  0.69962670397E+03  0.66055384065E+03  0.10205229444E+04  0.15294330000E+03 0.  0.
<mgrwt>
<rscale>  0 0.77790469E+03</rscale>
<asrwt>0</asrwt>
<pdfrwt beam="1">  1        1 0.20086743E+00 0.77790469E+03</pdfrwt>
<pdfrwt beam="2">  1       -1 0.14998998E+00 0.77790469E+03</pdfrwt>
<totfact> 0.32432404E+00</totfact>
</mgrwt>
</event>
<event>
 4    1  0.1678003E-008  0.7682118E+03  0.7818608E-02  0.9607204E-01
         -1   -1    0    0    0  501 -0.00000000000E+00  0.00000000000E+00  0.48151183734E+03  0.48151183736E+03  0.50400000000E-02 0.  1.
          1   -1    0    0  501    0  0.00000000000E+00 -0.00000000000E+00 -0.35811836562E+04  0.35811836562E+04  0.50400000000E-02 0. -1.
    8880022    1    1    2    0    0 -0.58158523076E+03  0.47803374729E+03  0.97638357989E+02  0.77439172655E+03  0.15294330000E+03 0.  1.
    8880022    1    1    2    0    0  0.58158523076E+03 -0.47803374729E+03 -0.31973101769E+04  0.32883037670E+04  0.15294330000E+03 0.  0.
<mgrwt>
<rscale>  0 0.76821175E+03</rscale>
<asrwt>0</asrwt>
<pdfrwt beam="1">  1        1 0.55095132E+00 0.76821175E+03</pdfrwt>
<pdfrwt beam="2">  1       -1 0.74078746E-01 0.76821175E+03</pdfrwt>
<totfact> 0.43234866E-01</totfact>
</mgrwt>
</event>
<event>
 4    1  0.1678003E-008  0.5885555E+03  0.7818608E-02  0.9929438E-01
          1   -1    0    0  501    0  0.00000000000E+00  0.00000000000E+00  0.18706768969E+04  0.18706768969E+04  0.50400000000E-02 0. -1.
         -1   -1    0    0    0  501 -0.00000000000E+00 -0.00000000000E+00 -0.64695765916E+03  0.64695765918E+03  0.50400000000E-02 0.  1.
    8880022    1    1    2    0    0  0.41750737967E+03 -0.38560801407E+03 -0.45165834524E+03  0.74188467192E+03  0.15294330000E+03 0.  0.
    8880022    1    1    2    0    0 -0.41750737967E+03  0.38560801407E+03  0.16753775830E+04  0.17757498842E+04  0.15294330000E+03 0.  0.
<mgrwt>
<rscale>  0 0.58855552E+03</rscale>
<asrwt>0</asrwt>
<pdfrwt beam="1">  1        1 0.28779644E+00 0.58855552E+03</pdfrwt>
<pdfrwt beam="2">  1       -1 0.99531950E-01 0.58855552E+03</pdfrwt>
<totfact> 0.38108625E+00</totfact>
</mgrwt>
</event>
<event>
 4    1  0.1678003E-008  0.8148068E+03  0.7818608E-02  0.9538829E-01
          1   -1    0    0  501    0  0.00000000000E+00  0.00000000000E+00  0.21363224976E+04  0.21363224976E+04  0.50400000000E-02 0. -1.
         -1   -1    0    0    0  501 -0.00000000000E+00 -0.00000000000E+00 -0.54608010140E+03  0.54608010142E+03  0.50400000000E-02 0.  1.
    8880022    1    1    2    0    0  0.75645094199E+03 -0.26134366569E+03  0.16755288482E+04  0.18631444156E+04  0.15294330000E+03 0.  0.
    8880022    1    1    2    0    0 -0.75645094199E+03  0.26134366569E+03 -0.85286451982E+02  0.81925818344E+03  0.15294330000E+03 0.  0.
<mgrwt>
<rscale>  0 0.81480684E+03</rscale>
<asrwt>0</asrwt>
<pdfrwt beam="1">  1        1 0.32866499E+00 0.81480684E+03</pdfrwt>
<pdfrwt beam="2">  1       -1 0.84012325E-01 0.81480684E+03</pdfrwt>
<totfact> 0.35228027E+00</totfact>
</mgrwt>
</event>
<event>
 4    1  0.1678003E-008  0.8785194E+03  0.7818608E-02  0.9452839E-01
         -1   -1    0    0    0  501 -0.00000000000E+00  0.00000000000E+00  0.81351766272E+03  0.81351766273E+03  0.50400000000E-02 0.  1.
          1   -1    0    0  501    0  0.00000000000E+00 -0.00000000000E+00 -0.14240089780E+04  0.14240089780E+04  0.50400000000E-02 0. -1.
    8880022    1    1    2    0    0  0.58920776032E+02 -0.86309506437E+03 -0.95158860771E+03  0.12951128442E+04  0.15294330000E+03 0.  0.
    8880022    1    1    2    0    0 -0.58920776032E+02  0.86309506437E+03  0.34109729239E+03  0.94241379653E+03  0.15294330000E+03 0.  0.
<mgrwt>
<rscale>  0 0.87851944E+03</rscale>
<asrwt>0</asrwt>
<pdfrwt beam="1">  1        1 0.21907830E+00 0.87851944E+03</pdfrwt>
<pdfrwt beam="2">  1       -1 0.12515656E+00 0.87851944E+03</pdfrwt>
<totfact> 0.42101260E+00</totfact>
</mgrwt>
</event>
<event>
 4    1  0.1678003E-008  0.5086812E+03  0.7818608E-02  0.1011538E+00
          1   -1    0    0  501    0  0.00000000000E+00  0.00000000000E+00  0.72040354952E+03  0.72040354954E+03  0.50400000000E-02 0. -1.
         -1   -1    0    0    0  501 -0.00000000000E+00 -0.00000000000E+00 -0.46375647273E+03  0.46375647275E+03  0.50400000000E-02 0.  1.
    8880022    1    1    2    0    0  0.44713955245E+03  0.18823163530E+03  0.40947900969E+03  0.65301580401E+03  0.15294330000E+03 0.  0.
    8880022    1    1    2    0    0 -0.44713955245E+03 -0.18823163530E+03 -0.15283193290E+03  0.53114421829E+03  0.15294330000E+03 0.  0.
<mgrwt>
<rscale>  0 0.50868122E+03</rscale>
<asrwt>0</asrwt>
<pdfrwt beam="1">  1        1 0.11083131E+00 0.50868122E+03</pdfrwt>
<pdfrwt beam="2">  1       -1 0.71347150E-01 0.50868122E+03</pdfrwt>
<totfact> 0.54253556E+01</totfact>
</mgrwt>
</event>
<event>
 4    1  0.1678003E-008  0.6235644E+03  0.7818608E-02  0.9857688E-01
         -1   -1    0    0    0  501 -0.00000000000E+00  0.00000000000E+00  0.31175215462E+03  0.31175215466E+03  0.50400000000E-02 0.  1.
          1   -1    0    0  501    0  0.00000000000E+00 -0.00000000000E+00 -0.20141745792E+04  0.20141745792E+04  0.50400000000E-02 0. -1.
    8880022    1    1    2    0    0  0.43432299253E+03 -0.42048127694E+03 -0.13359202815E+03  0.63771423780E+03  0.15294330000E+03 0.  0.
    8880022    1    1    2    0    0 -0.43432299253E+03  0.42048127694E+03 -0.15688303964E+04  0.16882124961E+04  0.15294330000E+03 0.  0.
<mgrwt>
<rscale>  0 0.62356445E+03</rscale>
<asrwt>0</asrwt>
<pdfrwt beam="1">  1        1 0.30987300E+00 0.62356445E+03</pdfrwt>
<pdfrwt beam="2">  1       -1 0.47961871E-01 0.62356445E+03</pdfrwt>
<totfact> 0.13501298E+01</totfact>
</mgrwt>
</event>
<event>
 4    1  0.1678003E-008  0.4773108E+03  0.7818608E-02  0.1019877E+00
         -1   -1    0    0    0  501 -0.00000000000E+00  0.00000000000E+00  0.83217993247E+03  0.83217993248E+03  0.50400000000E-02 0.  1.
          1   -1    0    0  501    0  0.00000000000E+00 -0.00000000000E+00 -0.14958094130E+04  0.14958094131E+04  0.50400000000E-02 0. -1.
    8880022    1    1    2    0    0 -0.43739717945E+03 -0.11453233270E+03 -0.13839111344E+04  0.14639110727E+04  0.15294330000E+03 0.  0.
    8880022    1    1    2    0    0  0.43739717945E+03  0.11453233270E+03  0.72028165380E+03  0.86407827287E+03  0.15294330000E+03 0.  0.
<mgrwt>
<rscale>  0 0.47731080E+03</rscale>
<asrwt>0</asrwt>
<pdfrwt beam="1">  1        1 0.23012452E+00 0.47731080E+03</pdfrwt>
<pdfrwt beam="2">  1       -1 0.12802768E+00 0.47731080E+03</pdfrwt>
<totfact> 0.38463737E+00</totfact>
</mgrwt>
</event>
<event>
 4    1  0.1678003E-008  0.1197912E+04  0.7818608E-02  0.9114686E-01
         -1   -1    0    0    0  501 -0.00000000000E+00  0.00000000000E+00  0.15751792611E+04  0.15751792611E+04  0.50400000000E-02 0.  1.
          1   -1    0    0  501    0  0.00000000000E+00 -0.00000000000E+00 -0.19389782831E+04  0.19389782831E+04  0.50400000000E-02 0. -1.
    8880022    1    1    2    0    0  0.10883506791E+04 -0.47654533308E+03 -0.14612688096E+04  0.18895239724E+04  0.15294330000E+03 0.  0.
    8880022    1    1    2    0    0 -0.10883506791E+04  0.47654533308E+03  0.10974697876E+04  0.16246335719E+04  0.15294330000E+03 0.  0.
<mgrwt>
<rscale>  0 0.11979125E+04</rscale>
<asrwt>0</asrwt>
<pdfrwt beam="1">  1        1 0.29830435E+00 0.11979125E+04</pdfrwt>
<pdfrwt beam="2">  1       -1 0.24233527E+00 0.11979125E+04</pdfrwt>
<totfact> 0.25206160E-01</totfact>
</mgrwt>
</event>
<event>
 4    1  0.1678003E-008  0.1463323E+04  0.7818608E-02  0.8909216E-01
          1   -1    0    0  501    0  0.00000000000E+00  0.00000000000E+00  0.16066519320E+04  0.16066519320E+04  0.50400000000E-02 0. -1.
         -1   -1    0    0    0  501 -0.00000000000E+00 -0.00000000000E+00 -0.16770177725E+04  0.16770177725E+04  0.50400000000E-02 0.  1.
    8880022    1    1    2    0    0  0.13426161656E+04 -0.56152050456E+03 -0.77903964932E+03  0.16577749767E+04  0.15294330000E+03 0.  0.
    8880022    1    1    2    0    0 -0.13426161656E+04  0.56152050456E+03  0.70867380883E+03  0.16258947277E+04  0.15294330000E+03 0.  0.
<mgrwt>
<rscale>  0 0.14633233E+04</rscale>
<asrwt>0</asrwt>
<pdfrwt beam="1">  1        1 0.24717722E+00 0.14633233E+04</pdfrwt>
<pdfrwt beam="2">  1       -1 0.25800273E+00 0.14633233E+04</pdfrwt>
<totfact> 0.32393211E-01</totfact>
</mgrwt>
</event>
<event>
 4    1  0.1678003E-008  0.5722070E+03  0.7818608E-02  0.9964807E-01
         -1   -1    0    0    0  501 -0.00000000000E+00  0.00000000000E+00  0.96689182430E+03  0.96689182431E+03  0.50400000000E-02 0.  1.
          1   -1    0    0  501    0  0.00000000000E+00 -0.00000000000E+00 -0.86355477799E+03  0.86355477801E+03  0.50400000000E-02 0. -1.
    8880022    1    1    2    0    0  0.18901954397E+03 -0.51797760460E+03 -0.66189015432E+03  0.87493966436E+03  0.15294330000E+03 0.  0.
    8880022    1    1    2    0    0 -0.18901954397E+03  0.51797760460E+03  0.76522720063E+03  0.95550693795E+03  0.15294330000E+03 0.  0.
<mgrwt>
<rscale>  0 0.57220699E+03</rscale>
<asrwt>0</asrwt>
<pdfrwt beam="1">  1        1 0.13285458E+00 0.57220699E+03</pdfrwt>
<pdfrwt beam="2">  1       -1 0.14875259E+00 0.57220699E+03</pdfrwt>
<totfact> 0.74076177E+00</totfact>
</mgrwt>
</event>
<event>
 4    1  0.1678003E-008  0.2475325E+03  0.7818608E-02  0.1114874E+00
         -1   -1    0    0    0  501 -0.00000000000E+00  0.00000000000E+00  0.95777671753E+03  0.95777671754E+03  0.50400000000E-02 0.  1.
          1   -1    0    0  501    0  0.00000000000E+00 -0.00000000000E+00 -0.10596331433E+03  0.10596331445E+03  0.50400000000E-02 0. -1.
    8880022    1    1    2    0    0  0.97411784288E+02 -0.16849813436E+03  0.76071769692E+03  0.79997733994E+03  0.15294330000E+03 0.  1.
    8880022    1    1    2    0    0 -0.97411784288E+02  0.16849813436E+03  0.91095706287E+02  0.26376269205E+03  0.15294330000E+03 0.  0.
<mgrwt>
<rscale>  0 0.24753248E+03</rscale>
<asrwt>0</asrwt>
<pdfrwt beam="1">  1        1 0.16302049E-01 0.24753248E+03</pdfrwt>
<pdfrwt beam="2">  1       -1 0.14735026E+00 0.24753248E+03</pdfrwt>
<totfact> 0.13314043E+02</totfact>
</mgrwt>
</event>
<event>
 4    1  0.1678003E-008  0.4651818E+03  0.7818608E-02  0.1023289E+00
         -1   -1    0    0    0  501 -0.00000000000E+00  0.00000000000E+00  0.61485419797E+03  0.61485419799E+03  0.50400000000E-02 0.  1.
          1   -1    0    0  501    0  0.00000000000E+00 -0.00000000000E+00 -0.94554441080E+03  0.94554441082E+03  0.50400000000E-02 0. -1.
    8880022    1    1    2    0    0 -0.42809040210E+03  0.98696674975E+02  0.45283039324E+03  0.64919137708E+03  0.15294330000E+03 0.  0.
    8880022    1    1    2    0    0  0.42809040210E+03 -0.98696674975E+02 -0.78352060607E+03  0.91120723173E+03  0.15294330000E+03 0.  0.
<mgrwt>
<rscale>  0 0.46518177E+03</rscale>
<asrwt>0</asrwt>
<pdfrwt beam="1">  1        1 0.14546837E+00 0.46518177E+03</pdfrwt>
<pdfrwt beam="2">  1       -1 0.94592954E-01 0.46518177E+03</pdfrwt>
<totfact> 0.19425164E+01</totfact>
</mgrwt>
</event>
<event>
 4    1  0.1678003E-008  0.2343526E+03  0.7818608E-02  0.1123613E+00
         -1   -1    0    0    0  501 -0.00000000000E+00  0.00000000000E+00  0.53520884695E+02  0.53520884933E+02  0.50400000000E-02 0.  1.
          1   -1    0    0  501    0  0.00000000000E+00 -0.00000000000E+00 -0.11920862155E+04  0.11920862155E+04  0.50400000000E-02 0. -1.
    8880022    1    1    2    0    0 -0.20786098747E+02 -0.17634467864E+03 -0.33692842242E+03  0.41041676675E+03  0.15294330000E+03 0.  0.
    8880022    1    1    2    0    0  0.20786098747E+02  0.17634467864E+03 -0.80163690840E+03  0.83519033370E+03  0.15294330000E+03 0.  0.
<mgrwt>
<rscale>  0 0.23435264E+03</rscale>
<asrwt>0</asrwt>
<pdfrwt beam="1">  1        1 0.18339786E+00 0.23435264E+03</pdfrwt>
<pdfrwt beam="2">  1       -1 0.82339832E-02 0.23435264E+03</pdfrwt>
<totfact> 0.95832599E+02</totfact>
</mgrwt>
</event>
<event>
 4    1  0.1678003E-008  0.7904106E+03  0.7818608E-02  0.9574002E-01
          1   -1    0    0  501    0  0.00000000000E+00  0.00000000000E+00  0.12857897545E+04  0.12857897545E+04  0.50400000000E-02 0. -1.
         -1   -1    0    0    0  501 -0.00000000000E+00 -0.00000000000E+00 -0.71391627426E+03  0.71391627428E+03  0.50400000000E-02 0.  1.
    8880022    1    1    2    0    0 -0.52717820885E+03 -0.56871815416E+03  0.85101367116E+03  0.11614530228E+04  0.15294330000E+03 0.  0.
    8880022    1    1    2    0    0  0.52717820885E+03  0.56871815416E+03 -0.27914019092E+03  0.83825300594E+03  0.15294330000E+03 0.  0.
<mgrwt>
<rscale>  0 0.79041056E+03</rscale>
<asrwt>0</asrwt>
<pdfrwt beam="1">  1        1 0.19781381E+00 0.79041056E+03</pdfrwt>
<pdfrwt beam="2">  1       -1 0.10983327E+00 0.79041056E+03</pdfrwt>
<totfact> 0.73126890E+00</totfact>
</mgrwt>
</event>
<event>
 4    1  0.1678003E-008  0.6069310E+03  0.7818608E-02  0.9891130E-01
         -1   -1    0    0    0  501 -0.00000000000E+00  0.00000000000E+00  0.44042524822E+03  0.44042524825E+03  0.50400000000E-02 0.  1.
          1   -1    0    0  501    0  0.00000000000E+00 -0.00000000000E+00 -0.11445189720E+04  0.11445189720E+04  0.50400000000E-02 0. -1.
    8880022    1    1    2    0    0 -0.58642608798E+03 -0.32832871097E+02  0.59142682032E+02  0.60980575919E+03  0.15294330000E+03 0.  0.
    8880022    1    1    2    0    0  0.58642608798E+03  0.32832871097E+02 -0.76323640580E+03  0.97513846106E+03  0.15294330000E+03 0.  0.
<mgrwt>
<rscale>  0 0.60693097E+03</rscale>
<asrwt>0</asrwt>
<pdfrwt beam="1">  1        1 0.17607984E+00 0.60693097E+03</pdfrwt>
<pdfrwt beam="2">  1       -1 0.67757731E-01 0.60693097E+03</pdfrwt>
<totfact> 0.27150418E+01</totfact>
</mgrwt>
</event>
<event>
 4    1  0.1678003E-008  0.4075726E+03  0.7818608E-02  0.1041189E+00
         -1   -1    0    0    0  501 -0.00000000000E+00  0.00000000000E+00  0.16846863349E+03  0.16846863356E+03  0.50400000000E-02 0.  1.
          1   -1    0    0  501    0  0.00000000000E+00 -0.00000000000E+00 -0.15061217936E+04  0.15061217936E+04  0.50400000000E-02 0. -1.
    8880022    1    1    2    0    0 -0.37773864885E+03  0.61055824396E+01 -0.11608523401E+04  0.12303225486E+04  0.15294330000E+03 0.  0.
    8880022    1    1    2    0    0  0.37773864885E+03 -0.61055824396E+01 -0.17680081999E+03  0.44426787858E+03  0.15294330000E+03 0.  0.
<mgrwt>
<rscale>  0 0.40757259E+03</rscale>
<asrwt>0</asrwt>
<pdfrwt beam="1">  1        1 0.23171104E+00 0.40757259E+03</pdfrwt>
<pdfrwt beam="2">  1       -1 0.25918252E-01 0.40757259E+03</pdfrwt>
<totfact> 0.91160718E+01</totfact>
</mgrwt>
</event>
<event>
 4    1  0.1678003E-008  0.3691537E+03  0.7818608E-02  0.1055017E+00
         -1   -1    0    0    0  501 -0.00000000000E+00  0.00000000000E+00  0.26348443223E+03  0.26348443228E+03  0.50400000000E-02 0.  1.
          1   -1    0    0  501    0  0.00000000000E+00 -0.00000000000E+00 -0.75027725156E+03  0.75027725158E+03  0.50400000000E-02 0. -1.
    8880022    1    1    2    0    0  0.11551858762E+03 -0.31549679932E+03  0.39120173258E+02  0.37122070987E+03  0.15294330000E+03 0.  0.
    8880022    1    1    2    0    0 -0.11551858762E+03  0.31549679932E+03 -0.52591299258E+03  0.64254097399E+03  0.15294330000E+03 0.  0.
<mgrwt>
<rscale>  0 0.36915366E+03</rscale>
<asrwt>0</asrwt>
<pdfrwt beam="1">  1        1 0.11542727E+00 0.36915366E+03</pdfrwt>
<pdfrwt beam="2">  1       -1 0.40536067E-01 0.36915366E+03</pdfrwt>
<totfact> 0.15281097E+02</totfact>
</mgrwt>
</event>
<event>
 4    1  0.1678003E-008  0.2995953E+03  0.7818608E-02  0.1085443E+00
         -1   -1    0    0    0  501 -0.00000000000E+00  0.00000000000E+00  0.10327330789E+03  0.10327330801E+03  0.50400000000E-02 0.  1.
          1   -1    0    0  501    0  0.00000000000E+00 -0.00000000000E+00 -0.11233006563E+04  0.11233006563E+04  0.50400000000E-02 0. -1.
    8880022    1    1    2    0    0 -0.12629412694E+03  0.22453398242E+03 -0.80174501564E+03  0.85589277301E+03  0.15294330000E+03 0.  0.
    8880022    1    1    2    0    0  0.12629412694E+03 -0.22453398242E+03 -0.21828233273E+03  0.37068119127E+03  0.15294330000E+03 0.  0.
<mgrwt>
<rscale>  0 0.29959534E+03</rscale>
<asrwt>0</asrwt>
<pdfrwt beam="1">  1        1 0.17281548E+00 0.29959534E+03</pdfrwt>
<pdfrwt beam="2">  1       -1 0.15888202E-01 0.29959534E+03</pdfrwt>
<totfact> 0.38119014E+02</totfact>
</mgrwt>
</event>
<event>
 4    1  0.1678003E-008  0.8772217E+03  0.7818608E-02  0.9454512E-01
         -1   -1    0    0    0  501 -0.00000000000E+00  0.00000000000E+00  0.68350192938E+03  0.68350192940E+03  0.50400000000E-02 0.  1.
          1   -1    0    0  501    0  0.00000000000E+00 -0.00000000000E+00 -0.23508946598E+04  0.23508946598E+04  0.50400000000E-02 0. -1.
    8880022    1    1    2    0    0 -0.30986019725E+03 -0.80629584540E+03  0.26152627343E+03  0.91537641266E+03  0.15294330000E+03 0.  0.
    8880022    1    1    2    0    0  0.30986019725E+03  0.80629584540E+03 -0.19289190038E+04  0.21190201765E+04  0.15294330000E+03 0.  0.
<mgrwt>
<rscale>  0 0.87722174E+03</rscale>
<asrwt>0</asrwt>
<pdfrwt beam="1">  1        1 0.36167610E+00 0.87722174E+03</pdfrwt>
<pdfrwt beam="2">  1       -1 0.10515414E+00 0.87722174E+03</pdfrwt>
<totfact> 0.15106268E+00</totfact>
</mgrwt>
</event>
<event>
 4    1  0.1678003E-008  0.1093528E+04  0.7818608E-02  0.9211523E-01
         -1   -1    0    0    0  501 -0.00000000000E+00  0.00000000000E+00  0.99327168405E+03  0.99327168406E+03  0.50400000000E-02 0.  1.
          1   -1    0    0  501    0  0.00000000000E+00 -0.00000000000E+00 -0.30470304071E+04  0.30470304071E+04  0.50400000000E-02 0. -1.
    8880022    1    1    2    0    0 -0.57087937609E+03 -0.92005930755E+03 -0.25980486259E+04  0.28188048366E+04  0.15294330000E+03 0.  0.
    8880022    1    1    2    0    0  0.57087937609E+03  0.92005930755E+03  0.54428990285E+03  0.12214972545E+04  0.15294330000E+03 0.  0.
<mgrwt>
<rscale>  0 0.10935283E+04</rscale>
<asrwt>0</asrwt>
<pdfrwt beam="1">  1        1 0.46877390E+00 0.10935283E+04</pdfrwt>
<pdfrwt beam="2">  1       -1 0.15281103E+00 0.10935283E+04</pdfrwt>
<totfact> 0.18524628E-01</totfact>
</mgrwt>
</event>
<event>
 4    1  0.1678003E-008  0.4708698E+03  0.7818608E-02  0.1021675E+00
          1   -1    0    0  501    0  0.00000000000E+00  0.00000000000E+00  0.12205096027E+04  0.12205096027E+04  0.50400000000E-02 0. -1.
         -1   -1    0    0    0  501 -0.00000000000E+00 -0.00000000000E+00 -0.98580006301E+03  0.98580006303E+03  0.50400000000E-02 0.  1.
    8880022    1    1    2    0    0 -0.24353797537E+03  0.37284845461E+03  0.11136952361E+04  0.12091465782E+04  0.15294330000E+03 0.  0.
    8880022    1    1    2    0    0  0.24353797537E+03 -0.37284845461E+03 -0.87898569646E+03  0.99716308753E+03  0.15294330000E+03 0.  0.
<mgrwt>
<rscale>  0 0.47086980E+03</rscale>
<asrwt>0</asrwt>
<pdfrwt beam="1">  1        1 0.18777071E+00 0.47086980E+03</pdfrwt>
<pdfrwt beam="2">  1       -1 0.15166155E+00 0.47086980E+03</pdfrwt>
<totfact> 0.38612983E+00</totfact>
</mgrwt>
</event>
<event>
 4    1  0.1678003E-008  0.1038614E+04  0.7818608E-02  0.9267179E-01
         -1   -1    0    0    0  501 -0.00000000000E+00  0.00000000000E+00  0.54853963139E+03  0.54853963141E+03  0.50400000000E-02 0.  1.
          1   -1    0    0  501    0  0.00000000000E+00 -0.00000000000E+00 -0.21992258603E+04  0.21992258603E+04  0.50400000000E-02 0. -1.
    8880022    1    1    2    0    0  0.99632890297E+03 -0.25031357347E+03 -0.12722414895E+04  0.16423514327E+04  0.15294330000E+03 0.  0.
    8880022    1    1    2    0    0 -0.99632890297E+03  0.25031357347E+03 -0.37844473939E+03  0.11054140590E+04  0.15294330000E+03 0.  0.
<mgrwt>
<rscale>  0 0.10386144E+04</rscale>
<asrwt>0</asrwt>
<pdfrwt beam="1">  1        1 0.33834244E+00 0.10386144E+04</pdfrwt>
<pdfrwt beam="2">  1       -1 0.84390713E-01 0.10386144E+04</pdfrwt>
<totfact> 0.30596939E+00</totfact>
</mgrwt>
</event>
<event>
 4    1  0.1678003E-008  0.6654708E+03  0.7818608E-02  0.9778175E-01
         -1   -1    0    0    0  501 -0.00000000000E+00  0.00000000000E+00  0.42798914508E+03  0.42798914511E+03  0.50400000000E-02 0.  1.
          1   -1    0    0  501    0  0.00000000000E+00 -0.00000000000E+00 -0.16937298091E+04  0.16937298091E+04  0.50400000000E-02 0. -1.
    8880022    1    1    2    0    0  0.53191445702E+03 -0.36949524333E+03  0.28858181855E+02  0.66609621835E+03  0.15294330000E+03 0.  0.
    8880022    1    1    2    0    0 -0.53191445702E+03  0.36949524333E+03 -0.12945988458E+04  0.14556227358E+04  0.15294330000E+03 0.  0.
<mgrwt>
<rscale>  0 0.66547079E+03</rscale>
<asrwt>0</asrwt>
<pdfrwt beam="1">  1        1 0.26057381E+00 0.66547079E+03</pdfrwt>
<pdfrwt beam="2">  1       -1 0.65844485E-01 0.66547079E+03</pdfrwt>
<totfact> 0.11864510E+01</totfact>
</mgrwt>
</event>
<event>
 4    1  0.1678003E-008  0.3059259E+03  0.7818608E-02  0.1082315E+00
         -1   -1    0    0    0  501 -0.00000000000E+00  0.00000000000E+00  0.71792107582E+03  0.71792107584E+03  0.50400000000E-02 0.  1.
          1   -1    0    0  501    0  0.00000000000E+00 -0.00000000000E+00 -0.72421344497E+03  0.72421344499E+03  0.50400000000E-02 0. -1.
    8880022    1    1    2    0    0  0.26405962955E+03  0.21714312890E+02 -0.65609760688E+03  0.72391623970E+03  0.15294330000E+03 0.  0.
    8880022    1    1    2    0    0 -0.26405962955E+03 -0.21714312890E+02  0.64980523773E+03  0.71821828112E+03  0.15294330000E+03 0.  0.
<mgrwt>
<rscale>  0 0.30592589E+03</rscale>
<asrwt>0</asrwt>
<pdfrwt beam="1">  1        1 0.11141745E+00 0.30592589E+03</pdfrwt>
<pdfrwt beam="2">  1       -1 0.11044940E+00 0.30592589E+03</pdfrwt>
<totfact> 0.21689277E+01</totfact>
</mgrwt>
</event>
<event>
 4    1  0.1678003E-008  0.6586229E+03  0.7818608E-02  0.9790732E-01
          1   -1    0    0  501    0  0.00000000000E+00  0.00000000000E+00  0.19994493218E+04  0.19994493218E+04  0.50400000000E-02 0. -1.
         -1   -1    0    0    0  501 -0.00000000000E+00 -0.00000000000E+00 -0.25947660997E+03  0.25947661002E+03  0.50400000000E-02 0.  1.
    8880022    1    1    2    0    0 -0.60564529445E+03  0.20877308091E+03  0.13272263574E+04  0.14816591642E+04  0.15294330000E+03 0.  0.
    8880022    1    1    2    0    0  0.60564529445E+03 -0.20877308091E+03  0.41274635444E+03  0.77726676766E+03  0.15294330000E+03 0.  0.
<mgrwt>
<rscale>  0 0.65862286E+03</rscale>
<asrwt>0</asrwt>
<pdfrwt beam="1">  1        1 0.30760757E+00 0.65862286E+03</pdfrwt>
<pdfrwt beam="2">  1       -1 0.39919480E-01 0.65862286E+03</pdfrwt>
<totfact> 0.19250694E+01</totfact>
</mgrwt>
</event>
<event>
 4    1  0.1678003E-008  0.8526302E+03  0.7818608E-02  0.9486814E-01
          1   -1    0    0  501    0  0.00000000000E+00  0.00000000000E+00  0.31199962179E+04  0.31199962179E+04  0.50400000000E-02 0. -1.
         -1   -1    0    0    0  501 -0.00000000000E+00 -0.00000000000E+00 -0.60969676682E+03  0.60969676684E+03  0.50400000000E-02 0.  1.
    8880022    1    1    2    0    0  0.81790770836E+03 -0.18604748810E+03  0.27209626172E+04  0.28514234874E+04  0.15294330000E+03 0. -1.
    8880022    1    1    2    0    0 -0.81790770836E+03  0.18604748810E+03 -0.21066316621E+03  0.87826949727E+03  0.15294330000E+03 0.  0.
<mgrwt>
<rscale>  0 0.85263025E+03</rscale>
<asrwt>0</asrwt>
<pdfrwt beam="1">  1        1 0.47999942E+00 0.85263025E+03</pdfrwt>
<pdfrwt beam="2">  1       -1 0.93799502E-01 0.85263025E+03</pdfrwt>
<totfact> 0.56959296E-01</totfact>
</mgrwt>
</event>
<event>
 4    1  0.1678003E-008  0.5204317E+03  0.7818608E-02  0.1008579E+00
         -1   -1    0    0    0  501 -0.00000000000E+00  0.00000000000E+00  0.29692340235E+03  0.29692340239E+03  0.50400000000E-02 0.  1.
          1   -1    0    0  501    0  0.00000000000E+00 -0.00000000000E+00 -0.11459017182E+04  0.11459017183E+04  0.50400000000E-02 0. -1.
    8880022    1    1    2    0    0  0.39300385194E+03  0.30496798839E+03 -0.98686479003E+02  0.52970574449E+03  0.15294330000E+03 0.  1.
    8880022    1    1    2    0    0 -0.39300385194E+03 -0.30496798839E+03 -0.75029183689E+03  0.91311937615E+03  0.15294330000E+03 0.  0.
<mgrwt>
<rscale>  0 0.52043170E+03</rscale>
<asrwt>0</asrwt>
<pdfrwt beam="1">  1        1 0.17629257E+00 0.52043170E+03</pdfrwt>
<pdfrwt beam="2">  1       -1 0.45680524E-01 0.52043170E+03</pdfrwt>
<totfact> 0.58688854E+01</totfact>
</mgrwt>
</event>
<event>
 4    1  0.1678003E-008  0.1981769E+03  0.7818608E-02  0.1151286E+00
         -1   -1    0    0    0  501 -0.00000000000E+00  0.00000000000E+00  0.24793461316E+03  0.24793461321E+03  0.50400000000E-02 0.  1.
          1   -1    0    0  501    0  0.00000000000E+00 -0.00000000000E+00 -0.11225118240E+04  0.11225118240E+04  0.50400000000E-02 0. -1.
    8880022    1    1    2    0    0  0.82015073942E+02 -0.95686697431E+02  0.19774864114E+03  0.27996177329E+03  0.15294330000E+03 0.  1.
    8880022    1    1    2    0    0 -0.82015073942E+02  0.95686697431E+02 -0.10723258520E+04  0.10904846639E+04  0.15294330000E+03 0.  0.
<mgrwt>
<rscale>  0 0.19817686E+03</rscale>
<asrwt>0</asrwt>
<pdfrwt beam="1">  1        1 0.17269412E+00 0.19817686E+03</pdfrwt>
<pdfrwt beam="2">  1       -1 0.38143787E-01 0.19817686E+03</pdfrwt>
<totfact> 0.90343474E+01</totfact>
</mgrwt>
</event>
<event>
 4    1  0.1678003E-008  0.6941443E+03  0.7818608E-02  0.9727299E-01
          1   -1    0    0  501    0  0.00000000000E+00  0.00000000000E+00  0.24778076554E+04  0.24778076554E+04  0.50400000000E-02 0. -1.
         -1   -1    0    0    0  501 -0.00000000000E+00 -0.00000000000E+00 -0.70908173185E+03  0.70908173187E+03  0.50400000000E-02 0.  1.
    8880022    1    1    2    0    0  0.64817264193E+03  0.19574680990E+03 -0.47311443387E+03  0.84004375356E+03  0.15294330000E+03 0.  0.
    8880022    1    1    2    0    0 -0.64817264193E+03 -0.19574680990E+03  0.22418403574E+04  0.23468456337E+04  0.15294330000E+03 0.  0.
<mgrwt>
<rscale>  0 0.69414425E+03</rscale>
<asrwt>0</asrwt>
<pdfrwt beam="1">  1        1 0.38120117E+00 0.69414425E+03</pdfrwt>
<pdfrwt beam="2">  1       -1 0.10908950E+00 0.69414425E+03</pdfrwt>
<totfact> 0.11798136E+00</totfact>
</mgrwt>
</event>
<event>
 4    1  0.1678003E-008  0.4465774E+03  0.7818608E-02  0.1028748E+00
         -1   -1    0    0    0  501 -0.00000000000E+00  0.00000000000E+00  0.11038743312E+04  0.11038743312E+04  0.50400000000E-02 0.  1.
          1   -1    0    0  501    0  0.00000000000E+00 -0.00000000000E+00 -0.31113333435E+03  0.31113333439E+03  0.50400000000E-02 0. -1.
    8880022    1    1    2    0    0  0.20694600192E+03 -0.36498366162E+03  0.85452104398E+03  0.96417715622E+03  0.15294330000E+03 0.  0.
    8880022    1    1    2    0    0 -0.20694600192E+03  0.36498366162E+03 -0.61780047112E+02  0.45083050939E+03  0.15294330000E+03 0.  0.
<mgrwt>
<rscale>  0 0.44657740E+03</rscale>
<asrwt>0</asrwt>
<pdfrwt beam="1">  1        1 0.47866667E-01 0.44657740E+03</pdfrwt>
<pdfrwt beam="2">  1       -1 0.16982682E+00 0.44657740E+03</pdfrwt>
<totfact> 0.21998946E+01</totfact>
</mgrwt>
</event>
<event>
 4    1  0.1678003E-008  0.3154135E+03  0.7818608E-02  0.1077780E+00
          1   -1    0    0  501    0  0.00000000000E+00  0.00000000000E+00  0.11914565182E+04  0.11914565182E+04  0.50400000000E-02 0. -1.
         -1   -1    0    0    0  501 -0.00000000000E+00 -0.00000000000E+00 -0.91739990628E+03  0.91739990629E+03  0.50400000000E-02 0.  1.
    8880022    1    1    2    0    0  0.26812161065E+03  0.64844456159E+02 -0.86826975530E+03  0.92378461915E+03  0.15294330000E+03 0.  1.
    8880022    1    1    2    0    0 -0.26812161065E+03 -0.64844456159E+02  0.11423263672E+04  0.11850718054E+04  0.15294330000E+03 0.  0.
<mgrwt>
<rscale>  0 0.31541347E+03</rscale>
<asrwt>0</asrwt>
<pdfrwt beam="1">  1        1 0.18330100E+00 0.31541347E+03</pdfrwt>
<pdfrwt beam="2">  1       -1 0.14113845E+00 0.31541347E+03</pdfrwt>
<totfact> 0.51476012E+00</totfact>
</mgrwt>
</event>
<event>
 4    1  0.1678003E-008  0.1109468E+04  0.7818608E-02  0.9196012E-01
          1   -1    0    0  501    0  0.00000000000E+00  0.00000000000E+00  0.31310142083E+04  0.31310142083E+04  0.50400000000E-02 0. -1.
         -1   -1    0    0    0  501 -0.00000000000E+00 -0.00000000000E+00 -0.40691929453E+03  0.40691929456E+03  0.50400000000E-02 0.  1.
    8880022    1    1    2    0    0 -0.10974391531E+04 -0.56169697355E+02  0.10364979940E+04  0.15183041442E+04  0.15294330000E+03 0.  0.
    8880022    1    1    2    0    0  0.10974391531E+04  0.56169697355E+02  0.16875969198E+04  0.20196293587E+04  0.15294330000E+03 0.  0.
<mgrwt>
<rscale>  0 0.11094681E+04</rscale>
<asrwt>0</asrwt>
<pdfrwt beam="1">  1        1 0.48169450E+00 0.11094681E+04</pdfrwt>
<pdfrwt beam="2">  1       -1 0.62602968E-01 0.11094681E+04</pdfrwt>
<totfact> 0.12560928E+00</totfact>
</mgrwt>
</event>
<event>
 4    1  0.1678003E-008  0.1877821E+03  0.7818608E-02  0.1160477E+00
          1   -1    0    0  501    0  0.00000000000E+00  0.00000000000E+00  0.23700220593E+04  0.23700220593E+04  0.50400000000E-02 0. -1.
         -1   -1    0    0    0  501 -0.00000000000E+00 -0.00000000000E+00 -0.55866116493E+03  0.55866116495E+03  0.50400000000E-02 0.  1.
    8880022    1    1    2    0    0 -0.72726270595E+02  0.81125536638E+02 -0.53903023924E+03  0.57080269354E+03  0.15294330000E+03 0.  1.
    8880022    1    1    2    0    0  0.72726270595E+02 -0.81125536638E+02  0.23503911336E+04  0.23578805307E+04  0.15294330000E+03 0.  0.
<mgrwt>
<rscale>  0 0.18778210E+03</rscale>
<asrwt>0</asrwt>
<pdfrwt beam="1">  1        1 0.36461877E+00 0.18778210E+03</pdfrwt>
<pdfrwt beam="2">  1       -1 0.85947873E-01 0.18778210E+03</pdfrwt>
<totfact> 0.29330297E+00</totfact>
</mgrwt>
</event>
<event>
 4    1  0.1678003E-008  0.2159519E+03  0.7818608E-02  0.1136938E+00
          1   -1    0    0  501    0  0.00000000000E+00  0.00000000000E+00  0.50460472427E+03  0.50460472429E+03  0.50400000000E-02 0. -1.
         -1   -1    0    0    0  501 -0.00000000000E+00 -0.00000000000E+00 -0.73631690037E+03  0.73631690039E+03  0.50400000000E-02 0.  1.
    8880022    1    1    2    0    0 -0.20148755616E+02  0.15112108803E+03  0.46436082023E+03  0.51211930248E+03  0.15294330000E+03 0.  0.
    8880022    1    1    2    0    0  0.20148755616E+02 -0.15112108803E+03 -0.69607299633E+03  0.72880232219E+03  0.15294330000E+03 0.  1.
<mgrwt>
<rscale>  0 0.21595187E+03</rscale>
<asrwt>0</asrwt>
<pdfrwt beam="1">  1        1 0.77631496E-01 0.21595187E+03</pdfrwt>
<pdfrwt beam="2">  1       -1 0.11327952E+00 0.21595187E+03</pdfrwt>
<totfact> 0.34870812E+01</totfact>
</mgrwt>
</event>
<event>
 4    1  0.1678003E-008  0.2815389E+03  0.7818608E-02  0.1094851E+00
         -1   -1    0    0    0  501 -0.00000000000E+00  0.00000000000E+00  0.11442360690E+04  0.11442360690E+04  0.50400000000E-02 0.  1.
          1   -1    0    0  501    0  0.00000000000E+00 -0.00000000000E+00 -0.14950766813E+03  0.14950766822E+03  0.50400000000E-02 0. -1.
    8880022    1    1    2    0    0 -0.14891545694E+02 -0.23590405925E+03  0.97124467226E+03  0.10112271504E+04  0.15294330000E+03 0.  0.
    8880022    1    1    2    0    0  0.14891545694E+02  0.23590405925E+03  0.23483728600E+02  0.28251658682E+03  0.15294330000E+03 0.  0.
<mgrwt>
<rscale>  0 0.28153887E+03</rscale>
<asrwt>0</asrwt>
<pdfrwt beam="1">  1        1 0.23001180E-01 0.28153887E+03</pdfrwt>
<pdfrwt beam="2">  1       -1 0.17603631E+00 0.28153887E+03</pdfrwt>
<totfact> 0.52176599E+01</totfact>
</mgrwt>
</event>
<event>
 4    1  0.1678003E-008  0.1036610E+04  0.7818608E-02  0.9269278E-01
          1   -1    0    0  501    0  0.00000000000E+00  0.00000000000E+00  0.14739312232E+04  0.14739312232E+04  0.50400000000E-02 0. -1.
         -1   -1    0    0    0  501 -0.00000000000E+00 -0.00000000000E+00 -0.12957799961E+04  0.12957799961E+04  0.50400000000E-02 0.  1.
    8880022    1    1    2    0    0 -0.33207510409E+03  0.96999755022E+03  0.10049359306E+04  0.14437648700E+04  0.15294330000E+03 0.  0.
    8880022    1    1    2    0    0  0.33207510409E+03 -0.96999755022E+03 -0.82678470357E+03  0.13259463493E+04  0.15294330000E+03 0.  0.
<mgrwt>
<rscale>  0 0.10366102E+04</rscale>
<asrwt>0</asrwt>
<pdfrwt beam="1">  1        1 0.22675865E+00 0.10366102E+04</pdfrwt>
<pdfrwt beam="2">  1       -1 0.19935077E+00 0.10366102E+04</pdfrwt>
<totfact> 0.10386845E+00</totfact>
</mgrwt>
</event>
<event>
 4    1  0.1678003E-008  0.6192044E+03  0.7818608E-02  0.9866345E-01
         -1   -1    0    0    0  501 -0.00000000000E+00  0.00000000000E+00  0.55760249103E+03  0.55760249106E+03  0.50400000000E-02 0.  1.
          1   -1    0    0  501    0  0.00000000000E+00 -0.00000000000E+00 -0.75744000340E+03  0.75744000341E+03  0.50400000000E-02 0. -1.
    8880022    1    1    2    0    0 -0.17020952040E+03 -0.57537042337E+03 -0.29956037206E+03  0.68785934205E+03  0.15294330000E+03 0.  0.
    8880022    1    1    2    0    0  0.17020952040E+03  0.57537042337E+03  0.99722859700E+02  0.62718315242E+03  0.15294330000E+03 0.  0.
<mgrwt>
<rscale>  0 0.61920437E+03</rscale>
<asrwt>0</asrwt>
<pdfrwt beam="1">  1        1 0.11652923E+00 0.61920437E+03</pdfrwt>
<pdfrwt beam="2">  1       -1 0.85784998E-01 0.61920437E+03</pdfrwt>
<totfact> 0.33654829E+01</totfact>
</mgrwt>
</event>
<event>
 4    1  0.1678003E-008  0.3107885E+03  0.7818608E-02  0.1079969E+00
         -1   -1    0    0    0  501 -0.00000000000E+00  0.00000000000E+00  0.51998480972E+02  0.51998481216E+02  0.50400000000E-02 0.  1.
          1   -1    0    0  501    0  0.00000000000E+00 -0.00000000000E+00 -0.28843762829E+04  0.28843762829E+04  0.50400000000E-02 0. -1.
    8880022    1    1    2    0    0 -0.75023630520E+02  0.25994099570E+03 -0.22921908484E+04  0.23131641543E+04  0.15294330000E+03 0.  0.
    8880022    1    1    2    0    0  0.75023630520E+02 -0.25994099570E+03 -0.54018695355E+03  0.62321060981E+03  0.15294330000E+03 0.  0.
<mgrwt>
<rscale>  0 0.31078854E+03</rscale>
<asrwt>0</asrwt>
<pdfrwt beam="1">  1        1 0.44375007E+00 0.31078854E+03</pdfrwt>
<pdfrwt beam="2">  1       -1 0.79997686E-02 0.31078854E+03</pdfrwt>
<totfact> 0.74150020E+01</totfact>
</mgrwt>
</event>
<event>
 4    1  0.1678003E-008  0.9378113E+03  0.7818608E-02  0.9379512E-01
          1   -1    0    0  501    0  0.00000000000E+00  0.00000000000E+00  0.92525041628E+03  0.92525041629E+03  0.50400000000E-02 0. -1.
         -1   -1    0    0    0  501 -0.00000000000E+00 -0.00000000000E+00 -0.10350374600E+04  0.10350374600E+04  0.50400000000E-02 0.  1.
    8880022    1    1    2    0    0 -0.81975072030E+03 -0.42907699267E+03  0.22515088179E+03  0.96445989116E+03  0.15294330000E+03 0.  0.
    8880022    1    1    2    0    0  0.81975072030E+03  0.42907699267E+03 -0.33493792553E+03  0.99582798517E+03  0.15294330000E+03 0.  0.
<mgrwt>
<rscale>  0 0.93781126E+03</rscale>
<asrwt>0</asrwt>
<pdfrwt beam="1">  1        1 0.14234622E+00 0.93781126E+03</pdfrwt>
<pdfrwt beam="2">  1       -1 0.15923653E+00 0.93781126E+03</pdfrwt>
<totfact> 0.51902817E+00</totfact>
</mgrwt>
</event>
<event>
 4    1  0.1678003E-008  0.7998568E+03  0.7818608E-02  0.9560224E-01
         -1   -1    0    0    0  501 -0.00000000000E+00  0.00000000000E+00  0.41279275836E+03  0.41279275839E+03  0.50400000000E-02 0.  1.
          1   -1    0    0  501    0  0.00000000000E+00 -0.00000000000E+00 -0.34764664034E+04  0.34764664034E+04  0.50400000000E-02 0. -1.
    8880022    1    1    2    0    0  0.71977613424E+03  0.31353073481E+03 -0.84184059352E+02  0.80427471299E+03  0.15294330000E+03 0.  0.
    8880022    1    1    2    0    0 -0.71977613424E+03 -0.31353073481E+03 -0.29794895857E+04  0.30849844488E+04  0.15294330000E+03 0.  0.
<mgrwt>
<rscale>  0 0.79985677E+03</rscale>
<asrwt>0</asrwt>
<pdfrwt beam="1">  1        1 0.53484097E+00 0.79985677E+03</pdfrwt>
<pdfrwt beam="2">  1       -1 0.63506581E-01 0.79985677E+03</pdfrwt>
<totfact> 0.70870823E-01</totfact>
</mgrwt>
</event>
<event>
 4    1  0.1678003E-008  0.5539002E+03  0.7818608E-02  0.1000595E+00
          1   -1    0    0  501    0  0.00000000000E+00  0.00000000000E+00  0.32352135508E+04  0.32352135508E+04  0.50400000000E-02 0. -1.
         -1   -1    0    0    0  501 -0.00000000000E+00 -0.00000000000E+00 -0.14604570784E+03  0.14604570793E+03  0.50400000000E-02 0.  1.
    8880022    1    1    2    0    0  0.29241866366E+03  0.44486531749E+03  0.54344965064E+03  0.77597873769E+03  0.15294330000E+03 0.  0.
    8880022    1    1    2    0    0 -0.29241866366E+03 -0.44486531749E+03  0.25457181923E+04  0.26052805210E+04  0.15294330000E+03 0.  0.
<mgrwt>
<rscale>  0 0.55390024E+03</rscale>
<asrwt>0</asrwt>
<pdfrwt beam="1">  1        1 0.49772516E+00 0.55390024E+03</pdfrwt>
<pdfrwt beam="2">  1       -1 0.22468570E-01 0.55390024E+03</pdfrwt>
<totfact> 0.74859312E+00</totfact>
</mgrwt>
</event>
<event>
 4    1  0.1678003E-008  0.7371355E+03  0.7818608E-02  0.9655752E-01
          1   -1    0    0  501    0  0.00000000000E+00  0.00000000000E+00  0.18690964065E+04  0.18690964065E+04  0.50400000000E-02 0. -1.
         -1   -1    0    0    0  501 -0.00000000000E+00 -0.00000000000E+00 -0.88323677203E+03  0.88323677205E+03  0.50400000000E-02 0.  1.
    8880022    1    1    2    0    0  0.46887866855E+03 -0.54784105554E+03 -0.63423054828E+03  0.97242843919E+03  0.15294330000E+03 0.  0.
    8880022    1    1    2    0    0 -0.46887866855E+03  0.54784105554E+03  0.16200901828E+04  0.17799047394E+04  0.15294330000E+03 0.  0.
<mgrwt>
<rscale>  0 0.73713546E+03</rscale>
<asrwt>0</asrwt>
<pdfrwt beam="1">  1        1 0.28755329E+00 0.73713546E+03</pdfrwt>
<pdfrwt beam="2">  1       -1 0.13588258E+00 0.73713546E+03</pdfrwt>
<totfact> 0.17488634E+00</totfact>
</mgrwt>
</event>
<event>
 4    1  0.1678003E-008  0.8879990E+03  0.7818608E-02  0.9440709E-01
          1   -1    0    0  501    0  0.00000000000E+00  0.00000000000E+00  0.13533204083E+04  0.13533204083E+04  0.50400000000E-02 0. -1.
         -1   -1    0    0    0  501 -0.00000000000E+00 -0.00000000000E+00 -0.67903581429E+03  0.67903581430E+03  0.50400000000E-02 0.  1.
    8880022    1    1    2    0    0 -0.81370627054E+03  0.32098711211E+03  0.71994930418E+03  0.11431838323E+04  0.15294330000E+03 0.  0.
    8880022    1    1    2    0    0  0.81370627054E+03 -0.32098711211E+03 -0.45664710192E+02  0.88917239028E+03  0.15294330000E+03 0.  0.
<mgrwt>
<rscale>  0 0.88799903E+03</rscale>
<asrwt>0</asrwt>
<pdfrwt beam="1">  1        1 0.20820314E+00 0.88799903E+03</pdfrwt>
<pdfrwt beam="2">  1       -1 0.10446705E+00 0.88799903E+03</pdfrwt>
<totfact> 0.72695969E+00</totfact>
</mgrwt>
</event>
<event>
 4    1  0.1678003E-008  0.7764105E+03  0.7818608E-02  0.9594804E-01
          1   -1    0    0  501    0  0.00000000000E+00  0.00000000000E+00  0.39034766423E+04  0.39034766423E+04  0.50400000000E-02 0. -1.
         -1   -1    0    0    0  501 -0.00000000000E+00 -0.00000000000E+00 -0.44471028875E+03  0.44471028878E+03  0.50400000000E-02 0.  1.
    8880022    1    1    2    0    0 -0.96729985021E+02  0.75502643718E+03 -0.27118289934E+02  0.77688394597E+03  0.15294330000E+03 0.  0.
    8880022    1    1    2    0    0  0.96729985021E+02 -0.75502643718E+03  0.34858846435E+04  0.35713029851E+04  0.15294330000E+03 0.  0.
<mgrwt>
<rscale>  0 0.77641050E+03</rscale>
<asrwt>0</asrwt>
<pdfrwt beam="1">  1        1 0.60053487E+00 0.77641050E+03</pdfrwt>
<pdfrwt beam="2">  1       -1 0.68416968E-01 0.77641050E+03</pdfrwt>
<totfact> 0.27802906E-01</totfact>
</mgrwt>
</event>
<event>
 4    1  0.1678003E-008  0.8671444E+03  0.7818608E-02  0.9467611E-01
         -1   -1    0    0    0  501 -0.00000000000E+00  0.00000000000E+00  0.23689231003E+04  0.23689231003E+04  0.50400000000E-02 0.  1.
          1   -1    0    0  501    0  0.00000000000E+00 -0.00000000000E+00 -0.76281249839E+03  0.76281249841E+03  0.50400000000E-02 0. -1.
    8880022    1    1    2    0    0  0.85250659209E+03 -0.42193740248E+02  0.19995712430E+04  0.21795010003E+04  0.15294330000E+03 0.  0.
    8880022    1    1    2    0    0 -0.85250659209E+03  0.42193740248E+02 -0.39346064114E+03  0.95223459841E+03  0.15294330000E+03 0.  0.
<mgrwt>
<rscale>  0 0.86714443E+03</rscale>
<asrwt>0</asrwt>
<pdfrwt beam="1">  1        1 0.11735577E+00 0.86714443E+03</pdfrwt>
<pdfrwt beam="2">  1       -1 0.36444971E+00 0.86714443E+03</pdfrwt>
<totfact> 0.31065583E-01</totfact>
</mgrwt>
</event>
<event>
 4    1  0.1678003E-008  0.6732437E+03  0.7818608E-02  0.9764116E-01
         -1   -1    0    0    0  501 -0.00000000000E+00  0.00000000000E+00  0.80869038088E+03  0.80869038089E+03  0.50400000000E-02 0.  1.
          1   -1    0    0  501    0  0.00000000000E+00 -0.00000000000E+00 -0.88758427367E+03  0.88758427368E+03  0.50400000000E-02 0. -1.
    8880022    1    1    2    0    0  0.60223676842E+03 -0.25918391172E+03  0.47542900118E+03  0.82419039882E+03  0.15294330000E+03 0.  1.
    8880022    1    1    2    0    0 -0.60223676842E+03  0.25918391172E+03 -0.55432289397E+03  0.87208425575E+03  0.15294330000E+03 0.  0.
<mgrwt>
<rscale>  0 0.67324370E+03</rscale>
<asrwt>0</asrwt>
<pdfrwt beam="1">  1        1 0.13655143E+00 0.67324370E+03</pdfrwt>
<pdfrwt beam="2">  1       -1 0.12441391E+00 0.67324370E+03</pdfrwt>
<totfact> 0.10996732E+01</totfact>
</mgrwt>
</event>
<event>
 4    1  0.1678003E-008  0.2513846E+03  0.7818608E-02  0.1112433E+00
         -1   -1    0    0    0  501 -0.00000000000E+00  0.00000000000E+00  0.41233750632E+03  0.41233750635E+03  0.50400000000E-02 0.  1.
          1   -1    0    0  501    0  0.00000000000E+00 -0.00000000000E+00 -0.48205783295E+03  0.48205783298E+03  0.50400000000E-02 0. -1.
    8880022    1    1    2    0    0  0.18187117668E+03 -0.82008658301E+02  0.33447058953E+03  0.41840742491E+03  0.15294330000E+03 0.  0.
    8880022    1    1    2    0    0 -0.18187117668E+03  0.82008658301E+02 -0.40419091617E+03  0.47598791441E+03  0.15294330000E+03 0.  0.
<mgrwt>
<rscale>  0 0.25138456E+03</rscale>
<asrwt>0</asrwt>
<pdfrwt beam="1">  1        1 0.74162743E-01 0.25138456E+03</pdfrwt>
<pdfrwt beam="2">  1       -1 0.63436540E-01 0.25138456E+03</pdfrwt>
<totfact> 0.12546647E+02</totfact>
</mgrwt>
</event>
<event>
 4    1  0.1678003E-008  0.9128807E+03  0.7818608E-02  0.9409622E-01
          1   -1    0    0  501    0  0.00000000000E+00  0.00000000000E+00  0.17418465108E+04  0.17418465108E+04  0.50400000000E-02 0. -1.
         -1   -1    0    0    0  501 -0.00000000000E+00 -0.00000000000E+00 -0.65837967467E+03  0.65837967469E+03  0.50400000000E-02 0.  1.
    8880022    1    1    2    0    0  0.85395668371E+03 -0.28410821020E+03  0.11691555469E+04  0.14833326797E+04  0.15294330000E+03 0.  0.
    8880022    1    1    2    0    0 -0.85395668371E+03  0.28410821020E+03 -0.85688710803E+02  0.91689350578E+03  0.15294330000E+03 0.  1.
<mgrwt>
<rscale>  0 0.91288069E+03</rscale>
<asrwt>0</asrwt>
<pdfrwt beam="1">  1        1 0.26797638E+00 0.91288069E+03</pdfrwt>
<pdfrwt beam="2">  1       -1 0.10128918E+00 0.91288069E+03</pdfrwt>
<totfact> 0.42123848E+00</totfact>
</mgrwt>
</event>
<event>
 4    1  0.1678003E-008  0.3315580E+03  0.7818608E-02  0.1070450E+00
          1   -1    0    0  501    0  0.00000000000E+00  0.00000000000E+00  0.14134828637E+03  0.14134828646E+03  0.50400000000E-02 0. -1.
         -1   -1    0    0    0  501 -0.00000000000E+00 -0.00000000000E+00 -0.90760240645E+03  0.90760240646E+03  0.50400000000E-02 0.  1.
    8880022    1    1    2    0    0 -0.10825134191E+03 -0.27353376725E+03 -0.58152474012E+03  0.66940402690E+03  0.15294330000E+03 0.  1.
    8880022    1    1    2    0    0  0.10825134191E+03  0.27353376725E+03 -0.18472937996E+03  0.37954666602E+03  0.15294330000E+03 0. -1.
<mgrwt>
<rscale>  0 0.33155803E+03</rscale>
<asrwt>0</asrwt>
<pdfrwt beam="1">  1        1 0.21745891E-01 0.33155803E+03</pdfrwt>
<pdfrwt beam="2">  1       -1 0.13963114E+00 0.33155803E+03</pdfrwt>
<totfact> 0.10405381E+02</totfact>
</mgrwt>
</event>
<event>
 4    1  0.1678003E-008  0.4609652E+03  0.7818608E-02  0.1024502E+00
          1   -1    0    0  501    0  0.00000000000E+00  0.00000000000E+00  0.22167621712E+04  0.22167621712E+04  0.50400000000E-02 0. -1.
         -1   -1    0    0    0  501 -0.00000000000E+00 -0.00000000000E+00 -0.15917306320E+03  0.15917306328E+03  0.50400000000E-02 0.  1.
    8880022    1    1    2    0    0  0.15568815779E+03 -0.40602763237E+03  0.27953577834E+03  0.53910031081E+03  0.15294330000E+03 0.  0.
    8880022    1    1    2    0    0 -0.15568815779E+03  0.40602763237E+03  0.17780533296E+04  0.18368349236E+04  0.15294330000E+03 0.  0.
<mgrwt>
<rscale>  0 0.46096518E+03</rscale>
<asrwt>0</asrwt>
<pdfrwt beam="1">  1        1 0.34104036E+00 0.46096518E+03</pdfrwt>
<pdfrwt beam="2">  1       -1 0.24488162E-01 0.46096518E+03</pdfrwt>
<totfact> 0.33607019E+01</totfact>
</mgrwt>
</event>
<event>
 4    1  0.1678003E-008  0.3826827E+03  0.7818608E-02  0.1049947E+00
         -1   -1    0    0    0  501 -0.00000000000E+00  0.00000000000E+00  0.25961301110E+03  0.25961301115E+03  0.50400000000E-02 0.  1.
          1   -1    0    0  501    0  0.00000000000E+00 -0.00000000000E+00 -0.10480930722E+04  0.10480930723E+04  0.50400000000E-02 0. -1.
    8880022    1    1    2    0    0  0.35071550597E+03 -0.72815055309E+01 -0.83856699009E+03  0.92175953282E+03  0.15294330000E+03 0.  0.
    8880022    1    1    2    0    0 -0.35071550597E+03  0.72815055309E+01  0.50086928949E+02  0.38594655059E+03  0.15294330000E+03 0.  0.
<mgrwt>
<rscale>  0 0.38268269E+03</rscale>
<asrwt>0</asrwt>
<pdfrwt beam="1">  1        1 0.16124509E+00 0.38268269E+03</pdfrwt>
<pdfrwt beam="2">  1       -1 0.39940464E-01 0.38268269E+03</pdfrwt>
<totfact> 0.90356052E+01</totfact>
</mgrwt>
</event>
<event>
 4    1  0.1678003E-008  0.4723791E+03  0.7818608E-02  0.1021251E+00
         -1   -1    0    0    0  501 -0.00000000000E+00  0.00000000000E+00  0.47150882581E+03  0.47150882584E+03  0.50400000000E-02 0.  1.
          1   -1    0    0  501    0  0.00000000000E+00 -0.00000000000E+00 -0.82442950900E+03  0.82442950902E+03  0.50400000000E-02 0. -1.
    8880022    1    1    2    0    0 -0.13647869762E+03 -0.42558659134E+03  0.24644340000E+03  0.53280051056E+03  0.15294330000E+03 0.  0.
    8880022    1    1    2    0    0  0.13647869762E+03  0.42558659134E+03 -0.59936408320E+03  0.76313782430E+03  0.15294330000E+03 0.  0.
<mgrwt>
<rscale>  0 0.47237912E+03</rscale>
<asrwt>0</asrwt>
<pdfrwt beam="1">  1        1 0.12683531E+00 0.47237912E+03</pdfrwt>
<pdfrwt beam="2">  1       -1 0.72539820E-01 0.47237912E+03</pdfrwt>
<totfact> 0.42769094E+01</totfact>
</mgrwt>
</event>
<event>
 4    1  0.1678003E-008  0.6366651E+03  0.7818608E-02  0.9832128E-01
         -1   -1    0    0    0  501 -0.00000000000E+00  0.00000000000E+00  0.77726915169E+03  0.77726915171E+03  0.50400000000E-02 0.  1.
          1   -1    0    0  501    0  0.00000000000E+00 -0.00000000000E+00 -0.10695564516E+04  0.10695564516E+04  0.50400000000E-02 0. -1.
    8880022    1    1    2    0    0  0.37075172911E+03 -0.49446329864E+03 -0.80715424610E+03  0.10280274453E+04  0.15294330000E+03 0.  0.
    8880022    1    1    2    0    0 -0.37075172911E+03  0.49446329864E+03  0.51486694616E+03  0.81879815803E+03  0.15294330000E+03 0.  0.
<mgrwt>
<rscale>  0 0.63666510E+03</rscale>
<asrwt>0</asrwt>
<pdfrwt beam="1">  1        1 0.16454715E+00 0.63666510E+03</pdfrwt>
<pdfrwt beam="2">  1       -1 0.11957987E+00 0.63666510E+03</pdfrwt>
<totfact> 0.87870667E+00</totfact>
</mgrwt>
</event>
<event>
 4    1  0.1678003E-008  0.3433407E+03  0.7818608E-02  0.1065382E+00
          1   -1    0    0  501    0  0.00000000000E+00  0.00000000000E+00  0.62008881730E+03  0.62008881732E+03  0.50400000000E-02 0. -1.
         -1   -1    0    0    0  501 -0.00000000000E+00 -0.00000000000E+00 -0.35490889676E+03  0.35490889679E+03  0.50400000000E-02 0.  1.
    8880022    1    1    2    0    0 -0.11958268121E+03 -0.28318040366E+03  0.46478805666E+03  0.57785010971E+03  0.15294330000E+03 0. -1.
    8880022    1    1    2    0    0  0.11958268121E+03  0.28318040366E+03 -0.19960813612E+03  0.39714760440E+03  0.15294330000E+03 0.  1.
<mgrwt>
<rscale>  0 0.34334066E+03</rscale>
<asrwt>0</asrwt>
<pdfrwt beam="1">  1        1 0.95398279E-01 0.34334066E+03</pdfrwt>
<pdfrwt beam="2">  1       -1 0.54601369E-01 0.34334066E+03</pdfrwt>
<totfact> 0.11701267E+02</totfact>
</mgrwt>
</event>
<event>
 4    1  0.1678003E-008  0.5351780E+03  0.7818608E-02  0.1004984E+00
          1   -1    0    0  501    0  0.00000000000E+00  0.00000000000E+00  0.16337422245E+04  0.16337422245E+04  0.50400000000E-02 0. -1.
         -1   -1    0    0    0  501 -0.00000000000E+00 -0.00000000000E+00 -0.27082628938E+03  0.27082628943E+03  0.50400000000E-02 0.  1.
    8880022    1    1    2    0    0 -0.86402486271E+02  0.50552789683E+03  0.11592992555E+03  0.54759039871E+03  0.15294330000E+03 0.  0.
    8880022    1    1    2    0    0  0.86402486271E+02 -0.50552789683E+03  0.12469860095E+04  0.13569781152E+04  0.15294330000E+03 0.  0.
<mgrwt>
<rscale>  0 0.53517801E+03</rscale>
<asrwt>0</asrwt>
<pdfrwt beam="1">  1        1 0.25134496E+00 0.53517801E+03</pdfrwt>
<pdfrwt beam="2">  1       -1 0.41665583E-01 0.53517801E+03</pdfrwt>
<totfact> 0.31870086E+01</totfact>
</mgrwt>
</event>
<event>
 4    1  0.1678003E-008  0.3827758E+03  0.7818608E-02  0.1049913E+00
         -1   -1    0    0    0  501 -0.00000000000E+00  0.00000000000E+00  0.40264083025E+03  0.40264083028E+03  0.50400000000E-02 0.  1.
          1   -1    0    0  501    0  0.00000000000E+00 -0.00000000000E+00 -0.83995873923E+03  0.83995873925E+03  0.50400000000E-02 0. -1.
    8880022    1    1    2    0    0 -0.34755833453E+03  0.48258478849E+02 -0.68640126165E+03  0.78591603985E+03  0.15294330000E+03 0.  0.
    8880022    1    1    2    0    0  0.34755833453E+03 -0.48258478849E+02  0.24908335267E+03  0.45668352968E+03  0.15294330000E+03 0.  0.
<mgrwt>
<rscale>  0 0.38277582E+03</rscale>
<asrwt>0</asrwt>
<pdfrwt beam="1">  1        1 0.12922442E+00 0.38277582E+03</pdfrwt>
<pdfrwt beam="2">  1       -1 0.61944743E-01 0.38277582E+03</pdfrwt>
<totfact> 0.57814656E+01</totfact>
</mgrwt>
</event>
<event>
 4    1  0.1678003E-008  0.6683481E+03  0.7818608E-02  0.9772947E-01
         -1   -1    0    0    0  501 -0.00000000000E+00  0.00000000000E+00  0.34769603188E+03  0.34769603191E+03  0.50400000000E-02 0.  1.
          1   -1    0    0  501    0  0.00000000000E+00 -0.00000000000E+00 -0.34973485039E+04  0.34973485039E+04  0.50400000000E-02 0. -1.
    8880022    1    1    2    0    0  0.12960492863E+03 -0.63757357437E+03 -0.31040005386E+04  0.31751391303E+04  0.15294330000E+03 0.  0.
    8880022    1    1    2    0    0 -0.12960492863E+03  0.63757357437E+03 -0.45651933410E+02  0.66990540548E+03  0.15294330000E+03 0.  0.
<mgrwt>
<rscale>  0 0.66834808E+03</rscale>
<asrwt>0</asrwt>
<pdfrwt beam="1">  1        1 0.53805359E+00 0.66834808E+03</pdfrwt>
<pdfrwt beam="2">  1       -1 0.53491700E-01 0.66834808E+03</pdfrwt>
<totfact> 0.98592883E-01</totfact>
</mgrwt>
</event>
<event>
 4    1  0.1678003E-008  0.3239658E+03  0.7818608E-02  0.1073838E+00
          1   -1    0    0  501    0  0.00000000000E+00  0.00000000000E+00  0.11262098775E+04  0.11262098775E+04  0.50400000000E-02 0. -1.
         -1   -1    0    0    0  501 -0.00000000000E+00 -0.00000000000E+00 -0.18157778614E+04  0.18157778614E+04  0.50400000000E-02 0.  1.
    8880022    1    1    2    0    0 -0.28395756277E+03  0.30500933369E+02  0.10879644063E+04  0.11351741747E+04  0.15294330000E+03 0.  0.
    8880022    1    1    2    0    0  0.28395756277E+03 -0.30500933369E+02 -0.17775323903E+04  0.18068135642E+04  0.15294330000E+03 0.  0.
<mgrwt>
<rscale>  0 0.32396583E+03</rscale>
<asrwt>0</asrwt>
<pdfrwt beam="1">  1        1 0.17326306E+00 0.32396583E+03</pdfrwt>
<pdfrwt beam="2">  1       -1 0.27935044E+00 0.32396583E+03</pdfrwt>
<totfact> 0.66442990E-01</totfact>
</mgrwt>
</event>
<event>
 4    1  0.1678003E-008  0.4277816E+03  0.7818608E-02  0.1034563E+00
         -1   -1    0    0    0  501 -0.00000000000E+00  0.00000000000E+00  0.36805992530E+03  0.36805992534E+03  0.50400000000E-02 0.  1.
          1   -1    0    0  501    0  0.00000000000E+00 -0.00000000000E+00 -0.92482736181E+03  0.92482736183E+03  0.50400000000E-02 0. -1.
    8880022    1    1    2    0    0 -0.39819609595E+03  0.32331335302E+02  0.16119458122E+03  0.45714416993E+03  0.15294330000E+03 0.  0.
    8880022    1    1    2    0    0  0.39819609595E+03 -0.32331335302E+02 -0.71796201773E+03  0.83574311723E+03  0.15294330000E+03 0.  0.
<mgrwt>
<rscale>  0 0.42778160E+03</rscale>
<asrwt>0</asrwt>
<pdfrwt beam="1">  1        1 0.14228113E+00 0.42778160E+03</pdfrwt>
<pdfrwt beam="2">  1       -1 0.56624604E-01 0.42778160E+03</pdfrwt>
<totfact> 0.58330516E+01</totfact>
</mgrwt>
</event>
<event>
 4    1  0.1678003E-008  0.6024595E+03  0.7818608E-02  0.9900317E-01
          1   -1    0    0  501    0  0.00000000000E+00  0.00000000000E+00  0.10756161656E+04  0.10756161656E+04  0.50400000000E-02 0. -1.
         -1   -1    0    0    0  501 -0.00000000000E+00 -0.00000000000E+00 -0.79839015046E+03  0.79839015047E+03  0.50400000000E-02 0.  1.
    8880022    1    1    2    0    0 -0.23149469340E+03  0.53476722422E+03  0.85057988239E+03  0.10423260366E+04  0.15294330000E+03 0.  0.
    8880022    1    1    2    0    0  0.23149469340E+03 -0.53476722422E+03 -0.57335386727E+03  0.83168027949E+03  0.15294330000E+03 0.  1.
<mgrwt>
<rscale>  0 0.60245948E+03</rscale>
<asrwt>0</asrwt>
<pdfrwt beam="1">  1        1 0.16547941E+00 0.60245948E+03</pdfrwt>
<pdfrwt beam="2">  1       -1 0.12282925E+00 0.60245948E+03</pdfrwt>
<totfact> 0.81937270E+00</totfact>
</mgrwt>
</event>
<event>
 4    1  0.1678003E-008  0.4935970E+03  0.7818608E-02  0.1015464E+00
          1   -1    0    0  501    0  0.00000000000E+00  0.00000000000E+00  0.17992320831E+03  0.17992320838E+03  0.50400000000E-02 0. -1.
         -1   -1    0    0    0  501 -0.00000000000E+00 -0.00000000000E+00 -0.14458105163E+04  0.14458105163E+04  0.50400000000E-02 0.  1.
    8880022    1    1    2    0    0 -0.17813237217E+03  0.43418343206E+03 -0.42824252318E+03  0.65347510003E+03  0.15294330000E+03 0.  0.
    8880022    1    1    2    0    0  0.17813237217E+03 -0.43418343206E+03 -0.83764478478E+03  0.97225862463E+03  0.15294330000E+03 0.  0.
<mgrwt>
<rscale>  0 0.49359705E+03</rscale>
<asrwt>0</asrwt>
<pdfrwt beam="1">  1        1 0.27680495E-01 0.49359705E+03</pdfrwt>
<pdfrwt beam="2">  1       -1 0.22243238E+00 0.49359705E+03</pdfrwt>
<totfact> 0.19226664E+01</totfact>
</mgrwt>
</event>
<event>
 4    1  0.1678003E-008  0.3405219E+03  0.7818608E-02  0.1066574E+00
         -1   -1    0    0    0  501 -0.00000000000E+00  0.00000000000E+00  0.48696667393E+03  0.48696667395E+03  0.50400000000E-02 0.  1.
          1   -1    0    0  501    0  0.00000000000E+00 -0.00000000000E+00 -0.69209107241E+03  0.69209107243E+03  0.50400000000E-02 0. -1.
    8880022    1    1    2    0    0 -0.26254355851E+03  0.15373485634E+03 -0.58002423828E+03  0.67259445149E+03  0.15294330000E+03 0.  0.
    8880022    1    1    2    0    0  0.26254355851E+03 -0.15373485634E+03  0.37489983980E+03  0.50646329489E+03  0.15294330000E+03 0.  0.
<mgrwt>
<rscale>  0 0.34052192E+03</rscale>
<asrwt>0</asrwt>
<pdfrwt beam="1">  1        1 0.10647555E+00 0.34052192E+03</pdfrwt>
<pdfrwt beam="2">  1       -1 0.74917950E-01 0.34052192E+03</pdfrwt>
<totfact> 0.53540999E+01</totfact>
</mgrwt>
</event>
<event>
 4    1  0.1678003E-008  0.4502327E+03  0.7818608E-02  0.1027653E+00
         -1   -1    0    0    0  501 -0.00000000000E+00  0.00000000000E+00  0.82960696644E+03  0.82960696645E+03  0.50400000000E-02 0.  1.
          1   -1    0    0  501    0  0.00000000000E+00 -0.00000000000E+00 -0.30413042574E+03  0.30413042578E+03  0.50400000000E-02 0. -1.
    8880022    1    1    2    0    0 -0.41773160023E+03  0.69412722522E+02  0.51407381025E+03  0.68336033780E+03  0.15294330000E+03 0.  0.
    8880022    1    1    2    0    0  0.41773160023E+03 -0.69412722522E+02  0.11402730450E+02  0.45037705443E+03  0.15294330000E+03 0.  0.
<mgrwt>
<rscale>  0 0.45023268E+03</rscale>
<asrwt>0</asrwt>
<pdfrwt beam="1">  1        1 0.46789297E-01 0.45023268E+03</pdfrwt>
<pdfrwt beam="2">  1       -1 0.12763184E+00 0.45023268E+03</pdfrwt>
<totfact> 0.48128817E+01</totfact>
</mgrwt>
</event>
<event>
 4    1  0.1678003E-008  0.5708133E+03  0.7818608E-02  0.9967880E-01
          1   -1    0    0  501    0  0.00000000000E+00  0.00000000000E+00  0.78994623129E+03  0.78994623131E+03  0.50400000000E-02 0. -1.
         -1   -1    0    0    0  501 -0.00000000000E+00 -0.00000000000E+00 -0.53172070809E+03  0.53172070811E+03  0.50400000000E-02 0.  1.
    8880022    1    1    2    0    0 -0.33314005796E+03 -0.43755444449E+03  0.44206904458E+03  0.72197845072E+03  0.15294330000E+03 0.  0.
    8880022    1    1    2    0    0  0.33314005796E+03  0.43755444449E+03 -0.18384352138E+03  0.59968848870E+03  0.15294330000E+03 0.  0.
<mgrwt>
<rscale>  0 0.57081332E+03</rscale>
<asrwt>0</asrwt>
<pdfrwt beam="1">  1        1 0.12153019E+00 0.57081332E+03</pdfrwt>
<pdfrwt beam="2">  1       -1 0.81803185E-01 0.57081332E+03</pdfrwt>
<totfact> 0.35113638E+01</totfact>
</mgrwt>
</event>
<event>
 4    1  0.1678003E-008  0.7591888E+03  0.7818608E-02  0.9621044E-01
         -1   -1    0    0    0  501 -0.00000000000E+00  0.00000000000E+00  0.34711398431E+03  0.34711398435E+03  0.50400000000E-02 0.  1.
          1   -1    0    0  501    0  0.00000000000E+00 -0.00000000000E+00 -0.29617185502E+04  0.29617185502E+04  0.50400000000E-02 0. -1.
    8880022    1    1    2    0    0 -0.29637625673E+03 -0.68200955549E+03 -0.21068438745E+03  0.78788037383E+03  0.15294330000E+03 0.  0.
    8880022    1    1    2    0    0  0.29637625673E+03  0.68200955549E+03 -0.24039201784E+04  0.25209521607E+04  0.15294330000E+03 0.  0.
<mgrwt>
<rscale>  0 0.75918876E+03</rscale>
<asrwt>0</asrwt>
<pdfrwt beam="1">  1        1 0.45564899E+00 0.75918876E+03</pdfrwt>
<pdfrwt beam="2">  1       -1 0.53402153E-01 0.75918876E+03</pdfrwt>
<totfact> 0.24140297E+00</totfact>
</mgrwt>
</event>
<event>
 4    1  0.1678003E-008  0.6315196E+03  0.7818608E-02  0.9842088E-01
          1   -1    0    0  501    0  0.00000000000E+00  0.00000000000E+00  0.76111388549E+03  0.76111388550E+03  0.50400000000E-02 0. -1.
         -1   -1    0    0    0  501 -0.00000000000E+00 -0.00000000000E+00 -0.56816910575E+03  0.56816910578E+03  0.50400000000E-02 0.  1.
    8880022    1    1    2    0    0  0.89783438080E+02  0.60610583387E+03 -0.88859887345E+02  0.63774060573E+03  0.15294330000E+03 0.  0.
    8880022    1    1    2    0    0 -0.89783438080E+02 -0.60610583387E+03  0.28180466708E+03  0.69154238555E+03  0.15294330000E+03 0.  0.
<mgrwt>
<rscale>  0 0.63151960E+03</rscale>
<asrwt>0</asrwt>
<pdfrwt beam="1">  1        1 0.11709444E+00 0.63151960E+03</pdfrwt>
<pdfrwt beam="2">  1       -1 0.87410632E-01 0.63151960E+03</pdfrwt>
<totfact> 0.32023615E+01</totfact>
</mgrwt>
</event>
<event>
 4    1  0.1678003E-008  0.6937069E+03  0.7818608E-02  0.9728055E-01
         -1   -1    0    0    0  501 -0.00000000000E+00  0.00000000000E+00  0.11930386839E+04  0.11930386839E+04  0.50400000000E-02 0.  1.
          1   -1    0    0  501    0  0.00000000000E+00 -0.00000000000E+00 -0.63915161959E+03  0.63915161961E+03  0.50400000000E-02 0. -1.
    8880022    1    1    2    0    0  0.11871504446E+03  0.66614138926E+03 -0.27947145682E+03  0.74788606115E+03  0.15294330000E+03 0.  0.
    8880022    1    1    2    0    0 -0.11871504446E+03 -0.66614138926E+03  0.83335852108E+03  0.10843042423E+04  0.15294330000E+03 0.  0.
<mgrwt>
<rscale>  0 0.69370690E+03</rscale>
<asrwt>0</asrwt>
<pdfrwt beam="1">  1        1 0.98331019E-01 0.69370690E+03</pdfrwt>
<pdfrwt beam="2">  1       -1 0.18354441E+00 0.69370690E+03</pdfrwt>
<totfact> 0.63903446E+00</totfact>
</mgrwt>
</event>
<event>
 4    1  0.1678003E-008  0.5770084E+03  0.7818608E-02  0.9954289E-01
         -1   -1    0    0    0  501 -0.00000000000E+00  0.00000000000E+00  0.26464951814E+04  0.26464951814E+04  0.50400000000E-02 0.  1.
          1   -1    0    0  501    0  0.00000000000E+00 -0.00000000000E+00 -0.78829457606E+03  0.78829457607E+03  0.50400000000E-02 0. -1.
    8880022    1    1    2    0    0  0.44811239362E+03 -0.32976094588E+03  0.25035031773E+04  0.25691373670E+04  0.15294330000E+03 0.  1.
    8880022    1    1    2    0    0 -0.44811239362E+03  0.32976094588E+03 -0.64530257196E+03  0.86565239048E+03  0.15294330000E+03 0.  0.
<mgrwt>
<rscale>  0 0.57700836E+03</rscale>
<asrwt>0</asrwt>
<pdfrwt beam="1">  1        1 0.12127609E+00 0.57700836E+03</pdfrwt>
<pdfrwt beam="2">  1       -1 0.40715311E+00 0.57700836E+03</pdfrwt>
<totfact> 0.16377332E-01</totfact>
</mgrwt>
</event>
<event>
 4    1  0.1678003E-008  0.1183039E+04  0.7818608E-02  0.9127834E-01
         -1   -1    0    0    0  501 -0.00000000000E+00  0.00000000000E+00  0.79960345902E+03  0.79960345904E+03  0.50400000000E-02 0.  1.
          1   -1    0    0  501    0  0.00000000000E+00 -0.00000000000E+00 -0.23307340160E+04  0.23307340160E+04  0.50400000000E-02 0. -1.
    8880022    1    1    2    0    0 -0.32688658328E+03 -0.11266471784E+04  0.15478055323E+02  0.11831398591E+04  0.15294330000E+03 0.  0.
    8880022    1    1    2    0    0  0.32688658328E+03  0.11266471784E+04 -0.15466086123E+04  0.19471976159E+04  0.15294330000E+03 0.  0.
<mgrwt>
<rscale>  0 0.11830386E+04</rscale>
<asrwt>0</asrwt>
<pdfrwt beam="1">  1        1 0.35857446E+00 0.11830386E+04</pdfrwt>
<pdfrwt beam="2">  1       -1 0.12301592E+00 0.11830386E+04</pdfrwt>
<totfact> 0.10211591E+00</totfact>
</mgrwt>
</event>
<event>
 4    1  0.1678003E-008  0.2681587E+03  0.7818608E-02  0.1102338E+00
         -1   -1    0    0    0  501 -0.00000000000E+00  0.00000000000E+00  0.44201613369E+03  0.44201613372E+03  0.50400000000E-02 0.  1.
          1   -1    0    0  501    0  0.00000000000E+00 -0.00000000000E+00 -0.62756874540E+03  0.62756874542E+03  0.50400000000E-02 0. -1.
    8880022    1    1    2    0    0 -0.12089338096E+03  0.18412557260E+03 -0.55306161037E+03  0.61464317610E+03  0.15294330000E+03 0. -1.
    8880022    1    1    2    0    0  0.12089338096E+03 -0.18412557260E+03  0.36750899866E+03  0.45494170303E+03  0.15294330000E+03 0.  0.
<mgrwt>
<rscale>  0 0.26815870E+03</rscale>
<asrwt>0</asrwt>
<pdfrwt beam="1">  1        1 0.96549038E-01 0.26815870E+03</pdfrwt>
<pdfrwt beam="2">  1       -1 0.68002482E-01 0.26815870E+03</pdfrwt>
<totfact> 0.76104906E+01</totfact>
</mgrwt>
</event>
<event>
 4    1  0.1678003E-008  0.5148966E+03  0.7818608E-02  0.1009962E+00
         -1   -1    0    0    0  501 -0.00000000000E+00  0.00000000000E+00  0.48496778717E+03  0.48496778720E+03  0.50400000000E-02 0.  1.
          1   -1    0    0  501    0  0.00000000000E+00 -0.00000000000E+00 -0.18603187741E+04  0.18603187741E+04  0.50400000000E-02 0. -1.
    8880022    1    1    2    0    0 -0.43159057373E+03  0.23549190636E+03  0.29772203156E+03  0.59477468203E+03  0.15294330000E+03 0.  0.
    8880022    1    1    2    0    0  0.43159057373E+03 -0.23549190636E+03 -0.16730730184E+04  0.17505118792E+04  0.15294330000E+03 0. -1.
<mgrwt>
<rscale>  0 0.51489661E+03</rscale>
<asrwt>0</asrwt>
<pdfrwt beam="1">  1        1 0.28620288E+00 0.51489661E+03</pdfrwt>
<pdfrwt beam="2">  1       -1 0.74610430E-01 0.51489661E+03</pdfrwt>
<totfact> 0.73436101E+00</totfact>
</mgrwt>
</event>
<event>
 4    1  0.1678003E-008  0.1763574E+03  0.7818608E-02  0.1171376E+00
          1   -1    0    0  501    0  0.00000000000E+00  0.00000000000E+00  0.12014269843E+04  0.12014269843E+04  0.50400000000E-02 0. -1.
         -1   -1    0    0    0  501 -0.00000000000E+00 -0.00000000000E+00 -0.34423757962E+03  0.34423757966E+03  0.50400000000E-02 0.  1.
    8880022    1    1    2    0    0  0.44349723480E+02  0.75785159129E+02  0.11717996569E+04  0.11849963617E+04  0.15294330000E+03 0. -1.
    8880022    1    1    2    0    0 -0.44349723480E+02 -0.75785159129E+02 -0.31461025222E+03  0.36066820228E+03  0.15294330000E+03 0.  0.
<mgrwt>
<rscale>  0 0.17635742E+03</rscale>
<asrwt>0</asrwt>
<pdfrwt beam="1">  1        1 0.18483492E+00 0.17635742E+03</pdfrwt>
<pdfrwt beam="2">  1       -1 0.52959628E-01 0.17635742E+03</pdfrwt>
<totfact> 0.44396517E+01</totfact>
</mgrwt>
</event>
<event>
 4    1  0.1678003E-008  0.5820530E+03  0.7818608E-02  0.9943356E-01
         -1   -1    0    0    0  501 -0.00000000000E+00  0.00000000000E+00  0.50904659591E+03  0.50904659594E+03  0.50400000000E-02 0.  1.
          1   -1    0    0  501    0  0.00000000000E+00 -0.00000000000E+00 -0.15517776736E+04  0.15517776736E+04  0.50400000000E-02 0. -1.
    8880022    1    1    2    0    0 -0.24015729675E+03 -0.50765984386E+03 -0.13000720560E+04  0.14244202498E+04  0.15294330000E+03 0.  0.
    8880022    1    1    2    0    0  0.24015729675E+03  0.50765984386E+03  0.25734097829E+03  0.63640401976E+03  0.15294330000E+03 0.  0.
<mgrwt>
<rscale>  0 0.58205300E+03</rscale>
<asrwt>0</asrwt>
<pdfrwt beam="1">  1        1 0.23873502E+00 0.58205300E+03</pdfrwt>
<pdfrwt beam="2">  1       -1 0.78314862E-01 0.58205300E+03</pdfrwt>
<totfact> 0.10512276E+01</totfact>
</mgrwt>
</event>
<event>
 4    1  0.1678003E-008  0.4231021E+03  0.7818608E-02  0.1036061E+00
         -1   -1    0    0    0  501 -0.00000000000E+00  0.00000000000E+00  0.83666161728E+03  0.83666161730E+03  0.50400000000E-02 0.  1.
          1   -1    0    0  501    0  0.00000000000E+00 -0.00000000000E+00 -0.68710295233E+03  0.68710295234E+03  0.50400000000E-02 0. -1.
    8880022    1    1    2    0    0  0.25664863406E+03 -0.29959171467E+03  0.70700390733E+03  0.82393561330E+03  0.15294330000E+03 0.  0.
    8880022    1    1    2    0    0 -0.25664863406E+03  0.29959171467E+03 -0.55744524238E+03  0.69982895634E+03  0.15294330000E+03 0.  0.
<mgrwt>
<rscale>  0 0.42310208E+03</rscale>
<asrwt>0</asrwt>
<pdfrwt beam="1">  1        1 0.10570815E+00 0.42310208E+03</pdfrwt>
<pdfrwt beam="2">  1       -1 0.12871717E+00 0.42310208E+03</pdfrwt>
<totfact> 0.15783687E+01</totfact>
</mgrwt>
</event>
<event>
 4    1  0.1678003E-008  0.3215088E+03  0.7818608E-02  0.1074957E+00
          1   -1    0    0  501    0  0.00000000000E+00  0.00000000000E+00  0.92865365426E+03  0.92865365427E+03  0.50400000000E-02 0. -1.
         -1   -1    0    0    0  501 -0.00000000000E+00 -0.00000000000E+00 -0.22685140116E+03  0.22685140121E+03  0.50400000000E-02 0.  1.
    8880022    1    1    2    0    0 -0.24400945255E+03 -0.14295321553E+03  0.76322743920E+03  0.82818114669E+03  0.15294330000E+03 0.  0.
    8880022    1    1    2    0    0  0.24400945255E+03  0.14295321553E+03 -0.61425186100E+02  0.32732390879E+03  0.15294330000E+03 0.  0.
<mgrwt>
<rscale>  0 0.32150877E+03</rscale>
<asrwt>0</asrwt>
<pdfrwt beam="1">  1        1 0.14286979E+00 0.32150877E+03</pdfrwt>
<pdfrwt beam="2">  1       -1 0.34900217E-01 0.32150877E+03</pdfrwt>
<totfact> 0.14292272E+02</totfact>
</mgrwt>
</event>
<event>
 4    1  0.1678003E-008  0.5892051E+03  0.7818608E-02  0.9928059E-01
          1   -1    0    0  501    0  0.00000000000E+00  0.00000000000E+00  0.63289720047E+03  0.63289720049E+03  0.50400000000E-02 0. -1.
         -1   -1    0    0    0  501 -0.00000000000E+00 -0.00000000000E+00 -0.85920262855E+03  0.85920262857E+03  0.50400000000E-02 0.  1.
    8880022    1    1    2    0    0 -0.23991180648E+03  0.51595862730E+03 -0.56176596733E+03  0.81409067986E+03  0.15294330000E+03 0.  0.
    8880022    1    1    2    0    0  0.23991180648E+03 -0.51595862730E+03  0.33546053925E+03  0.67800914919E+03  0.15294330000E+03 0.  0.
<mgrwt>
<rscale>  0 0.58920509E+03</rscale>
<asrwt>0</asrwt>
<pdfrwt beam="1">  1        1 0.97368800E-01 0.58920509E+03</pdfrwt>
<pdfrwt beam="2">  1       -1 0.13218502E+00 0.58920509E+03</pdfrwt>
<totfact> 0.16168319E+01</totfact>
</mgrwt>
</event>
<event>
 4    1  0.1678003E-008  0.7367985E+03  0.7818608E-02  0.9656292E-01
          1   -1    0    0  501    0  0.00000000000E+00  0.00000000000E+00  0.24934139693E+04  0.24934139693E+04  0.50400000000E-02 0. -1.
         -1   -1    0    0    0  501 -0.00000000000E+00 -0.00000000000E+00 -0.93859064250E+03  0.93859064251E+03  0.50400000000E-02 0.  1.
    8880022    1    1    2    0    0  0.29769607015E+03  0.65639733734E+03  0.22812726897E+04  0.23973062284E+04  0.15294330000E+03 0.  0.
    8880022    1    1    2    0    0 -0.29769607015E+03 -0.65639733734E+03 -0.72644936297E+03  0.10346983834E+04  0.15294330000E+03 0.  0.
<mgrwt>
<rscale>  0 0.73679853E+03</rscale>
<asrwt>0</asrwt>
<pdfrwt beam="1">  1        1 0.38360215E+00 0.73679853E+03</pdfrwt>
<pdfrwt beam="2">  1       -1 0.14439856E+00 0.73679853E+03</pdfrwt>
<totfact> 0.56807762E-01</totfact>
</mgrwt>
</event>
<event>
 4    1  0.1678003E-008  0.1014081E+04  0.7818608E-02  0.9293234E-01
         -1   -1    0    0    0  501 -0.00000000000E+00  0.00000000000E+00  0.11822451989E+04  0.11822451989E+04  0.50400000000E-02 0.  1.
          1   -1    0    0  501    0  0.00000000000E+00 -0.00000000000E+00 -0.21203207654E+04  0.21203207654E+04  0.50400000000E-02 0. -1.
    8880022    1    1    2    0    0  0.52046365516E+03  0.85678845342E+03  0.79908050123E+03  0.12910810086E+04  0.15294330000E+03 0.  0.
    8880022    1    1    2    0    0 -0.52046365516E+03 -0.85678845342E+03 -0.17371560677E+04  0.20114849557E+04  0.15294330000E+03 0.  0.
<mgrwt>
<rscale>  0 0.10140811E+04</rscale>
<asrwt>0</asrwt>
<pdfrwt beam="1">  1        1 0.32620319E+00 0.10140811E+04</pdfrwt>
<pdfrwt beam="2">  1       -1 0.18188388E+00 0.10140811E+04</pdfrwt>
<totfact> 0.50352599E-01</totfact>
</mgrwt>
</event>
<event>
 4    1  0.1678003E-008  0.5944260E+03  0.7818608E-02  0.9917038E-01
          1   -1    0    0  501    0  0.00000000000E+00  0.00000000000E+00  0.19769987922E+03  0.19769987928E+03  0.50400000000E-02 0. -1.
         -1   -1    0    0    0  501 -0.00000000000E+00 -0.00000000000E+00 -0.18273586026E+04  0.18273586026E+04  0.50400000000E-02 0.  1.
    8880022    1    1    2    0    0 -0.25859681466E+03 -0.51291154639E+03 -0.96480794395E+03  0.11332239799E+04  0.15294330000E+03 0.  0.
    8880022    1    1    2    0    0  0.25859681466E+03  0.51291154639E+03 -0.66485077947E+03  0.89183450199E+03  0.15294330000E+03 0.  0.
<mgrwt>
<rscale>  0 0.59442596E+03</rscale>
<asrwt>0</asrwt>
<pdfrwt beam="1">  1        1 0.30415367E-01 0.59442596E+03</pdfrwt>
<pdfrwt beam="2">  1       -1 0.28113208E+00 0.59442596E+03</pdfrwt>
<totfact> 0.70347709E+00</totfact>
</mgrwt>
</event>
<event>
 4    1  0.1678003E-008  0.6398479E+03  0.7818608E-02  0.9826018E-01
         -1   -1    0    0    0  501 -0.00000000000E+00  0.00000000000E+00  0.10032680339E+04  0.10032680339E+04  0.50400000000E-02 0.  1.
          1   -1    0    0  501    0  0.00000000000E+00 -0.00000000000E+00 -0.12210532936E+04  0.12210532937E+04  0.50400000000E-02 0. -1.
    8880022    1    1    2    0    0  0.36528078227E+03 -0.50257698159E+03  0.79859469605E+03  0.10233077806E+04  0.15294330000E+03 0.  0.
    8880022    1    1    2    0    0 -0.36528078227E+03  0.50257698159E+03 -0.10163799558E+04  0.12010135469E+04  0.15294330000E+03 0.  0.
<mgrwt>
<rscale>  0 0.63984789E+03</rscale>
<asrwt>0</asrwt>
<pdfrwt beam="1">  1        1 0.18785435E+00 0.63984789E+03</pdfrwt>
<pdfrwt beam="2">  1       -1 0.15434893E+00 0.63984789E+03</pdfrwt>
<totfact> 0.35365075E+00</totfact>
</mgrwt>
</event>
<event>
 4    1  0.1678003E-008  0.4773055E+03  0.7818608E-02  0.1019878E+00
         -1   -1    0    0    0  501 -0.00000000000E+00  0.00000000000E+00  0.34338939440E+03  0.34338939444E+03  0.50400000000E-02 0.  1.
          1   -1    0    0  501    0  0.00000000000E+00 -0.00000000000E+00 -0.15816302968E+04  0.15816302968E+04  0.50400000000E-02 0. -1.
    8880022    1    1    2    0    0 -0.27290927638E+02  0.45131377765E+03  0.11423993803E+03  0.49078644754E+03  0.15294330000E+03 0.  0.
    8880022    1    1    2    0    0  0.27290927638E+02 -0.45131377765E+03 -0.13524808405E+04  0.14342332437E+04  0.15294330000E+03 0.  0.
<mgrwt>
<rscale>  0 0.47730553E+03</rscale>
<asrwt>0</asrwt>
<pdfrwt beam="1">  1        1 0.24332773E+00 0.47730553E+03</pdfrwt>
<pdfrwt beam="2">  1       -1 0.52829139E-01 0.47730553E+03</pdfrwt>
<totfact> 0.22469103E+01</totfact>
</mgrwt>
</event>
<event>
 4    1  0.1678003E-008  0.9339989E+03  0.7818608E-02  0.9384051E-01
          1   -1    0    0  501    0  0.00000000000E+00  0.00000000000E+00  0.15838045544E+04  0.15838045544E+04  0.50400000000E-02 0. -1.
         -1   -1    0    0    0  501 -0.00000000000E+00 -0.00000000000E+00 -0.80406613433E+03  0.80406613434E+03  0.50400000000E-02 0.  1.
    8880022    1    1    2    0    0  0.84441347421E+03  0.36868443204E+03 -0.28021054891E+03  0.97512662285E+03  0.15294330000E+03 0.  0.
    8880022    1    1    2    0    0 -0.84441347421E+03 -0.36868443204E+03  0.10599489690E+04  0.14127440659E+04  0.15294330000E+03 0.  0.
<mgrwt>
<rscale>  0 0.93399892E+03</rscale>
<asrwt>0</asrwt>
<pdfrwt beam="1">  1        1 0.24366224E+00 0.93399892E+03</pdfrwt>
<pdfrwt beam="2">  1       -1 0.12370248E+00 0.93399892E+03</pdfrwt>
<totfact> 0.33382967E+00</totfact>
</mgrwt>
</event>
<event>
 4    1  0.1678003E-008  0.9077355E+03  0.7818608E-02  0.9415963E-01
         -1   -1    0    0    0  501 -0.00000000000E+00  0.00000000000E+00  0.67291393245E+03  0.67291393247E+03  0.50400000000E-02 0.  1.
          1   -1    0    0  501    0  0.00000000000E+00 -0.00000000000E+00 -0.30533339238E+04  0.30533339238E+04  0.50400000000E-02 0. -1.
    8880022    1    1    2    0    0 -0.15190207934E+03 -0.88176974549E+03  0.25171147486E+03  0.94198855904E+03  0.15294330000E+03 0.  0.
    8880022    1    1    2    0    0  0.15190207934E+03  0.88176974549E+03 -0.26321314662E+04  0.27842592972E+04  0.15294330000E+03 0.  0.
<mgrwt>
<rscale>  0 0.90773552E+03</rscale>
<asrwt>0</asrwt>
<pdfrwt beam="1">  1        1 0.46974367E+00 0.90773552E+03</pdfrwt>
<pdfrwt beam="2">  1       -1 0.10352522E+00 0.90773552E+03</pdfrwt>
<totfact> 0.50322088E-01</totfact>
</mgrwt>
</event>
<event>
 4    1  0.1678003E-008  0.7949358E+03  0.7818608E-02  0.9567376E-01
          1   -1    0    0  501    0  0.00000000000E+00  0.00000000000E+00  0.89931235899E+03  0.89931235901E+03  0.50400000000E-02 0. -1.
         -1   -1    0    0    0  501 -0.00000000000E+00 -0.00000000000E+00 -0.13649690361E+04  0.13649690361E+04  0.50400000000E-02 0.  1.
    8880022    1    1    2    0    0  0.17374007118E+02  0.77989063269E+03 -0.10214431627E+04  0.12943218466E+04  0.15294330000E+03 0.  0.
    8880022    1    1    2    0    0 -0.17374007118E+02 -0.77989063269E+03  0.55578648559E+03  0.96995954847E+03  0.15294330000E+03 0.  0.
<mgrwt>
<rscale>  0 0.79493579E+03</rscale>
<asrwt>0</asrwt>
<pdfrwt beam="1">  1        1 0.13835575E+00 0.79493579E+03</pdfrwt>
<pdfrwt beam="2">  1       -1 0.20999523E+00 0.79493579E+03</pdfrwt>
<totfact> 0.24236128E+00</totfact>
</mgrwt>
</event>
<event>
 4    1  0.1678003E-008  0.4892935E+03  0.7818608E-02  0.1016612E+00
          1   -1    0    0  501    0  0.00000000000E+00  0.00000000000E+00  0.17993953992E+04  0.17993953992E+04  0.50400000000E-02 0. -1.
         -1   -1    0    0    0  501 -0.00000000000E+00 -0.00000000000E+00 -0.46342746449E+03  0.46342746452E+03  0.50400000000E-02 0.  1.
    8880022    1    1    2    0    0 -0.38326577020E+03  0.26291402823E+03 -0.28730645290E+03  0.56740910086E+03  0.15294330000E+03 0.  0.
    8880022    1    1    2    0    0  0.38326577020E+03 -0.26291402823E+03  0.16232743876E+04  0.16954137628E+04  0.15294330000E+03 0.  0.
<mgrwt>
<rscale>  0 0.48929346E+03</rscale>
<asrwt>0</asrwt>
<pdfrwt beam="1">  1        1 0.27683006E+00 0.48929346E+03</pdfrwt>
<pdfrwt beam="2">  1       -1 0.71296533E-01 0.48929346E+03</pdfrwt>
<totfact> 0.89021245E+00</totfact>
</mgrwt>
</event>
<event>
 4    1  0.1678003E-008  0.2692392E+03  0.7818608E-02  0.1101716E+00
         -1   -1    0    0    0  501 -0.00000000000E+00  0.00000000000E+00  0.51087262348E+03  0.51087262351E+03  0.50400000000E-02 0.  1.
          1   -1    0    0  501    0  0.00000000000E+00 -0.00000000000E+00 -0.15347585576E+04  0.15347585577E+04  0.50400000000E-02 0. -1.
    8880022    1    1    2    0    0  0.11405719484E+03 -0.18997124161E+03  0.46244463270E+03  0.53511195806E+03  0.15294330000E+03 0.  1.
    8880022    1    1    2    0    0 -0.11405719484E+03  0.18997124161E+03 -0.14863305669E+04  0.15105192231E+04  0.15294330000E+03 0.  0.
<mgrwt>
<rscale>  0 0.26923924E+03</rscale>
<asrwt>0</asrwt>
<pdfrwt beam="1">  1        1 0.23611670E+00 0.26923924E+03</pdfrwt>
<pdfrwt beam="2">  1       -1 0.78595789E-01 0.26923924E+03</pdfrwt>
<totfact> 0.11714070E+01</totfact>
</mgrwt>
</event>
<event>
 4    1  0.1678003E-008  0.7119984E+03  0.7818608E-02  0.9696931E-01
          1   -1    0    0  501    0  0.00000000000E+00  0.00000000000E+00  0.15205263414E+04  0.15205263414E+04  0.50400000000E-02 0. -1.
         -1   -1    0    0    0  501 -0.00000000000E+00 -0.00000000000E+00 -0.97374250123E+03  0.97374250125E+03  0.50400000000E-02 0.  1.
    8880022    1    1    2    0    0 -0.15592870831E+03  0.67766977714E+03 -0.73794940854E+03  0.10254321389E+04  0.15294330000E+03 0.  0.
    8880022    1    1    2    0    0  0.15592870831E+03 -0.67766977714E+03  0.12847332487E+04  0.14688367038E+04  0.15294330000E+03 0.  0.
<mgrwt>
<rscale>  0 0.71199841E+03</rscale>
<asrwt>0</asrwt>
<pdfrwt beam="1">  1        1 0.23392713E+00 0.71199841E+03</pdfrwt>
<pdfrwt beam="2">  1       -1 0.14980654E+00 0.71199841E+03</pdfrwt>
<totfact> 0.23365028E+00</totfact>
</mgrwt>
</event>
<event>
 4    1  0.1678003E-008  0.3487113E+03  0.7818608E-02  0.1063145E+00
         -1   -1    0    0    0  501 -0.00000000000E+00  0.00000000000E+00  0.57541241367E+03  0.57541241369E+03  0.50400000000E-02 0.  1.
          1   -1    0    0  501    0  0.00000000000E+00 -0.00000000000E+00 -0.87311581063E+03  0.87311581064E+03  0.50400000000E-02 0. -1.
    8880022    1    1    2    0    0 -0.31209443839E+03 -0.28371916926E+02  0.48170058744E+03  0.59467218961E+03  0.15294330000E+03 0.  0.
    8880022    1    1    2    0    0  0.31209443839E+03  0.28371916926E+02 -0.77940398439E+03  0.85385603473E+03  0.15294330000E+03 0.  0.
<mgrwt>
<rscale>  0 0.34871128E+03</rscale>
<asrwt>0</asrwt>
<pdfrwt beam="1">  1        1 0.13432551E+00 0.34871128E+03</pdfrwt>
<pdfrwt beam="2">  1       -1 0.88524987E-01 0.34871128E+03</pdfrwt>
<totfact> 0.26305725E+01</totfact>
</mgrwt>
</event>
<event>
 4    1  0.1678003E-008  0.6682775E+03  0.7818608E-02  0.9773074E-01
          1   -1    0    0  501    0  0.00000000000E+00  0.00000000000E+00  0.28550387081E+04  0.28550387081E+04  0.50400000000E-02 0. -1.
         -1   -1    0    0    0  501 -0.00000000000E+00 -0.00000000000E+00 -0.65509811363E+03  0.65509811365E+03  0.50400000000E-02 0.  1.
    8880022    1    1    2    0    0 -0.38267665235E+03  0.52608154727E+03 -0.43129185269E+03  0.79536628659E+03  0.15294330000E+03 0.  0.
    8880022    1    1    2    0    0  0.38267665235E+03 -0.52608154727E+03  0.26312324471E+04  0.27147705351E+04  0.15294330000E+03 0.  0.
<mgrwt>
<rscale>  0 0.66827754E+03</rscale>
<asrwt>0</asrwt>
<pdfrwt beam="1">  1        1 0.43923672E+00 0.66827754E+03</pdfrwt>
<pdfrwt beam="2">  1       -1 0.10078433E+00 0.66827754E+03</pdfrwt>
<totfact> 0.78277370E-01</totfact>
</mgrwt>
</event>
<event>
 4    1  0.1678003E-008  0.1876950E+03  0.7818608E-02  0.1160557E+00
         -1   -1    0    0    0  501 -0.00000000000E+00  0.00000000000E+00  0.16081908035E+04  0.16081908035E+04  0.50400000000E-02 0.  1.
          1   -1    0    0  501    0  0.00000000000E+00 -0.00000000000E+00 -0.36292020657E+03  0.36292020660E+03  0.50400000000E-02 0. -1.
    8880022    1    1    2    0    0  0.10223009089E+03  0.37239354600E+02 -0.33271269651E+03  0.38200412622E+03  0.15294330000E+03 0. -1.
    8880022    1    1    2    0    0 -0.10223009089E+03 -0.37239354600E+02  0.15779832935E+04  0.15891068839E+04  0.15294330000E+03 0.  0.
<mgrwt>
<rscale>  0 0.18769500E+03</rscale>
<asrwt>0</asrwt>
<pdfrwt beam="1">  1        1 0.55833878E-01 0.18769500E+03</pdfrwt>
<pdfrwt beam="2">  1       -1 0.24741397E+00 0.18769500E+03</pdfrwt>
<totfact> 0.59714441E+00</totfact>
</mgrwt>
</event>
<event>
 4    1  0.1678003E-008  0.3320409E+03  0.7818608E-02  0.1070237E+00
          1   -1    0    0  501    0  0.00000000000E+00  0.00000000000E+00  0.12265835603E+04  0.12265835603E+04  0.50400000000E-02 0. -1.
         -1   -1    0    0    0  501 -0.00000000000E+00 -0.00000000000E+00 -0.14237153368E+03  0.14237153377E+03  0.50400000000E-02 0.  1.
    8880022    1    1    2    0    0 -0.72955878676E+02  0.28554677671E+03  0.12650887964E+03  0.35532474100E+03  0.15294330000E+03 0.  0.
    8880022    1    1    2    0    0  0.72955878676E+02 -0.28554677671E+03  0.95770314698E+03  0.10136303531E+04  0.15294330000E+03 0.  0.
<mgrwt>
<rscale>  0 0.33204092E+03</rscale>
<asrwt>0</asrwt>
<pdfrwt beam="1">  1        1 0.18870516E+00 0.33204092E+03</pdfrwt>
<pdfrwt beam="2">  1       -1 0.21903313E-01 0.33204092E+03</pdfrwt>
<totfact> 0.19007310E+02</totfact>
</mgrwt>
</event>
<event>
 4    1  0.1678003E-008  0.3206894E+03  0.7818608E-02  0.1075332E+00
          1   -1    0    0  501    0  0.00000000000E+00  0.00000000000E+00  0.30545352901E+03  0.30545352905E+03  0.50400000000E-02 0. -1.
         -1   -1    0    0    0  501 -0.00000000000E+00 -0.00000000000E+00 -0.45961407526E+03  0.45961407529E+03  0.50400000000E-02 0.  1.
    8880022    1    1    2    0    0 -0.28879622313E+02 -0.28038547729E+03  0.12075330299E+03  0.34267048553E+03  0.15294330000E+03 0.  0.
    8880022    1    1    2    0    0  0.28879622313E+02  0.28038547729E+03 -0.27491384925E+03  0.42239711881E+03  0.15294330000E+03 0.  0.
<mgrwt>
<rscale>  0 0.32068942E+03</rscale>
<asrwt>0</asrwt>
<pdfrwt beam="1">  1        1 0.46992850E-01 0.32068942E+03</pdfrwt>
<pdfrwt beam="2">  1       -1 0.70709858E-01 0.32068942E+03</pdfrwt>
<totfact> 0.18051343E+02</totfact>
</mgrwt>
</event>
<event>
 4    1  0.1678003E-008  0.5197295E+03  0.7818608E-02  0.1008754E+00
         -1   -1    0    0    0  501 -0.00000000000E+00  0.00000000000E+00  0.33412736598E+03  0.33412736602E+03  0.50400000000E-02 0.  1.
          1   -1    0    0  501    0  0.00000000000E+00 -0.00000000000E+00 -0.12020989360E+04  0.12020989360E+04  0.50400000000E-02 0. -1.
    8880022    1    1    2    0    0 -0.20627828738E+03 -0.45185875087E+03 -0.87354810264E+03  0.10164669219E+04  0.15294330000E+03 0.  0.
    8880022    1    1    2    0    0  0.20627828738E+03  0.45185875087E+03  0.55765325955E+01  0.51975938021E+03  0.15294330000E+03 0.  0.
<mgrwt>
<rscale>  0 0.51972946E+03</rscale>
<asrwt>0</asrwt>
<pdfrwt beam="1">  1        1 0.18493830E+00 0.51972946E+03</pdfrwt>
<pdfrwt beam="2">  1       -1 0.51404211E-01 0.51972946E+03</pdfrwt>
<totfact> 0.42874978E+01</totfact>
</mgrwt>
</event>
<event>
 4    1  0.1678003E-008  0.4953539E+03  0.7818608E-02  0.1014999E+00
         -1   -1    0    0    0  501 -0.00000000000E+00  0.00000000000E+00  0.30762957115E+03  0.30762957119E+03  0.50400000000E-02 0.  1.
          1   -1    0    0  501    0  0.00000000000E+00 -0.00000000000E+00 -0.92634522002E+03  0.92634522004E+03  0.50400000000E-02 0. -1.
    8880022    1    1    2    0    0  0.23965161526E+03  0.40564873768E+03 -0.79372553898E+02  0.50167265263E+03  0.15294330000E+03 0.  1.
    8880022    1    1    2    0    0 -0.23965161526E+03 -0.40564873768E+03 -0.53934309498E+03  0.73230213859E+03  0.15294330000E+03 0.  0.
<mgrwt>
<rscale>  0 0.49535386E+03</rscale>
<asrwt>0</asrwt>
<pdfrwt beam="1">  1        1 0.14251465E+00 0.49535386E+03</pdfrwt>
<pdfrwt beam="2">  1       -1 0.47327627E-01 0.49535386E+03</pdfrwt>
<totfact> 0.80840915E+01</totfact>
</mgrwt>
</event>
<event>
 4    1  0.1678003E-008  0.8202825E+03  0.7818608E-02  0.9531114E-01
         -1   -1    0    0    0  501 -0.00000000000E+00  0.00000000000E+00  0.64470017719E+03  0.64470017721E+03  0.50400000000E-02 0.  1.
          1   -1    0    0  501    0  0.00000000000E+00 -0.00000000000E+00 -0.15656405402E+04  0.15656405402E+04  0.50400000000E-02 0. -1.
    8880022    1    1    2    0    0 -0.45645668910E+02  0.80460440974E+03 -0.10985870969E+04  0.13710423209E+04  0.15294330000E+03 0.  0.
    8880022    1    1    2    0    0  0.45645668910E+02 -0.80460440974E+03  0.17764673390E+03  0.83929839649E+03  0.15294330000E+03 0.  0.
<mgrwt>
<rscale>  0 0.82028253E+03</rscale>
<asrwt>0</asrwt>
<pdfrwt beam="1">  1        1 0.24086777E+00 0.82028253E+03</pdfrwt>
<pdfrwt beam="2">  1       -1 0.99184643E-01 0.82028253E+03</pdfrwt>
<totfact> 0.58977598E+00</totfact>
</mgrwt>
</event>
<event>
 4    1  0.1678003E-008  0.8314455E+03  0.7818608E-02  0.9515584E-01
          1   -1    0    0  501    0  0.00000000000E+00  0.00000000000E+00  0.81734049898E+03  0.81734049900E+03  0.50400000000E-02 0. -1.
         -1   -1    0    0    0  501 -0.00000000000E+00 -0.00000000000E+00 -0.11056047217E+04  0.11056047217E+04  0.50400000000E-02 0.  1.
    8880022    1    1    2    0    0 -0.57904948877E+03 -0.57672499749E+03 -0.61021752647E+03  0.10313423853E+04  0.15294330000E+03 0.  0.
    8880022    1    1    2    0    0  0.57904948877E+03  0.57672499749E+03  0.32195330377E+03  0.89160283535E+03  0.15294330000E+03 0.  0.
<mgrwt>
<rscale>  0 0.83144554E+03</rscale>
<asrwt>0</asrwt>
<pdfrwt beam="1">  1        1 0.12574469E+00 0.83144554E+03</pdfrwt>
<pdfrwt beam="2">  1       -1 0.17009304E+00 0.83144554E+03</pdfrwt>
<totfact> 0.53696099E+00</totfact>
</mgrwt>
</event>
<event>
 4    1  0.1678003E-008  0.1059095E+04  0.7818608E-02  0.9246004E-01
         -1   -1    0    0    0  501 -0.00000000000E+00  0.00000000000E+00  0.65476080174E+03  0.65476080176E+03  0.50400000000E-02 0.  1.
          1   -1    0    0  501    0  0.00000000000E+00 -0.00000000000E+00 -0.19909474343E+04  0.19909474343E+04  0.50400000000E-02 0. -1.
    8880022    1    1    2    0    0  0.10264869743E+04  0.21122247918E+03 -0.17392865718E+03  0.10732815451E+04  0.15294330000E+03 0.  0.
    8880022    1    1    2    0    0 -0.10264869743E+04 -0.21122247918E+03 -0.11622579754E+04  0.15724266910E+04  0.15294330000E+03 0.  0.
<mgrwt>
<rscale>  0 0.10590949E+04</rscale>
<asrwt>0</asrwt>
<pdfrwt beam="1">  1        1 0.30629960E+00 0.10590949E+04</pdfrwt>
<pdfrwt beam="2">  1       -1 0.10073243E+00 0.10590949E+04</pdfrwt>
<totfact> 0.28414314E+00</totfact>
</mgrwt>
</event>
<event>
 4    1  0.1678003E-008  0.3128868E+03  0.7818608E-02  0.1078970E+00
          1   -1    0    0  501    0  0.00000000000E+00  0.00000000000E+00  0.43590747727E+03  0.43590747730E+03  0.50400000000E-02 0. -1.
         -1   -1    0    0    0  501 -0.00000000000E+00 -0.00000000000E+00 -0.62866440375E+03  0.62866440377E+03  0.50400000000E-02 0.  1.
    8880022    1    1    2    0    0  0.23134104828E+03  0.14487172773E+03 -0.52312408794E+03  0.60955472479E+03  0.15294330000E+03 0.  0.
    8880022    1    1    2    0    0 -0.23134104828E+03 -0.14487172773E+03  0.33036716147E+03  0.45501715627E+03  0.15294330000E+03 0. -1.
<mgrwt>
<rscale>  0 0.31288680E+03</rscale>
<asrwt>0</asrwt>
<pdfrwt beam="1">  1        1 0.67062689E-01 0.31288680E+03</pdfrwt>
<pdfrwt beam="2">  1       -1 0.96717601E-01 0.31288680E+03</pdfrwt>
<totfact> 0.59074310E+01</totfact>
</mgrwt>
</event>
<event>
 4    1  0.1678003E-008  0.9571235E+03  0.7818608E-02  0.9356863E-01
         -1   -1    0    0    0  501 -0.00000000000E+00  0.00000000000E+00  0.13260041513E+04  0.13260041513E+04  0.50400000000E-02 0.  1.
          1   -1    0    0  501    0  0.00000000000E+00 -0.00000000000E+00 -0.13735236173E+04  0.13735236173E+04  0.50400000000E-02 0. -1.
    8880022    1    1    2    0    0  0.92028150844E+03  0.21395238292E+03 -0.97533383201E+03  0.13665143299E+04  0.15294330000E+03 0.  0.
    8880022    1    1    2    0    0 -0.92028150844E+03 -0.21395238292E+03  0.92781436602E+03  0.13330134387E+04  0.15294330000E+03 0.  0.
<mgrwt>
<rscale>  0 0.95712347E+03</rscale>
<asrwt>0</asrwt>
<pdfrwt beam="1">  1        1 0.21131133E+00 0.95712347E+03</pdfrwt>
<pdfrwt beam="2">  1       -1 0.20400064E+00 0.95712347E+03</pdfrwt>
<totfact> 0.11476794E+00</totfact>
</mgrwt>
</event>
<event>
 4    1  0.1678003E-008  0.3583594E+03  0.7818608E-02  0.1059235E+00
          1   -1    0    0  501    0  0.00000000000E+00  0.00000000000E+00  0.91287045863E+03  0.91287045864E+03  0.50400000000E-02 0. -1.
         -1   -1    0    0    0  501 -0.00000000000E+00 -0.00000000000E+00 -0.23204158996E+04  0.23204158996E+04  0.50400000000E-02 0.  1.
    8880022    1    1    2    0    0  0.32235869894E+03  0.33386381516E+02 -0.22706440191E+04  0.22987487239E+04  0.15294330000E+03 0.  0.
    8880022    1    1    2    0    0 -0.32235869894E+03 -0.33386381516E+02  0.86309857817E+03  0.93453763429E+03  0.15294330000E+03 0.  0.
<mgrwt>
<rscale>  0 0.35835936E+03</rscale>
<asrwt>0</asrwt>
<pdfrwt beam="1">  1        1 0.14044161E+00 0.35835936E+03</pdfrwt>
<pdfrwt beam="2">  1       -1 0.35698706E+00 0.35835936E+03</pdfrwt>
<totfact> 0.30385398E-01</totfact>
</mgrwt>
</event>
<event>
 4    1  0.1678003E-008  0.5193699E+03  0.7818608E-02  0.1008843E+00
          1   -1    0    0  501    0  0.00000000000E+00  0.00000000000E+00  0.26696033965E+04  0.26696033965E+04  0.50400000000E-02 0. -1.
         -1   -1    0    0    0  501 -0.00000000000E+00 -0.00000000000E+00 -0.47193351888E+03  0.47193351891E+03  0.50400000000E-02 0.  1.
    8880022    1    1    2    0    0 -0.49232362278E+03  0.63014687312E+02  0.24913328611E+04  0.25448938049E+04  0.15294330000E+03 0.  0.
    8880022    1    1    2    0    0  0.49232362278E+03 -0.63014687312E+02 -0.29366298353E+03  0.59664311047E+03  0.15294330000E+03 0.  0.
<mgrwt>
<rscale>  0 0.51936986E+03</rscale>
<asrwt>0</asrwt>
<pdfrwt beam="1">  1        1 0.41070821E+00 0.51936986E+03</pdfrwt>
<pdfrwt beam="2">  1       -1 0.72605157E-01 0.51936986E+03</pdfrwt>
<totfact> 0.22286853E+00</totfact>
</mgrwt>
</event>
<event>
 4    1  0.1678003E-008  0.6158495E+03  0.7818608E-02  0.9873058E-01
          1   -1    0    0  501    0  0.00000000000E+00  0.00000000000E+00  0.12089665750E+04  0.12089665750E+04  0.50400000000E-02 0. -1.
         -1   -1    0    0    0  501 -0.00000000000E+00 -0.00000000000E+00 -0.84577643152E+03  0.84577643153E+03  0.50400000000E-02 0.  1.
    8880022    1    1    2    0    0 -0.48925669941E+03 -0.34133092815E+03 -0.63326069231E+03  0.88334006921E+03  0.15294330000E+03 0.  0.
    8880022    1    1    2    0    0  0.48925669941E+03  0.34133092815E+03  0.99645083577E+03  0.11714029373E+04  0.15294330000E+03 0.  0.
<mgrwt>
<rscale>  0 0.61584947E+03</rscale>
<asrwt>0</asrwt>
<pdfrwt beam="1">  1        1 0.18599486E+00 0.61584947E+03</pdfrwt>
<pdfrwt beam="2">  1       -1 0.13011945E+00 0.61584947E+03</pdfrwt>
<totfact> 0.56580416E+00</totfact>
</mgrwt>
</event>
<event>
 4    1  0.1678003E-008  0.7220705E+03  0.7818608E-02  0.9680216E-01
         -1   -1    0    0    0  501 -0.00000000000E+00  0.00000000000E+00  0.44230817245E+03  0.44230817248E+03  0.50400000000E-02 0.  1.
          1   -1    0    0  501    0  0.00000000000E+00 -0.00000000000E+00 -0.33930596823E+04  0.33930596823E+04  0.50400000000E-02 0. -1.
    8880022    1    1    2    0    0 -0.69361746078E+03 -0.12995771228E+03  0.73787239436E+02  0.72583083332E+03  0.15294330000E+03 0.  0.
    8880022    1    1    2    0    0  0.69361746078E+03  0.12995771228E+03 -0.30245387493E+04  0.31095370215E+04  0.15294330000E+03 0.  0.
<mgrwt>
<rscale>  0 0.72207052E+03</rscale>
<asrwt>0</asrwt>
<pdfrwt beam="1">  1        1 0.52200916E+00 0.72207052E+03</pdfrwt>
<pdfrwt beam="2">  1       -1 0.68047413E-01 0.72207052E+03</pdfrwt>
<totfact> 0.72714235E-01</totfact>
</mgrwt>
</event>
<event>
 4    1  0.1678003E-008  0.5219881E+03  0.7818608E-02  0.1008194E+00
         -1   -1    0    0    0  501 -0.00000000000E+00  0.00000000000E+00  0.12287857897E+04  0.12287857897E+04  0.50400000000E-02 0.  1.
          1   -1    0    0  501    0  0.00000000000E+00 -0.00000000000E+00 -0.31259833049E+03  0.31259833054E+03  0.50400000000E-02 0. -1.
    8880022    1    1    2    0    0 -0.36825480049E+03  0.33685053316E+03  0.87359161887E+03  0.10176609697E+04  0.15294330000E+03 0.  0.
    8880022    1    1    2    0    0  0.36825480049E+03 -0.33685053316E+03  0.42595840370E+02  0.52372315053E+03  0.15294330000E+03 0. -1.
<mgrwt>
<rscale>  0 0.52198806E+03</rscale>
<asrwt>0</asrwt>
<pdfrwt beam="1">  1        1 0.48092052E-01 0.52198806E+03</pdfrwt>
<pdfrwt beam="2">  1       -1 0.18904396E+00 0.52198806E+03</pdfrwt>
<totfact> 0.15788942E+01</totfact>
</mgrwt>
</event>
<event>
 4    1  0.1678003E-008  0.5568678E+03  0.7818608E-02  0.9999167E-01
         -1   -1    0    0    0  501 -0.00000000000E+00  0.00000000000E+00  0.54890873939E+03  0.54890873941E+03  0.50400000000E-02 0.  1.
          1   -1    0    0  501    0  0.00000000000E+00 -0.00000000000E+00 -0.11097939529E+04  0.11097939529E+04  0.50400000000E-02 0. -1.
    8880022    1    1    2    0    0 -0.38157269828E+03  0.37564922536E+03  0.30066498363E+03  0.63285160187E+03  0.15294330000E+03 0.  0.
    8880022    1    1    2    0    0  0.38157269828E+03 -0.37564922536E+03 -0.86155019714E+03  0.10258510905E+04  0.15294330000E+03 0.  0.
<mgrwt>
<rscale>  0 0.55686777E+03</rscale>
<asrwt>0</asrwt>
<pdfrwt beam="1">  1        1 0.17073753E+00 0.55686777E+03</pdfrwt>
<pdfrwt beam="2">  1       -1 0.84447498E-01 0.55686777E+03</pdfrwt>
<totfact> 0.18355970E+01</totfact>
</mgrwt>
</event>
<event>
 4    1  0.1678003E-008  0.1599500E+03  0.7818608E-02  0.1188753E+00
         -1   -1    0    0    0  501 -0.00000000000E+00  0.00000000000E+00  0.12381620271E+04  0.12381620271E+04  0.50400000000E-02 0.  1.
          1   -1    0    0  501    0  0.00000000000E+00 -0.00000000000E+00 -0.13561419121E+03  0.13561419131E+03  0.50400000000E-02 0. -1.
    8880022    1    1    2    0    0  0.46474680176E+02 -0.56970505848E+01 -0.81123919005E+02  0.17934630058E+03  0.15294330000E+03 0. -1.
    8880022    1    1    2    0    0 -0.46474680176E+02  0.56970505848E+01  0.11836717549E+04  0.11944299179E+04  0.15294330000E+03 0.  0.
<mgrwt>
<rscale>  0 0.15995001E+03</rscale>
<asrwt>0</asrwt>
<pdfrwt beam="1">  1        1 0.20863722E-01 0.15995001E+03</pdfrwt>
<pdfrwt beam="2">  1       -1 0.19048646E+00 0.15995001E+03</pdfrwt>
<totfact> 0.48442335E+01</totfact>
</mgrwt>
</event>
<event>
 4    1  0.1678003E-008  0.4391914E+03  0.7818608E-02  0.1030995E+00
         -1   -1    0    0    0  501 -0.00000000000E+00  0.00000000000E+00  0.68143297908E+03  0.68143297910E+03  0.50400000000E-02 0.  1.
          1   -1    0    0  501    0  0.00000000000E+00 -0.00000000000E+00 -0.77596830205E+03  0.77596830206E+03  0.50400000000E-02 0. -1.
    8880022    1    1    2    0    0 -0.31716602510E+03 -0.26249406485E+03  0.53350813703E+03  0.69102822435E+03  0.15294330000E+03 0.  0.
    8880022    1    1    2    0    0  0.31716602510E+03  0.26249406485E+03 -0.62804345999E+03  0.76637305681E+03  0.15294330000E+03 0. -1.
<mgrwt>
<rscale>  0 0.43919139E+03</rscale>
<asrwt>0</asrwt>
<pdfrwt beam="1">  1        1 0.11937974E+00 0.43919139E+03</pdfrwt>
<pdfrwt beam="2">  1       -1 0.10483584E+00 0.43919139E+03</pdfrwt>
<totfact> 0.21343352E+01</totfact>
</mgrwt>
</event>
<event>
 4    1  0.1678003E-008  0.2522809E+03  0.7818608E-02  0.1111872E+00
         -1   -1    0    0    0  501 -0.00000000000E+00  0.00000000000E+00  0.13319914505E+03  0.13319914515E+03  0.50400000000E-02 0.  1.
          1   -1    0    0  501    0  0.00000000000E+00 -0.00000000000E+00 -0.18253249349E+04  0.18253249350E+04  0.50400000000E-02 0. -1.
    8880022    1    1    2    0    0 -0.14245162339E+03 -0.14128531255E+03 -0.46803965171E+01  0.25232432240E+03  0.15294330000E+03 0.  0.
    8880022    1    1    2    0    0  0.14245162339E+03  0.14128531255E+03 -0.16874453934E+04  0.17061997577E+04  0.15294330000E+03 0.  0.
<mgrwt>
<rscale>  0 0.25228091E+03</rscale>
<asrwt>0</asrwt>
<pdfrwt beam="1">  1        1 0.28081920E+00 0.25228091E+03</pdfrwt>
<pdfrwt beam="2">  1       -1 0.20492177E-01 0.25228091E+03</pdfrwt>
<totfact> 0.86037095E+01</totfact>
</mgrwt>
</event>
<event>
 4    1  0.1678003E-008  0.8580972E+03  0.7818608E-02  0.9479533E-01
          1   -1    0    0  501    0  0.00000000000E+00  0.00000000000E+00  0.17940015507E+04  0.17940015507E+04  0.50400000000E-02 0. -1.
         -1   -1    0    0    0  501 -0.00000000000E+00 -0.00000000000E+00 -0.53480301138E+03  0.53480301140E+03  0.50400000000E-02 0.  1.
    8880022    1    1    2    0    0 -0.70024982821E+03 -0.47179364606E+03  0.68097619637E+02  0.86079498440E+03  0.15294330000E+03 0.  0.
    8880022    1    1    2    0    0  0.70024982821E+03  0.47179364606E+03  0.11911009197E+04  0.14680095777E+04  0.15294330000E+03 0.  0.
<mgrwt>
<rscale>  0 0.85809715E+03</rscale>
<asrwt>0</asrwt>
<pdfrwt beam="1">  1        1 0.27600024E+00 0.85809715E+03</pdfrwt>
<pdfrwt beam="2">  1       -1 0.82277387E-01 0.85809715E+03</pdfrwt>
<totfact> 0.62093090E+00</totfact>
</mgrwt>
</event>
<event>
 4    1  0.1678003E-008  0.1052145E+04  0.7818608E-02  0.9253132E-01
         -1   -1    0    0    0  501 -0.00000000000E+00  0.00000000000E+00  0.19266813134E+04  0.19266813134E+04  0.50400000000E-02 0.  1.
          1   -1    0    0  501    0  0.00000000000E+00 -0.00000000000E+00 -0.97737394383E+03  0.97737394384E+03  0.50400000000E-02 0. -1.
    8880022    1    1    2    0    0 -0.86045705653E+02 -0.10374076494E+04 -0.45751012028E+03  0.11473123628E+04  0.15294330000E+03 0.  0.
    8880022    1    1    2    0    0  0.86045705653E+02  0.10374076494E+04  0.14068174899E+04  0.17567428945E+04  0.15294330000E+03 0.  0.
<mgrwt>
<rscale>  0 0.10521455E+04</rscale>
<asrwt>0</asrwt>
<pdfrwt beam="1">  1        1 0.15036522E+00 0.10521455E+04</pdfrwt>
<pdfrwt beam="2">  1       -1 0.29641251E+00 0.10521455E+04</pdfrwt>
<totfact> 0.55225859E-01</totfact>
</mgrwt>
</event>
<event>
 4    1  0.1678003E-008  0.1670071E+03  0.7818608E-02  0.1181005E+00
          1   -1    0    0  501    0  0.00000000000E+00  0.00000000000E+00  0.99757151862E+03  0.99757151864E+03  0.50400000000E-02 0. -1.
         -1   -1    0    0    0  501 -0.00000000000E+00 -0.00000000000E+00 -0.85858331447E+02  0.85858331595E+02  0.50400000000E-02 0.  1.
    8880022    1    1    2    0    0  0.53987926069E+02 -0.39812520171E+02  0.11004860752E+02  0.16736933082E+03  0.15294330000E+03 0.  0.
    8880022    1    1    2    0    0 -0.53987926069E+02  0.39812520171E+02  0.90070832642E+03  0.91606051941E+03  0.15294330000E+03 0. -1.
<mgrwt>
<rscale>  0 0.16700714E+03</rscale>
<asrwt>0</asrwt>
<pdfrwt beam="1">  1        1 0.15347253E+00 0.16700714E+03</pdfrwt>
<pdfrwt beam="2">  1       -1 0.13208975E-01 0.16700714E+03</pdfrwt>
<totfact> 0.63965611E+02</totfact>
</mgrwt>
</event>
<event>
 4    1  0.1678003E-008  0.4496719E+03  0.7818608E-02  0.1027820E+00
         -1   -1    0    0    0  501 -0.00000000000E+00  0.00000000000E+00  0.16017020486E+03  0.16017020494E+03  0.50400000000E-02 0.  1.
          1   -1    0    0  501    0  0.00000000000E+00 -0.00000000000E+00 -0.36250037525E+04  0.36250037525E+04  0.50400000000E-02 0. -1.
    8880022    1    1    2    0    0 -0.40361125954E+03 -0.12613941420E+03 -0.20452136216E+03  0.49399781502E+03  0.15294330000E+03 0.  0.
    8880022    1    1    2    0    0  0.40361125954E+03  0.12613941420E+03 -0.32603121855E+04  0.32911761425E+04  0.15294330000E+03 0.  0.
<mgrwt>
<rscale>  0 0.44967194E+03</rscale>
<asrwt>0</asrwt>
<pdfrwt beam="1">  1        1 0.55769283E+00 0.44967194E+03</pdfrwt>
<pdfrwt beam="2">  1       -1 0.24641573E-01 0.44967194E+03</pdfrwt>
<totfact> 0.33460546E+00</totfact>
</mgrwt>
</event>
<event>
 4    1  0.1678003E-008  0.3756661E+03  0.7818608E-02  0.1052547E+00
         -1   -1    0    0    0  501 -0.00000000000E+00  0.00000000000E+00  0.84263179964E+03  0.84263179965E+03  0.50400000000E-02 0.  1.
          1   -1    0    0  501    0  0.00000000000E+00 -0.00000000000E+00 -0.22964830204E+03  0.22964830210E+03  0.50400000000E-02 0. -1.
    8880022    1    1    2    0    0 -0.28892049009E+03  0.18509005578E+03  0.27541501266E+02  0.37667434960E+03  0.15294330000E+03 0.  0.
    8880022    1    1    2    0    0  0.28892049009E+03 -0.18509005578E+03  0.58544199633E+03  0.69560575215E+03  0.15294330000E+03 0.  0.
<mgrwt>
<rscale>  0 0.37566612E+03</rscale>
<asrwt>0</asrwt>
<pdfrwt beam="1">  1        1 0.35330508E-01 0.37566612E+03</pdfrwt>
<pdfrwt beam="2">  1       -1 0.12963566E+00 0.37566612E+03</pdfrwt>
<totfact> 0.66939792E+01</totfact>
</mgrwt>
</event>
<event>
 4    1  0.1678003E-008  0.8604171E+03  0.7818608E-02  0.9476461E-01
         -1   -1    0    0    0  501 -0.00000000000E+00  0.00000000000E+00  0.11621374448E+04  0.11621374448E+04  0.50400000000E-02 0.  1.
          1   -1    0    0  501    0  0.00000000000E+00 -0.00000000000E+00 -0.11573422342E+04  0.11573422342E+04  0.50400000000E-02 0. -1.
    8880022    1    1    2    0    0 -0.47164629910E+03 -0.70318967898E+03 -0.77521137234E+03  0.11581322381E+04  0.15294330000E+03 0.  0.
    8880022    1    1    2    0    0  0.47164629910E+03  0.70318967898E+03  0.78000658297E+03  0.11613474409E+04  0.15294330000E+03 0.  0.
<mgrwt>
<rscale>  0 0.86041711E+03</rscale>
<asrwt>0</asrwt>
<pdfrwt beam="1">  1        1 0.17805265E+00 0.86041711E+03</pdfrwt>
<pdfrwt beam="2">  1       -1 0.17879038E+00 0.86041711E+03</pdfrwt>
<totfact> 0.24970810E+00</totfact>
</mgrwt>
</event>
<event>
 4    1  0.1678003E-008  0.2493094E+03  0.7818608E-02  0.1113742E+00
         -1   -1    0    0    0  501 -0.00000000000E+00  0.00000000000E+00  0.68933117109E+03  0.68933117110E+03  0.50400000000E-02 0.  1.
          1   -1    0    0  501    0  0.00000000000E+00 -0.00000000000E+00 -0.17731791011E+03  0.17731791018E+03  0.50400000000E-02 0. -1.
    8880022    1    1    2    0    0  0.59988071885E+02 -0.18752319750E+03  0.55979563553E+03  0.61280202753E+03  0.15294330000E+03 0.  1.
    8880022    1    1    2    0    0 -0.59988071885E+02  0.18752319750E+03 -0.47782374560E+02  0.25384705376E+03  0.15294330000E+03 0.  0.
<mgrwt>
<rscale>  0 0.24930939E+03</rscale>
<asrwt>0</asrwt>
<pdfrwt beam="1">  1        1 0.27279678E-01 0.24930939E+03</pdfrwt>
<pdfrwt beam="2">  1       -1 0.10605095E+00 0.24930939E+03</pdfrwt>
<totfact> 0.15232134E+02</totfact>
</mgrwt>
</event>
<event>
 4    1  0.1678003E-008  0.5746715E+03  0.7818608E-02  0.9959394E-01
          1   -1    0    0  501    0  0.00000000000E+00  0.00000000000E+00  0.79955333924E+03  0.79955333925E+03  0.50400000000E-02 0. -1.
         -1   -1    0    0    0  501 -0.00000000000E+00 -0.00000000000E+00 -0.89456443487E+03  0.89456443489E+03  0.50400000000E-02 0.  1.
    8880022    1    1    2    0    0  0.36679640126E+03 -0.41510969926E+03  0.57396001032E+03  0.81220527507E+03  0.15294330000E+03 0. -1.
    8880022    1    1    2    0    0 -0.36679640126E+03  0.41510969926E+03 -0.66897110595E+03  0.88191249907E+03  0.15294330000E+03 0.  0.
<mgrwt>
<rscale>  0 0.57467148E+03</rscale>
<asrwt>0</asrwt>
<pdfrwt beam="1">  1        1 0.12300821E+00 0.57467148E+03</pdfrwt>
<pdfrwt beam="2">  1       -1 0.13762530E+00 0.57467148E+03</pdfrwt>
<totfact> 0.10271725E+01</totfact>
</mgrwt>
</event>
<event>
 4    1  0.1678003E-008  0.4940767E+03  0.7818608E-02  0.1015337E+00
          1   -1    0    0  501    0  0.00000000000E+00  0.00000000000E+00  0.16860527923E+03  0.16860527930E+03  0.50400000000E-02 0. -1.
         -1   -1    0    0    0  501 -0.00000000000E+00 -0.00000000000E+00 -0.16661717884E+04  0.16661717884E+04  0.50400000000E-02 0.  1.
    8880022    1    1    2    0    0  0.21733466439E+03 -0.41651625482E+03 -0.10808777999E+04  0.11884479872E+04  0.15294330000E+03 0.  0.
    8880022    1    1    2    0    0 -0.21733466439E+03  0.41651625482E+03 -0.41668870920E+03  0.64632908047E+03  0.15294330000E+03 0.  0.
<mgrwt>
<rscale>  0 0.49407671E+03</rscale>
<asrwt>0</asrwt>
<pdfrwt beam="1">  1        1 0.25939275E-01 0.49407671E+03</pdfrwt>
<pdfrwt beam="2">  1       -1 0.25633411E+00 0.49407671E+03</pdfrwt>
<totfact> 0.12639029E+01</totfact>
</mgrwt>
</event>
<event>
 4    1  0.1678003E-008  0.4978570E+03  0.7818608E-02  0.1014340E+00
         -1   -1    0    0    0  501 -0.00000000000E+00  0.00000000000E+00  0.33220013225E+03  0.33220013229E+03  0.50400000000E-02 0.  1.
          1   -1    0    0  501    0  0.00000000000E+00 -0.00000000000E+00 -0.15787299193E+04  0.15787299193E+04  0.50400000000E-02 0. -1.
    8880022    1    1    2    0    0 -0.95011250492E+02 -0.46415821604E+03  0.70610186097E+02  0.50283937657E+03  0.15294330000E+03 0.  0.
    8880022    1    1    2    0    0  0.95011250492E+02  0.46415821604E+03 -0.13171399731E+04  0.14080906750E+04  0.15294330000E+03 0.  0.
<mgrwt>
<rscale>  0 0.49785705E+03</rscale>
<asrwt>0</asrwt>
<pdfrwt beam="1">  1        1 0.24288152E+00 0.49785705E+03</pdfrwt>
<pdfrwt beam="2">  1       -1 0.51107714E-01 0.49785705E+03</pdfrwt>
<totfact> 0.23928953E+01</totfact>
</mgrwt>
</event>
<event>
 4    1  0.1678003E-008  0.8710430E+03  0.7818608E-02  0.9462521E-01
         -1   -1    0    0    0  501 -0.00000000000E+00  0.00000000000E+00  0.43338476675E+03  0.43338476678E+03  0.50400000000E-02 0.  1.
          1   -1    0    0  501    0  0.00000000000E+00 -0.00000000000E+00 -0.30296142348E+04  0.30296142348E+04  0.50400000000E-02 0. -1.
    8880022    1    1    2    0    0 -0.61023196683E+03  0.60244606732E+03 -0.17311188333E+03  0.88807865336E+03  0.15294330000E+03 0.  0.
    8880022    1    1    2    0    0  0.61023196683E+03 -0.60244606732E+03 -0.24231175847E+04  0.25749203482E+04  0.15294330000E+03 0.  0.
<mgrwt>
<rscale>  0 0.87104304E+03</rscale>
<asrwt>0</asrwt>
<pdfrwt beam="1">  1        1 0.46609448E+00 0.87104304E+03</pdfrwt>
<pdfrwt beam="2">  1       -1 0.66674581E-01 0.87104304E+03</pdfrwt>
<totfact> 0.13630811E+00</totfact>
</mgrwt>
</event>
<event>
 4    1  0.1678003E-008  0.1148980E+04  0.7818608E-02  0.9158725E-01
         -1   -1    0    0    0  501 -0.00000000000E+00  0.00000000000E+00  0.89884212894E+03  0.89884212895E+03  0.50400000000E-02 0.  1.
          1   -1    0    0  501    0  0.00000000000E+00 -0.00000000000E+00 -0.16617244829E+04  0.16617244829E+04  0.50400000000E-02 0. -1.
    8880022    1    1    2    0    0 -0.10858873849E+04 -0.34294594663E+03 -0.81775682410E+03  0.14102769981E+04  0.15294330000E+03 0.  0.
    8880022    1    1    2    0    0  0.10858873849E+04  0.34294594663E+03  0.54874470185E+02  0.11502896137E+04  0.15294330000E+03 0.  0.
<mgrwt>
<rscale>  0 0.11489800E+04</rscale>
<asrwt>0</asrwt>
<pdfrwt beam="1">  1        1 0.25564992E+00 0.11489800E+04</pdfrwt>
<pdfrwt beam="2">  1       -1 0.13828340E+00 0.11489800E+04</pdfrwt>
<totfact> 0.21646196E+00</totfact>
</mgrwt>
</event>
<event>
 4    1  0.1678003E-008  0.4678525E+03  0.7818608E-02  0.1022528E+00
         -1   -1    0    0    0  501 -0.00000000000E+00  0.00000000000E+00  0.25928157584E+03  0.25928157589E+03  0.50400000000E-02 0.  1.
          1   -1    0    0  501    0  0.00000000000E+00 -0.00000000000E+00 -0.29063123297E+04  0.29063123297E+04  0.50400000000E-02 0. -1.
    8880022    1    1    2    0    0 -0.40465682113E+03 -0.17817724850E+03  0.97298932032E+01  0.46795362869E+03  0.15294330000E+03 0.  0.
    8880022    1    1    2    0    0  0.40465682113E+03  0.17817724850E+03 -0.26567606471E+04  0.26976402769E+04  0.15294330000E+03 0.  0.
<mgrwt>
<rscale>  0 0.46785246E+03</rscale>
<asrwt>0</asrwt>
<pdfrwt beam="1">  1        1 0.44712495E+00 0.46785246E+03</pdfrwt>
<pdfrwt beam="2">  1       -1 0.39889475E-01 0.46785246E+03</pdfrwt>
<totfact> 0.48820971E+00</totfact>
</mgrwt>
</event>
<event>
 4    1  0.1678003E-008  0.1755500E+03  0.7818608E-02  0.1172181E+00
         -1   -1    0    0    0  501 -0.00000000000E+00  0.00000000000E+00  0.30754128715E+04  0.30754128715E+04  0.50400000000E-02 0.  1.
          1   -1    0    0  501    0  0.00000000000E+00 -0.00000000000E+00 -0.25436734152E+03  0.25436734157E+03  0.50400000000E-02 0. -1.
    8880022    1    1    2    0    0 -0.52651215471E+02  0.68220276602E+02  0.30422895110E+04  0.30473502061E+04  0.15294330000E+03 0.  0.
    8880022    1    1    2    0    0  0.52651215471E+02 -0.68220276602E+02 -0.22124398110E+03  0.28243000693E+03  0.15294330000E+03 0. -1.
<mgrwt>
<rscale>  0 0.17555002E+03</rscale>
<asrwt>0</asrwt>
<pdfrwt beam="1">  1        1 0.39133441E-01 0.17555002E+03</pdfrwt>
<pdfrwt beam="2">  1       -1 0.47314040E+00 0.17555002E+03</pdfrwt>
<totfact> 0.32645087E-01</totfact>
</mgrwt>
</event>
<event>
 4    1  0.1678003E-008  0.4713350E+03  0.7818608E-02  0.1021544E+00
         -1   -1    0    0    0  501 -0.00000000000E+00  0.00000000000E+00  0.47241442758E+03  0.47241442761E+03  0.50400000000E-02 0.  1.
          1   -1    0    0  501    0  0.00000000000E+00 -0.00000000000E+00 -0.79266239070E+03  0.79266239071E+03  0.50400000000E-02 0. -1.
    8880022    1    1    2    0    0  0.40830113595E+03  0.17903969381E+03  0.24328282603E+03  0.53041796353E+03  0.15294330000E+03 0.  0.
    8880022    1    1    2    0    0 -0.40830113595E+03 -0.17903969381E+03 -0.56353078915E+03  0.73465885479E+03  0.15294330000E+03 0.  0.
<mgrwt>
<rscale>  0 0.47133500E+03</rscale>
<asrwt>0</asrwt>
<pdfrwt beam="1">  1        1 0.12194806E+00 0.47133500E+03</pdfrwt>
<pdfrwt beam="2">  1       -1 0.72679143E-01 0.47133500E+03</pdfrwt>
<totfact> 0.45339146E+01</totfact>
</mgrwt>
</event>
<event>
 4    1  0.2519891E-008  0.3223428E+03  0.7818608E-02  0.1074576E+00
          1   -1    0    0  501    0  0.00000000000E+00  0.00000000000E+00  0.12727851011E+04  0.12727851011E+04  0.50400000000E-02 0. -1.
         -1   -1    0    0    0  501 -0.00000000000E+00 -0.00000000000E+00 -0.23195989120E+04  0.23195989120E+04  0.50400000000E-02 0.  1.
    8880022    1    1    2    0    0 -0.28354232866E+03  0.10815579873E+02  0.12408944555E+04  0.12820779740E+04  0.15294330000E+03 0.  0.
    8880022    1    1    2    0    0  0.28354232866E+03 -0.10815579873E+02 -0.22877082664E+04  0.23103060390E+04  0.15294330000E+03 0.  0.
<mgrwt>
<rscale>  0 0.32234280E+03</rscale>
<asrwt>0</asrwt>
<pdfrwt beam="1">  1        1 0.19581309E+00 0.32234280E+03</pdfrwt>
<pdfrwt beam="2">  1       -1 0.35686137E+00 0.32234280E+03</pdfrwt>
<totfact> 0.16920016E-01</totfact>
</mgrwt>
</event>
<event>
 4    1  0.1678003E-008  0.7101195E+03  0.7818608E-02  0.9700081E-01
          1   -1    0    0  501    0  0.00000000000E+00  0.00000000000E+00  0.34932190141E+03  0.34932190145E+03  0.50400000000E-02 0. -1.
         -1   -1    0    0    0  501 -0.00000000000E+00 -0.00000000000E+00 -0.18368919305E+04  0.18368919305E+04  0.50400000000E-02 0.  1.
    8880022    1    1    2    0    0 -0.20041714544E+03 -0.66386069074E+03 -0.12496054447E+04  0.14372833644E+04  0.15294330000E+03 0.  0.
    8880022    1    1    2    0    0  0.20041714544E+03  0.66386069074E+03 -0.23796458435E+03  0.74893046761E+03  0.15294330000E+03 0.  0.
<mgrwt>
<rscale>  0 0.71011950E+03</rscale>
<asrwt>0</asrwt>
<pdfrwt beam="1">  1        1 0.53741832E-01 0.71011950E+03</pdfrwt>
<pdfrwt beam="2">  1       -1 0.28259875E+00 0.71011950E+03</pdfrwt>
<totfact> 0.32360992E+00</totfact>
</mgrwt>
</event>
<event>
 4    1  0.1678003E-008  0.1173561E+04  0.7818608E-02  0.9136318E-01
         -1   -1    0    0    0  501 -0.00000000000E+00  0.00000000000E+00  0.13671721776E+04  0.13671721776E+04  0.50400000000E-02 0.  1.
          1   -1    0    0  501    0  0.00000000000E+00 -0.00000000000E+00 -0.16886342199E+04  0.16886342200E+04  0.50400000000E-02 0. -1.
    8880022    1    1    2    0    0 -0.91516274248E+03 -0.71856250422E+03 -0.11312102077E+04  0.16299948174E+04  0.15294330000E+03 0.  0.
    8880022    1    1    2    0    0  0.91516274248E+03  0.71856250422E+03  0.80974816534E+03  0.14258115801E+04  0.15294330000E+03 0.  0.
<mgrwt>
<rscale>  0 0.11735615E+04</rscale>
<asrwt>0</asrwt>
<pdfrwt beam="1">  1        1 0.25978988E+00 0.11735615E+04</pdfrwt>
<pdfrwt beam="2">  1       -1 0.21033418E+00 0.11735615E+04</pdfrwt>
<totfact> 0.61049380E-01</totfact>
</mgrwt>
</event>
<event>
 4    1  0.1678003E-008  0.3271042E+03  0.7818608E-02  0.1072425E+00
          1   -1    0    0  501    0  0.00000000000E+00  0.00000000000E+00  0.88594036142E+03  0.88594036143E+03  0.50400000000E-02 0. -1.
         -1   -1    0    0    0  501 -0.00000000000E+00 -0.00000000000E+00 -0.36040904922E+03  0.36040904925E+03  0.50400000000E-02 0.  1.
    8880022    1    1    2    0    0 -0.20791750153E+03 -0.20093733807E+03 -0.24538042662E+03  0.40891161399E+03  0.15294330000E+03 0.  0.
    8880022    1    1    2    0    0  0.20791750153E+03  0.20093733807E+03  0.77091173882E+03  0.83743779670E+03  0.15294330000E+03 0.  0.
<mgrwt>
<rscale>  0 0.32710419E+03</rscale>
<asrwt>0</asrwt>
<pdfrwt beam="1">  1        1 0.13629851E+00 0.32710419E+03</pdfrwt>
<pdfrwt beam="2">  1       -1 0.55447547E-01 0.32710419E+03</pdfrwt>
<totfact> 0.66414489E+01</totfact>
</mgrwt>
</event>
<event>
 4    1  0.1678003E-008  0.5979831E+03  0.7818608E-02  0.9909599E-01
          1   -1    0    0  501    0  0.00000000000E+00  0.00000000000E+00  0.59138111072E+03  0.59138111074E+03  0.50400000000E-02 0. -1.
         -1   -1    0    0    0  501 -0.00000000000E+00 -0.00000000000E+00 -0.19350367985E+04  0.19350367985E+04  0.50400000000E-02 0.  1.
    8880022    1    1    2    0    0  0.57797181991E+03 -0.11859719147E+02 -0.17192412436E+04  0.18202676134E+04  0.15294330000E+03 0.  1.
    8880022    1    1    2    0    0 -0.57797181991E+03  0.11859719147E+02  0.37558555586E+03  0.70615029585E+03  0.15294330000E+03 0.  0.
<mgrwt>
<rscale>  0 0.59798305E+03</rscale>
<asrwt>0</asrwt>
<pdfrwt beam="1">  1        1 0.90981710E-01 0.59798305E+03</pdfrwt>
<pdfrwt beam="2">  1       -1 0.29769797E+00 0.59798305E+03</pdfrwt>
<totfact> 0.13006228E+00</totfact>
</mgrwt>
</event>
<event>
 4    1  0.1678003E-008  0.2778082E+03  0.7818608E-02  0.1096892E+00
         -1   -1    0    0    0  501 -0.00000000000E+00  0.00000000000E+00  0.71821484317E+03  0.71821484318E+03  0.50400000000E-02 0.  1.
          1   -1    0    0  501    0  0.00000000000E+00 -0.00000000000E+00 -0.20051276508E+03  0.20051276514E+03  0.50400000000E-02 0. -1.
    8880022    1    1    2    0    0  0.20343364719E+03  0.11135746016E+03 -0.54085905315E+02  0.28302415252E+03  0.15294330000E+03 0.  0.
    8880022    1    1    2    0    0 -0.20343364719E+03 -0.11135746016E+03  0.57178798340E+03  0.63570345580E+03  0.15294330000E+03 0.  0.
<mgrwt>
<rscale>  0 0.27780818E+03</rscale>
<asrwt>0</asrwt>
<pdfrwt beam="1">  1        1 0.30848117E-01 0.27780818E+03</pdfrwt>
<pdfrwt beam="2">  1       -1 0.11049459E+00 0.27780818E+03</pdfrwt>
<totfact> 0.11816737E+02</totfact>
</mgrwt>
</event>
<event>
 4    1  0.1678003E-008  0.2533049E+03  0.7818608E-02  0.1111234E+00
         -1   -1    0    0    0  501 -0.00000000000E+00  0.00000000000E+00  0.32509935076E+03  0.32509935079E+03  0.50400000000E-02 0.  1.
          1   -1    0    0  501    0  0.00000000000E+00 -0.00000000000E+00 -0.34637723079E+03  0.34637723083E+03  0.50400000000E-02 0. -1.
    8880022    1    1    2    0    0  0.12529079180E+03 -0.15834751299E+03 -0.23084869378E+03  0.34271634016E+03  0.15294330000E+03 0.  0.
    8880022    1    1    2    0    0 -0.12529079180E+03  0.15834751299E+03  0.20957081374E+03  0.32876024146E+03  0.15294330000E+03 0.  0.
<mgrwt>
<rscale>  0 0.25330490E+03</rscale>
<asrwt>0</asrwt>
<pdfrwt beam="1">  1        1 0.53288805E-01 0.25330490E+03</pdfrwt>
<pdfrwt beam="2">  1       -1 0.50015285E-01 0.25330490E+03</pdfrwt>
<totfact> 0.30206139E+02</totfact>
</mgrwt>
</event>
<event>
 4    1  0.1678003E-008  0.7427617E+03  0.7818608E-02  0.9646775E-01
         -1   -1    0    0    0  501 -0.00000000000E+00  0.00000000000E+00  0.81034374183E+03  0.81034374185E+03  0.50400000000E-02 0.  1.
          1   -1    0    0  501    0  0.00000000000E+00 -0.00000000000E+00 -0.13417683705E+04  0.13417683706E+04  0.50400000000E-02 0. -1.
    8880022    1    1    2    0    0  0.46661176822E+03 -0.55729416107E+03 -0.10209457460E+04  0.12625471055E+04  0.15294330000E+03 0.  0.
    8880022    1    1    2    0    0 -0.46661176822E+03  0.55729416107E+03  0.48952111732E+03  0.88956500691E+03  0.15294330000E+03 0.  0.
<mgrwt>
<rscale>  0 0.74276172E+03</rscale>
<asrwt>0</asrwt>
<pdfrwt beam="1">  1        1 0.20642590E+00 0.74276172E+03</pdfrwt>
<pdfrwt beam="2">  1       -1 0.12466827E+00 0.74276172E+03</pdfrwt>
<totfact> 0.49539218E+00</totfact>
</mgrwt>
</event>
<event>
 4    1  0.1678003E-008  0.7902246E+03  0.7818608E-02  0.9574275E-01
         -1   -1    0    0    0  501 -0.00000000000E+00  0.00000000000E+00  0.20043413947E+04  0.20043413947E+04  0.50400000000E-02 0.  1.
          1   -1    0    0  501    0  0.00000000000E+00 -0.00000000000E+00 -0.49933498140E+03  0.49933498143E+03  0.50400000000E-02 0. -1.
    8880022    1    1    2    0    0 -0.74688567489E+03 -0.20790629027E+03  0.15201850768E+04  0.17133060315E+04  0.15294330000E+03 0.  0.
    8880022    1    1    2    0    0  0.74688567489E+03  0.20790629027E+03 -0.15178663446E+02  0.79037034466E+03  0.15294330000E+03 0.  0.
<mgrwt>
<rscale>  0 0.79022458E+03</rscale>
<asrwt>0</asrwt>
<pdfrwt beam="1">  1        1 0.76820767E-01 0.79022458E+03</pdfrwt>
<pdfrwt beam="2">  1       -1 0.30836021E+00 0.79022458E+03</pdfrwt>
<totfact> 0.13559928E+00</totfact>
</mgrwt>
</event>
<event>
 4    1  0.1678003E-008  0.5918144E+03  0.7818608E-02  0.9922536E-01
          1   -1    0    0  501    0  0.00000000000E+00  0.00000000000E+00  0.35852591595E+04  0.35852591595E+04  0.50400000000E-02 0. -1.
         -1   -1    0    0    0  501 -0.00000000000E+00 -0.00000000000E+00 -0.18773210431E+03  0.18773210438E+03  0.50400000000E-02 0.  1.
    8880022    1    1    2    0    0  0.74171713946E+01 -0.57166217262E+03  0.39226441415E+03  0.71001104052E+03  0.15294330000E+03 0.  0.
    8880022    1    1    2    0    0 -0.74171713946E+01  0.57166217262E+03  0.30052626411E+04  0.30629802234E+04  0.15294330000E+03 0.  0.
<mgrwt>
<rscale>  0 0.59181442E+03</rscale>
<asrwt>0</asrwt>
<pdfrwt beam="1">  1        1 0.55157833E+00 0.59181442E+03</pdfrwt>
<pdfrwt beam="2">  1       -1 0.28881862E-01 0.59181442E+03</pdfrwt>
<totfact> 0.26262599E+00</totfact>
</mgrwt>
</event>
<event>
 4    1  0.1678003E-008  0.1055410E+04  0.7818608E-02  0.9249776E-01
         -1   -1    0    0    0  501 -0.00000000000E+00  0.00000000000E+00  0.88174668711E+03  0.88174668713E+03  0.50400000000E-02 0.  1.
          1   -1    0    0  501    0  0.00000000000E+00 -0.00000000000E+00 -0.12633954680E+04  0.12633954680E+04  0.50400000000E-02 0. -1.
    8880022    1    1    2    0    0  0.17308130149E+03  0.10298263619E+04 -0.18047882553E+03  0.10707304666E+04  0.15294330000E+03 0.  1.
    8880022    1    1    2    0    0 -0.17308130149E+03 -0.10298263619E+04 -0.20116995532E+03  0.10744116885E+04  0.15294330000E+03 0. -1.
<mgrwt>
<rscale>  0 0.10554104E+04</rscale>
<asrwt>0</asrwt>
<pdfrwt beam="1">  1        1 0.19436853E+00 0.10554104E+04</pdfrwt>
<pdfrwt beam="2">  1       -1 0.13565334E+00 0.10554104E+04</pdfrwt>
<totfact> 0.43596838E+00</totfact>
</mgrwt>
</event>
<event>
 4    1  0.1678003E-008  0.4219444E+03  0.7818608E-02  0.1036435E+00
         -1   -1    0    0    0  501 -0.00000000000E+00  0.00000000000E+00  0.17848070867E+03  0.17848070874E+03  0.50400000000E-02 0.  1.
          1   -1    0    0  501    0  0.00000000000E+00 -0.00000000000E+00 -0.28252050933E+04  0.28252050933E+04  0.50400000000E-02 0. -1.
    8880022    1    1    2    0    0  0.39246119895E+03 -0.24891750860E+02 -0.11540682641E+03  0.43744231681E+03  0.15294330000E+03 0.  1.
    8880022    1    1    2    0    0 -0.39246119895E+03  0.24891750860E+02 -0.25313175582E+04  0.25662434852E+04  0.15294330000E+03 0.  0.
<mgrwt>
<rscale>  0 0.42194436E+03</rscale>
<asrwt>0</asrwt>
<pdfrwt beam="1">  1        1 0.43464690E+00 0.42194436E+03</pdfrwt>
<pdfrwt beam="2">  1       -1 0.27458573E-01 0.42194436E+03</pdfrwt>
<totfact> 0.10842921E+01</totfact>
</mgrwt>
</event>
<event>
 4    1  0.1678003E-008  0.9391158E+03  0.7818608E-02  0.9377964E-01
         -1   -1    0    0    0  501 -0.00000000000E+00  0.00000000000E+00  0.68119102719E+03  0.68119102720E+03  0.50400000000E-02 0.  1.
          1   -1    0    0  501    0  0.00000000000E+00 -0.00000000000E+00 -0.25254227322E+04  0.25254227322E+04  0.50400000000E-02 0. -1.
    8880022    1    1    2    0    0  0.63923982061E+03  0.67076029167E+03  0.19714053836E+03  0.95958478626E+03  0.15294330000E+03 0.  0.
    8880022    1    1    2    0    0 -0.63923982061E+03 -0.67076029167E+03 -0.20413722434E+04  0.22470289732E+04  0.15294330000E+03 0.  0.
<mgrwt>
<rscale>  0 0.93911584E+03</rscale>
<asrwt>0</asrwt>
<pdfrwt beam="1">  1        1 0.38852657E+00 0.93911584E+03</pdfrwt>
<pdfrwt beam="2">  1       -1 0.10479862E+00 0.93911584E+03</pdfrwt>
<totfact> 0.11449457E+00</totfact>
</mgrwt>
</event>
<event>
 4    1  0.1678003E-008  0.1084034E+04  0.7818608E-02  0.9220894E-01
          1   -1    0    0  501    0  0.00000000000E+00  0.00000000000E+00  0.11813938087E+04  0.11813938087E+04  0.50400000000E-02 0. -1.
         -1   -1    0    0    0  501 -0.00000000000E+00 -0.00000000000E+00 -0.11203041095E+04  0.11203041095E+04  0.50400000000E-02 0.  1.
    8880022    1    1    2    0    0  0.27982078080E+03  0.10360691640E+04 -0.35480474242E+03  0.11406213395E+04  0.15294330000E+03 0.  0.
    8880022    1    1    2    0    0 -0.27982078080E+03 -0.10360691640E+04  0.41589444167E+03  0.11610765787E+04  0.15294330000E+03 0.  0.
<mgrwt>
<rscale>  0 0.10840344E+04</rscale>
<asrwt>0</asrwt>
<pdfrwt beam="1">  1        1 0.18175289E+00 0.10840344E+04</pdfrwt>
<pdfrwt beam="2">  1       -1 0.17235448E+00 0.10840344E+04</pdfrwt>
<totfact> 0.25903982E+00</totfact>
</mgrwt>
</event>
<event>
 4    1  0.1678003E-008  0.3003732E+03  0.7818608E-02  0.1085054E+00
         -1   -1    0    0    0  501 -0.00000000000E+00  0.00000000000E+00  0.89851104139E+02  0.89851104280E+02  0.50400000000E-02 0.  1.
          1   -1    0    0  501    0  0.00000000000E+00 -0.00000000000E+00 -0.20316629543E+04  0.20316629543E+04  0.50400000000E-02 0. -1.
    8880022    1    1    2    0    0  0.23063199409E+03 -0.11679581789E+03 -0.17252745740E+04  0.17512271094E+04  0.15294330000E+03 0.  0.
    8880022    1    1    2    0    0 -0.23063199409E+03  0.11679581789E+03 -0.21653727608E+03  0.37028694917E+03  0.15294330000E+03 0.  1.
<mgrwt>
<rscale>  0 0.30037316E+03</rscale>
<asrwt>0</asrwt>
<pdfrwt beam="1">  1        1 0.31256350E+00 0.30037316E+03</pdfrwt>
<pdfrwt beam="2">  1       -1 0.13823248E-01 0.30037316E+03</pdfrwt>
<totfact> 0.11745892E+02</totfact>
</mgrwt>
</event>
<event>
 4    1  0.1678003E-008  0.2706596E+03  0.7818608E-02  0.1100903E+00
         -1   -1    0    0    0  501 -0.00000000000E+00  0.00000000000E+00  0.51310728146E+03  0.51310728149E+03  0.50400000000E-02 0.  1.
          1   -1    0    0  501    0  0.00000000000E+00 -0.00000000000E+00 -0.62781431925E+03  0.62781431927E+03  0.50400000000E-02 0. -1.
    8880022    1    1    2    0    0  0.10342219282E+03  0.19791119967E+03  0.44406530180E+03  0.52004868830E+03  0.15294330000E+03 0.  0.
    8880022    1    1    2    0    0 -0.10342219282E+03 -0.19791119967E+03 -0.55877233959E+03  0.62087291246E+03  0.15294330000E+03 0. -1.
<mgrwt>
<rscale>  0 0.27065965E+03</rscale>
<asrwt>0</asrwt>
<pdfrwt beam="1">  1        1 0.96586818E-01 0.27065965E+03</pdfrwt>
<pdfrwt beam="2">  1       -1 0.78939582E-01 0.27065965E+03</pdfrwt>
<totfact> 0.56167169E+01</totfact>
</mgrwt>
</event>
<event>
 4    1  0.1678003E-008  0.6829219E+03  0.7818608E-02  0.9746892E-01
         -1   -1    0    0    0  501 -0.00000000000E+00  0.00000000000E+00  0.10691610646E+04  0.10691610646E+04  0.50400000000E-02 0.  1.
          1   -1    0    0  501    0  0.00000000000E+00 -0.00000000000E+00 -0.13111530950E+04  0.13111530950E+04  0.50400000000E-02 0. -1.
    8880022    1    1    2    0    0 -0.63884333113E+03  0.18673457656E+03  0.85122873249E+03  0.10913169163E+04  0.15294330000E+03 0.  0.
    8880022    1    1    2    0    0  0.63884333113E+03 -0.18673457656E+03 -0.10932207629E+04  0.12889972433E+04  0.15294330000E+03 0.  0.
<mgrwt>
<rscale>  0 0.68292185E+03</rscale>
<asrwt>0</asrwt>
<pdfrwt beam="1">  1        1 0.20171586E+00 0.68292185E+03</pdfrwt>
<pdfrwt beam="2">  1       -1 0.16448632E+00 0.68292185E+03</pdfrwt>
<totfact> 0.25383240E+00</totfact>
</mgrwt>
</event>
<event>
 4    1  0.1678003E-008  0.7608690E+03  0.7818608E-02  0.9618451E-01
          1   -1    0    0  501    0  0.00000000000E+00  0.00000000000E+00  0.22215494603E+04  0.22215494603E+04  0.50400000000E-02 0. -1.
         -1   -1    0    0    0  501 -0.00000000000E+00 -0.00000000000E+00 -0.34210157362E+03  0.34210157366E+03  0.50400000000E-02 0.  1.
    8880022    1    1    2    0    0  0.56910362344E+03  0.48130148747E+03  0.31404540273E+03  0.82313196028E+03  0.15294330000E+03 0.  0.
    8880022    1    1    2    0    0 -0.56910362344E+03 -0.48130148747E+03  0.15654024839E+04  0.17405190736E+04  0.15294330000E+03 0.  0.
<mgrwt>
<rscale>  0 0.76086905E+03</rscale>
<asrwt>0</asrwt>
<pdfrwt beam="1">  1        1 0.34177684E+00 0.76086905E+03</pdfrwt>
<pdfrwt beam="2">  1       -1 0.52631012E-01 0.76086905E+03</pdfrwt>
<totfact> 0.80367352E+00</totfact>
</mgrwt>
</event>
<event>
 4    1  0.1678003E-008  0.6156721E+03  0.7818608E-02  0.9873414E-01
          1   -1    0    0  501    0  0.00000000000E+00  0.00000000000E+00  0.80306922736E+03  0.80306922738E+03  0.50400000000E-02 0. -1.
         -1   -1    0    0    0  501 -0.00000000000E+00 -0.00000000000E+00 -0.60332370953E+03  0.60332370955E+03  0.50400000000E-02 0.  1.
    8880022    1    1    2    0    0 -0.59557707384E+03 -0.30796612387E+02 -0.22819679757E+03  0.65660179231E+03  0.15294330000E+03 0.  0.
    8880022    1    1    2    0    0  0.59557707384E+03  0.30796612387E+02  0.42794231541E+03  0.74979114462E+03  0.15294330000E+03 0.  0.
<mgrwt>
<rscale>  0 0.61567210E+03</rscale>
<asrwt>0</asrwt>
<pdfrwt beam="1">  1        1 0.12354911E+00 0.61567210E+03</pdfrwt>
<pdfrwt beam="2">  1       -1 0.92819033E-01 0.61567210E+03</pdfrwt>
<totfact> 0.25855919E+01</totfact>
</mgrwt>
</event>
<event>
 4    1  0.1678003E-008  0.2771628E+03  0.7818608E-02  0.1097249E+00
          1   -1    0    0  501    0  0.00000000000E+00  0.00000000000E+00  0.17612221799E+04  0.17612221799E+04  0.50400000000E-02 0. -1.
         -1   -1    0    0    0  501 -0.00000000000E+00 -0.00000000000E+00 -0.15693123719E+03  0.15693123727E+03  0.50400000000E-02 0.  1.
    8880022    1    1    2    0    0 -0.25943902132E+02  0.22968348038E+03  0.16171140621E+04  0.16406941001E+04  0.15294330000E+03 0. -1.
    8880022    1    1    2    0    0  0.25943902132E+02 -0.22968348038E+03 -0.12823119414E+02  0.27745931706E+03  0.15294330000E+03 0.  0.
<mgrwt>
<rscale>  0 0.27716284E+03</rscale>
<asrwt>0</asrwt>
<pdfrwt beam="1">  1        1 0.27095727E+00 0.27716284E+03</pdfrwt>
<pdfrwt beam="2">  1       -1 0.24143266E-01 0.27716284E+03</pdfrwt>
<totfact> 0.71730600E+01</totfact>
</mgrwt>
</event>
<event>
 4    1  0.1678003E-008  0.6356147E+03  0.7818608E-02  0.9834153E-01
         -1   -1    0    0    0  501 -0.00000000000E+00  0.00000000000E+00  0.16256168248E+04  0.16256168249E+04  0.50400000000E-02 0.  1.
          1   -1    0    0  501    0  0.00000000000E+00 -0.00000000000E+00 -0.27014795934E+03  0.27014795939E+03  0.50400000000E-02 0. -1.
    8880022    1    1    2    0    0 -0.10125034778E+03 -0.60857441657E+03  0.94590624201E+03  0.11396248177E+04  0.15294330000E+03 0.  0.
    8880022    1    1    2    0    0  0.10125034778E+03  0.60857441657E+03  0.40956262349E+03  0.75613996655E+03  0.15294330000E+03 0.  0.
<mgrwt>
<rscale>  0 0.63561475E+03</rscale>
<asrwt>0</asrwt>
<pdfrwt beam="1">  1        1 0.41561225E-01 0.63561475E+03</pdfrwt>
<pdfrwt beam="2">  1       -1 0.25009489E+00 0.63561475E+03</pdfrwt>
<totfact> 0.73738083E+00</totfact>
</mgrwt>
</event>
<event>
 4    1  0.1678003E-008  0.4567613E+03  0.7818608E-02  0.1025725E+00
         -1   -1    0    0    0  501 -0.00000000000E+00  0.00000000000E+00  0.36816072586E+03  0.36816072589E+03  0.50400000000E-02 0.  1.
          1   -1    0    0  501    0  0.00000000000E+00 -0.00000000000E+00 -0.13527879197E+04  0.13527879197E+04  0.50400000000E-02 0. -1.
    8880022    1    1    2    0    0 -0.19978174872E+03  0.38121711019E+03 -0.11482518646E+04  0.12357642290E+04  0.15294330000E+03 0.  0.
    8880022    1    1    2    0    0  0.19978174872E+03 -0.38121711019E+03  0.16362467072E+03  0.48518441659E+03  0.15294330000E+03 0.  0.
<mgrwt>
<rscale>  0 0.45676130E+03</rscale>
<asrwt>0</asrwt>
<pdfrwt beam="1">  1        1 0.20812122E+00 0.45676130E+03</pdfrwt>
<pdfrwt beam="2">  1       -1 0.56640112E-01 0.45676130E+03</pdfrwt>
<totfact> 0.28245535E+01</totfact>
</mgrwt>
</event>
<event>
 4    1  0.1678003E-008  0.6460316E+03  0.7818608E-02  0.9814254E-01
         -1   -1    0    0    0  501 -0.00000000000E+00  0.00000000000E+00  0.31415954860E+03  0.31415954864E+03  0.50400000000E-02 0.  1.
          1   -1    0    0  501    0  0.00000000000E+00 -0.00000000000E+00 -0.20703825500E+04  0.20703825500E+04  0.50400000000E-02 0. -1.
    8880022    1    1    2    0    0  0.14818907404E+03 -0.60992223795E+03 -0.16440251972E+03  0.66662206648E+03  0.15294330000E+03 0.  0.
    8880022    1    1    2    0    0 -0.14818907404E+03  0.60992223795E+03 -0.15918204817E+04  0.17179200322E+04  0.15294330000E+03 0.  0.
<mgrwt>
<rscale>  0 0.64603157E+03</rscale>
<asrwt>0</asrwt>
<pdfrwt beam="1">  1        1 0.31852038E+00 0.64603157E+03</pdfrwt>
<pdfrwt beam="2">  1       -1 0.48332239E-01 0.64603157E+03</pdfrwt>
<totfact> 0.12159704E+01</totfact>
</mgrwt>
</event>
<event>
 4    1  0.1678003E-008  0.3286917E+03  0.7818608E-02  0.1071717E+00
          1   -1    0    0  501    0  0.00000000000E+00  0.00000000000E+00  0.66786913966E+03  0.66786913968E+03  0.50400000000E-02 0. -1.
         -1   -1    0    0    0  501 -0.00000000000E+00 -0.00000000000E+00 -0.29343037489E+03  0.29343037493E+03  0.50400000000E-02 0.  1.
    8880022    1    1    2    0    0 -0.52240249646E+02  0.28621237333E+03 -0.13474740524E+03  0.35523947214E+03  0.15294330000E+03 0.  0.
    8880022    1    1    2    0    0  0.52240249646E+02 -0.28621237333E+03  0.50918617002E+03  0.60606004247E+03  0.15294330000E+03 0.  0.
<mgrwt>
<rscale>  0 0.32869168E+03</rscale>
<asrwt>0</asrwt>
<pdfrwt beam="1">  1        1 0.10274910E+00 0.32869168E+03</pdfrwt>
<pdfrwt beam="2">  1       -1 0.45143135E-01 0.32869168E+03</pdfrwt>
<totfact> 0.15020958E+02</totfact>
</mgrwt>
</event>
<event>
 4    1  0.1678003E-008  0.3456656E+03  0.7818608E-02  0.1064408E+00
         -1   -1    0    0    0  501 -0.00000000000E+00  0.00000000000E+00  0.15174133137E+03  0.15174133145E+03  0.50400000000E-02 0.  1.
          1   -1    0    0  501    0  0.00000000000E+00 -0.00000000000E+00 -0.17275303191E+04  0.17275303191E+04  0.50400000000E-02 0. -1.
    8880022    1    1    2    0    0  0.10888193882E+03  0.29023741459E+03 -0.94731554274E+02  0.35841143093E+03  0.15294330000E+03 0.  0.
    8880022    1    1    2    0    0 -0.10888193882E+03 -0.29023741459E+03 -0.14810574335E+04  0.15208602197E+04  0.15294330000E+03 0.  0.
<mgrwt>
<rscale>  0 0.34566557E+03</rscale>
<asrwt>0</asrwt>
<pdfrwt beam="1">  1        1 0.26577388E+00 0.34566557E+03</pdfrwt>
<pdfrwt beam="2">  1       -1 0.23344821E-01 0.34566557E+03</pdfrwt>
<totfact> 0.78420019E+01</totfact>
</mgrwt>
</event>
<event>
 4    1  0.1678003E-008  0.2802225E+03  0.7818608E-02  0.1095567E+00
          1   -1    0    0  501    0  0.00000000000E+00  0.00000000000E+00  0.21075123199E+04  0.21075123199E+04  0.50400000000E-02 0. -1.
         -1   -1    0    0    0  501 -0.00000000000E+00 -0.00000000000E+00 -0.11195011302E+03  0.11195011314E+03  0.50400000000E-02 0.  1.
    8880022    1    1    2    0    0 -0.22236423047E+03 -0.75413128033E+02  0.19042206363E+04  0.19247287797E+04  0.15294330000E+03 0. -1.
    8880022    1    1    2    0    0  0.22236423047E+03  0.75413128033E+02  0.91341570625E+02  0.29473365334E+03  0.15294330000E+03 0.  0.
<mgrwt>
<rscale>  0 0.28022249E+03</rscale>
<asrwt>0</asrwt>
<pdfrwt beam="1">  1        1 0.32423264E+00 0.28022249E+03</pdfrwt>
<pdfrwt beam="2">  1       -1 0.17223095E-01 0.28022249E+03</pdfrwt>
<totfact> 0.74142847E+01</totfact>
</mgrwt>
</event>
<event>
 4    1  0.1678003E-008  0.2247896E+03  0.7818608E-02  0.1130362E+00
         -1   -1    0    0    0  501 -0.00000000000E+00  0.00000000000E+00  0.36737695604E+02  0.36737695950E+02  0.50400000000E-02 0.  1.
          1   -1    0    0  501    0  0.00000000000E+00 -0.00000000000E+00 -0.31760778973E+04  0.31760778973E+04  0.50400000000E-02 0. -1.
    8880022    1    1    2    0    0  0.63150001781E+02 -0.15215385974E+03 -0.36012009153E+03  0.42451955561E+03  0.15294330000E+03 0.  1.
    8880022    1    1    2    0    0 -0.63150001781E+02  0.15215385974E+03 -0.27792201102E+04  0.27882960376E+04  0.15294330000E+03 0. -1.
<mgrwt>
<rscale>  0 0.22478962E+03</rscale>
<asrwt>0</asrwt>
<pdfrwt beam="1">  1        1 0.48862715E+00 0.22478962E+03</pdfrwt>
<pdfrwt beam="2">  1       -1 0.56519557E-02 0.22478962E+03</pdfrwt>
<totfact> 0.80783754E+01</totfact>
</mgrwt>
</event>
<event>
 4    1  0.1678003E-008  0.7993177E+03  0.7818608E-02  0.9561005E-01
         -1   -1    0    0    0  501 -0.00000000000E+00  0.00000000000E+00  0.38545820521E+03  0.38545820524E+03  0.50400000000E-02 0.  1.
          1   -1    0    0  501    0  0.00000000000E+00 -0.00000000000E+00 -0.44999364620E+04  0.44999364620E+04  0.50400000000E-02 0. -1.
    8880022    1    1    2    0    0 -0.56097287782E+03  0.54847657034E+03 -0.39986144848E+04  0.40777232090E+04  0.15294330000E+03 0.  0.
    8880022    1    1    2    0    0  0.56097287782E+03 -0.54847657034E+03 -0.11586377200E+03  0.80767145829E+03  0.15294330000E+03 0.  0.
<mgrwt>
<rscale>  0 0.79931769E+03</rscale>
<asrwt>0</asrwt>
<pdfrwt beam="1">  1        1 0.69229788E+00 0.79931769E+03</pdfrwt>
<pdfrwt beam="2">  1       -1 0.59301265E-01 0.79931769E+03</pdfrwt>
<totfact> 0.10459417E-01</totfact>
</mgrwt>
</event>
<event>
 4    1  0.1678003E-008  0.5082031E+03  0.7818608E-02  0.1011660E+00
         -1   -1    0    0    0  501 -0.00000000000E+00  0.00000000000E+00  0.48089719050E+03  0.48089719052E+03  0.50400000000E-02 0.  1.
          1   -1    0    0  501    0  0.00000000000E+00 -0.00000000000E+00 -0.85275849383E+03  0.85275849384E+03  0.50400000000E-02 0. -1.
    8880022    1    1    2    0    0  0.48345499797E+03 -0.33912408588E+02 -0.59166076924E+03  0.77995698945E+03  0.15294330000E+03 0.  0.
    8880022    1    1    2    0    0 -0.48345499797E+03  0.33912408588E+02  0.21979946591E+03  0.55369869491E+03  0.15294330000E+03 0.  0.
<mgrwt>
<rscale>  0 0.50820315E+03</rscale>
<asrwt>0</asrwt>
<pdfrwt beam="1">  1        1 0.13119361E+00 0.50820315E+03</pdfrwt>
<pdfrwt beam="2">  1       -1 0.73984183E-01 0.50820315E+03</pdfrwt>
<totfact> 0.38684419E+01</totfact>
</mgrwt>
</event>
<event>
 4    1  0.1678003E-008  0.4200597E+03  0.7818608E-02  0.1037047E+00
         -1   -1    0    0    0  501 -0.00000000000E+00  0.00000000000E+00  0.99278422184E+03  0.99278422185E+03  0.50400000000E-02 0.  1.
          1   -1    0    0  501    0  0.00000000000E+00 -0.00000000000E+00 -0.43340563173E+03  0.43340563176E+03  0.50400000000E-02 0. -1.
    8880022    1    1    2    0    0 -0.24534561290E+03 -0.30473598985E+03 -0.26801041445E+03  0.49827675899E+03  0.15294330000E+03 0.  0.
    8880022    1    1    2    0    0  0.24534561290E+03  0.30473598985E+03  0.82738900456E+03  0.92791309462E+03  0.15294330000E+03 0.  0.
<mgrwt>
<rscale>  0 0.42005969E+03</rscale>
<asrwt>0</asrwt>
<pdfrwt beam="1">  1        1 0.66677791E-01 0.42005969E+03</pdfrwt>
<pdfrwt beam="2">  1       -1 0.15273603E+00 0.42005969E+03</pdfrwt>
<totfact> 0.19253452E+01</totfact>
</mgrwt>
</event>
<event>
 4    1  0.1678003E-008  0.7825619E+03  0.7818608E-02  0.9585607E-01
         -1   -1    0    0    0  501 -0.00000000000E+00  0.00000000000E+00  0.49948233674E+03  0.49948233676E+03  0.50400000000E-02 0.  1.
          1   -1    0    0  501    0  0.00000000000E+00 -0.00000000000E+00 -0.21899523775E+04  0.21899523775E+04  0.50400000000E-02 0. -1.
    8880022    1    1    2    0    0  0.18853857420E+03 -0.74395205239E+03  0.46887360721E+02  0.78396525933E+03  0.15294330000E+03 0.  0.
    8880022    1    1    2    0    0 -0.18853857420E+03  0.74395205239E+03 -0.17373574015E+04  0.19054694550E+04  0.15294330000E+03 0.  0.
<mgrwt>
<rscale>  0 0.78256188E+03</rscale>
<asrwt>0</asrwt>
<pdfrwt beam="1">  1        1 0.33691575E+00 0.78256188E+03</pdfrwt>
<pdfrwt beam="2">  1       -1 0.76843437E-01 0.78256188E+03</pdfrwt>
<totfact> 0.39419570E+00</totfact>
</mgrwt>
</event>
<event>
 4    1  0.1678003E-008  0.4207416E+03  0.7818608E-02  0.1036825E+00
          1   -1    0    0  501    0  0.00000000000E+00  0.00000000000E+00  0.58246660693E+03  0.58246660695E+03  0.50400000000E-02 0. -1.
         -1   -1    0    0    0  501 -0.00000000000E+00 -0.00000000000E+00 -0.33490251019E+03  0.33490251023E+03  0.50400000000E-02 0.  1.
    8880022    1    1    2    0    0  0.12255146020E+03  0.37230764858E+03 -0.15729526869E+02  0.42103552893E+03  0.15294330000E+03 0.  0.
    8880022    1    1    2    0    0 -0.12255146020E+03 -0.37230764858E+03  0.26329362361E+03  0.49633358826E+03  0.15294330000E+03 0.  0.
<mgrwt>
<rscale>  0 0.42074161E+03</rscale>
<asrwt>0</asrwt>
<pdfrwt beam="1">  1        1 0.89610248E-01 0.42074161E+03</pdfrwt>
<pdfrwt beam="2">  1       -1 0.51523463E-01 0.42074161E+03</pdfrwt>
<totfact> 0.14128870E+02</totfact>
</mgrwt>
</event>
<event>
 4    1  0.1678003E-008  0.4940946E+03  0.7818608E-02  0.1015332E+00
         -1   -1    0    0    0  501 -0.00000000000E+00  0.00000000000E+00  0.97643927975E+03  0.97643927977E+03  0.50400000000E-02 0.  1.
          1   -1    0    0  501    0  0.00000000000E+00 -0.00000000000E+00 -0.11967407319E+04  0.11967407319E+04  0.50400000000E-02 0. -1.
    8880022    1    1    2    0    0  0.28288955577E+03 -0.37511509967E+03 -0.10765944721E+04  0.11845611631E+04  0.15294330000E+03 0.  0.
    8880022    1    1    2    0    0 -0.28288955577E+03  0.37511509967E+03  0.85629301994E+03  0.98861884859E+03  0.15294330000E+03 0.  0.
<mgrwt>
<rscale>  0 0.49409462E+03</rscale>
<asrwt>0</asrwt>
<pdfrwt beam="1">  1        1 0.18411396E+00 0.49409462E+03</pdfrwt>
<pdfrwt beam="2">  1       -1 0.15022143E+00 0.49409462E+03</pdfrwt>
<totfact> 0.40926879E+00</totfact>
</mgrwt>
</event>
<event>
 4    1  0.1678003E-008  0.2106237E+03  0.7818608E-02  0.1141073E+00
          1   -1    0    0  501    0  0.00000000000E+00  0.00000000000E+00  0.28775882873E+04  0.28775882873E+04  0.50400000000E-02 0. -1.
         -1   -1    0    0    0  501 -0.00000000000E+00 -0.00000000000E+00 -0.24536339982E+02  0.24536340500E+02  0.50400000000E-02 0.  1.
    8880022    1    1    2    0    0 -0.61702386035E+02  0.13100949486E+03  0.23111829502E+04  0.23207604259E+04  0.15294330000E+03 0.  0.
    8880022    1    1    2    0    0  0.61702386035E+02 -0.13100949486E+03  0.54186899712E+03  0.58136420189E+03  0.15294330000E+03 0.  1.
<mgrwt>
<rscale>  0 0.21062366E+03</rscale>
<asrwt>0</asrwt>
<pdfrwt beam="1">  1        1 0.44270600E+00 0.21062366E+03</pdfrwt>
<pdfrwt beam="2">  1       -1 0.37748207E-02 0.21062366E+03</pdfrwt>
<totfact> 0.23979261E+02</totfact>
</mgrwt>
</event>
<event>
 4    1  0.1678003E-008  0.5965461E+03  0.7818608E-02  0.9912598E-01
          1   -1    0    0  501    0  0.00000000000E+00  0.00000000000E+00  0.50979527323E+03  0.50979527326E+03  0.50400000000E-02 0. -1.
         -1   -1    0    0    0  501 -0.00000000000E+00 -0.00000000000E+00 -0.16815612971E+04  0.16815612971E+04  0.50400000000E-02 0.  1.
    8880022    1    1    2    0    0 -0.44899159995E+03 -0.36177637241E+03 -0.14238257856E+04  0.15437445129E+04  0.15294330000E+03 0.  0.
    8880022    1    1    2    0    0  0.44899159995E+03  0.36177637241E+03  0.25205976172E+03  0.64761205745E+03  0.15294330000E+03 0.  0.
<mgrwt>
<rscale>  0 0.59654610E+03</rscale>
<asrwt>0</asrwt>
<pdfrwt beam="1">  1        1 0.78430043E-01 0.59654610E+03</pdfrwt>
<pdfrwt beam="2">  1       -1 0.25870174E+00 0.59654610E+03</pdfrwt>
<totfact> 0.28345665E+00</totfact>
</mgrwt>
</event>
<event>
 4    1  0.1678003E-008  0.3437253E+03  0.7818608E-02  0.1065220E+00
          1   -1    0    0  501    0  0.00000000000E+00  0.00000000000E+00  0.10362294987E+04  0.10362294988E+04  0.50400000000E-02 0. -1.
         -1   -1    0    0    0  501 -0.00000000000E+00 -0.00000000000E+00 -0.22988742890E+03  0.22988742895E+03  0.50400000000E-02 0.  1.
    8880022    1    1    2    0    0 -0.30567859084E+03  0.36276905937E+02  0.85261318669E+03  0.91929120192E+03  0.15294330000E+03 0.  0.
    8880022    1    1    2    0    0  0.30567859084E+03 -0.36276905937E+02 -0.46271116840E+02  0.34682572579E+03  0.15294330000E+03 0.  1.
<mgrwt>
<rscale>  0 0.34372528E+03</rscale>
<asrwt>0</asrwt>
<pdfrwt beam="1">  1        1 0.15941992E+00 0.34372528E+03</pdfrwt>
<pdfrwt beam="2">  1       -1 0.35367297E-01 0.34372528E+03</pdfrwt>
<totfact> 0.11518058E+02</totfact>
</mgrwt>
</event>
<event>
 4    1  0.1678003E-008  0.6582538E+03  0.7818608E-02  0.9791414E-01
         -1   -1    0    0    0  501 -0.00000000000E+00  0.00000000000E+00  0.34547289107E+03  0.34547289111E+03  0.50400000000E-02 0.  1.
          1   -1    0    0  501    0  0.00000000000E+00 -0.00000000000E+00 -0.14749613040E+04  0.14749613040E+04  0.50400000000E-02 0. -1.
    8880022    1    1    2    0    0  0.32564720052E+03  0.55123530058E+03 -0.21261743717E+03  0.69174004034E+03  0.15294330000E+03 0.  0.
    8880022    1    1    2    0    0 -0.32564720052E+03 -0.55123530058E+03 -0.91687097577E+03  0.11286941548E+04  0.15294330000E+03 0.  0.
<mgrwt>
<rscale>  0 0.65825383E+03</rscale>
<asrwt>0</asrwt>
<pdfrwt beam="1">  1        1 0.22691712E+00 0.65825383E+03</pdfrwt>
<pdfrwt beam="2">  1       -1 0.53149676E-01 0.65825383E+03</pdfrwt>
<totfact> 0.25418910E+01</totfact>
</mgrwt>
</event>
<event>
 4    1  0.1678003E-008  0.4926692E+03  0.7818608E-02  0.1015710E+00
          1   -1    0    0  501    0  0.00000000000E+00  0.00000000000E+00  0.24494791852E+04  0.24494791852E+04  0.50400000000E-02 0. -1.
         -1   -1    0    0    0  501 -0.00000000000E+00 -0.00000000000E+00 -0.77731997740E+03  0.77731997742E+03  0.50400000000E-02 0.  1.
    8880022    1    1    2    0    0  0.36755918326E+03 -0.29022662545E+03  0.23431376920E+04  0.23943719727E+04  0.15294330000E+03 0.  0.
    8880022    1    1    2    0    0 -0.36755918326E+03  0.29022662545E+03 -0.67097848414E+03  0.83242718991E+03  0.15294330000E+03 0.  0.
<mgrwt>
<rscale>  0 0.49266916E+03</rscale>
<asrwt>0</asrwt>
<pdfrwt beam="1">  1        1 0.37684295E+00 0.49266916E+03</pdfrwt>
<pdfrwt beam="2">  1       -1 0.11958769E+00 0.49266916E+03</pdfrwt>
<totfact> 0.10496135E+00</totfact>
</mgrwt>
</event>
<event>
 4    1  0.1678003E-008  0.6837536E+03  0.7818608E-02  0.9745426E-01
          1   -1    0    0  501    0  0.00000000000E+00  0.00000000000E+00  0.12705582708E+04  0.12705582709E+04  0.50400000000E-02 0. -1.
         -1   -1    0    0    0  501 -0.00000000000E+00 -0.00000000000E+00 -0.98059399149E+03  0.98059399150E+03  0.50400000000E-02 0.  1.
    8880022    1    1    2    0    0  0.16167003388E+03 -0.64652161414E+03  0.10346534180E+04  0.12401720630E+04  0.15294330000E+03 0. -1.
    8880022    1    1    2    0    0 -0.16167003388E+03  0.64652161414E+03 -0.74468913862E+03  0.10109801994E+04  0.15294330000E+03 0.  0.
<mgrwt>
<rscale>  0 0.68375365E+03</rscale>
<asrwt>0</asrwt>
<pdfrwt beam="1">  1        1 0.19547050E+00 0.68375365E+03</pdfrwt>
<pdfrwt beam="2">  1       -1 0.15086061E+00 0.68375365E+03</pdfrwt>
<totfact> 0.34381922E+00</totfact>
</mgrwt>
</event>
<event>
 4    1  0.1678003E-008  0.1064746E+04  0.7818608E-02  0.9240251E-01
          1   -1    0    0  501    0  0.00000000000E+00  0.00000000000E+00  0.15266383000E+04  0.15266383000E+04  0.50400000000E-02 0. -1.
         -1   -1    0    0    0  501 -0.00000000000E+00 -0.00000000000E+00 -0.10295049809E+04  0.10295049809E+04  0.50400000000E-02 0.  1.
    8880022    1    1    2    0    0 -0.87180771082E+03  0.59181345425E+03 -0.42613079835E+03  0.11468526320E+04  0.15294330000E+03 0.  1.
    8880022    1    1    2    0    0  0.87180771082E+03 -0.59181345425E+03  0.92326411752E+03  0.14092906489E+04  0.15294330000E+03 0.  0.
<mgrwt>
<rscale>  0 0.10647457E+04</rscale>
<asrwt>0</asrwt>
<pdfrwt beam="1">  1        1 0.23486743E+00 0.10647457E+04</pdfrwt>
<pdfrwt beam="2">  1       -1 0.15838538E+00 0.10647457E+04</pdfrwt>
<totfact> 0.18792476E+00</totfact>
</mgrwt>
</event>
<event>
 4    1  0.1678003E-008  0.4656330E+03  0.7818608E-02  0.1023160E+00
          1   -1    0    0  501    0  0.00000000000E+00  0.00000000000E+00  0.14553926075E+04  0.14553926075E+04  0.50400000000E-02 0. -1.
         -1   -1    0    0    0  501 -0.00000000000E+00 -0.00000000000E+00 -0.28522128914E+03  0.28522128919E+03  0.50400000000E-02 0.  1.
    8880022    1    1    2    0    0  0.33573238298E+03  0.28408844348E+03  0.11866015301E+04  0.12746910688E+04  0.15294330000E+03 0.  0.
    8880022    1    1    2    0    0 -0.33573238298E+03 -0.28408844348E+03 -0.16430211693E+02  0.46592282792E+03  0.15294330000E+03 0.  0.
<mgrwt>
<rscale>  0 0.46563304E+03</rscale>
<asrwt>0</asrwt>
<pdfrwt beam="1">  1        1 0.22390656E+00 0.46563304E+03</pdfrwt>
<pdfrwt beam="2">  1       -1 0.43880198E-01 0.46563304E+03</pdfrwt>
<totfact> 0.38724922E+01</totfact>
</mgrwt>
</event>
<event>
 4    1  0.1678003E-008  0.5259310E+03  0.7818608E-02  0.1007224E+00
         -1   -1    0    0    0  501 -0.00000000000E+00  0.00000000000E+00  0.32025509887E+03  0.32025509891E+03  0.50400000000E-02 0.  1.
          1   -1    0    0  501    0  0.00000000000E+00 -0.00000000000E+00 -0.12246197928E+04  0.12246197928E+04  0.50400000000E-02 0. -1.
    8880022    1    1    2    0    0  0.45916512144E+02 -0.50110221646E+03 -0.32839000028E+02  0.52695522615E+03  0.15294330000E+03 0.  0.
    8880022    1    1    2    0    0 -0.45916512144E+02  0.50110221646E+03 -0.87152569394E+03  0.10179196656E+04  0.15294330000E+03 0. -1.
<mgrwt>
<rscale>  0 0.52593099E+03</rscale>
<asrwt>0</asrwt>
<pdfrwt beam="1">  1        1 0.18840304E+00 0.52593099E+03</pdfrwt>
<pdfrwt beam="2">  1       -1 0.49270016E-01 0.52593099E+03</pdfrwt>
<totfact> 0.44709334E+01</totfact>
</mgrwt>
</event>
<event>
 4    1  0.1678003E-008  0.9384343E+03  0.7818608E-02  0.9378772E-01
          1   -1    0    0  501    0  0.00000000000E+00  0.00000000000E+00  0.25466740480E+04  0.25466740480E+04  0.50400000000E-02 0. -1.
         -1   -1    0    0    0  501 -0.00000000000E+00 -0.00000000000E+00 -0.38803132822E+03  0.38803132825E+03  0.50400000000E-02 0.  1.
    8880022    1    1    2    0    0 -0.84874008395E+03  0.37001022762E+03  0.15633599519E+04  0.18233906029E+04  0.15294330000E+03 0.  0.
    8880022    1    1    2    0    0  0.84874008395E+03 -0.37001022762E+03  0.59528276788E+03  0.11113147733E+04  0.15294330000E+03 0.  1.
<mgrwt>
<rscale>  0 0.93843431E+03</rscale>
<asrwt>0</asrwt>
<pdfrwt beam="1">  1        1 0.39179601E+00 0.93843431E+03</pdfrwt>
<pdfrwt beam="2">  1       -1 0.59697127E-01 0.93843431E+03</pdfrwt>
<totfact> 0.36788325E+00</totfact>
</mgrwt>
</event>
<event>
 4    1  0.1678003E-008  0.8621999E+03  0.7818608E-02  0.9474107E-01
          1   -1    0    0  501    0  0.00000000000E+00  0.00000000000E+00  0.23382696119E+04  0.23382696119E+04  0.50400000000E-02 0. -1.
         -1   -1    0    0    0  501 -0.00000000000E+00 -0.00000000000E+00 -0.41588277114E+03  0.41588277117E+03  0.50400000000E-02 0.  1.
    8880022    1    1    2    0    0  0.40279281527E+03  0.74682992360E+03  0.16295333084E+04  0.18435746372E+04  0.15294330000E+03 0.  0.
    8880022    1    1    2    0    0 -0.40279281527E+03 -0.74682992360E+03  0.29285353238E+03  0.91057774587E+03  0.15294330000E+03 0.  0.
<mgrwt>
<rscale>  0 0.86219988E+03</rscale>
<asrwt>0</asrwt>
<pdfrwt beam="1">  1        1 0.35973378E+00 0.86219988E+03</pdfrwt>
<pdfrwt beam="2">  1       -1 0.63981966E-01 0.86219988E+03</pdfrwt>
<totfact> 0.44987664E+00</totfact>
</mgrwt>
</event>
<event>
 4    1  0.1678003E-008  0.1044545E+04  0.7818608E-02  0.9260995E-01
         -1   -1    0    0    0  501 -0.00000000000E+00  0.00000000000E+00  0.97820556081E+03  0.97820556082E+03  0.50400000000E-02 0.  1.
          1   -1    0    0  501    0  0.00000000000E+00 -0.00000000000E+00 -0.26084263100E+04  0.26084263100E+04  0.50400000000E-02 0. -1.
    8880022    1    1    2    0    0  0.88366297902E+03  0.53555729888E+03 -0.21718726888E+04  0.24100009357E+04  0.15294330000E+03 0.  0.
    8880022    1    1    2    0    0 -0.88366297902E+03 -0.53555729888E+03  0.54165193957E+03  0.11766309351E+04  0.15294330000E+03 0.  0.
<mgrwt>
<rscale>  0 0.10445447E+04</rscale>
<asrwt>0</asrwt>
<pdfrwt beam="1">  1        1 0.40129635E+00 0.10445447E+04</pdfrwt>
<pdfrwt beam="2">  1       -1 0.15049316E+00 0.10445447E+04</pdfrwt>
<totfact> 0.39852414E-01</totfact>
</mgrwt>
</event>
<event>
 4    1  0.1678003E-008  0.1002271E+04  0.7818608E-02  0.9306057E-01
          1   -1    0    0  501    0  0.00000000000E+00  0.00000000000E+00  0.36145872573E+04  0.36145872573E+04  0.50400000000E-02 0. -1.
         -1   -1    0    0    0  501 -0.00000000000E+00 -0.00000000000E+00 -0.81277231341E+03  0.81277231343E+03  0.50400000000E-02 0.  1.
    8880022    1    1    2    0    0 -0.73928727121E+03  0.65924996135E+03 -0.39485684894E+03  0.10772463809E+04  0.15294330000E+03 0.  0.
    8880022    1    1    2    0    0  0.73928727121E+03 -0.65924996135E+03  0.31966717928E+04  0.33501131899E+04  0.15294330000E+03 0.  0.
<mgrwt>
<rscale>  0 0.10022713E+04</rscale>
<asrwt>0</asrwt>
<pdfrwt beam="1">  1        1 0.55609036E+00 0.10022713E+04</pdfrwt>
<pdfrwt beam="2">  1       -1 0.12504189E+00 0.10022713E+04</pdfrwt>
<totfact> 0.11797221E-01</totfact>
</mgrwt>
</event>
<event>
 4    1  0.1678003E-008  0.3997942E+03  0.7818608E-02  0.1043851E+00
         -1   -1    0    0    0  501 -0.00000000000E+00  0.00000000000E+00  0.13031394886E+04  0.13031394886E+04  0.50400000000E-02 0.  1.
          1   -1    0    0  501    0  0.00000000000E+00 -0.00000000000E+00 -0.23088309445E+03  0.23088309451E+03  0.50400000000E-02 0. -1.
    8880022    1    1    2    0    0 -0.25957497011E+03  0.26280148632E+03  0.10612710306E+04  0.11340774400E+04  0.15294330000E+03 0.  0.
    8880022    1    1    2    0    0  0.25957497011E+03 -0.26280148632E+03  0.10985363512E+02  0.39994514317E+03  0.15294330000E+03 0.  0.
<mgrwt>
<rscale>  0 0.39979425E+03</rscale>
<asrwt>0</asrwt>
<pdfrwt beam="1">  1        1 0.35520475E-01 0.39979425E+03</pdfrwt>
<pdfrwt beam="2">  1       -1 0.20048300E+00 0.39979425E+03</pdfrwt>
<totfact> 0.19849813E+01</totfact>
</mgrwt>
</event>
<event>
 4    1  0.1678003E-008  0.2886214E+03  0.7818608E-02  0.1091071E+00
          1   -1    0    0  501    0  0.00000000000E+00  0.00000000000E+00  0.91330600839E+03  0.91330600840E+03  0.50400000000E-02 0. -1.
         -1   -1    0    0    0  501 -0.00000000000E+00 -0.00000000000E+00 -0.33514422619E+03  0.33514422623E+03  0.50400000000E-02 0.  1.
    8880022    1    1    2    0    0  0.19459958125E+03  0.14846443458E+03 -0.24347112574E+03  0.37759836790E+03  0.15294330000E+03 0.  1.
    8880022    1    1    2    0    0 -0.19459958125E+03 -0.14846443458E+03  0.82163290794E+03  0.87085186673E+03  0.15294330000E+03 0.  0.
<mgrwt>
<rscale>  0 0.28862144E+03</rscale>
<asrwt>0</asrwt>
<pdfrwt beam="1">  1        1 0.14050861E+00 0.28862144E+03</pdfrwt>
<pdfrwt beam="2">  1       -1 0.51560651E-01 0.28862144E+03</pdfrwt>
<totfact> 0.73070754E+01</totfact>
</mgrwt>
</event>
<event>
 4    1  0.1678003E-008  0.6632756E+03  0.7818608E-02  0.9782183E-01
         -1   -1    0    0    0  501 -0.00000000000E+00  0.00000000000E+00  0.97904853024E+03  0.97904853026E+03  0.50400000000E-02 0.  1.
          1   -1    0    0  501    0  0.00000000000E+00 -0.00000000000E+00 -0.56671894241E+03  0.56671894243E+03  0.50400000000E-02 0. -1.
    8880022    1    1    2    0    0  0.44640902393E+03 -0.46611353329E+03 -0.14556464292E+03  0.67906079319E+03  0.15294330000E+03 0.  0.
    8880022    1    1    2    0    0 -0.44640902393E+03  0.46611353329E+03  0.55789423075E+03  0.86670667950E+03  0.15294330000E+03 0.  0.
<mgrwt>
<rscale>  0 0.66327558E+03</rscale>
<asrwt>0</asrwt>
<pdfrwt beam="1">  1        1 0.87187530E-01 0.66327558E+03</pdfrwt>
<pdfrwt beam="2">  1       -1 0.15062285E+00 0.66327558E+03</pdfrwt>
<totfact> 0.13340459E+01</totfact>
</mgrwt>
</event>
<event>
 4    1  0.1678003E-008  0.3495665E+03  0.7818608E-02  0.1062793E+00
         -1   -1    0    0    0  501 -0.00000000000E+00  0.00000000000E+00  0.32044858760E+03  0.32044858764E+03  0.50400000000E-02 0.  1.
          1   -1    0    0  501    0  0.00000000000E+00 -0.00000000000E+00 -0.44535484225E+03  0.44535484228E+03  0.50400000000E-02 0. -1.
    8880022    1    1    2    0    0  0.33055959832E+02  0.31258984396E+03  0.82727082964E+02  0.35922211833E+03  0.15294330000E+03 0.  0.
    8880022    1    1    2    0    0 -0.33055959832E+02 -0.31258984396E+03 -0.20763333761E+03  0.40658131159E+03  0.15294330000E+03 0.  0.
<mgrwt>
<rscale>  0 0.34956653E+03</rscale>
<asrwt>0</asrwt>
<pdfrwt beam="1">  1        1 0.68516129E-01 0.34956653E+03</pdfrwt>
<pdfrwt beam="2">  1       -1 0.49299783E-01 0.34956653E+03</pdfrwt>
<totfact> 0.22239321E+02</totfact>
</mgrwt>
</event>
<event>
 4    1  0.1678003E-008  0.9648945E+03  0.7818608E-02  0.9347909E-01
         -1   -1    0    0    0  501 -0.00000000000E+00  0.00000000000E+00  0.96587384892E+03  0.96587384894E+03  0.50400000000E-02 0.  1.
          1   -1    0    0  501    0  0.00000000000E+00 -0.00000000000E+00 -0.11983204066E+04  0.11983204066E+04  0.50400000000E-02 0. -1.
    8880022    1    1    2    0    0  0.11920755941E+03  0.94520858900E+03 -0.59481209135E+03  0.11335002408E+04  0.15294330000E+03 0.  0.
    8880022    1    1    2    0    0 -0.11920755941E+03 -0.94520858900E+03  0.36236553368E+03  0.10306940147E+04  0.15294330000E+03 0.  0.
<mgrwt>
<rscale>  0 0.96489449E+03</rscale>
<asrwt>0</asrwt>
<pdfrwt beam="1">  1        1 0.18435699E+00 0.96489449E+03</pdfrwt>
<pdfrwt beam="2">  1       -1 0.14859598E+00 0.96489449E+03</pdfrwt>
<totfact> 0.38646918E+00</totfact>
</mgrwt>
</event>
<event>
 4    1  0.1678003E-008  0.5839974E+03  0.7818608E-02  0.9939174E-01
         -1   -1    0    0    0  501 -0.00000000000E+00  0.00000000000E+00  0.10080432375E+04  0.10080432375E+04  0.50400000000E-02 0.  1.
          1   -1    0    0  501    0  0.00000000000E+00 -0.00000000000E+00 -0.75007090161E+03  0.75007090162E+03  0.50400000000E-02 0. -1.
    8880022    1    1    2    0    0  0.54042190709E+03  0.16001713976E+03 -0.52230775300E+03  0.78349113878E+03  0.15294330000E+03 0.  0.
    8880022    1    1    2    0    0 -0.54042190709E+03 -0.16001713976E+03  0.78028008890E+03  0.97462300036E+03  0.15294330000E+03 0.  0.
<mgrwt>
<rscale>  0 0.58399741E+03</rscale>
<asrwt>0</asrwt>
<pdfrwt beam="1">  1        1 0.11539552E+00 0.58399741E+03</pdfrwt>
<pdfrwt beam="2">  1       -1 0.15508357E+00 0.58399741E+03</pdfrwt>
<totfact> 0.82663004E+00</totfact>
</mgrwt>
</event>
<event>
 4    1  0.1678003E-008  0.6962292E+03  0.7818608E-02  0.9723703E-01
         -1   -1    0    0    0  501 -0.00000000000E+00  0.00000000000E+00  0.92291216155E+03  0.92291216156E+03  0.50400000000E-02 0.  1.
          1   -1    0    0  501    0  0.00000000000E+00 -0.00000000000E+00 -0.74202283113E+03  0.74202283115E+03  0.50400000000E-02 0. -1.
    8880022    1    1    2    0    0  0.61193839376E+03 -0.29474528555E+03 -0.35952967863E+03  0.78357936672E+03  0.15294330000E+03 0.  0.
    8880022    1    1    2    0    0 -0.61193839376E+03  0.29474528555E+03  0.54041900905E+03  0.88135562599E+03  0.15294330000E+03 0.  0.
<mgrwt>
<rscale>  0 0.69622915E+03</rscale>
<asrwt>0</asrwt>
<pdfrwt beam="1">  1        1 0.11415736E+00 0.69622915E+03</pdfrwt>
<pdfrwt beam="2">  1       -1 0.14198649E+00 0.69622915E+03</pdfrwt>
<totfact> 0.10444021E+01</totfact>
</mgrwt>
</event>
<event>
 4    1  0.1678003E-008  0.5573562E+03  0.7818608E-02  0.9998055E-01
          1   -1    0    0  501    0  0.00000000000E+00  0.00000000000E+00  0.67815339576E+03  0.67815339578E+03  0.50400000000E-02 0. -1.
         -1   -1    0    0    0  501 -0.00000000000E+00 -0.00000000000E+00 -0.67601076019E+03  0.67601076021E+03  0.50400000000E-02 0.  1.
    8880022    1    1    2    0    0  0.53322960792E+03 -0.54040877657E+02 -0.38336785606E+03  0.67647379646E+03  0.15294330000E+03 0.  0.
    8880022    1    1    2    0    0 -0.53322960792E+03  0.54040877657E+02  0.38551049163E+03  0.67769035953E+03  0.15294330000E+03 0.  0.
<mgrwt>
<rscale>  0 0.55735616E+03</rscale>
<asrwt>0</asrwt>
<pdfrwt beam="1">  1        1 0.10433129E+00 0.55735616E+03</pdfrwt>
<pdfrwt beam="2">  1       -1 0.10400166E+00 0.55735616E+03</pdfrwt>
<totfact> 0.26132151E+01</totfact>
</mgrwt>
</event>
<event>
 4    1  0.1678003E-008  0.7046721E+03  0.7818608E-02  0.9709275E-01
         -1   -1    0    0    0  501 -0.00000000000E+00  0.00000000000E+00  0.78094628397E+03  0.78094628399E+03  0.50400000000E-02 0.  1.
          1   -1    0    0  501    0  0.00000000000E+00 -0.00000000000E+00 -0.93616843251E+03  0.93616843253E+03  0.50400000000E-02 0. -1.
    8880022    1    1    2    0    0  0.35267469132E+03 -0.59058593222E+03 -0.56388953703E+03  0.90251550913E+03  0.15294330000E+03 0.  0.
    8880022    1    1    2    0    0 -0.35267469132E+03  0.59058593222E+03  0.40866738849E+03  0.81459920738E+03  0.15294330000E+03 0.  0.
<mgrwt>
<rscale>  0 0.70467215E+03</rscale>
<asrwt>0</asrwt>
<pdfrwt beam="1">  1        1 0.14402591E+00 0.70467215E+03</pdfrwt>
<pdfrwt beam="2">  1       -1 0.12014558E+00 0.70467215E+03</pdfrwt>
<totfact> 0.10896057E+01</totfact>
</mgrwt>
</event>
<event>
 4    1  0.1678003E-008  0.6917938E+03  0.7818608E-02  0.9731370E-01
         -1   -1    0    0    0  501 -0.00000000000E+00  0.00000000000E+00  0.19161001590E+04  0.19161001591E+04  0.50400000000E-02 0.  1.
          1   -1    0    0  501    0  0.00000000000E+00 -0.00000000000E+00 -0.33531375490E+03  0.33531375494E+03  0.50400000000E-02 0. -1.
    8880022    1    1    2    0    0 -0.90736372063E+02 -0.66854610083E+03  0.22180037202E+03  0.72648058212E+03  0.15294330000E+03 0.  0.
    8880022    1    1    2    0    0  0.90736372063E+02  0.66854610083E+03  0.13589860321E+04  0.15249333319E+04  0.15294330000E+03 0.  0.
<mgrwt>
<rscale>  0 0.69179378E+03</rscale>
<asrwt>0</asrwt>
<pdfrwt beam="1">  1        1 0.51586732E-01 0.69179378E+03</pdfrwt>
<pdfrwt beam="2">  1       -1 0.29478463E+00 0.69179378E+03</pdfrwt>
<totfact> 0.28630008E+00</totfact>
</mgrwt>
</event>
<event>
 4    1  0.1678003E-008  0.3859711E+03  0.7818608E-02  0.1048749E+00
          1   -1    0    0  501    0  0.00000000000E+00  0.00000000000E+00  0.31470048618E+03  0.31470048622E+03  0.50400000000E-02 0. -1.
         -1   -1    0    0    0  501 -0.00000000000E+00 -0.00000000000E+00 -0.75679217102E+03  0.75679217104E+03  0.50400000000E-02 0.  1.
    8880022    1    1    2    0    0 -0.19462597307E+03 -0.29614651325E+03  0.10680649001E+03  0.40047634890E+03  0.15294330000E+03 0.  0.
    8880022    1    1    2    0    0  0.19462597307E+03  0.29614651325E+03 -0.54889817485E+03  0.67101630835E+03  0.15294330000E+03 0.  0.
<mgrwt>
<rscale>  0 0.38597109E+03</rscale>
<asrwt>0</asrwt>
<pdfrwt beam="1">  1        1 0.48415460E-01 0.38597109E+03</pdfrwt>
<pdfrwt beam="2">  1       -1 0.11642956E+00 0.38597109E+03</pdfrwt>
<totfact> 0.58083857E+01</totfact>
</mgrwt>
</event>
<event>
 4    1  0.1678003E-008  0.4467083E+03  0.7818608E-02  0.1028708E+00
         -1   -1    0    0    0  501 -0.00000000000E+00  0.00000000000E+00  0.82521083207E+03  0.82521083209E+03  0.50400000000E-02 0.  1.
          1   -1    0    0  501    0  0.00000000000E+00 -0.00000000000E+00 -0.65499813468E+03  0.65499813470E+03  0.50400000000E-02 0. -1.
    8880022    1    1    2    0    0  0.25316488113E+03  0.33475989992E+03  0.67292631385E+03  0.80769927852E+03  0.15294330000E+03 0.  0.
    8880022    1    1    2    0    0 -0.25316488113E+03 -0.33475989992E+03 -0.50271361646E+03  0.67250968827E+03  0.15294330000E+03 0.  0.
<mgrwt>
<rscale>  0 0.44670829E+03</rscale>
<asrwt>0</asrwt>
<pdfrwt beam="1">  1        1 0.10076894E+00 0.44670829E+03</pdfrwt>
<pdfrwt beam="2">  1       -1 0.12695551E+00 0.44670829E+03</pdfrwt>
<totfact> 0.17432896E+01</totfact>
</mgrwt>
</event>
<event>
 4    1  0.1678003E-008  0.4176820E+03  0.7818608E-02  0.1037823E+00
          1   -1    0    0  501    0  0.00000000000E+00  0.00000000000E+00  0.11244201130E+04  0.11244201130E+04  0.50400000000E-02 0. -1.
         -1   -1    0    0    0  501 -0.00000000000E+00 -0.00000000000E+00 -0.74522153472E+03  0.74522153474E+03  0.50400000000E-02 0.  1.
    8880022    1    1    2    0    0  0.19273688421E+03  0.33751902006E+03  0.10214330640E+04  0.11035323977E+04  0.15294330000E+03 0.  0.
    8880022    1    1    2    0    0 -0.19273688421E+03 -0.33751902006E+03 -0.64223448572E+03  0.76610925010E+03  0.15294330000E+03 0.  0.
<mgrwt>
<rscale>  0 0.41768199E+03</rscale>
<asrwt>0</asrwt>
<pdfrwt beam="1">  1        1 0.17298771E+00 0.41768199E+03</pdfrwt>
<pdfrwt beam="2">  1       -1 0.11464947E+00 0.41768199E+03</pdfrwt>
<totfact> 0.92731335E+00</totfact>
</mgrwt>
</event>
<event>
 4    1  0.1678003E-008  0.5753759E+03  0.7818608E-02  0.9957853E-01
          1   -1    0    0  501    0  0.00000000000E+00  0.00000000000E+00  0.55294325555E+03  0.55294325558E+03  0.50400000000E-02 0. -1.
         -1   -1    0    0    0  501 -0.00000000000E+00 -0.00000000000E+00 -0.11594671756E+04  0.11594671756E+04  0.50400000000E-02 0.  1.
    8880022    1    1    2    0    0 -0.40771669519E+03  0.37607564696E+03  0.29217077010E+03  0.64530706465E+03  0.15294330000E+03 0.  0.
    8880022    1    1    2    0    0  0.40771669519E+03 -0.37607564696E+03 -0.89869469018E+03  0.10671033666E+04  0.15294330000E+03 0.  0.
<mgrwt>
<rscale>  0 0.57537592E+03</rscale>
<asrwt>0</asrwt>
<pdfrwt beam="1">  1        1 0.85068193E-01 0.57537592E+03</pdfrwt>
<pdfrwt beam="2">  1       -1 0.17837956E+00 0.57537592E+03</pdfrwt>
<totfact> 0.87165489E+00</totfact>
</mgrwt>
</event>
<event>
 4    1  0.1678003E-008  0.7362853E+03  0.7818608E-02  0.9657116E-01
          1   -1    0    0  501    0  0.00000000000E+00  0.00000000000E+00  0.18974243192E+04  0.18974243192E+04  0.50400000000E-02 0. -1.
         -1   -1    0    0    0  501 -0.00000000000E+00 -0.00000000000E+00 -0.36900458570E+03  0.36900458573E+03  0.50400000000E-02 0.  1.
    8880022    1    1    2    0    0 -0.60007713347E+03 -0.39828602131E+03  0.13026044275E+04  0.14962935101E+04  0.15294330000E+03 0. -1.
    8880022    1    1    2    0    0  0.60007713347E+03  0.39828602131E+03  0.22581530599E+03  0.77013539480E+03  0.15294330000E+03 0.  1.
<mgrwt>
<rscale>  0 0.73628525E+03</rscale>
<asrwt>0</asrwt>
<pdfrwt beam="1">  1        1 0.29191143E+00 0.73628525E+03</pdfrwt>
<pdfrwt beam="2">  1       -1 0.56769937E-01 0.73628525E+03</pdfrwt>
<totfact> 0.11489039E+01</totfact>
</mgrwt>
</event>
<event>
 4    1  0.1678003E-008  0.9147308E+03  0.7818608E-02  0.9407352E-01
          1   -1    0    0  501    0  0.00000000000E+00  0.00000000000E+00  0.98630234526E+03  0.98630234527E+03  0.50400000000E-02 0. -1.
         -1   -1    0    0    0  501 -0.00000000000E+00 -0.00000000000E+00 -0.11272746215E+04  0.11272746215E+04  0.50400000000E-02 0.  1.
    8880022    1    1    2    0    0 -0.89655821916E+03  0.97591653026E+02 -0.59615759931E+03  0.10918499473E+04  0.15294330000E+03 0.  0.
    8880022    1    1    2    0    0  0.89655821916E+03 -0.97591653026E+02  0.45518532307E+03  0.10217270195E+04  0.15294330000E+03 0.  0.
<mgrwt>
<rscale>  0 0.91473079E+03</rscale>
<asrwt>0</asrwt>
<pdfrwt beam="1">  1        1 0.15173882E+00 0.91473079E+03</pdfrwt>
<pdfrwt beam="2">  1       -1 0.17342686E+00 0.91473079E+03</pdfrwt>
<totfact> 0.36522802E+00</totfact>
</mgrwt>
</event>
<event>
 4    1  0.1678003E-008  0.6932174E+03  0.7818608E-02  0.9728902E-01
         -1   -1    0    0    0  501 -0.00000000000E+00  0.00000000000E+00  0.51281898178E+03  0.51281898181E+03  0.50400000000E-02 0.  1.
          1   -1    0    0  501    0  0.00000000000E+00 -0.00000000000E+00 -0.12013619738E+04  0.12013619739E+04  0.50400000000E-02 0. -1.
    8880022    1    1    2    0    0 -0.20217911854E+03 -0.64519945061E+03 -0.74627214590E+03  0.10185639380E+04  0.15294330000E+03 0.  0.
    8880022    1    1    2    0    0  0.20217911854E+03  0.64519945061E+03  0.57729153839E+02  0.69561701766E+03  0.15294330000E+03 0.  0.
<mgrwt>
<rscale>  0 0.69321741E+03</rscale>
<asrwt>0</asrwt>
<pdfrwt beam="1">  1        1 0.18482492E+00 0.69321741E+03</pdfrwt>
<pdfrwt beam="2">  1       -1 0.78895228E-01 0.69321741E+03</pdfrwt>
<totfact> 0.17809663E+01</totfact>
</mgrwt>
</event>
<event>
 4    1  0.1678003E-008  0.5086580E+03  0.7818608E-02  0.1011543E+00
         -1   -1    0    0    0  501 -0.00000000000E+00  0.00000000000E+00  0.22871118885E+03  0.22871118891E+03  0.50400000000E-02 0.  1.
          1   -1    0    0  501    0  0.00000000000E+00 -0.00000000000E+00 -0.11905611975E+04  0.11905611975E+04  0.50400000000E-02 0. -1.
    8880022    1    1    2    0    0  0.38957450126E+03 -0.28909000095E+03 -0.63929508870E+03  0.81696461620E+03  0.15294330000E+03 0.  0.
    8880022    1    1    2    0    0 -0.38957450126E+03  0.28909000095E+03 -0.32255491997E+03  0.60230777024E+03  0.15294330000E+03 0.  0.
<mgrwt>
<rscale>  0 0.50865801E+03</rscale>
<asrwt>0</asrwt>
<pdfrwt beam="1">  1        1 0.18316326E+00 0.50865801E+03</pdfrwt>
<pdfrwt beam="2">  1       -1 0.35186337E-01 0.50865801E+03</pdfrwt>
<totfact> 0.87473940E+01</totfact>
</mgrwt>
</event>
<event>
 4    1  0.1678003E-008  0.3229228E+03  0.7818608E-02  0.1074312E+00
          1   -1    0    0  501    0  0.00000000000E+00  0.00000000000E+00  0.16630832692E+04  0.16630832693E+04  0.50400000000E-02 0. -1.
         -1   -1    0    0    0  501 -0.00000000000E+00 -0.00000000000E+00 -0.21142812413E+03  0.21142812419E+03  0.50400000000E-02 0.  1.
    8880022    1    1    2    0    0 -0.17955526886E+03 -0.22056159030E+03 -0.60258113061E+02  0.32849688415E+03  0.15294330000E+03 0.  1.
    8880022    1    1    2    0    0  0.17955526886E+03  0.22056159030E+03  0.15119132582E+04  0.15460145093E+04  0.15294330000E+03 0.  0.
<mgrwt>
<rscale>  0 0.32292284E+03</rscale>
<asrwt>0</asrwt>
<pdfrwt beam="1">  1        1 0.25585898E+00 0.32292284E+03</pdfrwt>
<pdfrwt beam="2">  1       -1 0.32527402E-01 0.32292284E+03</pdfrwt>
<totfact> 0.49507279E+01</totfact>
</mgrwt>
</event>
<event>
 4    1  0.1678003E-008  0.3661354E+03  0.7818608E-02  0.1056181E+00
          1   -1    0    0  501    0  0.00000000000E+00  0.00000000000E+00  0.31317823882E+04  0.31317823882E+04  0.50400000000E-02 0. -1.
         -1   -1    0    0    0  501 -0.00000000000E+00 -0.00000000000E+00 -0.10013908027E+04  0.10013908027E+04  0.50400000000E-02 0.  1.
    8880022    1    1    2    0    0  0.27614151739E+03  0.18549755212E+03  0.30871316026E+04  0.31087677083E+04  0.15294330000E+03 0.  0.
    8880022    1    1    2    0    0 -0.27614151739E+03 -0.18549755212E+03 -0.95674001710E+03  0.10244054826E+04  0.15294330000E+03 0.  0.
<mgrwt>
<rscale>  0 0.36613540E+03</rscale>
<asrwt>0</asrwt>
<pdfrwt beam="1">  1        1 0.48181267E+00 0.36613540E+03</pdfrwt>
<pdfrwt beam="2">  1       -1 0.15406013E+00 0.36613540E+03</pdfrwt>
<totfact> 0.19676284E-01</totfact>
</mgrwt>
</event>
<event>
 4    1  0.1678003E-008  0.6278137E+03  0.7818608E-02  0.9849325E-01
         -1   -1    0    0    0  501 -0.00000000000E+00  0.00000000000E+00  0.18073455758E+04  0.18073455758E+04  0.50400000000E-02 0.  1.
          1   -1    0    0  501    0  0.00000000000E+00 -0.00000000000E+00 -0.68808535157E+03  0.68808535159E+03  0.50400000000E-02 0. -1.
    8880022    1    1    2    0    0 -0.35221587111E+03  0.49669138655E+03  0.15908345161E+04  0.17102352072E+04  0.15294330000E+03 0.  0.
    8880022    1    1    2    0    0  0.35221587111E+03 -0.49669138655E+03 -0.47157429183E+03  0.78519572023E+03  0.15294330000E+03 0.  0.
<mgrwt>
<rscale>  0 0.62781367E+03</rscale>
<asrwt>0</asrwt>
<pdfrwt beam="1">  1        1 0.10585928E+00 0.62781367E+03</pdfrwt>
<pdfrwt beam="2">  1       -1 0.27805317E+00 0.62781367E+03</pdfrwt>
<totfact> 0.13812983E+00</totfact>
</mgrwt>
</event>
<event>
 4    1  0.1678003E-008  0.5634231E+03  0.7818608E-02  0.9984339E-01
          1   -1    0    0  501    0  0.00000000000E+00  0.00000000000E+00  0.39989442442E+04  0.39989442442E+04  0.50400000000E-02 0. -1.
         -1   -1    0    0    0  501 -0.00000000000E+00 -0.00000000000E+00 -0.49909814587E+03  0.49909814589E+03  0.50400000000E-02 0.  1.
    8880022    1    1    2    0    0  0.52689046940E+03  0.12822002733E+03  0.38123483446E+04  0.38537573218E+04  0.15294330000E+03 0.  0.
    8880022    1    1    2    0    0 -0.52689046940E+03 -0.12822002733E+03 -0.31250224630E+03  0.64428506821E+03  0.15294330000E+03 0.  0.
<mgrwt>
<rscale>  0 0.56342310E+03</rscale>
<asrwt>0</asrwt>
<pdfrwt beam="1">  1        1 0.61522216E+00 0.56342310E+03</pdfrwt>
<pdfrwt beam="2">  1       -1 0.76784334E-01 0.56342310E+03</pdfrwt>
<totfact> 0.19407540E-01</totfact>
</mgrwt>
</event>
<event>
 4    1  0.1678003E-008  0.2156829E+03  0.7818608E-02  0.1137143E+00
          1   -1    0    0  501    0  0.00000000000E+00  0.00000000000E+00  0.16848166889E+04  0.16848166889E+04  0.50400000000E-02 0. -1.
         -1   -1    0    0    0  501 -0.00000000000E+00 -0.00000000000E+00 -0.10021362064E+03  0.10021362077E+03  0.50400000000E-02 0.  1.
    8880022    1    1    2    0    0 -0.19284504180E+02 -0.15084945478E+03  0.15519786233E+04  0.15668939818E+04  0.15294330000E+03 0.  0.
    8880022    1    1    2    0    0  0.19284504180E+02  0.15084945478E+03  0.32624444978E+02  0.21813632787E+03  0.15294330000E+03 0.  1.
<mgrwt>
<rscale>  0 0.21568288E+03</rscale>
<asrwt>0</asrwt>
<pdfrwt beam="1">  1        1 0.25920257E+00 0.21568288E+03</pdfrwt>
<pdfrwt beam="2">  1       -1 0.15417480E-01 0.21568288E+03</pdfrwt>
<totfact> 0.16963946E+02</totfact>
</mgrwt>
</event>
<event>
 4    1  0.1678003E-008  0.5028967E+03  0.7818608E-02  0.1013026E+00
         -1   -1    0    0    0  501 -0.00000000000E+00  0.00000000000E+00  0.14503278528E+03  0.14503278537E+03  0.50400000000E-02 0.  1.
          1   -1    0    0  501    0  0.00000000000E+00 -0.00000000000E+00 -0.23320122541E+04  0.23320122542E+04  0.50400000000E-02 0. -1.
    8880022    1    1    2    0    0  0.43749078360E+02  0.47707388561E+03 -0.17155225192E+04  0.17877143623E+04  0.15294330000E+03 0.  0.
    8880022    1    1    2    0    0 -0.43749078360E+02 -0.47707388561E+03 -0.47145694967E+03  0.68933067725E+03  0.15294330000E+03 0.  0.
<mgrwt>
<rscale>  0 0.50289674E+03</rscale>
<asrwt>0</asrwt>
<pdfrwt beam="1">  1        1 0.35877109E+00 0.50289674E+03</pdfrwt>
<pdfrwt beam="2">  1       -1 0.22312738E-01 0.50289674E+03</pdfrwt>
<totfact> 0.32631741E+01</totfact>
</mgrwt>
</event>
<event>
 4    1  0.1678003E-008  0.3574971E+03  0.7818608E-02  0.1059579E+00
          1   -1    0    0  501    0  0.00000000000E+00  0.00000000000E+00  0.19563149718E+04  0.19563149718E+04  0.50400000000E-02 0. -1.
         -1   -1    0    0    0  501 -0.00000000000E+00 -0.00000000000E+00 -0.11016782773E+03  0.11016782784E+03  0.50400000000E-02 0.  1.
    8880022    1    1    2    0    0 -0.52205955048E+02 -0.31888410393E+03  0.15822494692E+04  0.16221336472E+04  0.15294330000E+03 0.  0.
    8880022    1    1    2    0    0  0.52205955048E+02  0.31888410393E+03  0.26389767484E+03  0.44434915245E+03  0.15294330000E+03 0.  1.
<mgrwt>
<rscale>  0 0.35749711E+03</rscale>
<asrwt>0</asrwt>
<pdfrwt beam="1">  1        1 0.30097152E+00 0.35749711E+03</pdfrwt>
<pdfrwt beam="2">  1       -1 0.16948897E-01 0.35749711E+03</pdfrwt>
<totfact> 0.93656918E+01</totfact>
</mgrwt>
</event>
<event>
 4    1  0.1678003E-008  0.5486182E+03  0.7818608E-02  0.1001814E+00
          1   -1    0    0  501    0  0.00000000000E+00  0.00000000000E+00  0.11198781103E+04  0.11198781103E+04  0.50400000000E-02 0. -1.
         -1   -1    0    0    0  501 -0.00000000000E+00 -0.00000000000E+00 -0.63404351769E+03  0.63404351771E+03  0.50400000000E-02 0.  1.
    8880022    1    1    2    0    0  0.33287378802E+03 -0.40839351677E+03 -0.42271420825E+03  0.69258153178E+03  0.15294330000E+03 0.  0.
    8880022    1    1    2    0    0 -0.33287378802E+03  0.40839351677E+03  0.90854880082E+03  0.10613400962E+04  0.15294330000E+03 0.  0.
<mgrwt>
<rscale>  0 0.54861815E+03</rscale>
<asrwt>0</asrwt>
<pdfrwt beam="1">  1        1 0.17228894E+00 0.54861815E+03</pdfrwt>
<pdfrwt beam="2">  1       -1 0.97545157E-01 0.54861815E+03</pdfrwt>
<totfact> 0.13171752E+01</totfact>
</mgrwt>
</event>
<event>
 4    1  0.1678003E-008  0.8098256E+03  0.7818608E-02  0.9545903E-01
         -1   -1    0    0    0  501 -0.00000000000E+00  0.00000000000E+00  0.89078653450E+03  0.89078653451E+03  0.50400000000E-02 0.  1.
          1   -1    0    0  501    0  0.00000000000E+00 -0.00000000000E+00 -0.81307506438E+03  0.81307506439E+03  0.50400000000E-02 0. -1.
    8880022    1    1    2    0    0 -0.21782775579E+02  0.79495369979E+03 -0.22306313686E+03  0.83998493448E+03  0.15294330000E+03 0.  0.
    8880022    1    1    2    0    0  0.21782775579E+02 -0.79495369979E+03  0.30077460698E+03  0.86387666442E+03  0.15294330000E+03 0.  0.
<mgrwt>
<rscale>  0 0.80982562E+03</rscale>
<asrwt>0</asrwt>
<pdfrwt beam="1">  1        1 0.12508847E+00 0.80982562E+03</pdfrwt>
<pdfrwt beam="2">  1       -1 0.13704408E+00 0.80982562E+03</pdfrwt>
<totfact> 0.97682245E+00</totfact>
</mgrwt>
</event>
<event>
 4    1  0.1678003E-008  0.3599676E+03  0.7818608E-02  0.1058597E+00
         -1   -1    0    0    0  501 -0.00000000000E+00  0.00000000000E+00  0.81938517558E+03  0.81938517560E+03  0.50400000000E-02 0.  1.
          1   -1    0    0  501    0  0.00000000000E+00 -0.00000000000E+00 -0.40773733750E+03  0.40773733753E+03  0.50400000000E-02 0. -1.
    8880022    1    1    2    0    0  0.18180972182E+03  0.27042607528E+03 -0.27422842761E+03  0.45252394485E+03  0.15294330000E+03 0.  0.
    8880022    1    1    2    0    0 -0.18180972182E+03 -0.27042607528E+03  0.68587626569E+03  0.77459856829E+03  0.15294330000E+03 0.  1.
<mgrwt>
<rscale>  0 0.35996762E+03</rscale>
<asrwt>0</asrwt>
<pdfrwt beam="1">  1        1 0.62728821E-01 0.35996762E+03</pdfrwt>
<pdfrwt beam="2">  1       -1 0.12605926E+00 0.35996762E+03</pdfrwt>
<totfact> 0.34485729E+01</totfact>
</mgrwt>
</event>
<event>
 4    1  0.1678003E-008  0.3260281E+03  0.7818608E-02  0.1072908E+00
         -1   -1    0    0    0  501 -0.00000000000E+00  0.00000000000E+00  0.24377703534E+03  0.24377703539E+03  0.50400000000E-02 0.  1.
          1   -1    0    0  501    0  0.00000000000E+00 -0.00000000000E+00 -0.63749541239E+03  0.63749541241E+03  0.50400000000E-02 0. -1.
    8880022    1    1    2    0    0  0.69144487309E+02  0.27950258987E+03  0.50849354209E+02  0.32996964664E+03  0.15294330000E+03 0.  0.
    8880022    1    1    2    0    0 -0.69144487309E+02 -0.27950258987E+03 -0.44456773126E+03  0.55130280115E+03  0.15294330000E+03 0.  0.
<mgrwt>
<rscale>  0 0.32602808E+03</rscale>
<asrwt>0</asrwt>
<pdfrwt beam="1">  1        1 0.98076216E-01 0.32602808E+03</pdfrwt>
<pdfrwt beam="2">  1       -1 0.37504160E-01 0.32602808E+03</pdfrwt>
<totfact> 0.22423943E+02</totfact>
</mgrwt>
</event>
<event>
 4    1  0.1678003E-008  0.6777200E+03  0.7818608E-02  0.9756111E-01
          1   -1    0    0  501    0  0.00000000000E+00  0.00000000000E+00  0.18073829055E+04  0.18073829055E+04  0.50400000000E-02 0. -1.
         -1   -1    0    0    0  501 -0.00000000000E+00 -0.00000000000E+00 -0.37994526701E+03  0.37994526704E+03  0.50400000000E-02 0.  1.
    8880022    1    1    2    0    0  0.38277005526E+03 -0.53795900880E+03  0.13430736910E+04  0.15043774137E+04  0.15294330000E+03 0.  0.
    8880022    1    1    2    0    0 -0.38277005526E+03  0.53795900880E+03  0.84363947488E+02  0.68295075884E+03  0.15294330000E+03 0.  0.
<mgrwt>
<rscale>  0 0.67772005E+03</rscale>
<asrwt>0</asrwt>
<pdfrwt beam="1">  1        1 0.27805891E+00 0.67772005E+03</pdfrwt>
<pdfrwt beam="2">  1       -1 0.58453119E-01 0.67772005E+03</pdfrwt>
<totfact> 0.12583288E+01</totfact>
</mgrwt>
</event>
<event>
 4    1  0.1678003E-008  0.4240089E+03  0.7818608E-02  0.1035769E+00
          1   -1    0    0  501    0  0.00000000000E+00  0.00000000000E+00  0.17752815364E+04  0.17752815364E+04  0.50400000000E-02 0. -1.
         -1   -1    0    0    0  501 -0.00000000000E+00 -0.00000000000E+00 -0.13149385014E+03  0.13149385024E+03  0.50400000000E-02 0.  1.
    8880022    1    1    2    0    0  0.12256687333E+03  0.37599108133E+03  0.12789698051E+04  0.13474224827E+04  0.15294330000E+03 0.  0.
    8880022    1    1    2    0    0 -0.12256687333E+03 -0.37599108133E+03  0.36481788124E+03  0.55935290396E+03  0.15294330000E+03 0.  0.
<mgrwt>
<rscale>  0 0.42400894E+03</rscale>
<asrwt>0</asrwt>
<pdfrwt beam="1">  1        1 0.27312021E+00 0.42400894E+03</pdfrwt>
<pdfrwt beam="2">  1       -1 0.20229825E-01 0.42400894E+03</pdfrwt>
<totfact> 0.91051139E+01</totfact>
</mgrwt>
</event>
<event>
 4    1  0.1678003E-008  0.2766951E+03  0.7818608E-02  0.1097508E+00
          1   -1    0    0  501    0  0.00000000000E+00  0.00000000000E+00  0.11918518640E+04  0.11918518640E+04  0.50400000000E-02 0. -1.
         -1   -1    0    0    0  501 -0.00000000000E+00 -0.00000000000E+00 -0.24256320692E+03  0.24256320697E+03  0.50400000000E-02 0.  1.
    8880022    1    1    2    0    0  0.16454410776E+03  0.16153555359E+03  0.10895957673E+04  0.11241792951E+04  0.15294330000E+03 0.  0.
    8880022    1    1    2    0    0 -0.16454410776E+03 -0.16153555359E+03 -0.14030711017E+03  0.31023577590E+03  0.15294330000E+03 0.  1.
<mgrwt>
<rscale>  0 0.27669505E+03</rscale>
<asrwt>0</asrwt>
<pdfrwt beam="1">  1        1 0.18336183E+00 0.27669505E+03</pdfrwt>
<pdfrwt beam="2">  1       -1 0.37317416E-01 0.27669505E+03</pdfrwt>
<totfact> 0.82009723E+01</totfact>
</mgrwt>
</event>
<event>
 4    1  0.1678003E-008  0.1052525E+04  0.7818608E-02  0.9252741E-01
         -1   -1    0    0    0  501 -0.00000000000E+00  0.00000000000E+00  0.14870825952E+04  0.14870825952E+04  0.50400000000E-02 0.  1.
          1   -1    0    0  501    0  0.00000000000E+00 -0.00000000000E+00 -0.10376749715E+04  0.10376749715E+04  0.50400000000E-02 0. -1.
    8880022    1    1    2    0    0 -0.17936977570E+03  0.10257890374E+04 -0.44577620649E+03  0.11430331338E+04  0.15294330000E+03 0.  0.
    8880022    1    1    2    0    0  0.17936977570E+03 -0.10257890374E+04  0.89518383027E+03  0.13817244329E+04  0.15294330000E+03 0.  0.
<mgrwt>
<rscale>  0 0.10525247E+04</rscale>
<asrwt>0</asrwt>
<pdfrwt beam="1">  1        1 0.15964230E+00 0.10525247E+04</pdfrwt>
<pdfrwt beam="2">  1       -1 0.22878194E+00 0.10525247E+04</pdfrwt>
<totfact> 0.13591593E+00</totfact>
</mgrwt>
</event>
<event>
 4    1  0.1678003E-008  0.3449565E+03  0.7818608E-02  0.1064704E+00
         -1   -1    0    0    0  501 -0.00000000000E+00  0.00000000000E+00  0.23158528686E+03  0.23158528692E+03  0.50400000000E-02 0.  1.
          1   -1    0    0  501    0  0.00000000000E+00 -0.00000000000E+00 -0.84499027983E+03  0.84499027985E+03  0.50400000000E-02 0. -1.
    8880022    1    1    2    0    0 -0.29608739537E+03 -0.89081833158E+02  0.30281434766E+02  0.34628303020E+03  0.15294330000E+03 0.  0.
    8880022    1    1    2    0    0  0.29608739537E+03  0.89081833158E+02 -0.64368642774E+03  0.73029253657E+03  0.15294330000E+03 0.  0.
<mgrwt>
<rscale>  0 0.34495648E+03</rscale>
<asrwt>0</asrwt>
<pdfrwt beam="1">  1        1 0.12999850E+00 0.34495648E+03</pdfrwt>
<pdfrwt beam="2">  1       -1 0.35628506E-01 0.34495648E+03</pdfrwt>
<totfact> 0.16024003E+02</totfact>
</mgrwt>
</event>
<event>
 4    1  0.1678003E-008  0.4083736E+03  0.7818608E-02  0.1040918E+00
          1   -1    0    0  501    0  0.00000000000E+00  0.00000000000E+00  0.16267470683E+04  0.16267470683E+04  0.50400000000E-02 0. -1.
         -1   -1    0    0    0  501 -0.00000000000E+00 -0.00000000000E+00 -0.33749289978E+03  0.33749289982E+03  0.50400000000E-02 0.  1.
    8880022    1    1    2    0    0  0.37667712405E+03 -0.38622461982E+02 -0.17486359207E+03  0.44423673779E+03  0.15294330000E+03 0.  0.
    8880022    1    1    2    0    0 -0.37667712405E+03  0.38622461982E+02  0.14641177606E+04  0.15200032303E+04  0.15294330000E+03 0.  0.
<mgrwt>
<rscale>  0 0.40837361E+03</rscale>
<asrwt>0</asrwt>
<pdfrwt beam="1">  1        1 0.25026878E+00 0.40837361E+03</pdfrwt>
<pdfrwt beam="2">  1       -1 0.51921984E-01 0.40837361E+03</pdfrwt>
<totfact> 0.22008716E+01</totfact>
</mgrwt>
</event>
<event>
 4    1  0.1678003E-008  0.9189313E+03  0.7818608E-02  0.9402221E-01
          1   -1    0    0  501    0  0.00000000000E+00  0.00000000000E+00  0.14314980251E+04  0.14314980251E+04  0.50400000000E-02 0. -1.
         -1   -1    0    0    0  501 -0.00000000000E+00 -0.00000000000E+00 -0.76891974597E+03  0.76891974598E+03  0.50400000000E-02 0.  1.
    8880022    1    1    2    0    0 -0.38666913632E+03  0.81946940142E+03 -0.19958322525E+03  0.94035537839E+03  0.15294330000E+03 0.  0.
    8880022    1    1    2    0    0  0.38666913632E+03 -0.81946940142E+03  0.86216150436E+03  0.12600623927E+04  0.15294330000E+03 0.  0.
<mgrwt>
<rscale>  0 0.91893132E+03</rscale>
<asrwt>0</asrwt>
<pdfrwt beam="1">  1        1 0.22023046E+00 0.91893132E+03</pdfrwt>
<pdfrwt beam="2">  1       -1 0.11829535E+00 0.91893132E+03</pdfrwt>
<totfact> 0.47531952E+00</totfact>
</mgrwt>
</event>
<event>
 4    1  0.1678003E-008  0.3039180E+03  0.7818608E-02  0.1083298E+00
          1   -1    0    0  501    0  0.00000000000E+00  0.00000000000E+00  0.16856191505E+04  0.16856191505E+04  0.50400000000E-02 0. -1.
         -1   -1    0    0    0  501 -0.00000000000E+00 -0.00000000000E+00 -0.16234134065E+03  0.16234134073E+03  0.50400000000E-02 0.  1.
    8880022    1    1    2    0    0 -0.25985088219E+03 -0.38105733017E+02  0.95958041276E+01  0.30406949919E+03  0.15294330000E+03 0.  0.
    8880022    1    1    2    0    0  0.25985088219E+03  0.38105733017E+02  0.15136820057E+04  0.15438909920E+04  0.15294330000E+03 0.  0.
<mgrwt>
<rscale>  0 0.30391805E+03</rscale>
<asrwt>0</asrwt>
<pdfrwt beam="1">  1        1 0.25932600E+00 0.30391805E+03</pdfrwt>
<pdfrwt beam="2">  1       -1 0.24975593E-01 0.30391805E+03</pdfrwt>
<totfact> 0.75402344E+01</totfact>
</mgrwt>
</event>
<event>
 4    1  0.1678003E-008  0.7051401E+03  0.7818608E-02  0.9708482E-01
         -1   -1    0    0    0  501 -0.00000000000E+00  0.00000000000E+00  0.18099748066E+04  0.18099748066E+04  0.50400000000E-02 0.  1.
          1   -1    0    0  501    0  0.00000000000E+00 -0.00000000000E+00 -0.29089844846E+04  0.29089844846E+04  0.50400000000E-02 0. -1.
    8880022    1    1    2    0    0  0.67581568486E+03  0.13078273536E+03  0.16958027451E+04  0.18365646101E+04  0.15294330000E+03 0.  1.
    8880022    1    1    2    0    0 -0.67581568486E+03 -0.13078273536E+03 -0.27948124232E+04  0.28823946811E+04  0.15294330000E+03 0.  0.
<mgrwt>
<rscale>  0 0.70514014E+03</rscale>
<asrwt>0</asrwt>
<pdfrwt beam="1">  1        1 0.44753608E+00 0.70514014E+03</pdfrwt>
<pdfrwt beam="2">  1       -1 0.27845766E+00 0.70514014E+03</pdfrwt>
<totfact> 0.35577082E-02</totfact>
</mgrwt>
</event>
<event>
 4    1  0.1678003E-008  0.4321075E+03  0.7818608E-02  0.1033196E+00
          1   -1    0    0  501    0  0.00000000000E+00  0.00000000000E+00  0.20386147197E+04  0.20386147197E+04  0.50400000000E-02 0. -1.
         -1   -1    0    0    0  501 -0.00000000000E+00 -0.00000000000E+00 -0.26674704070E+03  0.26674704074E+03  0.50400000000E-02 0.  1.
    8880022    1    1    2    0    0  0.40206679184E+03 -0.40834953722E+02 -0.48122355850E+02  0.43477880893E+03  0.15294330000E+03 0.  0.
    8880022    1    1    2    0    0 -0.40206679184E+03  0.40834953722E+02  0.18199900348E+04  0.18705829515E+04  0.15294330000E+03 0.  0.
<mgrwt>
<rscale>  0 0.43210745E+03</rscale>
<asrwt>0</asrwt>
<pdfrwt beam="1">  1        1 0.31363304E+00 0.43210745E+03</pdfrwt>
<pdfrwt beam="2">  1       -1 0.41038006E-01 0.43210745E+03</pdfrwt>
<totfact> 0.18061231E+01</totfact>
</mgrwt>
</event>
<event>
 4    1  0.1678003E-008  0.5539132E+03  0.7818608E-02  0.1000592E+00
         -1   -1    0    0    0  501 -0.00000000000E+00  0.00000000000E+00  0.11705520693E+04  0.11705520694E+04  0.50400000000E-02 0.  1.
          1   -1    0    0  501    0  0.00000000000E+00 -0.00000000000E+00 -0.32740696307E+03  0.32740696311E+03  0.50400000000E-02 0. -1.
    8880022    1    1    2    0    0 -0.22740752918E+03 -0.48136684543E+03  0.75604017472E+03  0.93723882922E+03  0.15294330000E+03 0.  0.
    8880022    1    1    2    0    0  0.22740752918E+03  0.48136684543E+03  0.87104931552E+02  0.56072020324E+03  0.15294330000E+03 0.  0.
<mgrwt>
<rscale>  0 0.55391324E+03</rscale>
<asrwt>0</asrwt>
<pdfrwt beam="1">  1        1 0.50370302E-01 0.55391324E+03</pdfrwt>
<pdfrwt beam="2">  1       -1 0.18008493E+00 0.55391324E+03</pdfrwt>
<totfact> 0.17103565E+01</totfact>
</mgrwt>
</event>
<event>
 4    1  0.1678003E-008  0.5107551E+03  0.7818608E-02  0.1011009E+00
         -1   -1    0    0    0  501 -0.00000000000E+00  0.00000000000E+00  0.24911144065E+03  0.24911144070E+03  0.50400000000E-02 0.  1.
          1   -1    0    0  501    0  0.00000000000E+00 -0.00000000000E+00 -0.16629296607E+04  0.16629296607E+04  0.50400000000E-02 0. -1.
    8880022    1    1    2    0    0 -0.41494562998E+03  0.25553713176E+03 -0.12886419088E+04  0.13861705247E+04  0.15294330000E+03 0.  0.
    8880022    1    1    2    0    0  0.41494562998E+03 -0.25553713176E+03 -0.12517631132E+03  0.52587057673E+03  0.15294330000E+03 0.  1.
<mgrwt>
<rscale>  0 0.51075508E+03</rscale>
<asrwt>0</asrwt>
<pdfrwt beam="1">  1        1 0.25583533E+00 0.51075508E+03</pdfrwt>
<pdfrwt beam="2">  1       -1 0.38324838E-01 0.51075508E+03</pdfrwt>
<totfact> 0.35589121E+01</totfact>
</mgrwt>
</event>
<event>
 4    1  0.1678003E-008  0.4159527E+03  0.7818608E-02  0.1038392E+00
         -1   -1    0    0    0  501 -0.00000000000E+00  0.00000000000E+00  0.18454879036E+03  0.18454879043E+03  0.50400000000E-02 0.  1.
          1   -1    0    0  501    0  0.00000000000E+00 -0.00000000000E+00 -0.21734471448E+04  0.21734471448E+04  0.50400000000E-02 0. -1.
    8880022    1    1    2    0    0  0.18655155974E+03 -0.33885623161E+03 -0.18835200394E+04  0.19289023878E+04  0.15294330000E+03 0. -1.
    8880022    1    1    2    0    0 -0.18655155974E+03  0.33885623161E+03 -0.10537831512E+03  0.42909354744E+03  0.15294330000E+03 0.  0.
<mgrwt>
<rscale>  0 0.41595274E+03</rscale>
<asrwt>0</asrwt>
<pdfrwt beam="1">  1        1 0.33437647E+00 0.41595274E+03</pdfrwt>
<pdfrwt beam="2">  1       -1 0.28392123E-01 0.41595274E+03</pdfrwt>
<totfact> 0.28221151E+01</totfact>
</mgrwt>
</event>
<event>
 4    1  0.1678003E-008  0.5494772E+03  0.7818608E-02  0.1001615E+00
          1   -1    0    0  501    0  0.00000000000E+00  0.00000000000E+00  0.32935381622E+03  0.32935381626E+03  0.50400000000E-02 0. -1.
         -1   -1    0    0    0  501 -0.00000000000E+00 -0.00000000000E+00 -0.12147761620E+04  0.12147761620E+04  0.50400000000E-02 0.  1.
    8880022    1    1    2    0    0  0.50102210708E+03  0.16586263660E+03 -0.82514368486E+03  0.99135630309E+03  0.15294330000E+03 0.  1.
    8880022    1    1    2    0    0 -0.50102210708E+03 -0.16586263660E+03 -0.60278660923E+02  0.55277367519E+03  0.15294330000E+03 0.  0.
<mgrwt>
<rscale>  0 0.54947722E+03</rscale>
<asrwt>0</asrwt>
<pdfrwt beam="1">  1        1 0.50669818E-01 0.54947722E+03</pdfrwt>
<pdfrwt beam="2">  1       -1 0.18688864E+00 0.54947722E+03</pdfrwt>
<totfact> 0.15213017E+01</totfact>
</mgrwt>
</event>
<event>
 4    1  0.1678003E-008  0.3777394E+03  0.7818608E-02  0.1051772E+00
          1   -1    0    0  501    0  0.00000000000E+00  0.00000000000E+00  0.23345972164E+03  0.23345972170E+03  0.50400000000E-02 0. -1.
         -1   -1    0    0    0  501 -0.00000000000E+00 -0.00000000000E+00 -0.16685378469E+04  0.16685378469E+04  0.50400000000E-02 0.  1.
    8880022    1    1    2    0    0 -0.34064405595E+03  0.57070068309E+02  0.39506388496E+02  0.37979964889E+03  0.15294330000E+03 0.  0.
    8880022    1    1    2    0    0  0.34064405595E+03 -0.57070068309E+02 -0.14745845138E+04  0.15221979197E+04  0.15294330000E+03 0.  0.
<mgrwt>
<rscale>  0 0.37773935E+03</rscale>
<asrwt>0</asrwt>
<pdfrwt beam="1">  1        1 0.35916881E-01 0.37773935E+03</pdfrwt>
<pdfrwt beam="2">  1       -1 0.25669812E+00 0.37773935E+03</pdfrwt>
<totfact> 0.84840430E+00</totfact>
</mgrwt>
</event>
<event>
 4    1  0.1678003E-008  0.6395871E+03  0.7818608E-02  0.9826517E-01
         -1   -1    0    0    0  501 -0.00000000000E+00  0.00000000000E+00  0.81707663518E+03  0.81707663520E+03  0.50400000000E-02 0.  1.
          1   -1    0    0  501    0  0.00000000000E+00 -0.00000000000E+00 -0.11324166481E+04  0.11324166481E+04  0.50400000000E-02 0. -1.
    8880022    1    1    2    0    0 -0.38962670018E+03  0.48360213100E+03 -0.88572810580E+03  0.10925135775E+04  0.15294330000E+03 0.  0.
    8880022    1    1    2    0    0  0.38962670018E+03 -0.48360213100E+03  0.57038809290E+03  0.85697970579E+03  0.15294330000E+03 0.  0.
<mgrwt>
<rscale>  0 0.63958709E+03</rscale>
<asrwt>0</asrwt>
<pdfrwt beam="1">  1        1 0.17421795E+00 0.63958709E+03</pdfrwt>
<pdfrwt beam="2">  1       -1 0.12570410E+00 0.63958709E+03</pdfrwt>
<totfact> 0.69778273E+00</totfact>
</mgrwt>
</event>
<event>
 4    1  0.1678003E-008  0.4408309E+03  0.7818608E-02  0.1030492E+00
          1   -1    0    0  501    0  0.00000000000E+00  0.00000000000E+00  0.23916211147E+04  0.23916211147E+04  0.50400000000E-02 0. -1.
         -1   -1    0    0    0  501 -0.00000000000E+00 -0.00000000000E+00 -0.22642308448E+03  0.22642308454E+03  0.50400000000E-02 0.  1.
    8880022    1    1    2    0    0  0.29408228424E+03  0.29061291415E+03  0.21307449174E+04  0.21758689785E+04  0.15294330000E+03 0.  0.
    8880022    1    1    2    0    0 -0.29408228424E+03 -0.29061291415E+03  0.34453112793E+02  0.44217522067E+03  0.15294330000E+03 0.  0.
<mgrwt>
<rscale>  0 0.44083093E+03</rscale>
<asrwt>0</asrwt>
<pdfrwt beam="1">  1        1 0.36794173E+00 0.44083093E+03</pdfrwt>
<pdfrwt beam="2">  1       -1 0.34834318E-01 0.44083093E+03</pdfrwt>
<totfact> 0.14081944E+01</totfact>
</mgrwt>
</event>
<event>
 4    1  0.1678003E-008  0.2144059E+03  0.7818608E-02  0.1138124E+00
         -1   -1    0    0    0  501 -0.00000000000E+00  0.00000000000E+00  0.13758631811E+03  0.13758631820E+03  0.50400000000E-02 0.  1.
          1   -1    0    0  501    0  0.00000000000E+00 -0.00000000000E+00 -0.50550390136E+03  0.50550390138E+03  0.50400000000E-02 0. -1.
    8880022    1    1    2    0    0  0.13693239610E+03  0.61868940997E+02 -0.37118589723E+03  0.42865938725E+03  0.15294330000E+03 0.  0.
    8880022    1    1    2    0    0 -0.13693239610E+03 -0.61868940997E+02  0.32683139870E+01  0.21443083233E+03  0.15294330000E+03 0.  1.
<mgrwt>
<rscale>  0 0.21440592E+03</rscale>
<asrwt>0</asrwt>
<pdfrwt beam="1">  1        1 0.77769830E-01 0.21440592E+03</pdfrwt>
<pdfrwt beam="2">  1       -1 0.21167126E-01 0.21440592E+03</pdfrwt>
<totfact> 0.81980070E+02</totfact>
</mgrwt>
</event>
<event>
 4    1  0.1678003E-008  0.3445171E+03  0.7818608E-02  0.1064888E+00
          1   -1    0    0  501    0  0.00000000000E+00  0.00000000000E+00  0.18704931568E+04  0.18704931568E+04  0.50400000000E-02 0. -1.
         -1   -1    0    0    0  501 -0.00000000000E+00 -0.00000000000E+00 -0.12688280892E+03  0.12688280902E+03  0.50400000000E-02 0.  1.
    8880022    1    1    2    0    0 -0.52558058083E+02  0.30420061238E+03  0.15779089292E+04  0.16150816090E+04  0.15294330000E+03 0.  0.
    8880022    1    1    2    0    0  0.52558058083E+02 -0.30420061238E+03  0.16570141866E+03  0.38229435675E+03  0.15294330000E+03 0.  0.
<mgrwt>
<rscale>  0 0.34451708E+03</rscale>
<asrwt>0</asrwt>
<pdfrwt beam="1">  1        1 0.28776817E+00 0.34451708E+03</pdfrwt>
<pdfrwt beam="2">  1       -1 0.19520432E-01 0.34451708E+03</pdfrwt>
<totfact> 0.84942240E+01</totfact>
</mgrwt>
</event>
<event>
 4    1  0.1678003E-008  0.1117930E+04  0.7818608E-02  0.9187890E-01
         -1   -1    0    0    0  501 -0.00000000000E+00  0.00000000000E+00  0.10254923043E+04  0.10254923043E+04  0.50400000000E-02 0.  1.
          1   -1    0    0  501    0  0.00000000000E+00 -0.00000000000E+00 -0.18525074194E+04  0.18525074194E+04  0.50400000000E-02 0. -1.
    8880022    1    1    2    0    0 -0.10049596107E+04  0.46522253077E+03 -0.12552116374E+04  0.16808699325E+04  0.15294330000E+03 0.  0.
    8880022    1    1    2    0    0  0.10049596107E+04 -0.46522253077E+03  0.42819652220E+03  0.11971297912E+04  0.15294330000E+03 0.  0.
<mgrwt>
<rscale>  0 0.11179300E+04</rscale>
<asrwt>0</asrwt>
<pdfrwt beam="1">  1        1 0.28500114E+00 0.11179300E+04</pdfrwt>
<pdfrwt beam="2">  1       -1 0.15776805E+00 0.11179300E+04</pdfrwt>
<totfact> 0.11316899E+00</totfact>
</mgrwt>
</event>
<event>
 4    1  0.1678003E-008  0.6953955E+03  0.7818608E-02  0.9725139E-01
          1   -1    0    0  501    0  0.00000000000E+00  0.00000000000E+00  0.11322673326E+04  0.11322673326E+04  0.50400000000E-02 0. -1.
         -1   -1    0    0    0  501 -0.00000000000E+00 -0.00000000000E+00 -0.13480816501E+04  0.13480816501E+04  0.50400000000E-02 0.  1.
    8880022    1    1    2    0    0 -0.67792049450E+03 -0.24638234003E+02  0.91716306214E+03  0.11509834816E+04  0.15294330000E+03 0.  0.
    8880022    1    1    2    0    0  0.67792049450E+03  0.24638234003E+02 -0.11329773797E+04  0.13293655011E+04  0.15294330000E+03 0.  1.
<mgrwt>
<rscale>  0 0.69539549E+03</rscale>
<asrwt>0</asrwt>
<pdfrwt beam="1">  1        1 0.17419497E+00 0.69539549E+03</pdfrwt>
<pdfrwt beam="2">  1       -1 0.20739718E+00 0.69539549E+03</pdfrwt>
<totfact> 0.16979389E+00</totfact>
</mgrwt>
</event>
<event>
 4    1  0.1678003E-008  0.4180491E+03  0.7818608E-02  0.1037703E+00
         -1   -1    0    0    0  501 -0.00000000000E+00  0.00000000000E+00  0.12029277837E+04  0.12029277837E+04  0.50400000000E-02 0.  1.
          1   -1    0    0  501    0  0.00000000000E+00 -0.00000000000E+00 -0.86075211615E+03  0.86075211616E+03  0.50400000000E-02 0. -1.
    8880022    1    1    2    0    0 -0.34326460176E+03  0.18314690097E+03  0.11118258988E+04  0.11878223168E+04  0.15294330000E+03 0.  0.
    8880022    1    1    2    0    0  0.34326460176E+03 -0.18314690097E+03 -0.76965023128E+03  0.87585758299E+03  0.15294330000E+03 0.  0.
<mgrwt>
<rscale>  0 0.41804907E+03</rscale>
<asrwt>0</asrwt>
<pdfrwt beam="1">  1        1 0.13242340E+00 0.41804907E+03</pdfrwt>
<pdfrwt beam="2">  1       -1 0.18506581E+00 0.41804907E+03</pdfrwt>
<totfact> 0.41836523E+00</totfact>
</mgrwt>
</event>
<event>
 4    1  0.1678003E-008  0.8365796E+03  0.7818608E-02  0.9508528E-01
          1   -1    0    0  501    0  0.00000000000E+00  0.00000000000E+00  0.17564506318E+04  0.17564506318E+04  0.50400000000E-02 0. -1.
         -1   -1    0    0    0  501 -0.00000000000E+00 -0.00000000000E+00 -0.63880885561E+03  0.63880885563E+03  0.50400000000E-02 0.  1.
    8880022    1    1    2    0    0  0.64580035185E+03 -0.50932873297E+03 -0.17579985343E+03  0.85485150415E+03  0.15294330000E+03 0.  0.
    8880022    1    1    2    0    0 -0.64580035185E+03  0.50932873297E+03  0.12934416296E+04  0.15404079833E+04  0.15294330000E+03 0.  0.
<mgrwt>
<rscale>  0 0.83657965E+03</rscale>
<asrwt>0</asrwt>
<pdfrwt beam="1">  1        1 0.27022318E+00 0.83657965E+03</pdfrwt>
<pdfrwt beam="2">  1       -1 0.98278285E-01 0.83657965E+03</pdfrwt>
<totfact> 0.44619495E+00</totfact>
</mgrwt>
</event>
<event>
 4    1  0.1678003E-008  0.5995166E+03  0.7818608E-02  0.9906409E-01
          1   -1    0    0  501    0  0.00000000000E+00  0.00000000000E+00  0.11712649172E+04  0.11712649172E+04  0.50400000000E-02 0. -1.
         -1   -1    0    0    0  501 -0.00000000000E+00 -0.00000000000E+00 -0.63780721361E+03  0.63780721363E+03  0.50400000000E-02 0.  1.
    8880022    1    1    2    0    0 -0.28253664955E+03  0.50616358395E+03  0.91829313755E+03  0.10966688067E+04  0.15294330000E+03 0.  0.
    8880022    1    1    2    0    0  0.28253664955E+03 -0.50616358395E+03 -0.38483543395E+03  0.71240332417E+03  0.15294330000E+03 0.  0.
<mgrwt>
<rscale>  0 0.59951663E+03</rscale>
<asrwt>0</asrwt>
<pdfrwt beam="1">  1        1 0.18019460E+00 0.59951663E+03</pdfrwt>
<pdfrwt beam="2">  1       -1 0.98124187E-01 0.59951663E+03</pdfrwt>
<totfact> 0.11812588E+01</totfact>
</mgrwt>
</event>
<event>
 4    1  0.1678003E-008  0.5995171E+03  0.7818608E-02  0.9906408E-01
         -1   -1    0    0    0  501 -0.00000000000E+00  0.00000000000E+00  0.43514621537E+03  0.43514621540E+03  0.50400000000E-02 0.  1.
          1   -1    0    0  501    0  0.00000000000E+00 -0.00000000000E+00 -0.11844734512E+04  0.11844734512E+04  0.50400000000E-02 0. -1.
    8880022    1    1    2    0    0  0.96421518751E+02 -0.57160474818E+03 -0.82017913208E+03  0.10159303909E+04  0.15294330000E+03 0.  0.
    8880022    1    1    2    0    0 -0.96421518751E+02  0.57160474818E+03  0.70851896233E+02  0.60368927574E+03  0.15294330000E+03 0.  0.
<mgrwt>
<rscale>  0 0.59951710E+03</rscale>
<asrwt>0</asrwt>
<pdfrwt beam="1">  1        1 0.18222668E+00 0.59951710E+03</pdfrwt>
<pdfrwt beam="2">  1       -1 0.66945572E-01 0.59951710E+03</pdfrwt>
<totfact> 0.26048725E+01</totfact>
</mgrwt>
</event>
<event>
 4    1  0.1678003E-008  0.4967287E+03  0.7818608E-02  0.1014636E+00
          1   -1    0    0  501    0  0.00000000000E+00  0.00000000000E+00  0.17273946124E+04  0.17273946124E+04  0.50400000000E-02 0. -1.
         -1   -1    0    0    0  501 -0.00000000000E+00 -0.00000000000E+00 -0.67185409949E+03  0.67185409951E+03  0.50400000000E-02 0.  1.
    8880022    1    1    2    0    0 -0.39503734158E+03 -0.25940948722E+03  0.15922607692E+04  0.16679429826E+04  0.15294330000E+03 0.  0.
    8880022    1    1    2    0    0  0.39503734158E+03  0.25940948722E+03 -0.53672025620E+03  0.73130572932E+03  0.15294330000E+03 0.  0.
<mgrwt>
<rscale>  0 0.49672874E+03</rscale>
<asrwt>0</asrwt>
<pdfrwt beam="1">  1        1 0.26575301E+00 0.49672874E+03</pdfrwt>
<pdfrwt beam="2">  1       -1 0.10336217E+00 0.49672874E+03</pdfrwt>
<totfact> 0.44549288E+00</totfact>
</mgrwt>
</event>
<event>
 4    1  0.1678003E-008  0.3599080E+03  0.7818608E-02  0.1058620E+00
          1   -1    0    0  501    0  0.00000000000E+00  0.00000000000E+00  0.10028794349E+04  0.10028794349E+04  0.50400000000E-02 0. -1.
         -1   -1    0    0    0  501 -0.00000000000E+00 -0.00000000000E+00 -0.28936088733E+03  0.28936088738E+03  0.50400000000E-02 0.  1.
    8880022    1    1    2    0    0 -0.19338296630E+03  0.26219296517E+03 -0.12399517641E+03  0.38066859527E+03  0.15294330000E+03 0.  0.
    8880022    1    1    2    0    0  0.19338296630E+03 -0.26219296517E+03  0.83751372395E+03  0.91157172700E+03  0.15294330000E+03 0.  0.
<mgrwt>
<rscale>  0 0.35990801E+03</rscale>
<asrwt>0</asrwt>
<pdfrwt beam="1">  1        1 0.15428915E+00 0.35990801E+03</pdfrwt>
<pdfrwt beam="2">  1       -1 0.44517059E-01 0.35990801E+03</pdfrwt>
<totfact> 0.80598382E+01</totfact>
</mgrwt>
</event>
<event>
 4    1  0.1678003E-008  0.3289859E+03  0.7818608E-02  0.1071586E+00
         -1   -1    0    0    0  501 -0.00000000000E+00  0.00000000000E+00  0.99648119486E+02  0.99648119614E+02  0.50400000000E-02 0.  1.
          1   -1    0    0  501    0  0.00000000000E+00 -0.00000000000E+00 -0.31661095387E+04  0.31661095387E+04  0.50400000000E-02 0. -1.
    8880022    1    1    2    0    0 -0.29014919785E+03  0.25563965109E+02 -0.28567173559E+04  0.28755983339E+04  0.15294330000E+03 0.  0.
    8880022    1    1    2    0    0  0.29014919785E+03 -0.25563965109E+02 -0.20974406330E+03  0.39015932442E+03  0.15294330000E+03 0.  0.
<mgrwt>
<rscale>  0 0.32898591E+03</rscale>
<asrwt>0</asrwt>
<pdfrwt beam="1">  1        1 0.48709370E+00 0.32898591E+03</pdfrwt>
<pdfrwt beam="2">  1       -1 0.15330482E-01 0.32898591E+03</pdfrwt>
<totfact> 0.16815983E+01</totfact>
</mgrwt>
</event>
<event>
 4    1  0.1678003E-008  0.1597069E+03  0.7818608E-02  0.1189028E+00
         -1   -1    0    0    0  501 -0.00000000000E+00  0.00000000000E+00  0.86869049745E+02  0.86869049891E+02  0.50400000000E-02 0.  1.
          1   -1    0    0  501    0  0.00000000000E+00 -0.00000000000E+00 -0.30506007419E+03  0.30506007423E+03  0.50400000000E-02 0. -1.
    8880022    1    1    2    0    0  0.45984032901E+02  0.31853699700E+00 -0.14704832694E+03  0.21709328921E+03  0.15294330000E+03 0. -1.
    8880022    1    1    2    0    0 -0.45984032901E+02 -0.31853699700E+00 -0.71142697503E+02  0.17483583492E+03  0.15294330000E+03 0.  1.
<mgrwt>
<rscale>  0 0.15970687E+03</rscale>
<asrwt>0</asrwt>
<pdfrwt beam="1">  1        1 0.46932318E-01 0.15970687E+03</pdfrwt>
<pdfrwt beam="2">  1       -1 0.13364469E-01 0.15970687E+03</pdfrwt>
<totfact> 0.32316531E+03</totfact>
</mgrwt>
</event>
<event>
 4    1  0.1678003E-008  0.3677023E+03  0.7818608E-02  0.1055575E+00
         -1   -1    0    0    0  501 -0.00000000000E+00  0.00000000000E+00  0.18380625042E+03  0.18380625049E+03  0.50400000000E-02 0.  1.
          1   -1    0    0  501    0  0.00000000000E+00 -0.00000000000E+00 -0.13450630865E+04  0.13450630865E+04  0.50400000000E-02 0. -1.
    8880022    1    1    2    0    0  0.33257815457E+03  0.34714945575E+02 -0.66053858026E+02  0.37358817101E+03  0.15294330000E+03 0.  1.
    8880022    1    1    2    0    0 -0.33257815457E+03 -0.34714945575E+02 -0.10952029781E+04  0.11552811660E+04  0.15294330000E+03 0.  0.
<mgrwt>
<rscale>  0 0.36770234E+03</rscale>
<asrwt>0</asrwt>
<pdfrwt beam="1">  1        1 0.20693278E+00 0.36770234E+03</pdfrwt>
<pdfrwt beam="2">  1       -1 0.28277886E-01 0.36770234E+03</pdfrwt>
<totfact> 0.10183735E+02</totfact>
</mgrwt>
</event>
<event>
 4    1  0.1678003E-008  0.4605392E+03  0.7818608E-02  0.1024625E+00
          1   -1    0    0  501    0  0.00000000000E+00  0.00000000000E+00  0.29648144084E+04  0.29648144084E+04  0.50400000000E-02 0. -1.
         -1   -1    0    0    0  501 -0.00000000000E+00 -0.00000000000E+00 -0.48133122411E+03  0.48133122413E+03  0.50400000000E-02 0.  1.
    8880022    1    1    2    0    0 -0.46553559347E+02  0.43189980459E+03 -0.34813750955E+03  0.57731798315E+03  0.15294330000E+03 0.  0.
    8880022    1    1    2    0    0  0.46553559347E+02 -0.43189980459E+03  0.28316206939E+04  0.28688276494E+04  0.15294330000E+03 0.  0.
<mgrwt>
<rscale>  0 0.46053917E+03</rscale>
<asrwt>0</asrwt>
<pdfrwt beam="1">  1        1 0.45612529E+00 0.46053917E+03</pdfrwt>
<pdfrwt beam="2">  1       -1 0.74050958E-01 0.46053917E+03</pdfrwt>
<totfact> 0.13603459E+00</totfact>
</mgrwt>
</event>
<event>
 4    1  0.1678003E-008  0.6916661E+03  0.7818608E-02  0.9731591E-01
          1   -1    0    0  501    0  0.00000000000E+00  0.00000000000E+00  0.11773007304E+04  0.11773007304E+04  0.50400000000E-02 0. -1.
         -1   -1    0    0    0  501 -0.00000000000E+00 -0.00000000000E+00 -0.57312506417E+03  0.57312506419E+03  0.50400000000E-02 0.  1.
    8880022    1    1    2    0    0  0.49704922873E+03 -0.45601797743E+03  0.77420317719E+03  0.10381678786E+04  0.15294330000E+03 0.  0.
    8880022    1    1    2    0    0 -0.49704922873E+03  0.45601797743E+03 -0.17002751092E+03  0.71225791607E+03  0.15294330000E+03 0.  0.
<mgrwt>
<rscale>  0 0.69166609E+03</rscale>
<asrwt>0</asrwt>
<pdfrwt beam="1">  1        1 0.18112319E+00 0.69166609E+03</pdfrwt>
<pdfrwt beam="2">  1       -1 0.88173087E-01 0.69166609E+03</pdfrwt>
<totfact> 0.14607196E+01</totfact>
</mgrwt>
</event>
<event>
 4    1  0.1678003E-008  0.3691411E+03  0.7818608E-02  0.1055022E+00
          1   -1    0    0  501    0  0.00000000000E+00  0.00000000000E+00  0.12753386055E+04  0.12753386055E+04  0.50400000000E-02 0. -1.
         -1   -1    0    0    0  501 -0.00000000000E+00 -0.00000000000E+00 -0.17608394568E+03  0.17608394576E+03  0.50400000000E-02 0.  1.
    8880022    1    1    2    0    0  0.25955967537E+03 -0.21331259872E+03  0.10046942896E+04  0.10703624425E+04  0.15294330000E+03 0.  0.
    8880022    1    1    2    0    0 -0.25955967537E+03  0.21331259872E+03  0.94560370262E+02  0.38106010876E+03  0.15294330000E+03 0.  0.
<mgrwt>
<rscale>  0 0.36914109E+03</rscale>
<asrwt>0</asrwt>
<pdfrwt beam="1">  1        1 0.19620593E+00 0.36914109E+03</pdfrwt>
<pdfrwt beam="2">  1       -1 0.27089838E-01 0.36914109E+03</pdfrwt>
<totfact> 0.12237193E+02</totfact>
</mgrwt>
</event>
<event>
 4    1  0.1678003E-008  0.6310318E+03  0.7818608E-02  0.9843037E-01
          1   -1    0    0  501    0  0.00000000000E+00  0.00000000000E+00  0.99306635524E+03  0.99306635525E+03  0.50400000000E-02 0. -1.
         -1   -1    0    0    0  501 -0.00000000000E+00 -0.00000000000E+00 -0.68356837759E+03  0.68356837760E+03  0.50400000000E-02 0.  1.
    8880022    1    1    2    0    0  0.51780610447E+03  0.32662880124E+03  0.69375488228E+03  0.93781502724E+03  0.15294330000E+03 0.  0.
    8880022    1    1    2    0    0 -0.51780610447E+03 -0.32662880124E+03 -0.38425690463E+03  0.73881970561E+03  0.15294330000E+03 0.  0.
<mgrwt>
<rscale>  0 0.63103184E+03</rscale>
<asrwt>0</asrwt>
<pdfrwt beam="1">  1        1 0.15277944E+00 0.63103184E+03</pdfrwt>
<pdfrwt beam="2">  1       -1 0.10516437E+00 0.63103184E+03</pdfrwt>
<totfact> 0.13630070E+01</totfact>
</mgrwt>
</event>
<event>
 4    1  0.1678003E-008  0.5799817E+03  0.7818608E-02  0.9947831E-01
         -1   -1    0    0    0  501 -0.00000000000E+00  0.00000000000E+00  0.11076510906E+04  0.11076510906E+04  0.50400000000E-02 0.  1.
          1   -1    0    0  501    0  0.00000000000E+00 -0.00000000000E+00 -0.96385029942E+03  0.96385029943E+03  0.50400000000E-02 0. -1.
    8880022    1    1    2    0    0  0.55682487355E+03  0.54158867951E+02 -0.78528796519E+03  0.97624585227E+03  0.15294330000E+03 0.  0.
    8880022    1    1    2    0    0 -0.55682487355E+03 -0.54158867951E+02  0.92908875636E+03  0.10952555378E+04  0.15294330000E+03 0.  0.
<mgrwt>
<rscale>  0 0.57998170E+03</rscale>
<asrwt>0</asrwt>
<pdfrwt beam="1">  1        1 0.14828466E+00 0.57998170E+03</pdfrwt>
<pdfrwt beam="2">  1       -1 0.17040786E+00 0.57998170E+03</pdfrwt>
<totfact> 0.42270977E+00</totfact>
</mgrwt>
</event>
<event>
 4    1  0.1678003E-008  0.2686498E+03  0.7818608E-02  0.1102055E+00
         -1   -1    0    0    0  501 -0.00000000000E+00  0.00000000000E+00  0.35175381250E+03  0.35175381253E+03  0.50400000000E-02 0.  1.
          1   -1    0    0  501    0  0.00000000000E+00 -0.00000000000E+00 -0.22852316628E+04  0.22852316628E+04  0.50400000000E-02 0. -1.
    8880022    1    1    2    0    0 -0.21838991014E+03 -0.32968476239E+02  0.29117151739E+03  0.39617367256E+03  0.15294330000E+03 0.  0.
    8880022    1    1    2    0    0  0.21838991014E+03  0.32968476239E+02 -0.22246493677E+04  0.22408118028E+04  0.15294330000E+03 0. -1.
<mgrwt>
<rscale>  0 0.26864982E+03</rscale>
<asrwt>0</asrwt>
<pdfrwt beam="1">  1        1 0.35157409E+00 0.26864982E+03</pdfrwt>
<pdfrwt beam="2">  1       -1 0.54115973E-01 0.26864982E+03</pdfrwt>
<totfact> 0.79197454E+00</totfact>
</mgrwt>
</event>
<event>
 4    1  0.1678003E-008  0.9341033E+03  0.7818608E-02  0.9383927E-01
         -1   -1    0    0    0  501 -0.00000000000E+00  0.00000000000E+00  0.77814766902E+03  0.77814766903E+03  0.50400000000E-02 0.  1.
          1   -1    0    0  501    0  0.00000000000E+00 -0.00000000000E+00 -0.14906699322E+04  0.14906699323E+04  0.50400000000E-02 0. -1.
    8880022    1    1    2    0    0 -0.78412639492E+03  0.48404864857E+03 -0.92093874226E+03  0.13117458280E+04  0.15294330000E+03 0. -1.
    8880022    1    1    2    0    0  0.78412639492E+03 -0.48404864857E+03  0.20841647903E+03  0.95707177324E+03  0.15294330000E+03 0.  0.
<mgrwt>
<rscale>  0 0.93410329E+03</rscale>
<asrwt>0</asrwt>
<pdfrwt beam="1">  1        1 0.22933383E+00 0.93410329E+03</pdfrwt>
<pdfrwt beam="2">  1       -1 0.11971503E+00 0.93410329E+03</pdfrwt>
<totfact> 0.41926541E+00</totfact>
</mgrwt>
</event>
<event>
 4    1  0.1678003E-008  0.6044361E+03  0.7818608E-02  0.9896245E-01
         -1   -1    0    0    0  501 -0.00000000000E+00  0.00000000000E+00  0.25299064143E+03  0.25299064148E+03  0.50400000000E-02 0.  1.
          1   -1    0    0  501    0  0.00000000000E+00 -0.00000000000E+00 -0.24105683343E+04  0.24105683343E+04  0.50400000000E-02 0. -1.
    8880022    1    1    2    0    0 -0.21549502297E+03 -0.54361131080E+03 -0.19220597130E+04  0.20148589418E+04  0.15294330000E+03 0.  0.
    8880022    1    1    2    0    0  0.21549502297E+03  0.54361131080E+03 -0.23551797983E+03  0.64870003391E+03  0.15294330000E+03 0.  0.
<mgrwt>
<rscale>  0 0.60443611E+03</rscale>
<asrwt>0</asrwt>
<pdfrwt beam="1">  1        1 0.37085665E+00 0.60443611E+03</pdfrwt>
<pdfrwt beam="2">  1       -1 0.38921639E-01 0.60443611E+03</pdfrwt>
<totfact> 0.10800084E+01</totfact>
</mgrwt>
</event>
<event>
 4    1  0.1678003E-008  0.3511861E+03  0.7818608E-02  0.1062129E+00
          1   -1    0    0  501    0  0.00000000000E+00  0.00000000000E+00  0.14786515379E+04  0.14786515379E+04  0.50400000000E-02 0. -1.
         -1   -1    0    0    0  501 -0.00000000000E+00 -0.00000000000E+00 -0.34873207762E+03  0.34873207766E+03  0.50400000000E-02 0.  1.
    8880022    1    1    2    0    0  0.21065438327E+03 -0.23572179093E+03 -0.23201020480E+03  0.42090428847E+03  0.15294330000E+03 0.  0.
    8880022    1    1    2    0    0 -0.21065438327E+03  0.23572179093E+03  0.13619296650E+04  0.14064793271E+04  0.15294330000E+03 0. -1.
<mgrwt>
<rscale>  0 0.35118611E+03</rscale>
<asrwt>0</asrwt>
<pdfrwt beam="1">  1        1 0.22748485E+00 0.35118611E+03</pdfrwt>
<pdfrwt beam="2">  1       -1 0.53651089E-01 0.35118611E+03</pdfrwt>
<totfact> 0.26374206E+01</totfact>
</mgrwt>
</event>
<event>
 4    1  0.1678003E-008  0.1632582E+03  0.7818608E-02  0.1185067E+00
          1   -1    0    0  501    0  0.00000000000E+00  0.00000000000E+00  0.19285896677E+04  0.19285896677E+04  0.50400000000E-02 0. -1.
         -1   -1    0    0    0  501 -0.00000000000E+00 -0.00000000000E+00 -0.11704875777E+04  0.11704875777E+04  0.50400000000E-02 0.  1.
    8880022    1    1    2    0    0  0.73075915460E+01  0.56640883128E+02  0.19194147224E+04  0.19263452754E+04  0.15294330000E+03 0.  0.
    8880022    1    1    2    0    0 -0.73075915460E+01 -0.56640883128E+02 -0.11613126323E+04  0.11727319700E+04  0.15294330000E+03 0.  1.
<mgrwt>
<rscale>  0 0.16325821E+03</rscale>
<asrwt>0</asrwt>
<pdfrwt beam="1">  1        1 0.29670610E+00 0.16325821E+03</pdfrwt>
<pdfrwt beam="2">  1       -1 0.18007501E+00 0.16325821E+03</pdfrwt>
<totfact> 0.96147305E-01</totfact>
</mgrwt>
</event>
<event>
 4    1  0.1678003E-008  0.2746607E+03  0.7818608E-02  0.1098641E+00
         -1   -1    0    0    0  501 -0.00000000000E+00  0.00000000000E+00  0.34254599598E+03  0.34254599602E+03  0.50400000000E-02 0.  1.
          1   -1    0    0  501    0  0.00000000000E+00 -0.00000000000E+00 -0.24381064245E+04  0.24381064245E+04  0.50400000000E-02 0. -1.
    8880022    1    1    2    0    0 -0.22008580264E+03 -0.60075588550E+02  0.27826756175E+03  0.39098762871E+03  0.15294330000E+03 0.  1.
    8880022    1    1    2    0    0  0.22008580264E+03  0.60075588550E+02 -0.23738279903E+04  0.23896647918E+04  0.15294330000E+03 0.  0.
<mgrwt>
<rscale>  0 0.27466068E+03</rscale>
<asrwt>0</asrwt>
<pdfrwt beam="1">  1        1 0.37509328E+00 0.27466068E+03</pdfrwt>
<pdfrwt beam="2">  1       -1 0.52699386E-01 0.27466068E+03</pdfrwt>
<totfact> 0.65805396E+00</totfact>
</mgrwt>
</event>
<event>
 4    1  0.1678003E-008  0.7598514E+03  0.7818608E-02  0.9620021E-01
         -1   -1    0    0    0  501 -0.00000000000E+00  0.00000000000E+00  0.85873676128E+03  0.85873676129E+03  0.50400000000E-02 0.  1.
          1   -1    0    0  501    0  0.00000000000E+00 -0.00000000000E+00 -0.11037126038E+04  0.11037126038E+04  0.50400000000E-02 0. -1.
    8880022    1    1    2    0    0 -0.59957366456E+03  0.44101457752E+03 -0.73591124633E+03  0.10577993441E+04  0.15294330000E+03 0.  0.
    8880022    1    1    2    0    0  0.59957366456E+03 -0.44101457752E+03  0.49093540381E+03  0.90465002103E+03  0.15294330000E+03 0.  0.
<mgrwt>
<rscale>  0 0.75985136E+03</rscale>
<asrwt>0</asrwt>
<pdfrwt beam="1">  1        1 0.16980194E+00 0.75985136E+03</pdfrwt>
<pdfrwt beam="2">  1       -1 0.13211335E+00 0.75985136E+03</pdfrwt>
<totfact> 0.63437271E+00</totfact>
</mgrwt>
</event>
<event>
 4    1  0.1678003E-008  0.2835309E+03  0.7818608E-02  0.1093776E+00
         -1   -1    0    0    0  501 -0.00000000000E+00  0.00000000000E+00  0.88457701027E+03  0.88457701029E+03  0.50400000000E-02 0.  1.
          1   -1    0    0  501    0  0.00000000000E+00 -0.00000000000E+00 -0.19370277120E+03  0.19370277126E+03  0.50400000000E-02 0. -1.
    8880022    1    1    2    0    0 -0.32676204553E+02 -0.23649601630E+03 -0.47370268418E+02  0.28746077196E+03  0.15294330000E+03 0.  0.
    8880022    1    1    2    0    0  0.32676204553E+02  0.23649601630E+03  0.73824450749E+03  0.79081900959E+03  0.15294330000E+03 0.  0.
<mgrwt>
<rscale>  0 0.28353087E+03</rscale>
<asrwt>0</asrwt>
<pdfrwt beam="1">  1        1 0.29800426E-01 0.28353087E+03</pdfrwt>
<pdfrwt beam="2">  1       -1 0.13608877E+00 0.28353087E+03</pdfrwt>
<totfact> 0.74646911E+01</totfact>
</mgrwt>
</event>
<event>
 4    1  0.1678003E-008  0.5789233E+03  0.7818608E-02  0.9950125E-01
          1   -1    0    0  501    0  0.00000000000E+00  0.00000000000E+00  0.15692447968E+04  0.15692447968E+04  0.50400000000E-02 0. -1.
         -1   -1    0    0    0  501 -0.00000000000E+00 -0.00000000000E+00 -0.39718764989E+03  0.39718764992E+03  0.50400000000E-02 0.  1.
    8880022    1    1    2    0    0 -0.11354313840E+03 -0.54668868264E+03  0.12545293216E+04  0.13816642254E+04  0.15294330000E+03 0.  0.
    8880022    1    1    2    0    0  0.11354313840E+03  0.54668868264E+03 -0.82472174738E+02  0.58476822128E+03  0.15294330000E+03 0.  0.
<mgrwt>
<rscale>  0 0.57892332E+03</rscale>
<asrwt>0</asrwt>
<pdfrwt beam="1">  1        1 0.24142227E+00 0.57892332E+03</pdfrwt>
<pdfrwt beam="2">  1       -1 0.61105793E-01 0.57892332E+03</pdfrwt>
<totfact> 0.16947291E+01</totfact>
</mgrwt>
</event>
<event>
 4    1  0.1678003E-008  0.5968306E+03  0.7818608E-02  0.9912003E-01
         -1   -1    0    0    0  501 -0.00000000000E+00  0.00000000000E+00  0.51225776829E+03  0.51225776831E+03  0.50400000000E-02 0.  1.
          1   -1    0    0  501    0  0.00000000000E+00 -0.00000000000E+00 -0.13233236665E+04  0.13233236665E+04  0.50400000000E-02 0. -1.
    8880022    1    1    2    0    0  0.27252827060E+03  0.50847171384E+03 -0.10377638182E+04  0.11971468321E+04  0.15294330000E+03 0.  0.
    8880022    1    1    2    0    0 -0.27252827060E+03 -0.50847171384E+03  0.22669792002E+03  0.63843460277E+03  0.15294330000E+03 0.  0.
<mgrwt>
<rscale>  0 0.59683063E+03</rscale>
<asrwt>0</asrwt>
<pdfrwt beam="1">  1        1 0.20358826E+00 0.59683063E+03</pdfrwt>
<pdfrwt beam="2">  1       -1 0.78808888E-01 0.59683063E+03</pdfrwt>
<totfact> 0.14844025E+01</totfact>
</mgrwt>
</event>
<event>
 4    1  0.1678003E-008  0.4154172E+03  0.7818608E-02  0.1038568E+00
         -1   -1    0    0    0  501 -0.00000000000E+00  0.00000000000E+00  0.47081834563E+03  0.47081834566E+03  0.50400000000E-02 0.  1.
          1   -1    0    0  501    0  0.00000000000E+00 -0.00000000000E+00 -0.68530255672E+03  0.68530255674E+03  0.50400000000E-02 0. -1.
    8880022    1    1    2    0    0  0.85792676075E+01  0.38614275570E+03 -0.50148967018E+03  0.65120148489E+03  0.15294330000E+03 0.  0.
    8880022    1    1    2    0    0 -0.85792676075E+01 -0.38614275570E+03  0.28700545909E+03  0.50491941751E+03  0.15294330000E+03 0.  0.
<mgrwt>
<rscale>  0 0.41541724E+03</rscale>
<asrwt>0</asrwt>
<pdfrwt beam="1">  1        1 0.10543116E+00 0.41541724E+03</pdfrwt>
<pdfrwt beam="2">  1       -1 0.72433592E-01 0.41541724E+03</pdfrwt>
<totfact> 0.57442325E+01</totfact>
</mgrwt>
</event>
<event>
 4    1  0.1678003E-008  0.3397367E+03  0.7818608E-02  0.1066908E+00
         -1   -1    0    0    0  501 -0.00000000000E+00  0.00000000000E+00  0.11532149157E+04  0.11532149157E+04  0.50400000000E-02 0.  1.
          1   -1    0    0  501    0  0.00000000000E+00 -0.00000000000E+00 -0.39992501394E+03  0.39992501398E+03  0.50400000000E-02 0. -1.
    8880022    1    1    2    0    0 -0.23139517589E+03 -0.19617755969E+03  0.10490564898E+04  0.11026969366E+04  0.15294330000E+03 0.  0.
    8880022    1    1    2    0    0  0.23139517589E+03  0.19617755969E+03 -0.29576658803E+03  0.45044299302E+03  0.15294330000E+03 0. -1.
<mgrwt>
<rscale>  0 0.33973669E+03</rscale>
<asrwt>0</asrwt>
<pdfrwt beam="1">  1        1 0.61526925E-01 0.33973669E+03</pdfrwt>
<pdfrwt beam="2">  1       -1 0.17741768E+00 0.33973669E+03</pdfrwt>
<totfact> 0.14364509E+01</totfact>
</mgrwt>
</event>
<event>
 4    1  0.1678003E-008  0.4059933E+03  0.7818608E-02  0.1041724E+00
         -1   -1    0    0    0  501 -0.00000000000E+00  0.00000000000E+00  0.73578100160E+03  0.73578100162E+03  0.50400000000E-02 0.  1.
          1   -1    0    0  501    0  0.00000000000E+00 -0.00000000000E+00 -0.33525392336E+03  0.33525392340E+03  0.50400000000E-02 0. -1.
    8880022    1    1    2    0    0  0.21570778057E+03 -0.30807318104E+03  0.50872639675E+03  0.65087105578E+03  0.15294330000E+03 0.  0.
    8880022    1    1    2    0    0 -0.21570778057E+03  0.30807318104E+03 -0.10819931851E+03  0.42016386924E+03  0.15294330000E+03 0.  0.
<mgrwt>
<rscale>  0 0.40599333E+03</rscale>
<asrwt>0</asrwt>
<pdfrwt beam="1">  1        1 0.51577527E-01 0.40599333E+03</pdfrwt>
<pdfrwt beam="2">  1       -1 0.11319708E+00 0.40599333E+03</pdfrwt>
<totfact> 0.57077024E+01</totfact>
</mgrwt>
</event>
<event>
 4    1  0.1678003E-008  0.1738338E+03  0.7818608E-02  0.1173908E+00
          1   -1    0    0  501    0  0.00000000000E+00  0.00000000000E+00  0.25185735919E+04  0.25185735919E+04  0.50400000000E-02 0. -1.
         -1   -1    0    0    0  501 -0.00000000000E+00 -0.00000000000E+00 -0.19402162636E+02  0.19402163290E+02  0.50400000000E-02 0.  1.
    8880022    1    1    2    0    0  0.71589497320E+02 -0.41249215391E+02  0.46567575779E+03  0.49706349525E+03  0.15294330000E+03 0.  0.
    8880022    1    1    2    0    0 -0.71589497320E+02  0.41249215391E+02  0.20334956715E+04  0.20409122599E+04  0.15294330000E+03 0. -1.
<mgrwt>
<rscale>  0 0.17383385E+03</rscale>
<asrwt>0</asrwt>
<pdfrwt beam="1">  1        1 0.38747312E+00 0.17383385E+03</pdfrwt>
<pdfrwt beam="2">  1       -1 0.29849461E-02 0.17383385E+03</pdfrwt>
<totfact> 0.59595708E+02</totfact>
</mgrwt>
</event>
<event>
 4    1  0.1678003E-008  0.5053865E+03  0.7818608E-02  0.1012382E+00
         -1   -1    0    0    0  501 -0.00000000000E+00  0.00000000000E+00  0.58411649422E+03  0.58411649425E+03  0.50400000000E-02 0.  1.
          1   -1    0    0  501    0  0.00000000000E+00 -0.00000000000E+00 -0.13445107948E+04  0.13445107948E+04  0.50400000000E-02 0. -1.
    8880022    1    1    2    0    0  0.47346974304E+03 -0.88601885711E+02  0.41193545657E+03  0.65200181374E+03  0.15294330000E+03 0.  0.
    8880022    1    1    2    0    0 -0.47346974304E+03  0.88601885711E+02 -0.11723297571E+04  0.12766254753E+04  0.15294330000E+03 0.  0.
<mgrwt>
<rscale>  0 0.50538653E+03</rscale>
<asrwt>0</asrwt>
<pdfrwt beam="1">  1        1 0.20684781E+00 0.50538653E+03</pdfrwt>
<pdfrwt beam="2">  1       -1 0.89864076E-01 0.50538653E+03</pdfrwt>
<totfact> 0.11025914E+01</totfact>
</mgrwt>
</event>
<event>
 4    1  0.1678003E-008  0.5224338E+03  0.7818608E-02  0.1008084E+00
         -1   -1    0    0    0  501 -0.00000000000E+00  0.00000000000E+00  0.22465626110E+03  0.22465626116E+03  0.50400000000E-02 0.  1.
          1   -1    0    0  501    0  0.00000000000E+00 -0.00000000000E+00 -0.16895434262E+04  0.16895434262E+04  0.50400000000E-02 0. -1.
    8880022    1    1    2    0    0 -0.20317678613E+03 -0.45636017956E+03 -0.12397283936E+04  0.13453116973E+04  0.15294330000E+03 0.  0.
    8880022    1    1    2    0    0  0.20317678613E+03  0.45636017956E+03 -0.22515877156E+03  0.56888799015E+03  0.15294330000E+03 0.  0.
<mgrwt>
<rscale>  0 0.52243380E+03</rscale>
<asrwt>0</asrwt>
<pdfrwt beam="1">  1        1 0.25992975E+00 0.52243380E+03</pdfrwt>
<pdfrwt beam="2">  1       -1 0.34562503E-01 0.52243380E+03</pdfrwt>
<totfact> 0.40972843E+01</totfact>
</mgrwt>
</event>
<event>
 4    1  0.1678003E-008  0.2380091E+03  0.7818608E-02  0.1121126E+00
          1   -1    0    0  501    0  0.00000000000E+00  0.00000000000E+00  0.13497976138E+03  0.13497976147E+03  0.50400000000E-02 0. -1.
         -1   -1    0    0    0  501 -0.00000000000E+00 -0.00000000000E+00 -0.97413295558E+03  0.97413295559E+03  0.50400000000E-02 0.  1.
    8880022    1    1    2    0    0 -0.12644551436E+03 -0.13140851436E+03 -0.11985518695E+01  0.23801209064E+03  0.15294330000E+03 0.  0.
    8880022    1    1    2    0    0  0.12644551436E+03  0.13140851436E+03 -0.83795464233E+03  0.87110062643E+03  0.15294330000E+03 0.  0.
<mgrwt>
<rscale>  0 0.23800907E+03</rscale>
<asrwt>0</asrwt>
<pdfrwt beam="1">  1        1 0.20766118E-01 0.23800907E+03</pdfrwt>
<pdfrwt beam="2">  1       -1 0.14986660E+00 0.23800907E+03</pdfrwt>
<totfact> 0.93157224E+01</totfact>
</mgrwt>
</event>
<event>
 4    1  0.1678003E-008  0.3009561E+03  0.7818608E-02  0.1084764E+00
          1   -1    0    0  501    0  0.00000000000E+00  0.00000000000E+00  0.19456605330E+04  0.19456605331E+04  0.50400000000E-02 0. -1.
         -1   -1    0    0    0  501 -0.00000000000E+00 -0.00000000000E+00 -0.84578298083E+02  0.84578298233E+02  0.50400000000E-02 0.  1.
    8880022    1    1    2    0    0 -0.21987693970E+03  0.13724812037E+03  0.24988278983E+03  0.39117256655E+03  0.15294330000E+03 0.  1.
    8880022    1    1    2    0    0  0.21987693970E+03 -0.13724812037E+03  0.16111994451E+04  0.16390662647E+04  0.15294330000E+03 0.  0.
<mgrwt>
<rscale>  0 0.30095609E+03</rscale>
<asrwt>0</asrwt>
<pdfrwt beam="1">  1        1 0.29933237E+00 0.30095609E+03</pdfrwt>
<pdfrwt beam="2">  1       -1 0.13012047E-01 0.30095609E+03</pdfrwt>
<totfact> 0.14705850E+02</totfact>
</mgrwt>
</event>
<event>
 4    1  0.1678003E-008  0.1540374E+03  0.7818608E-02  0.1195598E+00
          1   -1    0    0  501    0  0.00000000000E+00  0.00000000000E+00  0.12595033940E+03  0.12595033950E+03  0.50400000000E-02 0. -1.
         -1   -1    0    0    0  501 -0.00000000000E+00 -0.00000000000E+00 -0.51784702176E+03  0.51784702179E+03  0.50400000000E-02 0.  1.
    8880022    1    1    2    0    0 -0.16374932402E+02 -0.82295551582E+01  0.60806853410E+02  0.16560492271E+03  0.15294330000E+03 0.  0.
    8880022    1    1    2    0    0  0.16374932402E+02  0.82295551582E+01 -0.45270353578E+03  0.47819243858E+03  0.15294330000E+03 0.  1.
<mgrwt>
<rscale>  0 0.15403739E+03</rscale>
<asrwt>0</asrwt>
<pdfrwt beam="1">  1        1 0.19376976E-01 0.15403739E+03</pdfrwt>
<pdfrwt beam="2">  1       -1 0.79668772E-01 0.15403739E+03</pdfrwt>
<totfact> 0.43992651E+02</totfact>
</mgrwt>
</event>
<event>
 4    1  0.1678003E-008  0.5312961E+03  0.7818608E-02  0.1005918E+00
          1   -1    0    0  501    0  0.00000000000E+00  0.00000000000E+00  0.10106011518E+04  0.10106011518E+04  0.50400000000E-02 0. -1.
         -1   -1    0    0    0  501 -0.00000000000E+00 -0.00000000000E+00 -0.41637569939E+03  0.41637569942E+03  0.50400000000E-02 0.  1.
    8880022    1    1    2    0    0  0.16111619010E+03  0.48262350750E+03 -0.11224364012E+03  0.54302317121E+03  0.15294330000E+03 0.  0.
    8880022    1    1    2    0    0 -0.16111619010E+03 -0.48262350750E+03  0.70646909252E+03  0.88395368001E+03  0.15294330000E+03 0.  0.
<mgrwt>
<rscale>  0 0.53129608E+03</rscale>
<asrwt>0</asrwt>
<pdfrwt beam="1">  1        1 0.15547710E+00 0.53129608E+03</pdfrwt>
<pdfrwt beam="2">  1       -1 0.64057800E-01 0.53129608E+03</pdfrwt>
<totfact> 0.38681315E+01</totfact>
</mgrwt>
</event>
<event>
 4    1  0.1678003E-008  0.2747532E+03  0.7818608E-02  0.1098590E+00
          1   -1    0    0  501    0  0.00000000000E+00  0.00000000000E+00  0.86917055656E+02  0.86917055802E+02  0.50400000000E-02 0. -1.
         -1   -1    0    0    0  501 -0.00000000000E+00 -0.00000000000E+00 -0.11330411153E+04  0.11330411153E+04  0.50400000000E-02 0.  1.
    8880022    1    1    2    0    0 -0.20675410277E+03 -0.96697506248E+02 -0.22833418850E+03  0.35724756315E+03  0.15294330000E+03 0.  0.
    8880022    1    1    2    0    0  0.20675410277E+03  0.96697506248E+02 -0.81778987116E+03  0.86271060797E+03  0.15294330000E+03 0.  0.
<mgrwt>
<rscale>  0 0.27475320E+03</rscale>
<asrwt>0</asrwt>
<pdfrwt beam="1">  1        1 0.13371856E-01 0.27475320E+03</pdfrwt>
<pdfrwt beam="2">  1       -1 0.17431401E+00 0.27475320E+03</pdfrwt>
<totfact> 0.10914620E+02</totfact>
</mgrwt>
</event>
<event>
 4    1  0.1678003E-008  0.5767439E+03  0.7818608E-02  0.9954865E-01
         -1   -1    0    0    0  501 -0.00000000000E+00  0.00000000000E+00  0.22153666956E+03  0.22153666962E+03  0.50400000000E-02 0.  1.
          1   -1    0    0  501    0  0.00000000000E+00 -0.00000000000E+00 -0.18223972148E+04  0.18223972148E+04  0.50400000000E-02 0. -1.
    8880022    1    1    2    0    0  0.13932536219E+03 -0.53835888373E+03 -0.37157579972E+03  0.68607730774E+03  0.15294330000E+03 0.  0.
    8880022    1    1    2    0    0 -0.13932536219E+03  0.53835888373E+03 -0.12292847455E+04  0.13578565766E+04  0.15294330000E+03 0.  0.
<mgrwt>
<rscale>  0 0.57674387E+03</rscale>
<asrwt>0</asrwt>
<pdfrwt beam="1">  1        1 0.28036879E+00 0.57674387E+03</pdfrwt>
<pdfrwt beam="2">  1       -1 0.34082566E-01 0.57674387E+03</pdfrwt>
<totfact> 0.33948908E+01</totfact>
</mgrwt>
</event>
<event>
 4    1  0.1678003E-008  0.4537080E+03  0.7818608E-02  0.1026622E+00
         -1   -1    0    0    0  501 -0.00000000000E+00  0.00000000000E+00  0.24204900339E+03  0.24204900344E+03  0.50400000000E-02 0.  1.
          1   -1    0    0  501    0  0.00000000000E+00 -0.00000000000E+00 -0.20493932700E+04  0.20493932700E+04  0.50400000000E-02 0. -1.
    8880022    1    1    2    0    0  0.42306636785E+03  0.58941755651E+02 -0.17799973722E+04  0.18369108798E+04  0.15294330000E+03 0.  0.
    8880022    1    1    2    0    0 -0.42306636785E+03 -0.58941755651E+02 -0.27346894379E+02  0.45453139365E+03  0.15294330000E+03 0.  0.
<mgrwt>
<rscale>  0 0.45370798E+03</rscale>
<asrwt>0</asrwt>
<pdfrwt beam="1">  1        1 0.31529126E+00 0.45370798E+03</pdfrwt>
<pdfrwt beam="2">  1       -1 0.37238310E-01 0.45370798E+03</pdfrwt>
<totfact> 0.21037658E+01</totfact>
</mgrwt>
</event>
<event>
 4    1  0.1678003E-008  0.6430240E+03  0.7818608E-02  0.9819958E-01
         -1   -1    0    0    0  501 -0.00000000000E+00  0.00000000000E+00  0.30338873093E+03  0.30338873098E+03  0.50400000000E-02 0.  1.
          1   -1    0    0  501    0  0.00000000000E+00 -0.00000000000E+00 -0.13920150662E+04  0.13920150662E+04  0.50400000000E-02 0. -1.
    8880022    1    1    2    0    0  0.14173504434E+03  0.60827576106E+03 -0.42165626785E+03  0.76894335650E+03  0.15294330000E+03 0.  0.
    8880022    1    1    2    0    0 -0.14173504434E+03 -0.60827576106E+03 -0.66697006738E+03  0.92646044065E+03  0.15294330000E+03 0.  0.
<mgrwt>
<rscale>  0 0.64302401E+03</rscale>
<asrwt>0</asrwt>
<pdfrwt beam="1">  1        1 0.21415616E+00 0.64302401E+03</pdfrwt>
<pdfrwt beam="2">  1       -1 0.46675190E-01 0.64302401E+03</pdfrwt>
<totfact> 0.37124577E+01</totfact>
</mgrwt>
</event>
<event>
 4    1  0.1678003E-008  0.3463190E+03  0.7818608E-02  0.1064136E+00
         -1   -1    0    0    0  501 -0.00000000000E+00  0.00000000000E+00  0.27484335794E+03  0.27484335798E+03  0.50400000000E-02 0.  1.
          1   -1    0    0  501    0  0.00000000000E+00 -0.00000000000E+00 -0.30373299477E+04  0.30373299477E+04  0.50400000000E-02 0. -1.
    8880022    1    1    2    0    0  0.30519002587E+03  0.58345944558E+02  0.15126506651E+03  0.37791265459E+03  0.15294330000E+03 0.  1.
    8880022    1    1    2    0    0 -0.30519002587E+03 -0.58345944558E+02 -0.29137516563E+04  0.29342606511E+04  0.15294330000E+03 0.  0.
<mgrwt>
<rscale>  0 0.34631901E+03</rscale>
<asrwt>0</asrwt>
<pdfrwt beam="1">  1        1 0.46728151E+00 0.34631901E+03</pdfrwt>
<pdfrwt beam="2">  1       -1 0.42283596E-01 0.34631901E+03</pdfrwt>
<totfact> 0.37161109E+00</totfact>
</mgrwt>
</event>
<event>
 4    1  0.1678003E-008  0.7180386E+03  0.7818608E-02  0.9686872E-01
         -1   -1    0    0    0  501 -0.00000000000E+00  0.00000000000E+00  0.84969299178E+03  0.84969299180E+03  0.50400000000E-02 0.  1.
          1   -1    0    0  501    0  0.00000000000E+00 -0.00000000000E+00 -0.19005557431E+04  0.19005557431E+04  0.50400000000E-02 0. -1.
    8880022    1    1    2    0    0  0.60846051135E+03 -0.34923281629E+03 -0.16599996677E+04  0.18086399044E+04  0.15294330000E+03 0.  0.
    8880022    1    1    2    0    0 -0.60846051135E+03  0.34923281629E+03  0.60913691639E+03  0.94160883055E+03  0.15294330000E+03 0.  0.
<mgrwt>
<rscale>  0 0.71803858E+03</rscale>
<asrwt>0</asrwt>
<pdfrwt beam="1">  1        1 0.29239319E+00 0.71803858E+03</pdfrwt>
<pdfrwt beam="2">  1       -1 0.13072200E+00 0.71803858E+03</pdfrwt>
<totfact> 0.18455406E+00</totfact>
</mgrwt>
</event>
<event>
 4    1  0.1678003E-008  0.8153896E+03  0.7818608E-02  0.9538005E-01
          1   -1    0    0  501    0  0.00000000000E+00  0.00000000000E+00  0.71487235114E+03  0.71487235116E+03  0.50400000000E-02 0. -1.
         -1   -1    0    0    0  501 -0.00000000000E+00 -0.00000000000E+00 -0.14780413099E+04  0.14780413099E+04  0.50400000000E-02 0.  1.
    8880022    1    1    2    0    0 -0.75991789798E+03 -0.25296890764E+03  0.28605023491E+03  0.86410929274E+03  0.15294330000E+03 0.  0.
    8880022    1    1    2    0    0  0.75991789798E+03  0.25296890764E+03 -0.10492191937E+04  0.13288043683E+04  0.15294330000E+03 0.  0.
<mgrwt>
<rscale>  0 0.81538956E+03</rscale>
<asrwt>0</asrwt>
<pdfrwt beam="1">  1        1 0.10998036E+00 0.81538956E+03</pdfrwt>
<pdfrwt beam="2">  1       -1 0.22739097E+00 0.81538956E+03</pdfrwt>
<totfact> 0.26732082E+00</totfact>
</mgrwt>
</event>
<event>
 4    1  0.1678003E-008  0.1086479E+04  0.7818608E-02  0.9218472E-01
          1   -1    0    0  501    0  0.00000000000E+00  0.00000000000E+00  0.17226974630E+04  0.17226974630E+04  0.50400000000E-02 0. -1.
         -1   -1    0    0    0  501 -0.00000000000E+00 -0.00000000000E+00 -0.82960914372E+03  0.82960914374E+03  0.50400000000E-02 0.  1.
    8880022    1    1    2    0    0  0.87886261868E+01 -0.10756239614E+04 -0.85840409525E+02  0.10898643838E+04  0.15294330000E+03 0.  0.
    8880022    1    1    2    0    0 -0.87886261868E+01  0.10756239614E+04  0.97892872879E+03  0.14624422229E+04  0.15294330000E+03 0.  0.
<mgrwt>
<rscale>  0 0.10864786E+04</rscale>
<asrwt>0</asrwt>
<pdfrwt beam="1">  1        1 0.26503038E+00 0.10864786E+04</pdfrwt>
<pdfrwt beam="2">  1       -1 0.12763218E+00 0.10864786E+04</pdfrwt>
<totfact> 0.24336760E+00</totfact>
</mgrwt>
</event>
<event>
 4    1  0.1678003E-008  0.6292350E+03  0.7818608E-02  0.9846543E-01
          1   -1    0    0  501    0  0.00000000000E+00  0.00000000000E+00  0.77069957776E+03  0.77069957777E+03  0.50400000000E-02 0. -1.
         -1   -1    0    0    0  501 -0.00000000000E+00 -0.00000000000E+00 -0.11545924362E+04  0.11545924362E+04  0.50400000000E-02 0.  1.
    8880022    1    1    2    0    0  0.20487659859E+03 -0.57495268598E+03 -0.90913340584E+03  0.11056492276E+04  0.15294330000E+03 0.  0.
    8880022    1    1    2    0    0 -0.20487659859E+03  0.57495268598E+03  0.52524054737E+03  0.81964278645E+03  0.15294330000E+03 0.  0.
<mgrwt>
<rscale>  0 0.62923498E+03</rscale>
<asrwt>0</asrwt>
<pdfrwt beam="1">  1        1 0.11856917E+00 0.62923498E+03</pdfrwt>
<pdfrwt beam="2">  1       -1 0.17762961E+00 0.62923498E+03</pdfrwt>
<totfact> 0.53639488E+00</totfact>
</mgrwt>
</event>
<event>
 4    1  0.1678003E-008  0.2670231E+03  0.7818608E-02  0.1102996E+00
          1   -1    0    0  501    0  0.00000000000E+00  0.00000000000E+00  0.30166139244E+04  0.30166139244E+04  0.50400000000E-02 0. -1.
         -1   -1    0    0    0  501 -0.00000000000E+00 -0.00000000000E+00 -0.42691455101E+02  0.42691455398E+02  0.50400000000E-02 0.  1.
    8880022    1    1    2    0    0 -0.20246381869E+03 -0.83175076692E+02  0.25089109703E+04  0.25230805776E+04  0.15294330000E+03 0.  0.
    8880022    1    1    2    0    0  0.20246381869E+03  0.83175076692E+02  0.46501149903E+03  0.53622480221E+03  0.15294330000E+03 0.  0.
<mgrwt>
<rscale>  0 0.26702312E+03</rscale>
<asrwt>0</asrwt>
<pdfrwt beam="1">  1        1 0.46409466E+00 0.26702312E+03</pdfrwt>
<pdfrwt beam="2">  1       -1 0.65679132E-02 0.26702312E+03</pdfrwt>
<totfact> 0.82185635E+01</totfact>
</mgrwt>
</event>
<event>
 4    1  0.1678003E-008  0.3195758E+03  0.7818608E-02  0.1075845E+00
         -1   -1    0    0    0  501 -0.00000000000E+00  0.00000000000E+00  0.82170445322E+02  0.82170445476E+02  0.50400000000E-02 0.  1.
          1   -1    0    0  501    0  0.00000000000E+00 -0.00000000000E+00 -0.16791171160E+04  0.16791171160E+04  0.50400000000E-02 0. -1.
    8880022    1    1    2    0    0  0.24527012477E+03 -0.13630696771E+03 -0.12473396405E+04  0.12876276074E+04  0.15294330000E+03 0.  0.
    8880022    1    1    2    0    0 -0.24527012477E+03  0.13630696771E+03 -0.34960703021E+03  0.47365995412E+03  0.15294330000E+03 0.  0.
<mgrwt>
<rscale>  0 0.31957578E+03</rscale>
<asrwt>0</asrwt>
<pdfrwt beam="1">  1        1 0.25832569E+00 0.31957578E+03</pdfrwt>
<pdfrwt beam="2">  1       -1 0.12641608E-01 0.31957578E+03</pdfrwt>
<totfact> 0.22905854E+02</totfact>
</mgrwt>
</event>
<event>
 4    1  0.1678003E-008  0.6179579E+03  0.7818608E-02  0.9868834E-01
         -1   -1    0    0    0  501 -0.00000000000E+00  0.00000000000E+00  0.66824042840E+03  0.66824042842E+03  0.50400000000E-02 0.  1.
          1   -1    0    0  501    0  0.00000000000E+00 -0.00000000000E+00 -0.11718895913E+04  0.11718895913E+04  0.50400000000E-02 0. -1.
    8880022    1    1    2    0    0 -0.48170440992E+03  0.35558560099E+03 -0.91040167889E+03  0.11003195573E+04  0.15294330000E+03 0.  0.
    8880022    1    1    2    0    0  0.48170440992E+03 -0.35558560099E+03  0.40675251595E+03  0.73981046249E+03  0.15294330000E+03 0.  0.
<mgrwt>
<rscale>  0 0.61795786E+03</rscale>
<asrwt>0</asrwt>
<pdfrwt beam="1">  1        1 0.18029071E+00 0.61795786E+03</pdfrwt>
<pdfrwt beam="2">  1       -1 0.10280622E+00 0.61795786E+03</pdfrwt>
<totfact> 0.10578787E+01</totfact>
</mgrwt>
</event>
<event>
 4    1  0.1678003E-008  0.3661306E+03  0.7818608E-02  0.1056182E+00
          1   -1    0    0  501    0  0.00000000000E+00  0.00000000000E+00  0.44815795059E+03  0.44815795062E+03  0.50400000000E-02 0. -1.
         -1   -1    0    0    0  501 -0.00000000000E+00 -0.00000000000E+00 -0.39366498903E+03  0.39366498907E+03  0.50400000000E-02 0.  1.
    8880022    1    1    2    0    0 -0.15139221003E+03 -0.29621004631E+03 -0.17903184317E+03  0.40755864201E+03  0.15294330000E+03 0.  0.
    8880022    1    1    2    0    0  0.15139221003E+03  0.29621004631E+03  0.23352480473E+03  0.43426429767E+03  0.15294330000E+03 0.  0.
<mgrwt>
<rscale>  0 0.36613064E+03</rscale>
<asrwt>0</asrwt>
<pdfrwt beam="1">  1        1 0.68947377E-01 0.36613064E+03</pdfrwt>
<pdfrwt beam="2">  1       -1 0.60563844E-01 0.36613064E+03</pdfrwt>
<totfact> 0.14887931E+02</totfact>
</mgrwt>
</event>
<event>
 4    1  0.1685943E-008  0.6689720E+03  0.7818608E-02  0.9771817E-01
         -1   -1    0    0    0  501 -0.00000000000E+00  0.00000000000E+00  0.12422004173E+04  0.12422004173E+04  0.50400000000E-02 0.  1.
          1   -1    0    0  501    0  0.00000000000E+00 -0.00000000000E+00 -0.15457536466E+04  0.15457536466E+04  0.50400000000E-02 0. -1.
    8880022    1    1    2    0    0  0.33343336213E+02 -0.65039991328E+03 -0.13725466524E+04  0.15268948200E+04  0.15294330000E+03 0.  0.
    8880022    1    1    2    0    0 -0.33343336213E+02  0.65039991328E+03  0.10689934231E+04  0.12610592440E+04  0.15294330000E+03 0.  1.
<mgrwt>
<rscale>  0 0.66897196E+03</rscale>
<asrwt>0</asrwt>
<pdfrwt beam="1">  1        1 0.23780825E+00 0.66897196E+03</pdfrwt>
<pdfrwt beam="2">  1       -1 0.19110776E+00 0.66897196E+03</pdfrwt>
<totfact> 0.11307554E+00</totfact>
</mgrwt>
</event>
<event>
 4    1  0.1678003E-008  0.9258183E+03  0.7818608E-02  0.9393871E-01
          1   -1    0    0  501    0  0.00000000000E+00  0.00000000000E+00  0.18236207836E+04  0.18236207836E+04  0.50400000000E-02 0. -1.
         -1   -1    0    0    0  501 -0.00000000000E+00 -0.00000000000E+00 -0.55973066816E+03  0.55973066818E+03  0.50400000000E-02 0.  1.
    8880022    1    1    2    0    0 -0.87052945369E+03  0.27554722069E+03  0.15486751100E+03  0.93868173496E+03  0.15294330000E+03 0.  0.
    8880022    1    1    2    0    0  0.87052945369E+03 -0.27554722069E+03  0.11090226044E+04  0.14446697168E+04  0.15294330000E+03 0.  0.
<mgrwt>
<rscale>  0 0.92581826E+03</rscale>
<asrwt>0</asrwt>
<pdfrwt beam="1">  1        1 0.28055704E+00 0.92581826E+03</pdfrwt>
<pdfrwt beam="2">  1       -1 0.86112413E-01 0.92581826E+03</pdfrwt>
<totfact> 0.53241894E+00</totfact>
</mgrwt>
</event>
<event>
 4    1  0.1678003E-008  0.2100030E+03  0.7818608E-02  0.1141564E+00
         -1   -1    0    0    0  501 -0.00000000000E+00  0.00000000000E+00  0.18118053711E+03  0.18118053718E+03  0.50400000000E-02 0.  1.
          1   -1    0    0  501    0  0.00000000000E+00 -0.00000000000E+00 -0.35091798537E+03  0.35091798540E+03  0.50400000000E-02 0. -1.
    8880022    1    1    2    0    0 -0.85540412385E+02  0.11572566633E+03 -0.23212662217E+03  0.31302398268E+03  0.15294330000E+03 0.  0.
    8880022    1    1    2    0    0  0.85540412385E+02 -0.11572566633E+03  0.62389173908E+02  0.21907453990E+03  0.15294330000E+03 0.  1.
<mgrwt>
<rscale>  0 0.21000296E+03</rscale>
<asrwt>0</asrwt>
<pdfrwt beam="1">  1        1 0.53987382E-01 0.21000296E+03</pdfrwt>
<pdfrwt beam="2">  1       -1 0.27873929E-01 0.21000296E+03</pdfrwt>
<totfact> 0.83232843E+02</totfact>
</mgrwt>
</event>
<event>
 4    1  0.1678003E-008  0.8380277E+03  0.7818608E-02  0.9506548E-01
         -1   -1    0    0    0  501 -0.00000000000E+00  0.00000000000E+00  0.66774165459E+03  0.66774165461E+03  0.50400000000E-02 0.  1.
          1   -1    0    0  501    0  0.00000000000E+00 -0.00000000000E+00 -0.11046180743E+04  0.11046180743E+04  0.50400000000E-02 0. -1.
    8880022    1    1    2    0    0  0.72202451371E+03  0.39696265105E+03 -0.24548432234E+02  0.83838715596E+03  0.15294330000E+03 0.  0.
    8880022    1    1    2    0    0 -0.72202451371E+03 -0.39696265105E+03 -0.41232798744E+03  0.93397257292E+03  0.15294330000E+03 0.  0.
<mgrwt>
<rscale>  0 0.83802768E+03</rscale>
<asrwt>0</asrwt>
<pdfrwt beam="1">  1        1 0.16994124E+00 0.83802768E+03</pdfrwt>
<pdfrwt beam="2">  1       -1 0.10272949E+00 0.83802768E+03</pdfrwt>
<totfact> 0.11504936E+01</totfact>
</mgrwt>
</event>
<event>
 4    1  0.1678003E-008  0.3455281E+03  0.7818608E-02  0.1064466E+00
         -1   -1    0    0    0  501 -0.00000000000E+00  0.00000000000E+00  0.43611980195E+03  0.43611980198E+03  0.50400000000E-02 0.  1.
          1   -1    0    0  501    0  0.00000000000E+00 -0.00000000000E+00 -0.41967280007E+03  0.41967280010E+03  0.50400000000E-02 0. -1.
    8880022    1    1    2    0    0  0.29927253511E+03  0.80212127794E+02  0.26053569449E+03  0.43274534871E+03  0.15294330000E+03 0.  0.
    8880022    1    1    2    0    0 -0.29927253511E+03 -0.80212127794E+02 -0.24408869261E+03  0.42304725337E+03  0.15294330000E+03 0. -1.
<mgrwt>
<rscale>  0 0.34552813E+03</rscale>
<asrwt>0</asrwt>
<pdfrwt beam="1">  1        1 0.64565047E-01 0.34552813E+03</pdfrwt>
<pdfrwt beam="2">  1       -1 0.67095354E-01 0.34552813E+03</pdfrwt>
<totfact> 0.13294983E+02</totfact>
</mgrwt>
</event>
<event>
 4    1  0.1678003E-008  0.1255563E+04  0.7818608E-02  0.9065566E-01
          1   -1    0    0  501    0  0.00000000000E+00  0.00000000000E+00  0.17999851149E+04  0.17999851149E+04  0.50400000000E-02 0. -1.
         -1   -1    0    0    0  501 -0.00000000000E+00 -0.00000000000E+00 -0.10621312506E+04  0.10621312506E+04  0.50400000000E-02 0.  1.
    8880022    1    1    2    0    0 -0.85186422220E+03 -0.90960144980E+03 -0.23045436486E+03  0.12765376288E+04  0.15294330000E+03 0.  0.
    8880022    1    1    2    0    0  0.85186422220E+03  0.90960144980E+03  0.96830822920E+03  0.15855787367E+04  0.15294330000E+03 0.  0.
<mgrwt>
<rscale>  0 0.12555633E+04</rscale>
<asrwt>0</asrwt>
<pdfrwt beam="1">  1        1 0.27692079E+00 0.12555633E+04</pdfrwt>
<pdfrwt beam="2">  1       -1 0.16340481E+00 0.12555633E+04</pdfrwt>
<totfact> 0.10937135E+00</totfact>
</mgrwt>
</event>
<event>
 4    1  0.1678003E-008  0.8804754E+03  0.7818608E-02  0.9450323E-01
          1   -1    0    0  501    0  0.00000000000E+00  0.00000000000E+00  0.22159039332E+04  0.22159039332E+04  0.50400000000E-02 0. -1.
         -1   -1    0    0    0  501 -0.00000000000E+00 -0.00000000000E+00 -0.43495150694E+03  0.43495150697E+03  0.50400000000E-02 0.  1.
    8880022    1    1    2    0    0 -0.61368828692E+03 -0.61256173406E+03  0.14767506642E+04  0.17193107249E+04  0.15294330000E+03 0.  0.
    8880022    1    1    2    0    0  0.61368828692E+03  0.61256173406E+03  0.30420176210E+03  0.93154471531E+03  0.15294330000E+03 0.  0.
<mgrwt>
<rscale>  0 0.88047535E+03</rscale>
<asrwt>0</asrwt>
<pdfrwt beam="1">  1        1 0.34090829E+00 0.88047535E+03</pdfrwt>
<pdfrwt beam="2">  1       -1 0.66915617E-01 0.88047535E+03</pdfrwt>
<totfact> 0.49582593E+00</totfact>
</mgrwt>
</event>
<event>
 4    1  0.1678003E-008  0.1924468E+03  0.7818608E-02  0.1156273E+00
         -1   -1    0    0    0  501 -0.00000000000E+00  0.00000000000E+00  0.82711004033E+02  0.82711004187E+02  0.50400000000E-02 0.  1.
          1   -1    0    0  501    0  0.00000000000E+00 -0.00000000000E+00 -0.15000399232E+04  0.15000399232E+04  0.50400000000E-02 0. -1.
    8880022    1    1    2    0    0  0.72846427868E+02  0.91310008430E+02 -0.45846776875E+02  0.19783250405E+03  0.15294330000E+03 0.  0.
    8880022    1    1    2    0    0 -0.72846427868E+02 -0.91310008430E+02 -0.13714821423E+04  0.13849184234E+04  0.15294330000E+03 0. -1.
<mgrwt>
<rscale>  0 0.19244680E+03</rscale>
<asrwt>0</asrwt>
<pdfrwt beam="1">  1        1 0.23077535E+00 0.19244680E+03</pdfrwt>
<pdfrwt beam="2">  1       -1 0.12724771E-01 0.19244680E+03</pdfrwt>
<totfact> 0.30472621E+02</totfact>
</mgrwt>
</event>
<event>
 4    1  0.1678003E-008  0.5777042E+03  0.7818608E-02  0.9952774E-01
          1   -1    0    0  501    0  0.00000000000E+00  0.00000000000E+00  0.49089157754E+03  0.49089157757E+03  0.50400000000E-02 0. -1.
         -1   -1    0    0    0  501 -0.00000000000E+00 -0.00000000000E+00 -0.18191643214E+04  0.18191643214E+04  0.50400000000E-02 0.  1.
    8880022    1    1    2    0    0 -0.75940002427E+02  0.55189095614E+03 -0.15781961702E+04  0.16806086148E+04  0.15294330000E+03 0.  0.
    8880022    1    1    2    0    0  0.75940002427E+02 -0.55189095614E+03  0.24992342640E+03  0.62944728414E+03  0.15294330000E+03 0. -1.
<mgrwt>
<rscale>  0 0.57770422E+03</rscale>
<asrwt>0</asrwt>
<pdfrwt beam="1">  1        1 0.75521782E-01 0.57770422E+03</pdfrwt>
<pdfrwt beam="2">  1       -1 0.27987143E+00 0.57770422E+03</pdfrwt>
<totfact> 0.21971447E+00</totfact>
</mgrwt>
</event>
<event>
 4    1  0.1678003E-008  0.2943106E+03  0.7818608E-02  0.1088120E+00
          1   -1    0    0  501    0  0.00000000000E+00  0.00000000000E+00  0.93302033940E+03  0.93302033941E+03  0.50400000000E-02 0. -1.
         -1   -1    0    0    0  501 -0.00000000000E+00 -0.00000000000E+00 -0.24278449866E+03  0.24278449871E+03  0.50400000000E-02 0.  1.
    8880022    1    1    2    0    0 -0.20909027321E+03 -0.13967222157E+03  0.80714189702E+03  0.85912558266E+03  0.15294330000E+03 0. -1.
    8880022    1    1    2    0    0  0.20909027321E+03  0.13967222157E+03 -0.11690605628E+03  0.31667925547E+03  0.15294330000E+03 0.  0.
<mgrwt>
<rscale>  0 0.29431059E+03</rscale>
<asrwt>0</asrwt>
<pdfrwt beam="1">  1        1 0.14354159E+00 0.29431059E+03</pdfrwt>
<pdfrwt beam="2">  1       -1 0.37351461E-01 0.29431059E+03</pdfrwt>
<totfact> 0.12645273E+02</totfact>
</mgrwt>
</event>
<event>
 4    1  0.1678003E-008  0.8112151E+03  0.7818608E-02  0.9543924E-01
          1   -1    0    0  501    0  0.00000000000E+00  0.00000000000E+00  0.75069408535E+03  0.75069408536E+03  0.50400000000E-02 0. -1.
         -1   -1    0    0    0  501 -0.00000000000E+00 -0.00000000000E+00 -0.14425206795E+04  0.14425206796E+04  0.50400000000E-02 0.  1.
    8880022    1    1    2    0    0 -0.49996742675E+03 -0.62025061784E+03 -0.10327635433E+04  0.13132670886E+04  0.15294330000E+03 0.  0.
    8880022    1    1    2    0    0  0.49996742675E+03  0.62025061784E+03  0.34093694907E+03  0.87994767629E+03  0.15294330000E+03 0.  0.
<mgrwt>
<rscale>  0 0.81121508E+03</rscale>
<asrwt>0</asrwt>
<pdfrwt beam="1">  1        1 0.11549140E+00 0.81121508E+03</pdfrwt>
<pdfrwt beam="2">  1       -1 0.22192626E+00 0.81121508E+03</pdfrwt>
<totfact> 0.26956875E+00</totfact>
</mgrwt>
</event>
<event>
 4    1  0.1678003E-008  0.5464241E+03  0.7818608E-02  0.1002325E+00
         -1   -1    0    0    0  501 -0.00000000000E+00  0.00000000000E+00  0.58169864935E+03  0.58169864937E+03  0.50400000000E-02 0.  1.
          1   -1    0    0  501    0  0.00000000000E+00 -0.00000000000E+00 -0.68612803224E+03  0.68612803226E+03  0.50400000000E-02 0. -1.
    8880022    1    1    2    0    0 -0.38097988069E+03 -0.36061328520E+03 -0.37037703126E+03  0.66011999610E+03  0.15294330000E+03 0.  0.
    8880022    1    1    2    0    0  0.38097988069E+03  0.36061328520E+03  0.26594764836E+03  0.60770668553E+03  0.15294330000E+03 0.  0.
<mgrwt>
<rscale>  0 0.54642407E+03</rscale>
<asrwt>0</asrwt>
<pdfrwt beam="1">  1        1 0.10555816E+00 0.54642407E+03</pdfrwt>
<pdfrwt beam="2">  1       -1 0.89492100E-01 0.54642407E+03</pdfrwt>
<totfact> 0.36010225E+01</totfact>
</mgrwt>
</event>
<event>
 4    1  0.1678003E-008  0.4556687E+03  0.7818608E-02  0.1026045E+00
          1   -1    0    0  501    0  0.00000000000E+00  0.00000000000E+00  0.25833215299E+03  0.25833215304E+03  0.50400000000E-02 0. -1.
         -1   -1    0    0    0  501 -0.00000000000E+00 -0.00000000000E+00 -0.17085947294E+04  0.17085947294E+04  0.50400000000E-02 0.  1.
    8880022    1    1    2    0    0 -0.11345286972E+03  0.41396948531E+03 -0.94392121993E+01  0.45576643158E+03  0.15294330000E+03 0.  0.
    8880022    1    1    2    0    0  0.11345286972E+03 -0.41396948531E+03 -0.14408233642E+04  0.15111604509E+04  0.15294330000E+03 0.  0.
<mgrwt>
<rscale>  0 0.45566868E+03</rscale>
<asrwt>0</asrwt>
<pdfrwt beam="1">  1        1 0.39743409E-01 0.45566868E+03</pdfrwt>
<pdfrwt beam="2">  1       -1 0.26286072E+00 0.45566868E+03</pdfrwt>
<totfact> 0.66899622E+00</totfact>
</mgrwt>
</event>
<event>
 4    1  0.1678003E-008  0.4548966E+03  0.7818608E-02  0.1026272E+00
         -1   -1    0    0    0  501 -0.00000000000E+00  0.00000000000E+00  0.37462220273E+03  0.37462220276E+03  0.50400000000E-02 0.  1.
          1   -1    0    0  501    0  0.00000000000E+00 -0.00000000000E+00 -0.10241515084E+04  0.10241515084E+04  0.50400000000E-02 0. -1.
    8880022    1    1    2    0    0  0.38906342248E+03 -0.17935706125E+03  0.14991949256E+03  0.47896430910E+03  0.15294330000E+03 0.  0.
    8880022    1    1    2    0    0 -0.38906342248E+03  0.17935706125E+03 -0.79944879825E+03  0.91980940209E+03  0.15294330000E+03 0.  0.
<mgrwt>
<rscale>  0 0.45489664E+03</rscale>
<asrwt>0</asrwt>
<pdfrwt beam="1">  1        1 0.15756177E+00 0.45489664E+03</pdfrwt>
<pdfrwt beam="2">  1       -1 0.57634185E-01 0.45489664E+03</pdfrwt>
<totfact> 0.47039372E+01</totfact>
</mgrwt>
</event>
<event>
 4    1  0.1678003E-008  0.8423856E+03  0.7818608E-02  0.9500614E-01
          1   -1    0    0  501    0  0.00000000000E+00  0.00000000000E+00  0.38700853469E+03  0.38700853472E+03  0.50400000000E-02 0. -1.
         -1   -1    0    0    0  501 -0.00000000000E+00 -0.00000000000E+00 -0.27162917769E+04  0.27162917769E+04  0.50400000000E-02 0.  1.
    8880022    1    1    2    0    0 -0.54980093926E+03 -0.61962949403E+03 -0.28010955531E+03  0.88773577075E+03  0.15294330000E+03 0.  0.
    8880022    1    1    2    0    0  0.54980093926E+03  0.61962949403E+03 -0.20491736869E+04  0.22155645409E+04  0.15294330000E+03 0.  0.
<mgrwt>
<rscale>  0 0.84238556E+03</rscale>
<asrwt>0</asrwt>
<pdfrwt beam="1">  1        1 0.59539776E-01 0.84238556E+03</pdfrwt>
<pdfrwt beam="2">  1       -1 0.41789103E+00 0.84238556E+03</pdfrwt>
<totfact> 0.35633766E-01</totfact>
</mgrwt>
</event>
<event>
 4    1  0.1678003E-008  0.4323077E+03  0.7818608E-02  0.1033133E+00
         -1   -1    0    0    0  501 -0.00000000000E+00  0.00000000000E+00  0.52248088588E+03  0.52248088590E+03  0.50400000000E-02 0.  1.
          1   -1    0    0  501    0  0.00000000000E+00 -0.00000000000E+00 -0.12487339874E+04  0.12487339874E+04  0.50400000000E-02 0. -1.
    8880022    1    1    2    0    0 -0.73979766660E+02  0.39752399157E+03  0.38496386482E+03  0.57886713500E+03  0.15294330000E+03 0.  0.
    8880022    1    1    2    0    0  0.73979766660E+02 -0.39752399157E+03 -0.11112169664E+04  0.11923477383E+04  0.15294330000E+03 0.  0.
<mgrwt>
<rscale>  0 0.43230774E+03</rscale>
<asrwt>0</asrwt>
<pdfrwt beam="1">  1        1 0.19211292E+00 0.43230774E+03</pdfrwt>
<pdfrwt beam="2">  1       -1 0.80381675E-01 0.43230774E+03</pdfrwt>
<totfact> 0.16604303E+01</totfact>
</mgrwt>
</event>
<event>
 4    1  0.1678003E-008  0.4341955E+03  0.7818608E-02  0.1032543E+00
         -1   -1    0    0    0  501 -0.00000000000E+00  0.00000000000E+00  0.22848254053E+04  0.22848254053E+04  0.50400000000E-02 0.  1.
          1   -1    0    0  501    0  0.00000000000E+00 -0.00000000000E+00 -0.26289213561E+03  0.26289213566E+03  0.50400000000E-02 0. -1.
    8880022    1    1    2    0    0 -0.32506333556E+03 -0.24386038771E+03 -0.44213808696E+02  0.43644080322E+03  0.15294330000E+03 0.  0.
    8880022    1    1    2    0    0  0.32506333556E+03  0.24386038771E+03  0.20661470784E+04  0.21112767377E+04  0.15294330000E+03 0.  1.
<mgrwt>
<rscale>  0 0.43419548E+03</rscale>
<asrwt>0</asrwt>
<pdfrwt beam="1">  1        1 0.40444944E-01 0.43419548E+03</pdfrwt>
<pdfrwt beam="2">  1       -1 0.35151160E+00 0.43419548E+03</pdfrwt>
<totfact> 0.17953756E+00</totfact>
</mgrwt>
</event>
<event>
 4    1  0.1678003E-008  0.7646025E+03  0.7818608E-02  0.9612716E-01
          1   -1    0    0  501    0  0.00000000000E+00  0.00000000000E+00  0.61998875001E+03  0.61998875003E+03  0.50400000000E-02 0. -1.
         -1   -1    0    0    0  501 -0.00000000000E+00 -0.00000000000E+00 -0.17800295678E+04  0.17800295678E+04  0.50400000000E-02 0.  1.
    8880022    1    1    2    0    0 -0.66722046233E+03  0.34064968726E+03 -0.14029352643E+04  0.15977622989E+04  0.15294330000E+03 0.  0.
    8880022    1    1    2    0    0  0.66722046233E+03 -0.34064968726E+03  0.24289444655E+03  0.80225601896E+03  0.15294330000E+03 0.  0.
<mgrwt>
<rscale>  0 0.76460252E+03</rscale>
<asrwt>0</asrwt>
<pdfrwt beam="1">  1        1 0.95382885E-01 0.76460252E+03</pdfrwt>
<pdfrwt beam="2">  1       -1 0.27385070E+00 0.76460252E+03</pdfrwt>
<totfact> 0.16678564E+00</totfact>
</mgrwt>
</event>
<event>
 4    1  0.1678003E-008  0.2289840E+03  0.7818608E-02  0.1127357E+00
          1   -1    0    0  501    0  0.00000000000E+00  0.00000000000E+00  0.16315852602E+04  0.16315852602E+04  0.50400000000E-02 0. -1.
         -1   -1    0    0    0  501 -0.00000000000E+00 -0.00000000000E+00 -0.30467694376E+03  0.30467694380E+03  0.50400000000E-02 0.  1.
    8880022    1    1    2    0    0  0.16236162673E+03 -0.51775466979E+02 -0.25219637767E+03  0.34064154583E+03  0.15294330000E+03 0.  1.
    8880022    1    1    2    0    0 -0.16236162673E+03  0.51775466979E+02  0.15791046941E+04  0.15956206581E+04  0.15294330000E+03 0.  0.
<mgrwt>
<rscale>  0 0.22898395E+03</rscale>
<asrwt>0</asrwt>
<pdfrwt beam="1">  1        1 0.25101312E+00 0.22898395E+03</pdfrwt>
<pdfrwt beam="2">  1       -1 0.46873376E-01 0.22898395E+03</pdfrwt>
<totfact> 0.28025849E+01</totfact>
</mgrwt>
</event>
<event>
 4    1  0.1678003E-008  0.4260746E+03  0.7818608E-02  0.1035107E+00
          1   -1    0    0  501    0  0.00000000000E+00  0.00000000000E+00  0.28548117016E+04  0.28548117016E+04  0.50400000000E-02 0. -1.
         -1   -1    0    0    0  501 -0.00000000000E+00 -0.00000000000E+00 -0.90216151353E+02  0.90216151494E+02  0.50400000000E-02 0.  1.
    8880022    1    1    2    0    0 -0.18961627303E+03  0.34956202699E+03  0.58234304802E+03  0.72156983051E+03  0.15294330000E+03 0.  0.
    8880022    1    1    2    0    0  0.18961627303E+03 -0.34956202699E+03  0.21822525022E+04  0.22234580226E+04  0.15294330000E+03 0.  0.
<mgrwt>
<rscale>  0 0.42607464E+03</rscale>
<asrwt>0</asrwt>
<pdfrwt beam="1">  1        1 0.43920170E+00 0.42607464E+03</pdfrwt>
<pdfrwt beam="2">  1       -1 0.13879411E-01 0.42607464E+03</pdfrwt>
<totfact> 0.31774420E+01</totfact>
</mgrwt>
</event>
<event>
 4    1  0.1678003E-008  0.5215198E+03  0.7818608E-02  0.1008310E+00
         -1   -1    0    0    0  501 -0.00000000000E+00  0.00000000000E+00  0.36447457458E+03  0.36447457461E+03  0.50400000000E-02 0.  1.
          1   -1    0    0  501    0  0.00000000000E+00 -0.00000000000E+00 -0.12962629924E+04  0.12962629924E+04  0.50400000000E-02 0. -1.
    8880022    1    1    2    0    0  0.43518166693E+03  0.24332728659E+03 -0.10067950959E+04  0.11338515202E+04  0.15294330000E+03 0. -1.
    8880022    1    1    2    0    0 -0.43518166693E+03 -0.24332728659E+03  0.75006678057E+02  0.52688604688E+03  0.15294330000E+03 0.  0.
<mgrwt>
<rscale>  0 0.52151980E+03</rscale>
<asrwt>0</asrwt>
<pdfrwt beam="1">  1        1 0.19942507E+00 0.52151980E+03</pdfrwt>
<pdfrwt beam="2">  1       -1 0.56073012E-01 0.52151980E+03</pdfrwt>
<totfact> 0.31145291E+01</totfact>
</mgrwt>
</event>
<event>
 4    1  0.1678003E-008  0.1933968E+03  0.7818608E-02  0.1155433E+00
         -1   -1    0    0    0  501 -0.00000000000E+00  0.00000000000E+00  0.44121197455E+03  0.44121197458E+03  0.50400000000E-02 0.  1.
          1   -1    0    0  501    0  0.00000000000E+00 -0.00000000000E+00 -0.89582970706E+03  0.89582970708E+03  0.50400000000E-02 0. -1.
    8880022    1    1    2    0    0 -0.39704730132E+02 -0.11150875307E+03  0.40879518218E+03  0.45223425522E+03  0.15294330000E+03 0.  1.
    8880022    1    1    2    0    0  0.39704730132E+02  0.11150875307E+03 -0.86341291469E+03  0.88480742644E+03  0.15294330000E+03 0.  0.
<mgrwt>
<rscale>  0 0.19339680E+03</rscale>
<asrwt>0</asrwt>
<pdfrwt beam="1">  1        1 0.13781995E+00 0.19339680E+03</pdfrwt>
<pdfrwt beam="2">  1       -1 0.67878765E-01 0.19339680E+03</pdfrwt>
<totfact> 0.45772503E+01</totfact>
</mgrwt>
</event>
<event>
 4    1  0.1678003E-008  0.8794303E+03  0.7818608E-02  0.9451666E-01
          1   -1    0    0  501    0  0.00000000000E+00  0.00000000000E+00  0.75564518427E+03  0.75564518428E+03  0.50400000000E-02 0. -1.
         -1   -1    0    0    0  501 -0.00000000000E+00 -0.00000000000E+00 -0.20528589898E+04  0.20528589898E+04  0.50400000000E-02 0.  1.
    8880022    1    1    2    0    0  0.72245160600E+03  0.47756634675E+03  0.34576859952E+03  0.94496217701E+03  0.15294330000E+03 0.  0.
    8880022    1    1    2    0    0 -0.72245160600E+03 -0.47756634675E+03 -0.16429824050E+04  0.18635419971E+04  0.15294330000E+03 0.  0.
<mgrwt>
<rscale>  0 0.87943027E+03</rscale>
<asrwt>0</asrwt>
<pdfrwt beam="1">  1        1 0.11625311E+00 0.87943027E+03</pdfrwt>
<pdfrwt beam="2">  1       -1 0.31582446E+00 0.87943027E+03</pdfrwt>
<totfact> 0.65339422E-01</totfact>
</mgrwt>
</event>
<event>
 4    1  0.1678003E-008  0.4958521E+03  0.7818608E-02  0.1014867E+00
          1   -1    0    0  501    0  0.00000000000E+00  0.00000000000E+00  0.95576963862E+03  0.95576963863E+03  0.50400000000E-02 0. -1.
         -1   -1    0    0    0  501 -0.00000000000E+00 -0.00000000000E+00 -0.91955248557E+03  0.91955248558E+03  0.50400000000E-02 0.  1.
    8880022    1    1    2    0    0  0.24398549808E+03  0.40366912247E+03 -0.77765972765E+03  0.92229278906E+03  0.15294330000E+03 0.  0.
    8880022    1    1    2    0    0 -0.24398549808E+03 -0.40366912247E+03  0.81387688070E+03  0.95302933516E+03  0.15294330000E+03 0.  0.
<mgrwt>
<rscale>  0 0.49585213E+03</rscale>
<asrwt>0</asrwt>
<pdfrwt beam="1">  1        1 0.14704148E+00 0.49585213E+03</pdfrwt>
<pdfrwt beam="2">  1       -1 0.14146961E+00 0.49585213E+03</pdfrwt>
<totfact> 0.72418153E+00</totfact>
</mgrwt>
</event>
<event>
 4    1  0.1678003E-008  0.7999966E+03  0.7818608E-02  0.9560022E-01
         -1   -1    0    0    0  501 -0.00000000000E+00  0.00000000000E+00  0.34772854013E+03  0.34772854017E+03  0.50400000000E-02 0.  1.
          1   -1    0    0  501    0  0.00000000000E+00 -0.00000000000E+00 -0.22217472639E+04  0.22217472639E+04  0.50400000000E-02 0. -1.
    8880022    1    1    2    0    0  0.62037598428E+03 -0.48139022961E+03 -0.14692037204E+04  0.16728879640E+04  0.15294330000E+03 0.  0.
    8880022    1    1    2    0    0 -0.62037598428E+03  0.48139022961E+03 -0.40481500341E+03  0.89658784011E+03  0.15294330000E+03 0.  0.
<mgrwt>
<rscale>  0 0.79999661E+03</rscale>
<asrwt>0</asrwt>
<pdfrwt beam="1">  1        1 0.34180726E+00 0.79999661E+03</pdfrwt>
<pdfrwt beam="2">  1       -1 0.53496700E-01 0.79999661E+03</pdfrwt>
<totfact> 0.77384055E+00</totfact>
</mgrwt>
</event>
<event>
 4    1  0.1678003E-008  0.9948102E+03  0.7818608E-02  0.9314255E-01
         -1   -1    0    0    0  501 -0.00000000000E+00  0.00000000000E+00  0.97348226839E+03  0.97348226840E+03  0.50400000000E-02 0.  1.
          1   -1    0    0  501    0  0.00000000000E+00 -0.00000000000E+00 -0.19161231654E+04  0.19161231654E+04  0.50400000000E-02 0. -1.
    8880022    1    1    2    0    0  0.11558136857E+03 -0.97616424428E+03 -0.14612441208E+04  0.17677334975E+04  0.15294330000E+03 0.  0.
    8880022    1    1    2    0    0 -0.11558136857E+03  0.97616424428E+03  0.51860322385E+03  0.11218719363E+04  0.15294330000E+03 0.  0.
<mgrwt>
<rscale>  0 0.99481020E+03</rscale>
<asrwt>0</asrwt>
<pdfrwt beam="1">  1        1 0.29478818E+00 0.99481020E+03</pdfrwt>
<pdfrwt beam="2">  1       -1 0.14976650E+00 0.99481020E+03</pdfrwt>
<totfact> 0.12032049E+00</totfact>
</mgrwt>
</event>
<event>
 4    1  0.1678003E-008  0.8317780E+03  0.7818608E-02  0.9515126E-01
          1   -1    0    0  501    0  0.00000000000E+00  0.00000000000E+00  0.11974001869E+04  0.11974001869E+04  0.50400000000E-02 0. -1.
         -1   -1    0    0    0  501 -0.00000000000E+00 -0.00000000000E+00 -0.10584798011E+04  0.10584798011E+04  0.50400000000E-02 0.  1.
    8880022    1    1    2    0    0 -0.80362534324E+03 -0.15049704792E+03 -0.69064521519E+03  0.10811315924E+04  0.15294330000E+03 0.  0.
    8880022    1    1    2    0    0  0.80362534324E+03  0.15049704792E+03  0.82956560102E+03  0.11747483957E+04  0.15294330000E+03 0.  0.
<mgrwt>
<rscale>  0 0.83177804E+03</rscale>
<asrwt>0</asrwt>
<pdfrwt beam="1">  1        1 0.18421541E+00 0.83177804E+03</pdfrwt>
<pdfrwt beam="2">  1       -1 0.16284305E+00 0.83177804E+03</pdfrwt>
<totfact> 0.30673438E+00</totfact>
</mgrwt>
</event>
<event>
 4    1  0.1678003E-008  0.6348261E+03  0.7818608E-02  0.9835676E-01
          1   -1    0    0  501    0  0.00000000000E+00  0.00000000000E+00  0.23350367482E+04  0.23350367482E+04  0.50400000000E-02 0. -1.
         -1   -1    0    0    0  501 -0.00000000000E+00 -0.00000000000E+00 -0.20076793727E+03  0.20076793734E+03  0.50400000000E-02 0.  1.
    8880022    1    1    2    0    0 -0.51551382243E+03  0.33742852240E+03  0.15421333730E+04  0.16676868717E+04  0.15294330000E+03 0.  0.
    8880022    1    1    2    0    0  0.51551382243E+03 -0.33742852240E+03  0.59213543784E+03  0.86811781378E+03  0.15294330000E+03 0.  0.
<mgrwt>
<rscale>  0 0.63482609E+03</rscale>
<asrwt>0</asrwt>
<pdfrwt beam="1">  1        1 0.35923642E+00 0.63482609E+03</pdfrwt>
<pdfrwt beam="2">  1       -1 0.30887375E-01 0.63482609E+03</pdfrwt>
<totfact> 0.18191268E+01</totfact>
</mgrwt>
</event>
<event>
 4    1  0.1678003E-008  0.3638955E+03  0.7818608E-02  0.1057052E+00
         -1   -1    0    0    0  501 -0.00000000000E+00  0.00000000000E+00  0.23293493870E+03  0.23293493876E+03  0.50400000000E-02 0.  1.
          1   -1    0    0  501    0  0.00000000000E+00 -0.00000000000E+00 -0.76970589626E+03  0.76970589628E+03  0.50400000000E-02 0. -1.
    8880022    1    1    2    0    0 -0.46749822575E+02 -0.32686807228E+03 -0.52470985565E+03  0.63854550991E+03  0.15294330000E+03 0.  0.
    8880022    1    1    2    0    0  0.46749822575E+02  0.32686807228E+03 -0.12061101902E+02  0.36409532513E+03  0.15294330000E+03 0.  0.
<mgrwt>
<rscale>  0 0.36389550E+03</rscale>
<asrwt>0</asrwt>
<pdfrwt beam="1">  1        1 0.11841629E+00 0.36389550E+03</pdfrwt>
<pdfrwt beam="2">  1       -1 0.35836145E-01 0.36389550E+03</pdfrwt>
<totfact> 0.18310906E+02</totfact>
</mgrwt>
</event>
<event>
 4    1  0.1678003E-008  0.4736262E+03  0.7818608E-02  0.1020902E+00
          1   -1    0    0  501    0  0.00000000000E+00  0.00000000000E+00  0.59692773382E+03  0.59692773384E+03  0.50400000000E-02 0. -1.
         -1   -1    0    0    0  501 -0.00000000000E+00 -0.00000000000E+00 -0.11831529164E+04  0.11831529164E+04  0.50400000000E-02 0.  1.
    8880022    1    1    2    0    0 -0.38269835740E+03 -0.23339256171E+03  0.44211637123E+03  0.64791099647E+03  0.15294330000E+03 0.  0.
    8880022    1    1    2    0    0  0.38269835740E+03  0.23339256171E+03 -0.10283415538E+04  0.11321696538E+04  0.15294330000E+03 0.  0.
<mgrwt>
<rscale>  0 0.47362620E+03</rscale>
<asrwt>0</asrwt>
<pdfrwt beam="1">  1        1 0.91835036E-01 0.47362620E+03</pdfrwt>
<pdfrwt beam="2">  1       -1 0.18202353E+00 0.47362620E+03</pdfrwt>
<totfact> 0.75224566E+00</totfact>
</mgrwt>
</event>
<event>
 4    1  0.1678003E-008  0.9358098E+03  0.7818608E-02  0.9381892E-01
          1   -1    0    0  501    0  0.00000000000E+00  0.00000000000E+00  0.30480528578E+04  0.30480528578E+04  0.50400000000E-02 0. -1.
         -1   -1    0    0    0  501 -0.00000000000E+00 -0.00000000000E+00 -0.48736723728E+03  0.48736723730E+03  0.50400000000E-02 0.  1.
    8880022    1    1    2    0    0 -0.71506609880E+03 -0.58397670219E+03  0.14778961564E+03  0.94740790469E+03  0.15294330000E+03 0.  0.
    8880022    1    1    2    0    0  0.71506609880E+03  0.58397670219E+03  0.24128960049E+04  0.25880121904E+04  0.15294330000E+03 0.  0.
<mgrwt>
<rscale>  0 0.93580979E+03</rscale>
<asrwt>0</asrwt>
<pdfrwt beam="1">  1        1 0.46893120E+00 0.93580979E+03</pdfrwt>
<pdfrwt beam="2">  1       -1 0.74979576E-01 0.93580979E+03</pdfrwt>
<totfact> 0.10260689E+00</totfact>
</mgrwt>
</event>
<event>
 4    1  0.1678003E-008  0.1122482E+04  0.7818608E-02  0.9183552E-01
          1   -1    0    0  501    0  0.00000000000E+00  0.00000000000E+00  0.33074930228E+04  0.33074930228E+04  0.50400000000E-02 0. -1.
         -1   -1    0    0    0  501 -0.00000000000E+00 -0.00000000000E+00 -0.41956720082E+03  0.41956720085E+03  0.50400000000E-02 0.  1.
    8880022    1    1    2    0    0 -0.88555220153E+03  0.67258538489E+03  0.87854851143E+03  0.14254167607E+04  0.15294330000E+03 0.  0.
    8880022    1    1    2    0    0  0.88555220153E+03 -0.67258538489E+03  0.20093773105E+04  0.23016434630E+04  0.15294330000E+03 0.  0.
<mgrwt>
<rscale>  0 0.11224818E+04</rscale>
<asrwt>0</asrwt>
<pdfrwt beam="1">  1        1 0.50884510E+00 0.11224818E+04</pdfrwt>
<pdfrwt beam="2">  1       -1 0.64548798E-01 0.11224818E+04</pdfrwt>
<totfact> 0.87090593E-01</totfact>
</mgrwt>
</event>
<event>
 4    1  0.1678003E-008  0.8130865E+03  0.7818608E-02  0.9541266E-01
          1   -1    0    0  501    0  0.00000000000E+00  0.00000000000E+00  0.44846048728E+03  0.44846048731E+03  0.50400000000E-02 0. -1.
         -1   -1    0    0    0  501 -0.00000000000E+00 -0.00000000000E+00 -0.38299260510E+04  0.38299260510E+04  0.50400000000E-02 0.  1.
    8880022    1    1    2    0    0  0.79176893659E+03 -0.10401931051E+03 -0.33684525712E+04  0.34651958737E+04  0.15294330000E+03 0.  0.
    8880022    1    1    2    0    0 -0.79176893659E+03  0.10401931051E+03 -0.13012992490E+02  0.81319066454E+03  0.15294330000E+03 0.  0.
<mgrwt>
<rscale>  0 0.81308654E+03</rscale>
<asrwt>0</asrwt>
<pdfrwt beam="1">  1        1 0.68993924E-01 0.81308654E+03</pdfrwt>
<pdfrwt beam="2">  1       -1 0.58921937E+00 0.81308654E+03</pdfrwt>
<totfact> 0.25587779E-02</totfact>
</mgrwt>
</event>
<event>
 4    1  0.1678003E-008  0.1668254E+03  0.7818608E-02  0.1181199E+00
         -1   -1    0    0    0  501 -0.00000000000E+00  0.00000000000E+00  0.16644718574E+03  0.16644718581E+03  0.50400000000E-02 0.  1.
          1   -1    0    0  501    0  0.00000000000E+00 -0.00000000000E+00 -0.73029598259E+03  0.73029598261E+03  0.50400000000E-02 0. -1.
    8880022    1    1    2    0    0  0.45258112765E+02  0.48895435136E+02  0.11178711602E+03  0.20081601697E+03  0.15294330000E+03 0.  0.
    8880022    1    1    2    0    0 -0.45258112765E+02 -0.48895435136E+02 -0.67563591288E+03  0.69592715146E+03  0.15294330000E+03 0. -1.
<mgrwt>
<rscale>  0 0.16682540E+03</rscale>
<asrwt>0</asrwt>
<pdfrwt beam="1">  1        1 0.11235323E+00 0.16682540E+03</pdfrwt>
<pdfrwt beam="2">  1       -1 0.25607260E-01 0.16682540E+03</pdfrwt>
<totfact> 0.36090914E+02</totfact>
</mgrwt>
</event>
<event>
 4    1  0.1678003E-008  0.1236526E+04  0.7818608E-02  0.9081473E-01
         -1   -1    0    0    0  501 -0.00000000000E+00  0.00000000000E+00  0.10481828004E+04  0.10481828004E+04  0.50400000000E-02 0.  1.
          1   -1    0    0  501    0  0.00000000000E+00 -0.00000000000E+00 -0.47223791854E+04  0.47223791854E+04  0.50400000000E-02 0. -1.
    8880022    1    1    2    0    0  0.59079267759E+03 -0.10754385977E+04  0.56151757047E+03  0.13580492628E+04  0.15294330000E+03 0.  0.
    8880022    1    1    2    0    0 -0.59079267759E+03  0.10754385977E+04 -0.42357139555E+04  0.44125127231E+04  0.15294330000E+03 0.  0.
<mgrwt>
<rscale>  0 0.12365257E+04</rscale>
<asrwt>0</asrwt>
<pdfrwt beam="1">  1        1 0.72651986E+00 0.12365257E+04</pdfrwt>
<pdfrwt beam="2">  1       -1 0.16125890E+00 0.12365257E+04</pdfrwt>
<totfact> 0.54485729E-03</totfact>
</mgrwt>
</event>
<event>
 4    1  0.1678003E-008  0.7225002E+03  0.7818608E-02  0.9679509E-01
          1   -1    0    0  501    0  0.00000000000E+00  0.00000000000E+00  0.28721511004E+04  0.28721511005E+04  0.50400000000E-02 0. -1.
         -1   -1    0    0    0  501 -0.00000000000E+00 -0.00000000000E+00 -0.21317395230E+03  0.21317395236E+03  0.50400000000E-02 0.  1.
    8880022    1    1    2    0    0 -0.31437083016E+03 -0.63228625970E+03  0.19218009523E+04  0.20531257844E+04  0.15294330000E+03 0.  0.
    8880022    1    1    2    0    0  0.31437083016E+03  0.63228625970E+03  0.73717619582E+03  0.10321992684E+04  0.15294330000E+03 0.  0.
<mgrwt>
<rscale>  0 0.72250023E+03</rscale>
<asrwt>0</asrwt>
<pdfrwt beam="1">  1        1 0.44186939E+00 0.72250023E+03</pdfrwt>
<pdfrwt beam="2">  1       -1 0.32795994E-01 0.72250023E+03</pdfrwt>
<totfact> 0.68869629E+00</totfact>
</mgrwt>
</event>
<event>
 4    1  0.1678003E-008  0.2466173E+03  0.7818608E-02  0.1115461E+00
         -1   -1    0    0    0  501 -0.00000000000E+00  0.00000000000E+00  0.58917263876E+03  0.58917263878E+03  0.50400000000E-02 0.  1.
          1   -1    0    0  501    0  0.00000000000E+00 -0.00000000000E+00 -0.19487301436E+04  0.19487301436E+04  0.50400000000E-02 0. -1.
    8880022    1    1    2    0    0 -0.49180379944E+02  0.18710883708E+03  0.55510540400E+03  0.60742249650E+03  0.15294330000E+03 0.  0.
    8880022    1    1    2    0    0  0.49180379944E+02 -0.18710883708E+03 -0.19146629089E+04  0.19304802859E+04  0.15294330000E+03 0.  0.
<mgrwt>
<rscale>  0 0.24661727E+03</rscale>
<asrwt>0</asrwt>
<pdfrwt beam="1">  1        1 0.29980463E+00 0.24661727E+03</pdfrwt>
<pdfrwt beam="2">  1       -1 0.90641946E-01 0.24661727E+03</pdfrwt>
<totfact> 0.47099339E+00</totfact>
</mgrwt>
</event>
<event>
 4    1  0.1678003E-008  0.2950085E+03  0.7818608E-02  0.1087763E+00
          1   -1    0    0  501    0  0.00000000000E+00  0.00000000000E+00  0.43266807065E+03  0.43266807068E+03  0.50400000000E-02 0. -1.
         -1   -1    0    0    0  501 -0.00000000000E+00 -0.00000000000E+00 -0.51299025808E+03  0.51299025810E+03  0.50400000000E-02 0.  1.
    8880022    1    1    2    0    0 -0.21252661412E+03  0.13590723677E+03 -0.40881403587E+03  0.50414175353E+03  0.15294330000E+03 0.  0.
    8880022    1    1    2    0    0  0.21252661412E+03 -0.13590723677E+03  0.32849184844E+03  0.44151657525E+03  0.15294330000E+03 0.  0.
<mgrwt>
<rscale>  0 0.29500846E+03</rscale>
<asrwt>0</asrwt>
<pdfrwt beam="1">  1        1 0.66564319E-01 0.29500846E+03</pdfrwt>
<pdfrwt beam="2">  1       -1 0.78921577E-01 0.29500846E+03</pdfrwt>
<totfact> 0.92501675E+01</totfact>
</mgrwt>
</event>
<event>
 4    1  0.1678003E-008  0.1207755E+04  0.7818608E-02  0.9106095E-01
         -1   -1    0    0    0  501 -0.00000000000E+00  0.00000000000E+00  0.69768107707E+03  0.69768107708E+03  0.50400000000E-02 0.  1.
          1   -1    0    0  501    0  0.00000000000E+00 -0.00000000000E+00 -0.21022971534E+04  0.21022971534E+04  0.50400000000E-02 0. -1.
    8880022    1    1    2    0    0  0.85172034549E+03  0.84252810781E+03 -0.59852648705E+03  0.13479268408E+04  0.15294330000E+03 0.  0.
    8880022    1    1    2    0    0 -0.85172034549E+03 -0.84252810781E+03 -0.80608958928E+03  0.14520513897E+04  0.15294330000E+03 0.  0.
<mgrwt>
<rscale>  0 0.12077553E+04</rscale>
<asrwt>0</asrwt>
<pdfrwt beam="1">  1        1 0.32343033E+00 0.12077553E+04</pdfrwt>
<pdfrwt beam="2">  1       -1 0.10733555E+00 0.12077553E+04</pdfrwt>
<totfact> 0.20232475E+00</totfact>
</mgrwt>
</event>
<event>
 4    1  0.1678003E-008  0.1145202E+04  0.7818608E-02  0.9162222E-01
          1   -1    0    0  501    0  0.00000000000E+00  0.00000000000E+00  0.65011100186E+03  0.65011100188E+03  0.50400000000E-02 0. -1.
         -1   -1    0    0    0  501 -0.00000000000E+00 -0.00000000000E+00 -0.23011266627E+04  0.23011266627E+04  0.50400000000E-02 0.  1.
    8880022    1    1    2    0    0 -0.48017806709E+02 -0.11339266528E+04 -0.30729372586E+03  0.11857134775E+04  0.15294330000E+03 0.  0.
    8880022    1    1    2    0    0  0.48017806709E+02  0.11339266528E+04 -0.13437219350E+04  0.17655241871E+04  0.15294330000E+03 0.  0.
<mgrwt>
<rscale>  0 0.11452017E+04</rscale>
<asrwt>0</asrwt>
<pdfrwt beam="1">  1        1 0.10001708E+00 0.11452017E+04</pdfrwt>
<pdfrwt beam="2">  1       -1 0.35401948E+00 0.11452017E+04</pdfrwt>
<totfact> 0.44488838E-01</totfact>
</mgrwt>
</event>
<event>
 4    1  0.1678003E-008  0.9754601E+03  0.7818608E-02  0.9335877E-01
          1   -1    0    0  501    0  0.00000000000E+00  0.00000000000E+00  0.25117975633E+04  0.25117975633E+04  0.50400000000E-02 0. -1.
         -1   -1    0    0    0  501 -0.00000000000E+00 -0.00000000000E+00 -0.54809891827E+03  0.54809891829E+03  0.50400000000E-02 0.  1.
    8880022    1    1    2    0    0 -0.19114142647E+03 -0.94424350464E+03  0.18321000210E+04  0.20755994269E+04  0.15294330000E+03 0.  0.
    8880022    1    1    2    0    0  0.19114142647E+03  0.94424350464E+03  0.13159862399E+03  0.98429705466E+03  0.15294330000E+03 0.  0.
<mgrwt>
<rscale>  0 0.97546014E+03</rscale>
<asrwt>0</asrwt>
<pdfrwt beam="1">  1        1 0.38643040E+00 0.97546014E+03</pdfrwt>
<pdfrwt beam="2">  1       -1 0.84322910E-01 0.97546014E+03</pdfrwt>
<totfact> 0.18942141E+00</totfact>
</mgrwt>
</event>
<event>
 4    1  0.1678003E-008  0.4121350E+03  0.7818608E-02  0.1039657E+00
          1   -1    0    0  501    0  0.00000000000E+00  0.00000000000E+00  0.27868047246E+03  0.27868047251E+03  0.50400000000E-02 0. -1.
         -1   -1    0    0    0  501 -0.00000000000E+00 -0.00000000000E+00 -0.11893375942E+04  0.11893375942E+04  0.50400000000E-02 0.  1.
    8880022    1    1    2    0    0  0.20235485001E+03  0.32483242542E+03 -0.96783897534E+03  0.10519351335E+04  0.15294330000E+03 0.  0.
    8880022    1    1    2    0    0 -0.20235485001E+03 -0.32483242542E+03  0.57181853586E+02  0.41608293322E+03  0.15294330000E+03 0.  0.
<mgrwt>
<rscale>  0 0.41213498E+03</rscale>
<asrwt>0</asrwt>
<pdfrwt beam="1">  1        1 0.42873919E-01 0.41213498E+03</pdfrwt>
<pdfrwt beam="2">  1       -1 0.18297501E+00 0.41213498E+03</pdfrwt>
<totfact> 0.20544728E+01</totfact>
</mgrwt>
</event>
<event>
 4    1  0.1678003E-008  0.3684845E+03  0.7818608E-02  0.1055274E+00
          1   -1    0    0  501    0  0.00000000000E+00  0.00000000000E+00  0.69233490837E+03  0.69233490839E+03  0.50400000000E-02 0. -1.
         -1   -1    0    0    0  501 -0.00000000000E+00 -0.00000000000E+00 -0.28376197682E+03  0.28376197686E+03  0.50400000000E-02 0.  1.
    8880022    1    1    2    0    0  0.31570936891E+03 -0.11276851048E+03  0.47551891816E+03  0.60158044942E+03  0.15294330000E+03 0.  0.
    8880022    1    1    2    0    0 -0.31570936891E+03  0.11276851048E+03 -0.66945986610E+02  0.37451643584E+03  0.15294330000E+03 0.  0.
<mgrwt>
<rscale>  0 0.36848446E+03</rscale>
<asrwt>0</asrwt>
<pdfrwt beam="1">  1        1 0.10651306E+00 0.36848446E+03</pdfrwt>
<pdfrwt beam="2">  1       -1 0.43655689E-01 0.36848446E+03</pdfrwt>
<totfact> 0.15071190E+02</totfact>
</mgrwt>
</event>
<event>
 4    1  0.1678003E-008  0.4427278E+03  0.7818608E-02  0.1029913E+00
         -1   -1    0    0    0  501 -0.00000000000E+00  0.00000000000E+00  0.21444292589E+03  0.21444292595E+03  0.50400000000E-02 0.  1.
          1   -1    0    0  501    0  0.00000000000E+00 -0.00000000000E+00 -0.97542143018E+03  0.97542143020E+03  0.50400000000E-02 0. -1.
    8880022    1    1    2    0    0  0.35888873042E+03 -0.20932068266E+03 -0.23123923372E+03  0.49947923404E+03  0.15294330000E+03 0. -1.
    8880022    1    1    2    0    0 -0.35888873042E+03  0.20932068266E+03 -0.52973927057E+03  0.69038512210E+03  0.15294330000E+03 0.  0.
<mgrwt>
<rscale>  0 0.44272782E+03</rscale>
<asrwt>0</asrwt>
<pdfrwt beam="1">  1        1 0.15006483E+00 0.44272782E+03</pdfrwt>
<pdfrwt beam="2">  1       -1 0.32991220E-01 0.44272782E+03</pdfrwt>
<totfact> 0.14264794E+02</totfact>
</mgrwt>
</event>
<event>
 4    1  0.1678003E-008  0.3411694E+03  0.7818608E-02  0.1066299E+00
         -1   -1    0    0    0  501 -0.00000000000E+00  0.00000000000E+00  0.87860805364E+03  0.87860805366E+03  0.50400000000E-02 0.  1.
          1   -1    0    0  501    0  0.00000000000E+00 -0.00000000000E+00 -0.11694818611E+04  0.11694818611E+04  0.50400000000E-02 0. -1.
    8880022    1    1    2    0    0  0.30296782645E+03  0.34862878025E+02  0.81886357877E+03  0.88709308293E+03  0.15294330000E+03 0.  0.
    8880022    1    1    2    0    0 -0.30296782645E+03 -0.34862878025E+02 -0.11097373862E+04  0.11609968318E+04  0.15294330000E+03 0. -1.
<mgrwt>
<rscale>  0 0.34116943E+03</rscale>
<asrwt>0</asrwt>
<pdfrwt beam="1">  1        1 0.17992029E+00 0.34116943E+03</pdfrwt>
<pdfrwt beam="2">  1       -1 0.13517047E+00 0.34116943E+03</pdfrwt>
<totfact> 0.58967074E+00</totfact>
</mgrwt>
</event>
<event>
 4    1  0.1678003E-008  0.3626562E+03  0.7818608E-02  0.1057537E+00
          1   -1    0    0  501    0  0.00000000000E+00  0.00000000000E+00  0.16020924543E+04  0.16020924543E+04  0.50400000000E-02 0. -1.
         -1   -1    0    0    0  501 -0.00000000000E+00 -0.00000000000E+00 -0.52872927899E+03  0.52872927902E+03  0.50400000000E-02 0.  1.
    8880022    1    1    2    0    0 -0.27517256009E+03  0.18002202380E+03  0.15158959180E+04  0.15586724973E+04  0.15294330000E+03 0.  0.
    8880022    1    1    2    0    0  0.27517256009E+03 -0.18002202380E+03 -0.44253274267E+03  0.57214923597E+03  0.15294330000E+03 0.  0.
<mgrwt>
<rscale>  0 0.36265620E+03</rscale>
<asrwt>0</asrwt>
<pdfrwt beam="1">  1        1 0.24647576E+00 0.36265620E+03</pdfrwt>
<pdfrwt beam="2">  1       -1 0.81342967E-01 0.36265620E+03</pdfrwt>
<totfact> 0.94953795E+00</totfact>
</mgrwt>
</event>
<event>
 4    1  0.1678003E-008  0.3852427E+03  0.7818608E-02  0.1049013E+00
          1   -1    0    0  501    0  0.00000000000E+00  0.00000000000E+00  0.17701415969E+04  0.17701415969E+04  0.50400000000E-02 0. -1.
         -1   -1    0    0    0  501 -0.00000000000E+00 -0.00000000000E+00 -0.40247169084E+03  0.40247169087E+03  0.50400000000E-02 0.  1.
    8880022    1    1    2    0    0 -0.32822237439E+03  0.13149290704E+03  0.16503930934E+04  0.16947593715E+04  0.15294330000E+03 0.  0.
    8880022    1    1    2    0    0  0.32822237439E+03 -0.13149290704E+03 -0.28272318730E+03  0.47785391628E+03  0.15294330000E+03 0.  0.
<mgrwt>
<rscale>  0 0.38524273E+03</rscale>
<asrwt>0</asrwt>
<pdfrwt beam="1">  1        1 0.27232947E+00 0.38524273E+03</pdfrwt>
<pdfrwt beam="2">  1       -1 0.61918723E-01 0.38524273E+03</pdfrwt>
<totfact> 0.12695492E+01</totfact>
</mgrwt>
</event>
<event>
 4    1  0.1678003E-008  0.2779684E+03  0.7818608E-02  0.1096804E+00
         -1   -1    0    0    0  501 -0.00000000000E+00  0.00000000000E+00  0.25971349723E+03  0.25971349728E+03  0.50400000000E-02 0.  1.
          1   -1    0    0  501    0  0.00000000000E+00 -0.00000000000E+00 -0.19981658664E+04  0.19981658664E+04  0.50400000000E-02 0. -1.
    8880022    1    1    2    0    0  0.11976625025E+03  0.19882362838E+03 -0.19107366628E+04  0.19308498226E+04  0.15294330000E+03 0.  0.
    8880022    1    1    2    0    0 -0.11976625025E+03 -0.19882362838E+03  0.17228429361E+03  0.32702954108E+03  0.15294330000E+03 0.  1.
<mgrwt>
<rscale>  0 0.27796842E+03</rscale>
<asrwt>0</asrwt>
<pdfrwt beam="1">  1        1 0.30741012E+00 0.27796842E+03</pdfrwt>
<pdfrwt beam="2">  1       -1 0.39955924E-01 0.27796842E+03</pdfrwt>
<totfact> 0.21155854E+01</totfact>
</mgrwt>
</event>
<event>
 4    1  0.1678003E-008  0.7821821E+03  0.7818608E-02  0.9586172E-01
         -1   -1    0    0    0  501 -0.00000000000E+00  0.00000000000E+00  0.10964726173E+04  0.10964726173E+04  0.50400000000E-02 0.  1.
          1   -1    0    0  501    0  0.00000000000E+00 -0.00000000000E+00 -0.67329171358E+03  0.67329171360E+03  0.50400000000E-02 0. -1.
    8880022    1    1    2    0    0  0.73470612040E+03 -0.22050875249E+03 -0.15461275479E+03  0.79731671890E+03  0.15294330000E+03 0.  0.
    8880022    1    1    2    0    0 -0.73470612040E+03  0.22050875249E+03  0.57779365851E+03  0.97244761201E+03  0.15294330000E+03 0.  0.
<mgrwt>
<rscale>  0 0.78218211E+03</rscale>
<asrwt>0</asrwt>
<pdfrwt beam="1">  1        1 0.10358334E+00 0.78218211E+03</pdfrwt>
<pdfrwt beam="2">  1       -1 0.16868809E+00 0.78218211E+03</pdfrwt>
<totfact> 0.74756981E+00</totfact>
</mgrwt>
</event>
<event>
 4    1  0.1678003E-008  0.5580554E+03  0.7818608E-02  0.9996464E-01
          1   -1    0    0  501    0  0.00000000000E+00  0.00000000000E+00  0.19759396139E+04  0.19759396139E+04  0.50400000000E-02 0. -1.
         -1   -1    0    0    0  501 -0.00000000000E+00 -0.00000000000E+00 -0.19793125161E+03  0.19793125168E+03  0.50400000000E-02 0.  1.
    8880022    1    1    2    0    0 -0.39867828750E+02  0.53520536440E+03  0.13795944341E+04  0.14881890611E+04  0.15294330000E+03 0.  0.
    8880022    1    1    2    0    0  0.39867828750E+02 -0.53520536440E+03  0.39841392815E+03  0.68568180449E+03  0.15294330000E+03 0.  0.
<mgrwt>
<rscale>  0 0.55805544E+03</rscale>
<asrwt>0</asrwt>
<pdfrwt beam="1">  1        1 0.30399071E+00 0.55805544E+03</pdfrwt>
<pdfrwt beam="2">  1       -1 0.30450961E-01 0.55805544E+03</pdfrwt>
<totfact> 0.32807402E+01</totfact>
</mgrwt>
</event>
<event>
 4    1  0.1678003E-008  0.6926125E+03  0.7818608E-02  0.9729950E-01
          1   -1    0    0  501    0  0.00000000000E+00  0.00000000000E+00  0.22154524420E+04  0.22154524420E+04  0.50400000000E-02 0. -1.
         -1   -1    0    0    0  501 -0.00000000000E+00 -0.00000000000E+00 -0.24596787963E+03  0.24596787968E+03  0.50400000000E-02 0.  1.
    8880022    1    1    2    0    0  0.65003816594E+03  0.18376826150E+03  0.14105067621E+04  0.15713819936E+04  0.15294330000E+03 0.  0.
    8880022    1    1    2    0    0 -0.65003816594E+03 -0.18376826150E+03  0.55897780028E+03  0.89003832801E+03  0.15294330000E+03 0.  0.
<mgrwt>
<rscale>  0 0.69261248E+03</rscale>
<asrwt>0</asrwt>
<pdfrwt beam="1">  1        1 0.34083884E+00 0.69261248E+03</pdfrwt>
<pdfrwt beam="2">  1       -1 0.37841212E-01 0.69261248E+03</pdfrwt>
<totfact> 0.15125504E+01</totfact>
</mgrwt>
</event>
<event>
 4    1  0.1678003E-008  0.3230310E+03  0.7818608E-02  0.1074263E+00
         -1   -1    0    0    0  501 -0.00000000000E+00  0.00000000000E+00  0.27277101406E+03  0.27277101411E+03  0.50400000000E-02 0.  1.
          1   -1    0    0  501    0  0.00000000000E+00 -0.00000000000E+00 -0.12706475306E+04  0.12706475306E+04  0.50400000000E-02 0. -1.
    8880022    1    1    2    0    0  0.27603884273E+03  0.68992235386E+02  0.14622715545E+03  0.35458624514E+03  0.15294330000E+03 0.  0.
    8880022    1    1    2    0    0 -0.27603884273E+03 -0.68992235386E+02 -0.11441036720E+04  0.11888322996E+04  0.15294330000E+03 0.  0.
<mgrwt>
<rscale>  0 0.32303100E+03</rscale>
<asrwt>0</asrwt>
<pdfrwt beam="1">  1        1 0.19548423E+00 0.32303100E+03</pdfrwt>
<pdfrwt beam="2">  1       -1 0.41964772E-01 0.32303100E+03</pdfrwt>
<totfact> 0.57949496E+01</totfact>
</mgrwt>
</event>
<event>
 4    1  0.1678003E-008  0.7299792E+03  0.7818608E-02  0.9667294E-01
         -1   -1    0    0    0  501 -0.00000000000E+00  0.00000000000E+00  0.11154546928E+04  0.11154546928E+04  0.50400000000E-02 0.  1.
          1   -1    0    0  501    0  0.00000000000E+00 -0.00000000000E+00 -0.10095401680E+04  0.10095401680E+04  0.50400000000E-02 0. -1.
    8880022    1    1    2    0    0 -0.71359948680E+03 -0.15927621421E+02 -0.71821336847E+03  0.10240605511E+04  0.15294330000E+03 0.  0.
    8880022    1    1    2    0    0  0.71359948680E+03  0.15927621421E+02  0.82412789329E+03  0.11009343097E+04  0.15294330000E+03 0.  0.
<mgrwt>
<rscale>  0 0.72997916E+03</rscale>
<asrwt>0</asrwt>
<pdfrwt beam="1">  1        1 0.15531387E+00 0.72997916E+03</pdfrwt>
<pdfrwt beam="2">  1       -1 0.17160841E+00 0.72997916E+03</pdfrwt>
<totfact> 0.37120535E+00</totfact>
</mgrwt>
</event>
<event>
 4    1  0.1678003E-008  0.1611229E+03  0.7818608E-02  0.1187435E+00
         -1   -1    0    0    0  501 -0.00000000000E+00  0.00000000000E+00  0.68222146147E+02  0.68222146333E+02  0.50400000000E-02 0.  1.
          1   -1    0    0  501    0  0.00000000000E+00 -0.00000000000E+00 -0.80737393070E+03  0.80737393072E+03  0.50400000000E-02 0. -1.
    8880022    1    1    2    0    0  0.48787885812E+02  0.13735770507E+02 -0.68790103263E+03  0.70651851562E+03  0.15294330000E+03 0. -1.
    8880022    1    1    2    0    0 -0.48787885812E+02 -0.13735770507E+02 -0.51250751921E+02  0.16907756144E+03  0.15294330000E+03 0.  0.
<mgrwt>
<rscale>  0 0.16112288E+03</rscale>
<asrwt>0</asrwt>
<pdfrwt beam="1">  1        1 0.12421137E+00 0.16112288E+03</pdfrwt>
<pdfrwt beam="2">  1       -1 0.10495715E-01 0.16112288E+03</pdfrwt>
<totfact> 0.12824345E+03</totfact>
</mgrwt>
</event>
<event>
 4    1  0.1678003E-008  0.1196786E+04  0.7818608E-02  0.9115674E-01
          1   -1    0    0  501    0  0.00000000000E+00  0.00000000000E+00  0.11498483527E+04  0.11498483527E+04  0.50400000000E-02 0. -1.
         -1   -1    0    0    0  501 -0.00000000000E+00 -0.00000000000E+00 -0.13735504586E+04  0.13735504586E+04  0.50400000000E-02 0.  1.
    8880022    1    1    2    0    0  0.71215992466E+03 -0.94959626075E+03  0.27317272485E+03  0.12275666203E+04  0.15294330000E+03 0.  0.
    8880022    1    1    2    0    0 -0.71215992466E+03  0.94959626075E+03 -0.49687483078E+03  0.12958321910E+04  0.15294330000E+03 0.  0.
<mgrwt>
<rscale>  0 0.11967859E+04</rscale>
<asrwt>0</asrwt>
<pdfrwt beam="1">  1        1 0.17689974E+00 0.11967859E+04</pdfrwt>
<pdfrwt beam="2">  1       -1 0.21131546E+00 0.11967859E+04</pdfrwt>
<totfact> 0.14371828E+00</totfact>
</mgrwt>
</event>
<event>
 4    1  0.1678003E-008  0.8572443E+03  0.7818608E-02  0.9480665E-01
         -1   -1    0    0    0  501 -0.00000000000E+00  0.00000000000E+00  0.55354376975E+03  0.55354376978E+03  0.50400000000E-02 0.  1.
          1   -1    0    0  501    0  0.00000000000E+00 -0.00000000000E+00 -0.27616317010E+04  0.27616317010E+04  0.50400000000E-02 0. -1.
    8880022    1    1    2    0    0 -0.77452753851E+03 -0.33404071498E+03  0.90432664831E+02  0.86200105978E+03  0.15294330000E+03 0.  0.
    8880022    1    1    2    0    0  0.77452753851E+03  0.33404071498E+03 -0.22985205961E+04  0.24531744110E+04  0.15294330000E+03 0.  0.
<mgrwt>
<rscale>  0 0.85724428E+03</rscale>
<asrwt>0</asrwt>
<pdfrwt beam="1">  1        1 0.42486641E+00 0.85724428E+03</pdfrwt>
<pdfrwt beam="2">  1       -1 0.85160581E-01 0.85724428E+03</pdfrwt>
<totfact> 0.12692881E+00</totfact>
</mgrwt>
</event>
<event>
 4    1  0.1678003E-008  0.2865489E+03  0.7818608E-02  0.1092165E+00
         -1   -1    0    0    0  501 -0.00000000000E+00  0.00000000000E+00  0.60188675603E+03  0.60188675605E+03  0.50400000000E-02 0.  1.
          1   -1    0    0  501    0  0.00000000000E+00 -0.00000000000E+00 -0.71455796207E+03  0.71455796209E+03  0.50400000000E-02 0. -1.
    8880022    1    1    2    0    0  0.16834305893E+03  0.17429645720E+03  0.53572897633E+03  0.60754903471E+03  0.15294330000E+03 0.  0.
    8880022    1    1    2    0    0 -0.16834305893E+03 -0.17429645720E+03 -0.64840018237E+03  0.70889568344E+03  0.15294330000E+03 0.  0.
<mgrwt>
<rscale>  0 0.28654894E+03</rscale>
<asrwt>0</asrwt>
<pdfrwt beam="1">  1        1 0.10993199E+00 0.28654894E+03</pdfrwt>
<pdfrwt beam="2">  1       -1 0.92597962E-01 0.28654894E+03</pdfrwt>
<totfact> 0.33063195E+01</totfact>
</mgrwt>
</event>
<event>
 4    1  0.1678003E-008  0.5011201E+03  0.7818608E-02  0.1013487E+00
         -1   -1    0    0    0  501 -0.00000000000E+00  0.00000000000E+00  0.51331827457E+03  0.51331827459E+03  0.50400000000E-02 0.  1.
          1   -1    0    0  501    0  0.00000000000E+00 -0.00000000000E+00 -0.19734973718E+04  0.19734973718E+04  0.50400000000E-02 0. -1.
    8880022    1    1    2    0    0 -0.47708686485E+03  0.10854437130E+02 -0.18084254256E+04  0.18765723723E+04  0.15294330000E+03 0.  0.
    8880022    1    1    2    0    0  0.47708686485E+03 -0.10854437130E+02  0.34824632835E+03  0.61024327414E+03  0.15294330000E+03 0.  0.
<mgrwt>
<rscale>  0 0.50112009E+03</rscale>
<asrwt>0</asrwt>
<pdfrwt beam="1">  1        1 0.30361498E+00 0.50112009E+03</pdfrwt>
<pdfrwt beam="2">  1       -1 0.78972043E-01 0.50112009E+03</pdfrwt>
<totfact> 0.55102247E+00</totfact>
</mgrwt>
</event>
<event>
 4    1  0.1678003E-008  0.2130355E+03  0.7818608E-02  0.1139184E+00
         -1   -1    0    0    0  501 -0.00000000000E+00  0.00000000000E+00  0.33212776298E+03  0.33212776302E+03  0.50400000000E-02 0.  1.
          1   -1    0    0  501    0  0.00000000000E+00 -0.00000000000E+00 -0.86288996255E+03  0.86288996256E+03  0.50400000000E-02 0. -1.
    8880022    1    1    2    0    0 -0.12820480738E+03  0.74538611254E+02  0.28277939144E+03  0.35404563893E+03  0.15294330000E+03 0.  1.
    8880022    1    1    2    0    0  0.12820480738E+03 -0.74538611254E+02 -0.81354159101E+03  0.84097208665E+03  0.15294330000E+03 0.  0.
<mgrwt>
<rscale>  0 0.21303551E+03</rscale>
<asrwt>0</asrwt>
<pdfrwt beam="1">  1        1 0.13275230E+00 0.21303551E+03</pdfrwt>
<pdfrwt beam="2">  1       -1 0.51096579E-01 0.21303551E+03</pdfrwt>
<totfact> 0.83057204E+01</totfact>
</mgrwt>
</event>
<event>
 4    1  0.1678003E-008  0.2777841E+03  0.7818608E-02  0.1096905E+00
          1   -1    0    0  501    0  0.00000000000E+00  0.00000000000E+00  0.18861753861E+04  0.18861753862E+04  0.50400000000E-02 0. -1.
         -1   -1    0    0    0  501 -0.00000000000E+00 -0.00000000000E+00 -0.19261046091E+03  0.19261046097E+03  0.50400000000E-02 0.  1.
    8880022    1    1    2    0    0 -0.78490221029E+02  0.21820093957E+03 -0.75646282878E+02  0.28789994435E+03  0.15294330000E+03 0.  1.
    8880022    1    1    2    0    0  0.78490221029E+02 -0.21820093957E+03  0.17692112081E+04  0.17908859028E+04  0.15294330000E+03 0.  0.
<mgrwt>
<rscale>  0 0.27778412E+03</rscale>
<asrwt>0</asrwt>
<pdfrwt beam="1">  1        1 0.29018082E+00 0.27778412E+03</pdfrwt>
<pdfrwt beam="2">  1       -1 0.29632380E-01 0.27778412E+03</pdfrwt>
<totfact> 0.42112516E+01</totfact>
</mgrwt>
</event>
<event>
 4    1  0.1678003E-008  0.3814711E+03  0.7818608E-02  0.1050391E+00
          1   -1    0    0  501    0  0.00000000000E+00  0.00000000000E+00  0.28204361159E+04  0.28204361159E+04  0.50400000000E-02 0. -1.
         -1   -1    0    0    0  501 -0.00000000000E+00 -0.00000000000E+00 -0.76627525614E+02  0.76627525780E+02  0.50400000000E-02 0.  1.
    8880022    1    1    2    0    0  0.11712709369E+03  0.32925639658E+03  0.54398378119E+03  0.66440841203E+03  0.15294330000E+03 0.  0.
    8880022    1    1    2    0    0 -0.11712709369E+03 -0.32925639658E+03  0.21998248091E+04  0.22326552297E+04  0.15294330000E+03 0.  0.
<mgrwt>
<rscale>  0 0.38147108E+03</rscale>
<asrwt>0</asrwt>
<pdfrwt beam="1">  1        1 0.43391327E+00 0.38147108E+03</pdfrwt>
<pdfrwt beam="2">  1       -1 0.11788849E-01 0.38147108E+03</pdfrwt>
<totfact> 0.44011021E+01</totfact>
</mgrwt>
</event>
<event>
 4    1  0.1678003E-008  0.2474526E+03  0.7818608E-02  0.1114925E+00
         -1   -1    0    0    0  501 -0.00000000000E+00  0.00000000000E+00  0.36382790773E+03  0.36382790777E+03  0.50400000000E-02 0.  1.
          1   -1    0    0  501    0  0.00000000000E+00 -0.00000000000E+00 -0.56992312647E+03  0.56992312649E+03  0.50400000000E-02 0. -1.
    8880022    1    1    2    0    0 -0.13955923014E+03 -0.13551522328E+03 -0.49497125701E+03  0.55337993525E+03  0.15294330000E+03 0.  0.
    8880022    1    1    2    0    0  0.13955923014E+03  0.13551522328E+03  0.28887603827E+03  0.38037109901E+03  0.15294330000E+03 0.  0.
<mgrwt>
<rscale>  0 0.24745264E+03</rscale>
<asrwt>0</asrwt>
<pdfrwt beam="1">  1        1 0.87680481E-01 0.24745264E+03</pdfrwt>
<pdfrwt beam="2">  1       -1 0.55973524E-01 0.24745264E+03</pdfrwt>
<totfact> 0.12752317E+02</totfact>
</mgrwt>
</event>
<event>
 4    1  0.1678003E-008  0.3997372E+03  0.7818608E-02  0.1043871E+00
         -1   -1    0    0    0  501 -0.00000000000E+00  0.00000000000E+00  0.37824431886E+03  0.37824431889E+03  0.50400000000E-02 0.  1.
          1   -1    0    0  501    0  0.00000000000E+00 -0.00000000000E+00 -0.19096388118E+04  0.19096388118E+04  0.50400000000E-02 0. -1.
    8880022    1    1    2    0    0  0.30599906075E+03 -0.20679157485E+03 -0.17752082980E+04  0.18196577522E+04  0.15294330000E+03 0.  0.
    8880022    1    1    2    0    0 -0.30599906075E+03  0.20679157485E+03  0.24381380503E+03  0.46822537858E+03  0.15294330000E+03 0.  0.
<mgrwt>
<rscale>  0 0.39973721E+03</rscale>
<asrwt>0</asrwt>
<pdfrwt beam="1">  1        1 0.29379058E+00 0.39973721E+03</pdfrwt>
<pdfrwt beam="2">  1       -1 0.58191435E-01 0.39973721E+03</pdfrwt>
<totfact> 0.11547563E+01</totfact>
</mgrwt>
</event>
<event>
 4    1  0.1678003E-008  0.3751844E+03  0.7818608E-02  0.1052728E+00
         -1   -1    0    0    0  501 -0.00000000000E+00  0.00000000000E+00  0.17105247132E+03  0.17105247139E+03  0.50400000000E-02 0.  1.
          1   -1    0    0  501    0  0.00000000000E+00 -0.00000000000E+00 -0.32547430352E+04  0.32547430352E+04  0.50400000000E-02 0. -1.
    8880022    1    1    2    0    0  0.60641299631E+01  0.34254186281E+03 -0.30224482796E+04  0.30456455732E+04  0.15294330000E+03 0.  0.
    8880022    1    1    2    0    0 -0.60641299631E+01 -0.34254186281E+03 -0.61242284220E+02  0.38014993337E+03  0.15294330000E+03 0.  1.
<mgrwt>
<rscale>  0 0.37518443E+03</rscale>
<asrwt>0</asrwt>
<pdfrwt beam="1">  1        1 0.50072965E+00 0.37518443E+03</pdfrwt>
<pdfrwt beam="2">  1       -1 0.26315767E-01 0.37518443E+03</pdfrwt>
<totfact> 0.58621241E+00</totfact>
</mgrwt>
</event>
<event>
 4    1  0.1678003E-008  0.3305917E+03  0.7818608E-02  0.1070875E+00
          1   -1    0    0  501    0  0.00000000000E+00  0.00000000000E+00  0.57558159190E+03  0.57558159192E+03  0.50400000000E-02 0. -1.
         -1   -1    0    0    0  501 -0.00000000000E+00 -0.00000000000E+00 -0.39867065312E+03  0.39867065316E+03  0.50400000000E-02 0.  1.
    8880022    1    1    2    0    0 -0.13555270804E+03 -0.25985517652E+03 -0.26407021979E+03  0.42311225865E+03  0.15294330000E+03 0.  0.
    8880022    1    1    2    0    0  0.13555270804E+03  0.25985517652E+03  0.44098115856E+03  0.55113998643E+03  0.15294330000E+03 0.  0.
<mgrwt>
<rscale>  0 0.33059175E+03</rscale>
<asrwt>0</asrwt>
<pdfrwt beam="1">  1        1 0.88551014E-01 0.33059175E+03</pdfrwt>
<pdfrwt beam="2">  1       -1 0.61333947E-01 0.33059175E+03</pdfrwt>
<totfact> 0.10406450E+02</totfact>
</mgrwt>
</event>
<event>
 4    1  0.1678003E-008  0.3659412E+03  0.7818608E-02  0.1056256E+00
         -1   -1    0    0    0  501 -0.00000000000E+00  0.00000000000E+00  0.16285835198E+03  0.16285835206E+03  0.50400000000E-02 0.  1.
          1   -1    0    0  501    0  0.00000000000E+00 -0.00000000000E+00 -0.89035565797E+03  0.89035565798E+03  0.50400000000E-02 0. -1.
    8880022    1    1    2    0    0  0.19991811330E+02 -0.33184575996E+03 -0.21812078144E+03  0.42601597298E+03  0.15294330000E+03 0. -1.
    8880022    1    1    2    0    0 -0.19991811330E+02  0.33184575996E+03 -0.50937652454E+03  0.62719803706E+03  0.15294330000E+03 0.  0.
<mgrwt>
<rscale>  0 0.36594116E+03</rscale>
<asrwt>0</asrwt>
<pdfrwt beam="1">  1        1 0.13697779E+00 0.36594116E+03</pdfrwt>
<pdfrwt beam="2">  1       -1 0.25055132E-01 0.36594116E+03</pdfrwt>
<totfact> 0.26889625E+02</totfact>
</mgrwt>
</event>
<event>
 4    1  0.1678003E-008  0.4385945E+03  0.7818608E-02  0.1031179E+00
          1   -1    0    0  501    0  0.00000000000E+00  0.00000000000E+00  0.12327638260E+03  0.12327638271E+03  0.50400000000E-02 0. -1.
         -1   -1    0    0    0  501 -0.00000000000E+00 -0.00000000000E+00 -0.18112940755E+04  0.18112940755E+04  0.50400000000E-02 0.  1.
    8880022    1    1    2    0    0 -0.37283156466E+03  0.17311884862E+03 -0.48403388187E+03  0.65318754058E+03  0.15294330000E+03 0.  0.
    8880022    1    1    2    0    0  0.37283156466E+03 -0.17311884862E+03 -0.12039838110E+04  0.12813829176E+04  0.15294330000E+03 0.  0.
<mgrwt>
<rscale>  0 0.43859453E+03</rscale>
<asrwt>0</asrwt>
<pdfrwt beam="1">  1        1 0.18965599E-01 0.43859453E+03</pdfrwt>
<pdfrwt beam="2">  1       -1 0.27866061E+00 0.43859453E+03</pdfrwt>
<totfact> 0.13869011E+01</totfact>
</mgrwt>
</event>
<event>
 4    1  0.1678003E-008  0.8566526E+03  0.7818608E-02  0.9481451E-01
         -1   -1    0    0    0  501 -0.00000000000E+00  0.00000000000E+00  0.21190701517E+04  0.21190701517E+04  0.50400000000E-02 0.  1.
          1   -1    0    0  501    0  0.00000000000E+00 -0.00000000000E+00 -0.80371519907E+03  0.80371519909E+03  0.50400000000E-02 0. -1.
    8880022    1    1    2    0    0  0.83438105422E+03 -0.11945850286E+03 -0.44479234394E+03  0.96524295376E+03  0.15294330000E+03 0.  0.
    8880022    1    1    2    0    0 -0.83438105422E+03  0.11945850286E+03  0.17601472966E+04  0.19575423970E+04  0.15294330000E+03 0.  0.
<mgrwt>
<rscale>  0 0.85665263E+03</rscale>
<asrwt>0</asrwt>
<pdfrwt beam="1">  1        1 0.12364849E+00 0.85665263E+03</pdfrwt>
<pdfrwt beam="2">  1       -1 0.32601079E+00 0.85665263E+03</pdfrwt>
<totfact> 0.51136057E-01</totfact>
</mgrwt>
</event>
<event>
 4    1  0.1678003E-008  0.3301438E+03  0.7818608E-02  0.1071073E+00
          1   -1    0    0  501    0  0.00000000000E+00  0.00000000000E+00  0.68012056547E+03  0.68012056549E+03  0.50400000000E-02 0. -1.
         -1   -1    0    0    0  501 -0.00000000000E+00 -0.00000000000E+00 -0.67168423994E+03  0.67168423996E+03  0.50400000000E-02 0.  1.
    8880022    1    1    2    0    0 -0.20570836832E+03 -0.20805604801E+03  0.59400194336E+03  0.67958311753E+03  0.15294330000E+03 0.  0.
    8880022    1    1    2    0    0  0.20570836832E+03  0.20805604801E+03 -0.58556561782E+03  0.67222168791E+03  0.15294330000E+03 0.  1.
<mgrwt>
<rscale>  0 0.33014376E+03</rscale>
<asrwt>0</asrwt>
<pdfrwt beam="1">  1        1 0.10463393E+00 0.33014376E+03</pdfrwt>
<pdfrwt beam="2">  1       -1 0.10333604E+00 0.33014376E+03</pdfrwt>
<totfact> 0.27544184E+01</totfact>
</mgrwt>
</event>
<event>
 4    1  0.1678003E-008  0.2403598E+03  0.7818608E-02  0.1119553E+00
         -1   -1    0    0    0  501 -0.00000000000E+00  0.00000000000E+00  0.65433614370E+03  0.65433614372E+03  0.50400000000E-02 0.  1.
          1   -1    0    0  501    0  0.00000000000E+00 -0.00000000000E+00 -0.16099149232E+03  0.16099149240E+03  0.50400000000E-02 0. -1.
    8880022    1    1    2    0    0  0.11422749017E+03  0.14605906902E+03 -0.27274065737E+02  0.24190225057E+03  0.15294330000E+03 0.  0.
    8880022    1    1    2    0    0 -0.11422749017E+03 -0.14605906902E+03  0.52061871712E+03  0.57342538554E+03  0.15294330000E+03 0.  0.
<mgrwt>
<rscale>  0 0.24035978E+03</rscale>
<asrwt>0</asrwt>
<pdfrwt beam="1">  1        1 0.24767922E-01 0.24035978E+03</pdfrwt>
<pdfrwt beam="2">  1       -1 0.10066710E+00 0.24035978E+03</pdfrwt>
<totfact> 0.19395474E+02</totfact>
</mgrwt>
</event>
<event>
 4    1  0.1678003E-008  0.3188776E+03  0.7818608E-02  0.1076167E+00
          1   -1    0    0  501    0  0.00000000000E+00  0.00000000000E+00  0.12105567411E+04  0.12105567411E+04  0.50400000000E-02 0. -1.
         -1   -1    0    0    0  501 -0.00000000000E+00 -0.00000000000E+00 -0.12090431897E+03  0.12090431907E+03  0.50400000000E-02 0.  1.
    8880022    1    1    2    0    0  0.24626024906E+03  0.13284256690E+03  0.17700658116E+03  0.36471117427E+03  0.15294330000E+03 0.  0.
    8880022    1    1    2    0    0 -0.24626024906E+03 -0.13284256690E+03  0.91264584093E+03  0.96674988587E+03  0.15294330000E+03 0.  0.
<mgrwt>
<rscale>  0 0.31887758E+03</rscale>
<asrwt>0</asrwt>
<pdfrwt beam="1">  1        1 0.18623951E+00 0.31887758E+03</pdfrwt>
<pdfrwt beam="2">  1       -1 0.18600664E-01 0.31887758E+03</pdfrwt>
<totfact> 0.25554693E+02</totfact>
</mgrwt>
</event>
<event>
 4    1  0.1678003E-008  0.7584533E+03  0.7818608E-02  0.9622181E-01
         -1   -1    0    0    0  501 -0.00000000000E+00  0.00000000000E+00  0.61303004042E+03  0.61303004044E+03  0.50400000000E-02 0.  1.
          1   -1    0    0  501    0  0.00000000000E+00 -0.00000000000E+00 -0.11177094656E+04  0.11177094656E+04  0.50400000000E-02 0. -1.
    8880022    1    1    2    0    0 -0.10274155170E+03  0.73573357729E+03  0.94293751495E+02  0.76429227903E+03  0.15294330000E+03 0.  0.
    8880022    1    1    2    0    0  0.10274155170E+03 -0.73573357729E+03 -0.59897317666E+03  0.96644722700E+03  0.15294330000E+03 0.  0.
<mgrwt>
<rscale>  0 0.75845328E+03</rscale>
<asrwt>0</asrwt>
<pdfrwt beam="1">  1        1 0.17195530E+00 0.75845328E+03</pdfrwt>
<pdfrwt beam="2">  1       -1 0.94312314E-01 0.75845328E+03</pdfrwt>
<totfact> 0.13797230E+01</totfact>
</mgrwt>
</event>
<event>
 4    1  0.1678003E-008  0.5993470E+03  0.7818608E-02  0.9906762E-01
         -1   -1    0    0    0  501 -0.00000000000E+00  0.00000000000E+00  0.93371253672E+03  0.93371253673E+03  0.50400000000E-02 0.  1.
          1   -1    0    0  501    0  0.00000000000E+00 -0.00000000000E+00 -0.10741014988E+04  0.10741014988E+04  0.50400000000E-02 0. -1.
    8880022    1    1    2    0    0  0.43887549251E+03 -0.37843560682E+03  0.73407388571E+03  0.94767153019E+03  0.15294330000E+03 0.  0.
    8880022    1    1    2    0    0 -0.43887549251E+03  0.37843560682E+03 -0.87446284776E+03  0.10601425053E+04  0.15294330000E+03 0. -1.
<mgrwt>
<rscale>  0 0.59934703E+03</rscale>
<asrwt>0</asrwt>
<pdfrwt beam="1">  1        1 0.16524638E+00 0.59934703E+03</pdfrwt>
<pdfrwt beam="2">  1       -1 0.14364808E+00 0.59934703E+03</pdfrwt>
<totfact> 0.55296312E+00</totfact>
</mgrwt>
</event>
<event>
 4    1  0.1678003E-008  0.5116519E+03  0.7818608E-02  0.1010782E+00
          1   -1    0    0  501    0  0.00000000000E+00  0.00000000000E+00  0.42883153362E+03  0.42883153365E+03  0.50400000000E-02 0. -1.
         -1   -1    0    0    0  501 -0.00000000000E+00 -0.00000000000E+00 -0.10280489670E+04  0.10280489670E+04  0.50400000000E-02 0.  1.
    8880022    1    1    2    0    0 -0.30142825238E+02 -0.48732686524E+03  0.16464740552E+03  0.53749091588E+03  0.15294330000E+03 0.  0.
    8880022    1    1    2    0    0  0.30142825238E+02  0.48732686524E+03 -0.76386483893E+03  0.91938958481E+03  0.15294330000E+03 0.  0.
<mgrwt>
<rscale>  0 0.51165195E+03</rscale>
<asrwt>0</asrwt>
<pdfrwt beam="1">  1        1 0.65974083E-01 0.51165195E+03</pdfrwt>
<pdfrwt beam="2">  1       -1 0.15816138E+00 0.51165195E+03</pdfrwt>
<totfact> 0.17479820E+01</totfact>
</mgrwt>
</event>
<event>
 4    1  0.1678003E-008  0.6435945E+03  0.7818608E-02  0.9818873E-01
          1   -1    0    0  501    0  0.00000000000E+00  0.00000000000E+00  0.69509876827E+03  0.69509876829E+03  0.50400000000E-02 0. -1.
         -1   -1    0    0    0  501 -0.00000000000E+00 -0.00000000000E+00 -0.78230453547E+03  0.78230453549E+03  0.50400000000E-02 0.  1.
    8880022    1    1    2    0    0 -0.28102205170E+03  0.55843426051E+03  0.31697726948E+03  0.71741791115E+03  0.15294330000E+03 0.  0.
    8880022    1    1    2    0    0  0.28102205170E+03 -0.55843426051E+03 -0.40418303668E+03  0.75998539263E+03  0.15294330000E+03 0.  0.
<mgrwt>
<rscale>  0 0.64359449E+03</rscale>
<asrwt>0</asrwt>
<pdfrwt beam="1">  1        1 0.10693827E+00 0.64359449E+03</pdfrwt>
<pdfrwt beam="2">  1       -1 0.12035454E+00 0.64359449E+03</pdfrwt>
<totfact> 0.17625287E+01</totfact>
</mgrwt>
</event>
<event>
 4    1  0.1678003E-008  0.2955192E+03  0.7818608E-02  0.1087502E+00
          1   -1    0    0  501    0  0.00000000000E+00  0.00000000000E+00  0.60966602176E+03  0.60966602178E+03  0.50400000000E-02 0. -1.
         -1   -1    0    0    0  501 -0.00000000000E+00 -0.00000000000E+00 -0.25475471583E+03  0.25475471588E+03  0.50400000000E-02 0.  1.
    8880022    1    1    2    0    0  0.17321165335E+03  0.18422186943E+03 -0.10849451982E+03  0.31480579391E+03  0.15294330000E+03 0.  0.
    8880022    1    1    2    0    0 -0.17321165335E+03 -0.18422186943E+03  0.46340582576E+03  0.54961494375E+03  0.15294330000E+03 0.  0.
<mgrwt>
<rscale>  0 0.29551925E+03</rscale>
<asrwt>0</asrwt>
<pdfrwt beam="1">  1        1 0.93794772E-01 0.29551925E+03</pdfrwt>
<pdfrwt beam="2">  1       -1 0.39193034E-01 0.29551925E+03</pdfrwt>
<totfact> 0.22168033E+02</totfact>
</mgrwt>
</event>
<event>
 4    1  0.1678003E-008  0.8334322E+03  0.7818608E-02  0.9512847E-01
         -1   -1    0    0    0  501 -0.00000000000E+00  0.00000000000E+00  0.68615877057E+03  0.68615877059E+03  0.50400000000E-02 0.  1.
          1   -1    0    0  501    0  0.00000000000E+00 -0.00000000000E+00 -0.27715926439E+04  0.27715926439E+04  0.50400000000E-02 0. -1.
    8880022    1    1    2    0    0  0.77020477236E+03 -0.27928875330E+03 -0.24201363051E+04  0.25596228213E+04  0.15294330000E+03 0. -1.
    8880022    1    1    2    0    0 -0.77020477236E+03  0.27928875330E+03  0.33470243176E+03  0.89812859320E+03  0.15294330000E+03 0.  0.
<mgrwt>
<rscale>  0 0.83343221E+03</rscale>
<asrwt>0</asrwt>
<pdfrwt beam="1">  1        1 0.42639886E+00 0.83343221E+03</pdfrwt>
<pdfrwt beam="2">  1       -1 0.10556289E+00 0.83343221E+03</pdfrwt>
<totfact> 0.77485797E-01</totfact>
</mgrwt>
</event>
<event>
 4    1  0.1678003E-008  0.1618373E+03  0.7818608E-02  0.1186638E+00
         -1   -1    0    0    0  501 -0.00000000000E+00  0.00000000000E+00  0.59200886249E+02  0.59200886463E+02  0.50400000000E-02 0.  1.
          1   -1    0    0  501    0  0.00000000000E+00 -0.00000000000E+00 -0.66207783330E+03  0.66207783332E+03  0.50400000000E-02 0. -1.
    8880022    1    1    2    0    0  0.52001938851E+01  0.52655658985E+02 -0.50916773153E+03  0.53426874538E+03  0.15294330000E+03 0.  0.
    8880022    1    1    2    0    0 -0.52001938851E+01 -0.52655658985E+02 -0.93709215525E+02  0.18700997441E+03  0.15294330000E+03 0.  1.
<mgrwt>
<rscale>  0 0.16183731E+03</rscale>
<asrwt>0</asrwt>
<pdfrwt beam="1">  1        1 0.10185812E+00 0.16183731E+03</pdfrwt>
<pdfrwt beam="2">  1       -1 0.91078291E-02 0.16183731E+03</pdfrwt>
<totfact> 0.21305254E+03</totfact>
</mgrwt>
</event>
<event>
 4    1  0.1678003E-008  0.7307830E+03  0.7818608E-02  0.9665991E-01
          1   -1    0    0  501    0  0.00000000000E+00  0.00000000000E+00  0.23471955913E+04  0.23471955913E+04  0.50400000000E-02 0. -1.
         -1   -1    0    0    0  501 -0.00000000000E+00 -0.00000000000E+00 -0.53962261703E+03  0.53962261706E+03  0.50400000000E-02 0.  1.
    8880022    1    1    2    0    0 -0.44900527116E+03  0.55591940276E+03 -0.19392993209E+03  0.75607710418E+03  0.15294330000E+03 0.  0.
    8880022    1    1    2    0    0  0.44900527116E+03 -0.55591940276E+03  0.20015029064E+04  0.21307411042E+04  0.15294330000E+03 0.  0.
<mgrwt>
<rscale>  0 0.73078298E+03</rscale>
<asrwt>0</asrwt>
<pdfrwt beam="1">  1        1 0.36110701E+00 0.73078298E+03</pdfrwt>
<pdfrwt beam="2">  1       -1 0.83018866E-01 0.73078298E+03</pdfrwt>
<totfact> 0.26470001E+00</totfact>
</mgrwt>
</event>
<event>
 4    1  0.1678003E-008  0.7257125E+03  0.7818608E-02  0.9674243E-01
         -1   -1    0    0    0  501 -0.00000000000E+00  0.00000000000E+00  0.31973554090E+03  0.31973554094E+03  0.50400000000E-02 0.  1.
          1   -1    0    0  501    0  0.00000000000E+00 -0.00000000000E+00 -0.16772962329E+04  0.16772962329E+04  0.50400000000E-02 0. -1.
    8880022    1    1    2    0    0  0.69462969860E+03  0.14407133993E+03 -0.54495871695E+03  0.90754538474E+03  0.15294330000E+03 0.  0.
    8880022    1    1    2    0    0 -0.69462969860E+03 -0.14407133993E+03 -0.81260197503E+03  0.10894863891E+04  0.15294330000E+03 0.  0.
<mgrwt>
<rscale>  0 0.72571249E+03</rscale>
<asrwt>0</asrwt>
<pdfrwt beam="1">  1        1 0.25804557E+00 0.72571249E+03</pdfrwt>
<pdfrwt beam="2">  1       -1 0.49190084E-01 0.72571249E+03</pdfrwt>
<totfact> 0.21265219E+01</totfact>
</mgrwt>
</event>
<event>
 4    1  0.1678003E-008  0.5214063E+03  0.7818608E-02  0.1008338E+00
          1   -1    0    0  501    0  0.00000000000E+00  0.00000000000E+00  0.13315590118E+04  0.13315590118E+04  0.50400000000E-02 0. -1.
         -1   -1    0    0    0  501 -0.00000000000E+00 -0.00000000000E+00 -0.35800655544E+03  0.35800655548E+03  0.50400000000E-02 0.  1.
    8880022    1    1    2    0    0 -0.83621482137E+02  0.49140643839E+03 -0.66993541128E+02  0.52569252186E+03  0.15294330000E+03 0.  0.
    8880022    1    1    2    0    0  0.83621482137E+02 -0.49140643839E+03  0.10405459975E+04  0.11638730454E+04  0.15294330000E+03 0.  0.
<mgrwt>
<rscale>  0 0.52140626E+03</rscale>
<asrwt>0</asrwt>
<pdfrwt beam="1">  1        1 0.20485523E+00 0.52140626E+03</pdfrwt>
<pdfrwt beam="2">  1       -1 0.55077932E-01 0.52140626E+03</pdfrwt>
<totfact> 0.30459620E+01</totfact>
</mgrwt>
</event>
<event>
 4    1  0.1678003E-008  0.4947862E+03  0.7818608E-02  0.1015149E+00
         -1   -1    0    0    0  501 -0.00000000000E+00  0.00000000000E+00  0.10618774483E+04  0.10618774484E+04  0.50400000000E-02 0.  1.
          1   -1    0    0  501    0  0.00000000000E+00 -0.00000000000E+00 -0.24980242080E+03  0.24980242085E+03  0.50400000000E-02 0. -1.
    8880022    1    1    2    0    0  0.46500343036E+03 -0.72065999578E+02  0.22395480732E+03  0.54311058476E+03  0.15294330000E+03 0.  0.
    8880022    1    1    2    0    0 -0.46500343036E+03  0.72065999578E+02  0.58812022022E+03  0.76856928444E+03  0.15294330000E+03 0.  0.
<mgrwt>
<rscale>  0 0.49478617E+03</rscale>
<asrwt>0</asrwt>
<pdfrwt beam="1">  1        1 0.38431142E-01 0.49478617E+03</pdfrwt>
<pdfrwt beam="2">  1       -1 0.16336576E+00 0.49478617E+03</pdfrwt>
<totfact> 0.32255983E+01</totfact>
</mgrwt>
</event>
<event>
 4    1  0.1678003E-008  0.3793461E+03  0.7818608E-02  0.1051176E+00
          1   -1    0    0  501    0  0.00000000000E+00  0.00000000000E+00  0.71452284473E+03  0.71452284475E+03  0.50400000000E-02 0. -1.
         -1   -1    0    0    0  501 -0.00000000000E+00 -0.00000000000E+00 -0.25542580431E+03  0.25542580436E+03  0.50400000000E-02 0.  1.
    8880022    1    1    2    0    0 -0.20652089537E+03  0.27903572214E+03  0.65022085294E+01  0.37940182681E+03  0.15294330000E+03 0.  0.
    8880022    1    1    2    0    0  0.20652089537E+03 -0.27903572214E+03  0.45259483189E+03  0.59054682230E+03  0.15294330000E+03 0.  0.
<mgrwt>
<rscale>  0 0.37934611E+03</rscale>
<asrwt>0</asrwt>
<pdfrwt beam="1">  1        1 0.10992659E+00 0.37934611E+03</pdfrwt>
<pdfrwt beam="2">  1       -1 0.39296278E-01 0.37934611E+03</pdfrwt>
<totfact> 0.17367889E+02</totfact>
</mgrwt>
</event>
<event>
 4    1  0.1678003E-008  0.4517991E+03  0.7818608E-02  0.1027187E+00
         -1   -1    0    0    0  501 -0.00000000000E+00  0.00000000000E+00  0.52111170880E+03  0.52111170883E+03  0.50400000000E-02 0.  1.
          1   -1    0    0  501    0  0.00000000000E+00 -0.00000000000E+00 -0.83393387157E+03  0.83393387159E+03  0.50400000000E-02 0. -1.
    8880022    1    1    2    0    0 -0.81172157607E+02  0.41730306899E+03 -0.64979081606E+03  0.79142310315E+03  0.15294330000E+03 0.  0.
    8880022    1    1    2    0    0  0.81172157607E+02 -0.41730306899E+03  0.33696865329E+03  0.56362247726E+03  0.15294330000E+03 0.  1.
<mgrwt>
<rscale>  0 0.45179910E+03</rscale>
<asrwt>0</asrwt>
<pdfrwt beam="1">  1        1 0.12829752E+00 0.45179910E+03</pdfrwt>
<pdfrwt beam="2">  1       -1 0.80171032E-01 0.45179910E+03</pdfrwt>
<totfact> 0.34240232E+01</totfact>
</mgrwt>
</event>
<event>
 4    1  0.1678003E-008  0.6593704E+03  0.7818608E-02  0.9789353E-01
         -1   -1    0    0    0  501 -0.00000000000E+00  0.00000000000E+00  0.15468865280E+04  0.15468865280E+04  0.50400000000E-02 0.  1.
          1   -1    0    0  501    0  0.00000000000E+00 -0.00000000000E+00 -0.67152254838E+03  0.67152254840E+03  0.50400000000E-02 0. -1.
    8880022    1    1    2    0    0 -0.61893183143E+03  0.16822907888E+03  0.12834875599E+04  0.14429516986E+04  0.15294330000E+03 0.  0.
    8880022    1    1    2    0    0  0.61893183143E+03 -0.16822907888E+03 -0.40812358033E+03  0.77545737779E+03  0.15294330000E+03 0.  0.
<mgrwt>
<rscale>  0 0.65937037E+03</rscale>
<asrwt>0</asrwt>
<pdfrwt beam="1">  1        1 0.10331116E+00 0.65937037E+03</pdfrwt>
<pdfrwt beam="2">  1       -1 0.23798254E+00 0.65937037E+03</pdfrwt>
<totfact> 0.25713294E+00</totfact>
</mgrwt>
</event>
<event>
 4    1  0.1678003E-008  0.2407381E+03  0.7818608E-02  0.1119302E+00
          1   -1    0    0  501    0  0.00000000000E+00  0.00000000000E+00  0.45054152707E+03  0.45054152710E+03  0.50400000000E-02 0. -1.
         -1   -1    0    0    0  501 -0.00000000000E+00 -0.00000000000E+00 -0.15390663919E+03  0.15390663928E+03  0.50400000000E-02 0.  1.
    8880022    1    1    2    0    0 -0.18146783057E+03 -0.40405688045E+02  0.27078691390E+03  0.36232637071E+03  0.15294330000E+03 0.  0.
    8880022    1    1    2    0    0  0.18146783057E+03  0.40405688045E+02  0.25847973975E+02  0.24212179566E+03  0.15294330000E+03 0.  0.
<mgrwt>
<rscale>  0 0.24073813E+03</rscale>
<asrwt>0</asrwt>
<pdfrwt beam="1">  1        1 0.69314079E-01 0.24073813E+03</pdfrwt>
<pdfrwt beam="2">  1       -1 0.23677945E-01 0.24073813E+03</pdfrwt>
<totfact> 0.79333177E+02</totfact>
</mgrwt>
</event>
<event>
 4    1  0.1678003E-008  0.3434156E+03  0.7818608E-02  0.1065350E+00
          1   -1    0    0  501    0  0.00000000000E+00  0.00000000000E+00  0.18856829921E+04  0.18856829921E+04  0.50400000000E-02 0. -1.
         -1   -1    0    0    0  501 -0.00000000000E+00 -0.00000000000E+00 -0.11394425534E+03  0.11394425545E+03  0.50400000000E-02 0.  1.
    8880022    1    1    2    0    0 -0.30004043769E+03  0.67218685980E+02  0.15573974553E+04  0.15948106793E+04  0.15294330000E+03 0.  0.
    8880022    1    1    2    0    0  0.30004043769E+03 -0.67218685980E+02  0.21434128145E+03  0.40481656827E+03  0.15294330000E+03 0.  0.
<mgrwt>
<rscale>  0 0.34341559E+03</rscale>
<asrwt>0</asrwt>
<pdfrwt beam="1">  1        1 0.29010506E+00 0.34341559E+03</pdfrwt>
<pdfrwt beam="2">  1       -1 0.17529887E-01 0.34341559E+03</pdfrwt>
<totfact> 0.98943671E+01</totfact>
</mgrwt>
</event>
<event>
 4    1  0.1678003E-008  0.1015843E+04  0.7818608E-02  0.9291337E-01
         -1   -1    0    0    0  501 -0.00000000000E+00  0.00000000000E+00  0.11588196955E+04  0.11588196955E+04  0.50400000000E-02 0.  1.
          1   -1    0    0  501    0  0.00000000000E+00 -0.00000000000E+00 -0.13059895326E+04  0.13059895326E+04  0.50400000000E-02 0. -1.
    8880022    1    1    2    0    0  0.22784532019E+03 -0.97807599362E+03  0.62153465569E+03  0.11909001303E+04  0.15294330000E+03 0.  0.
    8880022    1    1    2    0    0 -0.22784532019E+03  0.97807599362E+03 -0.76870449276E+03  0.12739090978E+04  0.15294330000E+03 0.  0.
<mgrwt>
<rscale>  0 0.10158434E+04</rscale>
<asrwt>0</asrwt>
<pdfrwt beam="1">  1        1 0.20092147E+00 0.10158434E+04</pdfrwt>
<pdfrwt beam="2">  1       -1 0.17827995E+00 0.10158434E+04</pdfrwt>
<totfact> 0.19228942E+00</totfact>
</mgrwt>
</event>
<event>
 4    1  0.1678003E-008  0.4796094E+03  0.7818608E-02  0.1019243E+00
          1   -1    0    0  501    0  0.00000000000E+00  0.00000000000E+00  0.28606597610E+03  0.28606597614E+03  0.50400000000E-02 0. -1.
         -1   -1    0    0    0  501 -0.00000000000E+00 -0.00000000000E+00 -0.94808053569E+03  0.94808053570E+03  0.50400000000E-02 0.  1.
    8880022    1    1    2    0    0  0.12183089502E+03 -0.43793922990E+03 -0.57148145240E+03  0.74606718164E+03  0.15294330000E+03 0.  1.
    8880022    1    1    2    0    0 -0.12183089502E+03  0.43793922990E+03 -0.90533107186E+02  0.48807933021E+03  0.15294330000E+03 0. -1.
<mgrwt>
<rscale>  0 0.47960941E+03</rscale>
<asrwt>0</asrwt>
<pdfrwt beam="1">  1        1 0.44010151E-01 0.47960941E+03</pdfrwt>
<pdfrwt beam="2">  1       -1 0.14585854E+00 0.47960941E+03</pdfrwt>
<totfact> 0.36904105E+01</totfact>
</mgrwt>
</event>
<event>
 4    1  0.1678003E-008  0.1214847E+04  0.7818608E-02  0.9099960E-01
         -1   -1    0    0    0  501 -0.00000000000E+00  0.00000000000E+00  0.12285307829E+04  0.12285307829E+04  0.50400000000E-02 0.  1.
          1   -1    0    0  501    0  0.00000000000E+00 -0.00000000000E+00 -0.14905007009E+04  0.14905007009E+04  0.50400000000E-02 0. -1.
    8880022    1    1    2    0    0 -0.74556024700E+03 -0.94688989048E+03  0.46784940380E+03  0.13018199815E+04  0.15294330000E+03 0.  0.
    8880022    1    1    2    0    0  0.74556024700E+03  0.94688989048E+03 -0.72981932179E+03  0.14172115022E+04  0.15294330000E+03 0.  0.
<mgrwt>
<rscale>  0 0.12148466E+04</rscale>
<asrwt>0</asrwt>
<pdfrwt beam="1">  1        1 0.22930780E+00 0.12148466E+04</pdfrwt>
<pdfrwt beam="2">  1       -1 0.18900474E+00 0.12148466E+04</pdfrwt>
<totfact> 0.11666021E+00</totfact>
</mgrwt>
</event>
<event>
 4    1  0.1678003E-008  0.1766834E+04  0.7818608E-02  0.8724138E-01
          1   -1    0    0  501    0  0.00000000000E+00  0.00000000000E+00  0.21948949722E+04  0.21948949722E+04  0.50400000000E-02 0. -1.
         -1   -1    0    0    0  501 -0.00000000000E+00 -0.00000000000E+00 -0.15696688179E+04  0.15696688179E+04  0.50400000000E-02 0.  1.
    8880022    1    1    2    0    0 -0.13697121174E+04  0.11055310165E+04 -0.26421819273E+03  0.17864806239E+04  0.15294330000E+03 0.  0.
    8880022    1    1    2    0    0  0.13697121174E+04 -0.11055310165E+04  0.88944434703E+03  0.19780831662E+04  0.15294330000E+03 0.  0.
<mgrwt>
<rscale>  0 0.17668338E+04</rscale>
<asrwt>0</asrwt>
<pdfrwt beam="1">  1        1 0.33767615E+00 0.17668338E+04</pdfrwt>
<pdfrwt beam="2">  1       -1 0.24148751E+00 0.17668338E+04</pdfrwt>
<totfact> 0.15934010E-01</totfact>
</mgrwt>
</event>
<event>
 4    1  0.1678003E-008  0.5760680E+03  0.7818608E-02  0.9956340E-01
         -1   -1    0    0    0  501 -0.00000000000E+00  0.00000000000E+00  0.33271397407E+03  0.33271397411E+03  0.50400000000E-02 0.  1.
          1   -1    0    0  501    0  0.00000000000E+00 -0.00000000000E+00 -0.12711267952E+04  0.12711267952E+04  0.50400000000E-02 0. -1.
    8880022    1    1    2    0    0  0.38859548259E+03 -0.39680761928E+03 -0.84132590957E+03  0.10196487998E+04  0.15294330000E+03 0.  0.
    8880022    1    1    2    0    0 -0.38859548259E+03  0.39680761928E+03 -0.97086911516E+02  0.58419196948E+03  0.15294330000E+03 0.  0.
<mgrwt>
<rscale>  0 0.57606804E+03</rscale>
<asrwt>0</asrwt>
<pdfrwt beam="1">  1        1 0.19555797E+00 0.57606804E+03</pdfrwt>
<pdfrwt beam="2">  1       -1 0.51186766E-01 0.57606804E+03</pdfrwt>
<totfact> 0.38275391E+01</totfact>
</mgrwt>
</event>
<event>
 4    1  0.1678003E-008  0.2545606E+03  0.7818608E-02  0.1110456E+00
          1   -1    0    0  501    0  0.00000000000E+00  0.00000000000E+00  0.26005140117E+03  0.26005140122E+03  0.50400000000E-02 0. -1.
         -1   -1    0    0    0  501 -0.00000000000E+00 -0.00000000000E+00 -0.68382786403E+03  0.68382786405E+03  0.50400000000E-02 0.  1.
    8880022    1    1    2    0    0 -0.17211897071E+03  0.10855650689E+03 -0.58814034351E+03  0.64086673493E+03  0.15294330000E+03 0.  0.
    8880022    1    1    2    0    0  0.17211897071E+03 -0.10855650689E+03  0.16436388064E+03  0.30301253034E+03  0.15294330000E+03 0.  0.
<mgrwt>
<rscale>  0 0.25456062E+03</rscale>
<asrwt>0</asrwt>
<pdfrwt beam="1">  1        1 0.40007908E-01 0.25456062E+03</pdfrwt>
<pdfrwt beam="2">  1       -1 0.10520429E+00 0.25456062E+03</pdfrwt>
<totfact> 0.95560259E+01</totfact>
</mgrwt>
</event>
<event>
 4    1  0.1678003E-008  0.5490238E+03  0.7818608E-02  0.1001720E+00
          1   -1    0    0  501    0  0.00000000000E+00  0.00000000000E+00  0.24332042414E+04  0.24332042414E+04  0.50400000000E-02 0. -1.
         -1   -1    0    0    0  501 -0.00000000000E+00 -0.00000000000E+00 -0.19349494147E+03  0.19349494154E+03  0.50400000000E-02 0.  1.
    8880022    1    1    2    0    0  0.38052265371E+03  0.36501778349E+03  0.33209364331E+03  0.64164890181E+03  0.15294330000E+03 0.  0.
    8880022    1    1    2    0    0 -0.38052265371E+03 -0.36501778349E+03  0.19076156566E+04  0.19850502812E+04  0.15294330000E+03 0.  0.
<mgrwt>
<rscale>  0 0.54902379E+03</rscale>
<asrwt>0</asrwt>
<pdfrwt beam="1">  1        1 0.37433911E+00 0.54902379E+03</pdfrwt>
<pdfrwt beam="2">  1       -1 0.29768453E-01 0.54902379E+03</pdfrwt>
<totfact> 0.16932671E+01</totfact>
</mgrwt>
</event>
<event>
 4    1  0.1678003E-008  0.6593433E+03  0.7818608E-02  0.9789403E-01
         -1   -1    0    0    0  501 -0.00000000000E+00  0.00000000000E+00  0.43123029793E+03  0.43123029796E+03  0.50400000000E-02 0.  1.
          1   -1    0    0  501    0  0.00000000000E+00 -0.00000000000E+00 -0.19067323432E+04  0.19067323432E+04  0.50400000000E-02 0. -1.
    8880022    1    1    2    0    0  0.30769334590E+03 -0.56273144979E+03  0.64754395081E+02  0.66251540691E+03  0.15294330000E+03 0.  0.
    8880022    1    1    2    0    0 -0.30769334590E+03  0.56273144979E+03 -0.15402564403E+04  0.16754472342E+04  0.15294330000E+03 0.  0.
<mgrwt>
<rscale>  0 0.65934326E+03</rscale>
<asrwt>0</asrwt>
<pdfrwt beam="1">  1        1 0.29334343E+00 0.65934326E+03</pdfrwt>
<pdfrwt beam="2">  1       -1 0.66343124E-01 0.65934326E+03</pdfrwt>
<totfact> 0.84298129E+00</totfact>
</mgrwt>
</event>
<event>
 4    1  0.1678003E-008  0.3603611E+03  0.7818608E-02  0.1058441E+00
         -1   -1    0    0    0  501 -0.00000000000E+00  0.00000000000E+00  0.11751225374E+03  0.11751225385E+03  0.50400000000E-02 0.  1.
          1   -1    0    0  501    0  0.00000000000E+00 -0.00000000000E+00 -0.25899453215E+04  0.25899453215E+04  0.50400000000E-02 0. -1.
    8880022    1    1    2    0    0  0.97989323503E+02  0.31123390151E+03 -0.22612317714E+04  0.22897661946E+04  0.15294330000E+03 0.  0.
    8880022    1    1    2    0    0 -0.97989323503E+02 -0.31123390151E+03 -0.21120129642E+03  0.41769138080E+03  0.15294330000E+03 0.  0.
<mgrwt>
<rscale>  0 0.36036107E+03</rscale>
<asrwt>0</asrwt>
<pdfrwt beam="1">  1        1 0.39845309E+00 0.36036107E+03</pdfrwt>
<pdfrwt beam="2">  1       -1 0.18078810E-01 0.36036107E+03</pdfrwt>
<totfact> 0.32072701E+01</totfact>
</mgrwt>
</event>
<event>
 4    1  0.1988355E-008  0.6934964E+03  0.7818608E-02  0.9728419E-01
         -1   -1    0    0    0  501 -0.00000000000E+00  0.00000000000E+00  0.81972707563E+03  0.81972707564E+03  0.50400000000E-02 0.  1.
          1   -1    0    0  501    0  0.00000000000E+00 -0.00000000000E+00 -0.22857269362E+04  0.22857269362E+04  0.50400000000E-02 0. -1.
    8880022    1    1    2    0    0  0.67631578561E+03  0.11939450053E+02 -0.20716977007E+04  0.21846895909E+04  0.15294330000E+03 0.  0.
    8880022    1    1    2    0    0 -0.67631578561E+03 -0.11939450053E+02  0.60569784015E+03  0.92076442096E+03  0.15294330000E+03 0.  0.
<mgrwt>
<rscale>  0 0.69349639E+03</rscale>
<asrwt>0</asrwt>
<pdfrwt beam="1">  1        1 0.35165029E+00 0.69349639E+03</pdfrwt>
<pdfrwt beam="2">  1       -1 0.12611186E+00 0.69349639E+03</pdfrwt>
<totfact> 0.11217017E+00</totfact>
</mgrwt>
</event>
<event>
 4    1  0.1678003E-008  0.7577528E+03  0.7818608E-02  0.9623265E-01
         -1   -1    0    0    0  501 -0.00000000000E+00  0.00000000000E+00  0.43352413392E+03  0.43352413395E+03  0.50400000000E-02 0.  1.
          1   -1    0    0  501    0  0.00000000000E+00 -0.00000000000E+00 -0.14211335585E+04  0.14211335585E+04  0.50400000000E-02 0. -1.
    8880022    1    1    2    0    0  0.65800909986E+03  0.34325160349E+03 -0.73565682004E+03  0.10561156417E+04  0.15294330000E+03 0.  0.
    8880022    1    1    2    0    0 -0.65800909986E+03 -0.34325160349E+03 -0.25195260450E+03  0.79854205069E+03  0.15294330000E+03 0.  0.
<mgrwt>
<rscale>  0 0.75775279E+03</rscale>
<asrwt>0</asrwt>
<pdfrwt beam="1">  1        1 0.21863593E+00 0.75775279E+03</pdfrwt>
<pdfrwt beam="2">  1       -1 0.66696021E-01 0.75775279E+03</pdfrwt>
<totfact> 0.17475149E+01</totfact>
</mgrwt>
</event>
<event>
 4    1  0.1678003E-008  0.1745761E+03  0.7818608E-02  0.1173158E+00
         -1   -1    0    0    0  501 -0.00000000000E+00  0.00000000000E+00  0.83366230594E+02  0.83366230747E+02  0.50400000000E-02 0.  1.
          1   -1    0    0  501    0  0.00000000000E+00 -0.00000000000E+00 -0.14567381401E+04  0.14567381401E+04  0.50400000000E-02 0. -1.
    8880022    1    1    2    0    0  0.66030880366E+02 -0.52202282822E+02 -0.13531454829E+04  0.13643604752E+04  0.15294330000E+03 0.  0.
    8880022    1    1    2    0    0 -0.66030880366E+02  0.52202282822E+02 -0.20226426594E+02  0.17574389560E+03  0.15294330000E+03 0.  1.
<mgrwt>
<rscale>  0 0.17457608E+03</rscale>
<asrwt>0</asrwt>
<pdfrwt beam="1">  1        1 0.22411354E+00 0.17457608E+03</pdfrwt>
<pdfrwt beam="2">  1       -1 0.12825575E-01 0.17457608E+03</pdfrwt>
<totfact> 0.32271377E+02</totfact>
</mgrwt>
</event>
<event>
 4    1  0.1678003E-008  0.7263173E+03  0.7818608E-02  0.9673255E-01
         -1   -1    0    0    0  501 -0.00000000000E+00  0.00000000000E+00  0.75772866535E+03  0.75772866537E+03  0.50400000000E-02 0.  1.
          1   -1    0    0  501    0  0.00000000000E+00 -0.00000000000E+00 -0.10643108400E+04  0.10643108400E+04  0.50400000000E-02 0. -1.
    8880022    1    1    2    0    0  0.30079115554E+03 -0.64317166043E+03  0.38247859691E+03  0.82086943794E+03  0.15294330000E+03 0.  0.
    8880022    1    1    2    0    0 -0.30079115554E+03  0.64317166043E+03 -0.68906077154E+03  0.10011700674E+04  0.15294330000E+03 0.  0.
<mgrwt>
<rscale>  0 0.72631726E+03</rscale>
<asrwt>0</asrwt>
<pdfrwt beam="1">  1        1 0.16374013E+00 0.72631726E+03</pdfrwt>
<pdfrwt beam="2">  1       -1 0.11657364E+00 0.72631726E+03</pdfrwt>
<totfact> 0.92967826E+00</totfact>
</mgrwt>
</event>
<event>
 4    1  0.1678003E-008  0.4212769E+03  0.7818608E-02  0.1036652E+00
         -1   -1    0    0    0  501 -0.00000000000E+00  0.00000000000E+00  0.14481432494E+03  0.14481432503E+03  0.50400000000E-02 0.  1.
          1   -1    0    0  501    0  0.00000000000E+00 -0.00000000000E+00 -0.23118559071E+04  0.23118559071E+04  0.50400000000E-02 0. -1.
    8880022    1    1    2    0    0 -0.16930732653E+03 -0.35414348982E+03 -0.19255296180E+04  0.19710754792E+04  0.15294330000E+03 0.  0.
    8880022    1    1    2    0    0  0.16930732653E+03  0.35414348982E+03 -0.24151196424E+03  0.48559475295E+03  0.15294330000E+03 0.  1.
<mgrwt>
<rscale>  0 0.42127691E+03</rscale>
<asrwt>0</asrwt>
<pdfrwt beam="1">  1        1 0.35567011E+00 0.42127691E+03</pdfrwt>
<pdfrwt beam="2">  1       -1 0.22279129E-01 0.42127691E+03</pdfrwt>
<totfact> 0.34353848E+01</totfact>
</mgrwt>
</event>
<event>
 4    1  0.1678003E-008  0.3074024E+03  0.7818608E-02  0.1081598E+00
         -1   -1    0    0    0  501 -0.00000000000E+00  0.00000000000E+00  0.19356946294E+03  0.19356946301E+03  0.50400000000E-02 0.  1.
          1   -1    0    0  501    0  0.00000000000E+00 -0.00000000000E+00 -0.20806773924E+04  0.20806773924E+04  0.50400000000E-02 0. -1.
    8880022    1    1    2    0    0 -0.19365916400E+03  0.18330498881E+03 -0.19383749728E+04  0.19625987310E+04  0.15294330000E+03 0.  0.
    8880022    1    1    2    0    0  0.19365916400E+03 -0.18330498881E+03  0.51267043318E+02  0.31164812444E+03  0.15294330000E+03 0.  1.
<mgrwt>
<rscale>  0 0.30740241E+03</rscale>
<asrwt>0</asrwt>
<pdfrwt beam="1">  1        1 0.32010420E+00 0.30740241E+03</pdfrwt>
<pdfrwt beam="2">  1       -1 0.29779919E-01 0.30740241E+03</pdfrwt>
<totfact> 0.30881249E+01</totfact>
</mgrwt>
</event>
<event>
 4    1  0.1678003E-008  0.6857525E+03  0.7818608E-02  0.9741912E-01
         -1   -1    0    0    0  501 -0.00000000000E+00  0.00000000000E+00  0.13627018018E+04  0.13627018018E+04  0.50400000000E-02 0.  1.
          1   -1    0    0  501    0  0.00000000000E+00 -0.00000000000E+00 -0.46945917254E+03  0.46945917257E+03  0.50400000000E-02 0. -1.
    8880022    1    1    2    0    0 -0.66309767339E+03  0.84653690108E+02 -0.24886574689E+02  0.68620388101E+03  0.15294330000E+03 0.  0.
    8880022    1    1    2    0    0  0.66309767339E+03 -0.84653690108E+02  0.91812920396E+03  0.11459570934E+04  0.15294330000E+03 0.  0.
<mgrwt>
<rscale>  0 0.68575245E+03</rscale>
<asrwt>0</asrwt>
<pdfrwt beam="1">  1        1 0.72224489E-01 0.68575245E+03</pdfrwt>
<pdfrwt beam="2">  1       -1 0.20964643E+00 0.68575245E+03</pdfrwt>
<totfact> 0.65255110E+00</totfact>
</mgrwt>
</event>
<event>
 4    1  0.1678003E-008  0.1209343E+04  0.7818608E-02  0.9104717E-01
          1   -1    0    0  501    0  0.00000000000E+00  0.00000000000E+00  0.22769496568E+04  0.22769496568E+04  0.50400000000E-02 0. -1.
         -1   -1    0    0    0  501 -0.00000000000E+00 -0.00000000000E+00 -0.12225332662E+04  0.12225332662E+04  0.50400000000E-02 0.  1.
    8880022    1    1    2    0    0  0.99889605170E+03 -0.66432383269E+03  0.17326340961E+04  0.21129439275E+04  0.15294330000E+03 0.  0.
    8880022    1    1    2    0    0 -0.99889605170E+03  0.66432383269E+03 -0.67821770560E+03  0.13865389955E+04  0.15294330000E+03 0.  0.
<mgrwt>
<rscale>  0 0.12093433E+04</rscale>
<asrwt>0</asrwt>
<pdfrwt beam="1">  1        1 0.35029994E+00 0.12093433E+04</pdfrwt>
<pdfrwt beam="2">  1       -1 0.18808204E+00 0.12093433E+04</pdfrwt>
<totfact> 0.34561359E-01</totfact>
</mgrwt>
</event>
<event>
 4    1  0.1678003E-008  0.5048375E+03  0.7818608E-02  0.1012524E+00
         -1   -1    0    0    0  501 -0.00000000000E+00  0.00000000000E+00  0.18725423776E+04  0.18725423776E+04  0.50400000000E-02 0.  1.
          1   -1    0    0  501    0  0.00000000000E+00 -0.00000000000E+00 -0.42117119396E+03  0.42117119399E+03  0.50400000000E-02 0. -1.
    8880022    1    1    2    0    0  0.47115774598E+03 -0.97363524735E+02  0.16692103641E+04  0.17438819255E+04  0.15294330000E+03 0.  0.
    8880022    1    1    2    0    0 -0.47115774598E+03  0.97363524735E+02 -0.21783918040E+03  0.54983164612E+03  0.15294330000E+03 0. -1.
<mgrwt>
<rscale>  0 0.50483753E+03</rscale>
<asrwt>0</asrwt>
<pdfrwt beam="1">  1        1 0.64795568E-01 0.50483753E+03</pdfrwt>
<pdfrwt beam="2">  1       -1 0.28808344E+00 0.50483753E+03</pdfrwt>
<totfact> 0.24336700E+00</totfact>
</mgrwt>
</event>
<event>
 4    1  0.1678003E-008  0.2735171E+03  0.7818608E-02  0.1099283E+00
          1   -1    0    0  501    0  0.00000000000E+00  0.00000000000E+00  0.68661516600E+03  0.68661516602E+03  0.50400000000E-02 0. -1.
         -1   -1    0    0    0  501 -0.00000000000E+00 -0.00000000000E+00 -0.11810946380E+04  0.11810946381E+04  0.50400000000E-02 0.  1.
    8880022    1    1    2    0    0  0.22673805328E+03 -0.31293505762E+01  0.64249860713E+03  0.69829510296E+03  0.15294330000E+03 0.  0.
    8880022    1    1    2    0    0 -0.22673805328E+03  0.31293505762E+01 -0.11369780792E+04  0.11694147011E+04  0.15294330000E+03 0.  1.
<mgrwt>
<rscale>  0 0.27351708E+03</rscale>
<asrwt>0</asrwt>
<pdfrwt beam="1">  1        1 0.10563310E+00 0.27351708E+03</pdfrwt>
<pdfrwt beam="2">  1       -1 0.18170687E+00 0.27351708E+03</pdfrwt>
<totfact> 0.65639340E+00</totfact>
</mgrwt>
</event>
<event>
 4    1  0.1678003E-008  0.4535705E+03  0.7818608E-02  0.1026663E+00
         -1   -1    0    0    0  501 -0.00000000000E+00  0.00000000000E+00  0.82080990635E+03  0.82080990636E+03  0.50400000000E-02 0.  1.
          1   -1    0    0  501    0  0.00000000000E+00 -0.00000000000E+00 -0.83778158455E+03  0.83778158456E+03  0.50400000000E-02 0. -1.
    8880022    1    1    2    0    0  0.13254486726E+03  0.40591425343E+03 -0.70273630865E+03  0.83639972232E+03  0.15294330000E+03 0.  0.
    8880022    1    1    2    0    0 -0.13254486726E+03 -0.40591425343E+03  0.68576463045E+03  0.82219176861E+03  0.15294330000E+03 0.  0.
<mgrwt>
<rscale>  0 0.45357048E+03</rscale>
<asrwt>0</asrwt>
<pdfrwt beam="1">  1        1 0.12888947E+00 0.45357048E+03</pdfrwt>
<pdfrwt beam="2">  1       -1 0.12627845E+00 0.45357048E+03</pdfrwt>
<totfact> 0.12120978E+01</totfact>
</mgrwt>
</event>
<event>
 4    1  0.1678003E-008  0.2384627E+03  0.7818608E-02  0.1120821E+00
          1   -1    0    0  501    0  0.00000000000E+00  0.00000000000E+00  0.41790766694E+03  0.41790766697E+03  0.50400000000E-02 0. -1.
         -1   -1    0    0    0  501 -0.00000000000E+00 -0.00000000000E+00 -0.31518894677E+03  0.31518894681E+03  0.50400000000E-02 0.  1.
    8880022    1    1    2    0    0  0.13200961808E+03 -0.12667379151E+03  0.32768248400E+03  0.40526565616E+03  0.15294330000E+03 0. -1.
    8880022    1    1    2    0    0 -0.13200961808E+03  0.12667379151E+03 -0.22496376384E+03  0.32783095762E+03  0.15294330000E+03 0.  0.
<mgrwt>
<rscale>  0 0.23846266E+03</rscale>
<asrwt>0</asrwt>
<pdfrwt beam="1">  1        1 0.64293487E-01 0.23846266E+03</pdfrwt>
<pdfrwt beam="2">  1       -1 0.48490607E-01 0.23846266E+03</pdfrwt>
<totfact> 0.25187880E+02</totfact>
</mgrwt>
</event>
<event>
 4    1  0.1678003E-008  0.4012016E+03  0.7818608E-02  0.1043364E+00
          1   -1    0    0  501    0  0.00000000000E+00  0.00000000000E+00  0.96873497688E+03  0.96873497689E+03  0.50400000000E-02 0. -1.
         -1   -1    0    0    0  501 -0.00000000000E+00 -0.00000000000E+00 -0.13312113576E+04  0.13312113576E+04  0.50400000000E-02 0.  1.
    8880022    1    1    2    0    0  0.34813622184E+03  0.12795399909E+03  0.89457577254E+03  0.98042262350E+03  0.15294330000E+03 0.  0.
    8880022    1    1    2    0    0 -0.34813622184E+03 -0.12795399909E+03 -0.12570521533E+04  0.13195237110E+04  0.15294330000E+03 0.  0.
<mgrwt>
<rscale>  0 0.40120158E+03</rscale>
<asrwt>0</asrwt>
<pdfrwt beam="1">  1        1 0.14903615E+00 0.40120158E+03</pdfrwt>
<pdfrwt beam="2">  1       -1 0.20480175E+00 0.40120158E+03</pdfrwt>
<totfact> 0.25326595E+00</totfact>
</mgrwt>
</event>
<event>
 4    1  0.1678003E-008  0.3740882E+03  0.7818608E-02  0.1053141E+00
          1   -1    0    0  501    0  0.00000000000E+00  0.00000000000E+00  0.21854805058E+04  0.21854805058E+04  0.50400000000E-02 0. -1.
         -1   -1    0    0    0  501 -0.00000000000E+00 -0.00000000000E+00 -0.82912055008E+02  0.82912055161E+02  0.50400000000E-02 0.  1.
    8880022    1    1    2    0    0 -0.23134833939E+03 -0.25105428057E+03  0.15925048241E+04  0.16358525526E+04  0.15294330000E+03 0.  0.
    8880022    1    1    2    0    0  0.23134833939E+03  0.25105428057E+03  0.51006362665E+03  0.63254000836E+03  0.15294330000E+03 0.  0.
<mgrwt>
<rscale>  0 0.37408817E+03</rscale>
<asrwt>0</asrwt>
<pdfrwt beam="1">  1        1 0.33622778E+00 0.37408817E+03</pdfrwt>
<pdfrwt beam="2">  1       -1 0.12755700E-01 0.37408817E+03</pdfrwt>
<totfact> 0.10405631E+02</totfact>
</mgrwt>
</event>
<event>
 4    1  0.1678003E-008  0.1068305E+04  0.7818608E-02  0.9236647E-01
         -1   -1    0    0    0  501 -0.00000000000E+00  0.00000000000E+00  0.13169176619E+04  0.13169176620E+04  0.50400000000E-02 0.  1.
          1   -1    0    0  501    0  0.00000000000E+00 -0.00000000000E+00 -0.13255826809E+04  0.13255826809E+04  0.50400000000E-02 0. -1.
    8880022    1    1    2    0    0  0.75042290467E+02  0.10546333689E+04 -0.78177395596E+03  0.13237994785E+04  0.15294330000E+03 0.  0.
    8880022    1    1    2    0    0 -0.75042290467E+02 -0.10546333689E+04  0.77310893701E+03  0.13187008643E+04  0.15294330000E+03 0.  0.
<mgrwt>
<rscale>  0 0.10683045E+04</rscale>
<asrwt>0</asrwt>
<pdfrwt beam="1">  1        1 0.20393580E+00 0.10683045E+04</pdfrwt>
<pdfrwt beam="2">  1       -1 0.20260272E+00 0.10683045E+04</pdfrwt>
<totfact> 0.12480374E+00</totfact>
</mgrwt>
</event>
<event>
 4    1  0.1678003E-008  0.5242022E+03  0.7818608E-02  0.1007648E+00
         -1   -1    0    0    0  501 -0.00000000000E+00  0.00000000000E+00  0.38099290567E+03  0.38099290570E+03  0.50400000000E-02 0.  1.
          1   -1    0    0  501    0  0.00000000000E+00 -0.00000000000E+00 -0.13225033123E+04  0.13225033123E+04  0.50400000000E-02 0. -1.
    8880022    1    1    2    0    0  0.21064735868E+03  0.45499883308E+03  0.10355244349E+03  0.53433230241E+03  0.15294330000E+03 0.  0.
    8880022    1    1    2    0    0 -0.21064735868E+03 -0.45499883308E+03 -0.10450628501E+04  0.11691639156E+04  0.15294330000E+03 0. -1.
<mgrwt>
<rscale>  0 0.52420216E+03</rscale>
<asrwt>0</asrwt>
<pdfrwt beam="1">  1        1 0.20346205E+00 0.52420216E+03</pdfrwt>
<pdfrwt beam="2">  1       -1 0.58614294E-01 0.52420216E+03</pdfrwt>
<totfact> 0.27389803E+01</totfact>
</mgrwt>
</event>
<event>
 4    1  0.1678003E-008  0.3926457E+03  0.7818608E-02  0.1046356E+00
         -1   -1    0    0    0  501 -0.00000000000E+00  0.00000000000E+00  0.99298195932E+03  0.99298195933E+03  0.50400000000E-02 0.  1.
          1   -1    0    0  501    0  0.00000000000E+00 -0.00000000000E+00 -0.85198246799E+03  0.85198246800E+03  0.50400000000E-02 0. -1.
    8880022    1    1    2    0    0  0.34633387921E+03  0.10407617103E+03 -0.76370468589E+03  0.85872900587E+03  0.15294330000E+03 0. -1.
    8880022    1    1    2    0    0 -0.34633387921E+03 -0.10407617103E+03  0.90470417722E+03  0.98623542146E+03  0.15294330000E+03 0.  0.
<mgrwt>
<rscale>  0 0.39264572E+03</rscale>
<asrwt>0</asrwt>
<pdfrwt beam="1">  1        1 0.13107423E+00 0.39264572E+03</pdfrwt>
<pdfrwt beam="2">  1       -1 0.15276645E+00 0.39264572E+03</pdfrwt>
<totfact> 0.73514817E+00</totfact>
</mgrwt>
</event>
<event>
 4    1  0.1678003E-008  0.1886816E+03  0.7818608E-02  0.1159656E+00
          1   -1    0    0  501    0  0.00000000000E+00  0.00000000000E+00  0.97169583837E+03  0.97169583839E+03  0.50400000000E-02 0. -1.
         -1   -1    0    0    0  501 -0.00000000000E+00 -0.00000000000E+00 -0.12380205686E+03  0.12380205697E+03  0.50400000000E-02 0.  1.
    8880022    1    1    2    0    0 -0.42672305581E+02  0.10192232142E+03 -0.35660485759E+02  0.19202189596E+03  0.15294330000E+03 0.  0.
    8880022    1    1    2    0    0  0.42672305581E+02 -0.10192232142E+03  0.88355426727E+03  0.90347599940E+03  0.15294330000E+03 0.  0.
<mgrwt>
<rscale>  0 0.18868158E+03</rscale>
<asrwt>0</asrwt>
<pdfrwt beam="1">  1        1 0.14949167E+00 0.18868158E+03</pdfrwt>
<pdfrwt beam="2">  1       -1 0.19046471E-01 0.18868158E+03</pdfrwt>
<totfact> 0.37336263E+02</totfact>
</mgrwt>
</event>
<event>
 4    1  0.1678003E-008  0.4223244E+03  0.7818608E-02  0.1036312E+00
          1   -1    0    0  501    0  0.00000000000E+00  0.00000000000E+00  0.90700999599E+03  0.90700999601E+03  0.50400000000E-02 0. -1.
         -1   -1    0    0    0  501 -0.00000000000E+00 -0.00000000000E+00 -0.39707255655E+03  0.39707255658E+03  0.50400000000E-02 0.  1.
    8880022    1    1    2    0    0 -0.22077600270E+03  0.32592057316E+03 -0.20828630652E+03  0.47089393909E+03  0.15294330000E+03 0.  0.
    8880022    1    1    2    0    0  0.22077600270E+03 -0.32592057316E+03  0.71822374596E+03  0.83318861349E+03  0.15294330000E+03 0. -1.
<mgrwt>
<rscale>  0 0.42232442E+03</rscale>
<asrwt>0</asrwt>
<pdfrwt beam="1">  1        1 0.13954000E+00 0.42232442E+03</pdfrwt>
<pdfrwt beam="2">  1       -1 0.61088086E-01 0.42232442E+03</pdfrwt>
<totfact> 0.52058796E+01</totfact>
</mgrwt>
</event>
<event>
 4    1  0.1678003E-008  0.9311787E+03  0.7818608E-02  0.9387424E-01
         -1   -1    0    0    0  501 -0.00000000000E+00  0.00000000000E+00  0.30203804985E+04  0.30203804985E+04  0.50400000000E-02 0.  1.
          1   -1    0    0  501    0  0.00000000000E+00 -0.00000000000E+00 -0.48911142271E+03  0.48911142273E+03  0.50400000000E-02 0. -1.
    8880022    1    1    2    0    0 -0.86924981593E+03 -0.29682801885E+03  0.13786914020E+03  0.94132973399E+03  0.15294330000E+03 0.  0.
    8880022    1    1    2    0    0  0.86924981593E+03  0.29682801885E+03  0.23933999356E+04  0.25681621872E+04  0.15294330000E+03 0.  0.
<mgrwt>
<rscale>  0 0.93117870E+03</rscale>
<asrwt>0</asrwt>
<pdfrwt beam="1">  1        1 0.75247913E-01 0.93117870E+03</pdfrwt>
<pdfrwt beam="2">  1       -1 0.46467391E+00 0.93117870E+03</pdfrwt>
<totfact> 0.12166320E-01</totfact>
</mgrwt>
</event>
<event>
 4    1  0.1678003E-008  0.4812357E+03  0.7818608E-02  0.1018796E+00
          1   -1    0    0  501    0  0.00000000000E+00  0.00000000000E+00  0.94707852252E+03  0.94707852253E+03  0.50400000000E-02 0. -1.
         -1   -1    0    0    0  501 -0.00000000000E+00 -0.00000000000E+00 -0.13327378815E+04  0.13327378815E+04  0.50400000000E-02 0.  1.
    8880022    1    1    2    0    0 -0.45430671938E+03 -0.42444202318E+02 -0.12228688156E+04  0.13141521597E+04  0.15294330000E+03 0.  0.
    8880022    1    1    2    0    0  0.45430671938E+03  0.42444202318E+02  0.83720945662E+03  0.96566424437E+03  0.15294330000E+03 0.  0.
<mgrwt>
<rscale>  0 0.48123566E+03</rscale>
<asrwt>0</asrwt>
<pdfrwt beam="1">  1        1 0.14570439E+00 0.48123566E+03</pdfrwt>
<pdfrwt beam="2">  1       -1 0.20503660E+00 0.48123566E+03</pdfrwt>
<totfact> 0.25596089E+00</totfact>
</mgrwt>
</event>
<event>
 4    1  0.1678003E-008  0.3721513E+03  0.7818608E-02  0.1053873E+00
          1   -1    0    0  501    0  0.00000000000E+00  0.00000000000E+00  0.10646531180E+04  0.10646531180E+04  0.50400000000E-02 0. -1.
         -1   -1    0    0    0  501 -0.00000000000E+00 -0.00000000000E+00 -0.41678041563E+03  0.41678041566E+03  0.50400000000E-02 0.  1.
    8880022    1    1    2    0    0  0.25736123097E+03  0.22106584386E+03  0.93827532903E+03  0.10093845435E+04  0.15294330000E+03 0.  0.
    8880022    1    1    2    0    0 -0.25736123097E+03 -0.22106584386E+03 -0.29040262667E+03  0.47204899017E+03  0.15294330000E+03 0.  1.
<mgrwt>
<rscale>  0 0.37215126E+03</rscale>
<asrwt>0</asrwt>
<pdfrwt beam="1">  1        1 0.16379279E+00 0.37215126E+03</pdfrwt>
<pdfrwt beam="2">  1       -1 0.64120063E-01 0.37215126E+03</pdfrwt>
<totfact> 0.36196033E+01</totfact>
</mgrwt>
</event>
<event>
 4    1  0.1678003E-008  0.1203130E+04  0.7818608E-02  0.9110122E-01
          1   -1    0    0  501    0  0.00000000000E+00  0.00000000000E+00  0.17688051616E+04  0.17688051616E+04  0.50400000000E-02 0. -1.
         -1   -1    0    0    0  501 -0.00000000000E+00 -0.00000000000E+00 -0.10898611473E+04  0.10898611473E+04  0.50400000000E-02 0.  1.
    8880022    1    1    2    0    0  0.95785206911E+03 -0.71179256804E+03 -0.37392787852E+03  0.12598979949E+04  0.15294330000E+03 0.  0.
    8880022    1    1    2    0    0 -0.95785206911E+03  0.71179256804E+03  0.10528718928E+04  0.15987683140E+04  0.15294330000E+03 0.  0.
<mgrwt>
<rscale>  0 0.12031296E+04</rscale>
<asrwt>0</asrwt>
<pdfrwt beam="1">  1        1 0.27212387E+00 0.12031296E+04</pdfrwt>
<pdfrwt beam="2">  1       -1 0.16767095E+00 0.12031296E+04</pdfrwt>
<totfact> 0.10740113E+00</totfact>
</mgrwt>
</event>
<event>
 4    1  0.1678003E-008  0.5583646E+03  0.7818608E-02  0.9995762E-01
         -1   -1    0    0    0  501 -0.00000000000E+00  0.00000000000E+00  0.33895932261E+03  0.33895932265E+03  0.50400000000E-02 0.  1.
          1   -1    0    0  501    0  0.00000000000E+00 -0.00000000000E+00 -0.10544564471E+04  0.10544564472E+04  0.50400000000E-02 0. -1.
    8880022    1    1    2    0    0 -0.20036073225E+03 -0.49823183139E+03 -0.10876663554E+03  0.56885957394E+03  0.15294330000E+03 0.  0.
    8880022    1    1    2    0    0  0.20036073225E+03  0.49823183139E+03 -0.60673048900E+03  0.82455619586E+03  0.15294330000E+03 0.  0.
<mgrwt>
<rscale>  0 0.55836461E+03</rscale>
<asrwt>0</asrwt>
<pdfrwt beam="1">  1        1 0.16222407E+00 0.55836461E+03</pdfrwt>
<pdfrwt beam="2">  1       -1 0.52147588E-01 0.55836461E+03</pdfrwt>
<totfact> 0.53227647E+01</totfact>
</mgrwt>
</event>
<event>
 4    1  0.1678003E-008  0.2740211E+03  0.7818608E-02  0.1099000E+00
          1   -1    0    0  501    0  0.00000000000E+00  0.00000000000E+00  0.10084792952E+04  0.10084792952E+04  0.50400000000E-02 0. -1.
         -1   -1    0    0    0  501 -0.00000000000E+00 -0.00000000000E+00 -0.23697120236E+03  0.23697120241E+03  0.50400000000E-02 0.  1.
    8880022    1    1    2    0    0  0.18270739600E+03 -0.13532885495E+03  0.90145199860E+03  0.94218005197E+03  0.15294330000E+03 0.  0.
    8880022    1    1    2    0    0 -0.18270739600E+03  0.13532885495E+03 -0.12994390578E+03  0.30327044564E+03  0.15294330000E+03 0.  0.
<mgrwt>
<rscale>  0 0.27402107E+03</rscale>
<asrwt>0</asrwt>
<pdfrwt beam="1">  1        1 0.15515066E+00 0.27402107E+03</pdfrwt>
<pdfrwt beam="2">  1       -1 0.36457108E-01 0.27402107E+03</pdfrwt>
<totfact> 0.11606324E+02</totfact>
</mgrwt>
</event>
<event>
 4    1  0.1678003E-008  0.8066798E+03  0.7818608E-02  0.9550398E-01
          1   -1    0    0  501    0  0.00000000000E+00  0.00000000000E+00  0.13211319843E+04  0.13211319843E+04  0.50400000000E-02 0. -1.
         -1   -1    0    0    0  501 -0.00000000000E+00 -0.00000000000E+00 -0.88315193797E+03  0.88315193798E+03  0.50400000000E-02 0.  1.
    8880022    1    1    2    0    0 -0.56655253276E+03 -0.55349691472E+03  0.95195523004E+03  0.12477784339E+04  0.15294330000E+03 0.  0.
    8880022    1    1    2    0    0  0.56655253276E+03  0.55349691472E+03 -0.51397518369E+03  0.95650548846E+03  0.15294330000E+03 0.  0.
<mgrwt>
<rscale>  0 0.80667978E+03</rscale>
<asrwt>0</asrwt>
<pdfrwt beam="1">  1        1 0.20325107E+00 0.80667978E+03</pdfrwt>
<pdfrwt beam="2">  1       -1 0.13586953E+00 0.80667978E+03</pdfrwt>
<totfact> 0.40821898E+00</totfact>
</mgrwt>
</event>
<event>
 4    1  0.1678003E-008  0.5012523E+03  0.7818608E-02  0.1013453E+00
         -1   -1    0    0    0  501 -0.00000000000E+00  0.00000000000E+00  0.16635238397E+04  0.16635238397E+04  0.50400000000E-02 0.  1.
          1   -1    0    0  501    0  0.00000000000E+00 -0.00000000000E+00 -0.63983252507E+03  0.63983252509E+03  0.50400000000E-02 0. -1.
    8880022    1    1    2    0    0 -0.45098817091E+03 -0.15643491414E+03 -0.49476502780E+03  0.70430554336E+03  0.15294330000E+03 0.  0.
    8880022    1    1    2    0    0  0.45098817091E+03  0.15643491414E+03  0.15184563424E+04  0.15990508214E+04  0.15294330000E+03 0.  0.
<mgrwt>
<rscale>  0 0.50125230E+03</rscale>
<asrwt>0</asrwt>
<pdfrwt beam="1">  1        1 0.98435774E-01 0.50125230E+03</pdfrwt>
<pdfrwt beam="2">  1       -1 0.25592674E+00 0.50125230E+03</pdfrwt>
<totfact> 0.21920253E+00</totfact>
</mgrwt>
</event>
<event>
 4    1  0.1678003E-008  0.3527955E+03  0.7818608E-02  0.1061473E+00
         -1   -1    0    0    0  501 -0.00000000000E+00  0.00000000000E+00  0.52859136126E+03  0.52859136128E+03  0.50400000000E-02 0.  1.
          1   -1    0    0  501    0  0.00000000000E+00 -0.00000000000E+00 -0.14466954723E+04  0.14466954723E+04  0.50400000000E-02 0. -1.
    8880022    1    1    2    0    0 -0.26708070650E+03 -0.17245553403E+03  0.44464951941E+03  0.56760713802E+03  0.15294330000E+03 0.  0.
    8880022    1    1    2    0    0  0.26708070650E+03  0.17245553403E+03 -0.13627536304E+04  0.14076796956E+04  0.15294330000E+03 0.  0.
<mgrwt>
<rscale>  0 0.35279550E+03</rscale>
<asrwt>0</asrwt>
<pdfrwt beam="1">  1        1 0.22256853E+00 0.35279550E+03</pdfrwt>
<pdfrwt beam="2">  1       -1 0.81321749E-01 0.35279550E+03</pdfrwt>
<totfact> 0.12106336E+01</totfact>
</mgrwt>
</event>
<event>
 4    1  0.1678003E-008  0.1094385E+04  0.7818608E-02  0.9210682E-01
         -1   -1    0    0    0  501 -0.00000000000E+00  0.00000000000E+00  0.50617008653E+03  0.50617008655E+03  0.50400000000E-02 0.  1.
          1   -1    0    0  501    0  0.00000000000E+00 -0.00000000000E+00 -0.31859373021E+04  0.31859373021E+04  0.50400000000E-02 0. -1.
    8880022    1    1    2    0    0 -0.18156218695E+03 -0.10683265738E+04 -0.40345575654E+03  0.11663853122E+04  0.15294330000E+03 0. -1.
    8880022    1    1    2    0    0  0.18156218695E+03  0.10683265738E+04 -0.22763114590E+04  0.25257220764E+04  0.15294330000E+03 0.  0.
<mgrwt>
<rscale>  0 0.10943848E+04</rscale>
<asrwt>0</asrwt>
<pdfrwt beam="1">  1        1 0.49014419E+00 0.10943848E+04</pdfrwt>
<pdfrwt beam="2">  1       -1 0.77872323E-01 0.10943848E+04</pdfrwt>
<totfact> 0.73134019E-01</totfact>
</mgrwt>
</event>
<event>
 4    1  0.1678003E-008  0.2366040E+03  0.7818608E-02  0.1122076E+00
         -1   -1    0    0    0  501 -0.00000000000E+00  0.00000000000E+00  0.16473104917E+03  0.16473104925E+03  0.50400000000E-02 0.  1.
          1   -1    0    0  501    0  0.00000000000E+00 -0.00000000000E+00 -0.97545208894E+03  0.97545208895E+03  0.50400000000E-02 0. -1.
    8880022    1    1    2    0    0 -0.12629663362E+03 -0.12899200385E+03  0.54831748758E+02  0.24287435107E+03  0.15294330000E+03 0.  0.
    8880022    1    1    2    0    0  0.12629663362E+03  0.12899200385E+03 -0.86555278853E+03  0.89730878713E+03  0.15294330000E+03 0.  0.
<mgrwt>
<rscale>  0 0.23660395E+03</rscale>
<asrwt>0</asrwt>
<pdfrwt beam="1">  1        1 0.15006955E+00 0.23660395E+03</pdfrwt>
<pdfrwt beam="2">  1       -1 0.25343239E-01 0.23660395E+03</pdfrwt>
<totfact> 0.23046799E+02</totfact>
</mgrwt>
</event>
<event>
 4    1  0.1678003E-008  0.1928150E+03  0.7818608E-02  0.1155947E+00
         -1   -1    0    0    0  501 -0.00000000000E+00  0.00000000000E+00  0.33675723012E+03  0.33675723015E+03  0.50400000000E-02 0.  1.
          1   -1    0    0  501    0  0.00000000000E+00 -0.00000000000E+00 -0.15433830787E+03  0.15433830795E+03  0.50400000000E-02 0. -1.
    8880022    1    1    2    0    0  0.53661043447E+02 -0.10443403101E+03 -0.39807110476E+02  0.19688126746E+03  0.15294330000E+03 0.  0.
    8880022    1    1    2    0    0 -0.53661043447E+02  0.10443403101E+03  0.22222603272E+03  0.29421427065E+03  0.15294330000E+03 0.  0.
<mgrwt>
<rscale>  0 0.19281501E+03</rscale>
<asrwt>0</asrwt>
<pdfrwt beam="1">  1        1 0.23744355E-01 0.19281501E+03</pdfrwt>
<pdfrwt beam="2">  1       -1 0.51808804E-01 0.19281501E+03</pdfrwt>
<totfact> 0.78508323E+02</totfact>
</mgrwt>
</event>
<event>
 4    1  0.1678003E-008  0.6559357E+03  0.7818608E-02  0.9795705E-01
          1   -1    0    0  501    0  0.00000000000E+00  0.00000000000E+00  0.10600958538E+04  0.10600958538E+04  0.50400000000E-02 0. -1.
         -1   -1    0    0    0  501 -0.00000000000E+00 -0.00000000000E+00 -0.14473752797E+04  0.14473752797E+04  0.50400000000E-02 0.  1.
    8880022    1    1    2    0    0  0.42641272467E+03 -0.47437550569E+03 -0.12571653932E+04  0.14179973241E+04  0.15294330000E+03 0.  0.
    8880022    1    1    2    0    0 -0.42641272467E+03  0.47437550569E+03  0.86988596737E+03  0.10894738094E+04  0.15294330000E+03 0. -1.
<mgrwt>
<rscale>  0 0.65593566E+03</rscale>
<asrwt>0</asrwt>
<pdfrwt beam="1">  1        1 0.16309167E+00 0.65593566E+03</pdfrwt>
<pdfrwt beam="2">  1       -1 0.22267312E+00 0.65593566E+03</pdfrwt>
<totfact> 0.15327927E+00</totfact>
</mgrwt>
</event>
<event>
 4    1  0.1678003E-008  0.5839908E+03  0.7818608E-02  0.9939188E-01
          1   -1    0    0  501    0  0.00000000000E+00  0.00000000000E+00  0.11853238179E+04  0.11853238179E+04  0.50400000000E-02 0. -1.
         -1   -1    0    0    0  501 -0.00000000000E+00 -0.00000000000E+00 -0.49822807568E+03  0.49822807571E+03  0.50400000000E-02 0.  1.
    8880022    1    1    2    0    0  0.33090616302E+03  0.45623972796E+03  0.89070672723E+03  0.10650838958E+04  0.15294330000E+03 0.  0.
    8880022    1    1    2    0    0 -0.33090616302E+03 -0.45623972796E+03 -0.20361098502E+03  0.61846799783E+03  0.15294330000E+03 0.  0.
<mgrwt>
<rscale>  0 0.58399078E+03</rscale>
<asrwt>0</asrwt>
<pdfrwt beam="1">  1        1 0.18235751E+00 0.58399078E+03</pdfrwt>
<pdfrwt beam="2">  1       -1 0.76650474E-01 0.58399078E+03</pdfrwt>
<totfact> 0.19756427E+01</totfact>
</mgrwt>
</event>
<event>
 4    1  0.1678003E-008  0.3445031E+03  0.7818608E-02  0.1064894E+00
          1   -1    0    0  501    0  0.00000000000E+00  0.00000000000E+00  0.80744252166E+03  0.80744252168E+03  0.50400000000E-02 0. -1.
         -1   -1    0    0    0  501 -0.00000000000E+00 -0.00000000000E+00 -0.39625202312E+03  0.39625202315E+03  0.50400000000E-02 0.  1.
    8880022    1    1    2    0    0 -0.15052053461E+03 -0.26950746582E+03  0.68294039604E+03  0.76491172238E+03  0.15294330000E+03 0.  0.
    8880022    1    1    2    0    0  0.15052053461E+03  0.26950746582E+03 -0.27174989750E+03  0.43878282245E+03  0.15294330000E+03 0.  1.
<mgrwt>
<rscale>  0 0.34450306E+03</rscale>
<asrwt>0</asrwt>
<pdfrwt beam="1">  1        1 0.12422193E+00 0.34450306E+03</pdfrwt>
<pdfrwt beam="2">  1       -1 0.60961849E-01 0.34450306E+03</pdfrwt>
<totfact> 0.63944376E+01</totfact>
</mgrwt>
</event>
<event>
 4    1  0.1678003E-008  0.8563865E+03  0.7818608E-02  0.9481805E-01
         -1   -1    0    0    0  501 -0.00000000000E+00  0.00000000000E+00  0.27632989547E+04  0.27632989547E+04  0.50400000000E-02 0.  1.
          1   -1    0    0  501    0  0.00000000000E+00 -0.00000000000E+00 -0.77962304550E+03  0.77962304552E+03  0.50400000000E-02 0. -1.
    8880022    1    1    2    0    0 -0.74881899013E+03 -0.38636294208E+03  0.24305114105E+04  0.25769717834E+04  0.15294330000E+03 0.  0.
    8880022    1    1    2    0    0  0.74881899013E+03  0.38636294208E+03 -0.44683550134E+03  0.96595021676E+03  0.15294330000E+03 0.  0.
<mgrwt>
<rscale>  0 0.85638651E+03</rscale>
<asrwt>0</asrwt>
<pdfrwt beam="1">  1        1 0.11994201E+00 0.85638651E+03</pdfrwt>
<pdfrwt beam="2">  1       -1 0.42512291E+00 0.85638651E+03</pdfrwt>
<totfact> 0.11688719E-01</totfact>
</mgrwt>
</event>
<event>
 4    1  0.1678003E-008  0.2220307E+03  0.7818608E-02  0.1132378E+00
         -1   -1    0    0    0  501 -0.00000000000E+00  0.00000000000E+00  0.43031483090E+03  0.43031483093E+03  0.50400000000E-02 0.  1.
          1   -1    0    0  501    0  0.00000000000E+00 -0.00000000000E+00 -0.12984697726E+03  0.12984697735E+03  0.50400000000E-02 0. -1.
    8880022    1    1    2    0    0 -0.38160761407E+02 -0.15636412018E+03  0.54138428650E+02  0.22853578333E+03  0.15294330000E+03 0.  0.
    8880022    1    1    2    0    0  0.38160761407E+02  0.15636412018E+03  0.24632942499E+03  0.33162602495E+03  0.15294330000E+03 0.  0.
<mgrwt>
<rscale>  0 0.22203071E+03</rscale>
<asrwt>0</asrwt>
<pdfrwt beam="1">  1        1 0.19976458E-01 0.22203071E+03</pdfrwt>
<pdfrwt beam="2">  1       -1 0.66202282E-01 0.22203071E+03</pdfrwt>
<totfact> 0.61391482E+02</totfact>
</mgrwt>
</event>
<event>
 4    1  0.1678003E-008  0.3199614E+03  0.7818608E-02  0.1075667E+00
         -1   -1    0    0    0  501 -0.00000000000E+00  0.00000000000E+00  0.73380414497E+02  0.73380414670E+02  0.50400000000E-02 0.  1.
          1   -1    0    0  501    0  0.00000000000E+00 -0.00000000000E+00 -0.14506659202E+04  0.14506659202E+04  0.50400000000E-02 0. -1.
    8880022    1    1    2    0    0 -0.25340630893E+03  0.12152719909E+03 -0.83773966431E+03  0.89676251912E+03  0.15294330000E+03 0.  0.
    8880022    1    1    2    0    0  0.25340630893E+03 -0.12152719909E+03 -0.53954584134E+03  0.62728381571E+03  0.15294330000E+03 0.  0.
<mgrwt>
<rscale>  0 0.31996136E+03</rscale>
<asrwt>0</asrwt>
<pdfrwt beam="1">  1        1 0.22317935E+00 0.31996136E+03</pdfrwt>
<pdfrwt beam="2">  1       -1 0.11289296E-01 0.31996136E+03</pdfrwt>
<totfact> 0.38802303E+02</totfact>
</mgrwt>
</event>
<event>
 4    1  0.1678003E-008  0.9891094E+03  0.7818608E-02  0.9320571E-01
          1   -1    0    0  501    0  0.00000000000E+00  0.00000000000E+00  0.49427741707E+03  0.49427741710E+03  0.50400000000E-02 0. -1.
         -1   -1    0    0    0  501 -0.00000000000E+00 -0.00000000000E+00 -0.22391620597E+04  0.22391620597E+04  0.50400000000E-02 0.  1.
    8880022    1    1    2    0    0 -0.90913729646E+03  0.35835057987E+03 -0.13380115446E+04  0.16639147539E+04  0.15294330000E+03 0.  0.
    8880022    1    1    2    0    0  0.90913729646E+03 -0.35835057987E+03 -0.40687309807E+03  0.10695247229E+04  0.15294330000E+03 0.  0.
<mgrwt>
<rscale>  0 0.98910940E+03</rscale>
<asrwt>0</asrwt>
<pdfrwt beam="1">  1        1 0.76042681E-01 0.98910940E+03</pdfrwt>
<pdfrwt beam="2">  1       -1 0.34448647E+00 0.98910940E+03</pdfrwt>
<totfact> 0.77769566E-01</totfact>
</mgrwt>
</event>
<event>
 4    1  0.1678003E-008  0.3498309E+03  0.7818608E-02  0.1062684E+00
         -1   -1    0    0    0  501 -0.00000000000E+00  0.00000000000E+00  0.19485533832E+03  0.19485533838E+03  0.50400000000E-02 0.  1.
          1   -1    0    0  501    0  0.00000000000E+00 -0.00000000000E+00 -0.95394940197E+03  0.95394940199E+03  0.50400000000E-02 0. -1.
    8880022    1    1    2    0    0 -0.30412905826E+03  0.80594834699E+02 -0.71527371942E+03  0.79624001292E+03  0.15294330000E+03 0.  0.
    8880022    1    1    2    0    0  0.30412905826E+03 -0.80594834699E+02 -0.43820344234E+02  0.35256472745E+03  0.15294330000E+03 0.  0.
<mgrwt>
<rscale>  0 0.34983091E+03</rscale>
<asrwt>0</asrwt>
<pdfrwt beam="1">  1        1 0.14676144E+00 0.34983091E+03</pdfrwt>
<pdfrwt beam="2">  1       -1 0.29977745E-01 0.34983091E+03</pdfrwt>
<totfact> 0.17703945E+02</totfact>
</mgrwt>
</event>
<event>
 4    1  0.1678003E-008  0.8645316E+03  0.7818608E-02  0.9471038E-01
         -1   -1    0    0    0  501 -0.00000000000E+00  0.00000000000E+00  0.24670756262E+04  0.24670756262E+04  0.50400000000E-02 0.  1.
          1   -1    0    0  501    0  0.00000000000E+00 -0.00000000000E+00 -0.38479719228E+03  0.38479719231E+03  0.50400000000E-02 0. -1.
    8880022    1    1    2    0    0  0.79186713604E+03  0.31139940216E+03  0.16987528209E+04  0.19060891764E+04  0.15294330000E+03 0.  0.
    8880022    1    1    2    0    0 -0.79186713604E+03 -0.31139940216E+03  0.38352561297E+03  0.94578364208E+03  0.15294330000E+03 0.  0.
<mgrwt>
<rscale>  0 0.86453155E+03</rscale>
<asrwt>0</asrwt>
<pdfrwt beam="1">  1        1 0.59199569E-01 0.86453155E+03</pdfrwt>
<pdfrwt beam="2">  1       -1 0.37955009E+00 0.86453155E+03</pdfrwt>
<totfact> 0.65107385E-01</totfact>
</mgrwt>
</event>
<event>
 4    1  0.1678003E-008  0.6013498E+03  0.7818608E-02  0.9902610E-01
         -1   -1    0    0    0  501 -0.00000000000E+00  0.00000000000E+00  0.68193243706E+03  0.68193243708E+03  0.50400000000E-02 0.  1.
          1   -1    0    0  501    0  0.00000000000E+00 -0.00000000000E+00 -0.60249834172E+03  0.60249834174E+03  0.50400000000E-02 0. -1.
    8880022    1    1    2    0    0 -0.25864090451E+03  0.52089803783E+03  0.26204716621E+03  0.65596513142E+03  0.15294330000E+03 0.  0.
    8880022    1    1    2    0    0  0.25864090451E+03 -0.52089803783E+03 -0.18261307086E+03  0.62846564740E+03  0.15294330000E+03 0.  0.
<mgrwt>
<rscale>  0 0.60134976E+03</rscale>
<asrwt>0</asrwt>
<pdfrwt beam="1">  1        1 0.92692053E-01 0.60134976E+03</pdfrwt>
<pdfrwt beam="2">  1       -1 0.10491268E+00 0.60134976E+03</pdfrwt>
<totfact> 0.30245633E+01</totfact>
</mgrwt>
</event>
<event>
 4    1  0.1678003E-008  0.5882069E+03  0.7818608E-02  0.9930180E-01
         -1   -1    0    0    0  501 -0.00000000000E+00  0.00000000000E+00  0.28408862370E+03  0.28408862375E+03  0.50400000000E-02 0.  1.
          1   -1    0    0  501    0  0.00000000000E+00 -0.00000000000E+00 -0.23462478250E+04  0.23462478250E+04  0.50400000000E-02 0. -1.
    8880022    1    1    2    0    0 -0.43299917559E+03  0.36756963937E+03 -0.11902953437E+03  0.60012949346E+03  0.15294330000E+03 0.  0.
    8880022    1    1    2    0    0  0.43299917559E+03 -0.36756963937E+03 -0.19431296669E+04  0.20302069553E+04  0.15294330000E+03 0. -1.
<mgrwt>
<rscale>  0 0.58820692E+03</rscale>
<asrwt>0</asrwt>
<pdfrwt beam="1">  1        1 0.36096119E+00 0.58820692E+03</pdfrwt>
<pdfrwt beam="2">  1       -1 0.43705944E-01 0.58820692E+03</pdfrwt>
<totfact> 0.96942990E+00</totfact>
</mgrwt>
</event>
<event>
 4    1  0.1678003E-008  0.2186040E+03  0.7818608E-02  0.1134928E+00
          1   -1    0    0  501    0  0.00000000000E+00  0.00000000000E+00  0.14128185835E+04  0.14128185835E+04  0.50400000000E-02 0. -1.
         -1   -1    0    0    0  501 -0.00000000000E+00 -0.00000000000E+00 -0.11107228571E+04  0.11107228571E+04  0.50400000000E-02 0.  1.
    8880022    1    1    2    0    0  0.83603500991E+02  0.13193377605E+03 -0.10913622307E+04  0.11130405375E+04  0.15294330000E+03 0.  0.
    8880022    1    1    2    0    0 -0.83603500991E+02 -0.13193377605E+03  0.13934579570E+04  0.14105009031E+04  0.15294330000E+03 0.  0.
<mgrwt>
<rscale>  0 0.21860402E+03</rscale>
<asrwt>0</asrwt>
<pdfrwt beam="1">  1        1 0.21735671E+00 0.21860402E+03</pdfrwt>
<pdfrwt beam="2">  1       -1 0.17088044E+00 0.21860402E+03</pdfrwt>
<totfact> 0.22920516E+00</totfact>
</mgrwt>
</event>
<event>
 4    1  0.1678003E-008  0.3819232E+03  0.7818608E-02  0.1050225E+00
          1   -1    0    0  501    0  0.00000000000E+00  0.00000000000E+00  0.48839751241E+03  0.48839751244E+03  0.50400000000E-02 0. -1.
         -1   -1    0    0    0  501 -0.00000000000E+00 -0.00000000000E+00 -0.12144057978E+04  0.12144057978E+04  0.50400000000E-02 0.  1.
    8880022    1    1    2    0    0  0.27816941685E+03 -0.21235685826E+03 -0.11023366348E+04  0.11666239193E+04  0.15294330000E+03 0.  0.
    8880022    1    1    2    0    0 -0.27816941685E+03  0.21235685826E+03  0.37632834938E+03  0.53617939095E+03  0.15294330000E+03 0. -1.
<mgrwt>
<rscale>  0 0.38192318E+03</rscale>
<asrwt>0</asrwt>
<pdfrwt beam="1">  1        1 0.75138079E-01 0.38192318E+03</pdfrwt>
<pdfrwt beam="2">  1       -1 0.18683166E+00 0.38192318E+03</pdfrwt>
<totfact> 0.93830705E+00</totfact>
</mgrwt>
</event>
<event>
 4    1  0.1678003E-008  0.3242258E+03  0.7818608E-02  0.1073721E+00
          1   -1    0    0  501    0  0.00000000000E+00  0.00000000000E+00  0.81974872694E+03  0.81974872695E+03  0.50400000000E-02 0. -1.
         -1   -1    0    0    0  501 -0.00000000000E+00 -0.00000000000E+00 -0.54901943843E+03  0.54901943846E+03  0.50400000000E-02 0.  1.
    8880022    1    1    2    0    0  0.95558146697E+02 -0.26944269506E+03  0.73451342300E+03  0.80288999677E+03  0.15294330000E+03 0.  0.
    8880022    1    1    2    0    0 -0.95558146697E+02  0.26944269506E+03 -0.46378413450E+03  0.56587816864E+03  0.15294330000E+03 0.  0.
<mgrwt>
<rscale>  0 0.32422581E+03</rscale>
<asrwt>0</asrwt>
<pdfrwt beam="1">  1        1 0.12611519E+00 0.32422581E+03</pdfrwt>
<pdfrwt beam="2">  1       -1 0.84464529E-01 0.32422581E+03</pdfrwt>
<totfact> 0.32361860E+01</totfact>
</mgrwt>
</event>
<event>
 4    1  0.1678003E-008  0.3086605E+03  0.7818608E-02  0.1080990E+00
         -1   -1    0    0    0  501 -0.00000000000E+00  0.00000000000E+00  0.77790612811E+02  0.77790612974E+02  0.50400000000E-02 0.  1.
          1   -1    0    0  501    0  0.00000000000E+00 -0.00000000000E+00 -0.27953367817E+04  0.27953367817E+04  0.50400000000E-02 0. -1.
    8880022    1    1    2    0    0 -0.84221647366E+02  0.25453171859E+03 -0.28195183175E+03  0.41805283170E+03  0.15294330000E+03 0.  0.
    8880022    1    1    2    0    0  0.84221647366E+02 -0.25453171859E+03 -0.24355943372E+04  0.24550745630E+04  0.15294330000E+03 0.  0.
<mgrwt>
<rscale>  0 0.30866055E+03</rscale>
<asrwt>0</asrwt>
<pdfrwt beam="1">  1        1 0.43005173E+00 0.30866055E+03</pdfrwt>
<pdfrwt beam="2">  1       -1 0.11967789E-01 0.30866055E+03</pdfrwt>
<totfact> 0.45684758E+01</totfact>
</mgrwt>
</event>
<event>
 4    1  0.1678003E-008  0.4171371E+03  0.7818608E-02  0.1038002E+00
         -1   -1    0    0    0  501 -0.00000000000E+00  0.00000000000E+00  0.24105705251E+03  0.24105705256E+03  0.50400000000E-02 0.  1.
          1   -1    0    0  501    0  0.00000000000E+00 -0.00000000000E+00 -0.21522442131E+04  0.21522442131E+04  0.50400000000E-02 0. -1.
    8880022    1    1    2    0    0  0.13354917171E+03 -0.36438483781E+03  0.19961502250E+02  0.41761442249E+03  0.15294330000E+03 0.  0.
    8880022    1    1    2    0    0 -0.13354917171E+03  0.36438483781E+03 -0.19311486628E+04  0.19756868431E+04  0.15294330000E+03 0.  0.
<mgrwt>
<rscale>  0 0.41713708E+03</rscale>
<asrwt>0</asrwt>
<pdfrwt beam="1">  1        1 0.33111448E+00 0.41713708E+03</pdfrwt>
<pdfrwt beam="2">  1       -1 0.37085702E-01 0.41713708E+03</pdfrwt>
<totfact> 0.18293908E+01</totfact>
</mgrwt>
</event>
<event>
 4    1  0.1678003E-008  0.9260875E+03  0.7818608E-02  0.9393546E-01
         -1   -1    0    0    0  501 -0.00000000000E+00  0.00000000000E+00  0.78260401511E+03  0.78260401513E+03  0.50400000000E-02 0.  1.
          1   -1    0    0  501    0  0.00000000000E+00 -0.00000000000E+00 -0.17164770790E+04  0.17164770790E+04  0.50400000000E-02 0. -1.
    8880022    1    1    2    0    0  0.29973108968E+03 -0.86279058507E+03  0.28440458899E+03  0.96877445417E+03  0.15294330000E+03 0.  0.
    8880022    1    1    2    0    0 -0.29973108968E+03  0.86279058507E+03 -0.12182776529E+04  0.15303066400E+04  0.15294330000E+03 0.  0.
<mgrwt>
<rscale>  0 0.92608745E+03</rscale>
<asrwt>0</asrwt>
<pdfrwt beam="1">  1        1 0.26407340E+00 0.92608745E+03</pdfrwt>
<pdfrwt beam="2">  1       -1 0.12040062E+00 0.92608745E+03</pdfrwt>
<totfact> 0.29032395E+00</totfact>
</mgrwt>
</event>
<event>
 4    1  0.1678003E-008  0.3146858E+03  0.7818608E-02  0.1078121E+00
          1   -1    0    0  501    0  0.00000000000E+00  0.00000000000E+00  0.30763679503E+04  0.30763679503E+04  0.50400000000E-02 0. -1.
         -1   -1    0    0    0  501 -0.00000000000E+00 -0.00000000000E+00 -0.56825077948E+02  0.56825078172E+02  0.50400000000E-02 0.  1.
    8880022    1    1    2    0    0 -0.21225360854E+02 -0.27419877103E+03  0.25412670839E+04  0.25606767712E+04  0.15294330000E+03 0.  0.
    8880022    1    1    2    0    0  0.21225360854E+02  0.27419877103E+03  0.47827578842E+03  0.57251625722E+03  0.15294330000E+03 0.  0.
<mgrwt>
<rscale>  0 0.31468577E+03</rscale>
<asrwt>0</asrwt>
<pdfrwt beam="1">  1        1 0.47328731E+00 0.31468577E+03</pdfrwt>
<pdfrwt beam="2">  1       -1 0.87423210E-02 0.31468577E+03</pdfrwt>
<totfact> 0.47374161E+01</totfact>
</mgrwt>
</event>
<event>
 4    1  0.1678003E-008  0.1916707E+03  0.7818608E-02  0.1156963E+00
         -1   -1    0    0    0  501 -0.00000000000E+00  0.00000000000E+00  0.17308070608E+03  0.17308070616E+03  0.50400000000E-02 0.  1.
          1   -1    0    0  501    0  0.00000000000E+00 -0.00000000000E+00 -0.28415764217E+04  0.28415764218E+04  0.50400000000E-02 0. -1.
    8880022    1    1    2    0    0 -0.38441533837E+02  0.10894152719E+03 -0.27841874217E+04  0.27907771785E+04  0.15294330000E+03 0. -1.
    8880022    1    1    2    0    0  0.38441533837E+02 -0.10894152719E+03  0.11569170606E+03  0.22387994939E+03  0.15294330000E+03 0.  0.
<mgrwt>
<rscale>  0 0.19167071E+03</rscale>
<asrwt>0</asrwt>
<pdfrwt beam="1">  1        1 0.43716557E+00 0.19167071E+03</pdfrwt>
<pdfrwt beam="2">  1       -1 0.26627803E-01 0.19167071E+03</pdfrwt>
<totfact> 0.12344144E+01</totfact>
</mgrwt>
</event>
<event>
 4    1  0.1678003E-008  0.3736111E+03  0.7818608E-02  0.1053321E+00
          1   -1    0    0  501    0  0.00000000000E+00  0.00000000000E+00  0.52675759439E+03  0.52675759442E+03  0.50400000000E-02 0. -1.
         -1   -1    0    0    0  501 -0.00000000000E+00 -0.00000000000E+00 -0.39547686626E+03  0.39547686629E+03  0.50400000000E-02 0.  1.
    8880022    1    1    2    0    0 -0.33502153699E+03  0.62882308700E+02  0.33051167815E+03  0.49882184936E+03  0.15294330000E+03 0.  0.
    8880022    1    1    2    0    0  0.33502153699E+03 -0.62882308700E+02 -0.19923095001E+03  0.42341261135E+03  0.15294330000E+03 0.  0.
<mgrwt>
<rscale>  0 0.37361112E+03</rscale>
<asrwt>0</asrwt>
<pdfrwt beam="1">  1        1 0.81039630E-01 0.37361112E+03</pdfrwt>
<pdfrwt beam="2">  1       -1 0.60842595E-01 0.37361112E+03</pdfrwt>
<totfact> 0.11870810E+02</totfact>
</mgrwt>
</event>
<event>
 4    1  0.1678003E-008  0.6939135E+03  0.7818608E-02  0.9727698E-01
          1   -1    0    0  501    0  0.00000000000E+00  0.00000000000E+00  0.30212322915E+04  0.30212322915E+04  0.50400000000E-02 0. -1.
         -1   -1    0    0    0  501 -0.00000000000E+00 -0.00000000000E+00 -0.44853178738E+03  0.44853178741E+03  0.50400000000E-02 0.  1.
    8880022    1    1    2    0    0  0.38027133487E+03  0.55992680880E+03 -0.10660855714E+03  0.70205509528E+03  0.15294330000E+03 0.  0.
    8880022    1    1    2    0    0 -0.38027133487E+03 -0.55992680880E+03  0.26793090613E+04  0.27677089836E+04  0.15294330000E+03 0.  0.
<mgrwt>
<rscale>  0 0.69391352E+03</rscale>
<asrwt>0</asrwt>
<pdfrwt beam="1">  1        1 0.46480495E+00 0.69391352E+03</pdfrwt>
<pdfrwt beam="2">  1       -1 0.69004893E-01 0.69391352E+03</pdfrwt>
<totfact> 0.13376655E+00</totfact>
</mgrwt>
</event>
<event>
 4    1  0.1678003E-008  0.3739569E+03  0.7818608E-02  0.1053190E+00
         -1   -1    0    0    0  501 -0.00000000000E+00  0.00000000000E+00  0.61125250303E+02  0.61125250511E+02  0.50400000000E-02 0.  1.
          1   -1    0    0  501    0  0.00000000000E+00 -0.00000000000E+00 -0.30528350502E+04  0.30528350502E+04  0.50400000000E-02 0. -1.
    8880022    1    1    2    0    0  0.26767371189E+03  0.21166688081E+03 -0.22752642652E+04  0.23057908001E+04  0.15294330000E+03 0.  0.
    8880022    1    1    2    0    0 -0.26767371189E+03 -0.21166688081E+03 -0.71644553470E+03  0.80816950058E+03  0.15294330000E+03 0.  1.
<mgrwt>
<rscale>  0 0.37395687E+03</rscale>
<asrwt>0</asrwt>
<pdfrwt beam="1">  1        1 0.46966681E+00 0.37395687E+03</pdfrwt>
<pdfrwt beam="2">  1       -1 0.94038870E-02 0.37395687E+03</pdfrwt>
<totfact> 0.43201586E+01</totfact>
</mgrwt>
</event>
<event>
 4    1  0.1678003E-008  0.7831174E+03  0.7818608E-02  0.9584781E-01
          1   -1    0    0  501    0  0.00000000000E+00  0.00000000000E+00  0.11335867220E+04  0.11335867220E+04  0.50400000000E-02 0. -1.
         -1   -1    0    0    0  501 -0.00000000000E+00 -0.00000000000E+00 -0.82253063237E+03  0.82253063238E+03  0.50400000000E-02 0.  1.
    8880022    1    1    2    0    0  0.72658293404E+03  0.24891443715E+03  0.72773096442E+03  0.10690487204E+04  0.15294330000E+03 0.  0.
    8880022    1    1    2    0    0 -0.72658293404E+03 -0.24891443715E+03 -0.41667487479E+03  0.88706863396E+03  0.15294330000E+03 0.  0.
<mgrwt>
<rscale>  0 0.78311737E+03</rscale>
<asrwt>0</asrwt>
<pdfrwt beam="1">  1        1 0.17439796E+00 0.78311737E+03</pdfrwt>
<pdfrwt beam="2">  1       -1 0.12654317E+00 0.78311737E+03</pdfrwt>
<totfact> 0.66941221E+00</totfact>
</mgrwt>
</event>
<event>
 4    1  0.1678003E-008  0.6767491E+03  0.7818608E-02  0.9757842E-01
          1   -1    0    0  501    0  0.00000000000E+00  0.00000000000E+00  0.18576747378E+04  0.18576747378E+04  0.50400000000E-02 0. -1.
         -1   -1    0    0    0  501 -0.00000000000E+00 -0.00000000000E+00 -0.56036604965E+03  0.56036604967E+03  0.50400000000E-02 0.  1.
    8880022    1    1    2    0    0  0.15302319006E+03 -0.64123440445E+03  0.15534341345E+04  0.16944459040E+04  0.15294330000E+03 0.  0.
    8880022    1    1    2    0    0 -0.15302319006E+03  0.64123440445E+03 -0.25612544638E+03  0.72359488351E+03  0.15294330000E+03 0.  0.
<mgrwt>
<rscale>  0 0.67674908E+03</rscale>
<asrwt>0</asrwt>
<pdfrwt beam="1">  1        1 0.28579611E+00 0.67674908E+03</pdfrwt>
<pdfrwt beam="2">  1       -1 0.86210162E-01 0.67674908E+03</pdfrwt>
<totfact> 0.52449580E+00</totfact>
</mgrwt>
</event>
<event>
 4    1  0.1678003E-008  0.3564052E+03  0.7818608E-02  0.1060016E+00
         -1   -1    0    0    0  501 -0.00000000000E+00  0.00000000000E+00  0.15173541165E+03  0.15173541173E+03  0.50400000000E-02 0.  1.
          1   -1    0    0  501    0  0.00000000000E+00 -0.00000000000E+00 -0.12197877690E+04  0.12197877690E+04  0.50400000000E-02 0. -1.
    8880022    1    1    2    0    0  0.31604694668E+03  0.61215800321E+02 -0.14994132434E+03  0.38666148047E+03  0.15294330000E+03 0.  1.
    8880022    1    1    2    0    0 -0.31604694668E+03 -0.61215800321E+02 -0.91811103304E+03  0.98486170030E+03  0.15294330000E+03 0.  0.
<mgrwt>
<rscale>  0 0.35640525E+03</rscale>
<asrwt>0</asrwt>
<pdfrwt beam="1">  1        1 0.18765965E+00 0.35640525E+03</pdfrwt>
<pdfrwt beam="2">  1       -1 0.23343910E-01 0.35640525E+03</pdfrwt>
<totfact> 0.17224167E+02</totfact>
</mgrwt>
</event>
<event>
 4    1  0.1678003E-008  0.5832158E+03  0.7818608E-02  0.9940853E-01
         -1   -1    0    0    0  501 -0.00000000000E+00  0.00000000000E+00  0.94974889446E+03  0.94974889447E+03  0.50400000000E-02 0.  1.
          1   -1    0    0  501    0  0.00000000000E+00 -0.00000000000E+00 -0.15929982099E+04  0.15929982099E+04  0.50400000000E-02 0. -1.
    8880022    1    1    2    0    0  0.44692797782E+03  0.34205903064E+03 -0.14409968745E+04  0.15545457996E+04  0.15294330000E+03 0.  0.
    8880022    1    1    2    0    0 -0.44692797782E+03 -0.34205903064E+03  0.79774755903E+03  0.98820130477E+03  0.15294330000E+03 0.  0.
<mgrwt>
<rscale>  0 0.58321578E+03</rscale>
<asrwt>0</asrwt>
<pdfrwt beam="1">  1        1 0.24507665E+00 0.58321578E+03</pdfrwt>
<pdfrwt beam="2">  1       -1 0.14611521E+00 0.58321578E+03</pdfrwt>
<totfact> 0.22939288E+00</totfact>
</mgrwt>
</event>
<event>
 4    1  0.1678003E-008  0.3907616E+03  0.7818608E-02  0.1047026E+00
         -1   -1    0    0    0  501 -0.00000000000E+00  0.00000000000E+00  0.13558354636E+03  0.13558354645E+03  0.50400000000E-02 0.  1.
          1   -1    0    0  501    0  0.00000000000E+00 -0.00000000000E+00 -0.22802852995E+04  0.22802852995E+04  0.50400000000E-02 0. -1.
    8880022    1    1    2    0    0 -0.15112760241E+03  0.32628730513E+03 -0.19316950459E+04  0.19708222551E+04  0.15294330000E+03 0.  0.
    8880022    1    1    2    0    0  0.15112760241E+03 -0.32628730513E+03 -0.21300670720E+03  0.44504659085E+03  0.15294330000E+03 0.  0.
<mgrwt>
<rscale>  0 0.39076158E+03</rscale>
<asrwt>0</asrwt>
<pdfrwt beam="1">  1        1 0.35081310E+00 0.39076158E+03</pdfrwt>
<pdfrwt beam="2">  1       -1 0.20859009E-01 0.39076158E+03</pdfrwt>
<totfact> 0.40517161E+01</totfact>
</mgrwt>
</event>
<event>
 4    1  0.1678003E-008  0.2782055E+03  0.7818608E-02  0.1096673E+00
         -1   -1    0    0    0  501 -0.00000000000E+00  0.00000000000E+00  0.10801471861E+03  0.10801471873E+03  0.50400000000E-02 0.  1.
          1   -1    0    0  501    0  0.00000000000E+00 -0.00000000000E+00 -0.10415496905E+04  0.10415496905E+04  0.50400000000E-02 0. -1.
    8880022    1    1    2    0    0  0.23113930203E+03  0.24109261973E+02 -0.78783967455E+03  0.83551758765E+03  0.15294330000E+03 0.  0.
    8880022    1    1    2    0    0 -0.23113930203E+03 -0.24109261973E+02 -0.14569529729E+03  0.31404682155E+03  0.15294330000E+03 0.  0.
<mgrwt>
<rscale>  0 0.27820548E+03</rscale>
<asrwt>0</asrwt>
<pdfrwt beam="1">  1        1 0.16023841E+00 0.27820548E+03</pdfrwt>
<pdfrwt beam="2">  1       -1 0.16617650E-01 0.27820548E+03</pdfrwt>
<totfact> 0.40781423E+02</totfact>
</mgrwt>
</event>
<event>
 4    1  0.1678003E-008  0.5359103E+03  0.7818608E-02  0.1004809E+00
         -1   -1    0    0    0  501 -0.00000000000E+00  0.00000000000E+00  0.51812600481E+03  0.51812600483E+03  0.50400000000E-02 0.  1.
          1   -1    0    0  501    0  0.00000000000E+00 -0.00000000000E+00 -0.80310475888E+03  0.80310475890E+03  0.50400000000E-02 0. -1.
    8880022    1    1    2    0    0 -0.17333126840E+03  0.48349190251E+03  0.22520553155E+03  0.58130657389E+03  0.15294330000E+03 0.  0.
    8880022    1    1    2    0    0  0.17333126840E+03 -0.48349190251E+03 -0.51018428562E+03  0.73992418984E+03  0.15294330000E+03 0.  0.
<mgrwt>
<rscale>  0 0.53591025E+03</rscale>
<asrwt>0</asrwt>
<pdfrwt beam="1">  1        1 0.12355458E+00 0.53591025E+03</pdfrwt>
<pdfrwt beam="2">  1       -1 0.79711693E-01 0.53591025E+03</pdfrwt>
<totfact> 0.36312443E+01</totfact>
</mgrwt>
</event>
<event>
 4    1  0.1678003E-008  0.6634668E+03  0.7818608E-02  0.9781833E-01
          1   -1    0    0  501    0  0.00000000000E+00  0.00000000000E+00  0.10295197828E+04  0.10295197829E+04  0.50400000000E-02 0. -1.
         -1   -1    0    0    0  501 -0.00000000000E+00 -0.00000000000E+00 -0.54303376096E+03  0.54303376098E+03  0.50400000000E-02 0.  1.
    8880022    1    1    2    0    0 -0.50845648852E+03 -0.39782981231E+03  0.60581260793E+03  0.89844150016E+03  0.15294330000E+03 0.  0.
    8880022    1    1    2    0    0  0.50845648852E+03  0.39782981231E+03 -0.11932658603E+03  0.67411204368E+03  0.15294330000E+03 0.  0.
<mgrwt>
<rscale>  0 0.66346681E+03</rscale>
<asrwt>0</asrwt>
<pdfrwt beam="1">  1        1 0.15838766E+00 0.66346681E+03</pdfrwt>
<pdfrwt beam="2">  1       -1 0.83543656E-01 0.66346681E+03</pdfrwt>
<totfact> 0.21227102E+01</totfact>
</mgrwt>
</event>
<event>
 4    1  0.1678003E-008  0.4478739E+03  0.7818608E-02  0.1028358E+00
         -1   -1    0    0    0  501 -0.00000000000E+00  0.00000000000E+00  0.54156022282E+03  0.54156022285E+03  0.50400000000E-02 0.  1.
          1   -1    0    0  501    0  0.00000000000E+00 -0.00000000000E+00 -0.15353704552E+04  0.15353704552E+04  0.50400000000E-02 0. -1.
    8880022    1    1    2    0    0  0.24789754750E+03 -0.34021485464E+03  0.40766841146E+03  0.60562738386E+03  0.15294330000E+03 0.  0.
    8880022    1    1    2    0    0 -0.24789754750E+03  0.34021485464E+03 -0.14014786438E+04  0.14713032942E+04  0.15294330000E+03 0.  0.
<mgrwt>
<rscale>  0 0.44787386E+03</rscale>
<asrwt>0</asrwt>
<pdfrwt beam="1">  1        1 0.23621084E+00 0.44787386E+03</pdfrwt>
<pdfrwt beam="2">  1       -1 0.83316958E-01 0.44787386E+03</pdfrwt>
<totfact> 0.97525471E+00</totfact>
</mgrwt>
</event>
<event>
 4    1  0.1678003E-008  0.2647877E+03  0.7818608E-02  0.1104300E+00
         -1   -1    0    0    0  501 -0.00000000000E+00  0.00000000000E+00  0.80744157359E+03  0.80744157361E+03  0.50400000000E-02 0.  1.
          1   -1    0    0  501    0  0.00000000000E+00 -0.00000000000E+00 -0.14095189693E+03  0.14095189702E+03  0.50400000000E-02 0. -1.
    8880022    1    1    2    0    0 -0.11139725412E+03  0.18523370394E+03  0.39413709796E+02  0.26770499964E+03  0.15294330000E+03 0.  0.
    8880022    1    1    2    0    0  0.11139725412E+03 -0.18523370394E+03  0.62707596687E+03  0.68068847099E+03  0.15294330000E+03 0.  1.
<mgrwt>
<rscale>  0 0.26478770E+03</rscale>
<asrwt>0</asrwt>
<pdfrwt beam="1">  1        1 0.21684907E-01 0.26478770E+03</pdfrwt>
<pdfrwt beam="2">  1       -1 0.12422178E+00 0.26478770E+03</pdfrwt>
<totfact> 0.14075554E+02</totfact>
</mgrwt>
</event>
<event>
 4    1  0.1678003E-008  0.9120633E+03  0.7818608E-02  0.9410626E-01
         -1   -1    0    0    0  501 -0.00000000000E+00  0.00000000000E+00  0.20972174526E+04  0.20972174527E+04  0.50400000000E-02 0.  1.
          1   -1    0    0  501    0  0.00000000000E+00 -0.00000000000E+00 -0.11108534779E+04  0.11108534779E+04  0.50400000000E-02 0. -1.
    8880022    1    1    2    0    0  0.80405328253E+03 -0.40245016509E+03  0.17793473895E+04  0.19994840840E+04  0.15294330000E+03 0.  0.
    8880022    1    1    2    0    0 -0.80405328253E+03  0.40245016509E+03 -0.79298341482E+03  0.12085868466E+04  0.15294330000E+03 0.  0.
<mgrwt>
<rscale>  0 0.91206330E+03</rscale>
<asrwt>0</asrwt>
<pdfrwt beam="1">  1        1 0.17090054E+00 0.91206330E+03</pdfrwt>
<pdfrwt beam="2">  1       -1 0.32264883E+00 0.91206330E+03</pdfrwt>
<totfact> 0.30249497E-01</totfact>
</mgrwt>
</event>
<event>
 4    1  0.1678003E-008  0.5093876E+03  0.7818608E-02  0.1011357E+00
         -1   -1    0    0    0  501 -0.00000000000E+00  0.00000000000E+00  0.31280141919E+03  0.31280141924E+03  0.50400000000E-02 0.  1.
          1   -1    0    0  501    0  0.00000000000E+00 -0.00000000000E+00 -0.11014349036E+04  0.11014349036E+04  0.50400000000E-02 0. -1.
    8880022    1    1    2    0    0  0.46478284271E+03 -0.14163665020E+03 -0.42976887455E+02  0.51119731751E+03  0.15294330000E+03 0.  0.
    8880022    1    1    2    0    0 -0.46478284271E+03  0.14163665020E+03 -0.74565659692E+03  0.90303900530E+03  0.15294330000E+03 0.  0.
<mgrwt>
<rscale>  0 0.50938756E+03</rscale>
<asrwt>0</asrwt>
<pdfrwt beam="1">  1        1 0.16945152E+00 0.50938756E+03</pdfrwt>
<pdfrwt beam="2">  1       -1 0.48123296E-01 0.50938756E+03</pdfrwt>
<totfact> 0.57513944E+01</totfact>
</mgrwt>
</event>
<event>
 4    1  0.1678003E-008  0.1060072E+04  0.7818608E-02  0.9245006E-01
         -1   -1    0    0    0  501 -0.00000000000E+00  0.00000000000E+00  0.41324773781E+03  0.41324773784E+03  0.50400000000E-02 0.  1.
          1   -1    0    0  501    0  0.00000000000E+00 -0.00000000000E+00 -0.37246704192E+04  0.37246704192E+04  0.50400000000E-02 0. -1.
    8880022    1    1    2    0    0  0.33041370293E+03 -0.99558453211E+03 -0.27306072230E+04  0.29291584516E+04  0.15294330000E+03 0.  0.
    8880022    1    1    2    0    0 -0.33041370293E+03  0.99558453211E+03 -0.58081545843E+03  0.12087597054E+04  0.15294330000E+03 0.  0.
<mgrwt>
<rscale>  0 0.10600724E+04</rscale>
<asrwt>0</asrwt>
<pdfrwt beam="1">  1        1 0.57302619E+00 0.10600724E+04</pdfrwt>
<pdfrwt beam="2">  1       -1 0.63576578E-01 0.10600724E+04</pdfrwt>
<totfact> 0.42756468E-01</totfact>
</mgrwt>
</event>
<event>
 4    1  0.1678003E-008  0.5853455E+03  0.7818608E-02  0.9936285E-01
         -1   -1    0    0    0  501 -0.00000000000E+00  0.00000000000E+00  0.30709611733E+03  0.30709611737E+03  0.50400000000E-02 0.  1.
          1   -1    0    0  501    0  0.00000000000E+00 -0.00000000000E+00 -0.27380366068E+04  0.27380366068E+04  0.50400000000E-02 0. -1.
    8880022    1    1    2    0    0  0.31047268082E+03  0.47206401955E+03 -0.43474287323E+02  0.58695774189E+03  0.15294330000E+03 0.  0.
    8880022    1    1    2    0    0 -0.31047268082E+03 -0.47206401955E+03 -0.23874662021E+04  0.24581749822E+04  0.15294330000E+03 0.  0.
<mgrwt>
<rscale>  0 0.58534552E+03</rscale>
<asrwt>0</asrwt>
<pdfrwt beam="1">  1        1 0.42123639E+00 0.58534552E+03</pdfrwt>
<pdfrwt beam="2">  1       -1 0.47245558E-01 0.58534552E+03</pdfrwt>
<totfact> 0.45417551E+00</totfact>
</mgrwt>
</event>
<event>
 4    1  0.1678003E-008  0.3767629E+03  0.7818608E-02  0.1052137E+00
         -1   -1    0    0    0  501 -0.00000000000E+00  0.00000000000E+00  0.61794448039E+03  0.61794448041E+03  0.50400000000E-02 0.  1.
          1   -1    0    0  501    0  0.00000000000E+00 -0.00000000000E+00 -0.75001560587E+03  0.75001560589E+03  0.50400000000E-02 0. -1.
    8880022    1    1    2    0    0 -0.33657914325E+03  0.72616390823E+02 -0.63572214234E+03  0.73898102490E+03  0.15294330000E+03 0.  0.
    8880022    1    1    2    0    0  0.33657914325E+03 -0.72616390823E+02  0.50365101685E+03  0.62897906140E+03  0.15294330000E+03 0.  0.
<mgrwt>
<rscale>  0 0.37676294E+03</rscale>
<asrwt>0</asrwt>
<pdfrwt beam="1">  1        1 0.11538702E+00 0.37676294E+03</pdfrwt>
<pdfrwt beam="2">  1       -1 0.95068382E-01 0.37676294E+03</pdfrwt>
<totfact> 0.28393905E+01</totfact>
</mgrwt>
</event>
<event>
 4    1  0.1678003E-008  0.3719383E+03  0.7818608E-02  0.1053954E+00
         -1   -1    0    0    0  501 -0.00000000000E+00  0.00000000000E+00  0.83454872291E+02  0.83454872443E+02  0.50400000000E-02 0.  1.
          1   -1    0    0  501    0  0.00000000000E+00 -0.00000000000E+00 -0.22330068108E+04  0.22330068108E+04  0.50400000000E-02 0. -1.
    8880022    1    1    2    0    0  0.21869422169E+03  0.25907390079E+03 -0.48684998660E+03  0.61266712915E+03  0.15294330000E+03 0.  0.
    8880022    1    1    2    0    0 -0.21869422169E+03 -0.25907390079E+03 -0.16627019519E+04  0.17037945541E+04  0.15294330000E+03 0.  0.
<mgrwt>
<rscale>  0 0.37193830E+03</rscale>
<asrwt>0</asrwt>
<pdfrwt beam="1">  1        1 0.34353946E+00 0.37193830E+03</pdfrwt>
<pdfrwt beam="2">  1       -1 0.12839213E-01 0.37193830E+03</pdfrwt>
<totfact> 0.95856964E+01</totfact>
</mgrwt>
</event>
<event>
 4    1  0.1678003E-008  0.5139927E+03  0.7818608E-02  0.1010190E+00
         -1   -1    0    0    0  501 -0.00000000000E+00  0.00000000000E+00  0.11517797287E+03  0.11517797298E+03  0.50400000000E-02 0.  1.
          1   -1    0    0  501    0  0.00000000000E+00 -0.00000000000E+00 -0.29223800119E+04  0.29223800119E+04  0.50400000000E-02 0. -1.
    8880022    1    1    2    0    0 -0.48243065375E+03  0.89763711267E+02 -0.21080129133E+04  0.21697711758E+04  0.15294330000E+03 0.  0.
    8880022    1    1    2    0    0  0.48243065375E+03 -0.89763711267E+02 -0.69918912573E+03  0.86778680912E+03  0.15294330000E+03 0.  0.
<mgrwt>
<rscale>  0 0.51399272E+03</rscale>
<asrwt>0</asrwt>
<pdfrwt beam="1">  1        1 0.44959687E+00 0.51399272E+03</pdfrwt>
<pdfrwt beam="2">  1       -1 0.17719690E-01 0.51399272E+03</pdfrwt>
<totfact> 0.18796807E+01</totfact>
</mgrwt>
</event>
<event>
 4    1  0.1678003E-008  0.9666592E+03  0.7818608E-02  0.9345888E-01
         -1   -1    0    0    0  501 -0.00000000000E+00  0.00000000000E+00  0.17545605855E+04  0.17545605855E+04  0.50400000000E-02 0.  1.
          1   -1    0    0  501    0  0.00000000000E+00 -0.00000000000E+00 -0.71486962901E+03  0.71486962903E+03  0.50400000000E-02 0. -1.
    8880022    1    1    2    0    0 -0.59786144698E+03 -0.74404306049E+03  0.11433558957E+04  0.14972283536E+04  0.15294330000E+03 0.  0.
    8880022    1    1    2    0    0  0.59786144698E+03  0.74404306049E+03 -0.10366493926E+03  0.97220186088E+03  0.15294330000E+03 0.  0.
<mgrwt>
<rscale>  0 0.96665922E+03</rscale>
<asrwt>0</asrwt>
<pdfrwt beam="1">  1        1 0.10997994E+00 0.96665922E+03</pdfrwt>
<pdfrwt beam="2">  1       -1 0.26993240E+00 0.96665922E+03</pdfrwt>
<totfact> 0.13847948E+00</totfact>
</mgrwt>
</event>
<event>
 4    1  0.1678003E-008  0.4079366E+03  0.7818608E-02  0.1041066E+00
         -1   -1    0    0    0  501 -0.00000000000E+00  0.00000000000E+00  0.21354060056E+03  0.21354060062E+03  0.50400000000E-02 0.  1.
          1   -1    0    0  501    0  0.00000000000E+00 -0.00000000000E+00 -0.27689406446E+04  0.27689406447E+04  0.50400000000E-02 0. -1.
    8880022    1    1    2    0    0  0.11280224775E+03  0.36096578007E+03 -0.13609510996E+02  0.40816358643E+03  0.15294330000E+03 0.  0.
    8880022    1    1    2    0    0 -0.11280224775E+03 -0.36096578007E+03 -0.25417905331E+04  0.25743176588E+04  0.15294330000E+03 0.  0.
<mgrwt>
<rscale>  0 0.40793663E+03</rscale>
<asrwt>0</asrwt>
<pdfrwt beam="1">  1        1 0.42599084E+00 0.40793663E+03</pdfrwt>
<pdfrwt beam="2">  1       -1 0.32852402E-01 0.40793663E+03</pdfrwt>
<totfact> 0.87428200E+00</totfact>
</mgrwt>
</event>
<event>
 4    1  0.1678003E-008  0.7021309E+03  0.7818608E-02  0.9713595E-01
         -1   -1    0    0    0  501 -0.00000000000E+00  0.00000000000E+00  0.13614163471E+04  0.13614163471E+04  0.50400000000E-02 0.  1.
          1   -1    0    0  501    0  0.00000000000E+00 -0.00000000000E+00 -0.46915768848E+03  0.46915768851E+03  0.50400000000E-02 0. -1.
    8880022    1    1    2    0    0 -0.61617481945E+03 -0.29987447927E+03  0.89308458892E+01  0.70218767040E+03  0.15294330000E+03 0. -1.
    8880022    1    1    2    0    0  0.61617481945E+03  0.29987447927E+03  0.88332781271E+03  0.11283863652E+04  0.15294330000E+03 0.  1.
<mgrwt>
<rscale>  0 0.70213087E+03</rscale>
<asrwt>0</asrwt>
<pdfrwt beam="1">  1        1 0.72178106E-01 0.70213087E+03</pdfrwt>
<pdfrwt beam="2">  1       -1 0.20944867E+00 0.70213087E+03</pdfrwt>
<totfact> 0.65353456E+00</totfact>
</mgrwt>
</event>
<event>
 4    1  0.1678003E-008  0.6988452E+03  0.7818608E-02  0.9719209E-01
          1   -1    0    0  501    0  0.00000000000E+00  0.00000000000E+00  0.80763383962E+03  0.80763383964E+03  0.50400000000E-02 0. -1.
         -1   -1    0    0    0  501 -0.00000000000E+00 -0.00000000000E+00 -0.80130212285E+03  0.80130212286E+03  0.50400000000E-02 0.  1.
    8880022    1    1    2    0    0  0.41566758261E+03 -0.54056772854E+03  0.40163355818E+03  0.80603608879E+03  0.15294330000E+03 0.  0.
    8880022    1    1    2    0    0 -0.41566758261E+03  0.54056772854E+03 -0.39530184140E+03  0.80289987371E+03  0.15294330000E+03 0.  0.
<mgrwt>
<rscale>  0 0.69884523E+03</rscale>
<asrwt>0</asrwt>
<pdfrwt beam="1">  1        1 0.12425136E+00 0.69884523E+03</pdfrwt>
<pdfrwt beam="2">  1       -1 0.12327725E+00 0.69884523E+03</pdfrwt>
<totfact> 0.13075585E+01</totfact>
</mgrwt>
</event>
<event>
 4    1  0.1678003E-008  0.6466860E+03  0.7818608E-02  0.9813018E-01
          1   -1    0    0  501    0  0.00000000000E+00  0.00000000000E+00  0.12829692438E+04  0.12829692438E+04  0.50400000000E-02 0. -1.
         -1   -1    0    0    0  501 -0.00000000000E+00 -0.00000000000E+00 -0.35167223343E+03  0.35167223347E+03  0.50400000000E-02 0.  1.
    8880022    1    1    2    0    0  0.63472441529E+01  0.62830792240E+03  0.68662852968E+03  0.94321870404E+03  0.15294330000E+03 0.  0.
    8880022    1    1    2    0    0 -0.63472441529E+01 -0.62830792240E+03  0.24466848065E+03  0.69142277320E+03  0.15294330000E+03 0.  0.
<mgrwt>
<rscale>  0 0.64668600E+03</rscale>
<asrwt>0</asrwt>
<pdfrwt beam="1">  1        1 0.19737989E+00 0.64668600E+03</pdfrwt>
<pdfrwt beam="2">  1       -1 0.54103420E-01 0.64668600E+03</pdfrwt>
<totfact> 0.33449303E+01</totfact>
</mgrwt>
</event>
<event>
 4    1  0.1678003E-008  0.3397912E+03  0.7818608E-02  0.1066885E+00
          1   -1    0    0  501    0  0.00000000000E+00  0.00000000000E+00  0.25698561011E+03  0.25698561016E+03  0.50400000000E-02 0. -1.
         -1   -1    0    0    0  501 -0.00000000000E+00 -0.00000000000E+00 -0.75685720664E+03  0.75685720666E+03  0.50400000000E-02 0.  1.
    8880022    1    1    2    0    0  0.71844065057E+02  0.29479621035E+03  0.73220045306E+02  0.34759056859E+03  0.15294330000E+03 0.  0.
    8880022    1    1    2    0    0 -0.71844065057E+02 -0.29479621035E+03 -0.57309164184E+03  0.66625224824E+03  0.15294330000E+03 0.  0.
<mgrwt>
<rscale>  0 0.33979115E+03</rscale>
<asrwt>0</asrwt>
<pdfrwt beam="1">  1        1 0.39536248E-01 0.33979115E+03</pdfrwt>
<pdfrwt beam="2">  1       -1 0.11643957E+00 0.33979115E+03</pdfrwt>
<totfact> 0.75656670E+01</totfact>
</mgrwt>
</event>
<event>
 4    1  0.1678003E-008  0.3368953E+03  0.7818608E-02  0.1068126E+00
          1   -1    0    0  501    0  0.00000000000E+00  0.00000000000E+00  0.24008295732E+03  0.24008295737E+03  0.50400000000E-02 0. -1.
         -1   -1    0    0    0  501 -0.00000000000E+00 -0.00000000000E+00 -0.89919815230E+03  0.89919815231E+03  0.50400000000E-02 0.  1.
    8880022    1    1    2    0    0 -0.75448666923E+02  0.29054133688E+03  0.62733094103E+02  0.34268624701E+03  0.15294330000E+03 0.  0.
    8880022    1    1    2    0    0  0.75448666923E+02 -0.29054133688E+03 -0.72184828908E+03  0.79659486268E+03  0.15294330000E+03 0.  1.
<mgrwt>
<rscale>  0 0.33689527E+03</rscale>
<asrwt>0</asrwt>
<pdfrwt beam="1">  1        1 0.36935840E-01 0.33689527E+03</pdfrwt>
<pdfrwt beam="2">  1       -1 0.13833818E+00 0.33689527E+03</pdfrwt>
<totfact> 0.54051848E+01</totfact>
</mgrwt>
</event>
<event>
 4    1  0.1678003E-008  0.3337694E+03  0.7818608E-02  0.1069481E+00
          1   -1    0    0  501    0  0.00000000000E+00  0.00000000000E+00  0.19549787951E+04  0.19549787952E+04  0.50400000000E-02 0. -1.
         -1   -1    0    0    0  501 -0.00000000000E+00 -0.00000000000E+00 -0.12082355268E+03  0.12082355278E+03  0.50400000000E-02 0.  1.
    8880022    1    1    2    0    0 -0.24027349024E+02 -0.29569076204E+03  0.16263533565E+03  0.37128458852E+03  0.15294330000E+03 0.  0.
    8880022    1    1    2    0    0  0.24027349024E+02  0.29569076204E+03  0.16715199068E+04  0.17045177594E+04  0.15294330000E+03 0.  0.
<mgrwt>
<rscale>  0 0.33376937E+03</rscale>
<asrwt>0</asrwt>
<pdfrwt beam="1">  1        1 0.30076595E+00 0.33376937E+03</pdfrwt>
<pdfrwt beam="2">  1       -1 0.18588240E-01 0.33376937E+03</pdfrwt>
<totfact> 0.81220945E+01</totfact>
</mgrwt>
</event>
<event>
 4    1  0.1678003E-008  0.2781248E+03  0.7818608E-02  0.1096718E+00
         -1   -1    0    0    0  501 -0.00000000000E+00  0.00000000000E+00  0.12724007321E+04  0.12724007321E+04  0.50400000000E-02 0.  1.
          1   -1    0    0  501    0  0.00000000000E+00 -0.00000000000E+00 -0.97394638875E+03  0.97394638876E+03  0.50400000000E-02 0. -1.
    8880022    1    1    2    0    0  0.22824133541E+03  0.43216057486E+02 -0.93832763364E+03  0.97867877053E+03  0.15294330000E+03 0. -1.
    8880022    1    1    2    0    0 -0.22824133541E+03 -0.43216057486E+02  0.12367819770E+04  0.12676683503E+04  0.15294330000E+03 0.  0.
<mgrwt>
<rscale>  0 0.27812477E+03</rscale>
<asrwt>0</asrwt>
<pdfrwt beam="1">  1        1 0.14983791E+00 0.27812477E+03</pdfrwt>
<pdfrwt beam="2">  1       -1 0.19575396E+00 0.27812477E+03</pdfrwt>
<totfact> 0.30347547E+00</totfact>
</mgrwt>
</event>
<event>
 4    1  0.1678003E-008  0.8491858E+03  0.7818608E-02  0.9491430E-01
         -1   -1    0    0    0  501 -0.00000000000E+00  0.00000000000E+00  0.14338560109E+04  0.14338560109E+04  0.50400000000E-02 0.  1.
          1   -1    0    0  501    0  0.00000000000E+00 -0.00000000000E+00 -0.11298674195E+04  0.11298674196E+04  0.50400000000E-02 0. -1.
    8880022    1    1    2    0    0 -0.96910854422E+01 -0.83524303645E+03  0.11068606673E+04  0.13950831649E+04  0.15294330000E+03 0.  0.
    8880022    1    1    2    0    0  0.96910854422E+01  0.83524303645E+03 -0.80287207593E+03  0.11686402656E+04  0.15294330000E+03 0.  0.
<mgrwt>
<rscale>  0 0.84918579E+03</rscale>
<asrwt>0</asrwt>
<pdfrwt beam="1">  1        1 0.17382576E+00 0.84918579E+03</pdfrwt>
<pdfrwt beam="2">  1       -1 0.22059323E+00 0.84918579E+03</pdfrwt>
<totfact> 0.13521549E+00</totfact>
</mgrwt>
</event>
<event>
 4    1  0.1678003E-008  0.5180855E+03  0.7818608E-02  0.1009163E+00
          1   -1    0    0  501    0  0.00000000000E+00  0.00000000000E+00  0.17734333149E+04  0.17734333149E+04  0.50400000000E-02 0. -1.
         -1   -1    0    0    0  501 -0.00000000000E+00 -0.00000000000E+00 -0.37040688436E+03  0.37040688440E+03  0.50400000000E-02 0.  1.
    8880022    1    1    2    0    0 -0.29220619365E+03 -0.39954539227E+03  0.15258399514E+04  0.16113969686E+04  0.15294330000E+03 0.  0.
    8880022    1    1    2    0    0  0.29220619365E+03  0.39954539227E+03 -0.12281352080E+03  0.53244323077E+03  0.15294330000E+03 0.  0.
<mgrwt>
<rscale>  0 0.51808555E+03</rscale>
<asrwt>0</asrwt>
<pdfrwt beam="1">  1        1 0.27283589E+00 0.51808555E+03</pdfrwt>
<pdfrwt beam="2">  1       -1 0.56985675E-01 0.51808555E+03</pdfrwt>
<totfact> 0.14353508E+01</totfact>
</mgrwt>
</event>
<event>
 4    1  0.1678003E-008  0.7006809E+03  0.7818608E-02  0.9716069E-01
         -1   -1    0    0    0  501 -0.00000000000E+00  0.00000000000E+00  0.92725253669E+03  0.92725253670E+03  0.50400000000E-02 0.  1.
          1   -1    0    0  501    0  0.00000000000E+00 -0.00000000000E+00 -0.79385992940E+03  0.79385992941E+03  0.50400000000E-02 0. -1.
    8880022    1    1    2    0    0  0.38138542076E+03 -0.56754486571E+03  0.56332138236E+03  0.89904652082E+03  0.15294330000E+03 0.  0.
    8880022    1    1    2    0    0 -0.38138542076E+03  0.56754486571E+03 -0.42992877507E+03  0.82206594529E+03  0.15294330000E+03 0.  0.
<mgrwt>
<rscale>  0 0.70068086E+03</rscale>
<asrwt>0</asrwt>
<pdfrwt beam="1">  1        1 0.12213230E+00 0.70068086E+03</pdfrwt>
<pdfrwt beam="2">  1       -1 0.14265424E+00 0.70068086E+03</pdfrwt>
<totfact> 0.92764737E+00</totfact>
</mgrwt>
</event>
<event>
 4    1  0.1678003E-008  0.4378268E+03  0.7818608E-02  0.1031416E+00
         -1   -1    0    0    0  501 -0.00000000000E+00  0.00000000000E+00  0.54942025781E+03  0.54942025783E+03  0.50400000000E-02 0.  1.
          1   -1    0    0  501    0  0.00000000000E+00 -0.00000000000E+00 -0.47379540572E+03  0.47379540574E+03  0.50400000000E-02 0. -1.
    8880022    1    1    2    0    0 -0.18775693346E+03  0.36475745854E+03 -0.22486108294E+03  0.49219389397E+03  0.15294330000E+03 0.  1.
    8880022    1    1    2    0    0  0.18775693346E+03 -0.36475745854E+03  0.30048593503E+03  0.53102176961E+03  0.15294330000E+03 0.  1.
<mgrwt>
<rscale>  0 0.43782682E+03</rscale>
<asrwt>0</asrwt>
<pdfrwt beam="1">  1        1 0.72891601E-01 0.43782682E+03</pdfrwt>
<pdfrwt beam="2">  1       -1 0.84526193E-01 0.43782682E+03</pdfrwt>
<totfact> 0.69538254E+01</totfact>
</mgrwt>
</event>
<event>
 4    1  0.1678003E-008  0.9300309E+03  0.7818608E-02  0.9388801E-01
         -1   -1    0    0    0  501 -0.00000000000E+00  0.00000000000E+00  0.48616041488E+03  0.48616041491E+03  0.50400000000E-02 0.  1.
          1   -1    0    0  501    0  0.00000000000E+00 -0.00000000000E+00 -0.22846860985E+04  0.22846860985E+04  0.50400000000E-02 0. -1.
    8880022    1    1    2    0    0  0.55710591957E+03  0.72883381571E+03 -0.15509524495E+04  0.18084277398E+04  0.15294330000E+03 0.  0.
    8880022    1    1    2    0    0 -0.55710591957E+03 -0.72883381571E+03 -0.24757323416E+03  0.96241877363E+03  0.15294330000E+03 0.  1.
<mgrwt>
<rscale>  0 0.93003085E+03</rscale>
<asrwt>0</asrwt>
<pdfrwt beam="1">  1        1 0.35149016E+00 0.93003085E+03</pdfrwt>
<pdfrwt beam="2">  1       -1 0.74793911E-01 0.93003085E+03</pdfrwt>
<totfact> 0.35165117E+00</totfact>
</mgrwt>
</event>
<event>
 4    1  0.1678003E-008  0.9418543E+03  0.7818608E-02  0.9374723E-01
         -1   -1    0    0    0  501 -0.00000000000E+00  0.00000000000E+00  0.70333610078E+03  0.70333610079E+03  0.50400000000E-02 0.  1.
          1   -1    0    0  501    0  0.00000000000E+00 -0.00000000000E+00 -0.14212899884E+04  0.14212899884E+04  0.50400000000E-02 0. -1.
    8880022    1    1    2    0    0  0.34879129543E+03 -0.86141885322E+03 -0.25157192454E+01  0.94185762741E+03  0.15294330000E+03 0.  0.
    8880022    1    1    2    0    0 -0.34879129543E+03  0.86141885322E+03 -0.71543816840E+03  0.11827684618E+04  0.15294330000E+03 0.  0.
<mgrwt>
<rscale>  0 0.94185427E+03</rscale>
<asrwt>0</asrwt>
<pdfrwt beam="1">  1        1 0.21866000E+00 0.94185427E+03</pdfrwt>
<pdfrwt beam="2">  1       -1 0.10820555E+00 0.94185427E+03</pdfrwt>
<totfact> 0.59603634E+00</totfact>
</mgrwt>
</event>
<event>
 4    1  0.1678003E-008  0.5174461E+03  0.7818608E-02  0.1009323E+00
         -1   -1    0    0    0  501 -0.00000000000E+00  0.00000000000E+00  0.21797984692E+03  0.21797984698E+03  0.50400000000E-02 0.  1.
          1   -1    0    0  501    0  0.00000000000E+00 -0.00000000000E+00 -0.17512685627E+04  0.17512685627E+04  0.50400000000E-02 0. -1.
    8880022    1    1    2    0    0 -0.11070102814E+03  0.48177186203E+03 -0.22859666133E+03  0.56569155134E+03  0.15294330000E+03 0.  0.
    8880022    1    1    2    0    0  0.11070102814E+03 -0.48177186203E+03 -0.13046920545E+04  0.14035568584E+04  0.15294330000E+03 0.  0.
<mgrwt>
<rscale>  0 0.51744613E+03</rscale>
<asrwt>0</asrwt>
<pdfrwt beam="1">  1        1 0.26942592E+00 0.51744613E+03</pdfrwt>
<pdfrwt beam="2">  1       -1 0.33535362E-01 0.51744613E+03</pdfrwt>
<totfact> 0.39343086E+01</totfact>
</mgrwt>
</event>
<event>
 4    1  0.1678003E-008  0.8394254E+03  0.7818608E-02  0.9504641E-01
         -1   -1    0    0    0  501 -0.00000000000E+00  0.00000000000E+00  0.68744755834E+03  0.68744755836E+03  0.50400000000E-02 0.  1.
          1   -1    0    0  501    0  0.00000000000E+00 -0.00000000000E+00 -0.17676585831E+04  0.17676585831E+04  0.50400000000E-02 0. -1.
    8880022    1    1    2    0    0  0.79584633727E+03 -0.21879666956E+03  0.25556844075E+03  0.87746809405E+03  0.15294330000E+03 0.  0.
    8880022    1    1    2    0    0 -0.79584633727E+03  0.21879666956E+03 -0.13357794655E+04  0.15776380474E+04  0.15294330000E+03 0.  0.
<mgrwt>
<rscale>  0 0.83942542E+03</rscale>
<asrwt>0</asrwt>
<pdfrwt beam="1">  1        1 0.27194747E+00 0.83942542E+03</pdfrwt>
<pdfrwt beam="2">  1       -1 0.10576116E+00 0.83942542E+03</pdfrwt>
<totfact> 0.37018528E+00</totfact>
</mgrwt>
</event>
<event>
 4    1  0.1678003E-008  0.4262986E+03  0.7818608E-02  0.1035036E+00
         -1   -1    0    0    0  501 -0.00000000000E+00  0.00000000000E+00  0.25021972546E+03  0.25021972551E+03  0.50400000000E-02 0.  1.
          1   -1    0    0  501    0  0.00000000000E+00 -0.00000000000E+00 -0.12417130474E+04  0.12417130474E+04  0.50400000000E-02 0. -1.
    8880022    1    1    2    0    0 -0.38841540193E+03 -0.86442526221E+02 -0.15136175474E+02  0.42656721817E+03  0.15294330000E+03 0.  1.
    8880022    1    1    2    0    0  0.38841540193E+03  0.86442526221E+02 -0.97635714648E+03  0.10653655548E+04  0.15294330000E+03 0.  0.
<mgrwt>
<rscale>  0 0.42629859E+03</rscale>
<asrwt>0</asrwt>
<pdfrwt beam="1">  1        1 0.19103277E+00 0.42629859E+03</pdfrwt>
<pdfrwt beam="2">  1       -1 0.38495343E-01 0.42629859E+03</pdfrwt>
<totfact> 0.69419103E+01</totfact>
</mgrwt>
</event>
<event>
 4    1  0.1678003E-008  0.8784573E+03  0.7818608E-02  0.9452919E-01
         -1   -1    0    0    0  501 -0.00000000000E+00  0.00000000000E+00  0.13065842882E+04  0.13065842882E+04  0.50400000000E-02 0.  1.
          1   -1    0    0  501    0  0.00000000000E+00 -0.00000000000E+00 -0.10418296978E+04  0.10418296978E+04  0.50400000000E-02 0. -1.
    8880022    1    1    2    0    0 -0.86504068999E+03  0.49388832150E+00  0.90512598693E+03  0.12613248370E+04  0.15294330000E+03 0.  0.
    8880022    1    1    2    0    0  0.86504068999E+03 -0.49388832150E+00 -0.64037139659E+03  0.10870891490E+04  0.15294330000E+03 0.  0.
<mgrwt>
<rscale>  0 0.87845734E+03</rscale>
<asrwt>0</asrwt>
<pdfrwt beam="1">  1        1 0.16028149E+00 0.87845734E+03</pdfrwt>
<pdfrwt beam="2">  1       -1 0.20101297E+00 0.87845734E+03</pdfrwt>
<totfact> 0.21247074E+00</totfact>
</mgrwt>
</event>
<event>
 4    1  0.1678003E-008  0.2073987E+03  0.7818608E-02  0.1143643E+00
         -1   -1    0    0    0  501 -0.00000000000E+00  0.00000000000E+00  0.17675484787E+03  0.17675484794E+03  0.50400000000E-02 0.  1.
          1   -1    0    0  501    0  0.00000000000E+00 -0.00000000000E+00 -0.12454446763E+04  0.12454446763E+04  0.50400000000E-02 0. -1.
    8880022    1    1    2    0    0  0.23708181366E+02  0.13805966353E+03  0.10350951521E+03  0.23179391992E+03  0.15294330000E+03 0.  1.
    8880022    1    1    2    0    0 -0.23708181366E+02 -0.13805966353E+03 -0.11721993437E+04  0.11904056043E+04  0.15294330000E+03 0.  0.
<mgrwt>
<rscale>  0 0.20739865E+03</rscale>
<asrwt>0</asrwt>
<pdfrwt beam="1">  1        1 0.19160687E+00 0.20739865E+03</pdfrwt>
<pdfrwt beam="2">  1       -1 0.27193054E-01 0.20739865E+03</pdfrwt>
<totfact> 0.13205369E+02</totfact>
</mgrwt>
</event>
<event>
 4    1  0.1678003E-008  0.4205331E+03  0.7818608E-02  0.1036893E+00
         -1   -1    0    0    0  501 -0.00000000000E+00  0.00000000000E+00  0.13300860171E+03  0.13300860180E+03  0.50400000000E-02 0.  1.
          1   -1    0    0  501    0  0.00000000000E+00 -0.00000000000E+00 -0.21273557196E+04  0.21273557196E+04  0.50400000000E-02 0. -1.
    8880022    1    1    2    0    0 -0.19056834367E+03  0.34225743505E+03 -0.30508186542E+03  0.51954118517E+03  0.15294330000E+03 0.  0.
    8880022    1    1    2    0    0  0.19056834367E+03 -0.34225743505E+03 -0.16892652524E+04  0.17408231362E+04  0.15294330000E+03 0.  0.
<mgrwt>
<rscale>  0 0.42053311E+03</rscale>
<asrwt>0</asrwt>
<pdfrwt beam="1">  1        1 0.32728547E+00 0.42053311E+03</pdfrwt>
<pdfrwt beam="2">  1       -1 0.20462863E-01 0.42053311E+03</pdfrwt>
<totfact> 0.52415559E+01</totfact>
</mgrwt>
</event>
<event>
 4    1  0.1678003E-008  0.2709430E+03  0.7818608E-02  0.1100741E+00
         -1   -1    0    0    0  501 -0.00000000000E+00  0.00000000000E+00  0.10756833807E+04  0.10756833807E+04  0.50400000000E-02 0.  1.
          1   -1    0    0  501    0  0.00000000000E+00 -0.00000000000E+00 -0.20058891162E+03  0.20058891168E+03  0.50400000000E-02 0. -1.
    8880022    1    1    2    0    0 -0.10509074853E+03 -0.19741926793E+03 -0.80789222130E+02  0.28273129328E+03  0.15294330000E+03 0. -1.
    8880022    1    1    2    0    0  0.10509074853E+03  0.19741926793E+03  0.95588369116E+03  0.99354099907E+03  0.15294330000E+03 0.  0.
<mgrwt>
<rscale>  0 0.27094296E+03</rscale>
<asrwt>0</asrwt>
<pdfrwt beam="1">  1        1 0.30859832E-01 0.27094296E+03</pdfrwt>
<pdfrwt beam="2">  1       -1 0.16548975E+00 0.27094296E+03</pdfrwt>
<totfact> 0.42747778E+01</totfact>
</mgrwt>
</event>
<event>
 4    1  0.1678003E-008  0.6934154E+03  0.7818608E-02  0.9728559E-01
          1   -1    0    0  501    0  0.00000000000E+00  0.00000000000E+00  0.34870392295E+04  0.34870392295E+04  0.50400000000E-02 0. -1.
         -1   -1    0    0    0  501 -0.00000000000E+00 -0.00000000000E+00 -0.60646373796E+03  0.60646373798E+03  0.50400000000E-02 0.  1.
    8880022    1    1    2    0    0  0.65528198832E+03 -0.16744776862E+03 -0.35879881100E+03  0.78074418296E+03  0.15294330000E+03 0.  0.
    8880022    1    1    2    0    0 -0.65528198832E+03  0.16744776862E+03  0.32393743026E+04  0.33127587846E+04  0.15294330000E+03 0.  0.
<mgrwt>
<rscale>  0 0.69341538E+03</rscale>
<asrwt>0</asrwt>
<pdfrwt beam="1">  1        1 0.53646758E+00 0.69341538E+03</pdfrwt>
<pdfrwt beam="2">  1       -1 0.93302113E-01 0.69341538E+03</pdfrwt>
<totfact> 0.31796454E-01</totfact>
</mgrwt>
</event>
<event>
 4    1  0.1678003E-008  0.6021735E+03  0.7818608E-02  0.9900907E-01
          1   -1    0    0  501    0  0.00000000000E+00  0.00000000000E+00  0.19311334253E+04  0.19311334253E+04  0.50400000000E-02 0. -1.
         -1   -1    0    0    0  501 -0.00000000000E+00 -0.00000000000E+00 -0.42086910494E+03  0.42086910497E+03  0.50400000000E-02 0.  1.
    8880022    1    1    2    0    0 -0.53410277773E+03  0.23228320725E+03  0.16303227541E+04  0.17379773305E+04  0.15294330000E+03 0. -1.
    8880022    1    1    2    0    0  0.53410277773E+03 -0.23228320725E+03 -0.12005843373E+03  0.61402519986E+03  0.15294330000E+03 0.  0.
<mgrwt>
<rscale>  0 0.60217350E+03</rscale>
<asrwt>0</asrwt>
<pdfrwt beam="1">  1        1 0.29709745E+00 0.60217350E+03</pdfrwt>
<pdfrwt beam="2">  1       -1 0.64749092E-01 0.60217350E+03</pdfrwt>
<totfact> 0.86207934E+00</totfact>
</mgrwt>
</event>
<event>
 4    1  0.1678003E-008  0.1127227E+04  0.7818608E-02  0.9179053E-01
         -1   -1    0    0    0  501 -0.00000000000E+00  0.00000000000E+00  0.90575752711E+03  0.90575752712E+03  0.50400000000E-02 0.  1.
          1   -1    0    0  501    0  0.00000000000E+00 -0.00000000000E+00 -0.17117794499E+04  0.17117794499E+04  0.50400000000E-02 0. -1.
    8880022    1    1    2    0    0  0.47722339601E+03  0.10097066951E+04 -0.95900352138E+03  0.14799760765E+04  0.15294330000E+03 0.  0.
    8880022    1    1    2    0    0 -0.47722339601E+03 -0.10097066951E+04  0.15298159862E+03  0.11375609005E+04  0.15294330000E+03 0.  0.
<mgrwt>
<rscale>  0 0.11272273E+04</rscale>
<asrwt>0</asrwt>
<pdfrwt beam="1">  1        1 0.26335068E+00 0.11272273E+04</pdfrwt>
<pdfrwt beam="2">  1       -1 0.13934731E+00 0.11272273E+04</pdfrwt>
<totfact> 0.19667058E+00</totfact>
</mgrwt>
</event>
<event>
 4    1  0.1678003E-008  0.6112099E+03  0.7818608E-02  0.9882418E-01
          1   -1    0    0  501    0  0.00000000000E+00  0.00000000000E+00  0.25214290683E+04  0.25214290683E+04  0.50400000000E-02 0. -1.
         -1   -1    0    0    0  501 -0.00000000000E+00 -0.00000000000E+00 -0.24773506357E+03  0.24773506362E+03  0.50400000000E-02 0.  1.
    8880022    1    1    2    0    0  0.24046113642E+03  0.54070726737E+03  0.20146518692E+04  0.21053265102E+04  0.15294330000E+03 0.  0.
    8880022    1    1    2    0    0 -0.24046113642E+03 -0.54070726737E+03  0.25904213551E+03  0.66383762179E+03  0.15294330000E+03 0.  0.
<mgrwt>
<rscale>  0 0.61120991E+03</rscale>
<asrwt>0</asrwt>
<pdfrwt beam="1">  1        1 0.38791220E+00 0.61120991E+03</pdfrwt>
<pdfrwt beam="2">  1       -1 0.38113083E-01 0.61120991E+03</pdfrwt>
<totfact> 0.94214617E+00</totfact>
</mgrwt>
</event>
<event>
 4    1  0.1678003E-008  0.6010192E+03  0.7818608E-02  0.9903294E-01
         -1   -1    0    0    0  501 -0.00000000000E+00  0.00000000000E+00  0.73480960495E+03  0.73480960497E+03  0.50400000000E-02 0.  1.
          1   -1    0    0  501    0  0.00000000000E+00 -0.00000000000E+00 -0.18511909155E+04  0.18511909155E+04  0.50400000000E-02 0. -1.
    8880022    1    1    2    0    0  0.46079789002E+03  0.35425658642E+03  0.54990931562E+03  0.81463140922E+03  0.15294330000E+03 0.  0.
    8880022    1    1    2    0    0 -0.46079789002E+03 -0.35425658642E+03 -0.16662906261E+04  0.17713691112E+04  0.15294330000E+03 0.  0.
<mgrwt>
<rscale>  0 0.60101920E+03</rscale>
<asrwt>0</asrwt>
<pdfrwt beam="1">  1        1 0.28479860E+00 0.60101920E+03</pdfrwt>
<pdfrwt beam="2">  1       -1 0.11304763E+00 0.60101920E+03</pdfrwt>
<totfact> 0.29139381E+00</totfact>
</mgrwt>
</event>
<event>
 4    1  0.1678003E-008  0.7853168E+03  0.7818608E-02  0.9581517E-01
          1   -1    0    0  501    0  0.00000000000E+00  0.00000000000E+00  0.11854764819E+04  0.11854764819E+04  0.50400000000E-02 0. -1.
         -1   -1    0    0    0  501 -0.00000000000E+00 -0.00000000000E+00 -0.12249793439E+04  0.12249793439E+04  0.50400000000E-02 0.  1.
    8880022    1    1    2    0    0  0.42792534492E+03  0.64047689142E+03  0.89440733072E+03  0.11902465608E+04  0.15294330000E+03 0.  0.
    8880022    1    1    2    0    0 -0.42792534492E+03 -0.64047689142E+03 -0.93391019274E+03  0.12202092650E+04  0.15294330000E+03 0.  0.
<mgrwt>
<rscale>  0 0.78531675E+03</rscale>
<asrwt>0</asrwt>
<pdfrwt beam="1">  1        1 0.18238100E+00 0.78531675E+03</pdfrwt>
<pdfrwt beam="2">  1       -1 0.18845836E+00 0.78531675E+03</pdfrwt>
<totfact> 0.20591760E+00</totfact>
</mgrwt>
</event>
<event>
 4    1  0.1678003E-008  0.8551593E+03  0.7818608E-02  0.9483438E-01
         -1   -1    0    0    0  501 -0.00000000000E+00  0.00000000000E+00  0.10734477706E+04  0.10734477706E+04  0.50400000000E-02 0.  1.
          1   -1    0    0  501    0  0.00000000000E+00 -0.00000000000E+00 -0.10982173839E+04  0.10982173839E+04  0.50400000000E-02 0. -1.
    8880022    1    1    2    0    0 -0.39137744990E+03 -0.74480164909E+03 -0.68144368247E+03  0.10934637398E+04  0.15294330000E+03 0.  0.
    8880022    1    1    2    0    0  0.39137744990E+03  0.74480164909E+03  0.65667406917E+03  0.10782014148E+04  0.15294330000E+03 0.  0.
<mgrwt>
<rscale>  0 0.85515932E+03</rscale>
<asrwt>0</asrwt>
<pdfrwt beam="1">  1        1 0.16895652E+00 0.85515932E+03</pdfrwt>
<pdfrwt beam="2">  1       -1 0.16514581E+00 0.85515932E+03</pdfrwt>
<totfact> 0.34771380E+00</totfact>
</mgrwt>
</event>
<event>
 4    1  0.1678003E-008  0.5692227E+03  0.7818608E-02  0.9971400E-01
         -1   -1    0    0    0  501 -0.00000000000E+00  0.00000000000E+00  0.38966937514E+03  0.38966937517E+03  0.50400000000E-02 0.  1.
          1   -1    0    0  501    0  0.00000000000E+00 -0.00000000000E+00 -0.12844532775E+04  0.12844532775E+04  0.50400000000E-02 0. -1.
    8880022    1    1    2    0    0  0.28115443962E+03 -0.47071759724E+03  0.49680116090E+02  0.57138659612E+03  0.15294330000E+03 0.  0.
    8880022    1    1    2    0    0 -0.28115443962E+03  0.47071759724E+03 -0.94446401840E+03  0.11027360565E+04  0.15294330000E+03 0.  0.
<mgrwt>
<rscale>  0 0.56922274E+03</rscale>
<asrwt>0</asrwt>
<pdfrwt beam="1">  1        1 0.19760820E+00 0.56922274E+03</pdfrwt>
<pdfrwt beam="2">  1       -1 0.59949135E-01 0.56922274E+03</pdfrwt>
<totfact> 0.27659391E+01</totfact>
</mgrwt>
</event>
<event>
 4    1  0.1678003E-008  0.7150567E+03  0.7818608E-02  0.9691824E-01
          1   -1    0    0  501    0  0.00000000000E+00  0.00000000000E+00  0.38336528721E+04  0.38336528721E+04  0.50400000000E-02 0. -1.
         -1   -1    0    0    0  501 -0.00000000000E+00 -0.00000000000E+00 -0.26323048616E+03  0.26323048620E+03  0.50400000000E-02 0.  1.
    8880022    1    1    2    0    0 -0.29787764366E+03 -0.63180960697E+03  0.34644952447E+03  0.79456490992E+03  0.15294330000E+03 0.  0.
    8880022    1    1    2    0    0  0.29787764366E+03  0.63180960697E+03  0.32239728615E+04  0.33023184484E+04  0.15294330000E+03 0.  0.
<mgrwt>
<rscale>  0 0.71505673E+03</rscale>
<asrwt>0</asrwt>
<pdfrwt beam="1">  1        1 0.58979272E+00 0.71505673E+03</pdfrwt>
<pdfrwt beam="2">  1       -1 0.40497000E-01 0.71505673E+03</pdfrwt>
<totfact> 0.88303777E-01</totfact>
</mgrwt>
</event>
<event>
 4    1  0.1678003E-008  0.5328607E+03  0.7818608E-02  0.1005541E+00
          1   -1    0    0  501    0  0.00000000000E+00  0.00000000000E+00  0.82666408260E+03  0.82666408262E+03  0.50400000000E-02 0. -1.
         -1   -1    0    0    0  501 -0.00000000000E+00 -0.00000000000E+00 -0.58152064840E+03  0.58152064842E+03  0.50400000000E-02 0.  1.
    8880022    1    1    2    0    0 -0.50792692571E+03  0.50587842710E+02 -0.32790761712E+03  0.62567080008E+03  0.15294330000E+03 0.  0.
    8880022    1    1    2    0    0  0.50792692571E+03 -0.50587842710E+02  0.57305105133E+03  0.78251393096E+03  0.15294330000E+03 0.  0.
<mgrwt>
<rscale>  0 0.53286072E+03</rscale>
<asrwt>0</asrwt>
<pdfrwt beam="1">  1        1 0.12717909E+00 0.53286072E+03</pdfrwt>
<pdfrwt beam="2">  1       -1 0.89464715E-01 0.53286072E+03</pdfrwt>
<totfact> 0.27090224E+01</totfact>
</mgrwt>
</event>
<event>
 4    1  0.1678003E-008  0.1308171E+04  0.7818608E-02  0.9023110E-01
          1   -1    0    0  501    0  0.00000000000E+00  0.00000000000E+00  0.24022359819E+04  0.24022359819E+04  0.50400000000E-02 0. -1.
         -1   -1    0    0    0  501 -0.00000000000E+00 -0.00000000000E+00 -0.91258501257E+03  0.91258501259E+03  0.50400000000E-02 0.  1.
    8880022    1    1    2    0    0  0.99227877771E+03  0.83863189006E+03 -0.31470874913E+02  0.13085498419E+04  0.15294330000E+03 0.  0.
    8880022    1    1    2    0    0 -0.99227877771E+03 -0.83863189006E+03  0.15211218442E+04  0.20062711526E+04  0.15294330000E+03 0.  0.
<mgrwt>
<rscale>  0 0.13081713E+04</rscale>
<asrwt>0</asrwt>
<pdfrwt beam="1">  1        1 0.36957477E+00 0.13081713E+04</pdfrwt>
<pdfrwt beam="2">  1       -1 0.14039769E+00 0.13081713E+04</pdfrwt>
<totfact> 0.64049091E-01</totfact>
</mgrwt>
</event>
<event>
 4    1  0.1678003E-008  0.5856535E+03  0.7818608E-02  0.9935626E-01
          1   -1    0    0  501    0  0.00000000000E+00  0.00000000000E+00  0.36560466498E+04  0.36560466498E+04  0.50400000000E-02 0. -1.
         -1   -1    0    0    0  501 -0.00000000000E+00 -0.00000000000E+00 -0.95043707493E+02  0.95043707627E+02  0.50400000000E-02 0.  1.
    8880022    1    1    2    0    0  0.45336102591E+03 -0.33773089657E+03  0.15672038321E+04  0.16730564493E+04  0.15294330000E+03 0.  0.
    8880022    1    1    2    0    0 -0.45336102591E+03  0.33773089657E+03  0.19937991102E+04  0.20780339081E+04  0.15294330000E+03 0.  0.
<mgrwt>
<rscale>  0 0.58565351E+03</rscale>
<asrwt>0</asrwt>
<pdfrwt beam="1">  1        1 0.56246863E+00 0.58565351E+03</pdfrwt>
<pdfrwt beam="2">  1       -1 0.14622111E-01 0.58565351E+03</pdfrwt>
<totfact> 0.71907830E+00</totfact>
</mgrwt>
</event>
<event>
 4    1  0.1678003E-008  0.5245875E+03  0.7818608E-02  0.1007553E+00
         -1   -1    0    0    0  501 -0.00000000000E+00  0.00000000000E+00  0.10660661710E+04  0.10660661711E+04  0.50400000000E-02 0.  1.
          1   -1    0    0  501    0  0.00000000000E+00 -0.00000000000E+00 -0.79218267298E+03  0.79218267299E+03  0.50400000000E-02 0. -1.
    8880022    1    1    2    0    0  0.50167705907E+03  0.10978774818E+02  0.89981089414E+03  0.10415621457E+04  0.15294330000E+03 0.  0.
    8880022    1    1    2    0    0 -0.50167705907E+03 -0.10978774818E+02 -0.62592739608E+03  0.81668669836E+03  0.15294330000E+03 0.  0.
<mgrwt>
<rscale>  0 0.52458751E+03</rscale>
<asrwt>0</asrwt>
<pdfrwt beam="1">  1        1 0.12187426E+00 0.52458751E+03</pdfrwt>
<pdfrwt beam="2">  1       -1 0.16401018E+00 0.52458751E+03</pdfrwt>
<totfact> 0.65833267E+00</totfact>
</mgrwt>
</event>
<event>
 4    1  0.1678003E-008  0.9617770E+03  0.7818608E-02  0.9351490E-01
          1   -1    0    0  501    0  0.00000000000E+00  0.00000000000E+00  0.59000072961E+03  0.59000072964E+03  0.50400000000E-02 0. -1.
         -1   -1    0    0    0  501 -0.00000000000E+00 -0.00000000000E+00 -0.16365344353E+04  0.16365344354E+04  0.50400000000E-02 0.  1.
    8880022    1    1    2    0    0  0.20105814261E+03  0.92800810746E+03 -0.29514847959E+03  0.10060455766E+04  0.15294330000E+03 0.  0.
    8880022    1    1    2    0    0 -0.20105814261E+03 -0.92800810746E+03 -0.75138522614E+03  0.12204895884E+04  0.15294330000E+03 0.  0.
<mgrwt>
<rscale>  0 0.96177704E+03</rscale>
<asrwt>0</asrwt>
<pdfrwt beam="1">  1        1 0.90769344E-01 0.96177704E+03</pdfrwt>
<pdfrwt beam="2">  1       -1 0.25177453E+00 0.96177704E+03</pdfrwt>
<totfact> 0.24136321E+00</totfact>
</mgrwt>
</event>
<event>
 4    1  0.1678003E-008  0.7279378E+03  0.7818608E-02  0.9670613E-01
          1   -1    0    0  501    0  0.00000000000E+00  0.00000000000E+00  0.14297853901E+04  0.14297853901E+04  0.50400000000E-02 0. -1.
         -1   -1    0    0    0  501 -0.00000000000E+00 -0.00000000000E+00 -0.80083319520E+03  0.80083319522E+03  0.50400000000E-02 0.  1.
    8880022    1    1    2    0    0  0.63480644944E+03 -0.32174928241E+03 -0.50299224758E+03  0.88481336061E+03  0.15294330000E+03 0.  0.
    8880022    1    1    2    0    0 -0.63480644944E+03  0.32174928241E+03  0.11319444424E+04  0.13458052247E+04  0.15294330000E+03 0.  0.
<mgrwt>
<rscale>  0 0.72793783E+03</rscale>
<asrwt>0</asrwt>
<pdfrwt beam="1">  1        1 0.21996698E+00 0.72793783E+03</pdfrwt>
<pdfrwt beam="2">  1       -1 0.12320511E+00 0.72793783E+03</pdfrwt>
<totfact> 0.44408460E+00</totfact>
</mgrwt>
</event>
<event>
 4    1  0.1678003E-008  0.4627190E+03  0.7818608E-02  0.1023996E+00
          1   -1    0    0  501    0  0.00000000000E+00  0.00000000000E+00  0.64884002741E+03  0.64884002743E+03  0.50400000000E-02 0. -1.
         -1   -1    0    0    0  501 -0.00000000000E+00 -0.00000000000E+00 -0.34176768389E+03  0.34176768393E+03  0.50400000000E-02 0.  1.
    8880022    1    1    2    0    0 -0.20275456227E+03  0.38679169106E+03  0.24549396013E+03  0.52380928044E+03  0.15294330000E+03 0.  0.
    8880022    1    1    2    0    0  0.20275456227E+03 -0.38679169106E+03  0.61578383388E+02  0.46679843092E+03  0.15294330000E+03 0.  0.
<mgrwt>
<rscale>  0 0.46271901E+03</rscale>
<asrwt>0</asrwt>
<pdfrwt beam="1">  1        1 0.99821542E-01 0.46271901E+03</pdfrwt>
<pdfrwt beam="2">  1       -1 0.52579644E-01 0.46271901E+03</pdfrwt>
<totfact> 0.11604579E+02</totfact>
</mgrwt>
</event>
<event>
 4    1  0.1678003E-008  0.2392566E+03  0.7818608E-02  0.1120289E+00
         -1   -1    0    0    0  501 -0.00000000000E+00  0.00000000000E+00  0.20416028988E+03  0.20416028994E+03  0.50400000000E-02 0.  1.
          1   -1    0    0  501    0  0.00000000000E+00 -0.00000000000E+00 -0.39844091076E+03  0.39844091079E+03  0.50400000000E-02 0. -1.
    8880022    1    1    2    0    0  0.11769846996E+03  0.14141825174E+03  0.66865752785E+02  0.24842450295E+03  0.15294330000E+03 0.  1.
    8880022    1    1    2    0    0 -0.11769846996E+03 -0.14141825174E+03 -0.26114637367E+03  0.35417669778E+03  0.15294330000E+03 0. -1.
<mgrwt>
<rscale>  0 0.23925657E+03</rscale>
<asrwt>0</asrwt>
<pdfrwt beam="1">  1        1 0.61298602E-01 0.23925657E+03</pdfrwt>
<pdfrwt beam="2">  1       -1 0.31409275E-01 0.23925657E+03</pdfrwt>
<totfact> 0.57805056E+02</totfact>
</mgrwt>
</event>
<event>
 4    1  0.1678003E-008  0.6191330E+03  0.7818608E-02  0.9866487E-01
         -1   -1    0    0    0  501 -0.00000000000E+00  0.00000000000E+00  0.78703238726E+03  0.78703238727E+03  0.50400000000E-02 0.  1.
          1   -1    0    0  501    0  0.00000000000E+00 -0.00000000000E+00 -0.13601370363E+04  0.13601370363E+04  0.50400000000E-02 0. -1.
    8880022    1    1    2    0    0  0.35066184876E+03  0.48679590779E+03 -0.11467005064E+04  0.13031683285E+04  0.15294330000E+03 0.  0.
    8880022    1    1    2    0    0 -0.35066184876E+03 -0.48679590779E+03  0.57359585732E+03  0.84400109512E+03  0.15294330000E+03 0.  0.
<mgrwt>
<rscale>  0 0.61913298E+03</rscale>
<asrwt>0</asrwt>
<pdfrwt beam="1">  1        1 0.20925185E+00 0.61913298E+03</pdfrwt>
<pdfrwt beam="2">  1       -1 0.12108191E+00 0.61913298E+03</pdfrwt>
<totfact> 0.52848112E+00</totfact>
</mgrwt>
</event>
<event>
 4    1  0.1678003E-008  0.2465480E+03  0.7818608E-02  0.1115506E+00
         -1   -1    0    0    0  501 -0.00000000000E+00  0.00000000000E+00  0.44016517969E+03  0.44016517972E+03  0.50400000000E-02 0.  1.
          1   -1    0    0  501    0  0.00000000000E+00 -0.00000000000E+00 -0.23587920466E+03  0.23587920471E+03  0.50400000000E-02 0. -1.
    8880022    1    1    2    0    0 -0.14604129587E+03  0.12675258926E+03  0.31977765355E+03  0.40378667599E+03  0.15294330000E+03 0.  0.
    8880022    1    1    2    0    0  0.14604129587E+03 -0.12675258926E+03 -0.11549167852E+03  0.27225770844E+03  0.15294330000E+03 0.  1.
<mgrwt>
<rscale>  0 0.24654803E+03</rscale>
<asrwt>0</asrwt>
<pdfrwt beam="1">  1        1 0.36289108E-01 0.24654803E+03</pdfrwt>
<pdfrwt beam="2">  1       -1 0.67717720E-01 0.24654803E+03</pdfrwt>
<totfact> 0.27466853E+02</totfact>
</mgrwt>
</event>
<event>
 4    1  0.1678003E-008  0.1981457E+03  0.7818608E-02  0.1151313E+00
         -1   -1    0    0    0  501 -0.00000000000E+00  0.00000000000E+00  0.56024874458E+02  0.56024874685E+02  0.50400000000E-02 0.  1.
          1   -1    0    0  501    0  0.00000000000E+00 -0.00000000000E+00 -0.19388689183E+04  0.19388689183E+04  0.50400000000E-02 0. -1.
    8880022    1    1    2    0    0 -0.66670567635E+02  0.10688826754E+03 -0.17384793788E+04  0.17497349142E+04  0.15294330000E+03 0.  0.
    8880022    1    1    2    0    0  0.66670567635E+02 -0.10688826754E+03 -0.14436466498E+03  0.24515887876E+03  0.15294330000E+03 0.  0.
<mgrwt>
<rscale>  0 0.19814570E+03</rscale>
<asrwt>0</asrwt>
<pdfrwt beam="1">  1        1 0.29828747E+00 0.19814570E+03</pdfrwt>
<pdfrwt beam="2">  1       -1 0.86192130E-02 0.19814570E+03</pdfrwt>
<totfact> 0.28882083E+02</totfact>
</mgrwt>
</event>
<event>
 4    1  0.1678003E-008  0.2520398E+03  0.7818608E-02  0.1112022E+00
          1   -1    0    0  501    0  0.00000000000E+00  0.00000000000E+00  0.31589333460E+03  0.31589333464E+03  0.50400000000E-02 0. -1.
         -1   -1    0    0    0  501 -0.00000000000E+00 -0.00000000000E+00 -0.49175601151E+03  0.49175601153E+03  0.50400000000E-02 0.  1.
    8880022    1    1    2    0    0  0.19593784242E+03  0.41722678283E+02  0.22253361141E+03  0.33622207125E+03  0.15294330000E+03 0.  0.
    8880022    1    1    2    0    0 -0.19593784242E+03 -0.41722678283E+02 -0.39839628832E+03  0.47142727492E+03  0.15294330000E+03 0.  0.
<mgrwt>
<rscale>  0 0.25203982E+03</rscale>
<asrwt>0</asrwt>
<pdfrwt beam="1">  1        1 0.48598975E-01 0.25203982E+03</pdfrwt>
<pdfrwt beam="2">  1       -1 0.75654771E-01 0.25203982E+03</pdfrwt>
<totfact> 0.15201197E+02</totfact>
</mgrwt>
</event>
<event>
 4    1  0.1678003E-008  0.1519343E+04  0.7818608E-02  0.8871691E-01
         -1   -1    0    0    0  501 -0.00000000000E+00  0.00000000000E+00  0.11882658385E+04  0.11882658385E+04  0.50400000000E-02 0.  1.
          1   -1    0    0  501    0  0.00000000000E+00 -0.00000000000E+00 -0.22518553260E+04  0.22518553260E+04  0.50400000000E-02 0. -1.
    8880022    1    1    2    0    0  0.61290258677E+03 -0.13817970275E+04  0.10556610622E+03  0.15230063893E+04  0.15294330000E+03 0.  0.
    8880022    1    1    2    0    0 -0.61290258677E+03  0.13817970275E+04 -0.11691555937E+04  0.19171147752E+04  0.15294330000E+03 0.  0.
<mgrwt>
<rscale>  0 0.15193434E+04</rscale>
<asrwt>0</asrwt>
<pdfrwt beam="1">  1        1 0.34643928E+00 0.15193434E+04</pdfrwt>
<pdfrwt beam="2">  1       -1 0.18281013E+00 0.15193434E+04</pdfrwt>
<totfact> 0.37673964E-01</totfact>
</mgrwt>
</event>
<event>
 4    1  0.1678003E-008  0.1930171E+03  0.7818608E-02  0.1155768E+00
          1   -1    0    0  501    0  0.00000000000E+00  0.00000000000E+00  0.22718197804E+04  0.22718197804E+04  0.50400000000E-02 0. -1.
         -1   -1    0    0    0  501 -0.00000000000E+00 -0.00000000000E+00 -0.27497035268E+03  0.27497035272E+03  0.50400000000E-02 0.  1.
    8880022    1    1    2    0    0 -0.47700561941E+02  0.10765045023E+03  0.22332639352E+04  0.22415894853E+04  0.15294330000E+03 0.  0.
    8880022    1    1    2    0    0  0.47700561941E+02 -0.10765045023E+03 -0.23641450754E+03  0.30520064783E+03  0.15294330000E+03 0.  1.
<mgrwt>
<rscale>  0 0.19301714E+03</rscale>
<asrwt>0</asrwt>
<pdfrwt beam="1">  1        1 0.34951075E+00 0.19301714E+03</pdfrwt>
<pdfrwt beam="2">  1       -1 0.42303130E-01 0.19301714E+03</pdfrwt>
<totfact> 0.13259819E+01</totfact>
</mgrwt>
</event>
<event>
 4    1  0.1678003E-008  0.5011002E+03  0.7818608E-02  0.1013492E+00
          1   -1    0    0  501    0  0.00000000000E+00  0.00000000000E+00  0.51811777704E+04  0.51811777704E+04  0.50400000000E-02 0. -1.
         -1   -1    0    0    0  501 -0.00000000000E+00 -0.00000000000E+00 -0.86299049784E+02  0.86299049931E+02  0.50400000000E-02 0.  1.
    8880022    1    1    2    0    0  0.25896146274E+03 -0.40081011820E+03  0.42913163661E+04  0.43204742328E+04  0.15294330000E+03 0.  0.
    8880022    1    1    2    0    0 -0.25896146274E+03  0.40081011820E+03  0.80356235455E+03  0.94700258748E+03  0.15294330000E+03 0.  0.
<mgrwt>
<rscale>  0 0.50110023E+03</rscale>
<asrwt>0</asrwt>
<pdfrwt beam="1">  1        1 0.79710431E+00 0.50110023E+03</pdfrwt>
<pdfrwt beam="2">  1       -1 0.13276776E-01 0.50110023E+03</pdfrwt>
<totfact> 0.25242813E-01</totfact>
</mgrwt>
</event>
<event>
 4    1  0.1678003E-008  0.8738670E+03  0.7818608E-02  0.9458852E-01
         -1   -1    0    0    0  501 -0.00000000000E+00  0.00000000000E+00  0.86095749610E+03  0.86095749612E+03  0.50400000000E-02 0.  1.
          1   -1    0    0  501    0  0.00000000000E+00 -0.00000000000E+00 -0.22179625353E+04  0.22179625353E+04  0.50400000000E-02 0. -1.
    8880022    1    1    2    0    0 -0.54773252086E+03 -0.66350654836E+03 -0.18710594302E+04  0.20650682552E+04  0.15294330000E+03 0.  0.
    8880022    1    1    2    0    0  0.54773252086E+03  0.66350654836E+03  0.51405439107E+03  0.10138517762E+04  0.15294330000E+03 0.  1.
<mgrwt>
<rscale>  0 0.87386698E+03</rscale>
<asrwt>0</asrwt>
<pdfrwt beam="1">  1        1 0.34122500E+00 0.87386698E+03</pdfrwt>
<pdfrwt beam="2">  1       -1 0.13245500E+00 0.87386698E+03</pdfrwt>
<totfact> 0.10610186E+00</totfact>
</mgrwt>
</event>
<event>
 4    1  0.1678003E-008  0.7436765E+03  0.7818608E-02  0.9645323E-01
         -1   -1    0    0    0  501 -0.00000000000E+00  0.00000000000E+00  0.13800442313E+04  0.13800442313E+04  0.50400000000E-02 0.  1.
          1   -1    0    0  501    0  0.00000000000E+00 -0.00000000000E+00 -0.51189431229E+03  0.51189431232E+03  0.50400000000E-02 0. -1.
    8880022    1    1    2    0    0 -0.72757590207E+03 -0.17215149715E+02  0.87486085868E+03  0.11482317840E+04  0.15294330000E+03 0.  0.
    8880022    1    1    2    0    0  0.72757590207E+03  0.17215149715E+02 -0.67109396565E+01  0.74370675967E+03  0.15294330000E+03 0.  0.
<mgrwt>
<rscale>  0 0.74367648E+03</rscale>
<asrwt>0</asrwt>
<pdfrwt beam="1">  1        1 0.78752972E-01 0.74367648E+03</pdfrwt>
<pdfrwt beam="2">  1       -1 0.21231450E+00 0.74367648E+03</pdfrwt>
<totfact> 0.55161962E+00</totfact>
</mgrwt>
</event>
<event>
 4    1  0.1678003E-008  0.6663511E+03  0.7818608E-02  0.9776572E-01
         -1   -1    0    0    0  501 -0.00000000000E+00  0.00000000000E+00  0.26579901291E+03  0.26579901295E+03  0.50400000000E-02 0.  1.
          1   -1    0    0  501    0  0.00000000000E+00 -0.00000000000E+00 -0.29444351484E+04  0.29444351484E+04  0.50400000000E-02 0. -1.
    8880022    1    1    2    0    0 -0.49578671467E+03 -0.41812392932E+03 -0.28353372161E+03  0.72416511309E+03  0.15294330000E+03 0.  0.
    8880022    1    1    2    0    0  0.49578671467E+03  0.41812392932E+03 -0.23951024138E+04  0.24860690482E+04  0.15294330000E+03 0. -1.
<mgrwt>
<rscale>  0 0.66635106E+03</rscale>
<asrwt>0</asrwt>
<pdfrwt beam="1">  1        1 0.45299000E+00 0.66635106E+03</pdfrwt>
<pdfrwt beam="2">  1       -1 0.40892158E-01 0.66635106E+03</pdfrwt>
<totfact> 0.41694719E+00</totfact>
</mgrwt>
</event>
<event>
 4    1  0.1678003E-008  0.2656433E+03  0.7818608E-02  0.1103799E+00
          1   -1    0    0  501    0  0.00000000000E+00  0.00000000000E+00  0.93094179329E+02  0.93094179465E+02  0.50400000000E-02 0. -1.
         -1   -1    0    0    0  501 -0.00000000000E+00 -0.00000000000E+00 -0.76328689042E+03  0.76328689043E+03  0.50400000000E-02 0.  1.
    8880022    1    1    2    0    0 -0.15314590748E+03  0.15401644193E+03 -0.29949615977E+03  0.40033028376E+03  0.15294330000E+03 0.  1.
    8880022    1    1    2    0    0  0.15314590748E+03 -0.15401644193E+03 -0.37069655132E+03  0.45605078614E+03  0.15294330000E+03 0. -1.
<mgrwt>
<rscale>  0 0.26564334E+03</rscale>
<asrwt>0</asrwt>
<pdfrwt beam="1">  1        1 0.14322182E-01 0.26564334E+03</pdfrwt>
<pdfrwt beam="2">  1       -1 0.11742875E+00 0.26564334E+03</pdfrwt>
<totfact> 0.27670495E+02</totfact>
</mgrwt>
</event>
<event>
 4    1  0.1678003E-008  0.2594280E+03  0.7818608E-02  0.1107487E+00
          1   -1    0    0  501    0  0.00000000000E+00  0.00000000000E+00  0.26787265787E+04  0.26787265788E+04  0.50400000000E-02 0. -1.
         -1   -1    0    0    0  501 -0.00000000000E+00 -0.00000000000E+00 -0.64279011606E+02  0.64279011803E+02  0.50400000000E-02 0.  1.
    8880022    1    1    2    0    0 -0.14263155143E+03 -0.15351698314E+03  0.23681293673E+03  0.35125951032E+03  0.15294330000E+03 0.  0.
    8880022    1    1    2    0    0  0.14263155143E+03  0.15351698314E+03  0.23776346304E+04  0.23917460802E+04  0.15294330000E+03 0.  0.
<mgrwt>
<rscale>  0 0.25942798E+03</rscale>
<asrwt>0</asrwt>
<pdfrwt beam="1">  1        1 0.41211170E+00 0.25942798E+03</pdfrwt>
<pdfrwt beam="2">  1       -1 0.98890806E-02 0.25942798E+03</pdfrwt>
<totfact> 0.75094118E+01</totfact>
</mgrwt>
</event>
<event>
 4    1  0.1678003E-008  0.5781648E+03  0.7818608E-02  0.9951772E-01
          1   -1    0    0  501    0  0.00000000000E+00  0.00000000000E+00  0.21017175785E+04  0.21017175785E+04  0.50400000000E-02 0. -1.
         -1   -1    0    0    0  501 -0.00000000000E+00 -0.00000000000E+00 -0.24249327125E+03  0.24249327131E+03  0.50400000000E-02 0.  1.
    8880022    1    1    2    0    0 -0.49182322349E+03 -0.26266488747E+03  0.16171822024E+04  0.17174262298E+04  0.15294330000E+03 0.  0.
    8880022    1    1    2    0    0  0.49182322349E+03  0.26266488747E+03  0.24204210486E+03  0.62678461995E+03  0.15294330000E+03 0.  0.
<mgrwt>
<rscale>  0 0.57816484E+03</rscale>
<asrwt>0</asrwt>
<pdfrwt beam="1">  1        1 0.32334119E+00 0.57816484E+03</pdfrwt>
<pdfrwt beam="2">  1       -1 0.37306655E-01 0.57816484E+03</pdfrwt>
<totfact> 0.18855857E+01</totfact>
</mgrwt>
</event>
<event>
 4    1  0.1678003E-008  0.4838686E+03  0.7818608E-02  0.1018077E+00
         -1   -1    0    0    0  501 -0.00000000000E+00  0.00000000000E+00  0.24019091269E+03  0.24019091275E+03  0.50400000000E-02 0.  1.
          1   -1    0    0  501    0  0.00000000000E+00 -0.00000000000E+00 -0.13249099601E+04  0.13249099601E+04  0.50400000000E-02 0. -1.
    8880022    1    1    2    0    0 -0.22330898497E+03  0.40108629808E+03 -0.94465529978E+03  0.10613681782E+04  0.15294330000E+03 0.  0.
    8880022    1    1    2    0    0  0.22330898497E+03 -0.40108629808E+03 -0.14006374765E+03  0.50373269469E+03  0.15294330000E+03 0.  0.
<mgrwt>
<rscale>  0 0.48386855E+03</rscale>
<asrwt>0</asrwt>
<pdfrwt beam="1">  1        1 0.20383230E+00 0.48386855E+03</pdfrwt>
<pdfrwt beam="2">  1       -1 0.36952449E-01 0.48386855E+03</pdfrwt>
<totfact> 0.64700884E+01</totfact>
</mgrwt>
</event>
<event>
 4    1  0.1678003E-008  0.7411460E+03  0.7818608E-02  0.9649344E-01
          1   -1    0    0  501    0  0.00000000000E+00  0.00000000000E+00  0.10112820496E+04  0.10112820496E+04  0.50400000000E-02 0. -1.
         -1   -1    0    0    0  501 -0.00000000000E+00 -0.00000000000E+00 -0.10452040039E+04  0.10452040039E+04  0.50400000000E-02 0.  1.
    8880022    1    1    2    0    0  0.65981887006E+03  0.30090664272E+03  0.69566572873E+03  0.10164881741E+04  0.15294330000E+03 0.  0.
    8880022    1    1    2    0    0 -0.65981887006E+03 -0.30090664272E+03 -0.72958768307E+03  0.10399978794E+04  0.15294330000E+03 0.  0.
<mgrwt>
<rscale>  0 0.74114601E+03</rscale>
<asrwt>0</asrwt>
<pdfrwt beam="1">  1        1 0.15558185E+00 0.74114601E+03</pdfrwt>
<pdfrwt beam="2">  1       -1 0.16080062E+00 0.74114601E+03</pdfrwt>
<totfact> 0.44394490E+00</totfact>
</mgrwt>
</event>
<event>
 4    1  0.1678003E-008  0.2345621E+03  0.7818608E-02  0.1123469E+00
         -1   -1    0    0    0  501 -0.00000000000E+00  0.00000000000E+00  0.62281610994E+03  0.62281610996E+03  0.50400000000E-02 0.  1.
          1   -1    0    0  501    0  0.00000000000E+00 -0.00000000000E+00 -0.11529145739E+03  0.11529145750E+03  0.50400000000E-02 0. -1.
    8880022    1    1    2    0    0  0.13897884430E+03  0.11096222449E+03  0.75325432815E+02  0.24636011908E+03  0.15294330000E+03 0. -1.
    8880022    1    1    2    0    0 -0.13897884430E+03 -0.11096222449E+03  0.43219921974E+03  0.49174744838E+03  0.15294330000E+03 0.  0.
<mgrwt>
<rscale>  0 0.23456212E+03</rscale>
<asrwt>0</asrwt>
<pdfrwt beam="1">  1        1 0.17737148E-01 0.23456212E+03</pdfrwt>
<pdfrwt beam="2">  1       -1 0.95817861E-01 0.23456212E+03</pdfrwt>
<totfact> 0.33269252E+02</totfact>
</mgrwt>
</event>
<event>
 4    1  0.1678003E-008  0.4101936E+03  0.7818608E-02  0.1040306E+00
         -1   -1    0    0    0  501 -0.00000000000E+00  0.00000000000E+00  0.41570669687E+03  0.41570669690E+03  0.50400000000E-02 0.  1.
          1   -1    0    0  501    0  0.00000000000E+00 -0.00000000000E+00 -0.49681262534E+03  0.49681262537E+03  0.50400000000E-02 0. -1.
    8880022    1    1    2    0    0 -0.28184537289E+03  0.25579349267E+03  0.15585042170E+03  0.43880306752E+03  0.15294330000E+03 0.  1.
    8880022    1    1    2    0    0  0.28184537289E+03 -0.25579349267E+03 -0.23695635017E+03  0.47371625475E+03  0.15294330000E+03 0. -1.
<mgrwt>
<rscale>  0 0.41019359E+03</rscale>
<asrwt>0</asrwt>
<pdfrwt beam="1">  1        1 0.76432712E-01 0.41019359E+03</pdfrwt>
<pdfrwt beam="2">  1       -1 0.63954876E-01 0.41019359E+03</pdfrwt>
<totfact> 0.11601807E+02</totfact>
</mgrwt>
</event>
<event>
 4    1  0.1678003E-008  0.7572484E+03  0.7818608E-02  0.9624047E-01
         -1   -1    0    0    0  501 -0.00000000000E+00  0.00000000000E+00  0.62322446918E+03  0.62322446920E+03  0.50400000000E-02 0.  1.
          1   -1    0    0  501    0  0.00000000000E+00 -0.00000000000E+00 -0.12709002428E+04  0.12709002428E+04  0.50400000000E-02 0. -1.
    8880022    1    1    2    0    0 -0.39119547436E+03  0.63007897549E+03 -0.82141056701E+03  0.11172020351E+04  0.15294330000E+03 0.  0.
    8880022    1    1    2    0    0  0.39119547436E+03 -0.63007897549E+03  0.17373479339E+03  0.77692267696E+03  0.15294330000E+03 0.  0.
<mgrwt>
<rscale>  0 0.75724835E+03</rscale>
<asrwt>0</asrwt>
<pdfrwt beam="1">  1        1 0.19552311E+00 0.75724835E+03</pdfrwt>
<pdfrwt beam="2">  1       -1 0.95880688E-01 0.75724835E+03</pdfrwt>
<totfact> 0.10294766E+01</totfact>
</mgrwt>
</event>
<event>
 4    1  0.1678003E-008  0.2397103E+03  0.7818608E-02  0.1119986E+00
         -1   -1    0    0    0  501 -0.00000000000E+00  0.00000000000E+00  0.10159873142E+03  0.10159873155E+03  0.50400000000E-02 0.  1.
          1   -1    0    0  501    0  0.00000000000E+00 -0.00000000000E+00 -0.83024191274E+03  0.83024191275E+03  0.50400000000E-02 0. -1.
    8880022    1    1    2    0    0 -0.28499690700E+02  0.18236541608E+03 -0.10125567584E+03  0.26021864317E+03  0.15294330000E+03 0.  0.
    8880022    1    1    2    0    0  0.28499690700E+02 -0.18236541608E+03 -0.62738750548E+03  0.67162200113E+03  0.15294330000E+03 0. -1.
<mgrwt>
<rscale>  0 0.23971031E+03</rscale>
<asrwt>0</asrwt>
<pdfrwt beam="1">  1        1 0.12772952E+00 0.23971031E+03</pdfrwt>
<pdfrwt beam="2">  1       -1 0.15630575E-01 0.23971031E+03</pdfrwt>
<totfact> 0.65776667E+02</totfact>
</mgrwt>
</event>
<event>
 4    1  0.1678003E-008  0.4449947E+03  0.7818608E-02  0.1029225E+00
          1   -1    0    0  501    0  0.00000000000E+00  0.00000000000E+00  0.18993066184E+04  0.18993066184E+04  0.50400000000E-02 0. -1.
         -1   -1    0    0    0  501 -0.00000000000E+00 -0.00000000000E+00 -0.49310758828E+03  0.49310758830E+03  0.50400000000E-02 0.  1.
    8880022    1    1    2    0    0  0.34038912378E+03 -0.24241259512E+03  0.17653468750E+04  0.18205685551E+04  0.15294330000E+03 0.  0.
    8880022    1    1    2    0    0 -0.34038912378E+03  0.24241259512E+03 -0.35914784481E+03  0.57184565165E+03  0.15294330000E+03 0.  0.
<mgrwt>
<rscale>  0 0.44499469E+03</rscale>
<asrwt>0</asrwt>
<pdfrwt beam="1">  1        1 0.29220101E+00 0.44499469E+03</pdfrwt>
<pdfrwt beam="2">  1       -1 0.75862707E-01 0.44499469E+03</pdfrwt>
<totfact> 0.68127213E+00</totfact>
</mgrwt>
</event>
<event>
 4    1  0.1678003E-008  0.5501238E+03  0.7818608E-02  0.1001465E+00
         -1   -1    0    0    0  501 -0.00000000000E+00  0.00000000000E+00  0.39933615157E+03  0.39933615160E+03  0.50400000000E-02 0.  1.
          1   -1    0    0  501    0  0.00000000000E+00 -0.00000000000E+00 -0.18437788124E+04  0.18437788124E+04  0.50400000000E-02 0. -1.
    8880022    1    1    2    0    0  0.17729682025E+03  0.49780561453E+03 -0.15829536966E+04  0.16758217838E+04  0.15294330000E+03 0.  0.
    8880022    1    1    2    0    0 -0.17729682025E+03 -0.49780561453E+03  0.13851103576E+03  0.56729318026E+03  0.15294330000E+03 0.  0.
<mgrwt>
<rscale>  0 0.55012385E+03</rscale>
<asrwt>0</asrwt>
<pdfrwt beam="1">  1        1 0.28365827E+00 0.55012385E+03</pdfrwt>
<pdfrwt beam="2">  1       -1 0.61436332E-01 0.55012385E+03</pdfrwt>
<totfact> 0.11054497E+01</totfact>
</mgrwt>
</event>
<event>
 4    1  0.1678003E-008  0.5349496E+03  0.7818608E-02  0.1005039E+00
          1   -1    0    0  501    0  0.00000000000E+00  0.00000000000E+00  0.19070092300E+04  0.19070092300E+04  0.50400000000E-02 0. -1.
         -1   -1    0    0    0  501 -0.00000000000E+00 -0.00000000000E+00 -0.21575582747E+03  0.21575582753E+03  0.50400000000E-02 0.  1.
    8880022    1    1    2    0    0  0.22231169770E+03  0.46190579384E+03  0.14312931864E+04  0.15279958415E+04  0.15294330000E+03 0.  0.
    8880022    1    1    2    0    0 -0.22231169770E+03 -0.46190579384E+03  0.25996021614E+03  0.59476921600E+03  0.15294330000E+03 0.  0.
<mgrwt>
<rscale>  0 0.53494963E+03</rscale>
<asrwt>0</asrwt>
<pdfrwt beam="1">  1        1 0.29338604E+00 0.53494963E+03</pdfrwt>
<pdfrwt beam="2">  1       -1 0.33193204E-01 0.53494963E+03</pdfrwt>
<totfact> 0.31480662E+01</totfact>
</mgrwt>
</event>
<event>
 4    1  0.1678003E-008  0.3890900E+03  0.7818608E-02  0.1047624E+00
          1   -1    0    0  501    0  0.00000000000E+00  0.00000000000E+00  0.21939885590E+04  0.21939885590E+04  0.50400000000E-02 0. -1.
         -1   -1    0    0    0  501 -0.00000000000E+00 -0.00000000000E+00 -0.14107156928E+03  0.14107156937E+03  0.50400000000E-02 0.  1.
    8880022    1    1    2    0    0  0.35716804116E+03 -0.20745652117E+02  0.19196625751E+03  0.43386874599E+03  0.15294330000E+03 0.  0.
    8880022    1    1    2    0    0 -0.35716804116E+03  0.20745652117E+02  0.18609507322E+04  0.19011913823E+04  0.15294330000E+03 0.  0.
<mgrwt>
<rscale>  0 0.38909002E+03</rscale>
<asrwt>0</asrwt>
<pdfrwt beam="1">  1        1 0.33753668E+00 0.38909002E+03</pdfrwt>
<pdfrwt beam="2">  1       -1 0.21703320E-01 0.38909002E+03</pdfrwt>
<totfact> 0.43286863E+01</totfact>
</mgrwt>
</event>
<event>
 4    1  0.1678003E-008  0.8292513E+03  0.7818608E-02  0.9518616E-01
          1   -1    0    0  501    0  0.00000000000E+00  0.00000000000E+00  0.93384466581E+03  0.93384466583E+03  0.50400000000E-02 0. -1.
         -1   -1    0    0    0  501 -0.00000000000E+00 -0.00000000000E+00 -0.16365292942E+04  0.16365292943E+04  0.50400000000E-02 0.  1.
    8880022    1    1    2    0    0 -0.90167056717E+02 -0.81002217673E+03  0.60181255171E+03  0.10246150620E+04  0.15294330000E+03 0.  0.
    8880022    1    1    2    0    0  0.90167056717E+02  0.81002217673E+03 -0.13044971801E+04  0.15457588981E+04  0.15294330000E+03 0.  0.
<mgrwt>
<rscale>  0 0.82925128E+03</rscale>
<asrwt>0</asrwt>
<pdfrwt beam="1">  1        1 0.14366841E+00 0.82925128E+03</pdfrwt>
<pdfrwt beam="2">  1       -1 0.25177374E+00 0.82925128E+03</pdfrwt>
<totfact> 0.12004615E+00</totfact>
</mgrwt>
</event>
<event>
 4    1  0.1678003E-008  0.5437355E+03  0.7818608E-02  0.1002954E+00
          1   -1    0    0  501    0  0.00000000000E+00  0.00000000000E+00  0.12436883404E+04  0.12436883404E+04  0.50400000000E-02 0. -1.
         -1   -1    0    0    0  501 -0.00000000000E+00 -0.00000000000E+00 -0.41489666607E+03  0.41489666610E+03  0.50400000000E-02 0.  1.
    8880022    1    1    2    0    0 -0.28411061904E+03 -0.43765025308E+03 -0.12753312473E+03  0.55849166403E+03  0.15294330000E+03 0.  0.
    8880022    1    1    2    0    0  0.28411061904E+03  0.43765025308E+03  0.95632479905E+03  0.11000933425E+04  0.15294330000E+03 0.  0.
<mgrwt>
<rscale>  0 0.54373545E+03</rscale>
<asrwt>0</asrwt>
<pdfrwt beam="1">  1        1 0.19133667E+00 0.54373545E+03</pdfrwt>
<pdfrwt beam="2">  1       -1 0.63830257E-01 0.54373545E+03</pdfrwt>
<totfact> 0.26223413E+01</totfact>
</mgrwt>
</event>
<event>
 4    1  0.1678003E-008  0.4244999E+03  0.7818608E-02  0.1035612E+00
         -1   -1    0    0    0  501 -0.00000000000E+00  0.00000000000E+00  0.99500134989E+02  0.99500135117E+02  0.50400000000E-02 0.  1.
          1   -1    0    0  501    0  0.00000000000E+00 -0.00000000000E+00 -0.23609790579E+04  0.23609790579E+04  0.50400000000E-02 0. -1.
    8880022    1    1    2    0    0 -0.26246779447E+03 -0.29651165764E+03 -0.53700094509E+03  0.68452185815E+03  0.15294330000E+03 0.  0.
    8880022    1    1    2    0    0  0.26246779447E+03  0.29651165764E+03 -0.17244779778E+04  0.17759573348E+04  0.15294330000E+03 0.  0.
<mgrwt>
<rscale>  0 0.42449989E+03</rscale>
<asrwt>0</asrwt>
<pdfrwt beam="1">  1        1 0.36322750E+00 0.42449989E+03</pdfrwt>
<pdfrwt beam="2">  1       -1 0.15307715E-01 0.42449989E+03</pdfrwt>
<totfact> 0.58846602E+01</totfact>
</mgrwt>
</event>
<event>
 4    1  0.1678003E-008  0.5270125E+03  0.7818608E-02  0.1006959E+00
          1   -1    0    0  501    0  0.00000000000E+00  0.00000000000E+00  0.55894142347E+03  0.55894142349E+03  0.50400000000E-02 0. -1.
         -1   -1    0    0    0  501 -0.00000000000E+00 -0.00000000000E+00 -0.74689162618E+03  0.74689162620E+03  0.50400000000E-02 0.  1.
    8880022    1    1    2    0    0 -0.13640948927E+03  0.48553367141E+03 -0.47170828557E+03  0.70728413988E+03  0.15294330000E+03 0.  0.
    8880022    1    1    2    0    0  0.13640948927E+03 -0.48553367141E+03  0.28375808286E+03  0.59854890981E+03  0.15294330000E+03 0.  0.
<mgrwt>
<rscale>  0 0.52701247E+03</rscale>
<asrwt>0</asrwt>
<pdfrwt beam="1">  1        1 0.85990988E-01 0.52701247E+03</pdfrwt>
<pdfrwt beam="2">  1       -1 0.11490640E+00 0.52701247E+03</pdfrwt>
<totfact> 0.27448957E+01</totfact>
</mgrwt>
</event>
<event>
 4    1  0.1678003E-008  0.8744376E+03  0.7818608E-02  0.9458112E-01
         -1   -1    0    0    0  501 -0.00000000000E+00  0.00000000000E+00  0.20048699895E+04  0.20048699895E+04  0.50400000000E-02 0.  1.
          1   -1    0    0  501    0  0.00000000000E+00 -0.00000000000E+00 -0.12682317989E+04  0.12682317989E+04  0.50400000000E-02 0. -1.
    8880022    1    1    2    0    0 -0.59383452855E+03 -0.62338596917E+03  0.17368443285E+04  0.19445486336E+04  0.15294330000E+03 0.  0.
    8880022    1    1    2    0    0  0.59383452855E+03  0.62338596917E+03 -0.10002061380E+04  0.13285531549E+04  0.15294330000E+03 0.  0.
<mgrwt>
<rscale>  0 0.87443763E+03</rscale>
<asrwt>0</asrwt>
<pdfrwt beam="1">  1        1 0.19511258E+00 0.87443763E+03</pdfrwt>
<pdfrwt beam="2">  1       -1 0.30844154E+00 0.87443763E+03</pdfrwt>
<totfact> 0.28875292E-01</totfact>
</mgrwt>
</event>
<event>
 4    1  0.1678003E-008  0.3134133E+03  0.7818608E-02  0.1078721E+00
          1   -1    0    0  501    0  0.00000000000E+00  0.00000000000E+00  0.10130451347E+04  0.10130451347E+04  0.50400000000E-02 0. -1.
         -1   -1    0    0    0  501 -0.00000000000E+00 -0.00000000000E+00 -0.90798132326E+03  0.90798132327E+03  0.50400000000E-02 0.  1.
    8880022    1    1    2    0    0 -0.19059683899E+03 -0.19623732904E+03 -0.85524729039E+03  0.91086542644E+03  0.15294330000E+03 0.  0.
    8880022    1    1    2    0    0  0.19059683899E+03  0.19623732904E+03  0.96031110180E+03  0.10101610315E+04  0.15294330000E+03 0. -1.
<mgrwt>
<rscale>  0 0.31341330E+03</rscale>
<asrwt>0</asrwt>
<pdfrwt beam="1">  1        1 0.15585310E+00 0.31341330E+03</pdfrwt>
<pdfrwt beam="2">  1       -1 0.13968943E+00 0.31341330E+03</pdfrwt>
<totfact> 0.71294869E+00</totfact>
</mgrwt>
</event>
<event>
 4    1  0.1678003E-008  0.3539921E+03  0.7818608E-02  0.1060988E+00
         -1   -1    0    0    0  501 -0.00000000000E+00  0.00000000000E+00  0.14347197306E+03  0.14347197314E+03  0.50400000000E-02 0.  1.
          1   -1    0    0  501    0  0.00000000000E+00 -0.00000000000E+00 -0.26106203970E+04  0.26106203970E+04  0.50400000000E-02 0. -1.
    8880022    1    1    2    0    0 -0.25107176348E+03 -0.19718449912E+03 -0.23568913122E+04  0.23833268906E+04  0.15294330000E+03 0.  0.
    8880022    1    1    2    0    0  0.25107176348E+03  0.19718449912E+03 -0.11025711179E+03  0.37076547955E+03  0.15294330000E+03 0.  0.
<mgrwt>
<rscale>  0 0.35399210E+03</rscale>
<asrwt>0</asrwt>
<pdfrwt beam="1">  1        1 0.40163387E+00 0.35399210E+03</pdfrwt>
<pdfrwt beam="2">  1       -1 0.22072613E-01 0.35399210E+03</pdfrwt>
<totfact> 0.22420765E+01</totfact>
</mgrwt>
</event>
<event>
 4    1  0.1678003E-008  0.3726291E+03  0.7818608E-02  0.1053692E+00
          1   -1    0    0  501    0  0.00000000000E+00  0.00000000000E+00  0.15070844113E+04  0.15070844113E+04  0.50400000000E-02 0. -1.
         -1   -1    0    0    0  501 -0.00000000000E+00 -0.00000000000E+00 -0.38373709458E+03  0.38373709461E+03  0.50400000000E-02 0.  1.
    8880022    1    1    2    0    0  0.33835625193E+03  0.31239016102E+02 -0.26246506293E+03  0.45578546667E+03  0.15294330000E+03 0.  0.
    8880022    1    1    2    0    0 -0.33835625193E+03 -0.31239016102E+02  0.13858123796E+04  0.14350360392E+04  0.15294330000E+03 0.  0.
<mgrwt>
<rscale>  0 0.37262915E+03</rscale>
<asrwt>0</asrwt>
<pdfrwt beam="1">  1        1 0.23185915E+00 0.37262915E+03</pdfrwt>
<pdfrwt beam="2">  1       -1 0.59036475E-01 0.37262915E+03</pdfrwt>
<totfact> 0.20894064E+01</totfact>
</mgrwt>
</event>
<event>
 4    1  0.1678003E-008  0.1109174E+04  0.7818608E-02  0.9196296E-01
          1   -1    0    0  501    0  0.00000000000E+00  0.00000000000E+00  0.27728228206E+04  0.27728228206E+04  0.50400000000E-02 0. -1.
         -1   -1    0    0    0  501 -0.00000000000E+00 -0.00000000000E+00 -0.93934070702E+03  0.93934070704E+03  0.50400000000E-02 0.  1.
    8880022    1    1    2    0    0 -0.77219778905E+03 -0.78139997446E+03 -0.43152147318E+03  0.11901587206E+04  0.15294330000E+03 0.  0.
    8880022    1    1    2    0    0  0.77219778905E+03  0.78139997446E+03  0.22650035867E+04  0.25220048070E+04  0.15294330000E+03 0.  0.
<mgrwt>
<rscale>  0 0.11091740E+04</rscale>
<asrwt>0</asrwt>
<pdfrwt beam="1">  1        1 0.42658812E+00 0.11091740E+04</pdfrwt>
<pdfrwt beam="2">  1       -1 0.14451396E+00 0.11091740E+04</pdfrwt>
<totfact> 0.33736131E-01</totfact>
</mgrwt>
</event>
<event>
 4    1  0.1678003E-008  0.7306946E+03  0.7818608E-02  0.9666134E-01
          1   -1    0    0  501    0  0.00000000000E+00  0.00000000000E+00  0.25660719609E+04  0.25660719609E+04  0.50400000000E-02 0. -1.
         -1   -1    0    0    0  501 -0.00000000000E+00 -0.00000000000E+00 -0.73803867192E+03  0.73803867194E+03  0.50400000000E-02 0.  1.
    8880022    1    1    2    0    0  0.37295239864E+03  0.60945015619E+03  0.23139630015E+04  0.24265900786E+04  0.15294330000E+03 0.  0.
    8880022    1    1    2    0    0 -0.37295239864E+03 -0.60945015619E+03 -0.48592971250E+03  0.87752055420E+03  0.15294330000E+03 0.  0.
<mgrwt>
<rscale>  0 0.73069463E+03</rscale>
<asrwt>0</asrwt>
<pdfrwt beam="1">  1        1 0.39478031E+00 0.73069463E+03</pdfrwt>
<pdfrwt beam="2">  1       -1 0.11354441E+00 0.73069463E+03</pdfrwt>
<totfact> 0.92625943E-01</totfact>
</mgrwt>
</event>
<event>
 4    1  0.1678003E-008  0.3105682E+03  0.7818608E-02  0.1080074E+00
          1   -1    0    0  501    0  0.00000000000E+00  0.00000000000E+00  0.10585101361E+04  0.10585101361E+04  0.50400000000E-02 0. -1.
         -1   -1    0    0    0  501 -0.00000000000E+00 -0.00000000000E+00 -0.68955581586E+03  0.68955581588E+03  0.50400000000E-02 0.  1.
    8880022    1    1    2    0    0  0.19848175643E+03 -0.18348287374E+03 -0.62976106915E+03  0.70217635237E+03  0.15294330000E+03 0.  0.
    8880022    1    1    2    0    0 -0.19848175643E+03  0.18348287374E+03  0.99871538940E+03  0.10458895996E+04  0.15294330000E+03 0. -1.
<mgrwt>
<rscale>  0 0.31056823E+03</rscale>
<asrwt>0</asrwt>
<pdfrwt beam="1">  1        1 0.16284771E+00 0.31056823E+03</pdfrwt>
<pdfrwt beam="2">  1       -1 0.10608551E+00 0.31056823E+03</pdfrwt>
<totfact> 0.12820421E+01</totfact>
</mgrwt>
</event>
<event>
 4    1  0.1678003E-008  0.6525371E+03  0.7818608E-02  0.9802030E-01
          1   -1    0    0  501    0  0.00000000000E+00  0.00000000000E+00  0.17638526201E+04  0.17638526201E+04  0.50400000000E-02 0. -1.
         -1   -1    0    0    0  501 -0.00000000000E+00 -0.00000000000E+00 -0.39556868787E+03  0.39556868790E+03  0.50400000000E-02 0.  1.
    8880022    1    1    2    0    0 -0.61156122455E+03  0.16854036782E+03  0.10101387294E+02  0.65261526032E+03  0.15294330000E+03 0.  0.
    8880022    1    1    2    0    0  0.61156122455E+03 -0.16854036782E+03  0.13581825449E+04  0.15068060476E+04  0.15294330000E+03 0.  0.
<mgrwt>
<rscale>  0 0.65253708E+03</rscale>
<asrwt>0</asrwt>
<pdfrwt beam="1">  1        1 0.27136195E+00 0.65253708E+03</pdfrwt>
<pdfrwt beam="2">  1       -1 0.60856719E-01 0.65253708E+03</pdfrwt>
<totfact> 0.12484376E+01</totfact>
</mgrwt>
</event>
<event>
 4    1  0.1678003E-008  0.5370894E+03  0.7818608E-02  0.1004527E+00
         -1   -1    0    0    0  501 -0.00000000000E+00  0.00000000000E+00  0.14055962107E+04  0.14055962108E+04  0.50400000000E-02 0.  1.
          1   -1    0    0  501    0  0.00000000000E+00 -0.00000000000E+00 -0.76939105356E+03  0.76939105358E+03  0.50400000000E-02 0. -1.
    8880022    1    1    2    0    0 -0.51216883346E+03  0.52502071025E+02 -0.61312580978E+03  0.81510017363E+03  0.15294330000E+03 0.  0.
    8880022    1    1    2    0    0  0.51216883346E+03 -0.52502071025E+02  0.12493309670E+04  0.13598870907E+04  0.15294330000E+03 0.  0.
<mgrwt>
<rscale>  0 0.53708941E+03</rscale>
<asrwt>0</asrwt>
<pdfrwt beam="1">  1        1 0.11836786E+00 0.53708941E+03</pdfrwt>
<pdfrwt beam="2">  1       -1 0.21624557E+00 0.53708941E+03</pdfrwt>
<totfact> 0.29790308E+00</totfact>
</mgrwt>
</event>
<event>
 4    1  0.1678003E-008  0.4996169E+03  0.7818608E-02  0.1013879E+00
         -1   -1    0    0    0  501 -0.00000000000E+00  0.00000000000E+00  0.83926414897E+03  0.83926414899E+03  0.50400000000E-02 0.  1.
          1   -1    0    0  501    0  0.00000000000E+00 -0.00000000000E+00 -0.90364811736E+03  0.90364811737E+03  0.50400000000E-02 0. -1.
    8880022    1    1    2    0    0  0.53150006483E+01 -0.47560184172E+03  0.68158507194E+03  0.84508888550E+03  0.15294330000E+03 0.  0.
    8880022    1    1    2    0    0 -0.53150006483E+01  0.47560184172E+03 -0.74596904033E+03  0.89782338086E+03  0.15294330000E+03 0.  0.
<mgrwt>
<rscale>  0 0.49961687E+03</rscale>
<asrwt>0</asrwt>
<pdfrwt beam="1">  1        1 0.13902279E+00 0.49961687E+03</pdfrwt>
<pdfrwt beam="2">  1       -1 0.12911756E+00 0.49961687E+03</pdfrwt>
<totfact> 0.10035235E+01</totfact>
</mgrwt>
</event>
<event>
 4    1  0.1678003E-008  0.8514782E+03  0.7818608E-02  0.9488355E-01
         -1   -1    0    0    0  501 -0.00000000000E+00  0.00000000000E+00  0.68678431945E+03  0.68678431947E+03  0.50400000000E-02 0.  1.
          1   -1    0    0  501    0  0.00000000000E+00 -0.00000000000E+00 -0.15316243130E+04  0.15316243131E+04  0.50400000000E-02 0. -1.
    8880022    1    1    2    0    0  0.29448198639E+03  0.78415803749E+03  0.19590913300E+03  0.87372507660E+03  0.15294330000E+03 0.  0.
    8880022    1    1    2    0    0 -0.29448198639E+03 -0.78415803749E+03 -0.10407491266E+04  0.13446835559E+04  0.15294330000E+03 0.  0.
<mgrwt>
<rscale>  0 0.85147820E+03</rscale>
<asrwt>0</asrwt>
<pdfrwt beam="1">  1        1 0.23563451E+00 0.85147820E+03</pdfrwt>
<pdfrwt beam="2">  1       -1 0.10565913E+00 0.85147820E+03</pdfrwt>
<totfact> 0.53530574E+00</totfact>
</mgrwt>
</event>
<event>
 4    1  0.1678003E-008  0.2012881E+03  0.7818608E-02  0.1148657E+00
         -1   -1    0    0    0  501 -0.00000000000E+00  0.00000000000E+00  0.52519892144E+03  0.52519892147E+03  0.50400000000E-02 0.  1.
          1   -1    0    0  501    0  0.00000000000E+00 -0.00000000000E+00 -0.53446671724E+03  0.53446671727E+03  0.50400000000E-02 0. -1.
    8880022    1    1    2    0    0 -0.10792793236E+03 -0.74005466092E+02 -0.49473880138E+03  0.53411925841E+03  0.15294330000E+03 0.  0.
    8880022    1    1    2    0    0  0.10792793236E+03  0.74005466092E+02  0.48547100558E+03  0.52554638032E+03  0.15294330000E+03 0.  1.
<mgrwt>
<rscale>  0 0.20128810E+03</rscale>
<asrwt>0</asrwt>
<pdfrwt beam="1">  1        1 0.82225649E-01 0.20128810E+03</pdfrwt>
<pdfrwt beam="2">  1       -1 0.80799834E-01 0.20128810E+03</pdfrwt>
<totfact> 0.68013968E+01</totfact>
</mgrwt>
</event>
<event>
 4    1  0.1678003E-008  0.6781958E+03  0.7818608E-02  0.9755264E-01
          1   -1    0    0  501    0  0.00000000000E+00  0.00000000000E+00  0.69651760907E+03  0.69651760909E+03  0.50400000000E-02 0. -1.
         -1   -1    0    0    0  501 -0.00000000000E+00 -0.00000000000E+00 -0.81462439954E+03  0.81462439955E+03  0.50400000000E-02 0.  1.
    8880022    1    1    2    0    0  0.13376087233E+03 -0.64704398820E+03 -0.38785591358E+03  0.78126932382E+03  0.15294330000E+03 0.  0.
    8880022    1    1    2    0    0 -0.13376087233E+03  0.64704398820E+03  0.26974912311E+03  0.72987268483E+03  0.15294330000E+03 0.  0.
<mgrwt>
<rscale>  0 0.67819580E+03</rscale>
<asrwt>0</asrwt>
<pdfrwt beam="1">  1        1 0.10715656E+00 0.67819580E+03</pdfrwt>
<pdfrwt beam="2">  1       -1 0.12532683E+00 0.67819580E+03</pdfrwt>
<totfact> 0.15834129E+01</totfact>
</mgrwt>
</event>
<event>
 4    1  0.1678003E-008  0.3132566E+03  0.7818608E-02  0.1078795E+00
         -1   -1    0    0    0  501 -0.00000000000E+00  0.00000000000E+00  0.33110850437E+03  0.33110850440E+03  0.50400000000E-02 0.  1.
          1   -1    0    0  501    0  0.00000000000E+00 -0.00000000000E+00 -0.88028825638E+03  0.88028825640E+03  0.50400000000E-02 0. -1.
    8880022    1    1    2    0    0 -0.21829871825E+03  0.16457138548E+03 -0.76790110314E+03  0.82933818707E+03  0.15294330000E+03 0.  0.
    8880022    1    1    2    0    0  0.21829871825E+03 -0.16457138548E+03  0.21872135113E+03  0.38205857373E+03  0.15294330000E+03 0.  0.
<mgrwt>
<rscale>  0 0.31325664E+03</rscale>
<asrwt>0</asrwt>
<pdfrwt beam="1">  1        1 0.13542896E+00 0.31325664E+03</pdfrwt>
<pdfrwt beam="2">  1       -1 0.50939770E-01 0.31325664E+03</pdfrwt>
<totfact> 0.78965998E+01</totfact>
</mgrwt>
</event>
<event>
 4    1  0.1678003E-008  0.7848984E+03  0.7818608E-02  0.9582137E-01
         -1   -1    0    0    0  501 -0.00000000000E+00  0.00000000000E+00  0.15467167566E+04  0.15467167566E+04  0.50400000000E-02 0.  1.
          1   -1    0    0  501    0  0.00000000000E+00 -0.00000000000E+00 -0.10646429487E+04  0.10646429487E+04  0.50400000000E-02 0. -1.
    8880022    1    1    2    0    0  0.59934734484E+03 -0.48317354502E+03 -0.79191920804E+03  0.11149895064E+04  0.15294330000E+03 0.  0.
    8880022    1    1    2    0    0 -0.59934734484E+03  0.48317354502E+03  0.12739930160E+04  0.14963701989E+04  0.15294330000E+03 0.  0.
<mgrwt>
<rscale>  0 0.78489844E+03</rscale>
<asrwt>0</asrwt>
<pdfrwt beam="1">  1        1 0.16379122E+00 0.78489844E+03</pdfrwt>
<pdfrwt beam="2">  1       -1 0.23795642E+00 0.78489844E+03</pdfrwt>
<totfact> 0.11766709E+00</totfact>
</mgrwt>
</event>
<event>
 4    1  0.1678003E-008  0.5419656E+03  0.7818608E-02  0.1003371E+00
          1   -1    0    0  501    0  0.00000000000E+00  0.00000000000E+00  0.24961729046E+04  0.24961729046E+04  0.50400000000E-02 0. -1.
         -1   -1    0    0    0  501 -0.00000000000E+00 -0.00000000000E+00 -0.24948009446E+03  0.24948009451E+03  0.50400000000E-02 0.  1.
    8880022    1    1    2    0    0  0.28442735053E+03  0.43524267116E+03  0.21212088121E+04  0.21893500355E+04  0.15294330000E+03 0.  0.
    8880022    1    1    2    0    0 -0.28442735053E+03 -0.43524267116E+03  0.12548399805E+03  0.55630296360E+03  0.15294330000E+03 0.  0.
<mgrwt>
<rscale>  0 0.54196564E+03</rscale>
<asrwt>0</asrwt>
<pdfrwt beam="1">  1        1 0.38402659E+00 0.54196564E+03</pdfrwt>
<pdfrwt beam="2">  1       -1 0.38381554E-01 0.54196564E+03</pdfrwt>
<totfact> 0.98262322E+00</totfact>
</mgrwt>
</event>
<event>
 4    1  0.1678003E-008  0.2136220E+03  0.7818608E-02  0.1138729E+00
          1   -1    0    0  501    0  0.00000000000E+00  0.00000000000E+00  0.27237398839E+03  0.27237398844E+03  0.50400000000E-02 0. -1.
         -1   -1    0    0    0  501 -0.00000000000E+00 -0.00000000000E+00 -0.23929777969E+04  0.23929777969E+04  0.50400000000E-02 0.  1.
    8880022    1    1    2    0    0  0.20996231122E+02  0.14765450608E+03  0.22487421468E+03  0.31016569818E+03  0.15294330000E+03 0. -1.
    8880022    1    1    2    0    0 -0.20996231122E+02 -0.14765450608E+03 -0.23454780232E+04  0.23551860872E+04  0.15294330000E+03 0.  0.
<mgrwt>
<rscale>  0 0.21362197E+03</rscale>
<asrwt>0</asrwt>
<pdfrwt beam="1">  1        1 0.41903692E-01 0.21362197E+03</pdfrwt>
<pdfrwt beam="2">  1       -1 0.36815042E+00 0.21362197E+03</pdfrwt>
<totfact> 0.14747410E+00</totfact>
</mgrwt>
</event>
<event>
 4    1  0.1678003E-008  0.3872374E+03  0.7818608E-02  0.1048291E+00
          1   -1    0    0  501    0  0.00000000000E+00  0.00000000000E+00  0.72229915218E+03  0.72229915220E+03  0.50400000000E-02 0. -1.
         -1   -1    0    0    0  501 -0.00000000000E+00 -0.00000000000E+00 -0.51647888320E+03  0.51647888323E+03  0.50400000000E-02 0.  1.
    8880022    1    1    2    0    0  0.23657268511E+03 -0.26569629887E+03  0.58190174965E+03  0.69897242996E+03  0.15294330000E+03 0.  0.
    8880022    1    1    2    0    0 -0.23657268511E+03  0.26569629887E+03 -0.37608148067E+03  0.53980560547E+03  0.15294330000E+03 0.  0.
<mgrwt>
<rscale>  0 0.38723741E+03</rscale>
<asrwt>0</asrwt>
<pdfrwt beam="1">  1        1 0.11112295E+00 0.38723741E+03</pdfrwt>
<pdfrwt beam="2">  1       -1 0.79458290E-01 0.38723741E+03</pdfrwt>
<totfact> 0.44089704E+01</totfact>
</mgrwt>
</event>
<event>
 4    1  0.1678003E-008  0.1372324E+04  0.7818608E-02  0.8974099E-01
         -1   -1    0    0    0  501 -0.00000000000E+00  0.00000000000E+00  0.72011807502E+03  0.72011807504E+03  0.50400000000E-02 0.  1.
          1   -1    0    0  501    0  0.00000000000E+00 -0.00000000000E+00 -0.39149673700E+04  0.39149673700E+04  0.50400000000E-02 0. -1.
    8880022    1    1    2    0    0  0.63138366048E+03 -0.12088163276E+04 -0.26208545932E+03  0.13971265804E+04  0.15294330000E+03 0.  0.
    8880022    1    1    2    0    0 -0.63138366048E+03  0.12088163276E+04 -0.29327638357E+04  0.32379588647E+04  0.15294330000E+03 0.  0.
<mgrwt>
<rscale>  0 0.13723243E+04</rscale>
<asrwt>0</asrwt>
<pdfrwt beam="1">  1        1 0.60230266E+00 0.13723243E+04</pdfrwt>
<pdfrwt beam="2">  1       -1 0.11078740E+00 0.13723243E+04</pdfrwt>
<totfact> 0.84058756E-02</totfact>
</mgrwt>
</event>
<event>
 4    1  0.1678003E-008  0.5634057E+03  0.7818608E-02  0.9984378E-01
          1   -1    0    0  501    0  0.00000000000E+00  0.00000000000E+00  0.82955466669E+03  0.82955466671E+03  0.50400000000E-02 0. -1.
         -1   -1    0    0    0  501 -0.00000000000E+00 -0.00000000000E+00 -0.66218470348E+03  0.66218470350E+03  0.50400000000E-02 0.  1.
    8880022    1    1    2    0    0 -0.54193156259E+02 -0.53953449767E+03  0.56829693573E+03  0.80024210870E+03  0.15294330000E+03 0.  0.
    8880022    1    1    2    0    0  0.54193156259E+02  0.53953449767E+03 -0.40092697252E+03  0.69149726151E+03  0.15294330000E+03 0.  0.
<mgrwt>
<rscale>  0 0.56340574E+03</rscale>
<asrwt>0</asrwt>
<pdfrwt beam="1">  1        1 0.12762379E+00 0.56340574E+03</pdfrwt>
<pdfrwt beam="2">  1       -1 0.10187457E+00 0.56340574E+03</pdfrwt>
<totfact> 0.20066826E+01</totfact>
</mgrwt>
</event>
<event>
 4    1  0.1678003E-008  0.2714113E+03  0.7818608E-02  0.1100475E+00
         -1   -1    0    0    0  501 -0.00000000000E+00  0.00000000000E+00  0.90299924985E+03  0.90299924986E+03  0.50400000000E-02 0.  1.
          1   -1    0    0  501    0  0.00000000000E+00 -0.00000000000E+00 -0.19222984037E+04  0.19222984037E+04  0.50400000000E-02 0. -1.
    8880022    1    1    2    0    0 -0.15049637193E+03 -0.16620259735E+03  0.87269980516E+03  0.91393055768E+03  0.15294330000E+03 0.  0.
    8880022    1    1    2    0    0  0.15049637193E+03  0.16620259735E+03 -0.18919989590E+04  0.19113670959E+04  0.15294330000E+03 0.  0.
<mgrwt>
<rscale>  0 0.27141134E+03</rscale>
<asrwt>0</asrwt>
<pdfrwt beam="1">  1        1 0.29573822E+00 0.27141134E+03</pdfrwt>
<pdfrwt beam="2">  1       -1 0.13892296E+00 0.27141134E+03</pdfrwt>
<totfact> 0.17833117E+00</totfact>
</mgrwt>
</event>
<event>
 4    1  0.1678003E-008  0.5237795E+03  0.7818608E-02  0.1007752E+00
         -1   -1    0    0    0  501 -0.00000000000E+00  0.00000000000E+00  0.45483889799E+03  0.45483889802E+03  0.50400000000E-02 0.  1.
          1   -1    0    0  501    0  0.00000000000E+00 -0.00000000000E+00 -0.77913732305E+03  0.77913732306E+03  0.50400000000E-02 0. -1.
    8880022    1    1    2    0    0  0.49585430237E+03  0.71286905420E+02  0.13106592160E+03  0.53992892206E+03  0.15294330000E+03 0.  0.
    8880022    1    1    2    0    0 -0.49585430237E+03 -0.71286905420E+02 -0.45536434666E+03  0.69404729902E+03  0.15294330000E+03 0.  0.
<mgrwt>
<rscale>  0 0.52377950E+03</rscale>
<asrwt>0</asrwt>
<pdfrwt beam="1">  1        1 0.11986728E+00 0.52377950E+03</pdfrwt>
<pdfrwt beam="2">  1       -1 0.69975215E-01 0.52377950E+03</pdfrwt>
<totfact> 0.49945807E+01</totfact>
</mgrwt>
</event>
<event>
 4    1  0.1678003E-008  0.5621954E+03  0.7818608E-02  0.9987099E-01
          1   -1    0    0  501    0  0.00000000000E+00  0.00000000000E+00  0.24368543447E+03  0.24368543452E+03  0.50400000000E-02 0. -1.
         -1   -1    0    0    0  501 -0.00000000000E+00 -0.00000000000E+00 -0.32714204938E+04  0.32714204938E+04  0.50400000000E-02 0.  1.
    8880022    1    1    2    0    0 -0.45234217429E+03  0.29674655270E+03 -0.14847213048E+03  0.58147019333E+03  0.15294330000E+03 0.  0.
    8880022    1    1    2    0    0  0.45234217429E+03 -0.29674655270E+03 -0.28792629288E+04  0.29336357350E+04  0.15294330000E+03 0.  0.
<mgrwt>
<rscale>  0 0.56219535E+03</rscale>
<asrwt>0</asrwt>
<pdfrwt beam="1">  1        1 0.37490069E-01 0.56219535E+03</pdfrwt>
<pdfrwt beam="2">  1       -1 0.50329543E+00 0.56219535E+03</pdfrwt>
<totfact> 0.18037574E-01</totfact>
</mgrwt>
</event>
<event>
 4    1  0.1678003E-008  0.8942840E+03  0.7818608E-02  0.9432755E-01
          1   -1    0    0  501    0  0.00000000000E+00  0.00000000000E+00  0.11017127982E+04  0.11017127982E+04  0.50400000000E-02 0. -1.
         -1   -1    0    0    0  501 -0.00000000000E+00 -0.00000000000E+00 -0.13448346428E+04  0.13448346428E+04  0.50400000000E-02 0.  1.
    8880022    1    1    2    0    0 -0.86884065943E+03 -0.14651993714E+03 -0.95142745177E+03  0.13057404154E+04  0.15294330000E+03 0.  0.
    8880022    1    1    2    0    0  0.86884065943E+03  0.14651993714E+03  0.70830560721E+03  0.11408070256E+04  0.15294330000E+03 0.  0.
<mgrwt>
<rscale>  0 0.89428398E+03</rscale>
<asrwt>0</asrwt>
<pdfrwt beam="1">  1        1 0.16949428E+00 0.89428398E+03</pdfrwt>
<pdfrwt beam="2">  1       -1 0.20689764E+00 0.89428398E+03</pdfrwt>
<totfact> 0.17410331E+00</totfact>
</mgrwt>
</event>
<event>
 4    1  0.1678003E-008  0.2959631E+03  0.7818608E-02  0.1087276E+00
         -1   -1    0    0    0  501 -0.00000000000E+00  0.00000000000E+00  0.10982743318E+04  0.10982743318E+04  0.50400000000E-02 0.  1.
          1   -1    0    0  501    0  0.00000000000E+00 -0.00000000000E+00 -0.74690011092E+03  0.74690011094E+03  0.50400000000E-02 0. -1.
    8880022    1    1    2    0    0 -0.80078661463E+02 -0.24039533884E+03 -0.69625156830E+03  0.75654504845E+03  0.15294330000E+03 0.  0.
    8880022    1    1    2    0    0  0.80078661463E+02  0.24039533884E+03  0.10476257892E+04  0.10886293943E+04  0.15294330000E+03 0.  0.
<mgrwt>
<rscale>  0 0.29596311E+03</rscale>
<asrwt>0</asrwt>
<pdfrwt beam="1">  1        1 0.11490771E+00 0.29596311E+03</pdfrwt>
<pdfrwt beam="2">  1       -1 0.16896528E+00 0.29596311E+03</pdfrwt>
<totfact> 0.70681968E+00</totfact>
</mgrwt>
</event>
<event>
 4    1  0.1678003E-008  0.3062162E+03  0.7818608E-02  0.1082174E+00
         -1   -1    0    0    0  501 -0.00000000000E+00  0.00000000000E+00  0.82911987269E+02  0.82911987422E+02  0.50400000000E-02 0.  1.
          1   -1    0    0  501    0  0.00000000000E+00 -0.00000000000E+00 -0.35979760711E+04  0.35979760711E+04  0.50400000000E-02 0. -1.
    8880022    1    1    2    0    0 -0.10896164255E+03  0.24187619878E+03 -0.23354480627E+03  0.38511240520E+03  0.15294330000E+03 0.  0.
    8880022    1    1    2    0    0  0.10896164255E+03 -0.24187619878E+03 -0.32815192775E+04  0.32957756533E+04  0.15294330000E+03 0.  0.
<mgrwt>
<rscale>  0 0.30621624E+03</rscale>
<asrwt>0</asrwt>
<pdfrwt beam="1">  1        1 0.55353466E+00 0.30621624E+03</pdfrwt>
<pdfrwt beam="2">  1       -1 0.12755693E-01 0.30621624E+03</pdfrwt>
<totfact> 0.10848985E+01</totfact>
</mgrwt>
</event>
<event>
 4    1  0.1678003E-008  0.3149829E+03  0.7818608E-02  0.1077982E+00
         -1   -1    0    0    0  501 -0.00000000000E+00  0.00000000000E+00  0.34079717717E+03  0.34079717720E+03  0.50400000000E-02 0.  1.
          1   -1    0    0  501    0  0.00000000000E+00 -0.00000000000E+00 -0.10043120155E+04  0.10043120155E+04  0.50400000000E-02 0. -1.
    8880022    1    1    2    0    0 -0.13777543408E+03 -0.23841243600E+03  0.23499744483E+03  0.39298602007E+03  0.15294330000E+03 0.  1.
    8880022    1    1    2    0    0  0.13777543408E+03  0.23841243600E+03 -0.89851228315E+03  0.95212317263E+03  0.15294330000E+03 0.  0.
<mgrwt>
<rscale>  0 0.31498288E+03</rscale>
<asrwt>0</asrwt>
<pdfrwt beam="1">  1        1 0.15450954E+00 0.31498288E+03</pdfrwt>
<pdfrwt beam="2">  1       -1 0.52430335E-01 0.31498288E+03</pdfrwt>
<totfact> 0.59927082E+01</totfact>
</mgrwt>
</event>
<event>
 4    1  0.1678003E-008  0.6063123E+03  0.7818608E-02  0.9892396E-01
         -1   -1    0    0    0  501 -0.00000000000E+00  0.00000000000E+00  0.11218165808E+04  0.11218165808E+04  0.50400000000E-02 0.  1.
          1   -1    0    0  501    0  0.00000000000E+00 -0.00000000000E+00 -0.38867584910E+03  0.38867584913E+03  0.50400000000E-02 0. -1.
    8880022    1    1    2    0    0 -0.58669906695E+03 -0.26831687170E+01  0.66571998612E+03  0.90044308398E+03  0.15294330000E+03 0.  0.
    8880022    1    1    2    0    0  0.58669906695E+03  0.26831687170E+01  0.67420745578E+02  0.61004934596E+03  0.15294330000E+03 0.  0.
<mgrwt>
<rscale>  0 0.60631233E+03</rscale>
<asrwt>0</asrwt>
<pdfrwt beam="1">  1        1 0.59796284E-01 0.60631233E+03</pdfrwt>
<pdfrwt beam="2">  1       -1 0.17258717E+00 0.60631233E+03</pdfrwt>
<totfact> 0.15362145E+01</totfact>
</mgrwt>
</event>
<event>
 4    1  0.1678003E-008  0.5056061E+03  0.7818608E-02  0.1012326E+00
          1   -1    0    0  501    0  0.00000000000E+00  0.00000000000E+00  0.48487353896E+03  0.48487353899E+03  0.50400000000E-02 0. -1.
         -1   -1    0    0    0  501 -0.00000000000E+00 -0.00000000000E+00 -0.86304909690E+03  0.86304909691E+03  0.50400000000E-02 0.  1.
    8880022    1    1    2    0    0 -0.36425270365E+03 -0.31554050613E+03 -0.60949782765E+03  0.79191230452E+03  0.15294330000E+03 0.  0.
    8880022    1    1    2    0    0  0.36425270365E+03  0.31554050613E+03  0.23132226972E+03  0.55601033138E+03  0.15294330000E+03 0. -1.
<mgrwt>
<rscale>  0 0.50560607E+03</rscale>
<asrwt>0</asrwt>
<pdfrwt beam="1">  1        1 0.74595929E-01 0.50560607E+03</pdfrwt>
<pdfrwt beam="2">  1       -1 0.13277678E+00 0.50560607E+03</pdfrwt>
<totfact> 0.23495354E+01</totfact>
</mgrwt>
</event>
<event>
 4    1  0.1678003E-008  0.3361055E+03  0.7818608E-02  0.1068467E+00
          1   -1    0    0  501    0  0.00000000000E+00  0.00000000000E+00  0.96026408995E+03  0.96026408997E+03  0.50400000000E-02 0. -1.
         -1   -1    0    0    0  501 -0.00000000000E+00 -0.00000000000E+00 -0.31727226647E+03  0.31727226651E+03  0.50400000000E-02 0.  1.
    8880022    1    1    2    0    0 -0.85695934969E+02 -0.28676028292E+03 -0.18519248179E+03  0.38374882600E+03  0.15294330000E+03 0.  0.
    8880022    1    1    2    0    0  0.85695934969E+02  0.28676028292E+03  0.82818430527E+03  0.89378753048E+03  0.15294330000E+03 0. -1.
<mgrwt>
<rscale>  0 0.33610550E+03</rscale>
<asrwt>0</asrwt>
<pdfrwt beam="1">  1        1 0.14773294E+00 0.33610550E+03</pdfrwt>
<pdfrwt beam="2">  1       -1 0.48811118E-01 0.33610550E+03</pdfrwt>
<totfact> 0.73654155E+01</totfact>
</mgrwt>
</event>
<event>
 4    1  0.1678003E-008  0.2054422E+03  0.7818608E-02  0.1145227E+00
         -1   -1    0    0    0  501 -0.00000000000E+00  0.00000000000E+00  0.18995634251E+03  0.18995634257E+03  0.50400000000E-02 0.  1.
          1   -1    0    0  501    0  0.00000000000E+00 -0.00000000000E+00 -0.47141999592E+03  0.47141999595E+03  0.50400000000E-02 0. -1.
    8880022    1    1    2    0    0  0.10167572530E+03  0.92070075385E+02 -0.38117604073E+03  0.43301464056E+03  0.15294330000E+03 0.  0.
    8880022    1    1    2    0    0 -0.10167572530E+03 -0.92070075385E+02  0.99712387320E+02  0.22836169796E+03  0.15294330000E+03 0.  1.
<mgrwt>
<rscale>  0 0.20544222E+03</rscale>
<asrwt>0</asrwt>
<pdfrwt beam="1">  1        1 0.72526153E-01 0.20544222E+03</pdfrwt>
<pdfrwt beam="2">  1       -1 0.29224053E-01 0.20544222E+03</pdfrwt>
<totfact> 0.52624336E+02</totfact>
</mgrwt>
</event>
<event>
 4    1  0.1678003E-008  0.9657591E+03  0.7818608E-02  0.9346918E-01
          1   -1    0    0  501    0  0.00000000000E+00  0.00000000000E+00  0.23427564195E+04  0.23427564195E+04  0.50400000000E-02 0. -1.
         -1   -1    0    0    0  501 -0.00000000000E+00 -0.00000000000E+00 -0.10203829088E+04  0.10203829088E+04  0.50400000000E-02 0.  1.
    8880022    1    1    2    0    0  0.74770878425E+03 -0.59180288431E+03  0.19743579381E+04  0.21979035468E+04  0.15294330000E+03 0.  0.
    8880022    1    1    2    0    0 -0.74770878425E+03  0.59180288431E+03 -0.65198442751E+03  0.11652357816E+04  0.15294330000E+03 0.  0.
<mgrwt>
<rscale>  0 0.96575915E+03</rscale>
<asrwt>0</asrwt>
<pdfrwt beam="1">  1        1 0.36042406E+00 0.96575915E+03</pdfrwt>
<pdfrwt beam="2">  1       -1 0.15698199E+00 0.96575915E+03</pdfrwt>
<totfact> 0.54792603E-01</totfact>
</mgrwt>
</event>
<event>
 4    1  0.1678003E-008  0.6734046E+03  0.7818608E-02  0.9763827E-01
         -1   -1    0    0    0  501 -0.00000000000E+00  0.00000000000E+00  0.68888828425E+03  0.68888828427E+03  0.50400000000E-02 0.  1.
          1   -1    0    0  501    0  0.00000000000E+00 -0.00000000000E+00 -0.86417833874E+03  0.86417833876E+03  0.50400000000E-02 0. -1.
    8880022    1    1    2    0    0  0.30147298926E+03 -0.58240542423E+03 -0.46669510427E+03  0.81931557705E+03  0.15294330000E+03 0.  0.
    8880022    1    1    2    0    0 -0.30147298926E+03  0.58240542423E+03  0.29140504977E+03  0.73375104598E+03  0.15294330000E+03 0.  0.
<mgrwt>
<rscale>  0 0.67340455E+03</rscale>
<asrwt>0</asrwt>
<pdfrwt beam="1">  1        1 0.13295051E+00 0.67340455E+03</pdfrwt>
<pdfrwt beam="2">  1       -1 0.10598281E+00 0.67340455E+03</pdfrwt>
<totfact> 0.16866334E+01</totfact>
</mgrwt>
</event>
<event>
 4    1  0.1678003E-008  0.1001800E+04  0.7818608E-02  0.9306573E-01
         -1   -1    0    0    0  501 -0.00000000000E+00  0.00000000000E+00  0.41751026640E+03  0.41751026643E+03  0.50400000000E-02 0.  1.
          1   -1    0    0  501    0  0.00000000000E+00 -0.00000000000E+00 -0.33142876791E+04  0.33142876791E+04  0.50400000000E-02 0. -1.
    8880022    1    1    2    0    0  0.61707945688E+03  0.77422536630E+03 -0.24263786175E+04  0.26250555846E+04  0.15294330000E+03 0.  0.
    8880022    1    1    2    0    0 -0.61707945688E+03 -0.77422536630E+03 -0.47039879522E+03  0.11067423609E+04  0.15294330000E+03 0.  0.
<mgrwt>
<rscale>  0 0.10018002E+04</rscale>
<asrwt>0</asrwt>
<pdfrwt beam="1">  1        1 0.50989040E+00 0.10018002E+04</pdfrwt>
<pdfrwt beam="2">  1       -1 0.64232351E-01 0.10018002E+04</pdfrwt>
<totfact> 0.88590855E-01</totfact>
</mgrwt>
</event>
<event>
 4    1  0.1678003E-008  0.5606962E+03  0.7818608E-02  0.9990481E-01
          1   -1    0    0  501    0  0.00000000000E+00  0.00000000000E+00  0.63303288840E+03  0.63303288842E+03  0.50400000000E-02 0. -1.
         -1   -1    0    0    0  501 -0.00000000000E+00 -0.00000000000E+00 -0.73146286896E+03  0.73146286898E+03  0.50400000000E-02 0.  1.
    8880022    1    1    2    0    0 -0.51643575508E+03  0.15582885920E+03 -0.43578646087E+03  0.71013380075E+03  0.15294330000E+03 0.  0.
    8880022    1    1    2    0    0  0.51643575508E+03 -0.15582885920E+03  0.33735648031E+03  0.65436195664E+03  0.15294330000E+03 0.  0.
<mgrwt>
<rscale>  0 0.56069615E+03</rscale>
<asrwt>0</asrwt>
<pdfrwt beam="1">  1        1 0.97389676E-01 0.56069615E+03</pdfrwt>
<pdfrwt beam="2">  1       -1 0.11253275E+00 0.56069615E+03</pdfrwt>
<totfact> 0.24042969E+01</totfact>
</mgrwt>
</event>
<event>
 4    1  0.1678003E-008  0.8294181E+03  0.7818608E-02  0.9518385E-01
          1   -1    0    0  501    0  0.00000000000E+00  0.00000000000E+00  0.16312937887E+04  0.16312937887E+04  0.50400000000E-02 0. -1.
         -1   -1    0    0    0  501 -0.00000000000E+00 -0.00000000000E+00 -0.75144773690E+03  0.75144773692E+03  0.50400000000E-02 0.  1.
    8880022    1    1    2    0    0 -0.56889140949E+03  0.58387096312E+03  0.12291124812E+04  0.14827851772E+04  0.15294330000E+03 0.  0.
    8880022    1    1    2    0    0  0.56889140949E+03 -0.58387096312E+03 -0.34926642937E+03  0.89995634842E+03  0.15294330000E+03 0.  0.
<mgrwt>
<rscale>  0 0.82941810E+03</rscale>
<asrwt>0</asrwt>
<pdfrwt beam="1">  1        1 0.25096827E+00 0.82941810E+03</pdfrwt>
<pdfrwt beam="2">  1       -1 0.11560734E+00 0.82941810E+03</pdfrwt>
<totfact> 0.37130227E+00</totfact>
</mgrwt>
</event>
<event>
 4    1  0.1678003E-008  0.1589442E+04  0.7818608E-02  0.8827061E-01
          1   -1    0    0  501    0  0.00000000000E+00  0.00000000000E+00  0.26055672104E+04  0.26055672104E+04  0.50400000000E-02 0. -1.
         -1   -1    0    0    0  501 -0.00000000000E+00 -0.00000000000E+00 -0.13151400033E+04  0.13151400033E+04  0.50400000000E-02 0.  1.
    8880022    1    1    2    0    0  0.15177825711E+04 -0.44639524023E+03  0.16500739517E+04  0.22910845342E+04  0.15294330000E+03 0.  0.
    8880022    1    1    2    0    0 -0.15177825711E+04  0.44639524023E+03 -0.35964674462E+03  0.16296226795E+04  0.15294330000E+03 0.  0.
<mgrwt>
<rscale>  0 0.15894415E+04</rscale>
<asrwt>0</asrwt>
<pdfrwt beam="1">  1        1 0.40085649E+00 0.15894415E+04</pdfrwt>
<pdfrwt beam="2">  1       -1 0.20232923E+00 0.15894415E+04</pdfrwt>
<totfact> 0.15515567E-01</totfact>
</mgrwt>
</event>
<event>
 4    1  0.1678003E-008  0.1852777E+03  0.7818608E-02  0.1162791E+00
          1   -1    0    0  501    0  0.00000000000E+00  0.00000000000E+00  0.11531712528E+04  0.11531712528E+04  0.50400000000E-02 0. -1.
         -1   -1    0    0    0  501 -0.00000000000E+00 -0.00000000000E+00 -0.38678349972E+03  0.38678349976E+03  0.50400000000E-02 0.  1.
    8880022    1    1    2    0    0 -0.65665792802E+02 -0.81389135631E+02 -0.35656026469E+03  0.40182466713E+03  0.15294330000E+03 0.  0.
    8880022    1    1    2    0    0  0.65665792802E+02  0.81389135631E+02  0.11229480177E+04  0.11381300854E+04  0.15294330000E+03 0.  0.
<mgrwt>
<rscale>  0 0.18527774E+03</rscale>
<asrwt>0</asrwt>
<pdfrwt beam="1">  1        1 0.17741096E+00 0.18527774E+03</pdfrwt>
<pdfrwt beam="2">  1       -1 0.59505155E-01 0.18527774E+03</pdfrwt>
<totfact> 0.38348278E+01</totfact>
</mgrwt>
</event>
<event>
 4    1  0.1678003E-008  0.5253959E+03  0.7818608E-02  0.1007355E+00
         -1   -1    0    0    0  501 -0.00000000000E+00  0.00000000000E+00  0.23162956268E+03  0.23162956273E+03  0.50400000000E-02 0.  1.
          1   -1    0    0  501    0  0.00000000000E+00 -0.00000000000E+00 -0.16911675673E+04  0.16911675673E+04  0.50400000000E-02 0. -1.
    8880022    1    1    2    0    0  0.50240478732E+03 -0.15446040902E+02 -0.12522241997E+04  0.13579787369E+04  0.15294330000E+03 0.  0.
    8880022    1    1    2    0    0 -0.50240478732E+03  0.15446040902E+02 -0.20731380490E+03  0.56481839314E+03  0.15294330000E+03 0.  0.
<mgrwt>
<rscale>  0 0.52539585E+03</rscale>
<asrwt>0</asrwt>
<pdfrwt beam="1">  1        1 0.26017962E+00 0.52539585E+03</pdfrwt>
<pdfrwt beam="2">  1       -1 0.35635319E-01 0.52539585E+03</pdfrwt>
<totfact> 0.38699171E+01</totfact>
</mgrwt>
</event>
<event>
 4    1  0.1678003E-008  0.2354471E+03  0.7818608E-02  0.1122864E+00
         -1   -1    0    0    0  501 -0.00000000000E+00  0.00000000000E+00  0.10906950355E+04  0.10906950355E+04  0.50400000000E-02 0.  1.
          1   -1    0    0  501    0  0.00000000000E+00 -0.00000000000E+00 -0.23813671028E+03  0.23813671034E+03  0.50400000000E-02 0. -1.
    8880022    1    1    2    0    0 -0.17746763787E+03 -0.23428938026E+02  0.10155412312E+04  0.10424774927E+04  0.15294330000E+03 0.  1.
    8880022    1    1    2    0    0  0.17746763787E+03  0.23428938026E+02 -0.16298290596E+03  0.28635425311E+03  0.15294330000E+03 0.  0.
<mgrwt>
<rscale>  0 0.23544709E+03</rscale>
<asrwt>0</asrwt>
<pdfrwt beam="1">  1        1 0.36636417E-01 0.23544709E+03</pdfrwt>
<pdfrwt beam="2">  1       -1 0.16779923E+00 0.23544709E+03</pdfrwt>
<totfact> 0.33420330E+01</totfact>
</mgrwt>
</event>
<event>
 4    1  0.1678003E-008  0.7065456E+03  0.7818608E-02  0.9706103E-01
          1   -1    0    0  501    0  0.00000000000E+00  0.00000000000E+00  0.15285647860E+04  0.15285647860E+04  0.50400000000E-02 0. -1.
         -1   -1    0    0    0  501 -0.00000000000E+00 -0.00000000000E+00 -0.74166142525E+03  0.74166142526E+03  0.50400000000E-02 0.  1.
    8880022    1    1    2    0    0  0.68973553979E+03 -0.89386598824E+01 -0.45572920692E+03  0.84077094238E+03  0.15294330000E+03 0.  0.
    8880022    1    1    2    0    0 -0.68973553979E+03  0.89386598824E+01  0.12426325677E+04  0.14294552689E+04  0.15294330000E+03 0.  0.
<mgrwt>
<rscale>  0 0.70654559E+03</rscale>
<asrwt>0</asrwt>
<pdfrwt beam="1">  1        1 0.23516381E+00 0.70654559E+03</pdfrwt>
<pdfrwt beam="2">  1       -1 0.11410176E+00 0.70654559E+03</pdfrwt>
<totfact> 0.45934776E+00</totfact>
</mgrwt>
</event>
<event>
 4    1  0.1678003E-008  0.3016500E+03  0.7818608E-02  0.1084419E+00
         -1   -1    0    0    0  501 -0.00000000000E+00  0.00000000000E+00  0.25965406914E+03  0.25965406919E+03  0.50400000000E-02 0.  1.
          1   -1    0    0  501    0  0.00000000000E+00 -0.00000000000E+00 -0.40423577937E+03  0.40423577940E+03  0.50400000000E-02 0. -1.
    8880022    1    1    2    0    0 -0.24870897542E+02 -0.25880977768E+03 -0.19338687081E+03  0.35831717428E+03  0.15294330000E+03 0.  0.
    8880022    1    1    2    0    0  0.24870897542E+02  0.25880977768E+03  0.48805160587E+02  0.30557267431E+03  0.15294330000E+03 0.  0.
<mgrwt>
<rscale>  0 0.30164999E+03</rscale>
<asrwt>0</asrwt>
<pdfrwt beam="1">  1        1 0.62190120E-01 0.30164999E+03</pdfrwt>
<pdfrwt beam="2">  1       -1 0.39946780E-01 0.30164999E+03</pdfrwt>
<totfact> 0.37163215E+02</totfact>
</mgrwt>
</event>
<event>
 4    1  0.1678003E-008  0.5884344E+03  0.7818608E-02  0.9929696E-01
         -1   -1    0    0    0  501 -0.00000000000E+00  0.00000000000E+00  0.90853415625E+03  0.90853415627E+03  0.50400000000E-02 0.  1.
          1   -1    0    0  501    0  0.00000000000E+00 -0.00000000000E+00 -0.56037798760E+03  0.56037798763E+03  0.50400000000E-02 0. -1.
    8880022    1    1    2    0    0 -0.37861056731E+03  0.42369501722E+03  0.58948318407E+03  0.83291386506E+03  0.15294330000E+03 0.  0.
    8880022    1    1    2    0    0  0.37861056731E+03 -0.42369501722E+03 -0.24132701542E+03  0.63599827883E+03  0.15294330000E+03 0. -1.
<mgrwt>
<rscale>  0 0.58843443E+03</rscale>
<asrwt>0</asrwt>
<pdfrwt beam="1">  1        1 0.86212000E-01 0.58843443E+03</pdfrwt>
<pdfrwt beam="2">  1       -1 0.13977448E+00 0.58843443E+03</pdfrwt>
<totfact> 0.16678899E+01</totfact>
</mgrwt>
</event>
<event>
 4    1  0.1678003E-008  0.7701191E+03  0.7818608E-02  0.9604305E-01
          1   -1    0    0  501    0  0.00000000000E+00  0.00000000000E+00  0.34849438738E+04  0.34849438738E+04  0.50400000000E-02 0. -1.
         -1   -1    0    0    0  501 -0.00000000000E+00 -0.00000000000E+00 -0.19609274484E+03  0.19609274490E+03  0.50400000000E-02 0.  1.
    8880022    1    1    2    0    0  0.75468916200E+03 -0.11663027776E+02  0.23134291177E+04  0.24382447977E+04  0.15294330000E+03 0.  0.
    8880022    1    1    2    0    0 -0.75468916200E+03  0.11663027776E+02  0.97542201117E+03  0.12427918210E+04  0.15294330000E+03 0.  0.
<mgrwt>
<rscale>  0 0.77011909E+03</rscale>
<asrwt>0</asrwt>
<pdfrwt beam="1">  1        1 0.53614517E+00 0.77011909E+03</pdfrwt>
<pdfrwt beam="2">  1       -1 0.30168117E-01 0.77011909E+03</pdfrwt>
<totfact> 0.27981771E+00</totfact>
</mgrwt>
</event>
<event>
 4    1  0.1678003E-008  0.5039861E+03  0.7818608E-02  0.1012744E+00
         -1   -1    0    0    0  501 -0.00000000000E+00  0.00000000000E+00  0.24610238476E+03  0.24610238481E+03  0.50400000000E-02 0.  1.
          1   -1    0    0  501    0  0.00000000000E+00 -0.00000000000E+00 -0.14639552369E+04  0.14639552369E+04  0.50400000000E-02 0. -1.
    8880022    1    1    2    0    0  0.30298694426E+03  0.37257109866E+03 -0.14453245675E+03  0.52430105475E+03  0.15294330000E+03 0.  0.
    8880022    1    1    2    0    0 -0.30298694426E+03 -0.37257109866E+03 -0.10733203954E+04  0.11857565670E+04  0.15294330000E+03 0.  0.
<mgrwt>
<rscale>  0 0.50398608E+03</rscale>
<asrwt>0</asrwt>
<pdfrwt beam="1">  1        1 0.22522388E+00 0.50398608E+03</pdfrwt>
<pdfrwt beam="2">  1       -1 0.37861906E-01 0.50398608E+03</pdfrwt>
<totfact> 0.49564841E+01</totfact>
</mgrwt>
</event>
<event>
 4    1  0.1678003E-008  0.2931534E+03  0.7818608E-02  0.1088714E+00
         -1   -1    0    0    0  501 -0.00000000000E+00  0.00000000000E+00  0.28680608538E+03  0.28680608542E+03  0.50400000000E-02 0.  1.
          1   -1    0    0  501    0  0.00000000000E+00 -0.00000000000E+00 -0.19138389076E+04  0.19138389076E+04  0.50400000000E-02 0. -1.
    8880022    1    1    2    0    0  0.17303316913E+03 -0.18057354805E+03  0.19700532067E+03  0.35319970734E+03  0.15294330000E+03 0.  0.
    8880022    1    1    2    0    0 -0.17303316913E+03  0.18057354805E+03 -0.18240381429E+04  0.18474452857E+04  0.15294330000E+03 0.  0.
<mgrwt>
<rscale>  0 0.29315344E+03</rscale>
<asrwt>0</asrwt>
<pdfrwt beam="1">  1        1 0.29443675E+00 0.29315344E+03</pdfrwt>
<pdfrwt beam="2">  1       -1 0.44124014E-01 0.29315344E+03</pdfrwt>
<totfact> 0.19962602E+01</totfact>
</mgrwt>
</event>
<event>
 4    1  0.1678003E-008  0.3493022E+03  0.7818608E-02  0.1062902E+00
         -1   -1    0    0    0  501 -0.00000000000E+00  0.00000000000E+00  0.43822330167E+03  0.43822330170E+03  0.50400000000E-02 0.  1.
          1   -1    0    0  501    0  0.00000000000E+00 -0.00000000000E+00 -0.40634118059E+03  0.40634118062E+03  0.50400000000E-02 0. -1.
    8880022    1    1    2    0    0  0.10503437014E+02 -0.31386305795E+03  0.25287180158E+03  0.43122632386E+03  0.15294330000E+03 0.  0.
    8880022    1    1    2    0    0 -0.10503437014E+02  0.31386305795E+03 -0.22098968050E+03  0.41333815846E+03  0.15294330000E+03 0.  0.
<mgrwt>
<rscale>  0 0.34930215E+03</rscale>
<asrwt>0</asrwt>
<pdfrwt beam="1">  1        1 0.62514028E-01 0.34930215E+03</pdfrwt>
<pdfrwt beam="2">  1       -1 0.67418970E-01 0.34930215E+03</pdfrwt>
<totfact> 0.13727854E+02</totfact>
</mgrwt>
</event>
<event>
 4    1  0.1678003E-008  0.8374046E+03  0.7818608E-02  0.9507400E-01
         -1   -1    0    0    0  501 -0.00000000000E+00  0.00000000000E+00  0.61735100412E+03  0.61735100414E+03  0.50400000000E-02 0.  1.
          1   -1    0    0  501    0  0.00000000000E+00 -0.00000000000E+00 -0.21246086650E+04  0.21246086650E+04  0.50400000000E-02 0. -1.
    8880022    1    1    2    0    0  0.63587232857E+03 -0.52299253436E+03  0.18161891014E+03  0.85687332248E+03  0.15294330000E+03 0.  0.
    8880022    1    1    2    0    0 -0.63587232857E+03  0.52299253436E+03 -0.16888765710E+04  0.18850863467E+04  0.15294330000E+03 0.  0.
<mgrwt>
<rscale>  0 0.83740460E+03</rscale>
<asrwt>0</asrwt>
<pdfrwt beam="1">  1        1 0.32686287E+00 0.83740460E+03</pdfrwt>
<pdfrwt beam="2">  1       -1 0.94977079E-01 0.83740460E+03</pdfrwt>
<totfact> 0.27284949E+00</totfact>
</mgrwt>
</event>
<event>
 4    1  0.1678003E-008  0.1815996E+04  0.7818608E-02  0.8697839E-01
          1   -1    0    0  501    0  0.00000000000E+00  0.00000000000E+00  0.22942707744E+04  0.22942707744E+04  0.50400000000E-02 0. -1.
         -1   -1    0    0    0  501 -0.00000000000E+00 -0.00000000000E+00 -0.20620584819E+04  0.20620584819E+04  0.50400000000E-02 0.  1.
    8880022    1    1    2    0    0  0.11383566066E+04  0.14066248367E+04  0.13149235577E+04  0.22420670843E+04  0.15294330000E+03 0.  0.
    8880022    1    1    2    0    0 -0.11383566066E+04 -0.14066248367E+04 -0.10827112651E+04  0.21142621720E+04  0.15294330000E+03 0.  1.
<mgrwt>
<rscale>  0 0.18159958E+04</rscale>
<asrwt>0</asrwt>
<pdfrwt beam="1">  1        1 0.35296473E+00 0.18159958E+04</pdfrwt>
<pdfrwt beam="2">  1       -1 0.31723977E+00 0.18159958E+04</pdfrwt>
<totfact> 0.43424555E-02</totfact>
</mgrwt>
</event>
<event>
 4    1  0.1678003E-008  0.1643703E+03  0.7818608E-02  0.1183849E+00
          1   -1    0    0  501    0  0.00000000000E+00  0.00000000000E+00  0.24235332022E+03  0.24235332027E+03  0.50400000000E-02 0. -1.
         -1   -1    0    0    0  501 -0.00000000000E+00 -0.00000000000E+00 -0.12744824715E+03  0.12744824725E+03  0.50400000000E-02 0.  1.
    8880022    1    1    2    0    0 -0.26295215218E+02 -0.54171044900E+02  0.12290076559E+03  0.20523691589E+03  0.15294330000E+03 0.  0.
    8880022    1    1    2    0    0  0.26295215218E+02  0.54171044900E+02 -0.79956925169E+01  0.16456465162E+03  0.15294330000E+03 0.  1.
<mgrwt>
<rscale>  0 0.16437029E+03</rscale>
<asrwt>0</asrwt>
<pdfrwt beam="1">  1        1 0.37285126E-01 0.16437029E+03</pdfrwt>
<pdfrwt beam="2">  1       -1 0.19607423E-01 0.16437029E+03</pdfrwt>
<totfact> 0.23467223E+03</totfact>
</mgrwt>
</event>
<event>
 4    1  0.1678003E-008  0.7755368E+03  0.7818608E-02  0.9596118E-01
         -1   -1    0    0    0  501 -0.00000000000E+00  0.00000000000E+00  0.47445203585E+03  0.47445203587E+03  0.50400000000E-02 0.  1.
          1   -1    0    0  501    0  0.00000000000E+00 -0.00000000000E+00 -0.25199886793E+04  0.25199886793E+04  0.50400000000E-02 0. -1.
    8880022    1    1    2    0    0  0.18668370054E+03 -0.73703113628E+03 -0.20782256107E+04  0.22182152831E+04  0.15294330000E+03 0.  0.
    8880022    1    1    2    0    0 -0.18668370054E+03  0.73703113628E+03  0.32688967258E+02  0.77622543214E+03  0.15294330000E+03 0.  0.
<mgrwt>
<rscale>  0 0.77553682E+03</rscale>
<asrwt>0</asrwt>
<pdfrwt beam="1">  1        1 0.38769056E+00 0.77553682E+03</pdfrwt>
<pdfrwt beam="2">  1       -1 0.72992623E-01 0.77553682E+03</pdfrwt>
<totfact> 0.26260192E+00</totfact>
</mgrwt>
</event>
<event>
 4    1  0.1678003E-008  0.6748022E+03  0.7818608E-02  0.9761321E-01
         -1   -1    0    0    0  501 -0.00000000000E+00  0.00000000000E+00  0.54948652459E+03  0.54948652461E+03  0.50400000000E-02 0.  1.
          1   -1    0    0  501    0  0.00000000000E+00 -0.00000000000E+00 -0.23182637869E+04  0.23182637869E+04  0.50400000000E-02 0. -1.
    8880022    1    1    2    0    0 -0.12457276105E+01 -0.65724034106E+03  0.26498132763E+03  0.72496425758E+03  0.15294330000E+03 0.  0.
    8880022    1    1    2    0    0  0.12457276105E+01  0.65724034106E+03 -0.20337585900E+04  0.21427860540E+04  0.15294330000E+03 0.  0.
<mgrwt>
<rscale>  0 0.67480225E+03</rscale>
<asrwt>0</asrwt>
<pdfrwt beam="1">  1        1 0.35665596E+00 0.67480225E+03</pdfrwt>
<pdfrwt beam="2">  1       -1 0.84536389E-01 0.67480225E+03</pdfrwt>
<totfact> 0.26944447E+00</totfact>
</mgrwt>
</event>
<event>
 4    1  0.1678003E-008  0.5050568E+03  0.7818608E-02  0.1012467E+00
          1   -1    0    0  501    0  0.00000000000E+00  0.00000000000E+00  0.15125706348E+04  0.15125706348E+04  0.50400000000E-02 0. -1.
         -1   -1    0    0    0  501 -0.00000000000E+00 -0.00000000000E+00 -0.43152179801E+03  0.43152179804E+03  0.50400000000E-02 0.  1.
    8880022    1    1    2    0    0 -0.47536494894E+03 -0.75622969597E+02  0.12992146410E+04  0.13939300573E+04  0.15294330000E+03 0.  0.
    8880022    1    1    2    0    0  0.47536494894E+03  0.75622969597E+02 -0.21816580430E+03  0.55016237548E+03  0.15294330000E+03 0.  0.
<mgrwt>
<rscale>  0 0.50505675E+03</rscale>
<asrwt>0</asrwt>
<pdfrwt beam="1">  1        1 0.23270318E+00 0.50505675E+03</pdfrwt>
<pdfrwt beam="2">  1       -1 0.66387968E-01 0.50505675E+03</pdfrwt>
<totfact> 0.15925908E+01</totfact>
</mgrwt>
</event>
<event>
 4    1  0.1678003E-008  0.1626571E+03  0.7818608E-02  0.1185729E+00
         -1   -1    0    0    0  501 -0.00000000000E+00  0.00000000000E+00  0.33879836350E+03  0.33879836354E+03  0.50400000000E-02 0.  1.
          1   -1    0    0  501    0  0.00000000000E+00 -0.00000000000E+00 -0.17100905314E+04  0.17100905314E+04  0.50400000000E-02 0. -1.
    8880022    1    1    2    0    0  0.47746348084E+02  0.28035326635E+02  0.31513429254E+03  0.35463638934E+03  0.15294330000E+03 0.  0.
    8880022    1    1    2    0    0 -0.47746348084E+02 -0.28035326635E+02 -0.16864264604E+04  0.16942525056E+04  0.15294330000E+03 0. -1.
<mgrwt>
<rscale>  0 0.16265714E+03</rscale>
<asrwt>0</asrwt>
<pdfrwt beam="1">  1        1 0.26309085E+00 0.16265714E+03</pdfrwt>
<pdfrwt beam="2">  1       -1 0.52122826E-01 0.16265714E+03</pdfrwt>
<totfact> 0.21276388E+01</totfact>
</mgrwt>
</event>
<event>
 4    1  0.1678003E-008  0.5604635E+03  0.7818608E-02  0.9991006E-01
         -1   -1    0    0    0  501 -0.00000000000E+00  0.00000000000E+00  0.29741153247E+03  0.29741153251E+03  0.50400000000E-02 0.  1.
          1   -1    0    0  501    0  0.00000000000E+00 -0.00000000000E+00 -0.11845323857E+04  0.11845323857E+04  0.50400000000E-02 0. -1.
    8880022    1    1    2    0    0 -0.45597848238E+03  0.28776950956E+03 -0.19964751892E+03  0.59496088262E+03  0.15294330000E+03 0.  0.
    8880022    1    1    2    0    0  0.45597848238E+03 -0.28776950956E+03 -0.68747333433E+03  0.88698303561E+03  0.15294330000E+03 0. -1.
<mgrwt>
<rscale>  0 0.56046349E+03</rscale>
<asrwt>0</asrwt>
<pdfrwt beam="1">  1        1 0.18223575E+00 0.56046349E+03</pdfrwt>
<pdfrwt beam="2">  1       -1 0.45755621E-01 0.56046349E+03</pdfrwt>
<totfact> 0.54557163E+01</totfact>
</mgrwt>
</event>
<event>
 4    1  0.1678003E-008  0.4254267E+03  0.7818608E-02  0.1035314E+00
         -1   -1    0    0    0  501 -0.00000000000E+00  0.00000000000E+00  0.66906600312E+02  0.66906600502E+02  0.50400000000E-02 0.  1.
          1   -1    0    0  501    0  0.00000000000E+00 -0.00000000000E+00 -0.42013683835E+04  0.42013683835E+04  0.50400000000E-02 0. -1.
    8880022    1    1    2    0    0  0.24673062427E+03  0.31099881232E+03 -0.79362748019E+03  0.90046237709E+03  0.15294330000E+03 0.  0.
    8880022    1    1    2    0    0 -0.24673062427E+03 -0.31099881232E+03 -0.33408343030E+04  0.33678126069E+04  0.15294330000E+03 0.  0.
<mgrwt>
<rscale>  0 0.42542674E+03</rscale>
<asrwt>0</asrwt>
<pdfrwt beam="1">  1        1 0.64636416E+00 0.42542674E+03</pdfrwt>
<pdfrwt beam="2">  1       -1 0.10293326E-01 0.42542674E+03</pdfrwt>
<totfact> 0.45755101E+00</totfact>
</mgrwt>
</event>
<event>
 4    1  0.1678003E-008  0.2229576E+03  0.7818608E-02  0.1131697E+00
         -1   -1    0    0    0  501 -0.00000000000E+00  0.00000000000E+00  0.98800694927E+03  0.98800694928E+03  0.50400000000E-02 0.  1.
          1   -1    0    0  501    0  0.00000000000E+00 -0.00000000000E+00 -0.44981212712E+03  0.44981212715E+03  0.50400000000E-02 0. -1.
    8880022    1    1    2    0    0  0.35426578672E+02 -0.15831420886E+03  0.94660835243E+03  0.97251090334E+03  0.15294330000E+03 0.  0.
    8880022    1    1    2    0    0 -0.35426578672E+02  0.15831420886E+03 -0.40841353029E+03  0.46530817309E+03  0.15294330000E+03 0.  0.
<mgrwt>
<rscale>  0 0.22295758E+03</rscale>
<asrwt>0</asrwt>
<pdfrwt beam="1">  1        1 0.69201866E-01 0.22295758E+03</pdfrwt>
<pdfrwt beam="2">  1       -1 0.15200107E+00 0.22295758E+03</pdfrwt>
<totfact> 0.19571633E+01</totfact>
</mgrwt>
</event>
<event>
 4    1  0.1678003E-008  0.6631326E+03  0.7818608E-02  0.9782444E-01
          1   -1    0    0  501    0  0.00000000000E+00  0.00000000000E+00  0.12763213504E+04  0.12763213504E+04  0.50400000000E-02 0. -1.
         -1   -1    0    0    0  501 -0.00000000000E+00 -0.00000000000E+00 -0.37004030714E+03  0.37004030718E+03  0.50400000000E-02 0.  1.
    8880022    1    1    2    0    0 -0.64524934181E+03  0.25361756614E+01  0.66923143076E+03  0.94213348642E+03  0.15294330000E+03 0.  0.
    8880022    1    1    2    0    0  0.64524934181E+03 -0.25361756614E+01  0.23704961251E+03  0.70422817119E+03  0.15294330000E+03 0.  0.
<mgrwt>
<rscale>  0 0.66313256E+03</rscale>
<asrwt>0</asrwt>
<pdfrwt beam="1">  1        1 0.19635713E+00 0.66313256E+03</pdfrwt>
<pdfrwt beam="2">  1       -1 0.56929277E-01 0.66313256E+03</pdfrwt>
<totfact> 0.30581277E+01</totfact>
</mgrwt>
</event>
<event>
 4    1  0.1678003E-008  0.7849695E+03  0.7818608E-02  0.9582032E-01
         -1   -1    0    0    0  501 -0.00000000000E+00  0.00000000000E+00  0.64157793732E+03  0.64157793734E+03  0.50400000000E-02 0.  1.
          1   -1    0    0  501    0  0.00000000000E+00 -0.00000000000E+00 -0.15186045188E+04  0.15186045188E+04  0.50400000000E-02 0. -1.
    8880022    1    1    2    0    0  0.28996650732E+03  0.71323551706E+03 -0.10933474480E+04  0.13459516237E+04  0.15294330000E+03 0.  0.
    8880022    1    1    2    0    0 -0.28996650732E+03 -0.71323551706E+03  0.21632086658E+03  0.81423083244E+03  0.15294330000E+03 0.  0.
<mgrwt>
<rscale>  0 0.78496951E+03</rscale>
<asrwt>0</asrwt>
<pdfrwt beam="1">  1        1 0.23363146E+00 0.78496951E+03</pdfrwt>
<pdfrwt beam="2">  1       -1 0.98704299E-01 0.78496951E+03</pdfrwt>
<totfact> 0.64552162E+00</totfact>
</mgrwt>
</event>
<event>
 4    1  0.1678003E-008  0.1381936E+04  0.7818608E-02  0.8966999E-01
          1   -1    0    0  501    0  0.00000000000E+00  0.00000000000E+00  0.22251609492E+04  0.22251609492E+04  0.50400000000E-02 0. -1.
         -1   -1    0    0    0  501 -0.00000000000E+00 -0.00000000000E+00 -0.14841047099E+04  0.14841047099E+04  0.50400000000E-02 0.  1.
    8880022    1    1    2    0    0  0.66761464725E+02 -0.13718230729E+04 -0.83384757075E+03  0.16140164375E+04  0.15294330000E+03 0.  0.
    8880022    1    1    2    0    0 -0.66761464725E+02  0.13718230729E+04  0.15749038101E+04  0.20952492216E+04  0.15294330000E+03 0.  0.
<mgrwt>
<rscale>  0 0.13819361E+04</rscale>
<asrwt>0</asrwt>
<pdfrwt beam="1">  1        1 0.34233245E+00 0.13819361E+04</pdfrwt>
<pdfrwt beam="2">  1       -1 0.22832380E+00 0.13819361E+04</pdfrwt>
<totfact> 0.19432514E-01</totfact>
</mgrwt>
</event>
<event>
 4    1  0.1678003E-008  0.4892515E+03  0.7818608E-02  0.1016623E+00
          1   -1    0    0  501    0  0.00000000000E+00  0.00000000000E+00  0.13175041913E+04  0.13175041913E+04  0.50400000000E-02 0. -1.
         -1   -1    0    0    0  501 -0.00000000000E+00 -0.00000000000E+00 -0.43138416081E+03  0.43138416084E+03  0.50400000000E-02 0.  1.
    8880022    1    1    2    0    0  0.35322051526E+03  0.30201107179E+03 -0.22222993018E+03  0.53735762278E+03  0.15294330000E+03 0.  0.
    8880022    1    1    2    0    0 -0.35322051526E+03 -0.30201107179E+03  0.11083499607E+04  0.12115307294E+04  0.15294330000E+03 0.  0.
<mgrwt>
<rscale>  0 0.48925154E+03</rscale>
<asrwt>0</asrwt>
<pdfrwt beam="1">  1        1 0.20269295E+00 0.48925154E+03</pdfrwt>
<pdfrwt beam="2">  1       -1 0.66366794E-01 0.48925154E+03</pdfrwt>
<totfact> 0.21746661E+01</totfact>
</mgrwt>
</event>
<event>
 4    1  0.1678003E-008  0.1332756E+04  0.7818608E-02  0.9003985E-01
         -1   -1    0    0    0  501 -0.00000000000E+00  0.00000000000E+00  0.13870190278E+04  0.13870190278E+04  0.50400000000E-02 0.  1.
          1   -1    0    0  501    0  0.00000000000E+00 -0.00000000000E+00 -0.15435044685E+04  0.15435044685E+04  0.50400000000E-02 0. -1.
    8880022    1    1    2    0    0  0.52376668405E+03 -0.12159418896E+04  0.52646785495E+03  0.14329711349E+04  0.15294330000E+03 0.  0.
    8880022    1    1    2    0    0 -0.52376668405E+03  0.12159418896E+04 -0.68295329567E+03  0.14975523614E+04  0.15294330000E+03 0.  0.
<mgrwt>
<rscale>  0 0.13327557E+04</rscale>
<asrwt>0</asrwt>
<pdfrwt beam="1">  1        1 0.23746223E+00 0.13327557E+04</pdfrwt>
<pdfrwt beam="2">  1       -1 0.21338754E+00 0.13327557E+04</pdfrwt>
<totfact> 0.71754463E-01</totfact>
</mgrwt>
</event>
<event>
 4    1  0.1678003E-008  0.4728919E+03  0.7818608E-02  0.1021107E+00
         -1   -1    0    0    0  501 -0.00000000000E+00  0.00000000000E+00  0.40581292693E+03  0.40581292696E+03  0.50400000000E-02 0.  1.
          1   -1    0    0  501    0  0.00000000000E+00 -0.00000000000E+00 -0.14068690003E+04  0.14068690003E+04  0.50400000000E-02 0. -1.
    8880022    1    1    2    0    0  0.32691094724E+03  0.30555581662E+03  0.20636468913E+03  0.51595848906E+03  0.15294330000E+03 0.  0.
    8880022    1    1    2    0    0 -0.32691094724E+03 -0.30555581662E+03 -0.12074207625E+04  0.12967234382E+04  0.15294330000E+03 0.  0.
<mgrwt>
<rscale>  0 0.47289193E+03</rscale>
<asrwt>0</asrwt>
<pdfrwt beam="1">  1        1 0.21644138E+00 0.47289193E+03</pdfrwt>
<pdfrwt beam="2">  1       -1 0.62432758E-01 0.47289193E+03</pdfrwt>
<totfact> 0.21376620E+01</totfact>
</mgrwt>
</event>
<event>
 4    1  0.1678003E-008  0.4107594E+03  0.7818608E-02  0.1040116E+00
          1   -1    0    0  501    0  0.00000000000E+00  0.00000000000E+00  0.14612906521E+04  0.14612906522E+04  0.50400000000E-02 0. -1.
         -1   -1    0    0    0  501 -0.00000000000E+00 -0.00000000000E+00 -0.61292960823E+03  0.61292960825E+03  0.50400000000E-02 0.  1.
    8880022    1    1    2    0    0 -0.36259522471E+03  0.11771299510E+03 -0.51015326097E+03  0.65496537991E+03  0.15294330000E+03 0.  0.
    8880022    1    1    2    0    0  0.36259522471E+03 -0.11771299510E+03  0.13585143049E+04  0.14192548805E+04  0.15294330000E+03 0.  0.
<mgrwt>
<rscale>  0 0.41075942E+03</rscale>
<asrwt>0</asrwt>
<pdfrwt beam="1">  1        1 0.22481395E+00 0.41075942E+03</pdfrwt>
<pdfrwt beam="2">  1       -1 0.94296863E-01 0.41075942E+03</pdfrwt>
<totfact> 0.84530374E+00</totfact>
</mgrwt>
</event>
<event>
 4    1  0.1678003E-008  0.3161044E+03  0.7818608E-02  0.1077456E+00
         -1   -1    0    0    0  501 -0.00000000000E+00  0.00000000000E+00  0.10534051345E+03  0.10534051357E+03  0.50400000000E-02 0.  1.
          1   -1    0    0  501    0  0.00000000000E+00 -0.00000000000E+00 -0.16813847402E+04  0.16813847402E+04  0.50400000000E-02 0. -1.
    8880022    1    1    2    0    0  0.27592520506E+03  0.19890912540E+02 -0.13778070337E+04  0.14136032832E+04  0.15294330000E+03 0.  0.
    8880022    1    1    2    0    0 -0.27592520506E+03 -0.19890912540E+02 -0.19823719302E+03  0.37312197054E+03  0.15294330000E+03 0.  0.
<mgrwt>
<rscale>  0 0.31610445E+03</rscale>
<asrwt>0</asrwt>
<pdfrwt beam="1">  1        1 0.25867456E+00 0.31610445E+03</pdfrwt>
<pdfrwt beam="2">  1       -1 0.16206234E-01 0.31610445E+03</pdfrwt>
<totfact> 0.15375250E+02</totfact>
</mgrwt>
</event>
<event>
 4    1  0.1678003E-008  0.3362881E+03  0.7818608E-02  0.1068388E+00
          1   -1    0    0  501    0  0.00000000000E+00  0.00000000000E+00  0.51933607250E+03  0.51933607252E+03  0.50400000000E-02 0. -1.
         -1   -1    0    0    0  501 -0.00000000000E+00 -0.00000000000E+00 -0.11835928731E+04  0.11835928731E+04  0.50400000000E-02 0.  1.
    8880022    1    1    2    0    0  0.19474839397E+03 -0.22753259837E+03  0.43703172906E+03  0.55144030094E+03  0.15294330000E+03 0.  0.
    8880022    1    1    2    0    0 -0.19474839397E+03  0.22753259837E+03 -0.11012885297E+04  0.11514886447E+04  0.15294330000E+03 0.  0.
<mgrwt>
<rscale>  0 0.33628808E+03</rscale>
<asrwt>0</asrwt>
<pdfrwt beam="1">  1        1 0.79897858E-01 0.33628808E+03</pdfrwt>
<pdfrwt beam="2">  1       -1 0.18209121E+00 0.33628808E+03</pdfrwt>
<totfact> 0.94357628E+00</totfact>
</mgrwt>
</event>
<event>
 4    1  0.1678003E-008  0.4181980E+03  0.7818608E-02  0.1037654E+00
         -1   -1    0    0    0  501 -0.00000000000E+00  0.00000000000E+00  0.20402008331E+03  0.20402008338E+03  0.50400000000E-02 0.  1.
          1   -1    0    0  501    0  0.00000000000E+00 -0.00000000000E+00 -0.15553271108E+04  0.15553271109E+04  0.50400000000E-02 0. -1.
    8880022    1    1    2    0    0 -0.37389728066E+03 -0.10816058906E+03 -0.12650025266E+04  0.13323366447E+04  0.15294330000E+03 0.  0.
    8880022    1    1    2    0    0  0.37389728066E+03  0.10816058906E+03 -0.86304500934E+02  0.42701054952E+03  0.15294330000E+03 0.  0.
<mgrwt>
<rscale>  0 0.41819797E+03</rscale>
<asrwt>0</asrwt>
<pdfrwt beam="1">  1        1 0.23928109E+00 0.41819797E+03</pdfrwt>
<pdfrwt beam="2">  1       -1 0.31387706E-01 0.41819797E+03</pdfrwt>
<totfact> 0.60752684E+01</totfact>
</mgrwt>
</event>
<event>
 4    1  0.1678003E-008  0.1110536E+04  0.7818608E-02  0.9194983E-01
         -1   -1    0    0    0  501 -0.00000000000E+00  0.00000000000E+00  0.13800248131E+04  0.13800248131E+04  0.50400000000E-02 0.  1.
          1   -1    0    0  501    0  0.00000000000E+00 -0.00000000000E+00 -0.15431817046E+04  0.15431817046E+04  0.50400000000E-02 0. -1.
    8880022    1    1    2    0    0  0.52547588085E+03  0.96631965017E+03  0.86665141109E+03  0.14086784193E+04  0.15294330000E+03 0.  0.
    8880022    1    1    2    0    0 -0.52547588085E+03 -0.96631965017E+03 -0.10298083026E+04  0.15145280984E+04  0.15294330000E+03 0.  0.
<mgrwt>
<rscale>  0 0.11105360E+04</rscale>
<asrwt>0</asrwt>
<pdfrwt beam="1">  1        1 0.23741257E+00 0.11105360E+04</pdfrwt>
<pdfrwt beam="2">  1       -1 0.21231151E+00 0.11105360E+04</pdfrwt>
<totfact> 0.75107776E-01</totfact>
</mgrwt>
</event>
<event>
 4    1  0.1678003E-008  0.3628137E+03  0.7818608E-02  0.1057475E+00
          1   -1    0    0  501    0  0.00000000000E+00  0.00000000000E+00  0.94774718477E+03  0.94774718478E+03  0.50400000000E-02 0. -1.
         -1   -1    0    0    0  501 -0.00000000000E+00 -0.00000000000E+00 -0.20007164048E+03  0.20007164054E+03  0.50400000000E-02 0.  1.
    8880022    1    1    2    0    0  0.32860119011E+03  0.16229921743E+02  0.56474511322E+02  0.36718275551E+03  0.15294330000E+03 0.  0.
    8880022    1    1    2    0    0 -0.32860119011E+03 -0.16229921743E+02  0.69120103297E+03  0.78063606981E+03  0.15294330000E+03 0.  0.
<mgrwt>
<rscale>  0 0.36281373E+03</rscale>
<asrwt>0</asrwt>
<pdfrwt beam="1">  1        1 0.14580726E+00 0.36281373E+03</pdfrwt>
<pdfrwt beam="2">  1       -1 0.30780253E-01 0.36281373E+03</pdfrwt>
<totfact> 0.17075438E+02</totfact>
</mgrwt>
</event>
<event>
 4    1  0.1678003E-008  0.7597329E+03  0.7818608E-02  0.9620203E-01
          1   -1    0    0  501    0  0.00000000000E+00  0.00000000000E+00  0.10315432668E+04  0.10315432668E+04  0.50400000000E-02 0. -1.
         -1   -1    0    0    0  501 -0.00000000000E+00 -0.00000000000E+00 -0.78773872029E+03  0.78773872030E+03  0.50400000000E-02 0.  1.
    8880022    1    1    2    0    0  0.15993982462E+03  0.72678863627E+03 -0.36768651988E+03  0.84403050847E+03  0.15294330000E+03 0.  0.
    8880022    1    1    2    0    0 -0.15993982462E+03 -0.72678863627E+03  0.61149106641E+03  0.97525147866E+03  0.15294330000E+03 0.  0.
<mgrwt>
<rscale>  0 0.75973293E+03</rscale>
<asrwt>0</asrwt>
<pdfrwt beam="1">  1        1 0.15869896E+00 0.75973293E+03</pdfrwt>
<pdfrwt beam="2">  1       -1 0.12119057E+00 0.75973293E+03</pdfrwt>
<totfact> 0.89173855E+00</totfact>
</mgrwt>
</event>
<event>
 4    1  0.1678003E-008  0.6334909E+03  0.7818608E-02  0.9838260E-01
          1   -1    0    0  501    0  0.00000000000E+00  0.00000000000E+00  0.98251451508E+03  0.98251451509E+03  0.50400000000E-02 0. -1.
         -1   -1    0    0    0  501 -0.00000000000E+00 -0.00000000000E+00 -0.55575527224E+03  0.55575527227E+03  0.50400000000E-02 0.  1.
    8880022    1    1    2    0    0  0.45847651999E+03  0.40953437534E+03 -0.18259356513E+03  0.65928081044E+03  0.15294330000E+03 0.  0.
    8880022    1    1    2    0    0 -0.45847651999E+03 -0.40953437534E+03  0.60935280796E+03  0.87898897692E+03  0.15294330000E+03 0. -1.
<mgrwt>
<rscale>  0 0.63349094E+03</rscale>
<asrwt>0</asrwt>
<pdfrwt beam="1">  1        1 0.15115608E+00 0.63349094E+03</pdfrwt>
<pdfrwt beam="2">  1       -1 0.85500811E-01 0.63349094E+03</pdfrwt>
<totfact> 0.22042264E+01</totfact>
</mgrwt>
</event>
<event>
 4    1  0.1678003E-008  0.1189929E+04  0.7818608E-02  0.9121717E-01
          1   -1    0    0  501    0  0.00000000000E+00  0.00000000000E+00  0.21603004990E+04  0.21603004990E+04  0.50400000000E-02 0. -1.
         -1   -1    0    0    0  501 -0.00000000000E+00 -0.00000000000E+00 -0.83861911787E+03  0.83861911789E+03  0.50400000000E-02 0.  1.
    8880022    1    1    2    0    0 -0.11800155097E+04 -0.10178886708E+02 -0.39967119710E+02  0.11906003681E+04  0.15294330000E+03 0.  0.
    8880022    1    1    2    0    0  0.11800155097E+04  0.10178886708E+02  0.13616485009E+04  0.18083192489E+04  0.15294330000E+03 0.  0.
<mgrwt>
<rscale>  0 0.11899294E+04</rscale>
<asrwt>0</asrwt>
<pdfrwt beam="1">  1        1 0.33235392E+00 0.11899294E+04</pdfrwt>
<pdfrwt beam="2">  1       -1 0.12901833E+00 0.11899294E+04</pdfrwt>
<totfact> 0.11822846E+00</totfact>
</mgrwt>
</event>
<event>
 4    1  0.1678003E-008  0.1936183E+03  0.7818608E-02  0.1155238E+00
          1   -1    0    0  501    0  0.00000000000E+00  0.00000000000E+00  0.17185012989E+04  0.17185012989E+04  0.50400000000E-02 0. -1.
         -1   -1    0    0    0  501 -0.00000000000E+00 -0.00000000000E+00 -0.20430105911E+03  0.20430105917E+03  0.50400000000E-02 0.  1.
    8880022    1    1    2    0    0 -0.86319485406E+02  0.81519070335E+02  0.16657255931E+04  0.16769406122E+04  0.15294330000E+03 0. -1.
    8880022    1    1    2    0    0  0.86319485406E+02 -0.81519070335E+02 -0.15152535328E+03  0.24586174589E+03  0.15294330000E+03 0.  0.
<mgrwt>
<rscale>  0 0.19361835E+03</rscale>
<asrwt>0</asrwt>
<pdfrwt beam="1">  1        1 0.26438482E+00 0.19361835E+03</pdfrwt>
<pdfrwt beam="2">  1       -1 0.31430932E-01 0.19361835E+03</pdfrwt>
<totfact> 0.50565857E+01</totfact>
</mgrwt>
</event>
<event>
 4    1  0.1678003E-008  0.6703063E+03  0.7818608E-02  0.9769405E-01
          1   -1    0    0  501    0  0.00000000000E+00  0.00000000000E+00  0.65814877705E+03  0.65814877707E+03  0.50400000000E-02 0. -1.
         -1   -1    0    0    0  501 -0.00000000000E+00 -0.00000000000E+00 -0.79085147710E+03  0.79085147712E+03  0.50400000000E-02 0.  1.
    8880022    1    1    2    0    0  0.57979948762E+03  0.29958554962E+03 -0.33428688773E+03  0.74903826585E+03  0.15294330000E+03 0.  0.
    8880022    1    1    2    0    0 -0.57979948762E+03 -0.29958554962E+03  0.20158418768E+03  0.69996198834E+03  0.15294330000E+03 0.  0.
<mgrwt>
<rscale>  0 0.67030635E+03</rscale>
<asrwt>0</asrwt>
<pdfrwt beam="1">  1        1 0.10125366E+00 0.67030635E+03</pdfrwt>
<pdfrwt beam="2">  1       -1 0.12166946E+00 0.67030635E+03</pdfrwt>
<totfact> 0.18552193E+01</totfact>
</mgrwt>
</event>
<event>
 4    1  0.1678003E-008  0.6195056E+03  0.7818608E-02  0.9865745E-01
          1   -1    0    0  501    0  0.00000000000E+00  0.00000000000E+00  0.24317809368E+04  0.24317809368E+04  0.50400000000E-02 0. -1.
         -1   -1    0    0    0  501 -0.00000000000E+00 -0.00000000000E+00 -0.17962115839E+03  0.17962115846E+03  0.50400000000E-02 0.  1.
    8880022    1    1    2    0    0  0.42435416003E+03  0.42463990672E+03  0.67120653199E+03  0.91340317775E+03  0.15294330000E+03 0.  0.
    8880022    1    1    2    0    0 -0.42435416003E+03 -0.42463990672E+03  0.15809532465E+04  0.16979989176E+04  0.15294330000E+03 0.  0.
<mgrwt>
<rscale>  0 0.61950557E+03</rscale>
<asrwt>0</asrwt>
<pdfrwt beam="1">  1        1 0.37412014E+00 0.61950557E+03</pdfrwt>
<pdfrwt beam="2">  1       -1 0.27634025E-01 0.61950557E+03</pdfrwt>
<totfact> 0.19032733E+01</totfact>
</mgrwt>
</event>
<event>
 4    1  0.1678003E-008  0.2300393E+03  0.7818608E-02  0.1126612E+00
         -1   -1    0    0    0  501 -0.00000000000E+00  0.00000000000E+00  0.71036254939E+02  0.71036255118E+02  0.50400000000E-02 0.  1.
          1   -1    0    0  501    0  0.00000000000E+00 -0.00000000000E+00 -0.32351279736E+04  0.32351279736E+04  0.50400000000E-02 0. -1.
    8880022    1    1    2    0    0 -0.14691288597E+03 -0.89123756798E+02 -0.13172418818E+03  0.26508367520E+03  0.15294330000E+03 0.  0.
    8880022    1    1    2    0    0  0.14691288597E+03  0.89123756798E+02 -0.30323675305E+04  0.30410805535E+04  0.15294330000E+03 0. -1.
<mgrwt>
<rscale>  0 0.23003933E+03</rscale>
<asrwt>0</asrwt>
<pdfrwt beam="1">  1        1 0.49771188E+00 0.23003933E+03</pdfrwt>
<pdfrwt beam="2">  1       -1 0.10928657E-01 0.23003933E+03</pdfrwt>
<totfact> 0.26700822E+01</totfact>
</mgrwt>
</event>
<event>
 4    1  0.1678003E-008  0.5185288E+03  0.7818608E-02  0.1009053E+00
          1   -1    0    0  501    0  0.00000000000E+00  0.00000000000E+00  0.86986339861E+03  0.86986339862E+03  0.50400000000E-02 0. -1.
         -1   -1    0    0    0  501 -0.00000000000E+00 -0.00000000000E+00 -0.69343705937E+03  0.69343705939E+03  0.50400000000E-02 0.  1.
    8880022    1    1    2    0    0  0.41523126581E+03  0.27030244045E+03  0.67013791764E+03  0.84732337103E+03  0.15294330000E+03 0.  0.
    8880022    1    1    2    0    0 -0.41523126581E+03 -0.27030244045E+03 -0.49371157840E+03  0.71597708698E+03  0.15294330000E+03 0.  0.
<mgrwt>
<rscale>  0 0.51852875E+03</rscale>
<asrwt>0</asrwt>
<pdfrwt beam="1">  1        1 0.13382514E+00 0.51852875E+03</pdfrwt>
<pdfrwt beam="2">  1       -1 0.10668263E+00 0.51852875E+03</pdfrwt>
<totfact> 0.16834618E+01</totfact>
</mgrwt>
</event>
<event>
 4    1  0.1678003E-008  0.1111017E+04  0.7818608E-02  0.9194520E-01
         -1   -1    0    0    0  501 -0.00000000000E+00  0.00000000000E+00  0.12506235448E+04  0.12506235449E+04  0.50400000000E-02 0.  1.
          1   -1    0    0  501    0  0.00000000000E+00 -0.00000000000E+00 -0.14132991914E+04  0.14132991915E+04  0.50400000000E-02 0. -1.
    8880022    1    1    2    0    0 -0.10974938853E+04  0.80468161609E+02 -0.81287129721E+03  0.13766333398E+04  0.15294330000E+03 0.  0.
    8880022    1    1    2    0    0  0.10974938853E+04 -0.80468161609E+02  0.65019565061E+03  0.12872893965E+04  0.15294330000E+03 0.  0.
<mgrwt>
<rscale>  0 0.11110174E+04</rscale>
<asrwt>0</asrwt>
<pdfrwt beam="1">  1        1 0.21743064E+00 0.11110174E+04</pdfrwt>
<pdfrwt beam="2">  1       -1 0.19240362E+00 0.11110174E+04</pdfrwt>
<totfact> 0.12663674E+00</totfact>
</mgrwt>
</event>
<event>
 4    1  0.1678003E-008  0.1903087E+03  0.7818608E-02  0.1158183E+00
          1   -1    0    0  501    0  0.00000000000E+00  0.00000000000E+00  0.91527169208E+03  0.91527169209E+03  0.50400000000E-02 0. -1.
         -1   -1    0    0    0  501 -0.00000000000E+00 -0.00000000000E+00 -0.34022389493E+03  0.34022389497E+03  0.50400000000E-02 0.  1.
    8880022    1    1    2    0    0  0.94082248432E+02  0.63041859912E+02 -0.30259038794E+03  0.35746096495E+03  0.15294330000E+03 0.  0.
    8880022    1    1    2    0    0 -0.94082248432E+02 -0.63041859912E+02  0.87763818509E+03  0.89803462211E+03  0.15294330000E+03 0. -1.
<mgrwt>
<rscale>  0 0.19030869E+03</rscale>
<asrwt>0</asrwt>
<pdfrwt beam="1">  1        1 0.14081103E+00 0.19030869E+03</pdfrwt>
<pdfrwt beam="2">  1       -1 0.52342138E-01 0.19030869E+03</pdfrwt>
<totfact> 0.72779069E+01</totfact>
</mgrwt>
</event>
<event>
 4    1  0.1678003E-008  0.2910754E+03  0.7818608E-02  0.1089789E+00
         -1   -1    0    0    0  501 -0.00000000000E+00  0.00000000000E+00  0.85511999513E+03  0.85511999515E+03  0.50400000000E-02 0.  1.
          1   -1    0    0  501    0  0.00000000000E+00 -0.00000000000E+00 -0.11325575741E+04  0.11325575741E+04  0.50400000000E-02 0. -1.
    8880022    1    1    2    0    0 -0.23930161507E+03  0.63780705534E+02  0.81065321797E+03  0.86132661296E+03  0.15294330000E+03 0.  1.
    8880022    1    1    2    0    0  0.23930161507E+03 -0.63780705534E+02 -0.10880907970E+04  0.11263509563E+04  0.15294330000E+03 0.  0.
<mgrwt>
<rscale>  0 0.29107541E+03</rscale>
<asrwt>0</asrwt>
<pdfrwt beam="1">  1        1 0.17423963E+00 0.29107541E+03</pdfrwt>
<pdfrwt beam="2">  1       -1 0.13155692E+00 0.29107541E+03</pdfrwt>
<totfact> 0.68371626E+00</totfact>
</mgrwt>
</event>
<event>
 4    1  0.1678003E-008  0.1367387E+04  0.7818608E-02  0.8977770E-01
         -1   -1    0    0    0  501 -0.00000000000E+00  0.00000000000E+00  0.76001687949E+03  0.76001687951E+03  0.50400000000E-02 0.  1.
          1   -1    0    0  501    0  0.00000000000E+00 -0.00000000000E+00 -0.31288392027E+04  0.31288392027E+04  0.50400000000E-02 0. -1.
    8880022    1    1    2    0    0 -0.12708832527E+04 -0.48084318562E+03 -0.20833216577E+04  0.24919821816E+04  0.15294330000E+03 0.  0.
    8880022    1    1    2    0    0  0.12708832527E+04  0.48084318562E+03 -0.28550066549E+03  0.13968739006E+04  0.15294330000E+03 0.  0.
<mgrwt>
<rscale>  0 0.13673866E+04</rscale>
<asrwt>0</asrwt>
<pdfrwt beam="1">  1        1 0.48135987E+00 0.13673866E+04</pdfrwt>
<pdfrwt beam="2">  1       -1 0.11692568E+00 0.13673866E+04</pdfrwt>
<totfact> 0.30837985E-01</totfact>
</mgrwt>
</event>
<event>
 4    1  0.1678003E-008  0.1595750E+03  0.7818608E-02  0.1189177E+00
          1   -1    0    0  501    0  0.00000000000E+00  0.00000000000E+00  0.14074833082E+04  0.14074833082E+04  0.50400000000E-02 0. -1.
         -1   -1    0    0    0  501 -0.00000000000E+00 -0.00000000000E+00 -0.51082888941E+02  0.51082889190E+02  0.50400000000E-02 0.  1.
    8880022    1    1    2    0    0  0.21194442198E+02  0.40290395232E+02  0.92122098781E+02  0.18425703359E+03  0.15294330000E+03 0.  1.
    8880022    1    1    2    0    0 -0.21194442198E+02 -0.40290395232E+02  0.12642783205E+04  0.12743091638E+04  0.15294330000E+03 0.  0.
<mgrwt>
<rscale>  0 0.15957498E+03</rscale>
<asrwt>0</asrwt>
<pdfrwt beam="1">  1        1 0.21653592E+00 0.15957498E+03</pdfrwt>
<pdfrwt beam="2">  1       -1 0.78589051E-02 0.15957498E+03</pdfrwt>
<totfact> 0.73957100E+02</totfact>
</mgrwt>
</event>
<event>
 4    1  0.1678003E-008  0.1566633E+04  0.7818608E-02  0.8841313E-01
         -1   -1    0    0    0  501 -0.00000000000E+00  0.00000000000E+00  0.11761922897E+04  0.11761922897E+04  0.50400000000E-02 0.  1.
          1   -1    0    0  501    0  0.00000000000E+00 -0.00000000000E+00 -0.29562823813E+04  0.29562823813E+04  0.50400000000E-02 0. -1.
    8880022    1    1    2    0    0  0.14306496921E+04  0.61982942485E+03 -0.20106879066E+04  0.25489614685E+04  0.15294330000E+03 0.  0.
    8880022    1    1    2    0    0 -0.14306496921E+04 -0.61982942485E+03  0.23059781496E+03  0.15835132025E+04  0.15294330000E+03 0.  0.
<mgrwt>
<rscale>  0 0.15666329E+04</rscale>
<asrwt>0</asrwt>
<pdfrwt beam="1">  1        1 0.45481267E+00 0.15666329E+04</pdfrwt>
<pdfrwt beam="2">  1       -1 0.18095266E+00 0.15666329E+04</pdfrwt>
<totfact> 0.12396595E-01</totfact>
</mgrwt>
</event>
<event>
 4    1  0.1678003E-008  0.2378481E+03  0.7818608E-02  0.1121235E+00
          1   -1    0    0  501    0  0.00000000000E+00  0.00000000000E+00  0.43984068622E+03  0.43984068625E+03  0.50400000000E-02 0. -1.
         -1   -1    0    0    0  501 -0.00000000000E+00 -0.00000000000E+00 -0.80496528336E+03  0.80496528338E+03  0.50400000000E-02 0.  1.
    8880022    1    1    2    0    0  0.17759645811E+03 -0.40491481557E+02 -0.75307820573E+03  0.78974584454E+03  0.15294330000E+03 0.  1.
    8880022    1    1    2    0    0 -0.17759645811E+03  0.40491481557E+02  0.38795360859E+03  0.45506012509E+03  0.15294330000E+03 0.  0.
<mgrwt>
<rscale>  0 0.23784809E+03</rscale>
<asrwt>0</asrwt>
<pdfrwt beam="1">  1        1 0.67667798E-01 0.23784809E+03</pdfrwt>
<pdfrwt beam="2">  1       -1 0.12384081E+00 0.23784809E+03</pdfrwt>
<totfact> 0.33588167E+01</totfact>
</mgrwt>
</event>
<event>
 4    1  0.1678003E-008  0.4462392E+03  0.7818608E-02  0.1028850E+00
         -1   -1    0    0    0  501 -0.00000000000E+00  0.00000000000E+00  0.69326269055E+03  0.69326269056E+03  0.50400000000E-02 0.  1.
          1   -1    0    0  501    0  0.00000000000E+00 -0.00000000000E+00 -0.90497027198E+03  0.90497027199E+03  0.50400000000E-02 0. -1.
    8880022    1    1    2    0    0  0.40546133701E+03  0.10648421058E+03  0.55437440413E+03  0.71166032338E+03  0.15294330000E+03 0.  0.
    8880022    1    1    2    0    0 -0.40546133701E+03 -0.10648421058E+03 -0.76608198556E+03  0.88657263917E+03  0.15294330000E+03 0. -1.
<mgrwt>
<rscale>  0 0.44623921E+03</rscale>
<asrwt>0</asrwt>
<pdfrwt beam="1">  1        1 0.13922620E+00 0.44623921E+03</pdfrwt>
<pdfrwt beam="2">  1       -1 0.10665580E+00 0.44623921E+03</pdfrwt>
<totfact> 0.16004228E+01</totfact>
</mgrwt>
</event>
<event>
 4    1  0.1678003E-008  0.6892391E+03  0.7818608E-02  0.9735814E-01
          1   -1    0    0  501    0  0.00000000000E+00  0.00000000000E+00  0.35038644339E+04  0.35038644339E+04  0.50400000000E-02 0. -1.
         -1   -1    0    0    0  501 -0.00000000000E+00 -0.00000000000E+00 -0.36735289630E+03  0.36735289633E+03  0.50400000000E-02 0.  1.
    8880022    1    1    2    0    0  0.36141816468E+02  0.67108323101E+03  0.30780834888E+02  0.68992611680E+03  0.15294330000E+03 0.  1.
    8880022    1    1    2    0    0 -0.36141816468E+02 -0.67108323101E+03  0.31057307027E+04  0.31812912134E+04  0.15294330000E+03 0.  0.
<mgrwt>
<rscale>  0 0.68923914E+03</rscale>
<asrwt>0</asrwt>
<pdfrwt beam="1">  1        1 0.53905607E+00 0.68923914E+03</pdfrwt>
<pdfrwt beam="2">  1       -1 0.56515830E-01 0.68923914E+03</pdfrwt>
<totfact> 0.87182163E-01</totfact>
</mgrwt>
</event>
<event>
 4    1  0.1678003E-008  0.4211359E+03  0.7818608E-02  0.1036697E+00
          1   -1    0    0  501    0  0.00000000000E+00  0.00000000000E+00  0.13744609933E+04  0.13744609934E+04  0.50400000000E-02 0. -1.
         -1   -1    0    0    0  501 -0.00000000000E+00 -0.00000000000E+00 -0.24548504988E+03  0.24548504993E+03  0.50400000000E-02 0.  1.
    8880022    1    1    2    0    0  0.28205497824E+03 -0.27277970540E+03  0.66278088161E+01  0.42118803318E+03  0.15294330000E+03 0.  0.
    8880022    1    1    2    0    0 -0.28205497824E+03  0.27277970540E+03  0.11223481347E+04  0.11987580101E+04  0.15294330000E+03 0.  0.
<mgrwt>
<rscale>  0 0.42113588E+03</rscale>
<asrwt>0</asrwt>
<pdfrwt beam="1">  1        1 0.21145553E+00 0.42113588E+03</pdfrwt>
<pdfrwt beam="2">  1       -1 0.37766932E-01 0.42113588E+03</pdfrwt>
<totfact> 0.58145264E+01</totfact>
</mgrwt>
</event>
<event>
 4    1  0.1678003E-008  0.3223851E+03  0.7818608E-02  0.1074557E+00
          1   -1    0    0  501    0  0.00000000000E+00  0.00000000000E+00  0.13486192468E+04  0.13486192468E+04  0.50400000000E-02 0. -1.
         -1   -1    0    0    0  501 -0.00000000000E+00 -0.00000000000E+00 -0.99801267057E+03  0.99801267058E+03  0.50400000000E-02 0.  1.
    8880022    1    1    2    0    0 -0.21333740830E+03  0.18715672752E+03 -0.95180147986E+03  0.10049170118E+04  0.15294330000E+03 0.  0.
    8880022    1    1    2    0    0  0.21333740830E+03 -0.18715672752E+03  0.13024080561E+04  0.13417149057E+04  0.15294330000E+03 0. -1.
<mgrwt>
<rscale>  0 0.32238509E+03</rscale>
<asrwt>0</asrwt>
<pdfrwt beam="1">  1        1 0.20747988E+00 0.32238509E+03</pdfrwt>
<pdfrwt beam="2">  1       -1 0.15354041E+00 0.32238509E+03</pdfrwt>
<totfact> 0.32033534E+00</totfact>
</mgrwt>
</event>
<event>
 4    1  0.1678003E-008  0.4285121E+03  0.7818608E-02  0.1034331E+00
         -1   -1    0    0    0  501 -0.00000000000E+00  0.00000000000E+00  0.75302763426E+03  0.75302763428E+03  0.50400000000E-02 0.  1.
          1   -1    0    0  501    0  0.00000000000E+00 -0.00000000000E+00 -0.42770199858E+03  0.42770199861E+03  0.50400000000E-02 0. -1.
    8880022    1    1    2    0    0  0.33678133246E+03  0.21635453985E+03 -0.22440672285E+03  0.48371580818E+03  0.15294330000E+03 0.  0.
    8880022    1    1    2    0    0 -0.33678133246E+03 -0.21635453985E+03  0.54973235853E+03  0.69701382471E+03  0.15294330000E+03 0.  0.
<mgrwt>
<rscale>  0 0.42851208E+03</rscale>
<asrwt>0</asrwt>
<pdfrwt beam="1">  1        1 0.65800308E-01 0.42851208E+03</pdfrwt>
<pdfrwt beam="2">  1       -1 0.11585040E+00 0.42851208E+03</pdfrwt>
<totfact> 0.39249574E+01</totfact>
</mgrwt>
</event>
<event>
 4    1  0.1678003E-008  0.5276278E+03  0.7818608E-02  0.1006809E+00
         -1   -1    0    0    0  501 -0.00000000000E+00  0.00000000000E+00  0.58638767615E+03  0.58638767617E+03  0.50400000000E-02 0.  1.
          1   -1    0    0  501    0  0.00000000000E+00 -0.00000000000E+00 -0.49378481808E+03  0.49378481811E+03  0.50400000000E-02 0. -1.
    8880022    1    1    2    0    0 -0.34114871646E+03  0.37231307013E+03  0.15232418805E+03  0.54917554590E+03  0.15294330000E+03 0.  0.
    8880022    1    1    2    0    0  0.34114871646E+03 -0.37231307013E+03 -0.59721329985E+02  0.53099694839E+03  0.15294330000E+03 0.  0.
<mgrwt>
<rscale>  0 0.52762783E+03</rscale>
<asrwt>0</asrwt>
<pdfrwt beam="1">  1        1 0.75966895E-01 0.52762783E+03</pdfrwt>
<pdfrwt beam="2">  1       -1 0.90213489E-01 0.52762783E+03</pdfrwt>
<totfact> 0.56513636E+01</totfact>
</mgrwt>
</event>
<event>
 4    1  0.1678003E-008  0.5249314E+03  0.7818608E-02  0.1007469E+00
          1   -1    0    0  501    0  0.00000000000E+00  0.00000000000E+00  0.19436302159E+04  0.19436302159E+04  0.50400000000E-02 0. -1.
         -1   -1    0    0    0  501 -0.00000000000E+00 -0.00000000000E+00 -0.33668314662E+03  0.33668314666E+03  0.50400000000E-02 0.  1.
    8880022    1    1    2    0    0  0.26496802052E+03 -0.42655983034E+03  0.16709781878E+04  0.17514911070E+04  0.15294330000E+03 0.  0.
    8880022    1    1    2    0    0 -0.26496802052E+03  0.42655983034E+03 -0.64031118584E+02  0.52882225551E+03  0.15294330000E+03 0.  0.
<mgrwt>
<rscale>  0 0.52493142E+03</rscale>
<asrwt>0</asrwt>
<pdfrwt beam="1">  1        1 0.29902003E+00 0.52493142E+03</pdfrwt>
<pdfrwt beam="2">  1       -1 0.51797408E-01 0.52493142E+03</pdfrwt>
<totfact> 0.13269340E+01</totfact>
</mgrwt>
</event>
<event>
 4    1  0.1678003E-008  0.2380682E+03  0.7818608E-02  0.1121086E+00
          1   -1    0    0  501    0  0.00000000000E+00  0.00000000000E+00  0.40277456963E+03  0.40277456967E+03  0.50400000000E-02 0. -1.
         -1   -1    0    0    0  501 -0.00000000000E+00 -0.00000000000E+00 -0.22666144695E+03  0.22666144701E+03  0.50400000000E-02 0.  1.
    8880022    1    1    2    0    0 -0.15885196278E+02  0.18174837226E+03  0.28185330725E+03  0.36894139115E+03  0.15294330000E+03 0.  0.
    8880022    1    1    2    0    0  0.15885196278E+02 -0.18174837226E+03 -0.10574018457E+03  0.26049462552E+03  0.15294330000E+03 0.  0.
<mgrwt>
<rscale>  0 0.23806819E+03</rscale>
<asrwt>0</asrwt>
<pdfrwt beam="1">  1        1 0.61965317E-01 0.23806819E+03</pdfrwt>
<pdfrwt beam="2">  1       -1 0.34870992E-01 0.23806819E+03</pdfrwt>
<totfact> 0.47599031E+02</totfact>
</mgrwt>
</event>
<event>
 4    1  0.1678003E-008  0.4169152E+03  0.7818608E-02  0.1038075E+00
         -1   -1    0    0    0  501 -0.00000000000E+00  0.00000000000E+00  0.47329289995E+03  0.47329289998E+03  0.50400000000E-02 0.  1.
          1   -1    0    0  501    0  0.00000000000E+00 -0.00000000000E+00 -0.43354891460E+03  0.43354891463E+03  0.50400000000E-02 0. -1.
    8880022    1    1    2    0    0 -0.30294279957E+03  0.24218234660E+03  0.19717886369E+03  0.46119170213E+03  0.15294330000E+03 0.  0.
    8880022    1    1    2    0    0  0.30294279957E+03 -0.24218234660E+03 -0.15743487834E+03  0.44565011247E+03  0.15294330000E+03 0.  1.
<mgrwt>
<rscale>  0 0.41691520E+03</rscale>
<asrwt>0</asrwt>
<pdfrwt beam="1">  1        1 0.66699833E-01 0.41691520E+03</pdfrwt>
<pdfrwt beam="2">  1       -1 0.72814292E-01 0.41691520E+03</pdfrwt>
<totfact> 0.10711301E+02</totfact>
</mgrwt>
</event>
<event>
 4    1  0.1678003E-008  0.5608041E+03  0.7818608E-02  0.9990237E-01
          1   -1    0    0  501    0  0.00000000000E+00  0.00000000000E+00  0.15056240739E+04  0.15056240739E+04  0.50400000000E-02 0. -1.
         -1   -1    0    0    0  501 -0.00000000000E+00 -0.00000000000E+00 -0.36522309718E+03  0.36522309721E+03  0.50400000000E-02 0.  1.
    8880022    1    1    2    0    0  0.53949072564E+03 -0.77002158020E+01 -0.41815291237E+02  0.56236083431E+03  0.15294330000E+03 0.  0.
    8880022    1    1    2    0    0 -0.53949072564E+03  0.77002158020E+01  0.11822162679E+04  0.13084863368E+04  0.15294330000E+03 0.  0.
<mgrwt>
<rscale>  0 0.56080406E+03</rscale>
<asrwt>0</asrwt>
<pdfrwt beam="1">  1        1 0.23163447E+00 0.56080406E+03</pdfrwt>
<pdfrwt beam="2">  1       -1 0.56188169E-01 0.56080406E+03</pdfrwt>
<totfact> 0.22111229E+01</totfact>
</mgrwt>
</event>
<event>
 4    1  0.1678003E-008  0.3333564E+03  0.7818608E-02  0.1069661E+00
         -1   -1    0    0    0  501 -0.00000000000E+00  0.00000000000E+00  0.12638442486E+03  0.12638442496E+03  0.50400000000E-02 0.  1.
          1   -1    0    0  501    0  0.00000000000E+00 -0.00000000000E+00 -0.10542826269E+04  0.10542826269E+04  0.50400000000E-02 0. -1.
    8880022    1    1    2    0    0 -0.26683069338E+03 -0.12859316821E+03 -0.70446804036E+03  0.77935979800E+03  0.15294330000E+03 0. -1.
    8880022    1    1    2    0    0  0.26683069338E+03  0.12859316821E+03 -0.22343016169E+03  0.40130725387E+03  0.15294330000E+03 0.  1.
<mgrwt>
<rscale>  0 0.33335638E+03</rscale>
<asrwt>0</asrwt>
<pdfrwt beam="1">  1        1 0.16219732E+00 0.33335638E+03</pdfrwt>
<pdfrwt beam="2">  1       -1 0.19443758E-01 0.33335638E+03</pdfrwt>
<totfact> 0.30747178E+02</totfact>
</mgrwt>
</event>
<event>
 4    1  0.1678003E-008  0.1235912E+04  0.7818608E-02  0.9081991E-01
          1   -1    0    0  501    0  0.00000000000E+00  0.00000000000E+00  0.94474873705E+03  0.94474873706E+03  0.50400000000E-02 0. -1.
         -1   -1    0    0    0  501 -0.00000000000E+00 -0.00000000000E+00 -0.16866565417E+04  0.16866565417E+04  0.50400000000E-02 0.  1.
    8880022    1    1    2    0    0 -0.14554751129E+03 -0.12177444539E+04 -0.63870002417E+03  0.13911919375E+04  0.15294330000E+03 0.  0.
    8880022    1    1    2    0    0  0.14554751129E+03  0.12177444539E+04 -0.10320778045E+03  0.12402133413E+04  0.15294330000E+03 0.  0.
<mgrwt>
<rscale>  0 0.12359115E+04</rscale>
<asrwt>0</asrwt>
<pdfrwt beam="1">  1        1 0.14534596E+00 0.12359115E+04</pdfrwt>
<pdfrwt beam="2">  1       -1 0.25948562E+00 0.12359115E+04</pdfrwt>
<totfact> 0.99064147E-01</totfact>
</mgrwt>
</event>
<event>
 4    1  0.1678003E-008  0.4007414E+03  0.7818608E-02  0.1043523E+00
          1   -1    0    0  501    0  0.00000000000E+00  0.00000000000E+00  0.57956933129E+03  0.57956933131E+03  0.50400000000E-02 0. -1.
         -1   -1    0    0    0  501 -0.00000000000E+00 -0.00000000000E+00 -0.76410973172E+03  0.76410973173E+03  0.50400000000E-02 0.  1.
    8880022    1    1    2    0    0  0.23836125273E+03  0.28352416284E+03  0.44409467935E+03  0.59817537141E+03  0.15294330000E+03 0.  0.
    8880022    1    1    2    0    0 -0.23836125273E+03 -0.28352416284E+03 -0.62863507978E+03  0.74550369164E+03  0.15294330000E+03 0.  0.
<mgrwt>
<rscale>  0 0.40074143E+03</rscale>
<asrwt>0</asrwt>
<pdfrwt beam="1">  1        1 0.89164513E-01 0.40074143E+03</pdfrwt>
<pdfrwt beam="2">  1       -1 0.11755534E+00 0.40074143E+03</pdfrwt>
<totfact> 0.25250532E+01</totfact>
</mgrwt>
</event>
<event>
 4    1  0.1678003E-008  0.1094296E+04  0.7818608E-02  0.9210769E-01
          1   -1    0    0  501    0  0.00000000000E+00  0.00000000000E+00  0.16203279895E+04  0.16203279895E+04  0.50400000000E-02 0. -1.
         -1   -1    0    0    0  501 -0.00000000000E+00 -0.00000000000E+00 -0.14231089437E+04  0.14231089437E+04  0.50400000000E-02 0.  1.
    8880022    1    1    2    0    0  0.53700060543E+03  0.94112843901E+03 -0.95642286546E+03  0.14533508659E+04  0.15294330000E+03 0.  0.
    8880022    1    1    2    0    0 -0.53700060543E+03 -0.94112843901E+03  0.11536419112E+04  0.15900860673E+04  0.15294330000E+03 0.  0.
<mgrwt>
<rscale>  0 0.10942961E+04</rscale>
<asrwt>0</asrwt>
<pdfrwt beam="1">  1        1 0.24928123E+00 0.10942961E+04</pdfrwt>
<pdfrwt beam="2">  1       -1 0.21893984E+00 0.10942961E+04</pdfrwt>
<totfact> 0.60142070E-01</totfact>
</mgrwt>
</event>
<event>
 4    1  0.1678003E-008  0.5385169E+03  0.7818608E-02  0.1004187E+00
         -1   -1    0    0    0  501 -0.00000000000E+00  0.00000000000E+00  0.37172477543E+03  0.37172477546E+03  0.50400000000E-02 0.  1.
          1   -1    0    0  501    0  0.00000000000E+00 -0.00000000000E+00 -0.10386821845E+04  0.10386821845E+04  0.50400000000E-02 0. -1.
    8880022    1    1    2    0    0 -0.24383969278E+03  0.45513843051E+03 -0.68530789427E+03  0.87157750640E+03  0.15294330000E+03 0. -1.
    8880022    1    1    2    0    0  0.24383969278E+03 -0.45513843051E+03  0.18350485210E+02  0.53882945356E+03  0.15294330000E+03 0.  0.
<mgrwt>
<rscale>  0 0.53851689E+03</rscale>
<asrwt>0</asrwt>
<pdfrwt beam="1">  1        1 0.15979726E+00 0.53851689E+03</pdfrwt>
<pdfrwt beam="2">  1       -1 0.57188427E-01 0.53851689E+03</pdfrwt>
<totfact> 0.45960469E+01</totfact>
</mgrwt>
</event>
<event>
 4    1  0.1678003E-008  0.2178801E+03  0.7818608E-02  0.1135473E+00
         -1   -1    0    0    0  501 -0.00000000000E+00  0.00000000000E+00  0.32131595120E+03  0.32131595124E+03  0.50400000000E-02 0.  1.
          1   -1    0    0  501    0  0.00000000000E+00 -0.00000000000E+00 -0.61893480578E+03  0.61893480580E+03  0.50400000000E-02 0. -1.
    8880022    1    1    2    0    0  0.12926658772E+03  0.85849973430E+02 -0.55900481130E+03  0.59996508291E+03  0.15294330000E+03 0. -1.
    8880022    1    1    2    0    0 -0.12926658772E+03 -0.85849973430E+02  0.26138595671E+03  0.34028567413E+03  0.15294330000E+03 0.  0.
<mgrwt>
<rscale>  0 0.21788006E+03</rscale>
<asrwt>0</asrwt>
<pdfrwt beam="1">  1        1 0.95220739E-01 0.21788006E+03</pdfrwt>
<pdfrwt beam="2">  1       -1 0.49433223E-01 0.21788006E+03</pdfrwt>
<totfact> 0.14430027E+02</totfact>
</mgrwt>
</event>
<event>
 4    1  0.1678003E-008  0.1885475E+03  0.7818608E-02  0.1159778E+00
         -1   -1    0    0    0  501 -0.00000000000E+00  0.00000000000E+00  0.85455907716E+02  0.85455907865E+02  0.50400000000E-02 0.  1.
          1   -1    0    0  501    0  0.00000000000E+00 -0.00000000000E+00 -0.21118490675E+04  0.21118490675E+04  0.50400000000E-02 0. -1.
    8880022    1    1    2    0    0  0.44993333120E+02  0.10066821116E+03 -0.28682847205E+02  0.19071666813E+03  0.15294330000E+03 0.  0.
    8880022    1    1    2    0    0 -0.44993333120E+02 -0.10066821116E+03 -0.19977103126E+04  0.20065883073E+04  0.15294330000E+03 0. -1.
<mgrwt>
<rscale>  0 0.18854745E+03</rscale>
<asrwt>0</asrwt>
<pdfrwt beam="1">  1        1 0.32489982E+00 0.18854745E+03</pdfrwt>
<pdfrwt beam="2">  1       -1 0.13147064E-01 0.18854745E+03</pdfrwt>
<totfact> 0.11675273E+02</totfact>
</mgrwt>
</event>
<event>
 4    1  0.1678003E-008  0.6337993E+03  0.7818608E-02  0.9837663E-01
         -1   -1    0    0    0  501 -0.00000000000E+00  0.00000000000E+00  0.24987408171E+03  0.24987408176E+03  0.50400000000E-02 0.  1.
          1   -1    0    0  501    0  0.00000000000E+00 -0.00000000000E+00 -0.26805735713E+04  0.26805735713E+04  0.50400000000E-02 0. -1.
    8880022    1    1    2    0    0 -0.61057008120E+03 -0.74256976009E+02 -0.21423532533E+04  0.22341394400E+04  0.15294330000E+03 0.  0.
    8880022    1    1    2    0    0  0.61057008120E+03  0.74256976009E+02 -0.28834623628E+03  0.69630821303E+03  0.15294330000E+03 0.  0.
<mgrwt>
<rscale>  0 0.63379932E+03</rscale>
<asrwt>0</asrwt>
<pdfrwt beam="1">  1        1 0.41239592E+00 0.63379932E+03</pdfrwt>
<pdfrwt beam="2">  1       -1 0.38442168E-01 0.63379932E+03</pdfrwt>
<totfact> 0.71836992E+00</totfact>
</mgrwt>
</event>
<event>
 4    1  0.1678003E-008  0.5727955E+03  0.7818608E-02  0.9963512E-01
          1   -1    0    0  501    0  0.00000000000E+00  0.00000000000E+00  0.36452972857E+04  0.36452972857E+04  0.50400000000E-02 0. -1.
         -1   -1    0    0    0  501 -0.00000000000E+00 -0.00000000000E+00 -0.12892321095E+03  0.12892321105E+03  0.50400000000E-02 0.  1.
    8880022    1    1    2    0    0 -0.18252230430E+03  0.52094978734E+03  0.27950193977E+04  0.28531085081E+04  0.15294330000E+03 0.  0.
    8880022    1    1    2    0    0  0.18252230430E+03 -0.52094978734E+03  0.72135467703E+03  0.92111198863E+03  0.15294330000E+03 0.  1.
<mgrwt>
<rscale>  0 0.57279554E+03</rscale>
<asrwt>0</asrwt>
<pdfrwt beam="1">  1        1 0.56081493E+00 0.57279554E+03</pdfrwt>
<pdfrwt beam="2">  1       -1 0.19834342E-01 0.57279554E+03</pdfrwt>
<totfact> 0.44681757E+00</totfact>
</mgrwt>
</event>
<event>
 4    1  0.1678003E-008  0.5152044E+03  0.7818608E-02  0.1009885E+00
          1   -1    0    0  501    0  0.00000000000E+00  0.00000000000E+00  0.36098422497E+03  0.36098422501E+03  0.50400000000E-02 0. -1.
         -1   -1    0    0    0  501 -0.00000000000E+00 -0.00000000000E+00 -0.19724754133E+04  0.19724754133E+04  0.50400000000E-02 0.  1.
    8880022    1    1    2    0    0  0.41690584933E+03  0.26121534321E+03  0.11826775355E+03  0.52860463229E+03  0.15294330000E+03 0.  0.
    8880022    1    1    2    0    0 -0.41690584933E+03 -0.26121534321E+03 -0.17297589419E+04  0.18048550060E+04  0.15294330000E+03 0.  0.
<mgrwt>
<rscale>  0 0.51520442E+03</rscale>
<asrwt>0</asrwt>
<pdfrwt beam="1">  1        1 0.55536036E-01 0.51520442E+03</pdfrwt>
<pdfrwt beam="2">  1       -1 0.30345775E+00 0.51520442E+03</pdfrwt>
<totfact> 0.23736385E+00</totfact>
</mgrwt>
</event>
<event>
 4    1  0.1678003E-008  0.7176693E+03  0.7818608E-02  0.9687484E-01
          1   -1    0    0  501    0  0.00000000000E+00  0.00000000000E+00  0.10574580851E+04  0.10574580851E+04  0.50400000000E-02 0. -1.
         -1   -1    0    0    0  501 -0.00000000000E+00 -0.00000000000E+00 -0.51992383026E+03  0.51992383028E+03  0.50400000000E-02 0.  1.
    8880022    1    1    2    0    0  0.65368815855E+03  0.25367176313E+03  0.70489811716E+02  0.72112276250E+03  0.15294330000E+03 0.  0.
    8880022    1    1    2    0    0 -0.65368815855E+03 -0.25367176313E+03  0.46704444312E+03  0.85625915288E+03  0.15294330000E+03 0.  0.
<mgrwt>
<rscale>  0 0.71766930E+03</rscale>
<asrwt>0</asrwt>
<pdfrwt beam="1">  1        1 0.16268586E+00 0.71766930E+03</pdfrwt>
<pdfrwt beam="2">  1       -1 0.79988283E-01 0.71766930E+03</pdfrwt>
<totfact> 0.22021283E+01</totfact>
</mgrwt>
</event>
<event>
 4    1  0.1678003E-008  0.7630511E+03  0.7818608E-02  0.9615095E-01
          1   -1    0    0  501    0  0.00000000000E+00  0.00000000000E+00  0.20363887150E+04  0.20363887150E+04  0.50400000000E-02 0. -1.
         -1   -1    0    0    0  501 -0.00000000000E+00 -0.00000000000E+00 -0.44666652519E+03  0.44666652522E+03  0.50400000000E-02 0.  1.
    8880022    1    1    2    0    0 -0.13198505078E+02  0.74744973984E+03  0.50071356097E+02  0.76469216541E+03  0.15294330000E+03 0.  0.
    8880022    1    1    2    0    0  0.13198505078E+02 -0.74744973984E+03  0.15396508337E+04  0.17183630748E+04  0.15294330000E+03 0.  0.
<mgrwt>
<rscale>  0 0.76305109E+03</rscale>
<asrwt>0</asrwt>
<pdfrwt beam="1">  1        1 0.31329057E+00 0.76305109E+03</pdfrwt>
<pdfrwt beam="2">  1       -1 0.68717926E-01 0.76305109E+03</pdfrwt>
<totfact> 0.63161124E+00</totfact>
</mgrwt>
</event>
<event>
 4    1  0.1678003E-008  0.1586394E+03  0.7818608E-02  0.1190242E+00
          1   -1    0    0  501    0  0.00000000000E+00  0.00000000000E+00  0.12863493485E+04  0.12863493485E+04  0.50400000000E-02 0. -1.
         -1   -1    0    0    0  501 -0.00000000000E+00 -0.00000000000E+00 -0.13738966044E+03  0.13738966053E+03  0.50400000000E-02 0.  1.
    8880022    1    1    2    0    0 -0.40978500366E+02 -0.97754857306E+01  0.12337187927E+04  0.12438764047E+04  0.15294330000E+03 0. -1.
    8880022    1    1    2    0    0  0.40978500366E+02  0.97754857306E+01 -0.84759104646E+02  0.17986260436E+03  0.15294330000E+03 0.  0.
<mgrwt>
<rscale>  0 0.15863937E+03</rscale>
<asrwt>0</asrwt>
<pdfrwt beam="1">  1        1 0.19789990E+00 0.15863937E+03</pdfrwt>
<pdfrwt beam="2">  1       -1 0.21136871E-01 0.15863937E+03</pdfrwt>
<totfact> 0.19036052E+02</totfact>
</mgrwt>
</event>
<event>
 4    1  0.1678003E-008  0.4207083E+03  0.7818608E-02  0.1036836E+00
          1   -1    0    0  501    0  0.00000000000E+00  0.00000000000E+00  0.13217190941E+04  0.13217190942E+04  0.50400000000E-02 0. -1.
         -1   -1    0    0    0  501 -0.00000000000E+00 -0.00000000000E+00 -0.15705603361E+03  0.15705603369E+03  0.50400000000E-02 0.  1.
    8880022    1    1    2    0    0 -0.21774546207E+03  0.32586918256E+03  0.86615891969E+03  0.96292613298E+03  0.15294330000E+03 0.  0.
    8880022    1    1    2    0    0  0.21774546207E+03 -0.32586918256E+03  0.29850414084E+03  0.51584899487E+03  0.15294330000E+03 0.  0.
<mgrwt>
<rscale>  0 0.42070829E+03</rscale>
<asrwt>0</asrwt>
<pdfrwt beam="1">  1        1 0.20334140E+00 0.42070829E+03</pdfrwt>
<pdfrwt beam="2">  1       -1 0.24162467E-01 0.42070829E+03</pdfrwt>
<totfact> 0.13673100E+02</totfact>
</mgrwt>
</event>
<event>
 4    1  0.1678003E-008  0.1042584E+04  0.7818608E-02  0.9263034E-01
          1   -1    0    0  501    0  0.00000000000E+00  0.00000000000E+00  0.88114004532E+03  0.88114004534E+03  0.50400000000E-02 0. -1.
         -1   -1    0    0    0  501 -0.00000000000E+00 -0.00000000000E+00 -0.18446119224E+04  0.18446119224E+04  0.50400000000E-02 0.  1.
    8880022    1    1    2    0    0 -0.90392876802E+03  0.49648973544E+03 -0.12661150617E+04  0.16401305672E+04  0.15294330000E+03 0.  0.
    8880022    1    1    2    0    0  0.90392876802E+03 -0.49648973544E+03  0.30264318464E+03  0.10856214005E+04  0.15294330000E+03 0.  0.
<mgrwt>
<rscale>  0 0.10425838E+04</rscale>
<asrwt>0</asrwt>
<pdfrwt beam="1">  1        1 0.13556001E+00 0.10425838E+04</pdfrwt>
<pdfrwt beam="2">  1       -1 0.28378645E+00 0.10425838E+04</pdfrwt>
<totfact> 0.79777321E-01</totfact>
</mgrwt>
</event>
<event>
 4    1  0.1678003E-008  0.5273577E+03  0.7818608E-02  0.1006875E+00
          1   -1    0    0  501    0  0.00000000000E+00  0.00000000000E+00  0.15244988929E+04  0.15244988929E+04  0.50400000000E-02 0. -1.
         -1   -1    0    0    0  501 -0.00000000000E+00 -0.00000000000E+00 -0.48224517042E+03  0.48224517045E+03  0.50400000000E-02 0.  1.
    8880022    1    1    2    0    0 -0.42845436352E+01 -0.50467426675E+03  0.13122767089E+04  0.14142758877E+04  0.15294330000E+03 0.  0.
    8880022    1    1    2    0    0  0.42845436352E+01  0.50467426675E+03 -0.27002298648E+03  0.59246817558E+03  0.15294330000E+03 0.  1.
<mgrwt>
<rscale>  0 0.52735768E+03</rscale>
<asrwt>0</asrwt>
<pdfrwt beam="1">  1        1 0.23453829E+00 0.52735768E+03</pdfrwt>
<pdfrwt beam="2">  1       -1 0.74191565E-01 0.52735768E+03</pdfrwt>
<totfact> 0.12412733E+01</totfact>
</mgrwt>
</event>
<event>
 4    1  0.1678003E-008  0.5008203E+03  0.7818608E-02  0.1013565E+00
         -1   -1    0    0    0  501 -0.00000000000E+00  0.00000000000E+00  0.11398126943E+04  0.11398126943E+04  0.50400000000E-02 0.  1.
          1   -1    0    0  501    0  0.00000000000E+00 -0.00000000000E+00 -0.98823192329E+03  0.98823192330E+03  0.50400000000E-02 0. -1.
    8880022    1    1    2    0    0 -0.27756944251E+03  0.38779447117E+03  0.10138966626E+04  0.11308436863E+04  0.15294330000E+03 0.  0.
    8880022    1    1    2    0    0  0.27756944251E+03 -0.38779447117E+03 -0.86231589168E+03  0.99720093128E+03  0.15294330000E+03 0.  0.
<mgrwt>
<rscale>  0 0.50082033E+03</rscale>
<asrwt>0</asrwt>
<pdfrwt beam="1">  1        1 0.15203568E+00 0.50082033E+03</pdfrwt>
<pdfrwt beam="2">  1       -1 0.17535580E+00 0.50082033E+03</pdfrwt>
<totfact> 0.37960834E+00</totfact>
</mgrwt>
</event>
<event>
 4    1  0.1678003E-008  0.3946539E+03  0.7818608E-02  0.1045647E+00
          1   -1    0    0  501    0  0.00000000000E+00  0.00000000000E+00  0.10527972441E+04  0.10527972441E+04  0.50400000000E-02 0. -1.
         -1   -1    0    0    0  501 -0.00000000000E+00 -0.00000000000E+00 -0.15583300556E+03  0.15583300564E+03  0.50400000000E-02 0.  1.
    8880022    1    1    2    0    0  0.18925607110E+02 -0.36332056936E+03  0.31248399944E+03  0.50338644960E+03  0.15294330000E+03 0.  0.
    8880022    1    1    2    0    0 -0.18925607110E+02  0.36332056936E+03  0.58448023908E+03  0.70524380013E+03  0.15294330000E+03 0.  0.
<mgrwt>
<rscale>  0 0.39465386E+03</rscale>
<asrwt>0</asrwt>
<pdfrwt beam="1">  1        1 0.16196881E+00 0.39465386E+03</pdfrwt>
<pdfrwt beam="2">  1       -1 0.23974308E-01 0.39465386E+03</pdfrwt>
<totfact> 0.21640752E+02</totfact>
</mgrwt>
</event>
<event>
 4    1  0.1678003E-008  0.3975284E+03  0.7818608E-02  0.1044639E+00
         -1   -1    0    0    0  501 -0.00000000000E+00  0.00000000000E+00  0.19395712242E+04  0.19395712242E+04  0.50400000000E-02 0.  1.
          1   -1    0    0  501    0  0.00000000000E+00 -0.00000000000E+00 -0.44672499993E+03  0.44672499996E+03  0.50400000000E-02 0. -1.
    8880022    1    1    2    0    0 -0.17297178676E+03 -0.32360153576E+03  0.18252919347E+04  0.18680790917E+04  0.15294330000E+03 0.  0.
    8880022    1    1    2    0    0  0.17297178676E+03  0.32360153576E+03 -0.33244571044E+03  0.51821713245E+03  0.15294330000E+03 0. -1.
<mgrwt>
<rscale>  0 0.39752842E+03</rscale>
<asrwt>0</asrwt>
<pdfrwt beam="1">  1        1 0.68726923E-01 0.39752842E+03</pdfrwt>
<pdfrwt beam="2">  1       -1 0.29839557E+00 0.39752842E+03</pdfrwt>
<totfact> 0.19982301E+00</totfact>
</mgrwt>
</event>
<event>
 4    1  0.1678003E-008  0.4536489E+03  0.7818608E-02  0.1026639E+00
          1   -1    0    0  501    0  0.00000000000E+00  0.00000000000E+00  0.45022906122E+04  0.45022906122E+04  0.50400000000E-02 0. -1.
         -1   -1    0    0    0  501 -0.00000000000E+00 -0.00000000000E+00 -0.13932325099E+03  0.13932325109E+03  0.50400000000E-02 0.  1.
    8880022    1    1    2    0    0  0.62016215691E+02  0.42256322906E+03  0.40838628916E+04  0.41089820472E+04  0.15294330000E+03 0.  0.
    8880022    1    1    2    0    0 -0.62016215691E+02 -0.42256322906E+03  0.27910446958E+03  0.53263181609E+03  0.15294330000E+03 0.  0.
<mgrwt>
<rscale>  0 0.45364892E+03</rscale>
<asrwt>0</asrwt>
<pdfrwt beam="1">  1        1 0.69266008E+00 0.45364892E+03</pdfrwt>
<pdfrwt beam="2">  1       -1 0.21434347E-01 0.45364892E+03</pdfrwt>
<totfact> 0.72166401E-01</totfact>
</mgrwt>
</event>
<event>
 4    1  0.1678003E-008  0.1531013E+03  0.7818608E-02  0.1196713E+00
          1   -1    0    0  501    0  0.00000000000E+00  0.00000000000E+00  0.15578131229E+03  0.15578131238E+03  0.50400000000E-02 0. -1.
         -1   -1    0    0    0  501 -0.00000000000E+00 -0.00000000000E+00 -0.12190214616E+04  0.12190214616E+04  0.50400000000E-02 0.  1.
    8880022    1    1    2    0    0 -0.61314645522E+01  0.32819299512E+01  0.11196055606E+03  0.18967125520E+03  0.15294330000E+03 0. -1.
    8880022    1    1    2    0    0  0.61314645522E+01 -0.32819299512E+01 -0.11752007053E+04  0.11851315188E+04  0.15294330000E+03 0.  0.
<mgrwt>
<rscale>  0 0.15310134E+03</rscale>
<asrwt>0</asrwt>
<pdfrwt beam="1">  1        1 0.23966357E-01 0.15310134E+03</pdfrwt>
<pdfrwt beam="2">  1       -1 0.18754176E+00 0.15310134E+03</pdfrwt>
<totfact> 0.42637157E+01</totfact>
</mgrwt>
</event>
<event>
 4    1  0.1678003E-008  0.9873246E+03  0.7818608E-02  0.9322557E-01
         -1   -1    0    0    0  501 -0.00000000000E+00  0.00000000000E+00  0.14613902112E+04  0.14613902112E+04  0.50400000000E-02 0.  1.
          1   -1    0    0  501    0  0.00000000000E+00 -0.00000000000E+00 -0.82676800079E+03  0.82676800080E+03  0.50400000000E-02 0. -1.
    8880022    1    1    2    0    0  0.35975051662E+03 -0.90664090652E+03 -0.18555335597E+03  0.10046093114E+04  0.15294330000E+03 0.  0.
    8880022    1    1    2    0    0 -0.35975051662E+03  0.90664090652E+03  0.82017556634E+03  0.12835489006E+04  0.15294330000E+03 0.  0.
<mgrwt>
<rscale>  0 0.98732458E+03</rscale>
<asrwt>0</asrwt>
<pdfrwt beam="1">  1        1 0.12719508E+00 0.98732458E+03</pdfrwt>
<pdfrwt beam="2">  1       -1 0.22482926E+00 0.98732458E+03</pdfrwt>
<totfact> 0.21572935E+00</totfact>
</mgrwt>
</event>
<event>
 4    1  0.1678003E-008  0.9455178E+03  0.7818608E-02  0.9370405E-01
         -1   -1    0    0    0  501 -0.00000000000E+00  0.00000000000E+00  0.21081416489E+04  0.21081416489E+04  0.50400000000E-02 0.  1.
          1   -1    0    0  501    0  0.00000000000E+00 -0.00000000000E+00 -0.78148958785E+03  0.78148958787E+03  0.50400000000E-02 0. -1.
    8880022    1    1    2    0    0 -0.26784492339E+03 -0.89379607742E+03 -0.31377337588E+03  0.99622172001E+03  0.15294330000E+03 0.  0.
    8880022    1    1    2    0    0  0.26784492339E+03  0.89379607742E+03  0.16404254369E+04  0.18934095167E+04  0.15294330000E+03 0.  0.
<mgrwt>
<rscale>  0 0.94551784E+03</rscale>
<asrwt>0</asrwt>
<pdfrwt beam="1">  1        1 0.12022917E+00 0.94551784E+03</pdfrwt>
<pdfrwt beam="2">  1       -1 0.32432949E+00 0.94551784E+03</pdfrwt>
<totfact> 0.54000851E-01</totfact>
</mgrwt>
</event>
<event>
 4    1  0.1678003E-008  0.8323829E+03  0.7818608E-02  0.9514292E-01
         -1   -1    0    0    0  501 -0.00000000000E+00  0.00000000000E+00  0.42643831248E+03  0.42643831251E+03  0.50400000000E-02 0.  1.
          1   -1    0    0  501    0  0.00000000000E+00 -0.00000000000E+00 -0.29393718115E+04  0.29393718115E+04  0.50400000000E-02 0. -1.
    8880022    1    1    2    0    0  0.10719098229E+02  0.81814101392E+03 -0.13100537902E+03  0.84262902873E+03  0.15294330000E+03 0.  0.
    8880022    1    1    2    0    0 -0.10719098229E+02 -0.81814101392E+03 -0.23819281200E+04  0.25231810953E+04  0.15294330000E+03 0.  0.
<mgrwt>
<rscale>  0 0.83238289E+03</rscale>
<asrwt>0</asrwt>
<pdfrwt beam="1">  1        1 0.45221103E+00 0.83238289E+03</pdfrwt>
<pdfrwt beam="2">  1       -1 0.65605896E-01 0.83238289E+03</pdfrwt>
<totfact> 0.16468802E+00</totfact>
</mgrwt>
</event>
<event>
 4    1  0.1678003E-008  0.1124542E+04  0.7818608E-02  0.9181596E-01
          1   -1    0    0  501    0  0.00000000000E+00  0.00000000000E+00  0.29766468344E+04  0.29766468344E+04  0.50400000000E-02 0. -1.
         -1   -1    0    0    0  501 -0.00000000000E+00 -0.00000000000E+00 -0.62448639081E+03  0.62448639083E+03  0.50400000000E-02 0.  1.
    8880022    1    1    2    0    0  0.11035819325E+04  0.15267532071E+03  0.15800480017E+03  0.11355879557E+04  0.15294330000E+03 0.  0.
    8880022    1    1    2    0    0 -0.11035819325E+04 -0.15267532071E+03  0.21941556434E+04  0.24655452695E+04  0.15294330000E+03 0.  0.
<mgrwt>
<rscale>  0 0.11245419E+04</rscale>
<asrwt>0</asrwt>
<pdfrwt beam="1">  1        1 0.45794567E+00 0.11245419E+04</pdfrwt>
<pdfrwt beam="2">  1       -1 0.96074829E-01 0.11245419E+04</pdfrwt>
<totfact> 0.65364551E-01</totfact>
</mgrwt>
</event>
<event>
 4    1  0.1678003E-008  0.3227817E+03  0.7818608E-02  0.1074376E+00
         -1   -1    0    0    0  501 -0.00000000000E+00  0.00000000000E+00  0.20073021271E+03  0.20073021278E+03  0.50400000000E-02 0.  1.
          1   -1    0    0  501    0  0.00000000000E+00 -0.00000000000E+00 -0.10030759338E+04  0.10030759338E+04  0.50400000000E-02 0. -1.
    8880022    1    1    2    0    0 -0.21065631640E+03  0.19084094601E+03  0.16942609544E+02  0.32322601279E+03  0.15294330000E+03 0.  0.
    8880022    1    1    2    0    0  0.21065631640E+03 -0.19084094601E+03 -0.81928833062E+03  0.88058013379E+03  0.15294330000E+03 0.  0.
<mgrwt>
<rscale>  0 0.32278167E+03</rscale>
<asrwt>0</asrwt>
<pdfrwt beam="1">  1        1 0.15431937E+00 0.32278167E+03</pdfrwt>
<pdfrwt beam="2">  1       -1 0.30881572E-01 0.32278167E+03</pdfrwt>
<totfact> 0.15492588E+02</totfact>
</mgrwt>
</event>
<event>
 4    1  0.1678003E-008  0.3050652E+03  0.7818608E-02  0.1082736E+00
          1   -1    0    0  501    0  0.00000000000E+00  0.00000000000E+00  0.15746933586E+03  0.15746933594E+03  0.50400000000E-02 0. -1.
         -1   -1    0    0    0  501 -0.00000000000E+00 -0.00000000000E+00 -0.14852237326E+04  0.14852237326E+04  0.50400000000E-02 0.  1.
    8880022    1    1    2    0    0 -0.19641837481E+03  0.17633198774E+03 -0.13011904251E+04  0.13364734652E+04  0.15294330000E+03 0.  0.
    8880022    1    1    2    0    0  0.19641837481E+03 -0.17633198774E+03 -0.26563971654E+02  0.30621960334E+03  0.15294330000E+03 0.  0.
<mgrwt>
<rscale>  0 0.30506524E+03</rscale>
<asrwt>0</asrwt>
<pdfrwt beam="1">  1        1 0.24226053E-01 0.30506524E+03</pdfrwt>
<pdfrwt beam="2">  1       -1 0.22849595E+00 0.30506524E+03</pdfrwt>
<totfact> 0.21619458E+01</totfact>
</mgrwt>
</event>
<event>
 4    1  0.1678003E-008  0.5358580E+03  0.7818608E-02  0.1004821E+00
          1   -1    0    0  501    0  0.00000000000E+00  0.00000000000E+00  0.12012900325E+04  0.12012900325E+04  0.50400000000E-02 0. -1.
         -1   -1    0    0    0  501 -0.00000000000E+00 -0.00000000000E+00 -0.60155281149E+03  0.60155281151E+03  0.50400000000E-02 0.  1.
    8880022    1    1    2    0    0  0.84487833504E+02 -0.50657079366E+03  0.99964443322E+03  0.11342102137E+04  0.15294330000E+03 0.  0.
    8880022    1    1    2    0    0 -0.84487833504E+02  0.50657079366E+03 -0.39990721218E+03  0.66863263034E+03  0.15294330000E+03 0.  0.
<mgrwt>
<rscale>  0 0.53585802E+03</rscale>
<asrwt>0</asrwt>
<pdfrwt beam="1">  1        1 0.18481385E+00 0.53585802E+03</pdfrwt>
<pdfrwt beam="2">  1       -1 0.92546588E-01 0.53585802E+03</pdfrwt>
<totfact> 0.12956660E+01</totfact>
</mgrwt>
</event>
<event>
 4    1  0.1678003E-008  0.8012361E+03  0.7818608E-02  0.9558230E-01
         -1   -1    0    0    0  501 -0.00000000000E+00  0.00000000000E+00  0.13006076223E+04  0.13006076223E+04  0.50400000000E-02 0.  1.
          1   -1    0    0  501    0  0.00000000000E+00 -0.00000000000E+00 -0.57266233660E+03  0.57266233662E+03  0.50400000000E-02 0. -1.
    8880022    1    1    2    0    0 -0.77139633455E+03  0.15341233374E+03  0.15950245042E+02  0.80139485426E+03  0.15294330000E+03 0.  0.
    8880022    1    1    2    0    0  0.77139633455E+03 -0.15341233374E+03  0.71199504069E+03  0.10718751047E+04  0.15294330000E+03 0.  0.
<mgrwt>
<rscale>  0 0.80123611E+03</rscale>
<asrwt>0</asrwt>
<pdfrwt beam="1">  1        1 0.88101898E-01 0.80123611E+03</pdfrwt>
<pdfrwt beam="2">  1       -1 0.20009348E+00 0.80123611E+03</pdfrwt>
<totfact> 0.56585762E+00</totfact>
</mgrwt>
</event>
<event>
 4    1  0.1678003E-008  0.5145168E+03  0.7818608E-02  0.1010058E+00
         -1   -1    0    0    0  501 -0.00000000000E+00  0.00000000000E+00  0.35171015881E+03  0.35171015885E+03  0.50400000000E-02 0.  1.
          1   -1    0    0  501    0  0.00000000000E+00 -0.00000000000E+00 -0.38708848291E+04  0.38708848291E+04  0.50400000000E-02 0. -1.
    8880022    1    1    2    0    0  0.46226683586E+03 -0.16626872620E+03  0.13535569756E+03  0.53202324641E+03  0.15294330000E+03 0.  0.
    8880022    1    1    2    0    0 -0.46226683586E+03  0.16626872620E+03 -0.36545303679E+04  0.36905717416E+04  0.15294330000E+03 0.  0.
<mgrwt>
<rscale>  0 0.51451683E+03</rscale>
<asrwt>0</asrwt>
<pdfrwt beam="1">  1        1 0.59552071E+00 0.51451683E+03</pdfrwt>
<pdfrwt beam="2">  1       -1 0.54109258E-01 0.51451683E+03</pdfrwt>
<totfact> 0.50915213E-01</totfact>
</mgrwt>
</event>
<event>
 4    1  0.1678003E-008  0.2744684E+03  0.7818608E-02  0.1098749E+00
          1   -1    0    0  501    0  0.00000000000E+00  0.00000000000E+00  0.11800161837E+03  0.11800161847E+03  0.50400000000E-02 0. -1.
         -1   -1    0    0    0  501 -0.00000000000E+00 -0.00000000000E+00 -0.20945122534E+04  0.20945122534E+04  0.50400000000E-02 0.  1.
    8880022    1    1    2    0    0  0.95183930288E+02  0.20707786374E+03 -0.65872570922E+02  0.28226241487E+03  0.15294330000E+03 0.  0.
    8880022    1    1    2    0    0 -0.95183930288E+02 -0.20707786374E+03 -0.19106380641E+04  0.19302514570E+04  0.15294330000E+03 0.  0.
<mgrwt>
<rscale>  0 0.27446835E+03</rscale>
<asrwt>0</asrwt>
<pdfrwt beam="1">  1        1 0.18154097E-01 0.27446835E+03</pdfrwt>
<pdfrwt beam="2">  1       -1 0.32223263E+00 0.27446835E+03</pdfrwt>
<totfact> 0.81457521E+00</totfact>
</mgrwt>
</event>
<event>
 4    1  0.1678003E-008  0.4212742E+03  0.7818608E-02  0.1036652E+00
          1   -1    0    0  501    0  0.00000000000E+00  0.00000000000E+00  0.47161033962E+03  0.47161033965E+03  0.50400000000E-02 0. -1.
         -1   -1    0    0    0  501 -0.00000000000E+00 -0.00000000000E+00 -0.71313507224E+03  0.71313507226E+03  0.50400000000E-02 0.  1.
    8880022    1    1    2    0    0 -0.19721772205E+03 -0.33938978729E+03 -0.52787168361E+03  0.67536688176E+03  0.15294330000E+03 0.  0.
    8880022    1    1    2    0    0  0.19721772205E+03  0.33938978729E+03  0.28634695100E+03  0.50937853014E+03  0.15294330000E+03 0.  0.
<mgrwt>
<rscale>  0 0.42127415E+03</rscale>
<asrwt>0</asrwt>
<pdfrwt beam="1">  1        1 0.72555437E-01 0.42127415E+03</pdfrwt>
<pdfrwt beam="2">  1       -1 0.10971309E+00 0.42127415E+03</pdfrwt>
<totfact> 0.39223799E+01</totfact>
</mgrwt>
</event>
<event>
 4    1  0.1678003E-008  0.3555447E+03  0.7818608E-02  0.1060362E+00
         -1   -1    0    0    0  501 -0.00000000000E+00  0.00000000000E+00  0.53407967239E+03  0.53407967241E+03  0.50400000000E-02 0.  1.
          1   -1    0    0  501    0  0.00000000000E+00 -0.00000000000E+00 -0.25066524144E+03  0.25066524149E+03  0.50400000000E-02 0. -1.
    8880022    1    1    2    0    0 -0.31459389880E+03  0.63647914838E+02  0.23434973442E+03  0.42583075190E+03  0.15294330000E+03 0.  1.
    8880022    1    1    2    0    0  0.31459389880E+03 -0.63647914838E+02  0.49064696534E+02  0.35891416200E+03  0.15294330000E+03 0.  0.
<mgrwt>
<rscale>  0 0.35554470E+03</rscale>
<asrwt>0</asrwt>
<pdfrwt beam="1">  1        1 0.38563884E-01 0.35554470E+03</pdfrwt>
<pdfrwt beam="2">  1       -1 0.82166102E-01 0.35554470E+03</pdfrwt>
<totfact> 0.16968886E+02</totfact>
</mgrwt>
</event>
<event>
 4    1  0.1678003E-008  0.5365556E+03  0.7818608E-02  0.1004655E+00
          1   -1    0    0  501    0  0.00000000000E+00  0.00000000000E+00  0.46006340281E+03  0.46006340283E+03  0.50400000000E-02 0. -1.
         -1   -1    0    0    0  501 -0.00000000000E+00 -0.00000000000E+00 -0.10399925804E+04  0.10399925804E+04  0.50400000000E-02 0.  1.
    8880022    1    1    2    0    0 -0.12856084142E+03 -0.49796828686E+03 -0.76331354275E+03  0.93302707476E+03  0.15294330000E+03 0.  0.
    8880022    1    1    2    0    0  0.12856084142E+03  0.49796828686E+03  0.18338436515E+03  0.56702890849E+03  0.15294330000E+03 0.  0.
<mgrwt>
<rscale>  0 0.53655564E+03</rscale>
<asrwt>0</asrwt>
<pdfrwt beam="1">  1        1 0.70778985E-01 0.53655564E+03</pdfrwt>
<pdfrwt beam="2">  1       -1 0.15999886E+00 0.53655564E+03</pdfrwt>
<totfact> 0.15357835E+01</totfact>
</mgrwt>
</event>
<event>
 4    1  0.2055771E-008  0.9039736E+03  0.7818608E-02  0.9420628E-01
         -1   -1    0    0    0  501 -0.00000000000E+00  0.00000000000E+00  0.20725109601E+04  0.20725109601E+04  0.50400000000E-02 0.  1.
          1   -1    0    0  501    0  0.00000000000E+00 -0.00000000000E+00 -0.10426303334E+04  0.10426303334E+04  0.50400000000E-02 0. -1.
    8880022    1    1    2    0    0  0.80000583234E+03  0.39213178373E+03 -0.71330304270E+03  0.11515075125E+04  0.15294330000E+03 0.  0.
    8880022    1    1    2    0    0 -0.80000583234E+03 -0.39213178373E+03  0.17431836694E+04  0.19636337810E+04  0.15294330000E+03 0.  0.
<mgrwt>
<rscale>  0 0.90397363E+03</rscale>
<asrwt>0</asrwt>
<pdfrwt beam="1">  1        1 0.16040467E+00 0.90397363E+03</pdfrwt>
<pdfrwt beam="2">  1       -1 0.31884784E+00 0.90397363E+03</pdfrwt>
<totfact> 0.36103983E-01</totfact>
</mgrwt>
</event>
<event>
 4    1  0.1678003E-008  0.4295282E+03  0.7818608E-02  0.1034009E+00
          1   -1    0    0  501    0  0.00000000000E+00  0.00000000000E+00  0.21000238872E+04  0.21000238872E+04  0.50400000000E-02 0. -1.
         -1   -1    0    0    0  501 -0.00000000000E+00 -0.00000000000E+00 -0.15359139110E+03  0.15359139118E+03  0.50400000000E-02 0.  1.
    8880022    1    1    2    0    0  0.38195111075E+03 -0.12335388236E+03  0.17103973161E+04  0.17635060145E+04  0.15294330000E+03 0.  0.
    8880022    1    1    2    0    0 -0.38195111075E+03  0.12335388236E+03  0.23603517994E+03  0.49010926382E+03  0.15294330000E+03 0.  0.
<mgrwt>
<rscale>  0 0.42952821E+03</rscale>
<asrwt>0</asrwt>
<pdfrwt beam="1">  1        1 0.32308056E+00 0.42952821E+03</pdfrwt>
<pdfrwt beam="2">  1       -1 0.23629448E-01 0.42952821E+03</pdfrwt>
<totfact> 0.42923181E+01</totfact>
</mgrwt>
</event>
<event>
 4    1  0.1678003E-008  0.9952691E+03  0.7818608E-02  0.9313749E-01
         -1   -1    0    0    0  501 -0.00000000000E+00  0.00000000000E+00  0.13328969212E+04  0.13328969212E+04  0.50400000000E-02 0.  1.
          1   -1    0    0  501    0  0.00000000000E+00 -0.00000000000E+00 -0.91130676015E+03  0.91130676016E+03  0.50400000000E-02 0. -1.
    8880022    1    1    2    0    0  0.19608411114E+03 -0.96370119338E+03 -0.27119648531E+03  0.10315561814E+04  0.15294330000E+03 0.  0.
    8880022    1    1    2    0    0 -0.19608411114E+03  0.96370119338E+03  0.69278664638E+03  0.12126475000E+04  0.15294330000E+03 0.  0.
<mgrwt>
<rscale>  0 0.99526912E+03</rscale>
<asrwt>0</asrwt>
<pdfrwt beam="1">  1        1 0.14020104E+00 0.99526912E+03</pdfrwt>
<pdfrwt beam="2">  1       -1 0.20506107E+00 0.99526912E+03</pdfrwt>
<totfact> 0.24869130E+00</totfact>
</mgrwt>
</event>
<event>
 4    1  0.1678003E-008  0.3587410E+03  0.7818608E-02  0.1059083E+00
          1   -1    0    0  501    0  0.00000000000E+00  0.00000000000E+00  0.15653022773E+03  0.15653022781E+03  0.50400000000E-02 0. -1.
         -1   -1    0    0    0  501 -0.00000000000E+00 -0.00000000000E+00 -0.13772841178E+04  0.13772841179E+04  0.50400000000E-02 0.  1.
    8880022    1    1    2    0    0  0.41845614166E+02  0.32179559421E+03 -0.10972553678E+04  0.11544108693E+04  0.15294330000E+03 0.  0.
    8880022    1    1    2    0    0 -0.41845614166E+02 -0.32179559421E+03 -0.12349852231E+03  0.37940347640E+03  0.15294330000E+03 0.  0.
<mgrwt>
<rscale>  0 0.35874101E+03</rscale>
<asrwt>0</asrwt>
<pdfrwt beam="1">  1        1 0.24081574E-01 0.35874101E+03</pdfrwt>
<pdfrwt beam="2">  1       -1 0.21188986E+00 0.35874101E+03</pdfrwt>
<totfact> 0.27631436E+01</totfact>
</mgrwt>
</event>
<event>
 4    1  0.1678003E-008  0.7238556E+03  0.7818608E-02  0.9677284E-01
          1   -1    0    0  501    0  0.00000000000E+00  0.00000000000E+00  0.24345086236E+04  0.24345086236E+04  0.50400000000E-02 0. -1.
         -1   -1    0    0    0  501 -0.00000000000E+00 -0.00000000000E+00 -0.35397959265E+03  0.35397959268E+03  0.50400000000E-02 0.  1.
    8880022    1    1    2    0    0 -0.17777069006E+03 -0.68481592314E+03  0.16734637980E+03  0.74294799999E+03  0.15294330000E+03 0.  0.
    8880022    1    1    2    0    0  0.17777069006E+03  0.68481592314E+03  0.19131826511E+04  0.20455402163E+04  0.15294330000E+03 0.  0.
<mgrwt>
<rscale>  0 0.72385559E+03</rscale>
<asrwt>0</asrwt>
<pdfrwt beam="1">  1        1 0.37453979E+00 0.72385559E+03</pdfrwt>
<pdfrwt beam="2">  1       -1 0.54458399E-01 0.72385559E+03</pdfrwt>
<totfact> 0.54396832E+00</totfact>
</mgrwt>
</event>
<event>
 4    1  0.1678003E-008  0.1004889E+04  0.7818608E-02  0.9303199E-01
          1   -1    0    0  501    0  0.00000000000E+00  0.00000000000E+00  0.12867389147E+04  0.12867389147E+04  0.50400000000E-02 0. -1.
         -1   -1    0    0    0  501 -0.00000000000E+00 -0.00000000000E+00 -0.10895795599E+04  0.10895795599E+04  0.50400000000E-02 0.  1.
    8880022    1    1    2    0    0 -0.90373390590E+03  0.41191599798E+03  0.72700751655E+03  0.12402988931E+04  0.15294330000E+03 0.  0.
    8880022    1    1    2    0    0  0.90373390590E+03 -0.41191599798E+03 -0.52984816176E+03  0.11360195815E+04  0.15294330000E+03 0.  0.
<mgrwt>
<rscale>  0 0.10048888E+04</rscale>
<asrwt>0</asrwt>
<pdfrwt beam="1">  1        1 0.19795983E+00 0.10048888E+04</pdfrwt>
<pdfrwt beam="2">  1       -1 0.16762763E+00 0.10048888E+04</pdfrwt>
<totfact> 0.23772869E+00</totfact>
</mgrwt>
</event>
<event>
 4    1  0.1678003E-008  0.5194270E+03  0.7818608E-02  0.1008829E+00
          1   -1    0    0  501    0  0.00000000000E+00  0.00000000000E+00  0.16175821993E+04  0.16175821993E+04  0.50400000000E-02 0. -1.
         -1   -1    0    0    0  501 -0.00000000000E+00 -0.00000000000E+00 -0.24197947060E+03  0.24197947065E+03  0.50400000000E-02 0.  1.
    8880022    1    1    2    0    0  0.25158380171E+03 -0.42792328503E+03  0.12060710413E+04  0.13131685942E+04  0.15294330000E+03 0.  0.
    8880022    1    1    2    0    0 -0.25158380171E+03  0.42792328503E+03  0.16953168738E+03  0.54639307572E+03  0.15294330000E+03 0.  0.
<mgrwt>
<rscale>  0 0.51942699E+03</rscale>
<asrwt>0</asrwt>
<pdfrwt beam="1">  1        1 0.24885880E+00 0.51942699E+03</pdfrwt>
<pdfrwt beam="2">  1       -1 0.37227610E-01 0.51942699E+03</pdfrwt>
<totfact> 0.40136717E+01</totfact>
</mgrwt>
</event>
<event>
 4    1  0.1678003E-008  0.1645584E+03  0.7818608E-02  0.1183644E+00
         -1   -1    0    0    0  501 -0.00000000000E+00  0.00000000000E+00  0.34040311590E+03  0.34040311594E+03  0.50400000000E-02 0.  1.
          1   -1    0    0  501    0  0.00000000000E+00 -0.00000000000E+00 -0.99156665091E+02  0.99156665219E+02  0.50400000000E-02 0. -1.
    8880022    1    1    2    0    0 -0.36628925179E+02 -0.48437035921E+02  0.22896008458E+02  0.16614362710E+03  0.15294330000E+03 0.  0.
    8880022    1    1    2    0    0  0.36628925179E+02  0.48437035921E+02  0.21835044235E+03  0.27341615406E+03  0.15294330000E+03 0.  0.
<mgrwt>
<rscale>  0 0.16455843E+03</rscale>
<asrwt>0</asrwt>
<pdfrwt beam="1">  1        1 0.15254872E-01 0.16455843E+03</pdfrwt>
<pdfrwt beam="2">  1       -1 0.52369709E-01 0.16455843E+03</pdfrwt>
<totfact> 0.13549573E+03</totfact>
</mgrwt>
</event>
<event>
 4    1  0.1678003E-008  0.4709472E+03  0.7818608E-02  0.1021653E+00
         -1   -1    0    0    0  501 -0.00000000000E+00  0.00000000000E+00  0.57207997385E+03  0.57207997387E+03  0.50400000000E-02 0.  1.
          1   -1    0    0  501    0  0.00000000000E+00 -0.00000000000E+00 -0.88713318555E+03  0.88713318556E+03  0.50400000000E-02 0. -1.
    8880022    1    1    2    0    0  0.40187995016E+03 -0.19207310975E+03  0.38991298622E+03  0.61141096136E+03  0.15294330000E+03 0.  0.
    8880022    1    1    2    0    0 -0.40187995016E+03  0.19207310975E+03 -0.70496619792E+03  0.84780219808E+03  0.15294330000E+03 0.  0.
<mgrwt>
<rscale>  0 0.47094716E+03</rscale>
<asrwt>0</asrwt>
<pdfrwt beam="1">  1        1 0.13648203E+00 0.47094716E+03</pdfrwt>
<pdfrwt beam="2">  1       -1 0.88012303E-01 0.47094716E+03</pdfrwt>
<totfact> 0.25288893E+01</totfact>
</mgrwt>
</event>
<event>
 4    1  0.1678003E-008  0.4385612E+03  0.7818608E-02  0.1031189E+00
          1   -1    0    0  501    0  0.00000000000E+00  0.00000000000E+00  0.68447357402E+03  0.68447357404E+03  0.50400000000E-02 0. -1.
         -1   -1    0    0    0  501 -0.00000000000E+00 -0.00000000000E+00 -0.31670018590E+03  0.31670018594E+03  0.50400000000E-02 0.  1.
    8880022    1    1    2    0    0 -0.48337288296E+02  0.40817619702E+03  0.15812709687E+02  0.43884621003E+03  0.15294330000E+03 0.  0.
    8880022    1    1    2    0    0  0.48337288296E+02 -0.40817619702E+03  0.35196067844E+03  0.56232754995E+03  0.15294330000E+03 0.  0.
<mgrwt>
<rscale>  0 0.43856123E+03</rscale>
<asrwt>0</asrwt>
<pdfrwt beam="1">  1        1 0.10530362E+00 0.43856123E+03</pdfrwt>
<pdfrwt beam="2">  1       -1 0.48723107E-01 0.43856123E+03</pdfrwt>
<totfact> 0.12415996E+02</totfact>
</mgrwt>
</event>
<event>
 4    1  0.1678003E-008  0.6021367E+03  0.7818608E-02  0.9900983E-01
          1   -1    0    0  501    0  0.00000000000E+00  0.00000000000E+00  0.94495046569E+03  0.94495046571E+03  0.50400000000E-02 0. -1.
         -1   -1    0    0    0  501 -0.00000000000E+00 -0.00000000000E+00 -0.42513736736E+03  0.42513736739E+03  0.50400000000E-02 0.  1.
    8880022    1    1    2    0    0  0.35755208746E+03  0.45971019175E+03  0.47380080430E+03  0.76619567397E+03  0.15294330000E+03 0.  0.
    8880022    1    1    2    0    0 -0.35755208746E+03 -0.45971019175E+03  0.46012294032E+02  0.60389215913E+03  0.15294330000E+03 0.  0.
<mgrwt>
<rscale>  0 0.60213670E+03</rscale>
<asrwt>0</asrwt>
<pdfrwt beam="1">  1        1 0.14537699E+00 0.60213670E+03</pdfrwt>
<pdfrwt beam="2">  1       -1 0.65405749E-01 0.60213670E+03</pdfrwt>
<totfact> 0.41321365E+01</totfact>
</mgrwt>
</event>
<event>
 4    1  0.1678003E-008  0.4485037E+03  0.7818608E-02  0.1028169E+00
         -1   -1    0    0    0  501 -0.00000000000E+00  0.00000000000E+00  0.76486032073E+03  0.76486032075E+03  0.50400000000E-02 0.  1.
          1   -1    0    0  501    0  0.00000000000E+00 -0.00000000000E+00 -0.50439386131E+03  0.50439386134E+03  0.50400000000E-02 0. -1.
    8880022    1    1    2    0    0 -0.41871075742E+02  0.41953633958E+03 -0.30880261455E+03  0.54453157391E+03  0.15294330000E+03 0.  0.
    8880022    1    1    2    0    0  0.41871075742E+02 -0.41953633958E+03  0.56926907396E+03  0.72472260818E+03  0.15294330000E+03 0.  1.
<mgrwt>
<rscale>  0 0.44850371E+03</rscale>
<asrwt>0</asrwt>
<pdfrwt beam="1">  1        1 0.77599056E-01 0.44850371E+03</pdfrwt>
<pdfrwt beam="2">  1       -1 0.11767082E+00 0.44850371E+03</pdfrwt>
<totfact> 0.30241944E+01</totfact>
</mgrwt>
</event>
<event>
 4    1  0.1678003E-008  0.6116591E+03  0.7818608E-02  0.9881508E-01
         -1   -1    0    0    0  501 -0.00000000000E+00  0.00000000000E+00  0.40558541108E+03  0.40558541111E+03  0.50400000000E-02 0.  1.
          1   -1    0    0  501    0  0.00000000000E+00 -0.00000000000E+00 -0.21161078857E+04  0.21161078857E+04  0.50400000000E-02 0. -1.
    8880022    1    1    2    0    0 -0.51044433692E+03 -0.30030282649E+03  0.91707678756E+02  0.61849588523E+03  0.15294330000E+03 0.  0.
    8880022    1    1    2    0    0  0.51044433692E+03  0.30030282649E+03 -0.18022301534E+04  0.19031974116E+04  0.15294330000E+03 0.  0.
<mgrwt>
<rscale>  0 0.61165911E+03</rscale>
<asrwt>0</asrwt>
<pdfrwt beam="1">  1        1 0.32555505E+00 0.61165911E+03</pdfrwt>
<pdfrwt beam="2">  1       -1 0.62397757E-01 0.61165911E+03</pdfrwt>
<totfact> 0.69768066E+00</totfact>
</mgrwt>
</event>
<event>
 4    1  0.1678003E-008  0.3239233E+03  0.7818608E-02  0.1073858E+00
          1   -1    0    0  501    0  0.00000000000E+00  0.00000000000E+00  0.25956621162E+04  0.25956621162E+04  0.50400000000E-02 0. -1.
         -1   -1    0    0    0  501 -0.00000000000E+00 -0.00000000000E+00 -0.71499453730E+02  0.71499453907E+02  0.50400000000E-02 0.  1.
    8880022    1    1    2    0    0  0.16588681778E+03  0.23241394736E+03  0.21412630051E+04  0.21656254499E+04  0.15294330000E+03 0.  0.
    8880022    1    1    2    0    0 -0.16588681778E+03 -0.23241394736E+03  0.38289965735E+03  0.50153612019E+03  0.15294330000E+03 0.  0.
<mgrwt>
<rscale>  0 0.32392334E+03</rscale>
<asrwt>0</asrwt>
<pdfrwt beam="1">  1        1 0.39933257E+00 0.32392334E+03</pdfrwt>
<pdfrwt beam="2">  1       -1 0.10999918E-01 0.32392334E+03</pdfrwt>
<totfact> 0.70951789E+01</totfact>
</mgrwt>
</event>
<event>
 4    1  0.1678003E-008  0.2366974E+03  0.7818608E-02  0.1122013E+00
          1   -1    0    0  501    0  0.00000000000E+00  0.00000000000E+00  0.14100430635E+04  0.14100430635E+04  0.50400000000E-02 0. -1.
         -1   -1    0    0    0  501 -0.00000000000E+00 -0.00000000000E+00 -0.16981258711E+03  0.16981258718E+03  0.50400000000E-02 0.  1.
    8880022    1    1    2    0    0 -0.12540443771E+03  0.13002966571E+03 -0.71248465471E+02  0.24718815467E+03  0.15294330000E+03 0.  1.
    8880022    1    1    2    0    0  0.12540443771E+03 -0.13002966571E+03  0.13114789418E+04  0.13326674960E+04  0.15294330000E+03 0.  0.
<mgrwt>
<rscale>  0 0.23669736E+03</rscale>
<asrwt>0</asrwt>
<pdfrwt beam="1">  1        1 0.21692969E+00 0.23669736E+03</pdfrwt>
<pdfrwt beam="2">  1       -1 0.26125015E-01 0.23669736E+03</pdfrwt>
<totfact> 0.10834399E+02</totfact>
</mgrwt>
</event>
<event>
 4    1  0.1678003E-008  0.2526298E+03  0.7818608E-02  0.1111654E+00
         -1   -1    0    0    0  501 -0.00000000000E+00  0.00000000000E+00  0.27496149727E+03  0.27496149732E+03  0.50400000000E-02 0.  1.
          1   -1    0    0  501    0  0.00000000000E+00 -0.00000000000E+00 -0.17919910067E+04  0.17919910068E+04  0.50400000000E-02 0. -1.
    8880022    1    1    2    0    0  0.10151921563E+03  0.17356269756E+03 -0.17227390500E+04  0.17411638775E+04  0.15294330000E+03 0.  0.
    8880022    1    1    2    0    0 -0.10151921563E+03 -0.17356269756E+03  0.20570954049E+03  0.32578862655E+03  0.15294330000E+03 0.  1.
<mgrwt>
<rscale>  0 0.25262980E+03</rscale>
<asrwt>0</asrwt>
<pdfrwt beam="1">  1        1 0.27569092E+00 0.25262980E+03</pdfrwt>
<pdfrwt beam="2">  1       -1 0.42301770E-01 0.25262980E+03</pdfrwt>
<totfact> 0.26272716E+01</totfact>
</mgrwt>
</event>
<event>
 4    1  0.1678003E-008  0.6062367E+03  0.7818608E-02  0.9892551E-01
         -1   -1    0    0    0  501 -0.00000000000E+00  0.00000000000E+00  0.43133854945E+03  0.43133854948E+03  0.50400000000E-02 0.  1.
          1   -1    0    0  501    0  0.00000000000E+00 -0.00000000000E+00 -0.11925620928E+04  0.11925620928E+04  0.50400000000E-02 0. -1.
    8880022    1    1    2    0    0  0.16329275332E+02  0.58639971723E+03  0.53252486159E+02  0.60857107547E+03  0.15294330000E+03 0.  0.
    8880022    1    1    2    0    0 -0.16329275332E+02 -0.58639971723E+03 -0.81447602953E+03  0.10153295668E+04  0.15294330000E+03 0.  0.
<mgrwt>
<rscale>  0 0.60623669E+03</rscale>
<asrwt>0</asrwt>
<pdfrwt beam="1">  1        1 0.18347109E+00 0.60623669E+03</pdfrwt>
<pdfrwt beam="2">  1       -1 0.66359777E-01 0.60623669E+03</pdfrwt>
<totfact> 0.26133587E+01</totfact>
</mgrwt>
</event>
<event>
 4    1  0.1678003E-008  0.3747990E+03  0.7818608E-02  0.1052873E+00
         -1   -1    0    0    0  501 -0.00000000000E+00  0.00000000000E+00  0.27931136046E+03  0.27931136050E+03  0.50400000000E-02 0.  1.
          1   -1    0    0  501    0  0.00000000000E+00 -0.00000000000E+00 -0.74014003273E+03  0.74014003275E+03  0.50400000000E-02 0. -1.
    8880022    1    1    2    0    0 -0.60281871711E+02  0.33682156382E+03 -0.51898039888E+03  0.64016792902E+03  0.15294330000E+03 0.  0.
    8880022    1    1    2    0    0  0.60281871711E+02 -0.33682156382E+03  0.58151726604E+02  0.37928346423E+03  0.15294330000E+03 0.  1.
<mgrwt>
<rscale>  0 0.37479904E+03</rscale>
<asrwt>0</asrwt>
<pdfrwt beam="1">  1        1 0.11386770E+00 0.37479904E+03</pdfrwt>
<pdfrwt beam="2">  1       -1 0.42970979E-01 0.37479904E+03</pdfrwt>
<totfact> 0.14028408E+02</totfact>
</mgrwt>
</event>
<event>
 4    1  0.1678003E-008  0.4482641E+03  0.7818608E-02  0.1028241E+00
         -1   -1    0    0    0  501 -0.00000000000E+00  0.00000000000E+00  0.68410978290E+03  0.68410978291E+03  0.50400000000E-02 0.  1.
          1   -1    0    0  501    0  0.00000000000E+00 -0.00000000000E+00 -0.80864383907E+03  0.80864383909E+03  0.50400000000E-02 0. -1.
    8880022    1    1    2    0    0  0.75536652474E+02 -0.41453978808E+03  0.53332456872E+03  0.69668914903E+03  0.15294330000E+03 0.  0.
    8880022    1    1    2    0    0 -0.75536652474E+02  0.41453978808E+03 -0.65785862489E+03  0.79606447297E+03  0.15294330000E+03 0.  0.
<mgrwt>
<rscale>  0 0.44826407E+03</rscale>
<asrwt>0</asrwt>
<pdfrwt beam="1">  1        1 0.12440675E+00 0.44826407E+03</pdfrwt>
<pdfrwt beam="2">  1       -1 0.10524766E+00 0.44826407E+03</pdfrwt>
<totfact> 0.19794657E+01</totfact>
</mgrwt>
</event>
<event>
 4    1  0.1678003E-008  0.2445751E+03  0.7818608E-02  0.1116782E+00
          1   -1    0    0  501    0  0.00000000000E+00  0.00000000000E+00  0.10309365313E+04  0.10309365313E+04  0.50400000000E-02 0. -1.
         -1   -1    0    0    0  501 -0.00000000000E+00 -0.00000000000E+00 -0.22954070738E+03  0.22954070743E+03  0.50400000000E-02 0.  1.
    8880022    1    1    2    0    0  0.16295066514E+03 -0.99359945195E+02 -0.14409435791E+03  0.28386643862E+03  0.15294330000E+03 0.  0.
    8880022    1    1    2    0    0 -0.16295066514E+03  0.99359945195E+02  0.94549018182E+03  0.97661080012E+03  0.15294330000E+03 0. -1.
<mgrwt>
<rscale>  0 0.24457508E+03</rscale>
<asrwt>0</asrwt>
<pdfrwt beam="1">  1        1 0.15860562E+00 0.24457508E+03</pdfrwt>
<pdfrwt beam="2">  1       -1 0.35313955E-01 0.24457508E+03</pdfrwt>
<totfact> 0.11886378E+02</totfact>
</mgrwt>
</event>
<event>
 4    1  0.1678003E-008  0.3382127E+03  0.7818608E-02  0.1067560E+00
          1   -1    0    0  501    0  0.00000000000E+00  0.00000000000E+00  0.71910100212E+03  0.71910100213E+03  0.50400000000E-02 0. -1.
         -1   -1    0    0    0  501 -0.00000000000E+00 -0.00000000000E+00 -0.15062087209E+04  0.15062087209E+04  0.50400000000E-02 0.  1.
    8880022    1    1    2    0    0 -0.28999366887E+03  0.83065164664E+02 -0.14458160348E+04  0.14848474026E+04  0.15294330000E+03 0.  1.
    8880022    1    1    2    0    0  0.28999366887E+03 -0.83065164664E+02  0.65870831594E+03  0.74046232049E+03  0.15294330000E+03 0.  0.
<mgrwt>
<rscale>  0 0.33821266E+03</rscale>
<asrwt>0</asrwt>
<pdfrwt beam="1">  1        1 0.11063092E+00 0.33821266E+03</pdfrwt>
<pdfrwt beam="2">  1       -1 0.23172442E+00 0.33821266E+03</pdfrwt>
<totfact> 0.27771479E+00</totfact>
</mgrwt>
</event>
<event>
 4    1  0.1678003E-008  0.9385152E+03  0.7818608E-02  0.9378676E-01
          1   -1    0    0  501    0  0.00000000000E+00  0.00000000000E+00  0.12541293976E+04  0.12541293976E+04  0.50400000000E-02 0. -1.
         -1   -1    0    0    0  501 -0.00000000000E+00 -0.00000000000E+00 -0.76198646212E+03  0.76198646214E+03  0.50400000000E-02 0.  1.
    8880022    1    1    2    0    0 -0.23765778600E+03 -0.89495131597E+03  0.52813459369E+03  0.10769108056E+04  0.15294330000E+03 0.  0.
    8880022    1    1    2    0    0  0.23765778600E+03  0.89495131597E+03 -0.35991658214E+02  0.93920505412E+03  0.15294330000E+03 0.  0.
<mgrwt>
<rscale>  0 0.93851518E+03</rscale>
<asrwt>0</asrwt>
<pdfrwt beam="1">  1        1 0.19294298E+00 0.93851518E+03</pdfrwt>
<pdfrwt beam="2">  1       -1 0.11722869E+00 0.93851518E+03</pdfrwt>
<totfact> 0.64660045E+00</totfact>
</mgrwt>
</event>
<event>
 4    1  0.1678003E-008  0.6496838E+03  0.7818608E-02  0.9807373E-01
          1   -1    0    0  501    0  0.00000000000E+00  0.00000000000E+00  0.12627580984E+04  0.12627580984E+04  0.50400000000E-02 0. -1.
         -1   -1    0    0    0  501 -0.00000000000E+00 -0.00000000000E+00 -0.69896720239E+03  0.69896720240E+03  0.50400000000E-02 0.  1.
    8880022    1    1    2    0    0  0.56487746087E+03 -0.28215396115E+03 -0.42662467306E+03  0.77723720206E+03  0.15294330000E+03 0.  0.
    8880022    1    1    2    0    0 -0.56487746087E+03  0.28215396115E+03  0.99041556906E+03  0.11844880987E+04  0.15294330000E+03 0. -1.
<mgrwt>
<rscale>  0 0.64968381E+03</rscale>
<asrwt>0</asrwt>
<pdfrwt beam="1">  1        1 0.19427047E+00 0.64968381E+03</pdfrwt>
<pdfrwt beam="2">  1       -1 0.10753342E+00 0.64968381E+03</pdfrwt>
<totfact> 0.81594501E+00</totfact>
</mgrwt>
</event>
<event>
 4    1  0.1678003E-008  0.8592965E+03  0.7818608E-02  0.9477944E-01
          1   -1    0    0  501    0  0.00000000000E+00  0.00000000000E+00  0.21721863764E+04  0.21721863764E+04  0.50400000000E-02 0. -1.
         -1   -1    0    0    0  501 -0.00000000000E+00 -0.00000000000E+00 -0.45911674360E+03  0.45911674363E+03  0.50400000000E-02 0.  1.
    8880022    1    1    2    0    0 -0.81174747263E+03 -0.23678028882E+03  0.15268730109E+04  0.17520649842E+04  0.15294330000E+03 0.  0.
    8880022    1    1    2    0    0  0.81174747263E+03  0.23678028882E+03  0.18619662193E+03  0.87923813584E+03  0.15294330000E+03 0.  0.
<mgrwt>
<rscale>  0 0.85929652E+03</rscale>
<asrwt>0</asrwt>
<pdfrwt beam="1">  1        1 0.33418251E+00 0.85929652E+03</pdfrwt>
<pdfrwt beam="2">  1       -1 0.70633347E-01 0.85929652E+03</pdfrwt>
<totfact> 0.47665742E+00</totfact>
</mgrwt>
</event>
<event>
 4    1  0.1678003E-008  0.3743880E+03  0.7818608E-02  0.1053028E+00
         -1   -1    0    0    0  501 -0.00000000000E+00  0.00000000000E+00  0.69900465586E+03  0.69900465588E+03  0.50400000000E-02 0.  1.
          1   -1    0    0  501    0  0.00000000000E+00 -0.00000000000E+00 -0.40393019232E+03  0.40393019235E+03  0.50400000000E-02 0. -1.
    8880022    1    1    2    0    0 -0.29105780215E+03  0.17905319141E+03 -0.24379905000E+03  0.44677099206E+03  0.15294330000E+03 0.  0.
    8880022    1    1    2    0    0  0.29105780215E+03 -0.17905319141E+03  0.53887351354E+03  0.65616385618E+03  0.15294330000E+03 0.  1.
<mgrwt>
<rscale>  0 0.37438796E+03</rscale>
<asrwt>0</asrwt>
<pdfrwt beam="1">  1        1 0.62143106E-01 0.37438796E+03</pdfrwt>
<pdfrwt beam="2">  1       -1 0.10753918E+00 0.37438796E+03</pdfrwt>
<totfact> 0.50788057E+01</totfact>
</mgrwt>
</event>
<event>
 4    1  0.1678003E-008  0.3745648E+03  0.7818608E-02  0.1052961E+00
         -1   -1    0    0    0  501 -0.00000000000E+00  0.00000000000E+00  0.10450152560E+03  0.10450152572E+03  0.50400000000E-02 0.  1.
          1   -1    0    0  501    0  0.00000000000E+00 -0.00000000000E+00 -0.28855327125E+04  0.28855327125E+04  0.50400000000E-02 0. -1.
    8880022    1    1    2    0    0  0.24693946830E+03 -0.23649101397E+03 -0.24837502341E+04  0.25118347834E+04  0.15294330000E+03 0.  0.
    8880022    1    1    2    0    0 -0.24693946830E+03  0.23649101397E+03 -0.29728095282E+03  0.47819945485E+03  0.15294330000E+03 0.  1.
<mgrwt>
<rscale>  0 0.37456475E+03</rscale>
<asrwt>0</asrwt>
<pdfrwt beam="1">  1        1 0.44392805E+00 0.37456475E+03</pdfrwt>
<pdfrwt beam="2">  1       -1 0.16077160E-01 0.37456475E+03</pdfrwt>
<totfact> 0.24228202E+01</totfact>
</mgrwt>
</event>
<event>
 4    1  0.1678003E-008  0.2887721E+03  0.7818608E-02  0.1090992E+00
         -1   -1    0    0    0  501 -0.00000000000E+00  0.00000000000E+00  0.62526552379E+02  0.62526552582E+02  0.50400000000E-02 0.  1.
          1   -1    0    0  501    0  0.00000000000E+00 -0.00000000000E+00 -0.22903872911E+04  0.22903872912E+04  0.50400000000E-02 0. -1.
    8880022    1    1    2    0    0 -0.24194094959E+03  0.38239406723E+02 -0.35357775385E+03  0.45651566933E+03  0.15294330000E+03 0.  0.
    8880022    1    1    2    0    0  0.24194094959E+03 -0.38239406723E+02 -0.18742829849E+04  0.18963981744E+04  0.15294330000E+03 0.  0.
<mgrwt>
<rscale>  0 0.28877210E+03</rscale>
<asrwt>0</asrwt>
<pdfrwt beam="1">  1        1 0.35236721E+00 0.28877210E+03</pdfrwt>
<pdfrwt beam="2">  1       -1 0.96194714E-02 0.28877210E+03</pdfrwt>
<totfact> 0.14085376E+02</totfact>
</mgrwt>
</event>
<event>
 4    1  0.1953006E-008  0.9366010E+03  0.7818608E-02  0.9380951E-01
          1   -1    0    0  501    0  0.00000000000E+00  0.00000000000E+00  0.30515933986E+04  0.30515933986E+04  0.50400000000E-02 0. -1.
         -1   -1    0    0    0  501 -0.00000000000E+00 -0.00000000000E+00 -0.14826170395E+04  0.14826170395E+04  0.50400000000E-02 0.  1.
    8880022    1    1    2    0    0 -0.92369478290E+03  0.24854176547E+02  0.28199785449E+04  0.29714475309E+04  0.15294330000E+03 0.  0.
    8880022    1    1    2    0    0  0.92369478290E+03 -0.24854176547E+02 -0.12510021858E+04  0.15627629071E+04  0.15294330000E+03 0.  0.
<mgrwt>
<rscale>  0 0.93660100E+03</rscale>
<asrwt>0</asrwt>
<pdfrwt beam="1">  1        1 0.46947591E+00 0.93660100E+03</pdfrwt>
<pdfrwt beam="2">  1       -1 0.22809493E+00 0.93660100E+03</pdfrwt>
<totfact> 0.55785408E-02</totfact>
</mgrwt>
</event>
<event>
 4    1  0.1678003E-008  0.7255579E+03  0.7818608E-02  0.9674496E-01
         -1   -1    0    0    0  501 -0.00000000000E+00  0.00000000000E+00  0.61502366852E+03  0.61502366854E+03  0.50400000000E-02 0.  1.
          1   -1    0    0  501    0  0.00000000000E+00 -0.00000000000E+00 -0.99100724409E+03  0.99100724411E+03  0.50400000000E-02 0. -1.
    8880022    1    1    2    0    0 -0.62148985200E+03  0.34174994918E+03  0.10844483896E+03  0.73361747526E+03  0.15294330000E+03 0.  0.
    8880022    1    1    2    0    0  0.62148985200E+03 -0.34174994918E+03 -0.48442841453E+03  0.87241343738E+03  0.15294330000E+03 0.  0.
<mgrwt>
<rscale>  0 0.72555793E+03</rscale>
<asrwt>0</asrwt>
<pdfrwt beam="1">  1        1 0.15246265E+00 0.72555793E+03</pdfrwt>
<pdfrwt beam="2">  1       -1 0.94619026E-01 0.72555793E+03</pdfrwt>
<totfact> 0.17164682E+01</totfact>
</mgrwt>
</event>
<event>
 4    1  0.1678003E-008  0.1014889E+04  0.7818608E-02  0.9292363E-01
          1   -1    0    0  501    0  0.00000000000E+00  0.00000000000E+00  0.19985294207E+04  0.19985294208E+04  0.50400000000E-02 0. -1.
         -1   -1    0    0    0  501 -0.00000000000E+00 -0.00000000000E+00 -0.76874586288E+03  0.76874586290E+03  0.50400000000E-02 0.  1.
    8880022    1    1    2    0    0 -0.24673956774E+03  0.97248572609E+03  0.14092304067E+04  0.17366435714E+04  0.15294330000E+03 0.  0.
    8880022    1    1    2    0    0  0.24673956774E+03 -0.97248572609E+03 -0.17944684888E+03  0.10306317123E+04  0.15294330000E+03 0.  0.
<mgrwt>
<rscale>  0 0.10148894E+04</rscale>
<asrwt>0</asrwt>
<pdfrwt beam="1">  1        1 0.30746606E+00 0.10148894E+04</pdfrwt>
<pdfrwt beam="2">  1       -1 0.11826859E+00 0.10148894E+04</pdfrwt>
<totfact> 0.19328473E+00</totfact>
</mgrwt>
</event>
<event>
 4    1  0.1678003E-008  0.1088776E+04  0.7818608E-02  0.9216201E-01
         -1   -1    0    0    0  501 -0.00000000000E+00  0.00000000000E+00  0.12238652687E+04  0.12238652687E+04  0.50400000000E-02 0.  1.
          1   -1    0    0  501    0  0.00000000000E+00 -0.00000000000E+00 -0.10858482893E+04  0.10858482893E+04  0.50400000000E-02 0. -1.
    8880022    1    1    2    0    0  0.85571807411E+02 -0.10745782422E+04 -0.31048281015E+03  0.11321802689E+04  0.15294330000E+03 0.  0.
    8880022    1    1    2    0    0 -0.85571807411E+02  0.10745782422E+04  0.44849978959E+03  0.11775332891E+04  0.15294330000E+03 0.  0.
<mgrwt>
<rscale>  0 0.10887757E+04</rscale>
<asrwt>0</asrwt>
<pdfrwt beam="1">  1        1 0.16705358E+00 0.10887757E+04</pdfrwt>
<pdfrwt beam="2">  1       -1 0.18828696E+00 0.10887757E+04</pdfrwt>
<totfact> 0.23443067E+00</totfact>
</mgrwt>
</event>
<event>
 4    1  0.1678003E-008  0.3917776E+03  0.7818608E-02  0.1046665E+00
          1   -1    0    0  501    0  0.00000000000E+00  0.00000000000E+00  0.86844564593E+03  0.86844564595E+03  0.50400000000E-02 0. -1.
         -1   -1    0    0    0  501 -0.00000000000E+00 -0.00000000000E+00 -0.68737574512E+03  0.68737574514E+03  0.50400000000E-02 0.  1.
    8880022    1    1    2    0    0 -0.22931034197E+03  0.27841480696E+03  0.76101822689E+03  0.85594300765E+03  0.15294330000E+03 0.  0.
    8880022    1    1    2    0    0  0.22931034197E+03 -0.27841480696E+03 -0.57994832608E+03  0.69987838344E+03  0.15294330000E+03 0.  0.
<mgrwt>
<rscale>  0 0.39177760E+03</rscale>
<asrwt>0</asrwt>
<pdfrwt beam="1">  1        1 0.13360702E+00 0.39177760E+03</pdfrwt>
<pdfrwt beam="2">  1       -1 0.10575011E+00 0.39177760E+03</pdfrwt>
<totfact> 0.17682702E+01</totfact>
</mgrwt>
</event>
<event>
 4    1  0.1678003E-008  0.7206823E+03  0.7818608E-02  0.9682502E-01
         -1   -1    0    0    0  501 -0.00000000000E+00  0.00000000000E+00  0.12507559471E+04  0.12507559471E+04  0.50400000000E-02 0.  1.
          1   -1    0    0  501    0  0.00000000000E+00 -0.00000000000E+00 -0.10333672256E+04  0.10333672256E+04  0.50400000000E-02 0. -1.
    8880022    1    1    2    0    0 -0.40129106883E+03 -0.57875450619E+03 -0.77458029071E+03  0.10579969660E+04  0.15294330000E+03 0.  0.
    8880022    1    1    2    0    0  0.40129106883E+03  0.57875450619E+03  0.99196901223E+03  0.12261262066E+04  0.15294330000E+03 0.  1.
<mgrwt>
<rscale>  0 0.72068228E+03</rscale>
<asrwt>0</asrwt>
<pdfrwt beam="1">  1        1 0.15897957E+00 0.72068228E+03</pdfrwt>
<pdfrwt beam="2">  1       -1 0.19242399E+00 0.72068228E+03</pdfrwt>
<totfact> 0.25368748E+00</totfact>
</mgrwt>
</event>
<event>
 4    1  0.1678003E-008  0.5013530E+03  0.7818608E-02  0.1013426E+00
          1   -1    0    0  501    0  0.00000000000E+00  0.00000000000E+00  0.83578559171E+03  0.83578559173E+03  0.50400000000E-02 0. -1.
         -1   -1    0    0    0  501 -0.00000000000E+00 -0.00000000000E+00 -0.59341559208E+03  0.59341559210E+03  0.50400000000E-02 0.  1.
    8880022    1    1    2    0    0 -0.26690439184E+03 -0.39588540876E+03  0.62303799626E+03  0.79970695198E+03  0.15294330000E+03 0.  0.
    8880022    1    1    2    0    0  0.26690439184E+03  0.39588540876E+03 -0.38066799663E+03  0.62949423184E+03  0.15294330000E+03 0.  0.
<mgrwt>
<rscale>  0 0.50135303E+03</rscale>
<asrwt>0</asrwt>
<pdfrwt beam="1">  1        1 0.12858240E+00 0.50135303E+03</pdfrwt>
<pdfrwt beam="2">  1       -1 0.91294707E-01 0.50135303E+03</pdfrwt>
<totfact> 0.25593928E+01</totfact>
</mgrwt>
</event>
<event>
 4    1  0.1678003E-008  0.6689089E+03  0.7818608E-02  0.9771931E-01
          1   -1    0    0  501    0  0.00000000000E+00  0.00000000000E+00  0.26938962547E+04  0.26938962548E+04  0.50400000000E-02 0. -1.
         -1   -1    0    0    0  501 -0.00000000000E+00 -0.00000000000E+00 -0.18072700698E+03  0.18072700705E+03  0.50400000000E-02 0.  1.
    8880022    1    1    2    0    0 -0.19399010348E+03  0.62162315558E+03  0.16655728915E+04  0.17948738724E+04  0.15294330000E+03 0.  0.
    8880022    1    1    2    0    0  0.19399010348E+03 -0.62162315558E+03  0.84759635626E+03  0.10797493894E+04  0.15294330000E+03 0.  0.
<mgrwt>
<rscale>  0 0.66890893E+03</rscale>
<asrwt>0</asrwt>
<pdfrwt beam="1">  1        1 0.41444558E+00 0.66890893E+03</pdfrwt>
<pdfrwt beam="2">  1       -1 0.27804155E-01 0.66890893E+03</pdfrwt>
<totfact> 0.12355041E+01</totfact>
</mgrwt>
</event>
<event>
 4    1  0.1678003E-008  0.2736214E+03  0.7818608E-02  0.1099225E+00
          1   -1    0    0  501    0  0.00000000000E+00  0.00000000000E+00  0.44151777632E+03  0.44151777635E+03  0.50400000000E-02 0. -1.
         -1   -1    0    0    0  501 -0.00000000000E+00 -0.00000000000E+00 -0.42062977253E+03  0.42062977257E+03  0.50400000000E-02 0.  1.
    8880022    1    1    2    0    0 -0.11908034766E+03 -0.19312406212E+03  0.34347844524E+03  0.43914249160E+03  0.15294330000E+03 0.  0.
    8880022    1    1    2    0    0  0.11908034766E+03  0.19312406212E+03 -0.32259044146E+03  0.42300505731E+03  0.15294330000E+03 0.  0.
<mgrwt>
<rscale>  0 0.27362143E+03</rscale>
<asrwt>0</asrwt>
<pdfrwt beam="1">  1        1 0.67925812E-01 0.27362143E+03</pdfrwt>
<pdfrwt beam="2">  1       -1 0.64712273E-01 0.27362143E+03</pdfrwt>
<totfact> 0.13494806E+02</totfact>
</mgrwt>
</event>
<event>
 4    1  0.1678003E-008  0.3550851E+03  0.7818608E-02  0.1060547E+00
         -1   -1    0    0    0  501 -0.00000000000E+00  0.00000000000E+00  0.35765341547E+03  0.35765341550E+03  0.50400000000E-02 0.  1.
          1   -1    0    0  501    0  0.00000000000E+00 -0.00000000000E+00 -0.82977432163E+03  0.82977432165E+03  0.50400000000E-02 0. -1.
    8880022    1    1    2    0    0 -0.27606945770E+03 -0.16272498391E+03  0.21420146437E+03  0.41468986751E+03  0.15294330000E+03 0.  0.
    8880022    1    1    2    0    0  0.27606945770E+03  0.16272498391E+03 -0.68632237053E+03  0.77273786964E+03  0.15294330000E+03 0.  0.
<mgrwt>
<rscale>  0 0.35508509E+03</rscale>
<asrwt>0</asrwt>
<pdfrwt beam="1">  1        1 0.12765759E+00 0.35508509E+03</pdfrwt>
<pdfrwt beam="2">  1       -1 0.55023603E-01 0.35508509E+03</pdfrwt>
<totfact> 0.74471843E+01</totfact>
</mgrwt>
</event>
<event>
 4    1  0.1678003E-008  0.7417397E+03  0.7818608E-02  0.9648399E-01
          1   -1    0    0  501    0  0.00000000000E+00  0.00000000000E+00  0.11175493627E+04  0.11175493627E+04  0.50400000000E-02 0. -1.
         -1   -1    0    0    0  501 -0.00000000000E+00 -0.00000000000E+00 -0.64695324935E+03  0.64695324937E+03  0.50400000000E-02 0.  1.
    8880022    1    1    2    0    0  0.70874388302E+02  0.72233157969E+03 -0.19604726593E+03  0.76721070993E+03  0.15294330000E+03 0.  0.
    8880022    1    1    2    0    0 -0.70874388302E+02 -0.72233157969E+03  0.66664337924E+03  0.99729190212E+03  0.15294330000E+03 0.  0.
<mgrwt>
<rscale>  0 0.74173967E+03</rscale>
<asrwt>0</asrwt>
<pdfrwt beam="1">  1        1 0.17193067E+00 0.74173967E+03</pdfrwt>
<pdfrwt beam="2">  1       -1 0.99531270E-01 0.74173967E+03</pdfrwt>
<totfact> 0.12250948E+01</totfact>
</mgrwt>
</event>
<event>
 4    1  0.1678003E-008  0.1841453E+03  0.7818608E-02  0.1163850E+00
         -1   -1    0    0    0  501 -0.00000000000E+00  0.00000000000E+00  0.28315679236E+02  0.28315679685E+02  0.50400000000E-02 0.  1.
          1   -1    0    0  501    0  0.00000000000E+00 -0.00000000000E+00 -0.13810503536E+04  0.13810503536E+04  0.50400000000E-02 0. -1.
    8880022    1    1    2    0    0 -0.32549244329E+02 -0.97254322302E+02 -0.41950248826E+03  0.45813954990E+03  0.15294330000E+03 0. -1.
    8880022    1    1    2    0    0  0.32549244329E+02  0.97254322302E+02 -0.93323218614E+03  0.95122648343E+03  0.15294330000E+03 0.  0.
<mgrwt>
<rscale>  0 0.18414535E+03</rscale>
<asrwt>0</asrwt>
<pdfrwt beam="1">  1        1 0.21246923E+00 0.18414535E+03</pdfrwt>
<pdfrwt beam="2">  1       -1 0.43562595E-02 0.18414535E+03</pdfrwt>
<totfact> 0.18608175E+03</totfact>
</mgrwt>
</event>
<event>
 4    1  0.1678003E-008  0.2347235E+03  0.7818608E-02  0.1123359E+00
          1   -1    0    0  501    0  0.00000000000E+00  0.00000000000E+00  0.23582472603E+03  0.23582472609E+03  0.50400000000E-02 0. -1.
         -1   -1    0    0    0  501 -0.00000000000E+00 -0.00000000000E+00 -0.53789422869E+03  0.53789422872E+03  0.50400000000E-02 0.  1.
    8880022    1    1    2    0    0 -0.61360536529E+02  0.16714764270E+03 -0.44199398685E+03  0.50045358159E+03  0.15294330000E+03 0.  0.
    8880022    1    1    2    0    0  0.61360536529E+02 -0.16714764270E+03  0.13992448419E+03  0.27326537321E+03  0.15294330000E+03 0. -1.
<mgrwt>
<rscale>  0 0.23472346E+03</rscale>
<asrwt>0</asrwt>
<pdfrwt beam="1">  1        1 0.36280727E-01 0.23472346E+03</pdfrwt>
<pdfrwt beam="2">  1       -1 0.82752958E-01 0.23472346E+03</pdfrwt>
<totfact> 0.18285049E+02</totfact>
</mgrwt>
</event>
<event>
 4    1  0.1678003E-008  0.2861187E+03  0.7818608E-02  0.1092393E+00
          1   -1    0    0  501    0  0.00000000000E+00  0.00000000000E+00  0.24248726813E+03  0.24248726819E+03  0.50400000000E-02 0. -1.
         -1   -1    0    0    0  501 -0.00000000000E+00 -0.00000000000E+00 -0.49075987583E+03  0.49075987586E+03  0.50400000000E-02 0.  1.
    8880022    1    1    2    0    0 -0.87081819893E+02  0.22558593766E+03  0.80676515572E+02  0.29727531314E+03  0.15294330000E+03 0.  0.
    8880022    1    1    2    0    0  0.87081819893E+02 -0.22558593766E+03 -0.32894912327E+03  0.43597183090E+03  0.15294330000E+03 0.  0.
<mgrwt>
<rscale>  0 0.28611870E+03</rscale>
<asrwt>0</asrwt>
<pdfrwt beam="1">  1        1 0.37305734E-01 0.28611870E+03</pdfrwt>
<pdfrwt beam="2">  1       -1 0.75501519E-01 0.28611870E+03</pdfrwt>
<totfact> 0.21231557E+02</totfact>
</mgrwt>
</event>
<event>
 4    1  0.1678003E-008  0.4352331E+03  0.7818608E-02  0.1032220E+00
          1   -1    0    0  501    0  0.00000000000E+00  0.00000000000E+00  0.78203650439E+03  0.78203650441E+03  0.50400000000E-02 0. -1.
         -1   -1    0    0    0  501 -0.00000000000E+00 -0.00000000000E+00 -0.33872709944E+03  0.33872709947E+03  0.50400000000E-02 0.  1.
    8880022    1    1    2    0    0  0.15312751309E+02  0.40718752363E+03 -0.77454827962E+02  0.44207133264E+03  0.15294330000E+03 0.  0.
    8880022    1    1    2    0    0 -0.15312751309E+02 -0.40718752363E+03  0.52076423292E+03  0.67869227125E+03  0.15294330000E+03 0.  0.
<mgrwt>
<rscale>  0 0.43523306E+03</rscale>
<asrwt>0</asrwt>
<pdfrwt beam="1">  1        1 0.12031331E+00 0.43523306E+03</pdfrwt>
<pdfrwt beam="2">  1       -1 0.52111862E-01 0.43523306E+03</pdfrwt>
<totfact> 0.89488552E+01</totfact>
</mgrwt>
</event>
<event>
 4    1  0.1678003E-008  0.1596414E+03  0.7818608E-02  0.1189102E+00
          1   -1    0    0  501    0  0.00000000000E+00  0.00000000000E+00  0.13121798833E+04  0.13121798833E+04  0.50400000000E-02 0. -1.
         -1   -1    0    0    0  501 -0.00000000000E+00 -0.00000000000E+00 -0.11046771473E+03  0.11046771485E+03  0.50400000000E-02 0.  1.
    8880022    1    1    2    0    0  0.45744180072E+02 -0.10996032769E+01  0.12466277461E+04  0.12568079127E+04  0.15294330000E+03 0. -1.
    8880022    1    1    2    0    0 -0.45744180072E+02  0.10996032769E+01 -0.44915577541E+02  0.16583968542E+03  0.15294330000E+03 0.  0.
<mgrwt>
<rscale>  0 0.15964145E+03</rscale>
<asrwt>0</asrwt>
<pdfrwt beam="1">  1        1 0.20187382E+00 0.15964145E+03</pdfrwt>
<pdfrwt beam="2">  1       -1 0.16995034E-01 0.15964145E+03</pdfrwt>
<totfact> 0.25943357E+02</totfact>
</mgrwt>
</event>
<event>
 4    1  0.1678003E-008  0.3800029E+03  0.7818608E-02  0.1050933E+00
          1   -1    0    0  501    0  0.00000000000E+00  0.00000000000E+00  0.10966135284E+04  0.10966135284E+04  0.50400000000E-02 0. -1.
         -1   -1    0    0    0  501 -0.00000000000E+00 -0.00000000000E+00 -0.90151943358E+03  0.90151943360E+03  0.50400000000E-02 0.  1.
    8880022    1    1    2    0    0  0.22608149398E+03 -0.26438179647E+03  0.10207706046E+04  0.10892083622E+04  0.15294330000E+03 0. -1.
    8880022    1    1    2    0    0 -0.22608149398E+03  0.26438179647E+03 -0.82567650977E+03  0.90892459974E+03  0.15294330000E+03 0.  0.
<mgrwt>
<rscale>  0 0.38000293E+03</rscale>
<asrwt>0</asrwt>
<pdfrwt beam="1">  1        1 0.16870977E+00 0.38000293E+03</pdfrwt>
<pdfrwt beam="2">  1       -1 0.13869530E+00 0.38000293E+03</pdfrwt>
<totfact> 0.61537849E+00</totfact>
</mgrwt>
</event>
<event>
 4    1  0.1678003E-008  0.9723391E+03  0.7818608E-02  0.9339414E-01
         -1   -1    0    0    0  501 -0.00000000000E+00  0.00000000000E+00  0.16046153951E+04  0.16046153951E+04  0.50400000000E-02 0.  1.
          1   -1    0    0  501    0  0.00000000000E+00 -0.00000000000E+00 -0.10636929271E+04  0.10636929271E+04  0.50400000000E-02 0. -1.
    8880022    1    1    2    0    0 -0.81935752563E+03  0.50070448390E+03 -0.62060833207E+03  0.11535155352E+04  0.15294330000E+03 0.  0.
    8880022    1    1    2    0    0  0.81935752563E+03 -0.50070448390E+03  0.11615308001E+04  0.15147927870E+04  0.15294330000E+03 0.  0.
<mgrwt>
<rscale>  0 0.97233913E+03</rscale>
<asrwt>0</asrwt>
<pdfrwt beam="1">  1        1 0.16364507E+00 0.97233913E+03</pdfrwt>
<pdfrwt beam="2">  1       -1 0.24686391E+00 0.97233913E+03</pdfrwt>
<totfact> 0.99957674E-01</totfact>
</mgrwt>
</event>
<event>
 4    1  0.1678003E-008  0.3434257E+03  0.7818608E-02  0.1065346E+00
          1   -1    0    0  501    0  0.00000000000E+00  0.00000000000E+00  0.16287961802E+03  0.16287961809E+03  0.50400000000E-02 0. -1.
         -1   -1    0    0    0  501 -0.00000000000E+00 -0.00000000000E+00 -0.27555256801E+04  0.27555256801E+04  0.50400000000E-02 0.  1.
    8880022    1    1    2    0    0 -0.22802116750E+03 -0.20629085205E+03 -0.25492154692E+04  0.25722442983E+04  0.15294330000E+03 0.  0.
    8880022    1    1    2    0    0  0.22802116750E+03  0.20629085205E+03 -0.43430592880E+02  0.34616099994E+03  0.15294330000E+03 0.  0.
<mgrwt>
<rscale>  0 0.34342571E+03</rscale>
<asrwt>0</asrwt>
<pdfrwt beam="1">  1        1 0.25058405E-01 0.34342571E+03</pdfrwt>
<pdfrwt beam="2">  1       -1 0.42392699E+00 0.34342571E+03</pdfrwt>
<totfact> 0.11267832E+00</totfact>
</mgrwt>
</event>
<event>
 4    1  0.1678003E-008  0.4847476E+03  0.7818608E-02  0.1017838E+00
         -1   -1    0    0    0  501 -0.00000000000E+00  0.00000000000E+00  0.85425555210E+03  0.85425555212E+03  0.50400000000E-02 0.  1.
          1   -1    0    0  501    0  0.00000000000E+00 -0.00000000000E+00 -0.35078669375E+03  0.35078669379E+03  0.50400000000E-02 0. -1.
    8880022    1    1    2    0    0  0.10152045627E+03  0.44864487133E+03  0.53166212182E+03  0.71947542586E+03  0.15294330000E+03 0.  1.
    8880022    1    1    2    0    0 -0.10152045627E+03 -0.44864487133E+03 -0.28193263478E+02  0.48556682005E+03  0.15294330000E+03 0.  0.
<mgrwt>
<rscale>  0 0.48474764E+03</rscale>
<asrwt>0</asrwt>
<pdfrwt beam="1">  1        1 0.53967185E-01 0.48474764E+03</pdfrwt>
<pdfrwt beam="2">  1       -1 0.13142393E+00 0.48474764E+03</pdfrwt>
<totfact> 0.37058279E+01</totfact>
</mgrwt>
</event>
<event>
 4    1  0.1678003E-008  0.8051867E+03  0.7818608E-02  0.9552540E-01
         -1   -1    0    0    0  501 -0.00000000000E+00  0.00000000000E+00  0.34921248002E+03  0.34921248005E+03  0.50400000000E-02 0.  1.
          1   -1    0    0  501    0  0.00000000000E+00 -0.00000000000E+00 -0.27661577805E+04  0.27661577805E+04  0.50400000000E-02 0. -1.
    8880022    1    1    2    0    0 -0.58746511598E+03 -0.52897892181E+03 -0.21017196670E+04  0.22506779365E+04  0.15294330000E+03 0.  0.
    8880022    1    1    2    0    0  0.58746511598E+03  0.52897892181E+03 -0.31522563345E+03  0.86469232402E+03  0.15294330000E+03 0.  0.
<mgrwt>
<rscale>  0 0.80518670E+03</rscale>
<asrwt>0</asrwt>
<pdfrwt beam="1">  1        1 0.42556272E+00 0.80518670E+03</pdfrwt>
<pdfrwt beam="2">  1       -1 0.53724999E-01 0.80518670E+03</pdfrwt>
<totfact> 0.32517361E+00</totfact>
</mgrwt>
</event>
<event>
 4    1  0.1678003E-008  0.4536461E+03  0.7818608E-02  0.1026640E+00
          1   -1    0    0  501    0  0.00000000000E+00  0.00000000000E+00  0.11785887617E+04  0.11785887617E+04  0.50400000000E-02 0. -1.
         -1   -1    0    0    0  501 -0.00000000000E+00 -0.00000000000E+00 -0.22896892794E+03  0.22896892799E+03  0.50400000000E-02 0.  1.
    8880022    1    1    2    0    0 -0.28499234196E+03 -0.31809198192E+03  0.81771868031E+03  0.93512493127E+03  0.15294330000E+03 0. -1.
    8880022    1    1    2    0    0  0.28499234196E+03  0.31809198192E+03  0.13190115344E+03  0.47243275843E+03  0.15294330000E+03 0. -1.
<mgrwt>
<rscale>  0 0.45364611E+03</rscale>
<asrwt>0</asrwt>
<pdfrwt beam="1">  1        1 0.18132135E+00 0.45364611E+03</pdfrwt>
<pdfrwt beam="2">  1       -1 0.35225988E-01 0.45364611E+03</pdfrwt>
<totfact> 0.89726725E+01</totfact>
</mgrwt>
</event>
<event>
 4    1  0.1678003E-008  0.3592249E+03  0.7818608E-02  0.1058891E+00
          1   -1    0    0  501    0  0.00000000000E+00  0.00000000000E+00  0.11857661603E+04  0.11857661603E+04  0.50400000000E-02 0. -1.
         -1   -1    0    0    0  501 -0.00000000000E+00 -0.00000000000E+00 -0.48336653244E+03  0.48336653246E+03  0.50400000000E-02 0.  1.
    8880022    1    1    2    0    0  0.89063960241E+02  0.31259960805E+03  0.10858351443E+04  0.11437134770E+04  0.15294330000E+03 0.  0.
    8880022    1    1    2    0    0 -0.89063960241E+02 -0.31259960805E+03 -0.38343551644E+03  0.52541921572E+03  0.15294330000E+03 0.  0.
<mgrwt>
<rscale>  0 0.35922494E+03</rscale>
<asrwt>0</asrwt>
<pdfrwt beam="1">  1        1 0.18242556E+00 0.35922494E+03</pdfrwt>
<pdfrwt beam="2">  1       -1 0.74364082E-01 0.35922494E+03</pdfrwt>
<totfact> 0.22022772E+01</totfact>
</mgrwt>
</event>
<event>
 4    1  0.1678003E-008  0.7177945E+03  0.7818608E-02  0.9687276E-01
          1   -1    0    0  501    0  0.00000000000E+00  0.00000000000E+00  0.93840638059E+03  0.93840638060E+03  0.50400000000E-02 0. -1.
         -1   -1    0    0    0  501 -0.00000000000E+00 -0.00000000000E+00 -0.84780623350E+03  0.84780623352E+03  0.50400000000E-02 0.  1.
    8880022    1    1    2    0    0  0.62961797199E+02 -0.69847908941E+03 -0.48487069224E+03  0.86621502380E+03  0.15294330000E+03 0.  0.
    8880022    1    1    2    0    0 -0.62961797199E+02  0.69847908941E+03  0.57547083933E+03  0.91999759032E+03  0.15294330000E+03 0.  0.
<mgrwt>
<rscale>  0 0.71779445E+03</rscale>
<asrwt>0</asrwt>
<pdfrwt beam="1">  1        1 0.14437021E+00 0.71779445E+03</pdfrwt>
<pdfrwt beam="2">  1       -1 0.13043173E+00 0.71779445E+03</pdfrwt>
<totfact> 0.88355970E+00</totfact>
</mgrwt>
</event>
<event>
 4    1  0.1678003E-008  0.1812057E+03  0.7818608E-02  0.1166641E+00
          1   -1    0    0  501    0  0.00000000000E+00  0.00000000000E+00  0.35710645055E+03  0.35710645059E+03  0.50400000000E-02 0. -1.
         -1   -1    0    0    0  501 -0.00000000000E+00 -0.00000000000E+00 -0.64993695342E+03  0.64993695344E+03  0.50400000000E-02 0.  1.
    8880022    1    1    2    0    0  0.75328082826E+02  0.61396574316E+02  0.32013138706E+03  0.36785814847E+03  0.15294330000E+03 0. -1.
    8880022    1    1    2    0    0 -0.75328082826E+02 -0.61396574316E+02 -0.61296188993E+03  0.63918525555E+03  0.15294330000E+03 0.  0.
<mgrwt>
<rscale>  0 0.18120572E+03</rscale>
<asrwt>0</asrwt>
<pdfrwt beam="1">  1        1 0.54939454E-01 0.18120572E+03</pdfrwt>
<pdfrwt beam="2">  1       -1 0.99990300E-01 0.18120572E+03</pdfrwt>
<totfact> 0.73046176E+01</totfact>
</mgrwt>
</event>
<event>
 4    1  0.1678003E-008  0.1141708E+04  0.7818608E-02  0.9165468E-01
          1   -1    0    0  501    0  0.00000000000E+00  0.00000000000E+00  0.37619433849E+04  0.37619433849E+04  0.50400000000E-02 0. -1.
         -1   -1    0    0    0  501 -0.00000000000E+00 -0.00000000000E+00 -0.75095432926E+03  0.75095432928E+03  0.50400000000E-02 0.  1.
    8880022    1    1    2    0    0 -0.35121689831E+03 -0.10755238669E+04  0.31614775439E+04  0.33613147445E+04  0.15294330000E+03 0.  0.
    8880022    1    1    2    0    0  0.35121689831E+03  0.10755238669E+04 -0.15048848822E+03  0.11515829697E+04  0.15294330000E+03 0.  0.
<mgrwt>
<rscale>  0 0.11417077E+04</rscale>
<asrwt>0</asrwt>
<pdfrwt beam="1">  1        1 0.57876052E+00 0.11417077E+04</pdfrwt>
<pdfrwt beam="2">  1       -1 0.11553144E+00 0.11417077E+04</pdfrwt>
<totfact> 0.10603817E-01</totfact>
</mgrwt>
</event>
<event>
 4    1  0.1678003E-008  0.2573248E+03  0.7818608E-02  0.1108761E+00
          1   -1    0    0  501    0  0.00000000000E+00  0.00000000000E+00  0.17798750049E+03  0.17798750056E+03  0.50400000000E-02 0. -1.
         -1   -1    0    0    0  501 -0.00000000000E+00 -0.00000000000E+00 -0.49640001472E+03  0.49640001474E+03  0.50400000000E-02 0.  1.
    8880022    1    1    2    0    0 -0.16613941260E+03 -0.12337790171E+03  0.95763202901E+01  0.25750295139E+03  0.15294330000E+03 0.  0.
    8880022    1    1    2    0    0  0.16613941260E+03  0.12337790171E+03 -0.32798883451E+03  0.41688456392E+03  0.15294330000E+03 0.  0.
<mgrwt>
<rscale>  0 0.25732482E+03</rscale>
<asrwt>0</asrwt>
<pdfrwt beam="1">  1        1 0.27382693E-01 0.25732482E+03</pdfrwt>
<pdfrwt beam="2">  1       -1 0.76369232E-01 0.25732482E+03</pdfrwt>
<totfact> 0.30749660E+02</totfact>
</mgrwt>
</event>
<event>
 4    1  0.1678003E-008  0.9984802E+03  0.7818608E-02  0.9310213E-01
          1   -1    0    0  501    0  0.00000000000E+00  0.00000000000E+00  0.29760491957E+04  0.29760491957E+04  0.50400000000E-02 0. -1.
         -1   -1    0    0    0  501 -0.00000000000E+00 -0.00000000000E+00 -0.47117847829E+03  0.47117847832E+03  0.50400000000E-02 0.  1.
    8880022    1    1    2    0    0 -0.50657908410E+03 -0.84672821762E+03  0.21790707290E+04  0.23969380338E+04  0.15294330000E+03 0.  0.
    8880022    1    1    2    0    0  0.50657908410E+03  0.84672821762E+03  0.32579998848E+03  0.10502896403E+04  0.15294330000E+03 0.  0.
<mgrwt>
<rscale>  0 0.99848019E+03</rscale>
<asrwt>0</asrwt>
<pdfrwt beam="1">  1        1 0.45785371E+00 0.99848019E+03</pdfrwt>
<pdfrwt beam="2">  1       -1 0.72488999E-01 0.99848019E+03</pdfrwt>
<totfact> 0.12278948E+00</totfact>
</mgrwt>
</event>
<event>
 4    1  0.1678003E-008  0.5883293E+03  0.7818608E-02  0.9929919E-01
          1   -1    0    0  501    0  0.00000000000E+00  0.00000000000E+00  0.17680856289E+04  0.17680856289E+04  0.50400000000E-02 0. -1.
         -1   -1    0    0    0  501 -0.00000000000E+00 -0.00000000000E+00 -0.36540415347E+03  0.36540415350E+03  0.50400000000E-02 0.  1.
    8880022    1    1    2    0    0  0.54077957839E+03  0.17406087385E+03  0.14281749350E+04  0.15446083770E+04  0.15294330000E+03 0. -1.
    8880022    1    1    2    0    0 -0.54077957839E+03 -0.17406087385E+03 -0.25493459552E+02  0.58888140546E+03  0.15294330000E+03 0.  0.
<mgrwt>
<rscale>  0 0.58832932E+03</rscale>
<asrwt>0</asrwt>
<pdfrwt beam="1">  1        1 0.27201318E+00 0.58832932E+03</pdfrwt>
<pdfrwt beam="2">  1       -1 0.56216023E-01 0.58832932E+03</pdfrwt>
<totfact> 0.14648093E+01</totfact>
</mgrwt>
</event>
<event>
 4    1  0.1678003E-008  0.2135165E+03  0.7818608E-02  0.1138811E+00
          1   -1    0    0  501    0  0.00000000000E+00  0.00000000000E+00  0.37329874395E+03  0.37329874398E+03  0.50400000000E-02 0. -1.
         -1   -1    0    0    0  501 -0.00000000000E+00 -0.00000000000E+00 -0.15219839822E+03  0.15219839830E+03  0.50400000000E-02 0.  1.
    8880022    1    1    2    0    0 -0.12655604499E+03 -0.78620706192E+02  0.22734479976E+03  0.31188933768E+03  0.15294330000E+03 0.  0.
    8880022    1    1    2    0    0  0.12655604499E+03  0.78620706192E+02 -0.62444540299E+01  0.21360780460E+03  0.15294330000E+03 0.  0.
<mgrwt>
<rscale>  0 0.21351651E+03</rscale>
<asrwt>0</asrwt>
<pdfrwt beam="1">  1        1 0.57430575E-01 0.21351651E+03</pdfrwt>
<pdfrwt beam="2">  1       -1 0.23415138E-01 0.21351651E+03</pdfrwt>
<totfact> 0.10287846E+03</totfact>
</mgrwt>
</event>
<event>
 4    1  0.1678003E-008  0.5878824E+03  0.7818608E-02  0.9930870E-01
         -1   -1    0    0    0  501 -0.00000000000E+00  0.00000000000E+00  0.17233917842E+04  0.17233917842E+04  0.50400000000E-02 0.  1.
          1   -1    0    0  501    0  0.00000000000E+00 -0.00000000000E+00 -0.10565984774E+04  0.10565984774E+04  0.50400000000E-02 0. -1.
    8880022    1    1    2    0    0 -0.52258001019E+03 -0.22163968319E+03  0.15845498602E+04  0.16900899174E+04  0.15294330000E+03 0.  0.
    8880022    1    1    2    0    0  0.52258001019E+03  0.22163968319E+03 -0.91775655341E+03  0.10899003443E+04  0.15294330000E+03 0.  0.
<mgrwt>
<rscale>  0 0.58788236E+03</rscale>
<asrwt>0</asrwt>
<pdfrwt beam="1">  1        1 0.16255361E+00 0.58788236E+03</pdfrwt>
<pdfrwt beam="2">  1       -1 0.26513720E+00 0.58788236E+03</pdfrwt>
<totfact> 0.83331233E-01</totfact>
</mgrwt>
</event>
<event>
 4    1  0.1678003E-008  0.2881101E+03  0.7818608E-02  0.1091340E+00
          1   -1    0    0  501    0  0.00000000000E+00  0.00000000000E+00  0.14437721254E+04  0.14437721254E+04  0.50400000000E-02 0. -1.
         -1   -1    0    0    0  501 -0.00000000000E+00 -0.00000000000E+00 -0.38348114755E+03  0.38348114758E+03  0.50400000000E-02 0.  1.
    8880022    1    1    2    0    0  0.16016586498E+03  0.18428961415E+03 -0.31221377952E+03  0.42483510133E+03  0.15294330000E+03 0.  0.
    8880022    1    1    2    0    0 -0.16016586498E+03 -0.18428961415E+03  0.13725047574E+04  0.14024181717E+04  0.15294330000E+03 0.  0.
<mgrwt>
<rscale>  0 0.28811008E+03</rscale>
<asrwt>0</asrwt>
<pdfrwt beam="1">  1        1 0.22211879E+00 0.28811008E+03</pdfrwt>
<pdfrwt beam="2">  1       -1 0.58997100E-01 0.28811008E+03</pdfrwt>
<totfact> 0.23679901E+01</totfact>
</mgrwt>
</event>
<event>
 4    1  0.1678003E-008  0.4249105E+03  0.7818608E-02  0.1035480E+00
         -1   -1    0    0    0  501 -0.00000000000E+00  0.00000000000E+00  0.43987264028E+03  0.43987264031E+03  0.50400000000E-02 0.  1.
          1   -1    0    0  501    0  0.00000000000E+00 -0.00000000000E+00 -0.11487380067E+04  0.11487380067E+04  0.50400000000E-02 0. -1.
    8880022    1    1    2    0    0 -0.32577840354E+03  0.22588875225E+03 -0.99121021150E+03  0.10784463978E+04  0.15294330000E+03 0. -1.
    8880022    1    1    2    0    0  0.32577840354E+03 -0.22588875225E+03  0.28234484507E+03  0.51016424920E+03  0.15294330000E+03 0.  0.
<mgrwt>
<rscale>  0 0.42491052E+03</rscale>
<asrwt>0</asrwt>
<pdfrwt beam="1">  1        1 0.17672892E+00 0.42491052E+03</pdfrwt>
<pdfrwt beam="2">  1       -1 0.67672714E-01 0.42491052E+03</pdfrwt>
<totfact> 0.27901711E+01</totfact>
</mgrwt>
</event>
<event>
 4    1  0.1678003E-008  0.7855280E+03  0.7818608E-02  0.9581204E-01
         -1   -1    0    0    0  501 -0.00000000000E+00  0.00000000000E+00  0.45465895841E+03  0.45465895844E+03  0.50400000000E-02 0.  1.
          1   -1    0    0  501    0  0.00000000000E+00 -0.00000000000E+00 -0.18169806433E+04  0.18169806433E+04  0.50400000000E-02 0. -1.
    8880022    1    1    2    0    0 -0.68531198858E+03  0.35215053675E+03 -0.10978886435E+03  0.79316314209E+03  0.15294330000E+03 0.  0.
    8880022    1    1    2    0    0  0.68531198858E+03 -0.35215053675E+03 -0.12525328205E+04  0.14784764596E+04  0.15294330000E+03 0.  0.
<mgrwt>
<rscale>  0 0.78552796E+03</rscale>
<asrwt>0</asrwt>
<pdfrwt beam="1">  1        1 0.27953548E+00 0.78552796E+03</pdfrwt>
<pdfrwt beam="2">  1       -1 0.69947533E-01 0.78552796E+03</pdfrwt>
<totfact> 0.85114413E+00</totfact>
</mgrwt>
</event>
<event>
 4    1  0.1678003E-008  0.1148923E+04  0.7818608E-02  0.9158778E-01
         -1   -1    0    0    0  501 -0.00000000000E+00  0.00000000000E+00  0.96266969029E+03  0.96266969030E+03  0.50400000000E-02 0.  1.
          1   -1    0    0  501    0  0.00000000000E+00 -0.00000000000E+00 -0.17698560645E+04  0.17698560645E+04  0.50400000000E-02 0. -1.
    8880022    1    1    2    0    0 -0.36779384832E+03  0.10776637702E+04 -0.10520163885E+04  0.15578066797E+04  0.15294330000E+03 0.  0.
    8880022    1    1    2    0    0  0.36779384832E+03 -0.10776637702E+04  0.24483001429E+03  0.11747190751E+04  0.15294330000E+03 0.  0.
<mgrwt>
<rscale>  0 0.11489226E+04</rscale>
<asrwt>0</asrwt>
<pdfrwt beam="1">  1        1 0.27228555E+00 0.11489226E+04</pdfrwt>
<pdfrwt beam="2">  1       -1 0.14810303E+00 0.11489226E+04</pdfrwt>
<totfact> 0.15236659E+00</totfact>
</mgrwt>
</event>
<event>
 4    1  0.1678003E-008  0.6746040E+03  0.7818608E-02  0.9761676E-01
          1   -1    0    0  501    0  0.00000000000E+00  0.00000000000E+00  0.71495924359E+03  0.71495924361E+03  0.50400000000E-02 0. -1.
         -1   -1    0    0    0  501 -0.00000000000E+00 -0.00000000000E+00 -0.92194188283E+03  0.92194188284E+03  0.50400000000E-02 0.  1.
    8880022    1    1    2    0    0  0.43215495648E+03  0.49491511075E+03  0.35189433435E+03  0.76086802326E+03  0.15294330000E+03 0.  0.
    8880022    1    1    2    0    0 -0.43215495648E+03 -0.49491511075E+03 -0.55887697359E+03  0.87603310319E+03  0.15294330000E+03 0.  0.
<mgrwt>
<rscale>  0 0.67460398E+03</rscale>
<asrwt>0</asrwt>
<pdfrwt beam="1">  1        1 0.10999373E+00 0.67460398E+03</pdfrwt>
<pdfrwt beam="2">  1       -1 0.14183721E+00 0.67460398E+03</pdfrwt>
<totfact> 0.11119770E+01</totfact>
</mgrwt>
</event>
<event>
 4    1  0.1678003E-008  0.4566798E+03  0.7818608E-02  0.1025749E+00
          1   -1    0    0  501    0  0.00000000000E+00  0.00000000000E+00  0.24688218060E+04  0.24688218060E+04  0.50400000000E-02 0. -1.
         -1   -1    0    0    0  501 -0.00000000000E+00 -0.00000000000E+00 -0.23881194454E+03  0.23881194459E+03  0.50400000000E-02 0.  1.
    8880022    1    1    2    0    0 -0.13261514830E+03 -0.40936288123E+03  0.22033467678E+04  0.22501762994E+04  0.15294330000E+03 0.  0.
    8880022    1    1    2    0    0  0.13261514830E+03  0.40936288123E+03  0.26663093642E+02  0.45745745121E+03  0.15294330000E+03 0.  0.
<mgrwt>
<rscale>  0 0.45667976E+03</rscale>
<asrwt>0</asrwt>
<pdfrwt beam="1">  1        1 0.37981873E+00 0.45667976E+03</pdfrwt>
<pdfrwt beam="2">  1       -1 0.36740300E-01 0.45667976E+03</pdfrwt>
<totfact> 0.11325773E+01</totfact>
</mgrwt>
</event>
<event>
 4    1  0.1678003E-008  0.1261183E+04  0.7818608E-02  0.9060927E-01
         -1   -1    0    0    0  501 -0.00000000000E+00  0.00000000000E+00  0.22058021949E+04  0.22058021949E+04  0.50400000000E-02 0.  1.
          1   -1    0    0  501    0  0.00000000000E+00 -0.00000000000E+00 -0.10582293688E+04  0.10582293688E+04  0.50400000000E-02 0. -1.
    8880022    1    1    2    0    0 -0.39881989024E+03 -0.11866478925E+04  0.14949549665E+04  0.19558815226E+04  0.15294330000E+03 0.  0.
    8880022    1    1    2    0    0  0.39881989024E+03  0.11866478925E+04 -0.34738214042E+03  0.13081500411E+04  0.15294330000E+03 0.  0.
<mgrwt>
<rscale>  0 0.12611828E+04</rscale>
<asrwt>0</asrwt>
<pdfrwt beam="1">  1        1 0.16280452E+00 0.12611828E+04</pdfrwt>
<pdfrwt beam="2">  1       -1 0.33935418E+00 0.12611828E+04</pdfrwt>
<totfact> 0.24413383E-01</totfact>
</mgrwt>
</event>
<event>
 4    1  0.1678003E-008  0.1015838E+04  0.7818608E-02  0.9291342E-01
         -1   -1    0    0    0  501 -0.00000000000E+00  0.00000000000E+00  0.11066069724E+04  0.11066069725E+04  0.50400000000E-02 0.  1.
          1   -1    0    0  501    0  0.00000000000E+00 -0.00000000000E+00 -0.16547716464E+04  0.16547716464E+04  0.50400000000E-02 0. -1.
    8880022    1    1    2    0    0 -0.56891888407E+03 -0.82756701472E+03 -0.11862459082E+04  0.15617640245E+04  0.15294330000E+03 0.  0.
    8880022    1    1    2    0    0  0.56891888407E+03  0.82756701472E+03  0.63808123424E+03  0.11996145944E+04  0.15294330000E+03 0.  0.
<mgrwt>
<rscale>  0 0.10158383E+04</rscale>
<asrwt>0</asrwt>
<pdfrwt beam="1">  1        1 0.25458025E+00 0.10158383E+04</pdfrwt>
<pdfrwt beam="2">  1       -1 0.17024723E+00 0.10158383E+04</pdfrwt>
<totfact> 0.12603661E+00</totfact>
</mgrwt>
</event>
<event>
 4    1  0.1678003E-008  0.7066502E+03  0.7818608E-02  0.9705927E-01
          1   -1    0    0  501    0  0.00000000000E+00  0.00000000000E+00  0.19507292382E+04  0.19507292382E+04  0.50400000000E-02 0. -1.
         -1   -1    0    0    0  501 -0.00000000000E+00 -0.00000000000E+00 -0.12967358203E+04  0.12967358203E+04  0.50400000000E-02 0.  1.
    8880022    1    1    2    0    0 -0.55436874505E+03  0.41065580798E+03 -0.11276664019E+04  0.13307840040E+04  0.15294330000E+03 0.  0.
    8880022    1    1    2    0    0  0.55436874505E+03 -0.41065580798E+03  0.17816598198E+04  0.19166810545E+04  0.15294330000E+03 0.  0.
<mgrwt>
<rscale>  0 0.70665023E+03</rscale>
<asrwt>0</asrwt>
<pdfrwt beam="1">  1        1 0.30011219E+00 0.70665023E+03</pdfrwt>
<pdfrwt beam="2">  1       -1 0.19949782E+00 0.70665023E+03</pdfrwt>
<totfact> 0.52463951E-01</totfact>
</mgrwt>
</event>
<event>
 4    1  0.1678003E-008  0.4102560E+03  0.7818608E-02  0.1040285E+00
         -1   -1    0    0    0  501 -0.00000000000E+00  0.00000000000E+00  0.22922549499E+03  0.22922549505E+03  0.50400000000E-02 0.  1.
          1   -1    0    0  501    0  0.00000000000E+00 -0.00000000000E+00 -0.12155354483E+04  0.12155354483E+04  0.50400000000E-02 0. -1.
    8880022    1    1    2    0    0 -0.30068007533E+03  0.23347346663E+03 -0.38605475907E+02  0.41206844468E+03  0.15294330000E+03 0.  0.
    8880022    1    1    2    0    0  0.30068007533E+03 -0.23347346663E+03 -0.94770447740E+03  0.10326924987E+04  0.15294330000E+03 0.  0.
<mgrwt>
<rscale>  0 0.41025604E+03</rscale>
<asrwt>0</asrwt>
<pdfrwt beam="1">  1        1 0.18700545E+00 0.41025604E+03</pdfrwt>
<pdfrwt beam="2">  1       -1 0.35265461E-01 0.41025604E+03</pdfrwt>
<totfact> 0.84852814E+01</totfact>
</mgrwt>
</event>
<event>
 4    1  0.1678003E-008  0.2518737E+03  0.7818608E-02  0.1112126E+00
         -1   -1    0    0    0  501 -0.00000000000E+00  0.00000000000E+00  0.10800206747E+03  0.10800206759E+03  0.50400000000E-02 0.  1.
          1   -1    0    0  501    0  0.00000000000E+00 -0.00000000000E+00 -0.76140159838E+03  0.76140159840E+03  0.50400000000E-02 0. -1.
    8880022    1    1    2    0    0  0.11709874020E+03  0.16228548732E+03 -0.53450762721E+03  0.59087964165E+03  0.15294330000E+03 0.  0.
    8880022    1    1    2    0    0 -0.11709874020E+03 -0.16228548732E+03 -0.11889190370E+03  0.27852402434E+03  0.15294330000E+03 0.  0.
<mgrwt>
<rscale>  0 0.25187367E+03</rscale>
<asrwt>0</asrwt>
<pdfrwt beam="1">  1        1 0.11713870E+00 0.25187367E+03</pdfrwt>
<pdfrwt beam="2">  1       -1 0.16615703E-01 0.25187367E+03</pdfrwt>
<totfact> 0.68093487E+02</totfact>
</mgrwt>
</event>
<event>
 4    1  0.1678003E-008  0.6157729E+03  0.7818608E-02  0.9873212E-01
         -1   -1    0    0    0  501 -0.00000000000E+00  0.00000000000E+00  0.93942707383E+03  0.93942707384E+03  0.50400000000E-02 0.  1.
          1   -1    0    0  501    0  0.00000000000E+00 -0.00000000000E+00 -0.69076570488E+03  0.69076570490E+03  0.50400000000E-02 0. -1.
    8880022    1    1    2    0    0  0.20319509917E+03 -0.56079975606E+03  0.64985274843E+03  0.89525686949E+03  0.15294330000E+03 0.  0.
    8880022    1    1    2    0    0 -0.20319509917E+03  0.56079975606E+03 -0.40119137948E+03  0.73493590925E+03  0.15294330000E+03 0.  0.
<mgrwt>
<rscale>  0 0.61577290E+03</rscale>
<asrwt>0</asrwt>
<pdfrwt beam="1">  1        1 0.10627165E+00 0.61577290E+03</pdfrwt>
<pdfrwt beam="2">  1       -1 0.14452724E+00 0.61577290E+03</pdfrwt>
<totfact> 0.11247581E+01</totfact>
</mgrwt>
</event>
<event>
 4    1  0.1678003E-008  0.5904442E+03  0.7818608E-02  0.9925432E-01
         -1   -1    0    0    0  501 -0.00000000000E+00  0.00000000000E+00  0.34721900302E+03  0.34721900305E+03  0.50400000000E-02 0.  1.
          1   -1    0    0  501    0  0.00000000000E+00 -0.00000000000E+00 -0.19931580999E+04  0.19931580999E+04  0.50400000000E-02 0. -1.
    8880022    1    1    2    0    0  0.23341247593E+03  0.52033767889E+03 -0.16473115351E+04  0.17499313217E+04  0.15294330000E+03 0.  0.
    8880022    1    1    2    0    0 -0.23341247593E+03 -0.52033767889E+03  0.13724382258E+01  0.59044578125E+03  0.15294330000E+03 0.  0.
<mgrwt>
<rscale>  0 0.59044419E+03</rscale>
<asrwt>0</asrwt>
<pdfrwt beam="1">  1        1 0.30663970E+00 0.59044419E+03</pdfrwt>
<pdfrwt beam="2">  1       -1 0.53418309E-01 0.59044419E+03</pdfrwt>
<totfact> 0.11443859E+01</totfact>
</mgrwt>
</event>
<event>
 4    1  0.2018534E-008  0.9431154E+03  0.7818608E-02  0.9373234E-01
         -1   -1    0    0    0  501 -0.00000000000E+00  0.00000000000E+00  0.11541847520E+04  0.11541847520E+04  0.50400000000E-02 0.  1.
          1   -1    0    0  501    0  0.00000000000E+00 -0.00000000000E+00 -0.18764197397E+04  0.18764197397E+04  0.50400000000E-02 0. -1.
    8880022    1    1    2    0    0 -0.64009565940E+03 -0.67553867489E+03 -0.15243529194E+04  0.17925173445E+04  0.15294330000E+03 0.  0.
    8880022    1    1    2    0    0  0.64009565940E+03  0.67553867489E+03  0.80211793178E+03  0.12380871472E+04  0.15294330000E+03 0.  0.
<mgrwt>
<rscale>  0 0.94311537E+03</rscale>
<asrwt>0</asrwt>
<pdfrwt beam="1">  1        1 0.28867996E+00 0.94311537E+03</pdfrwt>
<pdfrwt beam="2">  1       -1 0.17756688E+00 0.94311537E+03</pdfrwt>
<totfact> 0.79878851E-01</totfact>
</mgrwt>
</event>
<event>
 4    1  0.1678003E-008  0.1015812E+04  0.7818608E-02  0.9291371E-01
          1   -1    0    0  501    0  0.00000000000E+00  0.00000000000E+00  0.20890284263E+04  0.20890284263E+04  0.50400000000E-02 0. -1.
         -1   -1    0    0    0  501 -0.00000000000E+00 -0.00000000000E+00 -0.78801111518E+03  0.78801111520E+03  0.50400000000E-02 0.  1.
    8880022    1    1    2    0    0  0.17820726109E+03  0.98829368570E+03 -0.22824888497E+03  0.10411394929E+04  0.15294330000E+03 0.  1.
    8880022    1    1    2    0    0 -0.17820726109E+03 -0.98829368570E+03  0.15292661961E+04  0.18359000487E+04  0.15294330000E+03 0.  0.
<mgrwt>
<rscale>  0 0.10158119E+04</rscale>
<asrwt>0</asrwt>
<pdfrwt beam="1">  1        1 0.32138899E+00 0.10158119E+04</pdfrwt>
<pdfrwt beam="2">  1       -1 0.12123248E+00 0.10158119E+04</pdfrwt>
<totfact> 0.15804993E+00</totfact>
</mgrwt>
</event>
<event>
 4    1  0.1678003E-008  0.2791784E+03  0.7818608E-02  0.1096139E+00
          1   -1    0    0  501    0  0.00000000000E+00  0.00000000000E+00  0.64605056545E+03  0.64605056547E+03  0.50400000000E-02 0. -1.
         -1   -1    0    0    0  501 -0.00000000000E+00 -0.00000000000E+00 -0.67909131324E+03  0.67909131326E+03  0.50400000000E-02 0.  1.
    8880022    1    1    2    0    0  0.22913259496E+03  0.45245972602E+02  0.58432167475E+03  0.64758969780E+03  0.15294330000E+03 0.  0.
    8880022    1    1    2    0    0 -0.22913259496E+03 -0.45245972602E+02 -0.61736242253E+03  0.67755218093E+03  0.15294330000E+03 0.  1.
<mgrwt>
<rscale>  0 0.27917843E+03</rscale>
<asrwt>0</asrwt>
<pdfrwt beam="1">  1        1 0.99392395E-01 0.27917843E+03</pdfrwt>
<pdfrwt beam="2">  1       -1 0.10447559E+00 0.27917843E+03</pdfrwt>
<totfact> 0.29327273E+01</totfact>
</mgrwt>
</event>
<event>
 4    1  0.1678003E-008  0.3655638E+03  0.7818608E-02  0.1056402E+00
         -1   -1    0    0    0  501 -0.00000000000E+00  0.00000000000E+00  0.69544912241E+03  0.69544912243E+03  0.50400000000E-02 0.  1.
          1   -1    0    0  501    0  0.00000000000E+00 -0.00000000000E+00 -0.34512730727E+03  0.34512730730E+03  0.50400000000E-02 0. -1.
    8880022    1    1    2    0    0  0.19108359062E+03  0.27153686027E+03 -0.17122080509E+03  0.40367489666E+03  0.15294330000E+03 0.  0.
    8880022    1    1    2    0    0 -0.19108359062E+03 -0.27153686027E+03  0.52154262024E+03  0.63690153307E+03  0.15294330000E+03 0.  1.
<mgrwt>
<rscale>  0 0.36556375E+03</rscale>
<asrwt>0</asrwt>
<pdfrwt beam="1">  1        1 0.53096509E-01 0.36556375E+03</pdfrwt>
<pdfrwt beam="2">  1       -1 0.10699217E+00 0.36556375E+03</pdfrwt>
<totfact> 0.63064819E+01</totfact>
</mgrwt>
</event>
<event>
 4    1  0.1678003E-008  0.8610010E+03  0.7818608E-02  0.9475690E-01
         -1   -1    0    0    0  501 -0.00000000000E+00  0.00000000000E+00  0.51848933734E+03  0.51848933737E+03  0.50400000000E-02 0.  1.
          1   -1    0    0  501    0  0.00000000000E+00 -0.00000000000E+00 -0.24994905844E+04  0.24994905844E+04  0.50400000000E-02 0. -1.
    8880022    1    1    2    0    0 -0.43153630352E+03  0.72918280104E+03 -0.19776772800E+04  0.21569724651E+04  0.15294330000E+03 0.  0.
    8880022    1    1    2    0    0  0.43153630352E+03 -0.72918280104E+03 -0.33239670675E+01  0.86100745663E+03  0.15294330000E+03 0.  1.
<mgrwt>
<rscale>  0 0.86100104E+03</rscale>
<asrwt>0</asrwt>
<pdfrwt beam="1">  1        1 0.38453701E+00 0.86100104E+03</pdfrwt>
<pdfrwt beam="2">  1       -1 0.79767592E-01 0.86100104E+03</pdfrwt>
<totfact> 0.22166683E+00</totfact>
</mgrwt>
</event>
<event>
 4    1  0.1678003E-008  0.5913792E+03  0.7818608E-02  0.9923455E-01
         -1   -1    0    0    0  501 -0.00000000000E+00  0.00000000000E+00  0.66270908070E+03  0.66270908072E+03  0.50400000000E-02 0.  1.
          1   -1    0    0  501    0  0.00000000000E+00 -0.00000000000E+00 -0.61062145069E+03  0.61062145071E+03  0.50400000000E-02 0. -1.
    8880022    1    1    2    0    0  0.56668213311E+03 -0.72173774490E+02  0.26062240138E+03  0.64626107946E+03  0.15294330000E+03 0.  0.
    8880022    1    1    2    0    0 -0.56668213311E+03  0.72173774490E+02 -0.20853477137E+03  0.62706945197E+03  0.15294330000E+03 0.  0.
<mgrwt>
<rscale>  0 0.59137919E+03</rscale>
<asrwt>0</asrwt>
<pdfrwt beam="1">  1        1 0.93941761E-01 0.59137919E+03</pdfrwt>
<pdfrwt beam="2">  1       -1 0.10195524E+00 0.59137919E+03</pdfrwt>
<totfact> 0.31727093E+01</totfact>
</mgrwt>
</event>
<event>
 4    1  0.1678003E-008  0.1438454E+04  0.7818608E-02  0.8926444E-01
          1   -1    0    0  501    0  0.00000000000E+00  0.00000000000E+00  0.28055914400E+04  0.28055914400E+04  0.50400000000E-02 0. -1.
         -1   -1    0    0    0  501 -0.00000000000E+00 -0.00000000000E+00 -0.13181074432E+04  0.13181074432E+04  0.50400000000E-02 0.  1.
    8880022    1    1    2    0    0  0.12200767823E+04 -0.74643915628E+03  0.21121615759E+04  0.25554602217E+04  0.15294330000E+03 0.  0.
    8880022    1    1    2    0    0 -0.12200767823E+04  0.74643915628E+03 -0.62467757905E+03  0.15682386615E+04  0.15294330000E+03 0.  0.
<mgrwt>
<rscale>  0 0.14384542E+04</rscale>
<asrwt>0</asrwt>
<pdfrwt beam="1">  1        1 0.43162945E+00 0.14384542E+04</pdfrwt>
<pdfrwt beam="2">  1       -1 0.20278576E+00 0.14384542E+04</pdfrwt>
<totfact> 0.11347303E-01</totfact>
</mgrwt>
</event>
<event>
 4    1  0.1678003E-008  0.4505589E+03  0.7818608E-02  0.1027556E+00
          1   -1    0    0  501    0  0.00000000000E+00  0.00000000000E+00  0.13557263799E+04  0.13557263799E+04  0.50400000000E-02 0. -1.
         -1   -1    0    0    0  501 -0.00000000000E+00 -0.00000000000E+00 -0.18985967222E+03  0.18985967229E+03  0.50400000000E-02 0.  1.
    8880022    1    1    2    0    0  0.29707125654E+03 -0.30225870214E+03  0.93818666699E+03  0.10407677597E+04  0.15294330000E+03 0.  0.
    8880022    1    1    2    0    0 -0.29707125654E+03  0.30225870214E+03  0.22768004064E+03  0.50481829246E+03  0.15294330000E+03 0.  0.
<mgrwt>
<rscale>  0 0.45055888E+03</rscale>
<asrwt>0</asrwt>
<pdfrwt beam="1">  1        1 0.20857329E+00 0.45055888E+03</pdfrwt>
<pdfrwt beam="2">  1       -1 0.29209181E-01 0.45055888E+03</pdfrwt>
<totfact> 0.93429111E+01</totfact>
</mgrwt>
</event>
<event>
 4    1  0.1678003E-008  0.5036932E+03  0.7818608E-02  0.1012819E+00
          1   -1    0    0  501    0  0.00000000000E+00  0.00000000000E+00  0.35142308969E+04  0.35142308969E+04  0.50400000000E-02 0. -1.
         -1   -1    0    0    0  501 -0.00000000000E+00 -0.00000000000E+00 -0.98335256176E+02  0.98335256305E+02  0.50400000000E-02 0.  1.
    8880022    1    1    2    0    0 -0.28624487991E+02 -0.47905717485E+03  0.77663956192E+03  0.92567586133E+03  0.15294330000E+03 0.  0.
    8880022    1    1    2    0    0  0.28624487991E+02  0.47905717485E+03  0.26392560788E+04  0.26868902918E+04  0.15294330000E+03 0.  0.
<mgrwt>
<rscale>  0 0.50369315E+03</rscale>
<asrwt>0</asrwt>
<pdfrwt beam="1">  1        1 0.54065091E+00 0.50369315E+03</pdfrwt>
<pdfrwt beam="2">  1       -1 0.15128501E-01 0.50369315E+03</pdfrwt>
<totfact> 0.89632219E+00</totfact>
</mgrwt>
</event>
<event>
 4    1  0.1678003E-008  0.4729435E+03  0.7818608E-02  0.1021093E+00
          1   -1    0    0  501    0  0.00000000000E+00  0.00000000000E+00  0.12506975368E+04  0.12506975368E+04  0.50400000000E-02 0. -1.
         -1   -1    0    0    0  501 -0.00000000000E+00 -0.00000000000E+00 -0.84301924705E+03  0.84301924706E+03  0.50400000000E-02 0.  1.
    8880022    1    1    2    0    0  0.41459727004E+03  0.16850224915E+03  0.11330443477E+04  0.12277886834E+04  0.15294330000E+03 0.  0.
    8880022    1    1    2    0    0 -0.41459727004E+03 -0.16850224915E+03 -0.72536605789E+03  0.86592810050E+03  0.15294330000E+03 0.  0.
<mgrwt>
<rscale>  0 0.47294350E+03</rscale>
<asrwt>0</asrwt>
<pdfrwt beam="1">  1        1 0.19241500E+00 0.47294350E+03</pdfrwt>
<pdfrwt beam="2">  1       -1 0.12969527E+00 0.47294350E+03</pdfrwt>
<totfact> 0.55013892E+00</totfact>
</mgrwt>
</event>
<event>
 4    1  0.1678003E-008  0.4023131E+03  0.7818608E-02  0.1042982E+00
          1   -1    0    0  501    0  0.00000000000E+00  0.00000000000E+00  0.64226594504E+03  0.64226594506E+03  0.50400000000E-02 0. -1.
         -1   -1    0    0    0  501 -0.00000000000E+00 -0.00000000000E+00 -0.45379264409E+03  0.45379264412E+03  0.50400000000E-02 0.  1.
    8880022    1    1    2    0    0  0.22005399320E+03 -0.30006733831E+03 -0.27120636635E+03  0.48518935850E+03  0.15294330000E+03 0.  0.
    8880022    1    1    2    0    0 -0.22005399320E+03  0.30006733831E+03  0.45967966730E+03  0.61086923067E+03  0.15294330000E+03 0.  0.
<mgrwt>
<rscale>  0 0.40231309E+03</rscale>
<asrwt>0</asrwt>
<pdfrwt beam="1">  1        1 0.98810146E-01 0.40231309E+03</pdfrwt>
<pdfrwt beam="2">  1       -1 0.69814253E-01 0.40231309E+03</pdfrwt>
<totfact> 0.68181097E+01</totfact>
</mgrwt>
</event>
<event>
 4    1  0.1678003E-008  0.1367971E+04  0.7818608E-02  0.8977334E-01
         -1   -1    0    0    0  501 -0.00000000000E+00  0.00000000000E+00  0.15717113096E+04  0.15717113096E+04  0.50400000000E-02 0.  1.
          1   -1    0    0  501    0  0.00000000000E+00 -0.00000000000E+00 -0.19684279549E+04  0.19684279549E+04  0.50400000000E-02 0. -1.
    8880022    1    1    2    0    0 -0.79415395991E+02 -0.13570730285E+04 -0.13110135383E+04  0.18947564911E+04  0.15294330000E+03 0.  0.
    8880022    1    1    2    0    0  0.79415395991E+02  0.13570730285E+04  0.91429689298E+03  0.16453827735E+04  0.15294330000E+03 0.  0.
<mgrwt>
<rscale>  0 0.13679714E+04</rscale>
<asrwt>0</asrwt>
<pdfrwt beam="1">  1        1 0.30283507E+00 0.13679714E+04</pdfrwt>
<pdfrwt beam="2">  1       -1 0.24180174E+00 0.13679714E+04</pdfrwt>
<totfact> 0.23697539E-01</totfact>
</mgrwt>
</event>
<event>
 4    1  0.1678003E-008  0.7936336E+03  0.7818608E-02  0.9569278E-01
         -1   -1    0    0    0  501 -0.00000000000E+00  0.00000000000E+00  0.66916210987E+03  0.66916210989E+03  0.50400000000E-02 0.  1.
          1   -1    0    0  501    0  0.00000000000E+00 -0.00000000000E+00 -0.20074071561E+04  0.20074071561E+04  0.50400000000E-02 0. -1.
    8880022    1    1    2    0    0  0.71778328004E+03  0.30207589292E+03  0.30618078313E+03  0.85064740472E+03  0.15294330000E+03 0.  0.
    8880022    1    1    2    0    0 -0.71778328004E+03 -0.30207589292E+03 -0.16444258294E+04  0.18259218613E+04  0.15294330000E+03 0.  0.
<mgrwt>
<rscale>  0 0.79363363E+03</rscale>
<asrwt>0</asrwt>
<pdfrwt beam="1">  1        1 0.30883187E+00 0.79363363E+03</pdfrwt>
<pdfrwt beam="2">  1       -1 0.10294802E+00 0.79363363E+03</pdfrwt>
<totfact> 0.27428308E+00</totfact>
</mgrwt>
</event>
<event>
 4    1  0.1678003E-008  0.5403326E+03  0.7818608E-02  0.1003757E+00
         -1   -1    0    0    0  501 -0.00000000000E+00  0.00000000000E+00  0.12553728242E+03  0.12553728252E+03  0.50400000000E-02 0.  1.
          1   -1    0    0  501    0  0.00000000000E+00 -0.00000000000E+00 -0.26787717963E+04  0.26787717963E+04  0.50400000000E-02 0. -1.
    8880022    1    1    2    0    0 -0.26769284209E+03  0.44374334329E+03 -0.17856822313E+04  0.18656420602E+04  0.15294330000E+03 0. -1.
    8880022    1    1    2    0    0  0.26769284209E+03 -0.44374334329E+03 -0.76755228252E+03  0.93866701861E+03  0.15294330000E+03 0.  0.
<mgrwt>
<rscale>  0 0.54033255E+03</rscale>
<asrwt>0</asrwt>
<pdfrwt beam="1">  1        1 0.41211869E+00 0.54033255E+03</pdfrwt>
<pdfrwt beam="2">  1       -1 0.19313430E-01 0.54033255E+03</pdfrwt>
<totfact> 0.23967728E+01</totfact>
</mgrwt>
</event>
<event>
 4    1  0.1678003E-008  0.5212220E+03  0.7818608E-02  0.1008383E+00
          1   -1    0    0  501    0  0.00000000000E+00  0.00000000000E+00  0.12841487076E+04  0.12841487076E+04  0.50400000000E-02 0. -1.
         -1   -1    0    0    0  501 -0.00000000000E+00 -0.00000000000E+00 -0.11559627973E+04  0.11559627973E+04  0.50400000000E-02 0.  1.
    8880022    1    1    2    0    0  0.49824188074E+03  0.59765085516E+01  0.11668675867E+04  0.12779876010E+04  0.15294330000E+03 0.  0.
    8880022    1    1    2    0    0 -0.49824188074E+03 -0.59765085516E+01 -0.10386816764E+04  0.11621239040E+04  0.15294330000E+03 0.  0.
<mgrwt>
<rscale>  0 0.52122197E+03</rscale>
<asrwt>0</asrwt>
<pdfrwt beam="1">  1        1 0.19756134E+00 0.52122197E+03</pdfrwt>
<pdfrwt beam="2">  1       -1 0.17784043E+00 0.52122197E+03</pdfrwt>
<totfact> 0.22022907E+00</totfact>
</mgrwt>
</event>
<event>
 4    1  0.1678003E-008  0.5581855E+03  0.7818608E-02  0.9996169E-01
         -1   -1    0    0    0  501 -0.00000000000E+00  0.00000000000E+00  0.18079343601E+03  0.18079343608E+03  0.50400000000E-02 0.  1.
          1   -1    0    0  501    0  0.00000000000E+00 -0.00000000000E+00 -0.24252074497E+04  0.24252074497E+04  0.50400000000E-02 0. -1.
    8880022    1    1    2    0    0 -0.39571060622E+03  0.36275676357E+03 -0.42124661105E+03  0.69929944497E+03  0.15294330000E+03 0.  1.
    8880022    1    1    2    0    0  0.39571060622E+03 -0.36275676357E+03 -0.18231674026E+04  0.19067014408E+04  0.15294330000E+03 0.  0.
<mgrwt>
<rscale>  0 0.55818546E+03</rscale>
<asrwt>0</asrwt>
<pdfrwt beam="1">  1        1 0.37310881E+00 0.55818546E+03</pdfrwt>
<pdfrwt beam="2">  1       -1 0.27814377E-01 0.55818546E+03</pdfrwt>
<totfact> 0.19237568E+01</totfact>
</mgrwt>
</event>
<event>
 4    1  0.1678003E-008  0.1896590E+04  0.7818608E-02  0.8656556E-01
         -1   -1    0    0    0  501 -0.00000000000E+00  0.00000000000E+00  0.17817000577E+04  0.17817000577E+04  0.50400000000E-02 0.  1.
          1   -1    0    0  501    0  0.00000000000E+00 -0.00000000000E+00 -0.33519825423E+04  0.33519825423E+04  0.50400000000E-02 0. -1.
    8880022    1    1    2    0    0  0.10369041858E+04 -0.15806614592E+04  0.83360452035E+03  0.20717019787E+04  0.15294330000E+03 0.  0.
    8880022    1    1    2    0    0 -0.10369041858E+04  0.15806614592E+04 -0.24038870050E+04  0.30619806213E+04  0.15294330000E+03 0.  0.
<mgrwt>
<rscale>  0 0.18965897E+04</rscale>
<asrwt>0</asrwt>
<pdfrwt beam="1">  1        1 0.51568962E+00 0.18965897E+04</pdfrwt>
<pdfrwt beam="2">  1       -1 0.27410770E+00 0.18965897E+04</pdfrwt>
<totfact> 0.14215407E-02</totfact>
</mgrwt>
</event>
<event>
 4    1  0.1678003E-008  0.7417750E+03  0.7818608E-02  0.9648343E-01
         -1   -1    0    0    0  501 -0.00000000000E+00  0.00000000000E+00  0.13256973838E+04  0.13256973838E+04  0.50400000000E-02 0.  1.
          1   -1    0    0  501    0  0.00000000000E+00 -0.00000000000E+00 -0.14576183232E+04  0.14576183232E+04  0.50400000000E-02 0. -1.
    8880022    1    1    2    0    0  0.66193671337E+03 -0.29778889612E+03 -0.12429237763E+04  0.14474424362E+04  0.15294330000E+03 0.  0.
    8880022    1    1    2    0    0 -0.66193671337E+03  0.29778889612E+03  0.11110028370E+04  0.13358732709E+04  0.15294330000E+03 0.  0.
<mgrwt>
<rscale>  0 0.74177496E+03</rscale>
<asrwt>0</asrwt>
<pdfrwt beam="1">  1        1 0.22424897E+00 0.74177496E+03</pdfrwt>
<pdfrwt beam="2">  1       -1 0.20395344E+00 0.74177496E+03</pdfrwt>
<totfact> 0.10433714E+00</totfact>
</mgrwt>
</event>
<event>
 4    1  0.1678003E-008  0.2522411E+03  0.7818608E-02  0.1111897E+00
         -1   -1    0    0    0  501 -0.00000000000E+00  0.00000000000E+00  0.34461648594E+03  0.34461648598E+03  0.50400000000E-02 0.  1.
          1   -1    0    0  501    0  0.00000000000E+00 -0.00000000000E+00 -0.25194134355E+03  0.25194134360E+03  0.50400000000E-02 0. -1.
    8880022    1    1    2    0    0  0.17506071820E+03 -0.97916519297E+02 -0.10784178270E+03  0.27432718225E+03  0.15294330000E+03 0.  0.
    8880022    1    1    2    0    0 -0.17506071820E+03  0.97916519297E+02  0.20051692510E+03  0.32223064733E+03  0.15294330000E+03 0.  0.
<mgrwt>
<rscale>  0 0.25224106E+03</rscale>
<asrwt>0</asrwt>
<pdfrwt beam="1">  1        1 0.38760207E-01 0.25224106E+03</pdfrwt>
<pdfrwt beam="2">  1       -1 0.53017920E-01 0.25224106E+03</pdfrwt>
<totfact> 0.40498504E+02</totfact>
</mgrwt>
</event>
<event>
 4    1  0.1678003E-008  0.7871763E+03  0.7818608E-02  0.9578767E-01
          1   -1    0    0  501    0  0.00000000000E+00  0.00000000000E+00  0.18680170220E+04  0.18680170221E+04  0.50400000000E-02 0. -1.
         -1   -1    0    0    0  501 -0.00000000000E+00 -0.00000000000E+00 -0.62614135213E+03  0.62614135215E+03  0.50400000000E-02 0.  1.
    8880022    1    1    2    0    0 -0.33545300325E+03 -0.69550426559E+03  0.14760975776E+04  0.16728749542E+04  0.15294330000E+03 0.  0.
    8880022    1    1    2    0    0  0.33545300325E+03  0.69550426559E+03 -0.23422190770E+03  0.82128341996E+03  0.15294330000E+03 0.  0.
<mgrwt>
<rscale>  0 0.78717632E+03</rscale>
<asrwt>0</asrwt>
<pdfrwt beam="1">  1        1 0.28738723E+00 0.78717632E+03</pdfrwt>
<pdfrwt beam="2">  1       -1 0.96329440E-01 0.78717632E+03</pdfrwt>
<totfact> 0.39607292E+00</totfact>
</mgrwt>
</event>
<event>
 4    1  0.1678003E-008  0.3624373E+03  0.7818608E-02  0.1057623E+00
         -1   -1    0    0    0  501 -0.00000000000E+00  0.00000000000E+00  0.66646854179E+02  0.66646854370E+02  0.50400000000E-02 0.  1.
          1   -1    0    0  501    0  0.00000000000E+00 -0.00000000000E+00 -0.29332900693E+04  0.29332900693E+04  0.50400000000E-02 0. -1.
    8880022    1    1    2    0    0  0.28299505715E+03  0.16698192396E+03 -0.22924499941E+04  0.23209239096E+04  0.15294330000E+03 0.  0.
    8880022    1    1    2    0    0 -0.28299505715E+03 -0.16698192396E+03 -0.57419322094E+03  0.67901301408E+03  0.15294330000E+03 0.  0.
<mgrwt>
<rscale>  0 0.36243733E+03</rscale>
<asrwt>0</asrwt>
<pdfrwt beam="1">  1        1 0.45127530E+00 0.36243733E+03</pdfrwt>
<pdfrwt beam="2">  1       -1 0.10253364E-01 0.36243733E+03</pdfrwt>
<totfact> 0.45975256E+01</totfact>
</mgrwt>
</event>
<event>
 4    1  0.1678003E-008  0.8532437E+03  0.7818608E-02  0.9485994E-01
         -1   -1    0    0    0  501 -0.00000000000E+00  0.00000000000E+00  0.96979677702E+03  0.96979677704E+03  0.50400000000E-02 0.  1.
          1   -1    0    0  501    0  0.00000000000E+00 -0.00000000000E+00 -0.10485668735E+04  0.10485668735E+04  0.50400000000E-02 0. -1.
    8880022    1    1    2    0    0 -0.83262911338E+03  0.10659235882E+03  0.49849281659E+03  0.98819022086E+03  0.15294330000E+03 0.  1.
    8880022    1    1    2    0    0  0.83262911338E+03 -0.10659235882E+03 -0.57726291305E+03  0.10301734297E+04  0.15294330000E+03 0.  0.
<mgrwt>
<rscale>  0 0.85324371E+03</rscale>
<asrwt>0</asrwt>
<pdfrwt beam="1">  1        1 0.16131798E+00 0.85324371E+03</pdfrwt>
<pdfrwt beam="2">  1       -1 0.14919950E+00 0.85324371E+03</pdfrwt>
<totfact> 0.50158036E+00</totfact>
</mgrwt>
</event>
<event>
 4    1  0.1678003E-008  0.2472936E+03  0.7818608E-02  0.1115027E+00
         -1   -1    0    0    0  501 -0.00000000000E+00  0.00000000000E+00  0.37665783029E+03  0.37665783033E+03  0.50400000000E-02 0.  1.
          1   -1    0    0  501    0  0.00000000000E+00 -0.00000000000E+00 -0.21210168737E+03  0.21210168743E+03  0.50400000000E-02 0. -1.
    8880022    1    1    2    0    0  0.74762471769E+02 -0.17936841455E+03 -0.60281637811E+02  0.25453483887E+03  0.15294330000E+03 0.  0.
    8880022    1    1    2    0    0 -0.74762471769E+02  0.17936841455E+03  0.22483778073E+03  0.33422467890E+03  0.15294330000E+03 0.  0.
<mgrwt>
<rscale>  0 0.24729357E+03</rscale>
<asrwt>0</asrwt>
<pdfrwt beam="1">  1        1 0.32631029E-01 0.24729357E+03</pdfrwt>
<pdfrwt beam="2">  1       -1 0.57947358E-01 0.24729357E+03</pdfrwt>
<totfact> 0.42529456E+02</totfact>
</mgrwt>
</event>
<event>
 4    1  0.1678003E-008  0.3138538E+03  0.7818608E-02  0.1078513E+00
          1   -1    0    0  501    0  0.00000000000E+00  0.00000000000E+00  0.15320106584E+04  0.15320106584E+04  0.50400000000E-02 0. -1.
         -1   -1    0    0    0  501 -0.00000000000E+00 -0.00000000000E+00 -0.78333070396E+02  0.78333070558E+02  0.50400000000E-02 0.  1.
    8880022    1    1    2    0    0 -0.10114212370E+03 -0.25472111857E+03  0.10676652676E+04  0.11128402195E+04  0.15294330000E+03 0.  0.
    8880022    1    1    2    0    0  0.10114212370E+03  0.25472111857E+03  0.38601232040E+03  0.49750350948E+03  0.15294330000E+03 0.  0.
<mgrwt>
<rscale>  0 0.31385384E+03</rscale>
<asrwt>0</asrwt>
<pdfrwt beam="1">  1        1 0.23569395E+00 0.31385384E+03</pdfrwt>
<pdfrwt beam="2">  1       -1 0.12051241E-01 0.31385384E+03</pdfrwt>
<totfact> 0.30924231E+02</totfact>
</mgrwt>
</event>
<event>
 4    1  0.1678003E-008  0.4729239E+03  0.7818608E-02  0.1021098E+00
         -1   -1    0    0    0  501 -0.00000000000E+00  0.00000000000E+00  0.47340679866E+03  0.47340679869E+03  0.50400000000E-02 0.  1.
          1   -1    0    0  501    0  0.00000000000E+00 -0.00000000000E+00 -0.96807008623E+03  0.96807008624E+03  0.50400000000E-02 0. -1.
    8880022    1    1    2    0    0  0.96069032050E+02 -0.43707678559E+03  0.26837467256E+03  0.54376648785E+03  0.15294330000E+03 0.  0.
    8880022    1    1    2    0    0 -0.96069032050E+02  0.43707678559E+03 -0.76303796012E+03  0.89771039708E+03  0.15294330000E+03 0.  0.
<mgrwt>
<rscale>  0 0.47292391E+03</rscale>
<asrwt>0</asrwt>
<pdfrwt beam="1">  1        1 0.14893386E+00 0.47292391E+03</pdfrwt>
<pdfrwt beam="2">  1       -1 0.72831815E-01 0.47292391E+03</pdfrwt>
<totfact> 0.32494977E+01</totfact>
</mgrwt>
</event>
<event>
 4    1  0.1678003E-008  0.4520885E+03  0.7818608E-02  0.1027101E+00
          1   -1    0    0  501    0  0.00000000000E+00  0.00000000000E+00  0.92018345143E+03  0.92018345145E+03  0.50400000000E-02 0. -1.
         -1   -1    0    0    0  501 -0.00000000000E+00 -0.00000000000E+00 -0.56001407788E+03  0.56001407790E+03  0.50400000000E-02 0.  1.
    8880022    1    1    2    0    0 -0.20169352366E+03 -0.37458248836E+03 -0.39480631286E+03  0.60021329189E+03  0.15294330000E+03 0.  0.
    8880022    1    1    2    0    0  0.20169352366E+03  0.37458248836E+03  0.75497568642E+03  0.87998423746E+03  0.15294330000E+03 0.  0.
<mgrwt>
<rscale>  0 0.45208845E+03</rscale>
<asrwt>0</asrwt>
<pdfrwt beam="1">  1        1 0.14156668E+00 0.45208845E+03</pdfrwt>
<pdfrwt beam="2">  1       -1 0.86156012E-01 0.45208845E+03</pdfrwt>
<totfact> 0.25002212E+01</totfact>
</mgrwt>
</event>
<event>
 4    1  0.1678003E-008  0.1578131E+04  0.7818608E-02  0.8834097E-01
         -1   -1    0    0    0  501 -0.00000000000E+00  0.00000000000E+00  0.10636887413E+04  0.10636887413E+04  0.50400000000E-02 0.  1.
          1   -1    0    0  501    0  0.00000000000E+00 -0.00000000000E+00 -0.28825796408E+04  0.28825796408E+04  0.50400000000E-02 0. -1.
    8880022    1    1    2    0    0 -0.96107452095E+03 -0.12423535109E+04 -0.17644043682E+04  0.23671968461E+04  0.15294330000E+03 0.  0.
    8880022    1    1    2    0    0  0.96107452095E+03  0.12423535109E+04 -0.54486531355E+02  0.15790715360E+04  0.15294330000E+03 0.  0.
<mgrwt>
<rscale>  0 0.15781312E+04</rscale>
<asrwt>0</asrwt>
<pdfrwt beam="1">  1        1 0.44347379E+00 0.15781312E+04</pdfrwt>
<pdfrwt beam="2">  1       -1 0.16364442E+00 0.15781312E+04</pdfrwt>
<totfact> 0.18771864E-01</totfact>
</mgrwt>
</event>
<event>
 4    1  0.1678003E-008  0.1657761E+04  0.7818608E-02  0.8785828E-01
          1   -1    0    0  501    0  0.00000000000E+00  0.00000000000E+00  0.22090739212E+04  0.22090739212E+04  0.50400000000E-02 0. -1.
         -1   -1    0    0    0  501 -0.00000000000E+00 -0.00000000000E+00 -0.14500226566E+04  0.14500226566E+04  0.50400000000E-02 0.  1.
    8880022    1    1    2    0    0 -0.11017682752E+04  0.12291817791E+04  0.10690878782E+04  0.19725926398E+04  0.15294330000E+03 0.  0.
    8880022    1    1    2    0    0  0.11017682752E+04 -0.12291817791E+04 -0.31003661354E+03  0.16865039380E+04  0.15294330000E+03 0.  0.
<mgrwt>
<rscale>  0 0.16577614E+04</rscale>
<asrwt>0</asrwt>
<pdfrwt beam="1">  1        1 0.33985753E+00 0.16577614E+04</pdfrwt>
<pdfrwt beam="2">  1       -1 0.22308041E+00 0.16577614E+04</pdfrwt>
<totfact> 0.20899111E-01</totfact>
</mgrwt>
</event>
<event>
 4    1  0.1678003E-008  0.2578165E+03  0.7818608E-02  0.1108462E+00
         -1   -1    0    0    0  501 -0.00000000000E+00  0.00000000000E+00  0.54541284191E+02  0.54541284424E+02  0.50400000000E-02 0.  1.
          1   -1    0    0  501    0  0.00000000000E+00 -0.00000000000E+00 -0.32804232116E+04  0.32804232116E+04  0.50400000000E-02 0. -1.
    8880022    1    1    2    0    0  0.19281509544E+03 -0.76811696830E+02 -0.29100116367E+03  0.38878146570E+03  0.15294330000E+03 0.  1.
    8880022    1    1    2    0    0 -0.19281509544E+03  0.76811696830E+02 -0.29348807637E+04  0.29461830303E+04  0.15294330000E+03 0.  0.
<mgrwt>
<rscale>  0 0.25781651E+03</rscale>
<asrwt>0</asrwt>
<pdfrwt beam="1">  1        1 0.50468034E+00 0.25781651E+03</pdfrwt>
<pdfrwt beam="2">  1       -1 0.83909694E-02 0.25781651E+03</pdfrwt>
<totfact> 0.36766731E+01</totfact>
</mgrwt>
</event>
<event>
 4    1  0.1678003E-008  0.3323151E+03  0.7818608E-02  0.1070117E+00
          1   -1    0    0  501    0  0.00000000000E+00  0.00000000000E+00  0.14609703653E+04  0.14609703653E+04  0.50400000000E-02 0. -1.
         -1   -1    0    0    0  501 -0.00000000000E+00 -0.00000000000E+00 -0.66993692706E+03  0.66993692708E+03  0.50400000000E-02 0.  1.
    8880022    1    1    2    0    0 -0.59585793449E+02  0.28894848978E+03 -0.60803084832E+03  0.69291764449E+03  0.15294330000E+03 0.  0.
    8880022    1    1    2    0    0  0.59585793449E+02 -0.28894848978E+03  0.13990642865E+04  0.14379896478E+04  0.15294330000E+03 0. -1.
<mgrwt>
<rscale>  0 0.33231514E+03</rscale>
<asrwt>0</asrwt>
<pdfrwt beam="1">  1        1 0.22476467E+00 0.33231514E+03</pdfrwt>
<pdfrwt beam="2">  1       -1 0.10306722E+00 0.33231514E+03</pdfrwt>
<totfact> 0.71139822E+00</totfact>
</mgrwt>
</event>
<event>
 4    1  0.1678003E-008  0.2637623E+03  0.7818608E-02  0.1104904E+00
         -1   -1    0    0    0  501 -0.00000000000E+00  0.00000000000E+00  0.18427409978E+03  0.18427409985E+03  0.50400000000E-02 0.  1.
          1   -1    0    0  501    0  0.00000000000E+00 -0.00000000000E+00 -0.98177371917E+03  0.98177371919E+03  0.50400000000E-02 0. -1.
    8880022    1    1    2    0    0  0.10295015693E+03 -0.18862704437E+03  0.58637084229E+02  0.27020151247E+03  0.15294330000E+03 0.  1.
    8880022    1    1    2    0    0 -0.10295015693E+03  0.18862704437E+03 -0.85613670362E+03  0.89584630657E+03  0.15294330000E+03 0.  0.
<mgrwt>
<rscale>  0 0.26376230E+03</rscale>
<asrwt>0</asrwt>
<pdfrwt beam="1">  1        1 0.15104211E+00 0.26376230E+03</pdfrwt>
<pdfrwt beam="2">  1       -1 0.28349862E-01 0.26376230E+03</pdfrwt>
<totfact> 0.18790368E+02</totfact>
</mgrwt>
</event>
<event>
 4    1  0.1678003E-008  0.7200738E+03  0.7818608E-02  0.9683506E-01
         -1   -1    0    0    0  501 -0.00000000000E+00  0.00000000000E+00  0.11463269785E+04  0.11463269785E+04  0.50400000000E-02 0.  1.
          1   -1    0    0  501    0  0.00000000000E+00 -0.00000000000E+00 -0.14755802422E+04  0.14755802422E+04  0.50400000000E-02 0. -1.
    8880022    1    1    2    0    0  0.38066266310E+03 -0.59178593659E+03  0.92706257203E+03  0.11738617139E+04  0.15294330000E+03 0.  0.
    8880022    1    1    2    0    0 -0.38066266310E+03  0.59178593659E+03 -0.12563158357E+04  0.14480455069E+04  0.15294330000E+03 0.  0.
<mgrwt>
<rscale>  0 0.72007382E+03</rscale>
<asrwt>0</asrwt>
<pdfrwt beam="1">  1        1 0.22701235E+00 0.72007382E+03</pdfrwt>
<pdfrwt beam="2">  1       -1 0.17635800E+00 0.72007382E+03</pdfrwt>
<totfact> 0.15867912E+00</totfact>
</mgrwt>
</event>
<event>
 4    1  0.1678003E-008  0.7170893E+03  0.7818608E-02  0.9688445E-01
         -1   -1    0    0    0  501 -0.00000000000E+00  0.00000000000E+00  0.63259524300E+03  0.63259524302E+03  0.50400000000E-02 0.  1.
          1   -1    0    0  501    0  0.00000000000E+00 -0.00000000000E+00 -0.13225707550E+04  0.13225707550E+04  0.50400000000E-02 0. -1.
    8880022    1    1    2    0    0  0.83699165091E+02  0.69557164926E+03  0.26189137953E+03  0.76341614941E+03  0.15294330000E+03 0.  0.
    8880022    1    1    2    0    0 -0.83699165091E+02 -0.69557164926E+03 -0.95186689152E+03  0.11917498486E+04  0.15294330000E+03 0.  0.
<mgrwt>
<rscale>  0 0.71708934E+03</rscale>
<asrwt>0</asrwt>
<pdfrwt beam="1">  1        1 0.20347242E+00 0.71708934E+03</pdfrwt>
<pdfrwt beam="2">  1       -1 0.97322345E-01 0.71708934E+03</pdfrwt>
<totfact> 0.92056465E+00</totfact>
</mgrwt>
</event>
<event>
 4    1  0.1678003E-008  0.1861559E+03  0.7818608E-02  0.1161975E+00
          1   -1    0    0  501    0  0.00000000000E+00  0.00000000000E+00  0.53295282774E+03  0.53295282776E+03  0.50400000000E-02 0. -1.
         -1   -1    0    0    0  501 -0.00000000000E+00 -0.00000000000E+00 -0.17358269006E+03  0.17358269013E+03  0.50400000000E-02 0.  1.
    8880022    1    1    2    0    0  0.84871633709E+02  0.63711714483E+02  0.45905888567E+03  0.49536763146E+03  0.15294330000E+03 0.  0.
    8880022    1    1    2    0    0 -0.84871633709E+02 -0.63711714483E+02 -0.99688747987E+02  0.21116788643E+03  0.15294330000E+03 0.  1.
<mgrwt>
<rscale>  0 0.18615593E+03</rscale>
<asrwt>0</asrwt>
<pdfrwt beam="1">  1        1 0.81992743E-01 0.18615593E+03</pdfrwt>
<pdfrwt beam="2">  1       -1 0.26705029E-01 0.18615593E+03</pdfrwt>
<totfact> 0.52111271E+02</totfact>
</mgrwt>
</event>
<event>
 4    1  0.1678003E-008  0.2768079E+03  0.7818608E-02  0.1097445E+00
         -1   -1    0    0    0  501 -0.00000000000E+00  0.00000000000E+00  0.20540663121E+03  0.20540663127E+03  0.50400000000E-02 0.  1.
          1   -1    0    0  501    0  0.00000000000E+00 -0.00000000000E+00 -0.22753807272E+04  0.22753807272E+04  0.50400000000E-02 0. -1.
    8880022    1    1    2    0    0  0.20885622191E+03 -0.98030676429E+02  0.99182386241E+02  0.29404036068E+03  0.15294330000E+03 0.  0.
    8880022    1    1    2    0    0 -0.20885622191E+03  0.98030676429E+02 -0.21691564822E+04  0.21867469978E+04  0.15294330000E+03 0. -1.
<mgrwt>
<rscale>  0 0.27680785E+03</rscale>
<asrwt>0</asrwt>
<pdfrwt beam="1">  1        1 0.35005856E+00 0.27680785E+03</pdfrwt>
<pdfrwt beam="2">  1       -1 0.31601022E-01 0.27680785E+03</pdfrwt>
<totfact> 0.21037692E+01</totfact>
</mgrwt>
</event>
<event>
 4    1  0.1678003E-008  0.8240614E+03  0.7818608E-02  0.9525828E-01
          1   -1    0    0  501    0  0.00000000000E+00  0.00000000000E+00  0.21665003349E+04  0.21665003349E+04  0.50400000000E-02 0. -1.
         -1   -1    0    0    0  501 -0.00000000000E+00 -0.00000000000E+00 -0.71885499973E+03  0.71885499975E+03  0.50400000000E-02 0.  1.
    8880022    1    1    2    0    0  0.57677874443E+03 -0.56834133514E+03 -0.35959583269E+03  0.89910311375E+03  0.15294330000E+03 0.  0.
    8880022    1    1    2    0    0 -0.57677874443E+03  0.56834133514E+03  0.18072411678E+04  0.19862522209E+04  0.15294330000E+03 0.  0.
<mgrwt>
<rscale>  0 0.82406143E+03</rscale>
<asrwt>0</asrwt>
<pdfrwt beam="1">  1        1 0.33330774E+00 0.82406143E+03</pdfrwt>
<pdfrwt beam="2">  1       -1 0.11059308E+00 0.82406143E+03</pdfrwt>
<totfact> 0.18047675E+00</totfact>
</mgrwt>
</event>
<event>
 4    1  0.1678003E-008  0.6926922E+03  0.7818608E-02  0.9729812E-01
         -1   -1    0    0    0  501 -0.00000000000E+00  0.00000000000E+00  0.19949395187E+04  0.19949395187E+04  0.50400000000E-02 0.  1.
          1   -1    0    0  501    0  0.00000000000E+00 -0.00000000000E+00 -0.36717271781E+03  0.36717271785E+03  0.50400000000E-02 0. -1.
    8880022    1    1    2    0    0  0.67353511150E+03 -0.52738308423E+02  0.15075373562E+04  0.16590634132E+04  0.15294330000E+03 0.  0.
    8880022    1    1    2    0    0 -0.67353511150E+03  0.52738308423E+02  0.12022944463E+03  0.70304882331E+03  0.15294330000E+03 0.  0.
<mgrwt>
<rscale>  0 0.69269223E+03</rscale>
<asrwt>0</asrwt>
<pdfrwt beam="1">  1        1 0.56488110E-01 0.69269223E+03</pdfrwt>
<pdfrwt beam="2">  1       -1 0.30691377E+00 0.69269223E+03</pdfrwt>
<totfact> 0.21269922E+00</totfact>
</mgrwt>
</event>
<event>
 4    1  0.1678003E-008  0.2507273E+03  0.7818608E-02  0.1112846E+00
          1   -1    0    0  501    0  0.00000000000E+00  0.00000000000E+00  0.43295686338E+03  0.43295686341E+03  0.50400000000E-02 0. -1.
         -1   -1    0    0    0  501 -0.00000000000E+00 -0.00000000000E+00 -0.18194612366E+03  0.18194612373E+03  0.50400000000E-02 0.  1.
    8880022    1    1    2    0    0 -0.19867658474E+03  0.36747068948E+00  0.26367953385E+03  0.36385583676E+03  0.15294330000E+03 0.  1.
    8880022    1    1    2    0    0  0.19867658474E+03 -0.36747068948E+00 -0.12668794134E+02  0.25104715039E+03  0.15294330000E+03 0.  0.
<mgrwt>
<rscale>  0 0.25072729E+03</rscale>
<asrwt>0</asrwt>
<pdfrwt beam="1">  1        1 0.66608747E-01 0.25072729E+03</pdfrwt>
<pdfrwt beam="2">  1       -1 0.27991712E-01 0.25072729E+03</pdfrwt>
<totfact> 0.63149165E+02</totfact>
</mgrwt>
</event>
<event>
 4    1  0.1678003E-008  0.3989597E+03  0.7818608E-02  0.1044140E+00
          1   -1    0    0  501    0  0.00000000000E+00  0.00000000000E+00  0.14027217262E+04  0.14027217262E+04  0.50400000000E-02 0. -1.
         -1   -1    0    0    0  501 -0.00000000000E+00 -0.00000000000E+00 -0.36102245959E+03  0.36102245962E+03  0.50400000000E-02 0.  1.
    8880022    1    1    2    0    0 -0.13594559369E+03  0.34248498932E+03  0.12510984583E+04  0.13131702775E+04  0.15294330000E+03 0.  0.
    8880022    1    1    2    0    0  0.13594559369E+03 -0.34248498932E+03 -0.20939919170E+03  0.45057390831E+03  0.15294330000E+03 0.  0.
<mgrwt>
<rscale>  0 0.39895968E+03</rscale>
<asrwt>0</asrwt>
<pdfrwt beam="1">  1        1 0.21580334E+00 0.39895968E+03</pdfrwt>
<pdfrwt beam="2">  1       -1 0.55541917E-01 0.39895968E+03</pdfrwt>
<totfact> 0.27450715E+01</totfact>
</mgrwt>
</event>
<event>
 4    1  0.1678003E-008  0.1035707E+04  0.7818608E-02  0.9270227E-01
         -1   -1    0    0    0  501 -0.00000000000E+00  0.00000000000E+00  0.98092200048E+03  0.98092200049E+03  0.50400000000E-02 0.  1.
          1   -1    0    0  501    0  0.00000000000E+00 -0.00000000000E+00 -0.24741168365E+04  0.24741168365E+04  0.50400000000E-02 0. -1.
    8880022    1    1    2    0    0 -0.85062442577E+03  0.57073159467E+03  0.54385327429E+03  0.11698138757E+04  0.15294330000E+03 0.  0.
    8880022    1    1    2    0    0  0.85062442577E+03 -0.57073159467E+03 -0.20370481103E+04  0.22852249613E+04  0.15294330000E+03 0.  0.
<mgrwt>
<rscale>  0 0.10357066E+04</rscale>
<asrwt>0</asrwt>
<pdfrwt beam="1">  1        1 0.38063336E+00 0.10357066E+04</pdfrwt>
<pdfrwt beam="2">  1       -1 0.15091108E+00 0.10357066E+04</pdfrwt>
<totfact> 0.49036920E-01</totfact>
</mgrwt>
</event>
<event>
 4    1  0.1678003E-008  0.3224802E+03  0.7818608E-02  0.1074513E+00
         -1   -1    0    0    0  501 -0.00000000000E+00  0.00000000000E+00  0.21576723728E+03  0.21576723734E+03  0.50400000000E-02 0.  1.
          1   -1    0    0  501    0  0.00000000000E+00 -0.00000000000E+00 -0.21174480761E+04  0.21174480761E+04  0.50400000000E-02 0. -1.
    8880022    1    1    2    0    0 -0.19764456482E+02 -0.28321581159E+03  0.74435389593E+02  0.33095937804E+03  0.15294330000E+03 0.  0.
    8880022    1    1    2    0    0  0.19764456482E+02  0.28321581159E+03 -0.19761162285E+04  0.20022559354E+04  0.15294330000E+03 0.  0.
<mgrwt>
<rscale>  0 0.32248021E+03</rscale>
<asrwt>0</asrwt>
<pdfrwt beam="1">  1        1 0.32576123E+00 0.32248021E+03</pdfrwt>
<pdfrwt beam="2">  1       -1 0.33194961E-01 0.32248021E+03</pdfrwt>
<totfact> 0.24107196E+01</totfact>
</mgrwt>
</event>
<event>
 4    1  0.2295944E-008  0.7416478E+03  0.7818608E-02  0.9648546E-01
          1   -1    0    0  501    0  0.00000000000E+00  0.00000000000E+00  0.11188046143E+04  0.11188046143E+04  0.50400000000E-02 0. -1.
         -1   -1    0    0    0  501 -0.00000000000E+00 -0.00000000000E+00 -0.18122946002E+04  0.18122946003E+04  0.50400000000E-02 0.  1.
    8880022    1    1    2    0    0  0.86620720979E+02  0.72051830808E+03 -0.15978157592E+04  0.17615494983E+04  0.15294330000E+03 0.  0.
    8880022    1    1    2    0    0 -0.86620720979E+02 -0.72051830808E+03  0.90432577330E+03  0.11695497163E+04  0.15294330000E+03 0.  0.
<mgrwt>
<rscale>  0 0.74164778E+03</rscale>
<asrwt>0</asrwt>
<pdfrwt beam="1">  1        1 0.17212379E+00 0.74164778E+03</pdfrwt>
<pdfrwt beam="2">  1       -1 0.27881455E+00 0.74164778E+03</pdfrwt>
<totfact> 0.59018687E-01</totfact>
</mgrwt>
</event>
<event>
 4    1  0.1678003E-008  0.5755259E+03  0.7818608E-02  0.9957525E-01
         -1   -1    0    0    0  501 -0.00000000000E+00  0.00000000000E+00  0.24351054224E+03  0.24351054230E+03  0.50400000000E-02 0.  1.
          1   -1    0    0  501    0  0.00000000000E+00 -0.00000000000E+00 -0.14333058624E+04  0.14333058624E+04  0.50400000000E-02 0. -1.
    8880022    1    1    2    0    0 -0.52904173496E+03 -0.16719217695E+03 -0.40558622658E+03  0.70408111860E+03  0.15294330000E+03 0.  0.
    8880022    1    1    2    0    0  0.52904173496E+03  0.16719217695E+03 -0.78420909356E+03  0.97273528609E+03  0.15294330000E+03 0.  0.
<mgrwt>
<rscale>  0 0.57552588E+03</rscale>
<asrwt>0</asrwt>
<pdfrwt beam="1">  1        1 0.22050859E+00 0.57552588E+03</pdfrwt>
<pdfrwt beam="2">  1       -1 0.37463161E-01 0.57552588E+03</pdfrwt>
<totfact> 0.52434381E+01</totfact>
</mgrwt>
</event>
<event>
 4    1  0.1678003E-008  0.5317755E+03  0.7818608E-02  0.1005802E+00
         -1   -1    0    0    0  501 -0.00000000000E+00  0.00000000000E+00  0.16733388457E+04  0.16733388457E+04  0.50400000000E-02 0.  1.
          1   -1    0    0  501    0  0.00000000000E+00 -0.00000000000E+00 -0.31496413398E+03  0.31496413402E+03  0.50400000000E-02 0. -1.
    8880022    1    1    2    0    0 -0.71800358124E+01  0.50925633983E+03  0.13559761050E+04  0.14565220296E+04  0.15294330000E+03 0.  0.
    8880022    1    1    2    0    0  0.71800358124E+01 -0.50925633983E+03  0.23986067771E+01  0.53178095011E+03  0.15294330000E+03 0.  0.
<mgrwt>
<rscale>  0 0.53177554E+03</rscale>
<asrwt>0</asrwt>
<pdfrwt beam="1">  1        1 0.48456021E-01 0.53177554E+03</pdfrwt>
<pdfrwt beam="2">  1       -1 0.25743674E+00 0.53177554E+03</pdfrwt>
<totfact> 0.55281386E+00</totfact>
</mgrwt>
</event>
<event>
 4    1  0.1678003E-008  0.2576435E+03  0.7818608E-02  0.1108567E+00
         -1   -1    0    0    0  501 -0.00000000000E+00  0.00000000000E+00  0.16347456598E+04  0.16347456599E+04  0.50400000000E-02 0.  1.
          1   -1    0    0  501    0  0.00000000000E+00 -0.00000000000E+00 -0.98736813603E+02  0.98736813732E+02  0.50400000000E-02 0. -1.
    8880022    1    1    2    0    0  0.13096150106E+03  0.16074078246E+03  0.10295514416E+03  0.27745257005E+03  0.15294330000E+03 0.  0.
    8880022    1    1    2    0    0 -0.13096150106E+03 -0.16074078246E+03  0.14330537021E+04  0.14560299035E+04  0.15294330000E+03 0.  1.
<mgrwt>
<rscale>  0 0.25764349E+03</rscale>
<asrwt>0</asrwt>
<pdfrwt beam="1">  1        1 0.15190281E-01 0.25764349E+03</pdfrwt>
<pdfrwt beam="2">  1       -1 0.25149930E+00 0.25764349E+03</pdfrwt>
<totfact> 0.28658523E+01</totfact>
</mgrwt>
</event>
<event>
 4    1  0.1678003E-008  0.1865457E+03  0.7818608E-02  0.1161614E+00
          1   -1    0    0  501    0  0.00000000000E+00  0.00000000000E+00  0.18992102820E+03  0.18992102827E+03  0.50400000000E-02 0. -1.
         -1   -1    0    0    0  501 -0.00000000000E+00 -0.00000000000E+00 -0.69796981239E+03  0.69796981241E+03  0.50400000000E-02 0.  1.
    8880022    1    1    2    0    0  0.53953240106E+01  0.10667014753E+03 -0.63527015255E+03  0.66209323334E+03  0.15294330000E+03 0.  0.
    8880022    1    1    2    0    0 -0.53953240106E+01 -0.10667014753E+03  0.12722136836E+03  0.22579760734E+03  0.15294330000E+03 0. -1.
<mgrwt>
<rscale>  0 0.18654566E+03</rscale>
<asrwt>0</asrwt>
<pdfrwt beam="1">  1        1 0.29218620E-01 0.18654566E+03</pdfrwt>
<pdfrwt beam="2">  1       -1 0.10737997E+00 0.18654566E+03</pdfrwt>
<totfact> 0.13698654E+02</totfact>
</mgrwt>
</event>
<event>
 4    1  0.1678003E-008  0.5541570E+03  0.7818608E-02  0.1000536E+00
         -1   -1    0    0    0  501 -0.00000000000E+00  0.00000000000E+00  0.16397888902E+04  0.16397888902E+04  0.50400000000E-02 0.  1.
          1   -1    0    0  501    0  0.00000000000E+00 -0.00000000000E+00 -0.19315942020E+03  0.19315942027E+03  0.50400000000E-02 0. -1.
    8880022    1    1    2    0    0  0.41382516356E+03 -0.33533121748E+03  0.88328833532E+03  0.10427311388E+04  0.15294330000E+03 0.  0.
    8880022    1    1    2    0    0 -0.41382516356E+03  0.33533121748E+03  0.56334113465E+03  0.79021717168E+03  0.15294330000E+03 0.  0.
<mgrwt>
<rscale>  0 0.55415697E+03</rscale>
<asrwt>0</asrwt>
<pdfrwt beam="1">  1        1 0.29716834E-01 0.55415697E+03</pdfrwt>
<pdfrwt beam="2">  1       -1 0.25227521E+00 0.55415697E+03</pdfrwt>
<totfact> 0.11142246E+01</totfact>
</mgrwt>
</event>
<event>
 4    1  0.1678003E-008  0.3191704E+03  0.7818608E-02  0.1076032E+00
         -1   -1    0    0    0  501 -0.00000000000E+00  0.00000000000E+00  0.53766541104E+03  0.53766541107E+03  0.50400000000E-02 0.  1.
          1   -1    0    0  501    0  0.00000000000E+00 -0.00000000000E+00 -0.50906914170E+03  0.50906914173E+03  0.50400000000E-02 0. -1.
    8880022    1    1    2    0    0  0.48551892311E+02  0.27590004606E+03  0.42898770952E+03  0.53469639011E+03  0.15294330000E+03 0.  0.
    8880022    1    1    2    0    0 -0.48551892311E+02 -0.27590004606E+03 -0.40039144018E+03  0.51203816268E+03  0.15294330000E+03 0.  0.
<mgrwt>
<rscale>  0 0.31917045E+03</rscale>
<asrwt>0</asrwt>
<pdfrwt beam="1">  1        1 0.78318330E-01 0.31917045E+03</pdfrwt>
<pdfrwt beam="2">  1       -1 0.82717755E-01 0.31917045E+03</pdfrwt>
<totfact> 0.67313479E+01</totfact>
</mgrwt>
</event>
<event>
 4    1  0.1678003E-008  0.1044342E+04  0.7818608E-02  0.9261205E-01
         -1   -1    0    0    0  501 -0.00000000000E+00  0.00000000000E+00  0.96069075893E+03  0.96069075895E+03  0.50400000000E-02 0.  1.
          1   -1    0    0  501    0  0.00000000000E+00 -0.00000000000E+00 -0.15929691734E+04  0.15929691734E+04  0.50400000000E-02 0. -1.
    8880022    1    1    2    0    0 -0.90698177450E+03 -0.49461286731E+03 -0.10005493561E+04  0.14462878326E+04  0.15294330000E+03 0.  0.
    8880022    1    1    2    0    0  0.90698177450E+03  0.49461286731E+03  0.36827094164E+03  0.11073720997E+04  0.15294330000E+03 0.  0.
<mgrwt>
<rscale>  0 0.10443416E+04</rscale>
<asrwt>0</asrwt>
<pdfrwt beam="1">  1        1 0.24507218E+00 0.10443416E+04</pdfrwt>
<pdfrwt beam="2">  1       -1 0.14779858E+00 0.10443416E+04</pdfrwt>
<totfact> 0.20491370E+00</totfact>
</mgrwt>
</event>
<event>
 4    1  0.1678003E-008  0.1067768E+04  0.7818608E-02  0.9237190E-01
          1   -1    0    0  501    0  0.00000000000E+00  0.00000000000E+00  0.33344239247E+04  0.33344239247E+04  0.50400000000E-02 0. -1.
         -1   -1    0    0    0  501 -0.00000000000E+00 -0.00000000000E+00 -0.53063799318E+03  0.53063799320E+03  0.50400000000E-02 0.  1.
    8880022    1    1    2    0    0  0.59166269457E+03 -0.87559817695E+03  0.24943196988E+03  0.10965148755E+04  0.15294330000E+03 0.  0.
    8880022    1    1    2    0    0 -0.59166269457E+03  0.87559817695E+03  0.25543539617E+04  0.27685470424E+04  0.15294330000E+03 0.  0.
<mgrwt>
<rscale>  0 0.10677680E+04</rscale>
<asrwt>0</asrwt>
<pdfrwt beam="1">  1        1 0.51298829E+00 0.10677680E+04</pdfrwt>
<pdfrwt beam="2">  1       -1 0.81636615E-01 0.10677680E+04</pdfrwt>
<totfact> 0.51399020E-01</totfact>
</mgrwt>
</event>
<event>
 4    1  0.1678003E-008  0.3839550E+03  0.7818608E-02  0.1049482E+00
         -1   -1    0    0    0  501 -0.00000000000E+00  0.00000000000E+00  0.39375434261E+03  0.39375434264E+03  0.50400000000E-02 0.  1.
          1   -1    0    0  501    0  0.00000000000E+00 -0.00000000000E+00 -0.27271568263E+04  0.27271568263E+04  0.50400000000E-02 0. -1.
    8880022    1    1    2    0    0 -0.15975782053E+03 -0.31385863217E+03  0.28268760939E+03  0.47679528072E+03  0.15294330000E+03 0.  0.
    8880022    1    1    2    0    0  0.15975782053E+03  0.31385863217E+03 -0.26160900931E+04  0.26441158882E+04  0.15294330000E+03 0.  0.
<mgrwt>
<rscale>  0 0.38395502E+03</rscale>
<asrwt>0</asrwt>
<pdfrwt beam="1">  1        1 0.41956258E+00 0.38395502E+03</pdfrwt>
<pdfrwt beam="2">  1       -1 0.60577593E-01 0.38395502E+03</pdfrwt>
<totfact> 0.30644749E+00</totfact>
</mgrwt>
</event>
<event>
 4    1  0.1678003E-008  0.1035341E+04  0.7818608E-02  0.9270611E-01
         -1   -1    0    0    0  501 -0.00000000000E+00  0.00000000000E+00  0.15526784140E+04  0.15526784140E+04  0.50400000000E-02 0.  1.
          1   -1    0    0  501    0  0.00000000000E+00 -0.00000000000E+00 -0.12044950336E+04  0.12044950336E+04  0.50400000000E-02 0. -1.
    8880022    1    1    2    0    0  0.82711117130E+03  0.60367766404E+03 -0.72657396546E+03  0.12648482091E+04  0.15294330000E+03 0.  0.
    8880022    1    1    2    0    0 -0.82711117130E+03 -0.60367766404E+03  0.10747573459E+04  0.14923252384E+04  0.15294330000E+03 0.  0.
<mgrwt>
<rscale>  0 0.10353411E+04</rscale>
<asrwt>0</asrwt>
<pdfrwt beam="1">  1        1 0.18530693E+00 0.10353411E+04</pdfrwt>
<pdfrwt beam="2">  1       -1 0.23887360E+00 0.10353411E+04</pdfrwt>
<totfact> 0.87696048E-01</totfact>
</mgrwt>
</event>
<event>
 4    1  0.1678003E-008  0.4570669E+03  0.7818608E-02  0.1025635E+00
          1   -1    0    0  501    0  0.00000000000E+00  0.00000000000E+00  0.43136088801E+03  0.43136088804E+03  0.50400000000E-02 0. -1.
         -1   -1    0    0    0  501 -0.00000000000E+00 -0.00000000000E+00 -0.86297316909E+03  0.86297316910E+03  0.50400000000E-02 0.  1.
    8880022    1    1    2    0    0  0.99412040581E+02  0.41908915977E+03 -0.64450001193E+03  0.79012049464E+03  0.15294330000E+03 0.  0.
    8880022    1    1    2    0    0 -0.99412040581E+02 -0.41908915977E+03  0.21288773085E+03  0.50421356251E+03  0.15294330000E+03 0.  0.
<mgrwt>
<rscale>  0 0.45706688E+03</rscale>
<asrwt>0</asrwt>
<pdfrwt beam="1">  1        1 0.66363214E-01 0.45706688E+03</pdfrwt>
<pdfrwt beam="2">  1       -1 0.13276510E+00 0.45706688E+03</pdfrwt>
<totfact> 0.27686276E+01</totfact>
</mgrwt>
</event>
<event>
 4    1  0.1678003E-008  0.8140895E+03  0.7818608E-02  0.9539844E-01
         -1   -1    0    0    0  501 -0.00000000000E+00  0.00000000000E+00  0.85572999033E+03  0.85572999034E+03  0.50400000000E-02 0.  1.
          1   -1    0    0  501    0  0.00000000000E+00 -0.00000000000E+00 -0.16093568651E+04  0.16093568652E+04  0.50400000000E-02 0. -1.
    8880022    1    1    2    0    0 -0.48070644145E+03  0.63896120343E+03  0.51093207012E+03  0.96114168343E+03  0.15294330000E+03 0.  0.
    8880022    1    1    2    0    0  0.48070644145E+03 -0.63896120343E+03 -0.12645589449E+04  0.15039451721E+04  0.15294330000E+03 0.  0.
<mgrwt>
<rscale>  0 0.81408953E+03</rscale>
<asrwt>0</asrwt>
<pdfrwt beam="1">  1        1 0.24759336E+00 0.81408953E+03</pdfrwt>
<pdfrwt beam="2">  1       -1 0.13165077E+00 0.81408953E+03</pdfrwt>
<totfact> 0.27946889E+00</totfact>
</mgrwt>
</event>
<event>
 4    1  0.1678003E-008  0.7380769E+03  0.7818608E-02  0.9654244E-01
         -1   -1    0    0    0  501 -0.00000000000E+00  0.00000000000E+00  0.96098190119E+03  0.96098190120E+03  0.50400000000E-02 0.  1.
          1   -1    0    0  501    0  0.00000000000E+00 -0.00000000000E+00 -0.13169603117E+04  0.13169603117E+04  0.50400000000E-02 0. -1.
    8880022    1    1    2    0    0 -0.71100961484E+03 -0.12582209707E+03 -0.10375595418E+04  0.12732978160E+04  0.15294330000E+03 0.  0.
    8880022    1    1    2    0    0  0.71100961484E+03  0.12582209707E+03  0.68158113133E+03  0.10046443968E+04  0.15294330000E+03 0.  0.
<mgrwt>
<rscale>  0 0.73807691E+03</rscale>
<asrwt>0</asrwt>
<pdfrwt beam="1">  1        1 0.20260928E+00 0.73807691E+03</pdfrwt>
<pdfrwt beam="2">  1       -1 0.14784337E+00 0.73807691E+03</pdfrwt>
<totfact> 0.33318396E+00</totfact>
</mgrwt>
</event>
<event>
 4    1  0.1678003E-008  0.2016960E+03  0.7818608E-02  0.1148316E+00
         -1   -1    0    0    0  501 -0.00000000000E+00  0.00000000000E+00  0.27992530712E+03  0.27992530716E+03  0.50400000000E-02 0.  1.
          1   -1    0    0  501    0  0.00000000000E+00 -0.00000000000E+00 -0.38390754575E+03  0.38390754578E+03  0.50400000000E-02 0. -1.
    8880022    1    1    2    0    0  0.12927401435E+03 -0.24038751720E+02 -0.31364733085E+03  0.37290204282E+03  0.15294330000E+03 0.  0.
    8880022    1    1    2    0    0 -0.12927401435E+03  0.24038751720E+02  0.20966509222E+03  0.29093081013E+03  0.15294330000E+03 0.  1.
<mgrwt>
<rscale>  0 0.20169602E+03</rscale>
<asrwt>0</asrwt>
<pdfrwt beam="1">  1        1 0.59062699E-01 0.20169602E+03</pdfrwt>
<pdfrwt beam="2">  1       -1 0.43065432E-01 0.20169602E+03</pdfrwt>
<totfact> 0.34952049E+02</totfact>
</mgrwt>
</event>
<event>
 4    1  0.1678003E-008  0.3461363E+03  0.7818608E-02  0.1064212E+00
          1   -1    0    0  501    0  0.00000000000E+00  0.00000000000E+00  0.68077703676E+03  0.68077703678E+03  0.50400000000E-02 0. -1.
         -1   -1    0    0    0  501 -0.00000000000E+00 -0.00000000000E+00 -0.10166176710E+04  0.10166176710E+04  0.50400000000E-02 0.  1.
    8880022    1    1    2    0    0  0.16170450172E+03 -0.26508547617E+03 -0.93966869610E+03  0.10013928135E+04  0.15294330000E+03 0.  0.
    8880022    1    1    2    0    0 -0.16170450172E+03  0.26508547617E+03  0.60382806184E+03  0.69600189428E+03  0.15294330000E+03 0.  0.
<mgrwt>
<rscale>  0 0.34613626E+03</rscale>
<asrwt>0</asrwt>
<pdfrwt beam="1">  1        1 0.10473493E+00 0.34613626E+03</pdfrwt>
<pdfrwt beam="2">  1       -1 0.15640272E+00 0.34613626E+03</pdfrwt>
<totfact> 0.98619475E+00</totfact>
</mgrwt>
</event>
<event>
 4    1  0.1678003E-008  0.5367214E+03  0.7818608E-02  0.1004615E+00
          1   -1    0    0  501    0  0.00000000000E+00  0.00000000000E+00  0.91272146310E+03  0.91272146311E+03  0.50400000000E-02 0. -1.
         -1   -1    0    0    0  501 -0.00000000000E+00 -0.00000000000E+00 -0.45068072349E+03  0.45068072352E+03  0.50400000000E-02 0.  1.
    8880022    1    1    2    0    0 -0.94424735755E+02 -0.50572934549E+03 -0.14216949164E+03  0.55523150035E+03  0.15294330000E+03 0.  0.
    8880022    1    1    2    0    0  0.94424735755E+02  0.50572934549E+03  0.60421023125E+03  0.80817068628E+03  0.15294330000E+03 0.  0.
<mgrwt>
<rscale>  0 0.53672139E+03</rscale>
<asrwt>0</asrwt>
<pdfrwt beam="1">  1        1 0.14041869E+00 0.53672139E+03</pdfrwt>
<pdfrwt beam="2">  1       -1 0.69335496E-01 0.53672139E+03</pdfrwt>
<totfact> 0.39316824E+01</totfact>
</mgrwt>
</event>
<event>
 4    1  0.1678003E-008  0.5678839E+03  0.7818608E-02  0.9974372E-01
          1   -1    0    0  501    0  0.00000000000E+00  0.00000000000E+00  0.26052083183E+04  0.26052083183E+04  0.50400000000E-02 0. -1.
         -1   -1    0    0    0  501 -0.00000000000E+00 -0.00000000000E+00 -0.30531230507E+03  0.30531230511E+03  0.50400000000E-02 0.  1.
    8880022    1    1    2    0    0 -0.11336044467E+03 -0.53502325918E+03  0.22720609287E+04  0.23419549515E+04  0.15294330000E+03 0.  0.
    8880022    1    1    2    0    0  0.11336044467E+03  0.53502325918E+03  0.27835084524E+02  0.56856567187E+03  0.15294330000E+03 0.  1.
<mgrwt>
<rscale>  0 0.56788391E+03</rscale>
<asrwt>0</asrwt>
<pdfrwt beam="1">  1        1 0.40080128E+00 0.56788391E+03</pdfrwt>
<pdfrwt beam="2">  1       -1 0.46971124E-01 0.56788391E+03</pdfrwt>
<totfact> 0.56911823E+00</totfact>
</mgrwt>
</event>
<event>
 4    1  0.1678003E-008  0.2682336E+03  0.7818608E-02  0.1102295E+00
         -1   -1    0    0    0  501 -0.00000000000E+00  0.00000000000E+00  0.22032863382E+03  0.22032863388E+03  0.50400000000E-02 0.  1.
          1   -1    0    0  501    0  0.00000000000E+00 -0.00000000000E+00 -0.47177715750E+03  0.47177715753E+03  0.50400000000E-02 0. -1.
    8880022    1    1    2    0    0  0.21994575795E+03  0.13472169565E+02 -0.31771989258E+03  0.41580670863E+03  0.15294330000E+03 0.  0.
    8880022    1    1    2    0    0 -0.21994575795E+03 -0.13472169565E+02  0.66271368893E+02  0.27629908277E+03  0.15294330000E+03 0.  0.
<mgrwt>
<rscale>  0 0.26823365E+03</rscale>
<asrwt>0</asrwt>
<pdfrwt beam="1">  1        1 0.72581101E-01 0.26823365E+03</pdfrwt>
<pdfrwt beam="2">  1       -1 0.33896713E-01 0.26823365E+03</pdfrwt>
<totfact> 0.40632622E+02</totfact>
</mgrwt>
</event>
<event>
 4    1  0.1678003E-008  0.8565868E+03  0.7818608E-02  0.9481539E-01
         -1   -1    0    0    0  501 -0.00000000000E+00  0.00000000000E+00  0.77740981919E+03  0.77740981921E+03  0.50400000000E-02 0.  1.
          1   -1    0    0  501    0  0.00000000000E+00 -0.00000000000E+00 -0.21532043225E+04  0.21532043225E+04  0.50400000000E-02 0. -1.
    8880022    1    1    2    0    0 -0.61176302464E+03  0.57973726083E+03 -0.17860602427E+04  0.19808463175E+04  0.15294330000E+03 0.  0.
    8880022    1    1    2    0    0  0.61176302464E+03 -0.57973726083E+03  0.41026573943E+03  0.94976782420E+03  0.15294330000E+03 0.  0.
<mgrwt>
<rscale>  0 0.85658680E+03</rscale>
<asrwt>0</asrwt>
<pdfrwt beam="1">  1        1 0.33126220E+00 0.85658680E+03</pdfrwt>
<pdfrwt beam="2">  1       -1 0.11960151E+00 0.85658680E+03</pdfrwt>
<totfact> 0.15177575E+00</totfact>
</mgrwt>
</event>
<event>
 4    1  0.1678003E-008  0.1525542E+04  0.7818608E-02  0.8867643E-01
         -1   -1    0    0    0  501 -0.00000000000E+00  0.00000000000E+00  0.22920555735E+04  0.22920555735E+04  0.50400000000E-02 0.  1.
          1   -1    0    0  501    0  0.00000000000E+00 -0.00000000000E+00 -0.11870439910E+04  0.11870439911E+04  0.50400000000E-02 0. -1.
    8880022    1    1    2    0    0  0.38758491491E+03  0.14675367816E+04 -0.10903909623E+03  0.15294337021E+04  0.15294330000E+03 0.  0.
    8880022    1    1    2    0    0 -0.38758491491E+03 -0.14675367816E+04  0.12140506787E+04  0.19496658624E+04  0.15294330000E+03 0.  0.
<mgrwt>
<rscale>  0 0.15255418E+04</rscale>
<asrwt>0</asrwt>
<pdfrwt beam="1">  1        1 0.18262215E+00 0.15255418E+04</pdfrwt>
<pdfrwt beam="2">  1       -1 0.35262393E+00 0.15255418E+04</pdfrwt>
<totfact> 0.15436816E-01</totfact>
</mgrwt>
</event>
<event>
 4    1  0.1678003E-008  0.5254768E+03  0.7818608E-02  0.1007335E+00
         -1   -1    0    0    0  501 -0.00000000000E+00  0.00000000000E+00  0.14813348659E+04  0.14813348659E+04  0.50400000000E-02 0.  1.
          1   -1    0    0  501    0  0.00000000000E+00 -0.00000000000E+00 -0.28736515645E+03  0.28736515650E+03  0.50400000000E-02 0. -1.
    8880022    1    1    2    0    0  0.96182094274E+01  0.50263472451E+03  0.72798612087E+02  0.53049549213E+03  0.15294330000E+03 0.  0.
    8880022    1    1    2    0    0 -0.96182094274E+01 -0.50263472451E+03  0.11211710973E+04  0.12382045303E+04  0.15294330000E+03 0.  0.
<mgrwt>
<rscale>  0 0.52547676E+03</rscale>
<asrwt>0</asrwt>
<pdfrwt beam="1">  1        1 0.44210024E-01 0.52547676E+03</pdfrwt>
<pdfrwt beam="2">  1       -1 0.22789767E+00 0.52547676E+03</pdfrwt>
<totfact> 0.96520458E+00</totfact>
</mgrwt>
</event>
<event>
 4    1  0.1678003E-008  0.4608145E+03  0.7818608E-02  0.1024545E+00
          1   -1    0    0  501    0  0.00000000000E+00  0.00000000000E+00  0.14249080483E+04  0.14249080483E+04  0.50400000000E-02 0. -1.
         -1   -1    0    0    0  501 -0.00000000000E+00 -0.00000000000E+00 -0.11577663285E+04  0.11577663285E+04  0.50400000000E-02 0.  1.
    8880022    1    1    2    0    0 -0.37912439383E+03 -0.21265720730E+03 -0.10717943042E+04  0.11666589379E+04  0.15294330000E+03 0.  0.
    8880022    1    1    2    0    0  0.37912439383E+03  0.21265720730E+03  0.13389360240E+04  0.14160154389E+04  0.15294330000E+03 0.  0.
<mgrwt>
<rscale>  0 0.46081455E+03</rscale>
<asrwt>0</asrwt>
<pdfrwt beam="1">  1        1 0.21921662E+00 0.46081455E+03</pdfrwt>
<pdfrwt beam="2">  1       -1 0.17811790E+00 0.46081455E+03</pdfrwt>
<totfact> 0.17840027E+00</totfact>
</mgrwt>
</event>
<event>
 4    1  0.1678003E-008  0.1112208E+04  0.7818608E-02  0.9193374E-01
          1   -1    0    0  501    0  0.00000000000E+00  0.00000000000E+00  0.11466663953E+04  0.11466663954E+04  0.50400000000E-02 0. -1.
         -1   -1    0    0    0  501 -0.00000000000E+00 -0.00000000000E+00 -0.13155194136E+04  0.13155194137E+04  0.50400000000E-02 0.  1.
    8880022    1    1    2    0    0 -0.11959348698E+03  0.10951308796E+04 -0.60667041641E+03  0.12669076102E+04  0.15294330000E+03 0.  0.
    8880022    1    1    2    0    0  0.11959348698E+03 -0.10951308796E+04  0.43781739812E+03  0.11952781988E+04  0.15294330000E+03 0.  0.
<mgrwt>
<rscale>  0 0.11122077E+04</rscale>
<asrwt>0</asrwt>
<pdfrwt beam="1">  1        1 0.17641022E+00 0.11122077E+04</pdfrwt>
<pdfrwt beam="2">  1       -1 0.20238760E+00 0.11122077E+04</pdfrwt>
<totfact> 0.16791844E+00</totfact>
</mgrwt>
</event>
<event>
 4    1  0.1678003E-008  0.7407565E+03  0.7818608E-02  0.9649965E-01
         -1   -1    0    0    0  501 -0.00000000000E+00  0.00000000000E+00  0.20034852529E+04  0.20034852529E+04  0.50400000000E-02 0.  1.
          1   -1    0    0  501    0  0.00000000000E+00 -0.00000000000E+00 -0.52132941388E+03  0.52132941391E+03  0.50400000000E-02 0. -1.
    8880022    1    1    2    0    0 -0.66279712298E+03 -0.29330625912E+03  0.16108072421E+04  0.17729693207E+04  0.15294330000E+03 0.  0.
    8880022    1    1    2    0    0  0.66279712298E+03  0.29330625912E+03 -0.12865140314E+03  0.75184534608E+03  0.15294330000E+03 0.  0.
<mgrwt>
<rscale>  0 0.74075653E+03</rscale>
<asrwt>0</asrwt>
<pdfrwt beam="1">  1        1 0.80204528E-01 0.74075653E+03</pdfrwt>
<pdfrwt beam="2">  1       -1 0.30822849E+00 0.74075653E+03</pdfrwt>
<totfact> 0.12912694E+00</totfact>
</mgrwt>
</event>
<event>
 4    1  0.1678003E-008  0.9549575E+03  0.7818608E-02  0.9359375E-01
         -1   -1    0    0    0  501 -0.00000000000E+00  0.00000000000E+00  0.78266758213E+03  0.78266758215E+03  0.50400000000E-02 0.  1.
          1   -1    0    0  501    0  0.00000000000E+00 -0.00000000000E+00 -0.16515103471E+04  0.16515103471E+04  0.50400000000E-02 0. -1.
    8880022    1    1    2    0    0 -0.87935946297E+03 -0.33952768607E+03  0.22604409924E+03  0.98134586286E+03  0.15294330000E+03 0.  0.
    8880022    1    1    2    0    0  0.87935946297E+03  0.33952768607E+03 -0.10948868642E+04  0.14528320664E+04  0.15294330000E+03 0.  0.
<mgrwt>
<rscale>  0 0.95495747E+03</rscale>
<asrwt>0</asrwt>
<pdfrwt beam="1">  1        1 0.25407851E+00 0.95495747E+03</pdfrwt>
<pdfrwt beam="2">  1       -1 0.12041040E+00 0.95495747E+03</pdfrwt>
<totfact> 0.31992565E+00</totfact>
</mgrwt>
</event>
<event>
 4    1  0.1678003E-008  0.1726149E+03  0.7818608E-02  0.1175148E+00
         -1   -1    0    0    0  501 -0.00000000000E+00  0.00000000000E+00  0.33162648049E+03  0.33162648053E+03  0.50400000000E-02 0.  1.
          1   -1    0    0  501    0  0.00000000000E+00 -0.00000000000E+00 -0.11540763607E+03  0.11540763618E+03  0.50400000000E-02 0. -1.
    8880022    1    1    2    0    0 -0.45116306266E+02  0.66096769763E+02  0.21329888667E+03  0.27439448269E+03  0.15294330000E+03 0.  1.
    8880022    1    1    2    0    0  0.45116306266E+02 -0.66096769763E+02  0.29199577599E+01  0.17263963401E+03  0.15294330000E+03 0. -1.
<mgrwt>
<rscale>  0 0.17261494E+03</rscale>
<asrwt>0</asrwt>
<pdfrwt beam="1">  1        1 0.17755021E-01 0.17261494E+03</pdfrwt>
<pdfrwt beam="2">  1       -1 0.51019459E-01 0.17261494E+03</pdfrwt>
<totfact> 0.11695976E+03</totfact>
</mgrwt>
</event>
<event>
 4    1  0.1678003E-008  0.8983678E+03  0.7818608E-02  0.9427624E-01
         -1   -1    0    0    0  501 -0.00000000000E+00  0.00000000000E+00  0.59127449073E+03  0.59127449075E+03  0.50400000000E-02 0.  1.
          1   -1    0    0  501    0  0.00000000000E+00 -0.00000000000E+00 -0.27435378493E+04  0.27435378493E+04  0.50400000000E-02 0. -1.
    8880022    1    1    2    0    0 -0.15759687662E+03  0.87111206278E+03  0.10582603740E+03  0.90457935232E+03  0.15294330000E+03 0.  0.
    8880022    1    1    2    0    0  0.15759687662E+03 -0.87111206278E+03 -0.22580893960E+04  0.24302329877E+04  0.15294330000E+03 0.  0.
<mgrwt>
<rscale>  0 0.89836777E+03</rscale>
<asrwt>0</asrwt>
<pdfrwt beam="1">  1        1 0.42208274E+00 0.89836777E+03</pdfrwt>
<pdfrwt beam="2">  1       -1 0.90965308E-01 0.89836777E+03</pdfrwt>
<totfact> 0.11225708E+00</totfact>
</mgrwt>
</event>
<event>
 4    1  0.1678003E-008  0.3453572E+03  0.7818608E-02  0.1064537E+00
          1   -1    0    0  501    0  0.00000000000E+00  0.00000000000E+00  0.26292748125E+04  0.26292748125E+04  0.50400000000E-02 0. -1.
         -1   -1    0    0    0  501 -0.00000000000E+00 -0.00000000000E+00 -0.91783598123E+02  0.91783598262E+02  0.50400000000E-02 0.  1.
    8880022    1    1    2    0    0 -0.16950226990E+03 -0.25913114947E+03  0.22363124889E+04  0.22628223909E+04  0.15294330000E+03 0. -1.
    8880022    1    1    2    0    0  0.16950226990E+03  0.25913114947E+03  0.30117872548E+03  0.45823601978E+03  0.15294330000E+03 0.  0.
<mgrwt>
<rscale>  0 0.34535724E+03</rscale>
<asrwt>0</asrwt>
<pdfrwt beam="1">  1        1 0.40450386E+00 0.34535724E+03</pdfrwt>
<pdfrwt beam="2">  1       -1 0.14120552E-01 0.34535724E+03</pdfrwt>
<totfact> 0.45107138E+01</totfact>
</mgrwt>
</event>
<event>
 4    1  0.1678003E-008  0.3444746E+03  0.7818608E-02  0.1064906E+00
          1   -1    0    0  501    0  0.00000000000E+00  0.00000000000E+00  0.25100901858E+03  0.25100901863E+03  0.50400000000E-02 0. -1.
         -1   -1    0    0    0  501 -0.00000000000E+00 -0.00000000000E+00 -0.12761205187E+04  0.12761205187E+04  0.50400000000E-02 0.  1.
    8880022    1    1    2    0    0  0.60877198593E+02 -0.30259717019E+03  0.93286975283E+02  0.35688260463E+03  0.15294330000E+03 0.  0.
    8880022    1    1    2    0    0 -0.60877198593E+02  0.30259717019E+03 -0.11183984754E+04  0.11702469327E+04  0.15294330000E+03 0.  0.
<mgrwt>
<rscale>  0 0.34447458E+03</rscale>
<asrwt>0</asrwt>
<pdfrwt beam="1">  1        1 0.38616773E-01 0.34447458E+03</pdfrwt>
<pdfrwt beam="2">  1       -1 0.19632623E+00 0.34447458E+03</pdfrwt>
<totfact> 0.19260013E+01</totfact>
</mgrwt>
</event>
<event>
 4    1  0.1678003E-008  0.4574022E+03  0.7818608E-02  0.1025537E+00
         -1   -1    0    0    0  501 -0.00000000000E+00  0.00000000000E+00  0.39164950386E+03  0.39164950390E+03  0.50400000000E-02 0.  1.
          1   -1    0    0  501    0  0.00000000000E+00 -0.00000000000E+00 -0.10841829522E+04  0.10841829523E+04  0.50400000000E-02 0. -1.
    8880022    1    1    2    0    0 -0.29732972630E+03 -0.31212199851E+03 -0.87183944013E+03  0.98454089324E+03  0.15294330000E+03 0.  0.
    8880022    1    1    2    0    0  0.29732972630E+03  0.31212199851E+03  0.17930599174E+03  0.49129156291E+03  0.15294330000E+03 0.  1.
<mgrwt>
<rscale>  0 0.45740219E+03</rscale>
<asrwt>0</asrwt>
<pdfrwt beam="1">  1        1 0.16679738E+00 0.45740219E+03</pdfrwt>
<pdfrwt beam="2">  1       -1 0.60253770E-01 0.45740219E+03</pdfrwt>
<totfact> 0.38893779E+01</totfact>
</mgrwt>
</event>
<event>
 4    1  0.1678003E-008  0.4697331E+03  0.7818608E-02  0.1021996E+00
         -1   -1    0    0    0  501 -0.00000000000E+00  0.00000000000E+00  0.54404174470E+03  0.54404174472E+03  0.50400000000E-02 0.  1.
          1   -1    0    0  501    0  0.00000000000E+00 -0.00000000000E+00 -0.47640500870E+03  0.47640500873E+03  0.50400000000E-02 0. -1.
    8880022    1    1    2    0    0 -0.44251712534E+03 -0.37896807329E+02 -0.16291755967E+03  0.49718342539E+03  0.15294330000E+03 0.  0.
    8880022    1    1    2    0    0  0.44251712534E+03  0.37896807329E+02  0.23055429567E+03  0.52326332806E+03  0.15294330000E+03 0.  0.
<mgrwt>
<rscale>  0 0.46973314E+03</rscale>
<asrwt>0</asrwt>
<pdfrwt beam="1">  1        1 0.73293078E-01 0.46973314E+03</pdfrwt>
<pdfrwt beam="2">  1       -1 0.83698730E-01 0.46973314E+03</pdfrwt>
<totfact> 0.70212783E+01</totfact>
</mgrwt>
</event>
<event>
 4    1  0.1678003E-008  0.4768100E+03  0.7818608E-02  0.1020016E+00
         -1   -1    0    0    0  501 -0.00000000000E+00  0.00000000000E+00  0.90548583296E+03  0.90548583298E+03  0.50400000000E-02 0.  1.
          1   -1    0    0  501    0  0.00000000000E+00 -0.00000000000E+00 -0.46304792169E+03  0.46304792172E+03  0.50400000000E-02 0. -1.
    8880022    1    1    2    0    0 -0.37258444541E+03 -0.25521945123E+03 -0.24174738902E+03  0.53459292023E+03  0.15294330000E+03 0.  0.
    8880022    1    1    2    0    0  0.37258444541E+03  0.25521945123E+03  0.68418530029E+03  0.83394083447E+03  0.15294330000E+03 0.  0.
<mgrwt>
<rscale>  0 0.47681001E+03</rscale>
<asrwt>0</asrwt>
<pdfrwt beam="1">  1        1 0.71238142E-01 0.47681001E+03</pdfrwt>
<pdfrwt beam="2">  1       -1 0.13930551E+00 0.47681001E+03</pdfrwt>
<totfact> 0.22224243E+01</totfact>
</mgrwt>
</event>
<event>
 4    1  0.1678003E-008  0.5171861E+03  0.7818608E-02  0.1009388E+00
         -1   -1    0    0    0  501 -0.00000000000E+00  0.00000000000E+00  0.14345170178E+04  0.14345170178E+04  0.50400000000E-02 0.  1.
          1   -1    0    0  501    0  0.00000000000E+00 -0.00000000000E+00 -0.38472528378E+03  0.38472528381E+03  0.50400000000E-02 0. -1.
    8880022    1    1    2    0    0 -0.46400977720E+03  0.16966067170E+03 -0.12809549230E+03  0.53281321776E+03  0.15294330000E+03 0.  0.
    8880022    1    1    2    0    0  0.46400977720E+03 -0.16966067170E+03  0.11778872263E+04  0.12864290839E+04  0.15294330000E+03 0.  0.
<mgrwt>
<rscale>  0 0.51718611E+03</rscale>
<asrwt>0</asrwt>
<pdfrwt beam="1">  1        1 0.59188504E-01 0.51718611E+03</pdfrwt>
<pdfrwt beam="2">  1       -1 0.22069493E+00 0.51718611E+03</pdfrwt>
<totfact> 0.73867356E+00</totfact>
</mgrwt>
</event>
<event>
 4    1  0.1678003E-008  0.8211605E+03  0.7818608E-02  0.9529883E-01
          1   -1    0    0  501    0  0.00000000000E+00  0.00000000000E+00  0.17714706785E+04  0.17714706785E+04  0.50400000000E-02 0. -1.
         -1   -1    0    0    0  501 -0.00000000000E+00 -0.00000000000E+00 -0.54579965096E+03  0.54579965099E+03  0.50400000000E-02 0.  1.
    8880022    1    1    2    0    0 -0.78192018301E+03  0.19878053573E+03  0.12501784894E+04  0.14957442236E+04  0.15294330000E+03 0.  0.
    8880022    1    1    2    0    0  0.78192018301E+03 -0.19878053573E+03 -0.24507461894E+02  0.82152610590E+03  0.15294330000E+03 0.  0.
<mgrwt>
<rscale>  0 0.82116048E+03</rscale>
<asrwt>0</asrwt>
<pdfrwt beam="1">  1        1 0.27253395E+00 0.82116048E+03</pdfrwt>
<pdfrwt beam="2">  1       -1 0.83969179E-01 0.82116048E+03</pdfrwt>
<totfact> 0.61881214E+00</totfact>
</mgrwt>
</event>
<event>
 4    1  0.1678003E-008  0.7474189E+03  0.7818608E-02  0.9639408E-01
          1   -1    0    0  501    0  0.00000000000E+00  0.00000000000E+00  0.13934443864E+04  0.13934443864E+04  0.50400000000E-02 0. -1.
         -1   -1    0    0    0  501 -0.00000000000E+00 -0.00000000000E+00 -0.82158614232E+03  0.82158614233E+03  0.50400000000E-02 0.  1.
    8880022    1    1    2    0    0 -0.51446275259E+03 -0.52016475896E+03 -0.50657425803E+03  0.90291330270E+03  0.15294330000E+03 0.  1.
    8880022    1    1    2    0    0  0.51446275259E+03  0.52016475896E+03  0.10784325022E+04  0.13121172261E+04  0.15294330000E+03 0.  0.
<mgrwt>
<rscale>  0 0.74741886E+03</rscale>
<asrwt>0</asrwt>
<pdfrwt beam="1">  1        1 0.21437606E+00 0.74741886E+03</pdfrwt>
<pdfrwt beam="2">  1       -1 0.12639787E+00 0.74741886E+03</pdfrwt>
<totfact> 0.44023720E+00</totfact>
</mgrwt>
</event>
<event>
 4    1  0.1678003E-008  0.6611876E+03  0.7818608E-02  0.9786010E-01
         -1   -1    0    0    0  501 -0.00000000000E+00  0.00000000000E+00  0.33536751384E+03  0.33536751387E+03  0.50400000000E-02 0.  1.
          1   -1    0    0  501    0  0.00000000000E+00 -0.00000000000E+00 -0.30422258057E+04  0.30422258057E+04  0.50400000000E-02 0. -1.
    8880022    1    1    2    0    0  0.54544795427E+03  0.34097504127E+03 -0.76723869314E+02  0.66562425942E+03  0.15294330000E+03 0.  0.
    8880022    1    1    2    0    0 -0.54544795427E+03 -0.34097504127E+03 -0.26301344226E+04  0.27119690602E+04  0.15294330000E+03 0.  0.
<mgrwt>
<rscale>  0 0.66118765E+03</rscale>
<asrwt>0</asrwt>
<pdfrwt beam="1">  1        1 0.46803472E+00 0.66118765E+03</pdfrwt>
<pdfrwt beam="2">  1       -1 0.51595004E-01 0.66118765E+03</pdfrwt>
<totfact> 0.23059869E+00</totfact>
</mgrwt>
</event>
<event>
 4    1  0.1678003E-008  0.4972037E+03  0.7818608E-02  0.1014511E+00
         -1   -1    0    0    0  501 -0.00000000000E+00  0.00000000000E+00  0.23946589057E+04  0.23946589057E+04  0.50400000000E-02 0.  1.
          1   -1    0    0  501    0  0.00000000000E+00 -0.00000000000E+00 -0.21550655096E+03  0.21550655102E+03  0.50400000000E-02 0. -1.
    8880022    1    1    2    0    0 -0.46753381183E+03  0.72332615062E+02  0.14759214118E+03  0.51864724578E+03  0.15294330000E+03 0.  0.
    8880022    1    1    2    0    0  0.46753381183E+03 -0.72332615062E+02  0.20315602135E+04  0.20915182109E+04  0.15294330000E+03 0.  1.
<mgrwt>
<rscale>  0 0.49720371E+03</rscale>
<asrwt>0</asrwt>
<pdfrwt beam="1">  1        1 0.33154853E-01 0.49720371E+03</pdfrwt>
<pdfrwt beam="2">  1       -1 0.36840907E+00 0.49720371E+03</pdfrwt>
<totfact> 0.17645354E+00</totfact>
</mgrwt>
</event>
<event>
 4    1  0.1678003E-008  0.5416834E+03  0.7818608E-02  0.1003437E+00
         -1   -1    0    0    0  501 -0.00000000000E+00  0.00000000000E+00  0.45856224389E+03  0.45856224391E+03  0.50400000000E-02 0.  1.
          1   -1    0    0  501    0  0.00000000000E+00 -0.00000000000E+00 -0.17239633367E+04  0.17239633367E+04  0.50400000000E-02 0. -1.
    8880022    1    1    2    0    0  0.51760273312E+03  0.46007737255E+02  0.23266251346E+03  0.58953608830E+03  0.15294330000E+03 0.  0.
    8880022    1    1    2    0    0 -0.51760273312E+03 -0.46007737255E+02 -0.14980636063E+04  0.15929894923E+04  0.15294330000E+03 0. -1.
<mgrwt>
<rscale>  0 0.54168344E+03</rscale>
<asrwt>0</asrwt>
<pdfrwt beam="1">  1        1 0.26522512E+00 0.54168344E+03</pdfrwt>
<pdfrwt beam="2">  1       -1 0.70548039E-01 0.54168344E+03</pdfrwt>
<totfact> 0.10084708E+01</totfact>
</mgrwt>
</event>
<event>
 4    1  0.1678003E-008  0.4090032E+03  0.7818608E-02  0.1040706E+00
         -1   -1    0    0    0  501 -0.00000000000E+00  0.00000000000E+00  0.27031299644E+03  0.27031299649E+03  0.50400000000E-02 0.  1.
          1   -1    0    0  501    0  0.00000000000E+00 -0.00000000000E+00 -0.81100600377E+03  0.81100600379E+03  0.50400000000E-02 0. -1.
    8880022    1    1    2    0    0  0.46981444954E+02  0.37641033140E+03 -0.71761849752E+01  0.40906618585E+03  0.15294330000E+03 0.  0.
    8880022    1    1    2    0    0 -0.46981444954E+02 -0.37641033140E+03 -0.53351682236E+03  0.67225281443E+03  0.15294330000E+03 0.  0.
<mgrwt>
<rscale>  0 0.40900324E+03</rscale>
<asrwt>0</asrwt>
<pdfrwt beam="1">  1        1 0.12477015E+00 0.40900324E+03</pdfrwt>
<pdfrwt beam="2">  1       -1 0.41586615E-01 0.40900324E+03</pdfrwt>
<totfact> 0.12871517E+02</totfact>
</mgrwt>
</event>
<event>
 4    1  0.1678003E-008  0.2480435E+03  0.7818608E-02  0.1114548E+00
         -1   -1    0    0    0  501 -0.00000000000E+00  0.00000000000E+00  0.38061077401E+03  0.38061077404E+03  0.50400000000E-02 0.  1.
          1   -1    0    0  501    0  0.00000000000E+00 -0.00000000000E+00 -0.86046150167E+03  0.86046150169E+03  0.50400000000E-02 0. -1.
    8880022    1    1    2    0    0 -0.18638158216E+03 -0.58273941726E+02  0.31929307969E+03  0.40431877301E+03  0.15294330000E+03 0.  1.
    8880022    1    1    2    0    0  0.18638158216E+03  0.58273941726E+02 -0.79914380736E+03  0.83675350272E+03  0.15294330000E+03 0.  0.
<mgrwt>
<rscale>  0 0.24804354E+03</rscale>
<asrwt>0</asrwt>
<pdfrwt beam="1">  1        1 0.13237869E+00 0.24804354E+03</pdfrwt>
<pdfrwt beam="2">  1       -1 0.58555504E-01 0.24804354E+03</pdfrwt>
<totfact> 0.63911285E+01</totfact>
</mgrwt>
</event>
<event>
 4    1  0.1678003E-008  0.4499234E+03  0.7818608E-02  0.1027745E+00
         -1   -1    0    0    0  501 -0.00000000000E+00  0.00000000000E+00  0.28302865216E+03  0.28302865221E+03  0.50400000000E-02 0.  1.
          1   -1    0    0  501    0  0.00000000000E+00 -0.00000000000E+00 -0.21776206553E+04  0.21776206553E+04  0.50400000000E-02 0. -1.
    8880022    1    1    2    0    0 -0.51466898836E+01  0.42309920421E+03  0.60935017849E+02  0.45403100603E+03  0.15294330000E+03 0.  0.
    8880022    1    1    2    0    0  0.51466898836E+01 -0.42309920421E+03 -0.19555270210E+04  0.20066183015E+04  0.15294330000E+03 0.  0.
<mgrwt>
<rscale>  0 0.44992341E+03</rscale>
<asrwt>0</asrwt>
<pdfrwt beam="1">  1        1 0.33501855E+00 0.44992341E+03</pdfrwt>
<pdfrwt beam="2">  1       -1 0.43542871E-01 0.44992341E+03</pdfrwt>
<totfact> 0.13066538E+01</totfact>
</mgrwt>
</event>
<event>
 4    1  0.1678003E-008  0.6524223E+03  0.7818608E-02  0.9802245E-01
          1   -1    0    0  501    0  0.00000000000E+00  0.00000000000E+00  0.17521393954E+04  0.17521393954E+04  0.50400000000E-02 0. -1.
         -1   -1    0    0    0  501 -0.00000000000E+00 -0.00000000000E+00 -0.14219643947E+04  0.14219643947E+04  0.50400000000E-02 0.  1.
    8880022    1    1    2    0    0 -0.54507735563E+03  0.32427429798E+03  0.16102251248E+04  0.17373772617E+04  0.15294330000E+03 0.  0.
    8880022    1    1    2    0    0  0.54507735563E+03 -0.32427429798E+03 -0.12800501242E+04  0.14367265284E+04  0.15294330000E+03 0.  0.
<mgrwt>
<rscale>  0 0.65242225E+03</rscale>
<asrwt>0</asrwt>
<pdfrwt beam="1">  1        1 0.26955991E+00 0.65242225E+03</pdfrwt>
<pdfrwt beam="2">  1       -1 0.21876375E+00 0.65242225E+03</pdfrwt>
<totfact> 0.53572265E-01</totfact>
</mgrwt>
</event>
<event>
 4    1  0.1678003E-008  0.3190240E+03  0.7818608E-02  0.1076099E+00
         -1   -1    0    0    0  501 -0.00000000000E+00  0.00000000000E+00  0.81802129188E+03  0.81802129190E+03  0.50400000000E-02 0.  1.
          1   -1    0    0  501    0  0.00000000000E+00 -0.00000000000E+00 -0.51436756159E+03  0.51436756162E+03  0.50400000000E-02 0. -1.
    8880022    1    1    2    0    0 -0.26814639236E+03  0.80511835219E+02 -0.42822738819E+03  0.53399905651E+03  0.15294330000E+03 0.  0.
    8880022    1    1    2    0    0  0.26814639236E+03 -0.80511835219E+02  0.73188111849E+03  0.79838979700E+03  0.15294330000E+03 0.  0.
<mgrwt>
<rscale>  0 0.31902397E+03</rscale>
<asrwt>0</asrwt>
<pdfrwt beam="1">  1        1 0.79133472E-01 0.31902397E+03</pdfrwt>
<pdfrwt beam="2">  1       -1 0.12584943E+00 0.31902397E+03</pdfrwt>
<totfact> 0.25687139E+01</totfact>
</mgrwt>
</event>
<event>
 4    1  0.1678003E-008  0.8000721E+03  0.7818608E-02  0.9559913E-01
          1   -1    0    0  501    0  0.00000000000E+00  0.00000000000E+00  0.24937983675E+04  0.24937983675E+04  0.50400000000E-02 0. -1.
         -1   -1    0    0    0  501 -0.00000000000E+00 -0.00000000000E+00 -0.46543397534E+03  0.46543397537E+03  0.50400000000E-02 0.  1.
    8880022    1    1    2    0    0 -0.58013549413E+03  0.52930754663E+03  0.23271720968E+02  0.80041045501E+03  0.15294330000E+03 0.  0.
    8880022    1    1    2    0    0  0.58013549413E+03 -0.52930754663E+03  0.20050926712E+04  0.21588218878E+04  0.15294330000E+03 0.  0.
<mgrwt>
<rscale>  0 0.80007207E+03</rscale>
<asrwt>0</asrwt>
<pdfrwt beam="1">  1        1 0.38366129E+00 0.80007207E+03</pdfrwt>
<pdfrwt beam="2">  1       -1 0.71605226E-01 0.80007207E+03</pdfrwt>
<totfact> 0.28342975E+00</totfact>
</mgrwt>
</event>
<event>
 4    1  0.1678003E-008  0.9405708E+03  0.7818608E-02  0.9376240E-01
          1   -1    0    0  501    0  0.00000000000E+00  0.00000000000E+00  0.62233862675E+03  0.62233862677E+03  0.50400000000E-02 0. -1.
         -1   -1    0    0    0  501 -0.00000000000E+00 -0.00000000000E+00 -0.18316498910E+04  0.18316498910E+04  0.50400000000E-02 0.  1.
    8880022    1    1    2    0    0  0.88783249192E+03  0.27025026350E+03 -0.24056468635E+02  0.94087836905E+03  0.15294330000E+03 0.  0.
    8880022    1    1    2    0    0 -0.88783249192E+03 -0.27025026350E+03 -0.11852547956E+04  0.15131101487E+04  0.15294330000E+03 0.  0.
<mgrwt>
<rscale>  0 0.94057078E+03</rscale>
<asrwt>0</asrwt>
<pdfrwt beam="1">  1        1 0.95744405E-01 0.94057078E+03</pdfrwt>
<pdfrwt beam="2">  1       -1 0.28179229E+00 0.94057078E+03</pdfrwt>
<totfact> 0.14354035E+00</totfact>
</mgrwt>
</event>
<event>
 4    1  0.1678003E-008  0.7078186E+03  0.7818608E-02  0.9703954E-01
          1   -1    0    0  501    0  0.00000000000E+00  0.00000000000E+00  0.77672538290E+03  0.77672538291E+03  0.50400000000E-02 0. -1.
         -1   -1    0    0    0  501 -0.00000000000E+00 -0.00000000000E+00 -0.94204944295E+03  0.94204944296E+03  0.50400000000E-02 0.  1.
    8880022    1    1    2    0    0  0.66529553364E+03 -0.18707591827E+03 -0.56521869729E+03  0.90580316574E+03  0.15294330000E+03 0.  0.
    8880022    1    1    2    0    0 -0.66529553364E+03  0.18707591827E+03  0.39989463724E+03  0.81297166014E+03  0.15294330000E+03 0.  0.
<mgrwt>
<rscale>  0 0.70781862E+03</rscale>
<asrwt>0</asrwt>
<pdfrwt beam="1">  1        1 0.11949621E+00 0.70781862E+03</pdfrwt>
<pdfrwt beam="2">  1       -1 0.14493068E+00 0.70781862E+03</pdfrwt>
<totfact> 0.92006406E+00</totfact>
</mgrwt>
</event>
<event>
 4    1  0.2646930E-008  0.1476835E+04  0.7818608E-02  0.8900005E-01
         -1   -1    0    0    0  501 -0.00000000000E+00  0.00000000000E+00  0.17485131666E+04  0.17485131666E+04  0.50400000000E-02 0.  1.
          1   -1    0    0  501    0  0.00000000000E+00 -0.00000000000E+00 -0.29043122732E+04  0.29043122732E+04  0.50400000000E-02 0. -1.
    8880022    1    1    2    0    0 -0.12764749980E+04 -0.72681587118E+03 -0.23350903057E+04  0.27629129772E+04  0.15294330000E+03 0.  0.
    8880022    1    1    2    0    0  0.12764749980E+04  0.72681587118E+03  0.11792911991E+04  0.18899124626E+04  0.15294330000E+03 0.  0.
<mgrwt>
<rscale>  0 0.14768349E+04</rscale>
<asrwt>0</asrwt>
<pdfrwt beam="1">  1        1 0.44681727E+00 0.14768349E+04</pdfrwt>
<pdfrwt beam="2">  1       -1 0.26900203E+00 0.14768349E+04</pdfrwt>
<totfact> 0.34876696E-02</totfact>
</mgrwt>
</event>
<event>
 4    1  0.1678003E-008  0.4721913E+03  0.7818608E-02  0.1021304E+00
          1   -1    0    0  501    0  0.00000000000E+00  0.00000000000E+00  0.19140607715E+04  0.19140607715E+04  0.50400000000E-02 0. -1.
         -1   -1    0    0    0  501 -0.00000000000E+00 -0.00000000000E+00 -0.13265041307E+03  0.13265041317E+03  0.50400000000E-02 0.  1.
    8880022    1    1    2    0    0  0.31407083015E+03  0.31769867223E+03  0.53349070029E+03  0.71244432273E+03  0.15294330000E+03 0.  0.
    8880022    1    1    2    0    0 -0.31407083015E+03 -0.31769867223E+03  0.12479196581E+04  0.13342668619E+04  0.15294330000E+03 0.  0.
<mgrwt>
<rscale>  0 0.47219126E+03</rscale>
<asrwt>0</asrwt>
<pdfrwt beam="1">  1        1 0.29447089E+00 0.47219126E+03</pdfrwt>
<pdfrwt beam="2">  1       -1 0.20407756E-01 0.47219126E+03</pdfrwt>
<totfact> 0.72069024E+01</totfact>
</mgrwt>
</event>
<event>
 4    1  0.1678003E-008  0.9858083E+03  0.7818608E-02  0.9324248E-01
         -1   -1    0    0    0  501 -0.00000000000E+00  0.00000000000E+00  0.88651760815E+03  0.88651760816E+03  0.50400000000E-02 0.  1.
          1   -1    0    0  501    0  0.00000000000E+00 -0.00000000000E+00 -0.17427465055E+04  0.17427465055E+04  0.50400000000E-02 0. -1.
    8880022    1    1    2    0    0  0.72386957187E+03 -0.65149003141E+03  0.37260499412E+03  0.10538750176E+04  0.15294330000E+03 0.  0.
    8880022    1    1    2    0    0 -0.72386957187E+03  0.65149003141E+03 -0.12288338915E+04  0.15753890960E+04  0.15294330000E+03 0.  0.
<mgrwt>
<rscale>  0 0.98580833E+03</rscale>
<asrwt>0</asrwt>
<pdfrwt beam="1">  1        1 0.26811485E+00 0.98580833E+03</pdfrwt>
<pdfrwt beam="2">  1       -1 0.13638732E+00 0.98580833E+03</pdfrwt>
<totfact> 0.20193167E+00</totfact>
</mgrwt>
</event>
<event>
 4    1  0.1678003E-008  0.4600759E+03  0.7818608E-02  0.1024759E+00
         -1   -1    0    0    0  501 -0.00000000000E+00  0.00000000000E+00  0.26505926657E+03  0.26505926662E+03  0.50400000000E-02 0.  1.
          1   -1    0    0  501    0  0.00000000000E+00 -0.00000000000E+00 -0.11004708878E+04  0.11004708878E+04  0.50400000000E-02 0. -1.
    8880022    1    1    2    0    0 -0.36321634242E+03 -0.23738599430E+03 -0.60095398417E+02  0.46398419328E+03  0.15294330000E+03 0.  0.
    8880022    1    1    2    0    0  0.36321634242E+03  0.23738599430E+03 -0.77531622280E+03  0.90154596114E+03  0.15294330000E+03 0. -1.
<mgrwt>
<rscale>  0 0.46007594E+03</rscale>
<asrwt>0</asrwt>
<pdfrwt beam="1">  1        1 0.16930321E+00 0.46007594E+03</pdfrwt>
<pdfrwt beam="2">  1       -1 0.40778349E-01 0.46007594E+03</pdfrwt>
<totfact> 0.78650332E+01</totfact>
</mgrwt>
</event>
<event>
 4    1  0.1678003E-008  0.3518128E+03  0.7818608E-02  0.1061873E+00
         -1   -1    0    0    0  501 -0.00000000000E+00  0.00000000000E+00  0.28932916284E+03  0.28932916288E+03  0.50400000000E-02 0.  1.
          1   -1    0    0  501    0  0.00000000000E+00 -0.00000000000E+00 -0.11788928735E+04  0.11788928735E+04  0.50400000000E-02 0. -1.
    8880022    1    1    2    0    0  0.28526089681E+03 -0.13786520685E+03  0.14118649342E+03  0.37908557537E+03  0.15294330000E+03 0.  0.
    8880022    1    1    2    0    0 -0.28526089681E+03  0.13786520685E+03 -0.10307502041E+04  0.10891364611E+04  0.15294330000E+03 0. -1.
<mgrwt>
<rscale>  0 0.35181280E+03</rscale>
<asrwt>0</asrwt>
<pdfrwt beam="1">  1        1 0.18136813E+00 0.35181280E+03</pdfrwt>
<pdfrwt beam="2">  1       -1 0.44512179E-01 0.35181280E+03</pdfrwt>
<totfact> 0.60005740E+01</totfact>
</mgrwt>
</event>
<event>
 4    1  0.1678003E-008  0.3751128E+03  0.7818608E-02  0.1052755E+00
         -1   -1    0    0    0  501 -0.00000000000E+00  0.00000000000E+00  0.17006488551E+03  0.17006488559E+03  0.50400000000E-02 0.  1.
          1   -1    0    0  501    0  0.00000000000E+00 -0.00000000000E+00 -0.26433823000E+04  0.26433823000E+04  0.50400000000E-02 0. -1.
    8880022    1    1    2    0    0  0.26434171067E+03  0.21781057884E+03 -0.70692332627E+02  0.38171592469E+03  0.15294330000E+03 0.  0.
    8880022    1    1    2    0    0 -0.26434171067E+03 -0.21781057884E+03 -0.24026250818E+04  0.24317312609E+04  0.15294330000E+03 0.  0.
<mgrwt>
<rscale>  0 0.37511284E+03</rscale>
<asrwt>0</asrwt>
<pdfrwt beam="1">  1        1 0.40667417E+00 0.37511284E+03</pdfrwt>
<pdfrwt beam="2">  1       -1 0.26163830E-01 0.37511284E+03</pdfrwt>
<totfact> 0.15918851E+01</totfact>
</mgrwt>
</event>
<event>
 4    1  0.1678003E-008  0.7593028E+03  0.7818608E-02  0.9620868E-01
         -1   -1    0    0    0  501 -0.00000000000E+00  0.00000000000E+00  0.46596943892E+03  0.46596943895E+03  0.50400000000E-02 0.  1.
          1   -1    0    0  501    0  0.00000000000E+00 -0.00000000000E+00 -0.18946859848E+04  0.18946859848E+04  0.50400000000E-02 0. -1.
    8880022    1    1    2    0    0  0.38609634720E+03  0.63567187181E+03 -0.19099492233E+02  0.75954299520E+03  0.15294330000E+03 0.  0.
    8880022    1    1    2    0    0 -0.38609634720E+03 -0.63567187181E+03 -0.14096170536E+04  0.16011124285E+04  0.15294330000E+03 0.  0.
<mgrwt>
<rscale>  0 0.75930282E+03</rscale>
<asrwt>0</asrwt>
<pdfrwt beam="1">  1        1 0.29149015E+00 0.75930282E+03</pdfrwt>
<pdfrwt beam="2">  1       -1 0.71687607E-01 0.75930282E+03</pdfrwt>
<totfact> 0.72082506E+00</totfact>
</mgrwt>
</event>
<event>
 4    1  0.1678003E-008  0.9061911E+03  0.7818608E-02  0.9417875E-01
         -1   -1    0    0    0  501 -0.00000000000E+00  0.00000000000E+00  0.34012058340E+03  0.34012058344E+03  0.50400000000E-02 0.  1.
          1   -1    0    0  501    0  0.00000000000E+00 -0.00000000000E+00 -0.32713934365E+04  0.32713934365E+04  0.50400000000E-02 0. -1.
    8880022    1    1    2    0    0 -0.16140870592E+03 -0.87848615172E+03 -0.54139540548E+03  0.10555999845E+04  0.15294330000E+03 0.  0.
    8880022    1    1    2    0    0  0.16140870592E+03  0.87848615172E+03 -0.23898774476E+04  0.25559140355E+04  0.15294330000E+03 0.  0.
<mgrwt>
<rscale>  0 0.90619112E+03</rscale>
<asrwt>0</asrwt>
<pdfrwt beam="1">  1        1 0.50329128E+00 0.90619112E+03</pdfrwt>
<pdfrwt beam="2">  1       -1 0.52326246E-01 0.90619112E+03</pdfrwt>
<totfact> 0.14508934E+00</totfact>
</mgrwt>
</event>
<event>
 4    1  0.1678003E-008  0.6615892E+03  0.7818608E-02  0.9785273E-01
          1   -1    0    0  501    0  0.00000000000E+00  0.00000000000E+00  0.11689418653E+04  0.11689418653E+04  0.50400000000E-02 0. -1.
         -1   -1    0    0    0  501 -0.00000000000E+00 -0.00000000000E+00 -0.52548616352E+03  0.52548616355E+03  0.50400000000E-02 0.  1.
    8880022    1    1    2    0    0  0.24462657410E+03  0.59537090946E+03  0.77594674569E+03  0.10197027438E+04  0.15294330000E+03 0.  0.
    8880022    1    1    2    0    0 -0.24462657410E+03 -0.59537090946E+03 -0.13249104388E+03  0.67472528507E+03  0.15294330000E+03 0.  0.
<mgrwt>
<rscale>  0 0.66158925E+03</rscale>
<asrwt>0</asrwt>
<pdfrwt beam="1">  1        1 0.17983721E+00 0.66158925E+03</pdfrwt>
<pdfrwt beam="2">  1       -1 0.80844026E-01 0.66158925E+03</pdfrwt>
<totfact> 0.17934295E+01</totfact>
</mgrwt>
</event>
<event>
 4    1  0.1678003E-008  0.6181211E+03  0.7818608E-02  0.9868508E-01
          1   -1    0    0  501    0  0.00000000000E+00  0.00000000000E+00  0.22367800840E+04  0.22367800840E+04  0.50400000000E-02 0. -1.
         -1   -1    0    0    0  501 -0.00000000000E+00 -0.00000000000E+00 -0.54722765699E+03  0.54722765702E+03  0.50400000000E-02 0.  1.
    8880022    1    1    2    0    0  0.55964062819E+03  0.21327059725E+03 -0.30971076095E+03  0.69137138271E+03  0.15294330000E+03 0.  0.
    8880022    1    1    2    0    0 -0.55964062819E+03 -0.21327059725E+03  0.19992631880E+04  0.20926363583E+04  0.15294330000E+03 0.  0.
<mgrwt>
<rscale>  0 0.61812105E+03</rscale>
<asrwt>0</asrwt>
<pdfrwt beam="1">  1        1 0.34412002E+00 0.61812105E+03</pdfrwt>
<pdfrwt beam="2">  1       -1 0.84188868E-01 0.61812105E+03</pdfrwt>
<totfact> 0.31228342E+00</totfact>
</mgrwt>
</event>
<event>
 4    1  0.1678003E-008  0.4332368E+03  0.7818608E-02  0.1032842E+00
          1   -1    0    0  501    0  0.00000000000E+00  0.00000000000E+00  0.16768123803E+04  0.16768123803E+04  0.50400000000E-02 0. -1.
         -1   -1    0    0    0  501 -0.00000000000E+00 -0.00000000000E+00 -0.14055132134E+03  0.14055132143E+03  0.50400000000E-02 0.  1.
    8880022    1    1    2    0    0 -0.73615930946E+02 -0.39860154751E+03  0.11781463119E+04  0.12552780107E+04  0.15294330000E+03 0. -1.
    8880022    1    1    2    0    0  0.73615930946E+02  0.39860154751E+03  0.35811474708E+03  0.56208569103E+03  0.15294330000E+03 0.  0.
<mgrwt>
<rscale>  0 0.43323683E+03</rscale>
<asrwt>0</asrwt>
<pdfrwt beam="1">  1        1 0.25797112E+00 0.43323683E+03</pdfrwt>
<pdfrwt beam="2">  1       -1 0.21623282E-01 0.43323683E+03</pdfrwt>
<totfact> 0.94592457E+01</totfact>
</mgrwt>
</event>
<event>
 4    1  0.1678003E-008  0.3699558E+03  0.7818608E-02  0.1054710E+00
          1   -1    0    0  501    0  0.00000000000E+00  0.00000000000E+00  0.38034962963E+03  0.38034962966E+03  0.50400000000E-02 0. -1.
         -1   -1    0    0    0  501 -0.00000000000E+00 -0.00000000000E+00 -0.52207528621E+03  0.52207528623E+03  0.50400000000E-02 0.  1.
    8880022    1    1    2    0    0 -0.32683145988E+03 -0.81589430302E+02 -0.32238666460E+03  0.49071422726E+03  0.15294330000E+03 0.  1.
    8880022    1    1    2    0    0  0.32683145988E+03  0.81589430302E+02  0.18066100802E+03  0.41171068864E+03  0.15294330000E+03 0.  0.
<mgrwt>
<rscale>  0 0.36995580E+03</rscale>
<asrwt>0</asrwt>
<pdfrwt beam="1">  1        1 0.58515327E-01 0.36995580E+03</pdfrwt>
<pdfrwt beam="2">  1       -1 0.80319275E-01 0.36995580E+03</pdfrwt>
<totfact> 0.10430747E+02</totfact>
</mgrwt>
</event>
<event>
 4    1  0.1678003E-008  0.5116191E+03  0.7818608E-02  0.1010790E+00
         -1   -1    0    0    0  501 -0.00000000000E+00  0.00000000000E+00  0.68913069191E+03  0.68913069193E+03  0.50400000000E-02 0.  1.
          1   -1    0    0  501    0  0.00000000000E+00 -0.00000000000E+00 -0.84495973253E+03  0.84495973254E+03  0.50400000000E-02 0. -1.
    8880022    1    1    2    0    0  0.41582110930E+03 -0.25584224474E+03  0.49118593093E+03  0.70923742208E+03  0.15294330000E+03 0.  0.
    8880022    1    1    2    0    0 -0.41582110930E+03  0.25584224474E+03 -0.64701497154E+03  0.82485300239E+03  0.15294330000E+03 0.  0.
<mgrwt>
<rscale>  0 0.51161910E+03</rscale>
<asrwt>0</asrwt>
<pdfrwt beam="1">  1        1 0.12999381E+00 0.51161910E+03</pdfrwt>
<pdfrwt beam="2">  1       -1 0.10602011E+00 0.51161910E+03</pdfrwt>
<totfact> 0.17928401E+01</totfact>
</mgrwt>
</event>
<event>
 4    1  0.1678003E-008  0.3582813E+03  0.7818608E-02  0.1059266E+00
          1   -1    0    0  501    0  0.00000000000E+00  0.00000000000E+00  0.16473026346E+04  0.16473026347E+04  0.50400000000E-02 0. -1.
         -1   -1    0    0    0  501 -0.00000000000E+00 -0.00000000000E+00 -0.95616991064E+02  0.95616991196E+02  0.50400000000E-02 0.  1.
    8880022    1    1    2    0    0  0.87267025130E+02  0.31202292578E+03  0.11507056638E+04  0.12051925231E+04  0.15294330000E+03 0.  0.
    8880022    1    1    2    0    0 -0.87267025130E+02 -0.31202292578E+03  0.40097997976E+03  0.53772710278E+03  0.15294330000E+03 0.  0.
<mgrwt>
<rscale>  0 0.35828130E+03</rscale>
<asrwt>0</asrwt>
<pdfrwt beam="1">  1        1 0.25343116E+00 0.35828130E+03</pdfrwt>
<pdfrwt beam="2">  1       -1 0.14710307E-01 0.35828130E+03</pdfrwt>
<totfact> 0.18769296E+02</totfact>
</mgrwt>
</event>
<event>
 4    1  0.1678003E-008  0.3193774E+03  0.7818608E-02  0.1075936E+00
          1   -1    0    0  501    0  0.00000000000E+00  0.00000000000E+00  0.46599709004E+03  0.46599709007E+03  0.50400000000E-02 0. -1.
         -1   -1    0    0    0  501 -0.00000000000E+00 -0.00000000000E+00 -0.15714575892E+04  0.15714575892E+04  0.50400000000E-02 0.  1.
    8880022    1    1    2    0    0 -0.45329571955E+02  0.27668669358E+03 -0.14978485451E+04  0.15315195766E+04  0.15294330000E+03 0.  1.
    8880022    1    1    2    0    0  0.45329571955E+02 -0.27668669358E+03  0.39238804594E+03  0.50593510266E+03  0.15294330000E+03 0.  0.
<mgrwt>
<rscale>  0 0.31937744E+03</rscale>
<asrwt>0</asrwt>
<pdfrwt beam="1">  1        1 0.71691861E-01 0.31937744E+03</pdfrwt>
<pdfrwt beam="2">  1       -1 0.24176270E+00 0.31937744E+03</pdfrwt>
<totfact> 0.44197774E+00</totfact>
</mgrwt>
</event>
<event>
 4    1  0.1678003E-008  0.3927517E+03  0.7818608E-02  0.1046319E+00
         -1   -1    0    0    0  501 -0.00000000000E+00  0.00000000000E+00  0.14616538297E+04  0.14616538297E+04  0.50400000000E-02 0.  1.
          1   -1    0    0  501    0  0.00000000000E+00 -0.00000000000E+00 -0.53174191715E+03  0.53174191717E+03  0.50400000000E-02 0. -1.
    8880022    1    1    2    0    0 -0.35288217662E+03  0.79601554446E+02 -0.42737084760E+03  0.58043064395E+03  0.15294330000E+03 0.  0.
    8880022    1    1    2    0    0  0.35288217662E+03 -0.79601554446E+02  0.13572827601E+04  0.14129651029E+04  0.15294330000E+03 0.  0.
<mgrwt>
<rscale>  0 0.39275169E+03</rscale>
<asrwt>0</asrwt>
<pdfrwt beam="1">  1        1 0.81806450E-01 0.39275169E+03</pdfrwt>
<pdfrwt beam="2">  1       -1 0.22486982E+00 0.39275169E+03</pdfrwt>
<totfact> 0.46406352E+00</totfact>
</mgrwt>
</event>
<event>
 4    1  0.1678003E-008  0.8281132E+03  0.7818608E-02  0.9520193E-01
         -1   -1    0    0    0  501 -0.00000000000E+00  0.00000000000E+00  0.20276662599E+04  0.20276662599E+04  0.50400000000E-02 0.  1.
          1   -1    0    0  501    0  0.00000000000E+00 -0.00000000000E+00 -0.12313981339E+04  0.12313981339E+04  0.50400000000E-02 0. -1.
    8880022    1    1    2    0    0  0.81217354809E+03 -0.52477616079E+02 -0.98969456470E+03  0.12904521521E+04  0.15294330000E+03 0.  0.
    8880022    1    1    2    0    0 -0.81217354809E+03  0.52477616079E+02  0.17859626908E+04  0.19686122417E+04  0.15294330000E+03 0.  0.
<mgrwt>
<rscale>  0 0.82811317E+03</rscale>
<asrwt>0</asrwt>
<pdfrwt beam="1">  1        1 0.18944587E+00 0.82811317E+03</pdfrwt>
<pdfrwt beam="2">  1       -1 0.31194866E+00 0.82811317E+03</pdfrwt>
<totfact> 0.29418213E-01</totfact>
</mgrwt>
</event>
<event>
 4    1  0.1678003E-008  0.9100354E+03  0.7818608E-02  0.9413123E-01
         -1   -1    0    0    0  501 -0.00000000000E+00  0.00000000000E+00  0.69181255482E+03  0.69181255484E+03  0.50400000000E-02 0.  1.
          1   -1    0    0  501    0  0.00000000000E+00 -0.00000000000E+00 -0.13371342085E+04  0.13371342085E+04  0.50400000000E-02 0. -1.
    8880022    1    1    2    0    0  0.59308407198E+02 -0.89512869192E+03  0.56459532663E+01  0.91005296114E+03  0.15294330000E+03 0.  0.
    8880022    1    1    2    0    0 -0.59308407198E+02  0.89512869192E+03 -0.65096760690E+03  0.11188938022E+04  0.15294330000E+03 0.  0.
<mgrwt>
<rscale>  0 0.91003545E+03</rscale>
<asrwt>0</asrwt>
<pdfrwt beam="1">  1        1 0.20571295E+00 0.91003545E+03</pdfrwt>
<pdfrwt beam="2">  1       -1 0.10643270E+00 0.91003545E+03</pdfrwt>
<totfact> 0.71256541E+00</totfact>
</mgrwt>
</event>
<event>
 4    1  0.1678003E-008  0.7683386E+03  0.7818608E-02  0.9607011E-01
         -1   -1    0    0    0  501 -0.00000000000E+00  0.00000000000E+00  0.78872612209E+03  0.78872612210E+03  0.50400000000E-02 0.  1.
          1   -1    0    0  501    0  0.00000000000E+00 -0.00000000000E+00 -0.13809194128E+04  0.13809194128E+04  0.50400000000E-02 0. -1.
    8880022    1    1    2    0    0  0.18845375925E+02 -0.75272666265E+03 -0.10302465374E+04  0.12852051034E+04  0.15294330000E+03 0.  0.
    8880022    1    1    2    0    0 -0.18845375925E+02  0.75272666265E+03  0.43805324675E+03  0.88444043150E+03  0.15294330000E+03 0.  0.
<mgrwt>
<rscale>  0 0.76833862E+03</rscale>
<asrwt>0</asrwt>
<pdfrwt beam="1">  1        1 0.21244914E+00 0.76833862E+03</pdfrwt>
<pdfrwt beam="2">  1       -1 0.12134248E+00 0.76833862E+03</pdfrwt>
<totfact> 0.49514069E+00</totfact>
</mgrwt>
</event>
<event>
 4    1  0.1678003E-008  0.5640980E+03  0.7818608E-02  0.9982825E-01
         -1   -1    0    0    0  501 -0.00000000000E+00  0.00000000000E+00  0.21259347903E+04  0.21259347903E+04  0.50400000000E-02 0.  1.
          1   -1    0    0  501    0  0.00000000000E+00 -0.00000000000E+00 -0.41234058518E+03  0.41234058521E+03  0.50400000000E-02 0. -1.
    8880022    1    1    2    0    0 -0.19696579761E+03  0.50598360883E+03 -0.15613292952E+03  0.58530682768E+03  0.15294330000E+03 0.  0.
    8880022    1    1    2    0    0  0.19696579761E+03 -0.50598360883E+03  0.18697271346E+04  0.19529685478E+04  0.15294330000E+03 0.  0.
<mgrwt>
<rscale>  0 0.56409803E+03</rscale>
<asrwt>0</asrwt>
<pdfrwt beam="1">  1        1 0.63437013E-01 0.56409803E+03</pdfrwt>
<pdfrwt beam="2">  1       -1 0.32706689E+00 0.56409803E+03</pdfrwt>
<totfact> 0.13930072E+00</totfact>
</mgrwt>
</event>
<event>
 4    1  0.1678003E-008  0.5409495E+03  0.7818608E-02  0.1003611E+00
          1   -1    0    0  501    0  0.00000000000E+00  0.00000000000E+00  0.15287475450E+04  0.15287475450E+04  0.50400000000E-02 0. -1.
         -1   -1    0    0    0  501 -0.00000000000E+00 -0.00000000000E+00 -0.34320604996E+03  0.34320604999E+03  0.50400000000E-02 0.  1.
    8880022    1    1    2    0    0  0.48957934905E+03 -0.17189179942E+03 -0.29686605815E+02  0.54176348834E+03  0.15294330000E+03 0.  0.
    8880022    1    1    2    0    0 -0.48957934905E+03  0.17189179942E+03  0.12152281009E+04  0.13301901067E+04  0.15294330000E+03 0.  0.
<mgrwt>
<rscale>  0 0.54094952E+03</rscale>
<asrwt>0</asrwt>
<pdfrwt beam="1">  1        1 0.23519193E+00 0.54094952E+03</pdfrwt>
<pdfrwt beam="2">  1       -1 0.52800930E-01 0.54094952E+03</pdfrwt>
<totfact> 0.24112139E+01</totfact>
</mgrwt>
</event>
<event>
 4    1  0.1678003E-008  0.9694712E+03  0.7818608E-02  0.9342677E-01
          1   -1    0    0  501    0  0.00000000000E+00  0.00000000000E+00  0.23653855952E+04  0.23653855952E+04  0.50400000000E-02 0. -1.
         -1   -1    0    0    0  501 -0.00000000000E+00 -0.00000000000E+00 -0.80930736781E+03  0.80930736783E+03  0.50400000000E-02 0.  1.
    8880022    1    1    2    0    0 -0.28077379616E+03 -0.91523154107E+03  0.19105534599E+04  0.21424492700E+04  0.15294330000E+03 0.  0.
    8880022    1    1    2    0    0  0.28077379616E+03  0.91523154107E+03 -0.35447523248E+03  0.10322436930E+04  0.15294330000E+03 0.  0.
<mgrwt>
<rscale>  0 0.96947117E+03</rscale>
<asrwt>0</asrwt>
<pdfrwt beam="1">  1        1 0.36390547E+00 0.96947117E+03</pdfrwt>
<pdfrwt beam="2">  1       -1 0.12450883E+00 0.96947117E+03</pdfrwt>
<totfact> 0.96875357E-01</totfact>
</mgrwt>
</event>
<event>
 4    1  0.1678003E-008  0.6147792E+03  0.7818608E-02  0.9875210E-01
          1   -1    0    0  501    0  0.00000000000E+00  0.00000000000E+00  0.17254711575E+04  0.17254711575E+04  0.50400000000E-02 0. -1.
         -1   -1    0    0    0  501 -0.00000000000E+00 -0.00000000000E+00 -0.96279682085E+03  0.96279682087E+03  0.50400000000E-02 0.  1.
    8880022    1    1    2    0    0  0.38311456466E+03  0.45583447685E+03 -0.80004294483E+03  0.10089708651E+04  0.15294330000E+03 0.  0.
    8880022    1    1    2    0    0 -0.38311456466E+03 -0.45583447685E+03  0.15627172814E+04  0.16792971133E+04  0.15294330000E+03 0. -1.
<mgrwt>
<rscale>  0 0.61477922E+03</rscale>
<asrwt>0</asrwt>
<pdfrwt beam="1">  1        1 0.26545710E+00 0.61477922E+03</pdfrwt>
<pdfrwt beam="2">  1       -1 0.14812259E+00 0.61477922E+03</pdfrwt>
<totfact> 0.17892410E+00</totfact>
</mgrwt>
</event>
<event>
 4    1  0.1678003E-008  0.2942947E+03  0.7818608E-02  0.1088128E+00
         -1   -1    0    0    0  501 -0.00000000000E+00  0.00000000000E+00  0.45403459085E+03  0.45403459088E+03  0.50400000000E-02 0.  1.
          1   -1    0    0  501    0  0.00000000000E+00 -0.00000000000E+00 -0.43138500284E+03  0.43138500287E+03  0.50400000000E-02 0. -1.
    8880022    1    1    2    0    0  0.42267833897E+02  0.24785308887E+03 -0.31931984339E+03  0.43425169987E+03  0.15294330000E+03 0.  0.
    8880022    1    1    2    0    0 -0.42267833897E+02 -0.24785308887E+03  0.34196943140E+03  0.45116789388E+03  0.15294330000E+03 0.  0.
<mgrwt>
<rscale>  0 0.29429471E+03</rscale>
<asrwt>0</asrwt>
<pdfrwt beam="1">  1        1 0.66366924E-01 0.29429471E+03</pdfrwt>
<pdfrwt beam="2">  1       -1 0.69851475E-01 0.29429471E+03</pdfrwt>
<totfact> 0.11914248E+02</totfact>
</mgrwt>
</event>
<event>
 4    1  0.1678003E-008  0.4894084E+03  0.7818608E-02  0.1016581E+00
         -1   -1    0    0    0  501 -0.00000000000E+00  0.00000000000E+00  0.27031123563E+03  0.27031123568E+03  0.50400000000E-02 0.  1.
          1   -1    0    0  501    0  0.00000000000E+00 -0.00000000000E+00 -0.17584588322E+04  0.17584588322E+04  0.50400000000E-02 0. -1.
    8880022    1    1    2    0    0  0.31832343674E+03 -0.33882016994E+03 -0.29599926566E+02  0.49030268876E+03  0.15294330000E+03 0.  1.
    8880022    1    1    2    0    0 -0.31832343674E+03  0.33882016994E+03 -0.14585476700E+04  0.15384673792E+04  0.15294330000E+03 0.  0.
<mgrwt>
<rscale>  0 0.48940839E+03</rscale>
<asrwt>0</asrwt>
<pdfrwt beam="1">  1        1 0.27053212E+00 0.48940839E+03</pdfrwt>
<pdfrwt beam="2">  1       -1 0.41586345E-01 0.48940839E+03</pdfrwt>
<totfact> 0.26640156E+01</totfact>
</mgrwt>
</event>
<event>
 4    1  0.1678003E-008  0.6866242E+03  0.7818608E-02  0.9740384E-01
         -1   -1    0    0    0  501 -0.00000000000E+00  0.00000000000E+00  0.16609502578E+03  0.16609502586E+03  0.50400000000E-02 0.  1.
          1   -1    0    0  501    0  0.00000000000E+00 -0.00000000000E+00 -0.30063652967E+04  0.30063652967E+04  0.50400000000E-02 0. -1.
    8880022    1    1    2    0    0 -0.14451268470E+03  0.65358798881E+03 -0.10452594020E+04  0.12506078704E+04  0.15294330000E+03 0.  0.
    8880022    1    1    2    0    0  0.14451268470E+03 -0.65358798881E+03 -0.17950108689E+04  0.19218524521E+04  0.15294330000E+03 0.  0.
<mgrwt>
<rscale>  0 0.68662423E+03</rscale>
<asrwt>0</asrwt>
<pdfrwt beam="1">  1        1 0.46251770E+00 0.68662423E+03</pdfrwt>
<pdfrwt beam="2">  1       -1 0.25553083E-01 0.68662423E+03</pdfrwt>
<totfact> 0.85796769E+00</totfact>
</mgrwt>
</event>
<event>
 4    1  0.1678003E-008  0.5063707E+03  0.7818608E-02  0.1012129E+00
          1   -1    0    0  501    0  0.00000000000E+00  0.00000000000E+00  0.33503138800E+04  0.33503138800E+04  0.50400000000E-02 0. -1.
         -1   -1    0    0    0  501 -0.00000000000E+00 -0.00000000000E+00 -0.26776021649E+03  0.26776021653E+03  0.50400000000E-02 0.  1.
    8880022    1    1    2    0    0  0.31815453168E+03 -0.36303895930E+03  0.12483708176E+02  0.50652451865E+03  0.15294330000E+03 0.  0.
    8880022    1    1    2    0    0 -0.31815453168E+03  0.36303895930E+03  0.30700699553E+04  0.31115495779E+04  0.15294330000E+03 0.  0.
<mgrwt>
<rscale>  0 0.50637066E+03</rscale>
<asrwt>0</asrwt>
<pdfrwt beam="1">  1        1 0.51543293E+00 0.50637066E+03</pdfrwt>
<pdfrwt beam="2">  1       -1 0.41193877E-01 0.50637066E+03</pdfrwt>
<totfact> 0.21728012E+00</totfact>
</mgrwt>
</event>
<event>
 4    1  0.1678003E-008  0.7858263E+03  0.7818608E-02  0.9580763E-01
         -1   -1    0    0    0  501 -0.00000000000E+00  0.00000000000E+00  0.76125403245E+03  0.76125403247E+03  0.50400000000E-02 0.  1.
          1   -1    0    0  501    0  0.00000000000E+00 -0.00000000000E+00 -0.15490326758E+04  0.15490326758E+04  0.50400000000E-02 0. -1.
    8880022    1    1    2    0    0  0.60390351303E+03  0.47899045938E+03 -0.11911254550E+04  0.14269908254E+04  0.15294330000E+03 0. -1.
    8880022    1    1    2    0    0 -0.60390351303E+03 -0.47899045938E+03  0.40334681164E+03  0.88329588288E+03  0.15294330000E+03 0.  0.
<mgrwt>
<rscale>  0 0.78582630E+03</rscale>
<asrwt>0</asrwt>
<pdfrwt beam="1">  1        1 0.23831272E+00 0.78582630E+03</pdfrwt>
<pdfrwt beam="2">  1       -1 0.11711601E+00 0.78582630E+03</pdfrwt>
<totfact> 0.41225702E+00</totfact>
</mgrwt>
</event>
<event>
 4    1  0.1678003E-008  0.2831667E+03  0.7818608E-02  0.1093972E+00
          1   -1    0    0  501    0  0.00000000000E+00  0.00000000000E+00  0.13835210403E+04  0.13835210403E+04  0.50400000000E-02 0. -1.
         -1   -1    0    0    0  501 -0.00000000000E+00 -0.00000000000E+00 -0.21497881920E+03  0.21497881925E+03  0.50400000000E-02 0.  1.
    8880022    1    1    2    0    0  0.82413903838E+02  0.22360605272E+03 -0.98800332819E+02  0.29990811450E+03  0.15294330000E+03 0.  1.
    8880022    1    1    2    0    0 -0.82413903838E+02 -0.22360605272E+03  0.12673425539E+04  0.12985917451E+04  0.15294330000E+03 0.  0.
<mgrwt>
<rscale>  0 0.28316668E+03</rscale>
<asrwt>0</asrwt>
<pdfrwt beam="1">  1        1 0.21284939E+00 0.28316668E+03</pdfrwt>
<pdfrwt beam="2">  1       -1 0.33073665E-01 0.28316668E+03</pdfrwt>
<totfact> 0.74610697E+01</totfact>
</mgrwt>
</event>
<event>
 4    1  0.1678003E-008  0.1591891E+03  0.7818608E-02  0.1189615E+00
          1   -1    0    0  501    0  0.00000000000E+00  0.00000000000E+00  0.70795610670E+03  0.70795610671E+03  0.50400000000E-02 0. -1.
         -1   -1    0    0    0  501 -0.00000000000E+00 -0.00000000000E+00 -0.14665401571E+03  0.14665401579E+03  0.50400000000E-02 0.  1.
    8880022    1    1    2    0    0  0.95378302321E+01 -0.43111001648E+02  0.65216648146E+03  0.67131386194E+03  0.15294330000E+03 0. -1.
    8880022    1    1    2    0    0 -0.95378302321E+01  0.43111001648E+02 -0.90864390473E+02  0.18329626057E+03  0.15294330000E+03 0.  0.
<mgrwt>
<rscale>  0 0.15918914E+03</rscale>
<asrwt>0</asrwt>
<pdfrwt beam="1">  1        1 0.10891633E+00 0.15918914E+03</pdfrwt>
<pdfrwt beam="2">  1       -1 0.22562156E-01 0.15918914E+03</pdfrwt>
<totfact> 0.46532120E+02</totfact>
</mgrwt>
</event>
<event>
 4    1  0.1678003E-008  0.5897844E+03  0.7818608E-02  0.9926830E-01
         -1   -1    0    0    0  501 -0.00000000000E+00  0.00000000000E+00  0.13018609088E+04  0.13018609088E+04  0.50400000000E-02 0.  1.
          1   -1    0    0  501    0  0.00000000000E+00 -0.00000000000E+00 -0.67882206994E+03  0.67882206996E+03  0.50400000000E-02 0. -1.
    8880022    1    1    2    0    0  0.22777172822E+03 -0.52208626785E+03  0.10827087341E+04  0.12329249317E+04  0.15294330000E+03 0.  0.
    8880022    1    1    2    0    0 -0.22777172822E+03  0.52208626785E+03 -0.45966989529E+03  0.74775804703E+03  0.15294330000E+03 0.  0.
<mgrwt>
<rscale>  0 0.58978444E+03</rscale>
<asrwt>0</asrwt>
<pdfrwt beam="1">  1        1 0.10443417E+00 0.58978444E+03</pdfrwt>
<pdfrwt beam="2">  1       -1 0.20028629E+00 0.58978444E+03</pdfrwt>
<totfact> 0.45577866E+00</totfact>
</mgrwt>
</event>
<event>
 4    1  0.1678003E-008  0.4942340E+03  0.7818608E-02  0.1015295E+00
         -1   -1    0    0    0  501 -0.00000000000E+00  0.00000000000E+00  0.58390011431E+03  0.58390011433E+03  0.50400000000E-02 0.  1.
          1   -1    0    0  501    0  0.00000000000E+00 -0.00000000000E+00 -0.55436453477E+03  0.55436453479E+03  0.50400000000E-02 0. -1.
    8880022    1    1    2    0    0 -0.36536738814E+03 -0.29560491855E+03 -0.26715379378E+03  0.56181705095E+03  0.15294330000E+03 0.  0.
    8880022    1    1    2    0    0  0.36536738814E+03  0.29560491855E+03  0.29668937332E+03  0.57644759818E+03  0.15294330000E+03 0.  0.
<mgrwt>
<rscale>  0 0.49423400E+03</rscale>
<asrwt>0</asrwt>
<pdfrwt beam="1">  1        1 0.85286852E-01 0.49423400E+03</pdfrwt>
<pdfrwt beam="2">  1       -1 0.89830786E-01 0.49423400E+03</pdfrwt>
<totfact> 0.48855570E+01</totfact>
</mgrwt>
</event>
<event>
 4    1  0.1678003E-008  0.6003557E+03  0.7818608E-02  0.9904668E-01
         -1   -1    0    0    0  501 -0.00000000000E+00  0.00000000000E+00  0.46000480824E+03  0.46000480827E+03  0.50400000000E-02 0.  1.
          1   -1    0    0  501    0  0.00000000000E+00 -0.00000000000E+00 -0.11802522586E+04  0.11802522586E+04  0.50400000000E-02 0. -1.
    8880022    1    1    2    0    0 -0.16758614949E+03 -0.55583288051E+03  0.11536312036E+03  0.61133919481E+03  0.15294330000E+03 0.  0.
    8880022    1    1    2    0    0  0.16758614949E+03  0.55583288051E+03 -0.83561057075E+03  0.10289178721E+04  0.15294330000E+03 0.  0.
<mgrwt>
<rscale>  0 0.60035570E+03</rscale>
<asrwt>0</asrwt>
<pdfrwt beam="1">  1        1 0.18157727E+00 0.60035570E+03</pdfrwt>
<pdfrwt beam="2">  1       -1 0.70769971E-01 0.60035570E+03</pdfrwt>
<totfact> 0.23432891E+01</totfact>
</mgrwt>
</event>
<event>
 4    1  0.1678003E-008  0.7990476E+03  0.7818608E-02  0.9561397E-01
         -1   -1    0    0    0  501 -0.00000000000E+00  0.00000000000E+00  0.16101252782E+04  0.16101252782E+04  0.50400000000E-02 0.  1.
          1   -1    0    0  501    0  0.00000000000E+00 -0.00000000000E+00 -0.58190355587E+03  0.58190355590E+03  0.50400000000E-02 0. -1.
    8880022    1    1    2    0    0  0.62991629262E+03 -0.46721610772E+03 -0.10448126958E+03  0.80584949943E+03  0.15294330000E+03 0.  0.
    8880022    1    1    2    0    0 -0.62991629262E+03  0.46721610772E+03  0.11327029919E+04  0.13861793347E+04  0.15294330000E+03 0.  0.
<mgrwt>
<rscale>  0 0.79904761E+03</rscale>
<asrwt>0</asrwt>
<pdfrwt beam="1">  1        1 0.89523627E-01 0.79904761E+03</pdfrwt>
<pdfrwt beam="2">  1       -1 0.24771157E+00 0.79904761E+03</pdfrwt>
<totfact> 0.26753839E+00</totfact>
</mgrwt>
</event>
<event>
 4    1  0.1678003E-008  0.1966802E+03  0.7818608E-02  0.1152571E+00
         -1   -1    0    0    0  501 -0.00000000000E+00  0.00000000000E+00  0.19575757486E+03  0.19575757492E+03  0.50400000000E-02 0.  1.
          1   -1    0    0  501    0  0.00000000000E+00 -0.00000000000E+00 -0.13772849521E+04  0.13772849521E+04  0.50400000000E-02 0. -1.
    8880022    1    1    2    0    0 -0.41737891497E+02  0.11640182114E+03  0.13715065637E+03  0.23977779528E+03  0.15294330000E+03 0.  1.
    8880022    1    1    2    0    0  0.41737891497E+02 -0.11640182114E+03 -0.13186780336E+04  0.13332647317E+04  0.15294330000E+03 0.  0.
<mgrwt>
<rscale>  0 0.19668017E+03</rscale>
<asrwt>0</asrwt>
<pdfrwt beam="1">  1        1 0.21188999E+00 0.19668017E+03</pdfrwt>
<pdfrwt beam="2">  1       -1 0.30116551E-01 0.19668017E+03</pdfrwt>
<totfact> 0.90827230E+01</totfact>
</mgrwt>
</event>
<event>
 4    1  0.1678003E-008  0.5496363E+03  0.7818608E-02  0.1001578E+00
          1   -1    0    0  501    0  0.00000000000E+00  0.00000000000E+00  0.13908936369E+04  0.13908936369E+04  0.50400000000E-02 0. -1.
         -1   -1    0    0    0  501 -0.00000000000E+00 -0.00000000000E+00 -0.34218088464E+03  0.34218088468E+03  0.50400000000E-02 0.  1.
    8880022    1    1    2    0    0 -0.37127797589E+03  0.37531456500E+03  0.10480578227E+04  0.11834378779E+04  0.15294330000E+03 0.  0.
    8880022    1    1    2    0    0  0.37127797589E+03 -0.37531456500E+03  0.65492949051E+00  0.54963664364E+03  0.15294330000E+03 0.  1.
<mgrwt>
<rscale>  0 0.54963625E+03</rscale>
<asrwt>0</asrwt>
<pdfrwt beam="1">  1        1 0.21398364E+00 0.54963625E+03</pdfrwt>
<pdfrwt beam="2">  1       -1 0.52643213E-01 0.54963625E+03</pdfrwt>
<totfact> 0.30067500E+01</totfact>
</mgrwt>
</event>
<event>
 4    1  0.1678003E-008  0.6254108E+03  0.7818608E-02  0.9854045E-01
         -1   -1    0    0    0  501 -0.00000000000E+00  0.00000000000E+00  0.50970852717E+03  0.50970852719E+03  0.50400000000E-02 0.  1.
          1   -1    0    0  501    0  0.00000000000E+00 -0.00000000000E+00 -0.13792388130E+04  0.13792388130E+04  0.50400000000E-02 0. -1.
    8880022    1    1    2    0    0 -0.48905376164E+03 -0.35857141888E+03 -0.10638318882E+04  0.12340490199E+04  0.15294330000E+03 0.  0.
    8880022    1    1    2    0    0  0.48905376164E+03  0.35857141888E+03  0.19430160237E+03  0.65489832028E+03  0.15294330000E+03 0.  0.
<mgrwt>
<rscale>  0 0.62541082E+03</rscale>
<asrwt>0</asrwt>
<pdfrwt beam="1">  1        1 0.21219058E+00 0.62541082E+03</pdfrwt>
<pdfrwt beam="2">  1       -1 0.78416697E-01 0.62541082E+03</pdfrwt>
<totfact> 0.13648468E+01</totfact>
</mgrwt>
</event>
<event>
 4    1  0.1678003E-008  0.5916848E+03  0.7818608E-02  0.9922809E-01
         -1   -1    0    0    0  501 -0.00000000000E+00  0.00000000000E+00  0.60928510803E+03  0.60928510805E+03  0.50400000000E-02 0.  1.
          1   -1    0    0  501    0  0.00000000000E+00 -0.00000000000E+00 -0.12765092092E+04  0.12765092092E+04  0.50400000000E-02 0. -1.
    8880022    1    1    2    0    0 -0.13140864917E+02 -0.57142507471E+03 -0.10328016993E+04  0.11902816059E+04  0.15294330000E+03 0. -1.
    8880022    1    1    2    0    0  0.13140864917E+02  0.57142507471E+03  0.36557759814E+03  0.69551271132E+03  0.15294330000E+03 0.  0.
<mgrwt>
<rscale>  0 0.59168484E+03</rscale>
<asrwt>0</asrwt>
<pdfrwt beam="1">  1        1 0.19638603E+00 0.59168484E+03</pdfrwt>
<pdfrwt beam="2">  1       -1 0.93736171E-01 0.59168484E+03</pdfrwt>
<totfact> 0.11018829E+01</totfact>
</mgrwt>
</event>
<event>
 4    1  0.1678003E-008  0.3789092E+03  0.7818608E-02  0.1051338E+00
         -1   -1    0    0    0  501 -0.00000000000E+00  0.00000000000E+00  0.11663836632E+03  0.11663836643E+03  0.50400000000E-02 0.  1.
          1   -1    0    0  501    0  0.00000000000E+00 -0.00000000000E+00 -0.32154483665E+04  0.32154483665E+04  0.50400000000E-02 0. -1.
    8880022    1    1    2    0    0 -0.22494334978E+03 -0.26378220664E+03 -0.28582687856E+04  0.28832746430E+04  0.15294330000E+03 0.  0.
    8880022    1    1    2    0    0  0.22494334978E+03  0.26378220664E+03 -0.24054121457E+03  0.44881208994E+03  0.15294330000E+03 0.  0.
<mgrwt>
<rscale>  0 0.37890925E+03</rscale>
<asrwt>0</asrwt>
<pdfrwt beam="1">  1        1 0.49468430E+00 0.37890925E+03</pdfrwt>
<pdfrwt beam="2">  1       -1 0.17944367E-01 0.37890925E+03</pdfrwt>
<totfact> 0.11799310E+01</totfact>
</mgrwt>
</event>
<event>
 4    1  0.1678003E-008  0.5419268E+03  0.7818608E-02  0.1003380E+00
          1   -1    0    0  501    0  0.00000000000E+00  0.00000000000E+00  0.19552644935E+04  0.19552644935E+04  0.50400000000E-02 0. -1.
         -1   -1    0    0    0  501 -0.00000000000E+00 -0.00000000000E+00 -0.28027415550E+03  0.28027415554E+03  0.50400000000E-02 0.  1.
    8880022    1    1    2    0    0 -0.21048752437E+03 -0.47538198453E+03  0.15989651569E+04  0.16883051428E+04  0.15294330000E+03 0.  0.
    8880022    1    1    2    0    0  0.21048752437E+03  0.47538198453E+03  0.76025181015E+02  0.54723350619E+03  0.15294330000E+03 0.  0.
<mgrwt>
<rscale>  0 0.54192682E+03</rscale>
<asrwt>0</asrwt>
<pdfrwt beam="1">  1        1 0.30080992E+00 0.54192682E+03</pdfrwt>
<pdfrwt beam="2">  1       -1 0.43119102E-01 0.54192682E+03</pdfrwt>
<totfact> 0.18276304E+01</totfact>
</mgrwt>
</event>
<event>
 4    1  0.1678003E-008  0.2219231E+03  0.7818608E-02  0.1132457E+00
         -1   -1    0    0    0  501 -0.00000000000E+00  0.00000000000E+00  0.15300362264E+03  0.15300362272E+03  0.50400000000E-02 0.  1.
          1   -1    0    0  501    0  0.00000000000E+00 -0.00000000000E+00 -0.15549336158E+04  0.15549336158E+04  0.50400000000E-02 0. -1.
    8880022    1    1    2    0    0  0.16075507015E+03 -0.39993456297E+01  0.59493953785E+02  0.22975937608E+03  0.15294330000E+03 0.  0.
    8880022    1    1    2    0    0 -0.16075507015E+03  0.39993456297E+01 -0.14614239470E+04  0.14781778625E+04  0.15294330000E+03 0. -1.
<mgrwt>
<rscale>  0 0.22192305E+03</rscale>
<asrwt>0</asrwt>
<pdfrwt beam="1">  1        1 0.23922054E+00 0.22192305E+03</pdfrwt>
<pdfrwt beam="2">  1       -1 0.23539020E-01 0.22192305E+03</pdfrwt>
<totfact> 0.10377038E+02</totfact>
</mgrwt>
</event>
<event>
 4    1  0.1678003E-008  0.4111795E+03  0.7818608E-02  0.1039976E+00
          1   -1    0    0  501    0  0.00000000000E+00  0.00000000000E+00  0.15222642934E+04  0.15222642934E+04  0.50400000000E-02 0. -1.
         -1   -1    0    0    0  501 -0.00000000000E+00 -0.00000000000E+00 -0.17522748834E+03  0.17522748842E+03  0.50400000000E-02 0.  1.
    8880022    1    1    2    0    0  0.38078789390E+02 -0.37977220171E+03  0.15992318543E+03  0.44118476588E+03  0.15294330000E+03 0.  1.
    8880022    1    1    2    0    0 -0.38078789390E+02  0.37977220171E+03  0.11871136196E+04  0.12563070159E+04  0.15294330000E+03 0.  0.
<mgrwt>
<rscale>  0 0.41117949E+03</rscale>
<asrwt>0</asrwt>
<pdfrwt beam="1">  1        1 0.23419449E+00 0.41117949E+03</pdfrwt>
<pdfrwt beam="2">  1       -1 0.26958077E-01 0.41117949E+03</pdfrwt>
<totfact> 0.83122773E+01</totfact>
</mgrwt>
</event>
<event>
 4    1  0.1678003E-008  0.4114857E+03  0.7818608E-02  0.1039874E+00
          1   -1    0    0  501    0  0.00000000000E+00  0.00000000000E+00  0.32362150172E+04  0.32362150172E+04  0.50400000000E-02 0. -1.
         -1   -1    0    0    0  501 -0.00000000000E+00 -0.00000000000E+00 -0.51741377544E+03  0.51741377547E+03  0.50400000000E-02 0.  1.
    8880022    1    1    2    0    0 -0.22080989899E+03  0.31172391554E+03  0.31387955628E+04  0.31656528630E+04  0.15294330000E+03 0.  0.
    8880022    1    1    2    0    0  0.22080989899E+03 -0.31172391554E+03 -0.41999432110E+03  0.58797592960E+03  0.15294330000E+03 0.  0.
<mgrwt>
<rscale>  0 0.41148568E+03</rscale>
<asrwt>0</asrwt>
<pdfrwt beam="1">  1        1 0.49787922E+00 0.41148568E+03</pdfrwt>
<pdfrwt beam="2">  1       -1 0.79602121E-01 0.41148568E+03</pdfrwt>
<totfact> 0.76256082E-01</totfact>
</mgrwt>
</event>
<event>
 4    1  0.1678003E-008  0.6710121E+03  0.7818608E-02  0.9768131E-01
          1   -1    0    0  501    0  0.00000000000E+00  0.00000000000E+00  0.10842649331E+04  0.10842649331E+04  0.50400000000E-02 0. -1.
         -1   -1    0    0    0  501 -0.00000000000E+00 -0.00000000000E+00 -0.63020184662E+03  0.63020184664E+03  0.50400000000E-02 0.  1.
    8880022    1    1    2    0    0  0.11915212737E+03 -0.64239270093E+03 -0.27359594442E+03  0.72464612431E+03  0.15294330000E+03 0.  0.
    8880022    1    1    2    0    0 -0.11915212737E+03  0.64239270093E+03  0.72765903092E+03  0.98982065545E+03  0.15294330000E+03 0.  0.
<mgrwt>
<rscale>  0 0.67101212E+03</rscale>
<asrwt>0</asrwt>
<pdfrwt beam="1">  1        1 0.16680999E+00 0.67101212E+03</pdfrwt>
<pdfrwt beam="2">  1       -1 0.96954131E-01 0.67101212E+03</pdfrwt>
<totfact> 0.13903211E+01</totfact>
</mgrwt>
</event>
<event>
 4    1  0.1678003E-008  0.7990540E+03  0.7818608E-02  0.9561387E-01
          1   -1    0    0  501    0  0.00000000000E+00  0.00000000000E+00  0.10720003639E+04  0.10720003639E+04  0.50400000000E-02 0. -1.
         -1   -1    0    0    0  501 -0.00000000000E+00 -0.00000000000E+00 -0.13696771038E+04  0.13696771038E+04  0.50400000000E-02 0.  1.
    8880022    1    1    2    0    0  0.75982967116E+03  0.19430505620E+03 -0.10666220123E+04  0.13327301881E+04  0.15294330000E+03 0.  0.
    8880022    1    1    2    0    0 -0.75982967116E+03 -0.19430505620E+03  0.76894527245E+03  0.11089472797E+04  0.15294330000E+03 0.  0.
<mgrwt>
<rscale>  0 0.79905396E+03</rscale>
<asrwt>0</asrwt>
<pdfrwt beam="1">  1        1 0.16492313E+00 0.79905396E+03</pdfrwt>
<pdfrwt beam="2">  1       -1 0.21071955E+00 0.79905396E+03</pdfrwt>
<totfact> 0.17542509E+00</totfact>
</mgrwt>
</event>
<event>
 4    1  0.1678003E-008  0.6105718E+03  0.7818608E-02  0.9883712E-01
          1   -1    0    0  501    0  0.00000000000E+00  0.00000000000E+00  0.99153224737E+03  0.99153224738E+03  0.50400000000E-02 0. -1.
         -1   -1    0    0    0  501 -0.00000000000E+00 -0.00000000000E+00 -0.12413842705E+04  0.12413842705E+04  0.50400000000E-02 0.  1.
    8880022    1    1    2    0    0  0.59027019833E+03  0.31422661176E+02  0.80725117745E+03  0.10121523636E+04  0.15294330000E+03 0.  0.
    8880022    1    1    2    0    0 -0.59027019833E+03 -0.31422661176E+02 -0.10571032006E+04  0.12207641543E+04  0.15294330000E+03 0.  0.
<mgrwt>
<rscale>  0 0.61057182E+03</rscale>
<asrwt>0</asrwt>
<pdfrwt beam="1">  1        1 0.15254342E+00 0.61057182E+03</pdfrwt>
<pdfrwt beam="2">  1       -1 0.19098220E+00 0.61057182E+03</pdfrwt>
<totfact> 0.28565249E+00</totfact>
</mgrwt>
</event>
<event>
 4    1  0.1678003E-008  0.3418879E+03  0.7818608E-02  0.1065995E+00
         -1   -1    0    0    0  501 -0.00000000000E+00  0.00000000000E+00  0.42030293408E+03  0.42030293411E+03  0.50400000000E-02 0.  1.
          1   -1    0    0  501    0  0.00000000000E+00 -0.00000000000E+00 -0.59436960135E+03  0.59436960138E+03  0.50400000000E-02 0. -1.
    8880022    1    1    2    0    0 -0.17809731198E+03 -0.24854985049E+03  0.28304577000E+03  0.44384934566E+03  0.15294330000E+03 0.  0.
    8880022    1    1    2    0    0  0.17809731198E+03  0.24854985049E+03 -0.45711243728E+03  0.57082318982E+03  0.15294330000E+03 0. -1.
<mgrwt>
<rscale>  0 0.34188790E+03</rscale>
<asrwt>0</asrwt>
<pdfrwt beam="1">  1        1 0.91441478E-01 0.34188790E+03</pdfrwt>
<pdfrwt beam="2">  1       -1 0.64661989E-01 0.34188790E+03</pdfrwt>
<totfact> 0.89549377E+01</totfact>
</mgrwt>
</event>
<event>
 4    1  0.1678003E-008  0.5258975E+03  0.7818608E-02  0.1007232E+00
         -1   -1    0    0    0  501 -0.00000000000E+00  0.00000000000E+00  0.45341470714E+03  0.45341470716E+03  0.50400000000E-02 0.  1.
          1   -1    0    0  501    0  0.00000000000E+00 -0.00000000000E+00 -0.11540675632E+04  0.11540675632E+04  0.50400000000E-02 0. -1.
    8880022    1    1    2    0    0  0.46708286598E+03 -0.18710982484E+03 -0.90220057269E+03  0.10442863672E+04  0.15294330000E+03 0.  0.
    8880022    1    1    2    0    0 -0.46708286598E+03  0.18710982484E+03  0.20154771667E+03  0.56319590317E+03  0.15294330000E+03 0.  1.
<mgrwt>
<rscale>  0 0.52589746E+03</rscale>
<asrwt>0</asrwt>
<pdfrwt beam="1">  1        1 0.17754886E+00 0.52589746E+03</pdfrwt>
<pdfrwt beam="2">  1       -1 0.69756109E-01 0.52589746E+03</pdfrwt>
<totfact> 0.25517115E+01</totfact>
</mgrwt>
</event>
<event>
 4    1  0.1678003E-008  0.5988163E+03  0.7818608E-02  0.9907865E-01
         -1   -1    0    0    0  501 -0.00000000000E+00  0.00000000000E+00  0.30732960912E+04  0.30732960912E+04  0.50400000000E-02 0.  1.
          1   -1    0    0  501    0  0.00000000000E+00 -0.00000000000E+00 -0.37897108022E+03  0.37897108026E+03  0.50400000000E-02 0. -1.
    8880022    1    1    2    0    0 -0.22588564852E+02 -0.57851457045E+03 -0.88876186185E+02  0.60537590055E+03  0.15294330000E+03 0.  0.
    8880022    1    1    2    0    0  0.22588564852E+02  0.57851457045E+03  0.27832011972E+04  0.28468912709E+04  0.15294330000E+03 0.  0.
<mgrwt>
<rscale>  0 0.59881634E+03</rscale>
<asrwt>0</asrwt>
<pdfrwt beam="1">  1        1 0.58303243E-01 0.59881634E+03</pdfrwt>
<pdfrwt beam="2">  1       -1 0.47281479E+00 0.59881634E+03</pdfrwt>
<totfact> 0.16175844E-01</totfact>
</mgrwt>
</event>
<event>
 4    1  0.1678003E-008  0.4453472E+03  0.7818608E-02  0.1029119E+00
          1   -1    0    0  501    0  0.00000000000E+00  0.00000000000E+00  0.60507992423E+03  0.60507992425E+03  0.50400000000E-02 0. -1.
         -1   -1    0    0    0  501 -0.00000000000E+00 -0.00000000000E+00 -0.10894899693E+04  0.10894899693E+04  0.50400000000E-02 0.  1.
    8880022    1    1    2    0    0  0.17103899897E+03 -0.38169110681E+03 -0.95065994684E+03  0.10498039949E+04  0.15294330000E+03 0.  0.
    8880022    1    1    2    0    0 -0.17103899897E+03  0.38169110681E+03  0.46624990175E+03  0.64476589867E+03  0.15294330000E+03 0.  0.
<mgrwt>
<rscale>  0 0.44534716E+03</rscale>
<asrwt>0</asrwt>
<pdfrwt beam="1">  1        1 0.93089219E-01 0.44534716E+03</pdfrwt>
<pdfrwt beam="2">  1       -1 0.16761384E+00 0.44534716E+03</pdfrwt>
<totfact> 0.94147756E+00</totfact>
</mgrwt>
</event>
<event>
 4    1  0.1678003E-008  0.1171387E+04  0.7818608E-02  0.9138277E-01
          1   -1    0    0  501    0  0.00000000000E+00  0.00000000000E+00  0.55011455073E+03  0.55011455075E+03  0.50400000000E-02 0. -1.
         -1   -1    0    0    0  501 -0.00000000000E+00 -0.00000000000E+00 -0.29704927277E+04  0.29704927277E+04  0.50400000000E-02 0.  1.
    8880022    1    1    2    0    0  0.11613428256E+04 -0.62605099071E+01 -0.19149908367E+04  0.22448469681E+04  0.15294330000E+03 0.  0.
    8880022    1    1    2    0    0 -0.11613428256E+04  0.62605099071E+01 -0.50538734022E+03  0.12757603103E+04  0.15294330000E+03 0.  0.
<mgrwt>
<rscale>  0 0.11713872E+04</rscale>
<asrwt>0</asrwt>
<pdfrwt beam="1">  1        1 0.84633010E-01 0.11713872E+04</pdfrwt>
<pdfrwt beam="2">  1       -1 0.45699887E+00 0.11713872E+04</pdfrwt>
<totfact> 0.11229244E-01</totfact>
</mgrwt>
</event>
<event>
 4    1  0.1678003E-008  0.4476402E+03  0.7818608E-02  0.1028428E+00
          1   -1    0    0  501    0  0.00000000000E+00  0.00000000000E+00  0.26970097029E+04  0.26970097029E+04  0.50400000000E-02 0. -1.
         -1   -1    0    0    0  501 -0.00000000000E+00 -0.00000000000E+00 -0.56180713353E+03  0.56180713356E+03  0.50400000000E-02 0.  1.
    8880022    1    1    2    0    0 -0.38699562556E+02  0.41891813219E+03  0.25854476943E+04  0.26239133924E+04  0.15294330000E+03 0.  0.
    8880022    1    1    2    0    0  0.38699562556E+02 -0.41891813219E+03 -0.45024512501E+03  0.63490344402E+03  0.15294330000E+03 0.  0.
<mgrwt>
<rscale>  0 0.44764016E+03</rscale>
<asrwt>0</asrwt>
<pdfrwt beam="1">  1        1 0.41492457E+00 0.44764016E+03</pdfrwt>
<pdfrwt beam="2">  1       -1 0.86431868E-01 0.44764016E+03</pdfrwt>
<totfact> 0.15163267E+00</totfact>
</mgrwt>
</event>
<event>
 4    1  0.1678003E-008  0.4547268E+03  0.7818608E-02  0.1026322E+00
          1   -1    0    0  501    0  0.00000000000E+00  0.00000000000E+00  0.41612112702E+03  0.41612112705E+03  0.50400000000E-02 0. -1.
         -1   -1    0    0    0  501 -0.00000000000E+00 -0.00000000000E+00 -0.70373462594E+03  0.70373462596E+03  0.50400000000E-02 0.  1.
    8880022    1    1    2    0    0  0.41549519942E+03  0.10367505013E+03 -0.44735274874E+03  0.63788785189E+03  0.15294330000E+03 0.  0.
    8880022    1    1    2    0    0 -0.41549519942E+03 -0.10367505013E+03  0.15973924982E+03  0.48196790112E+03  0.15294330000E+03 0.  0.
<mgrwt>
<rscale>  0 0.45472676E+03</rscale>
<asrwt>0</asrwt>
<pdfrwt beam="1">  1        1 0.64018635E-01 0.45472676E+03</pdfrwt>
<pdfrwt beam="2">  1       -1 0.10826687E+00 0.45472676E+03</pdfrwt>
<totfact> 0.47517788E+01</totfact>
</mgrwt>
</event>
<event>
 4    1  0.1678003E-008  0.8673234E+03  0.7818608E-02  0.9467377E-01
         -1   -1    0    0    0  501 -0.00000000000E+00  0.00000000000E+00  0.51284834378E+03  0.51284834381E+03  0.50400000000E-02 0.  1.
          1   -1    0    0  501    0  0.00000000000E+00 -0.00000000000E+00 -0.31530255596E+04  0.31530255596E+04  0.50400000000E-02 0. -1.
    8880022    1    1    2    0    0 -0.73670387761E+03 -0.43142270891E+03  0.20330610182E+02  0.86756160806E+03  0.15294330000E+03 0.  0.
    8880022    1    1    2    0    0  0.73670387761E+03  0.43142270891E+03 -0.26605078260E+04  0.27983122953E+04  0.15294330000E+03 0.  0.
<mgrwt>
<rscale>  0 0.86732336E+03</rscale>
<asrwt>0</asrwt>
<pdfrwt beam="1">  1        1 0.48508084E+00 0.86732336E+03</pdfrwt>
<pdfrwt beam="2">  1       -1 0.78899747E-01 0.86732336E+03</pdfrwt>
<totfact> 0.78251650E-01</totfact>
</mgrwt>
</event>
<event>
 4    1  0.1678003E-008  0.7440187E+03  0.7818608E-02  0.9644781E-01
         -1   -1    0    0    0  501 -0.00000000000E+00  0.00000000000E+00  0.37117310843E+03  0.37117310846E+03  0.50400000000E-02 0.  1.
          1   -1    0    0  501    0  0.00000000000E+00 -0.00000000000E+00 -0.27641546350E+04  0.27641546350E+04  0.50400000000E-02 0. -1.
    8880022    1    1    2    0    0  0.72584240405E+03 -0.57662072404E+02 -0.22602562053E+04  0.23795633794E+04  0.15294330000E+03 0.  0.
    8880022    1    1    2    0    0 -0.72584240405E+03  0.57662072404E+02 -0.13272532134E+03  0.75576436410E+03  0.15294330000E+03 0.  0.
<mgrwt>
<rscale>  0 0.74401866E+03</rscale>
<asrwt>0</asrwt>
<pdfrwt beam="1">  1        1 0.42525455E+00 0.74401866E+03</pdfrwt>
<pdfrwt beam="2">  1       -1 0.57103557E-01 0.74401866E+03</pdfrwt>
<totfact> 0.29324698E+00</totfact>
</mgrwt>
</event>
<event>
 4    1  0.1678003E-008  0.5054914E+03  0.7818608E-02  0.1012355E+00
         -1   -1    0    0    0  501 -0.00000000000E+00  0.00000000000E+00  0.11191407458E+04  0.11191407458E+04  0.50400000000E-02 0.  1.
          1   -1    0    0  501    0  0.00000000000E+00 -0.00000000000E+00 -0.27166169100E+03  0.27166169104E+03  0.50400000000E-02 0. -1.
    8880022    1    1    2    0    0  0.48173566395E+03 -0.77862813138E+01  0.14597470457E+03  0.52614650383E+03  0.15294330000E+03 0.  0.
    8880022    1    1    2    0    0 -0.48173566395E+03  0.77862813138E+01  0.70150435022E+03  0.86465593301E+03  0.15294330000E+03 0.  0.
<mgrwt>
<rscale>  0 0.50549137E+03</rscale>
<asrwt>0</asrwt>
<pdfrwt beam="1">  1        1 0.41794106E-01 0.50549137E+03</pdfrwt>
<pdfrwt beam="2">  1       -1 0.17217550E+00 0.50549137E+03</pdfrwt>
<totfact> 0.24945901E+01</totfact>
</mgrwt>
</event>
<event>
 4    1  0.1678003E-008  0.7214500E+03  0.7818608E-02  0.9681237E-01
         -1   -1    0    0    0  501 -0.00000000000E+00  0.00000000000E+00  0.17279936930E+04  0.17279936930E+04  0.50400000000E-02 0.  1.
          1   -1    0    0  501    0  0.00000000000E+00 -0.00000000000E+00 -0.63722501910E+03  0.63722501912E+03  0.50400000000E-02 0. -1.
    8880022    1    1    2    0    0  0.52587293731E+03  0.46963400798E+03 -0.31337965658E+03  0.78657288907E+03  0.15294330000E+03 0.  0.
    8880022    1    1    2    0    0 -0.52587293731E+03 -0.46963400798E+03  0.14041483304E+04  0.15786458230E+04  0.15294330000E+03 0.  0.
<mgrwt>
<rscale>  0 0.72145000E+03</rscale>
<asrwt>0</asrwt>
<pdfrwt beam="1">  1        1 0.98034620E-01 0.72145000E+03</pdfrwt>
<pdfrwt beam="2">  1       -1 0.26584518E+00 0.72145000E+03</pdfrwt>
<totfact> 0.18168466E+00</totfact>
</mgrwt>
</event>
<event>
 4    1  0.1678003E-008  0.3091288E+03  0.7818608E-02  0.1080764E+00
         -1   -1    0    0    0  501 -0.00000000000E+00  0.00000000000E+00  0.24048333307E+03  0.24048333313E+03  0.50400000000E-02 0.  1.
          1   -1    0    0  501    0  0.00000000000E+00 -0.00000000000E+00 -0.10328949043E+04  0.10328949043E+04  0.50400000000E-02 0. -1.
    8880022    1    1    2    0    0  0.19990777345E+02  0.26789794066E+03 -0.89562590326E+03  0.94747366687E+03  0.15294330000E+03 0.  0.
    8880022    1    1    2    0    0 -0.19990777345E+02 -0.26789794066E+03  0.10321433201E+03  0.32590457060E+03  0.15294330000E+03 0.  0.
<mgrwt>
<rscale>  0 0.30912876E+03</rscale>
<asrwt>0</asrwt>
<pdfrwt beam="1">  1        1 0.15890691E+00 0.30912876E+03</pdfrwt>
<pdfrwt beam="2">  1       -1 0.36997437E-01 0.30912876E+03</pdfrwt>
<totfact> 0.10768452E+02</totfact>
</mgrwt>
</event>
<event>
 4    1  0.1678003E-008  0.3152079E+03  0.7818608E-02  0.1077876E+00
         -1   -1    0    0    0  501 -0.00000000000E+00  0.00000000000E+00  0.48591403064E+03  0.48591403066E+03  0.50400000000E-02 0.  1.
          1   -1    0    0  501    0  0.00000000000E+00 -0.00000000000E+00 -0.47420057816E+03  0.47420057818E+03  0.50400000000E-02 0. -1.
    8880022    1    1    2    0    0  0.17583408231E+03  0.21224214852E+03 -0.35619881911E+03  0.47564020631E+03  0.15294330000E+03 0.  0.
    8880022    1    1    2    0    0 -0.17583408231E+03 -0.21224214852E+03  0.36791227159E+03  0.48447440254E+03  0.15294330000E+03 0.  0.
<mgrwt>
<rscale>  0 0.31520788E+03</rscale>
<asrwt>0</asrwt>
<pdfrwt beam="1">  1        1 0.72953934E-01 0.31520788E+03</pdfrwt>
<pdfrwt beam="2">  1       -1 0.74756005E-01 0.31520788E+03</pdfrwt>
<totfact> 0.91380566E+01</totfact>
</mgrwt>
</event>
<event>
 4    1  0.1678003E-008  0.1447792E+04  0.7818608E-02  0.8919933E-01
          1   -1    0    0  501    0  0.00000000000E+00  0.00000000000E+00  0.18727902213E+04  0.18727902213E+04  0.50400000000E-02 0. -1.
         -1   -1    0    0    0  501 -0.00000000000E+00 -0.00000000000E+00 -0.20491445629E+04  0.20491445630E+04  0.50400000000E-02 0.  1.
    8880022    1    1    2    0    0 -0.10807141950E+04  0.95119227390E+03 -0.14091785849E+04  0.20203677513E+04  0.15294330000E+03 0.  0.
    8880022    1    1    2    0    0  0.10807141950E+04 -0.95119227390E+03  0.12328242432E+04  0.19015670330E+04  0.15294330000E+03 0.  0.
<mgrwt>
<rscale>  0 0.14477920E+04</rscale>
<asrwt>0</asrwt>
<pdfrwt beam="1">  1        1 0.28812157E+00 0.14477920E+04</pdfrwt>
<pdfrwt beam="2">  1       -1 0.31525301E+00 0.14477920E+04</pdfrwt>
<totfact> 0.90823447E-02</totfact>
</mgrwt>
</event>
<event>
 4    1  0.1678003E-008  0.2893617E+03  0.7818608E-02  0.1090683E+00
         -1   -1    0    0    0  501 -0.00000000000E+00  0.00000000000E+00  0.37967192471E+03  0.37967192474E+03  0.50400000000E-02 0.  1.
          1   -1    0    0  501    0  0.00000000000E+00 -0.00000000000E+00 -0.10275177028E+04  0.10275177028E+04  0.50400000000E-02 0. -1.
    8880022    1    1    2    0    0  0.11919817016E+03 -0.21477971186E+03 -0.94745759217E+03  0.99065941189E+03  0.15294330000E+03 0.  0.
    8880022    1    1    2    0    0 -0.11919817016E+03  0.21477971186E+03  0.29961181409E+03  0.41653021565E+03  0.15294330000E+03 0.  0.
<mgrwt>
<rscale>  0 0.28936168E+03</rscale>
<asrwt>0</asrwt>
<pdfrwt beam="1">  1        1 0.15807965E+00 0.28936168E+03</pdfrwt>
<pdfrwt beam="2">  1       -1 0.58411066E-01 0.28936168E+03</pdfrwt>
<totfact> 0.47195986E+01</totfact>
</mgrwt>
</event>
<event>
 4    1  0.1678003E-008  0.7621296E+03  0.7818608E-02  0.9616511E-01
         -1   -1    0    0    0  501 -0.00000000000E+00  0.00000000000E+00  0.11134430535E+04  0.11134430535E+04  0.50400000000E-02 0.  1.
          1   -1    0    0  501    0  0.00000000000E+00 -0.00000000000E+00 -0.16602885169E+04  0.16602885169E+04  0.50400000000E-02 0. -1.
    8880022    1    1    2    0    0  0.71708408990E+03  0.20794288614E+03 -0.14219285589E+04  0.16132954830E+04  0.15294330000E+03 0.  0.
    8880022    1    1    2    0    0 -0.71708408990E+03 -0.20794288614E+03  0.87508309551E+03  0.11604360874E+04  0.15294330000E+03 0.  0.
<mgrwt>
<rscale>  0 0.76212957E+03</rscale>
<asrwt>0</asrwt>
<pdfrwt beam="1">  1        1 0.25542900E+00 0.76212957E+03</pdfrwt>
<pdfrwt beam="2">  1       -1 0.17129893E+00 0.76212957E+03</pdfrwt>
<totfact> 0.12820323E+00</totfact>
</mgrwt>
</event>
<event>
 4    1  0.1678003E-008  0.1710894E+03  0.7818608E-02  0.1176717E+00
         -1   -1    0    0    0  501 -0.00000000000E+00  0.00000000000E+00  0.23156452817E+03  0.23156452823E+03  0.50400000000E-02 0.  1.
          1   -1    0    0  501    0  0.00000000000E+00 -0.00000000000E+00 -0.37514159395E+03  0.37514159398E+03  0.50400000000E-02 0. -1.
    8880022    1    1    2    0    0 -0.55242703471E+02  0.53180542074E+02 -0.31880056349E+03  0.36180848337E+03  0.15294330000E+03 0.  0.
    8880022    1    1    2    0    0  0.55242703471E+02 -0.53180542074E+02  0.17522349771E+03  0.24489763884E+03  0.15294330000E+03 0.  1.
<mgrwt>
<rscale>  0 0.17108939E+03</rscale>
<asrwt>0</asrwt>
<pdfrwt beam="1">  1        1 0.57714091E-01 0.17108939E+03</pdfrwt>
<pdfrwt beam="2">  1       -1 0.35625312E-01 0.17108939E+03</pdfrwt>
<totfact> 0.50347244E+02</totfact>
</mgrwt>
</event>
<event>
 4    1  0.1678003E-008  0.5057747E+03  0.7818608E-02  0.1012283E+00
          1   -1    0    0  501    0  0.00000000000E+00  0.00000000000E+00  0.74716526097E+03  0.74716526098E+03  0.50400000000E-02 0. -1.
         -1   -1    0    0    0  501 -0.00000000000E+00 -0.00000000000E+00 -0.12271575476E+04  0.12271575476E+04  0.50400000000E-02 0.  1.
    8880022    1    1    2    0    0  0.32883175107E+03  0.35254234525E+03 -0.10782144519E+04  0.11909468850E+04  0.15294330000E+03 0.  0.
    8880022    1    1    2    0    0 -0.32883175107E+03 -0.35254234525E+03  0.59822216521E+03  0.78337592360E+03  0.15294330000E+03 0.  0.
<mgrwt>
<rscale>  0 0.50577473E+03</rscale>
<asrwt>0</asrwt>
<pdfrwt beam="1">  1        1 0.11494850E+00 0.50577473E+03</pdfrwt>
<pdfrwt beam="2">  1       -1 0.18879347E+00 0.50577473E+03</pdfrwt>
<totfact> 0.48146285E+00</totfact>
</mgrwt>
</event>
<event>
 4    1  0.1678003E-008  0.8074617E+03  0.7818608E-02  0.9549279E-01
          1   -1    0    0  501    0  0.00000000000E+00  0.00000000000E+00  0.14581002291E+04  0.14581002291E+04  0.50400000000E-02 0. -1.
         -1   -1    0    0    0  501 -0.00000000000E+00 -0.00000000000E+00 -0.82626123842E+03  0.82626123843E+03  0.50400000000E-02 0.  1.
    8880022    1    1    2    0    0  0.77853644451E+03  0.14994568963E+03  0.10895927222E+04  0.13561735356E+04  0.15294330000E+03 0.  0.
    8880022    1    1    2    0    0 -0.77853644451E+03 -0.14994568963E+03 -0.45775373154E+03  0.92818793196E+03  0.15294330000E+03 0.  0.
<mgrwt>
<rscale>  0 0.80746168E+03</rscale>
<asrwt>0</asrwt>
<pdfrwt beam="1">  1        1 0.22432311E+00 0.80746168E+03</pdfrwt>
<pdfrwt beam="2">  1       -1 0.12711712E+00 0.80746168E+03</pdfrwt>
<totfact> 0.38772898E+00</totfact>
</mgrwt>
</event>
<event>
 4    1  0.1678003E-008  0.7250313E+03  0.7818608E-02  0.9675358E-01
         -1   -1    0    0    0  501 -0.00000000000E+00  0.00000000000E+00  0.11072428575E+04  0.11072428575E+04  0.50400000000E-02 0.  1.
          1   -1    0    0  501    0  0.00000000000E+00 -0.00000000000E+00 -0.81203606592E+03  0.81203606593E+03  0.50400000000E-02 0. -1.
    8880022    1    1    2    0    0  0.56306591210E+03 -0.43038989094E+03  0.76606920202E+03  0.10547664931E+04  0.15294330000E+03 0.  0.
    8880022    1    1    2    0    0 -0.56306591210E+03  0.43038989094E+03 -0.47086241048E+03  0.86451243034E+03  0.15294330000E+03 0.  0.
<mgrwt>
<rscale>  0 0.72503126E+03</rscale>
<asrwt>0</asrwt>
<pdfrwt beam="1">  1        1 0.12492863E+00 0.72503126E+03</pdfrwt>
<pdfrwt beam="2">  1       -1 0.17034505E+00 0.72503126E+03</pdfrwt>
<totfact> 0.54860921E+00</totfact>
</mgrwt>
</event>
<event>
 4    1  0.1678003E-008  0.5109256E+03  0.7818608E-02  0.1010966E+00
          1   -1    0    0  501    0  0.00000000000E+00  0.00000000000E+00  0.99926604457E+03  0.99926604458E+03  0.50400000000E-02 0. -1.
         -1   -1    0    0    0  501 -0.00000000000E+00 -0.00000000000E+00 -0.42367065637E+03  0.42367065640E+03  0.50400000000E-02 0.  1.
    8880022    1    1    2    0    0 -0.45033475667E+03 -0.18668672986E+03  0.72833204731E+03  0.88966991201E+03  0.15294330000E+03 0.  0.
    8880022    1    1    2    0    0  0.45033475667E+03  0.18668672986E+03 -0.15273665912E+03  0.53326678898E+03  0.15294330000E+03 0.  0.
<mgrwt>
<rscale>  0 0.51092561E+03</rscale>
<asrwt>0</asrwt>
<pdfrwt beam="1">  1        1 0.15373324E+00 0.51092561E+03</pdfrwt>
<pdfrwt beam="2">  1       -1 0.65180101E-01 0.51092561E+03</pdfrwt>
<totfact> 0.38238533E+01</totfact>
</mgrwt>
</event>
<event>
 4    1  0.1678003E-008  0.1062418E+04  0.7818608E-02  0.9242616E-01
          1   -1    0    0  501    0  0.00000000000E+00  0.00000000000E+00  0.14784833683E+04  0.14784833683E+04  0.50400000000E-02 0. -1.
         -1   -1    0    0    0  501 -0.00000000000E+00 -0.00000000000E+00 -0.12237568212E+04  0.12237568212E+04  0.50400000000E-02 0.  1.
    8880022    1    1    2    0    0 -0.64290687176E+03  0.83187265132E+03 -0.70129394954E+03  0.12730067598E+04  0.15294330000E+03 0.  0.
    8880022    1    1    2    0    0  0.64290687176E+03 -0.83187265132E+03  0.95602049660E+03  0.14292334297E+04  0.15294330000E+03 0.  0.
<mgrwt>
<rscale>  0 0.10624185E+04</rscale>
<asrwt>0</asrwt>
<pdfrwt beam="1">  1        1 0.22745898E+00 0.10624185E+04</pdfrwt>
<pdfrwt beam="2">  1       -1 0.18827028E+00 0.10624185E+04</pdfrwt>
<totfact> 0.12273011E+00</totfact>
</mgrwt>
</event>
<event>
 4    1  0.1678003E-008  0.1097474E+04  0.7818608E-02  0.9207658E-01
         -1   -1    0    0    0  501 -0.00000000000E+00  0.00000000000E+00  0.83822505443E+03  0.83822505444E+03  0.50400000000E-02 0.  1.
          1   -1    0    0  501    0  0.00000000000E+00 -0.00000000000E+00 -0.18264152018E+04  0.18264152018E+04  0.50400000000E-02 0. -1.
    8880022    1    1    2    0    0 -0.38537923790E+03  0.10161394554E+04  0.12117996229E+03  0.11041434626E+04  0.15294330000E+03 0.  0.
    8880022    1    1    2    0    0  0.38537923790E+03 -0.10161394554E+04 -0.11093701097E+04  0.15604967937E+04  0.15294330000E+03 0.  0.
<mgrwt>
<rscale>  0 0.10974736E+04</rscale>
<asrwt>0</asrwt>
<pdfrwt beam="1">  1        1 0.28098695E+00 0.10974736E+04</pdfrwt>
<pdfrwt beam="2">  1       -1 0.12895770E+00 0.10974736E+04</pdfrwt>
<totfact> 0.20141725E+00</totfact>
</mgrwt>
</event>
<event>
 4    1  0.1678003E-008  0.7211756E+03  0.7818608E-02  0.9681689E-01
         -1   -1    0    0    0  501 -0.00000000000E+00  0.00000000000E+00  0.51195433362E+03  0.51195433365E+03  0.50400000000E-02 0.  1.
          1   -1    0    0  501    0  0.00000000000E+00 -0.00000000000E+00 -0.24146513499E+04  0.24146513499E+04  0.50400000000E-02 0. -1.
    8880022    1    1    2    0    0  0.69534683102E+03  0.11487088195E+03 -0.20650718603E+04  0.21873765054E+04  0.15294330000E+03 0.  0.
    8880022    1    1    2    0    0 -0.69534683102E+03 -0.11487088195E+03  0.16237484402E+03  0.73922917821E+03  0.15294330000E+03 0.  0.
<mgrwt>
<rscale>  0 0.72117556E+03</rscale>
<asrwt>0</asrwt>
<pdfrwt beam="1">  1        1 0.37148482E+00 0.72117556E+03</pdfrwt>
<pdfrwt beam="2">  1       -1 0.78762206E-01 0.72117556E+03</pdfrwt>
<totfact> 0.26703721E+00</totfact>
</mgrwt>
</event>
<event>
 4    1  0.1678003E-008  0.4689521E+03  0.7818608E-02  0.1022216E+00
         -1   -1    0    0    0  501 -0.00000000000E+00  0.00000000000E+00  0.67058531312E+03  0.67058531314E+03  0.50400000000E-02 0.  1.
          1   -1    0    0  501    0  0.00000000000E+00 -0.00000000000E+00 -0.57748978504E+03  0.57748978506E+03  0.50400000000E-02 0. -1.
    8880022    1    1    2    0    0  0.36501348454E+02  0.44180545084E+03  0.45676280122E+03  0.65463601675E+03  0.15294330000E+03 0.  0.
    8880022    1    1    2    0    0 -0.36501348454E+02 -0.44180545084E+03 -0.36366727314E+03  0.59343908146E+03  0.15294330000E+03 0.  0.
<mgrwt>
<rscale>  0 0.46895208E+03</rscale>
<asrwt>0</asrwt>
<pdfrwt beam="1">  1        1 0.88844582E-01 0.46895208E+03</pdfrwt>
<pdfrwt beam="2">  1       -1 0.10316697E+00 0.46895208E+03</pdfrwt>
<totfact> 0.34004931E+01</totfact>
</mgrwt>
</event>
<event>
 4    1  0.1678003E-008  0.2783896E+03  0.7818608E-02  0.1096572E+00
          1   -1    0    0  501    0  0.00000000000E+00  0.00000000000E+00  0.30913274131E+04  0.30913274131E+04  0.50400000000E-02 0. -1.
         -1   -1    0    0    0  501 -0.00000000000E+00 -0.00000000000E+00 -0.72692882612E+02  0.72692882787E+02  0.50400000000E-02 0.  1.
    8880022    1    1    2    0    0  0.22842562351E+03  0.43941666016E+02  0.22884736413E+03  0.36037744737E+03  0.15294330000E+03 0.  0.
    8880022    1    1    2    0    0 -0.22842562351E+03 -0.43941666016E+02  0.27897871663E+04  0.28036428485E+04  0.15294330000E+03 0.  0.
<mgrwt>
<rscale>  0 0.27838963E+03</rscale>
<asrwt>0</asrwt>
<pdfrwt beam="1">  1        1 0.47558893E+00 0.27838963E+03</pdfrwt>
<pdfrwt beam="2">  1       -1 0.11183518E-01 0.27838963E+03</pdfrwt>
<totfact> 0.31937416E+01</totfact>
</mgrwt>
</event>
<event>
 4    1  0.1678003E-008  0.4274187E+03  0.7818608E-02  0.1034678E+00
          1   -1    0    0  501    0  0.00000000000E+00  0.00000000000E+00  0.81567722548E+03  0.81567722549E+03  0.50400000000E-02 0. -1.
         -1   -1    0    0    0  501 -0.00000000000E+00 -0.00000000000E+00 -0.42769687834E+03  0.42769687837E+03  0.50400000000E-02 0.  1.
    8880022    1    1    2    0    0  0.39634959520E+03  0.46926628150E+02  0.62306057359E+03  0.75557345203E+03  0.15294330000E+03 0.  0.
    8880022    1    1    2    0    0 -0.39634959520E+03 -0.46926628150E+02 -0.23508022645E+03  0.48780065183E+03  0.15294330000E+03 0.  1.
<mgrwt>
<rscale>  0 0.42741872E+03</rscale>
<asrwt>0</asrwt>
<pdfrwt beam="1">  1        1 0.12548880E+00 0.42741872E+03</pdfrwt>
<pdfrwt beam="2">  1       -1 0.65799520E-01 0.42741872E+03</pdfrwt>
<totfact> 0.53353126E+01</totfact>
</mgrwt>
</event>
<event>
 4    1  0.1678003E-008  0.1075056E+04  0.7818608E-02  0.9229851E-01
          1   -1    0    0  501    0  0.00000000000E+00  0.00000000000E+00  0.14548632994E+04  0.14548632995E+04  0.50400000000E-02 0. -1.
         -1   -1    0    0    0  501 -0.00000000000E+00 -0.00000000000E+00 -0.17837715681E+04  0.17837715681E+04  0.50400000000E-02 0.  1.
    8880022    1    1    2    0    0  0.95278914436E+03  0.47386298174E+03  0.10415307249E+04  0.14968404000E+04  0.15294330000E+03 0.  0.
    8880022    1    1    2    0    0 -0.95278914436E+03 -0.47386298174E+03 -0.13704389936E+04  0.17417944675E+04  0.15294330000E+03 0.  0.
<mgrwt>
<rscale>  0 0.10750558E+04</rscale>
<asrwt>0</asrwt>
<pdfrwt beam="1">  1        1 0.22382512E+00 0.10750558E+04</pdfrwt>
<pdfrwt beam="2">  1       -1 0.27442640E+00 0.10750558E+04</pdfrwt>
<totfact> 0.34042564E-01</totfact>
</mgrwt>
</event>
<event>
 4    1  0.1678003E-008  0.5369931E+03  0.7818608E-02  0.1004550E+00
          1   -1    0    0  501    0  0.00000000000E+00  0.00000000000E+00  0.48071207130E+03  0.48071207133E+03  0.50400000000E-02 0. -1.
         -1   -1    0    0    0  501 -0.00000000000E+00 -0.00000000000E+00 -0.13094215828E+04  0.13094215828E+04  0.50400000000E-02 0.  1.
    8880022    1    1    2    0    0 -0.48841323115E+03  0.16254971159E+03 -0.10732399376E+04  0.12000856260E+04  0.15294330000E+03 0.  0.
    8880022    1    1    2    0    0  0.48841323115E+03 -0.16254971159E+03  0.24453042615E+03  0.59004802807E+03  0.15294330000E+03 0.  0.
<mgrwt>
<rscale>  0 0.53699306E+03</rscale>
<asrwt>0</asrwt>
<pdfrwt beam="1">  1        1 0.73955704E-01 0.53699306E+03</pdfrwt>
<pdfrwt beam="2">  1       -1 0.20144947E+00 0.53699306E+03</pdfrwt>
<totfact> 0.73581951E+00</totfact>
</mgrwt>
</event>
<event>
 4    1  0.1678003E-008  0.3418992E+03  0.7818608E-02  0.1065990E+00
          1   -1    0    0  501    0  0.00000000000E+00  0.00000000000E+00  0.22387075455E+04  0.22387075455E+04  0.50400000000E-02 0. -1.
         -1   -1    0    0    0  501 -0.00000000000E+00 -0.00000000000E+00 -0.73992625828E+02  0.73992626000E+02  0.50400000000E-02 0.  1.
    8880022    1    1    2    0    0 -0.12022925942E+02 -0.30554684758E+03  0.17096874991E+04  0.17435384781E+04  0.15294330000E+03 0.  0.
    8880022    1    1    2    0    0  0.12022925942E+02  0.30554684758E+03  0.45502742055E+03  0.56916169344E+03  0.15294330000E+03 0.  0.
<mgrwt>
<rscale>  0 0.34189922E+03</rscale>
<asrwt>0</asrwt>
<pdfrwt beam="1">  1        1 0.34441660E+00 0.34189922E+03</pdfrwt>
<pdfrwt beam="2">  1       -1 0.11383479E-01 0.34189922E+03</pdfrwt>
<totfact> 0.11566384E+02</totfact>
</mgrwt>
</event>
<event>
 4    1  0.1678003E-008  0.2758359E+03  0.7818608E-02  0.1097985E+00
         -1   -1    0    0    0  501 -0.00000000000E+00  0.00000000000E+00  0.78634597587E+03  0.78634597589E+03  0.50400000000E-02 0.  1.
          1   -1    0    0  501    0  0.00000000000E+00 -0.00000000000E+00 -0.21710789005E+03  0.21710789011E+03  0.50400000000E-02 0. -1.
    8880022    1    1    2    0    0 -0.73416932143E+02  0.21749424055E+03 -0.88933801915E+02  0.28981833057E+03  0.15294330000E+03 0.  0.
    8880022    1    1    2    0    0  0.73416932143E+02 -0.21749424055E+03  0.65817188774E+03  0.71363553542E+03  0.15294330000E+03 0.  0.
<mgrwt>
<rscale>  0 0.27583590E+03</rscale>
<asrwt>0</asrwt>
<pdfrwt beam="1">  1        1 0.33401214E-01 0.27583590E+03</pdfrwt>
<pdfrwt beam="2">  1       -1 0.12097630E+00 0.27583590E+03</pdfrwt>
<totfact> 0.86355626E+01</totfact>
</mgrwt>
</event>
<event>
 4    1  0.1678003E-008  0.4871655E+03  0.7818608E-02  0.1017184E+00
          1   -1    0    0  501    0  0.00000000000E+00  0.00000000000E+00  0.38129173012E+03  0.38129173015E+03  0.50400000000E-02 0. -1.
         -1   -1    0    0    0  501 -0.00000000000E+00 -0.00000000000E+00 -0.88004688850E+03  0.88004688851E+03  0.50400000000E-02 0.  1.
    8880022    1    1    2    0    0  0.21666262675E+03  0.40865125011E+03  0.91838754287E+02  0.49574645521E+03  0.15294330000E+03 0.  0.
    8880022    1    1    2    0    0 -0.21666262675E+03 -0.40865125011E+03 -0.59059391267E+03  0.76559216345E+03  0.15294330000E+03 0.  0.
<mgrwt>
<rscale>  0 0.48716547E+03</rscale>
<asrwt>0</asrwt>
<pdfrwt beam="1">  1        1 0.58660266E-01 0.48716547E+03</pdfrwt>
<pdfrwt beam="2">  1       -1 0.13539183E+00 0.48716547E+03</pdfrwt>
<totfact> 0.30839494E+01</totfact>
</mgrwt>
</event>
<event>
 4    1  0.1678003E-008  0.4649681E+03  0.7818608E-02  0.1023350E+00
         -1   -1    0    0    0  501 -0.00000000000E+00  0.00000000000E+00  0.69454549318E+03  0.69454549319E+03  0.50400000000E-02 0.  1.
          1   -1    0    0  501    0  0.00000000000E+00 -0.00000000000E+00 -0.13287128380E+04  0.13287128380E+04  0.50400000000E-02 0. -1.
    8880022    1    1    2    0    0  0.15315262076E+03  0.41151909357E+03 -0.12023205653E+04  0.12890966156E+04  0.15294330000E+03 0.  0.
    8880022    1    1    2    0    0 -0.15315262076E+03 -0.41151909357E+03  0.56815322051E+03  0.73416171557E+03  0.15294330000E+03 0.  0.
<mgrwt>
<rscale>  0 0.46496811E+03</rscale>
<asrwt>0</asrwt>
<pdfrwt beam="1">  1        1 0.20441736E+00 0.46496811E+03</pdfrwt>
<pdfrwt beam="2">  1       -1 0.10685315E+00 0.46496811E+03</pdfrwt>
<totfact> 0.77378085E+00</totfact>
</mgrwt>
</event>
<event>
 4    1  0.1678003E-008  0.5711952E+03  0.7818608E-02  0.9967037E-01
          1   -1    0    0  501    0  0.00000000000E+00  0.00000000000E+00  0.99727226914E+03  0.99727226915E+03  0.50400000000E-02 0. -1.
         -1   -1    0    0    0  501 -0.00000000000E+00 -0.00000000000E+00 -0.33795092000E+03  0.33795092003E+03  0.50400000000E-02 0.  1.
    8880022    1    1    2    0    0  0.35451844558E+02 -0.54919534237E+03  0.21034469209E+03  0.60869442240E+03  0.15294330000E+03 0.  0.
    8880022    1    1    2    0    0 -0.35451844558E+02  0.54919534237E+03  0.44897665706E+03  0.72652876678E+03  0.15294330000E+03 0.  0.
<mgrwt>
<rscale>  0 0.57119525E+03</rscale>
<asrwt>0</asrwt>
<pdfrwt beam="1">  1        1 0.15342650E+00 0.57119525E+03</pdfrwt>
<pdfrwt beam="2">  1       -1 0.51992449E-01 0.57119525E+03</pdfrwt>
<totfact> 0.59071419E+01</totfact>
</mgrwt>
</event>
<event>
 4    1  0.1678003E-008  0.9584935E+03  0.7818608E-02  0.9355278E-01
          1   -1    0    0  501    0  0.00000000000E+00  0.00000000000E+00  0.25626743676E+04  0.25626743676E+04  0.50400000000E-02 0. -1.
         -1   -1    0    0    0  501 -0.00000000000E+00 -0.00000000000E+00 -0.10921299259E+04  0.10921299260E+04  0.50400000000E-02 0.  1.
    8880022    1    1    2    0    0 -0.34060608195E+03  0.88278284585E+03  0.22330126111E+04  0.24300318990E+04  0.15294330000E+03 0.  0.
    8880022    1    1    2    0    0  0.34060608195E+03 -0.88278284585E+03 -0.76246816944E+03  0.12247723945E+04  0.15294330000E+03 0.  0.
<mgrwt>
<rscale>  0 0.95849346E+03</rscale>
<asrwt>0</asrwt>
<pdfrwt beam="1">  1        1 0.39425759E+00 0.95849346E+03</pdfrwt>
<pdfrwt beam="2">  1       -1 0.16801999E+00 0.95849346E+03</pdfrwt>
<totfact> 0.32052626E-01</totfact>
</mgrwt>
</event>
<event>
 4    1  0.1678003E-008  0.5207929E+03  0.7818608E-02  0.1008490E+00
          1   -1    0    0  501    0  0.00000000000E+00  0.00000000000E+00  0.15711441308E+04  0.15711441308E+04  0.50400000000E-02 0. -1.
         -1   -1    0    0    0  501 -0.00000000000E+00 -0.00000000000E+00 -0.39719241882E+03  0.39719241885E+03  0.50400000000E-02 0.  1.
    8880022    1    1    2    0    0  0.10742658204E+01  0.49782767420E+03  0.13269870567E+04  0.14255244119E+04  0.15294330000E+03 0.  0.
    8880022    1    1    2    0    0 -0.10742658204E+01 -0.49782767420E+03 -0.15303534465E+03  0.54281213783E+03  0.15294330000E+03 0.  0.
<mgrwt>
<rscale>  0 0.52079286E+03</rscale>
<asrwt>0</asrwt>
<pdfrwt beam="1">  1        1 0.24171449E+00 0.52079286E+03</pdfrwt>
<pdfrwt beam="2">  1       -1 0.61106524E-01 0.52079286E+03</pdfrwt>
<totfact> 0.17086441E+01</totfact>
</mgrwt>
</event>
<event>
 4    1  0.1678003E-008  0.6347301E+03  0.7818608E-02  0.9835862E-01
          1   -1    0    0  501    0  0.00000000000E+00  0.00000000000E+00  0.90394078041E+03  0.90394078042E+03  0.50400000000E-02 0. -1.
         -1   -1    0    0    0  501 -0.00000000000E+00 -0.00000000000E+00 -0.49736226661E+03  0.49736226664E+03  0.50400000000E-02 0.  1.
    8880022    1    1    2    0    0  0.36427933044E+03 -0.49678084372E+03  0.42911399649E+03  0.76617303024E+03  0.15294330000E+03 0.  0.
    8880022    1    1    2    0    0 -0.36427933044E+03  0.49678084372E+03 -0.22535482693E+02  0.63513001682E+03  0.15294330000E+03 0.  0.
<mgrwt>
<rscale>  0 0.63473009E+03</rscale>
<asrwt>0</asrwt>
<pdfrwt beam="1">  1        1 0.13906781E+00 0.63473009E+03</pdfrwt>
<pdfrwt beam="2">  1       -1 0.76517273E-01 0.63473009E+03</pdfrwt>
<totfact> 0.32194828E+01</totfact>
</mgrwt>
</event>
<event>
 4    1  0.1678003E-008  0.4585529E+03  0.7818608E-02  0.1025202E+00
          1   -1    0    0  501    0  0.00000000000E+00  0.00000000000E+00  0.28031419803E+04  0.28031419803E+04  0.50400000000E-02 0. -1.
         -1   -1    0    0    0  501 -0.00000000000E+00 -0.00000000000E+00 -0.17617926849E+03  0.17617926856E+03  0.50400000000E-02 0.  1.
    8880022    1    1    2    0    0  0.10277791825E+02  0.43217298079E+03  0.18465065579E+03  0.49433453857E+03  0.15294330000E+03 0.  0.
    8880022    1    1    2    0    0 -0.10277791825E+02 -0.43217298079E+03  0.24423120560E+04  0.24849867103E+04  0.15294330000E+03 0.  0.
<mgrwt>
<rscale>  0 0.45855291E+03</rscale>
<asrwt>0</asrwt>
<pdfrwt beam="1">  1        1 0.43125260E+00 0.45855291E+03</pdfrwt>
<pdfrwt beam="2">  1       -1 0.27104504E-01 0.45855291E+03</pdfrwt>
<totfact> 0.11362181E+01</totfact>
</mgrwt>
</event>
<event>
 4    1  0.1678003E-008  0.7581474E+03  0.7818608E-02  0.9622654E-01
         -1   -1    0    0    0  501 -0.00000000000E+00  0.00000000000E+00  0.22806190995E+04  0.22806190995E+04  0.50400000000E-02 0.  1.
          1   -1    0    0  501    0  0.00000000000E+00 -0.00000000000E+00 -0.47715196414E+03  0.47715196417E+03  0.50400000000E-02 0. -1.
    8880022    1    1    2    0    0  0.65134180383E+03 -0.35658046715E+03  0.18488590559E+04  0.19982660575E+04  0.15294330000E+03 0.  0.
    8880022    1    1    2    0    0 -0.65134180383E+03  0.35658046715E+03 -0.45391920511E+02  0.75950500620E+03  0.15294330000E+03 0.  0.
<mgrwt>
<rscale>  0 0.75814737E+03</rscale>
<asrwt>0</asrwt>
<pdfrwt beam="1">  1        1 0.73407996E-01 0.75814737E+03</pdfrwt>
<pdfrwt beam="2">  1       -1 0.35086447E+00 0.75814737E+03</pdfrwt>
<totfact> 0.77018690E-01</totfact>
</mgrwt>
</event>
<event>
 4    1  0.1678003E-008  0.1577150E+03  0.7818608E-02  0.1191301E+00
         -1   -1    0    0    0  501 -0.00000000000E+00  0.00000000000E+00  0.42511723186E+03  0.42511723189E+03  0.50400000000E-02 0.  1.
          1   -1    0    0  501    0  0.00000000000E+00 -0.00000000000E+00 -0.63838858371E+03  0.63838858373E+03  0.50400000000E-02 0. -1.
    8880022    1    1    2    0    0  0.12320393716E+01  0.38481987243E+02 -0.61343435918E+03  0.63338435985E+03  0.15294330000E+03 0. -1.
    8880022    1    1    2    0    0 -0.12320393716E+01 -0.38481987243E+02  0.40016300733E+03  0.43012145577E+03  0.15294330000E+03 0.  0.
<mgrwt>
<rscale>  0 0.15771504E+03</rscale>
<asrwt>0</asrwt>
<pdfrwt beam="1">  1        1 0.98213628E-01 0.15771504E+03</pdfrwt>
<pdfrwt beam="2">  1       -1 0.65402651E-01 0.15771504E+03</pdfrwt>
<totfact> 0.82703477E+01</totfact>
</mgrwt>
</event>
<event>
 4    1  0.1678003E-008  0.2114972E+03  0.7818608E-02  0.1140386E+00
          1   -1    0    0  501    0  0.00000000000E+00  0.00000000000E+00  0.11263856361E+04  0.11263856361E+04  0.50400000000E-02 0. -1.
         -1   -1    0    0    0  501 -0.00000000000E+00 -0.00000000000E+00 -0.69975352509E+02  0.69975352690E+02  0.50400000000E-02 0.  1.
    8880022    1    1    2    0    0  0.39358903425E+02  0.14067799141E+03  0.92159025234E+03  0.94554728426E+03  0.15294330000E+03 0.  0.
    8880022    1    1    2    0    0 -0.39358903425E+02 -0.14067799141E+03  0.13482003125E+03  0.25081370455E+03  0.15294330000E+03 0.  1.
<mgrwt>
<rscale>  0 0.21149722E+03</rscale>
<asrwt>0</asrwt>
<pdfrwt beam="1">  1        1 0.17329010E+00 0.21149722E+03</pdfrwt>
<pdfrwt beam="2">  1       -1 0.10765439E-01 0.21149722E+03</pdfrwt>
<totfact> 0.70664637E+02</totfact>
</mgrwt>
</event>
<event>
 4    1  0.1678003E-008  0.4308200E+03  0.7818608E-02  0.1033601E+00
          1   -1    0    0  501    0  0.00000000000E+00  0.00000000000E+00  0.89819004835E+03  0.89819004837E+03  0.50400000000E-02 0. -1.
         -1   -1    0    0    0  501 -0.00000000000E+00 -0.00000000000E+00 -0.26166685505E+03  0.26166685509E+03  0.50400000000E-02 0.  1.
    8880022    1    1    2    0    0 -0.14717356472E+03  0.37490549964E+03  0.52329672997E+02  0.43398645083E+03  0.15294330000E+03 0.  0.
    8880022    1    1    2    0    0  0.14717356472E+03 -0.37490549964E+03  0.58419352031E+03  0.72587045263E+03  0.15294330000E+03 0.  0.
<mgrwt>
<rscale>  0 0.43081997E+03</rscale>
<asrwt>0</asrwt>
<pdfrwt beam="1">  1        1 0.13818309E+00 0.43081997E+03</pdfrwt>
<pdfrwt beam="2">  1       -1 0.40256439E-01 0.43081997E+03</pdfrwt>
<totfact> 0.11542372E+02</totfact>
</mgrwt>
</event>
<event>
 4    1  0.1678003E-008  0.6952126E+03  0.7818608E-02  0.9725454E-01
         -1   -1    0    0    0  501 -0.00000000000E+00  0.00000000000E+00  0.12046771836E+04  0.12046771836E+04  0.50400000000E-02 0.  1.
          1   -1    0    0  501    0  0.00000000000E+00 -0.00000000000E+00 -0.11394841928E+04  0.11394841928E+04  0.50400000000E-02 0. -1.
    8880022    1    1    2    0    0  0.67072793042E+03  0.10026459518E+03  0.97603617660E+03  0.11983184955E+04  0.15294330000E+03 0.  0.
    8880022    1    1    2    0    0 -0.67072793042E+03 -0.10026459518E+03 -0.91084318579E+03  0.11458428809E+04  0.15294330000E+03 0.  0.
<mgrwt>
<rscale>  0 0.69521263E+03</rscale>
<asrwt>0</asrwt>
<pdfrwt beam="1">  1        1 0.17530526E+00 0.69521263E+03</pdfrwt>
<pdfrwt beam="2">  1       -1 0.18533495E+00 0.69521263E+03</pdfrwt>
<totfact> 0.23790177E+00</totfact>
</mgrwt>
</event>
<event>
 4    1  0.1678003E-008  0.5516276E+03  0.7818608E-02  0.1001118E+00
         -1   -1    0    0    0  501 -0.00000000000E+00  0.00000000000E+00  0.72170893841E+03  0.72170893843E+03  0.50400000000E-02 0.  1.
          1   -1    0    0  501    0  0.00000000000E+00 -0.00000000000E+00 -0.45578218191E+03  0.45578218194E+03  0.50400000000E-02 0. -1.
    8880022    1    1    2    0    0 -0.52501094063E+03  0.72559600241E+02 -0.28200578485E+02  0.55234799629E+03  0.15294330000E+03 0.  0.
    8880022    1    1    2    0    0  0.52501094063E+03 -0.72559600241E+02  0.29412733499E+03  0.62514312407E+03  0.15294330000E+03 0.  0.
<mgrwt>
<rscale>  0 0.55162762E+03</rscale>
<asrwt>0</asrwt>
<pdfrwt beam="1">  1        1 0.70120336E-01 0.55162762E+03</pdfrwt>
<pdfrwt beam="2">  1       -1 0.11103214E+00 0.55162762E+03</pdfrwt>
<totfact> 0.39206225E+01</totfact>
</mgrwt>
</event>
<event>
 4    1  0.1678003E-008  0.1017274E+04  0.7818608E-02  0.9289799E-01
          1   -1    0    0  501    0  0.00000000000E+00  0.00000000000E+00  0.13651483070E+04  0.13651483070E+04  0.50400000000E-02 0. -1.
         -1   -1    0    0    0  501 -0.00000000000E+00 -0.00000000000E+00 -0.11462916686E+04  0.11462916687E+04  0.50400000000E-02 0.  1.
    8880022    1    1    2    0    0  0.95563111619E+03  0.31340699414E+03 -0.62137086122E+03  0.11920353075E+04  0.15294330000E+03 0.  0.
    8880022    1    1    2    0    0 -0.95563111619E+03 -0.31340699414E+03  0.84022749952E+03  0.13194046681E+04  0.15294330000E+03 0.  0.
<mgrwt>
<rscale>  0 0.10172740E+04</rscale>
<asrwt>0</asrwt>
<pdfrwt beam="1">  1        1 0.21002282E+00 0.10172740E+04</pdfrwt>
<pdfrwt beam="2">  1       -1 0.17635256E+00 0.10172740E+04</pdfrwt>
<totfact> 0.18025940E+00</totfact>
</mgrwt>
</event>
<event>
 4    1  0.1678003E-008  0.4236806E+03  0.7818608E-02  0.1035875E+00
         -1   -1    0    0    0  501 -0.00000000000E+00  0.00000000000E+00  0.30607630558E+03  0.30607630562E+03  0.50400000000E-02 0.  1.
          1   -1    0    0  501    0  0.00000000000E+00 -0.00000000000E+00 -0.16202079082E+04  0.16202079082E+04  0.50400000000E-02 0. -1.
    8880022    1    1    2    0    0  0.31552706630E+03 -0.23781555867E+03  0.11225906525E+03  0.43830049083E+03  0.15294330000E+03 0.  0.
    8880022    1    1    2    0    0 -0.31552706630E+03  0.23781555867E+03 -0.14263906679E+04  0.14879837230E+04  0.15294330000E+03 0.  0.
<mgrwt>
<rscale>  0 0.42368057E+03</rscale>
<asrwt>0</asrwt>
<pdfrwt beam="1">  1        1 0.24926275E+00 0.42368057E+03</pdfrwt>
<pdfrwt beam="2">  1       -1 0.47088663E-01 0.42368057E+03</pdfrwt>
<totfact> 0.26584890E+01</totfact>
</mgrwt>
</event>
<event>
 4    1  0.1678003E-008  0.4735980E+03  0.7818608E-02  0.1020910E+00
          1   -1    0    0  501    0  0.00000000000E+00  0.00000000000E+00  0.37583634501E+03  0.37583634505E+03  0.50400000000E-02 0. -1.
         -1   -1    0    0    0  501 -0.00000000000E+00 -0.00000000000E+00 -0.14755137878E+04  0.14755137879E+04  0.50400000000E-02 0.  1.
    8880022    1    1    2    0    0 -0.33387200490E+03 -0.29905330781E+03  0.16451503659E+03  0.50135840159E+03  0.15294330000E+03 0.  0.
    8880022    1    1    2    0    0  0.33387200490E+03  0.29905330781E+03 -0.12641924794E+04  0.13499917313E+04  0.15294330000E+03 0.  0.
<mgrwt>
<rscale>  0 0.47359798E+03</rscale>
<asrwt>0</asrwt>
<pdfrwt beam="1">  1        1 0.57820977E-01 0.47359798E+03</pdfrwt>
<pdfrwt beam="2">  1       -1 0.22700212E+00 0.47359798E+03</pdfrwt>
<totfact> 0.69867813E+00</totfact>
</mgrwt>
</event>
<event>
 4    1  0.1678003E-008  0.2235614E+03  0.7818608E-02  0.1131255E+00
         -1   -1    0    0    0  501 -0.00000000000E+00  0.00000000000E+00  0.10670423719E+03  0.10670423731E+03  0.50400000000E-02 0.  1.
          1   -1    0    0  501    0  0.00000000000E+00 -0.00000000000E+00 -0.81512053573E+03  0.81512053574E+03  0.50400000000E-02 0. -1.
    8880022    1    1    2    0    0  0.16257259783E+03 -0.12577045468E+02 -0.65481622901E+03  0.69192772630E+03  0.15294330000E+03 0. -1.
    8880022    1    1    2    0    0 -0.16257259783E+03  0.12577045468E+02 -0.53600069524E+02  0.22989704675E+03  0.15294330000E+03 0.  1.
<mgrwt>
<rscale>  0 0.22356137E+03</rscale>
<asrwt>0</asrwt>
<pdfrwt beam="1">  1        1 0.12540316E+00 0.22356137E+03</pdfrwt>
<pdfrwt beam="2">  1       -1 0.16416037E-01 0.22356137E+03</pdfrwt>
<totfact> 0.62653520E+02</totfact>
</mgrwt>
</event>
<event>
 4    1  0.1678003E-008  0.5840874E+03  0.7818608E-02  0.9938981E-01
         -1   -1    0    0    0  501 -0.00000000000E+00  0.00000000000E+00  0.21604471040E+03  0.21604471045E+03  0.50400000000E-02 0.  1.
          1   -1    0    0  501    0  0.00000000000E+00 -0.00000000000E+00 -0.23662300082E+04  0.23662300082E+04  0.50400000000E-02 0. -1.
    8880022    1    1    2    0    0  0.74758228259E+02 -0.55872863588E+03 -0.33042114257E+03  0.67107098412E+03  0.15294330000E+03 0.  0.
    8880022    1    1    2    0    0 -0.74758228259E+02  0.55872863588E+03 -0.18197641553E+04  0.19112037346E+04  0.15294330000E+03 0.  0.
<mgrwt>
<rscale>  0 0.58408744E+03</rscale>
<asrwt>0</asrwt>
<pdfrwt beam="1">  1        1 0.36403537E+00 0.58408744E+03</pdfrwt>
<pdfrwt beam="2">  1       -1 0.33237649E-01 0.58408744E+03</pdfrwt>
<totfact> 0.15387201E+01</totfact>
</mgrwt>
</event>
<event>
 4    1  0.1799229E-008  0.1577347E+04  0.7818608E-02  0.8834587E-01
         -1   -1    0    0    0  501 -0.00000000000E+00  0.00000000000E+00  0.20873827338E+04  0.20873827338E+04  0.50400000000E-02 0.  1.
          1   -1    0    0  501    0  0.00000000000E+00 -0.00000000000E+00 -0.26872101956E+04  0.26872101956E+04  0.50400000000E-02 0. -1.
    8880022    1    1    2    0    0  0.15650351217E+04  0.12368073919E+03 -0.20807179326E+04  0.26110171630E+04  0.15294330000E+03 0.  0.
    8880022    1    1    2    0    0 -0.15650351217E+04 -0.12368073919E+03  0.14808904708E+04  0.21635757664E+04  0.15294330000E+03 0.  0.
<mgrwt>
<rscale>  0 0.15773470E+04</rscale>
<asrwt>0</asrwt>
<pdfrwt beam="1">  1        1 0.41341695E+00 0.15773470E+04</pdfrwt>
<pdfrwt beam="2">  1       -1 0.32113581E+00 0.15773470E+04</pdfrwt>
<totfact> 0.22510116E-02</totfact>
</mgrwt>
</event>
<event>
 4    1  0.1678003E-008  0.8324204E+03  0.7818608E-02  0.9514240E-01
          1   -1    0    0  501    0  0.00000000000E+00  0.00000000000E+00  0.24562353531E+04  0.24562353531E+04  0.50400000000E-02 0. -1.
         -1   -1    0    0    0  501 -0.00000000000E+00 -0.00000000000E+00 -0.50648432777E+03  0.50648432780E+03  0.50400000000E-02 0.  1.
    8880022    1    1    2    0    0  0.55433895858E+03  0.60186407568E+03 -0.11099835679E+02  0.83249438795E+03  0.15294330000E+03 0.  0.
    8880022    1    1    2    0    0 -0.55433895858E+03 -0.60186407568E+03  0.19608508610E+04  0.21302252929E+04  0.15294330000E+03 0.  0.
<mgrwt>
<rscale>  0 0.83242039E+03</rscale>
<asrwt>0</asrwt>
<pdfrwt beam="1">  1        1 0.37788236E+00 0.83242039E+03</pdfrwt>
<pdfrwt beam="2">  1       -1 0.77920666E-01 0.83242039E+03</pdfrwt>
<totfact> 0.25061757E+00</totfact>
</mgrwt>
</event>
<event>
 4    1  0.1678003E-008  0.8550529E+03  0.7818608E-02  0.9483580E-01
         -1   -1    0    0    0  501 -0.00000000000E+00  0.00000000000E+00  0.16169091633E+04  0.16169091633E+04  0.50400000000E-02 0.  1.
          1   -1    0    0  501    0  0.00000000000E+00 -0.00000000000E+00 -0.72496687760E+03  0.72496687762E+03  0.50400000000E-02 0. -1.
    8880022    1    1    2    0    0  0.83421400083E+02  0.83711687846E+03 -0.27231202160E+03  0.89736797821E+03  0.15294330000E+03 0.  0.
    8880022    1    1    2    0    0 -0.83421400083E+02 -0.83711687846E+03  0.11642543073E+04  0.14445080627E+04  0.15294330000E+03 0.  0.
<mgrwt>
<rscale>  0 0.85505289E+03</rscale>
<asrwt>0</asrwt>
<pdfrwt beam="1">  1        1 0.11153337E+00 0.85505289E+03</pdfrwt>
<pdfrwt beam="2">  1       -1 0.24875525E+00 0.85505289E+03</pdfrwt>
<totfact> 0.18864604E+00</totfact>
</mgrwt>
</event>
<event>
 4    1  0.1845341E-008  0.1369417E+04  0.7818608E-02  0.8976259E-01
          1   -1    0    0  501    0  0.00000000000E+00  0.00000000000E+00  0.13351409281E+04  0.13351409281E+04  0.50400000000E-02 0. -1.
         -1   -1    0    0    0  501 -0.00000000000E+00 -0.00000000000E+00 -0.25123881268E+04  0.25123881269E+04  0.50400000000E-02 0.  1.
    8880022    1    1    2    0    0 -0.32196097911E+03  0.13222144917E+04 -0.18660690668E+04  0.23146307371E+04  0.15294330000E+03 0.  0.
    8880022    1    1    2    0    0  0.32196097911E+03 -0.13222144917E+04  0.68882186803E+03  0.15328983179E+04  0.15294330000E+03 0.  0.
<mgrwt>
<rscale>  0 0.13694165E+04</rscale>
<asrwt>0</asrwt>
<pdfrwt beam="1">  1        1 0.20540630E+00 0.13694165E+04</pdfrwt>
<pdfrwt beam="2">  1       -1 0.38652125E+00 0.13694165E+04</pdfrwt>
<totfact> 0.72836073E-02</totfact>
</mgrwt>
</event>
<event>
 4    1  0.1678003E-008  0.7337451E+03  0.7818608E-02  0.9661203E-01
          1   -1    0    0  501    0  0.00000000000E+00  0.00000000000E+00  0.92834621862E+03  0.92834621863E+03  0.50400000000E-02 0. -1.
         -1   -1    0    0    0  501 -0.00000000000E+00 -0.00000000000E+00 -0.96150280936E+03  0.96150280938E+03  0.50400000000E-02 0.  1.
    8880022    1    1    2    0    0  0.36295886188E+03 -0.61907278224E+03  0.57868187262E+03  0.93448092963E+03  0.15294330000E+03 0.  0.
    8880022    1    1    2    0    0 -0.36295886188E+03  0.61907278224E+03 -0.61183846336E+03  0.95536809838E+03  0.15294330000E+03 0.  0.
<mgrwt>
<rscale>  0 0.73374512E+03</rscale>
<asrwt>0</asrwt>
<pdfrwt beam="1">  1        1 0.14282249E+00 0.73374512E+03</pdfrwt>
<pdfrwt beam="2">  1       -1 0.14792351E+00 0.73374512E+03</pdfrwt>
<totfact> 0.64811952E+00</totfact>
</mgrwt>
</event>
<event>
 4    1  0.1678003E-008  0.3358396E+03  0.7818608E-02  0.1068582E+00
          1   -1    0    0  501    0  0.00000000000E+00  0.00000000000E+00  0.32176373420E+04  0.32176373420E+04  0.50400000000E-02 0. -1.
         -1   -1    0    0    0  501 -0.00000000000E+00 -0.00000000000E+00 -0.84448319146E+02  0.84448319296E+02  0.50400000000E-02 0.  1.
    8880022    1    1    2    0    0 -0.10989772168E+03 -0.27806310257E+03  0.28293090282E+04  0.28491714283E+04  0.15294330000E+03 0.  0.
    8880022    1    1    2    0    0  0.10989772168E+03  0.27806310257E+03  0.30387999474E+03  0.45291423300E+03  0.15294330000E+03 0.  0.
<mgrwt>
<rscale>  0 0.33583962E+03</rscale>
<asrwt>0</asrwt>
<pdfrwt beam="1">  1        1 0.49502109E+00 0.33583962E+03</pdfrwt>
<pdfrwt beam="2">  1       -1 0.12992050E-01 0.33583962E+03</pdfrwt>
<totfact> 0.20041050E+01</totfact>
</mgrwt>
</event>
<event>
 4    1  0.1678003E-008  0.2676543E+03  0.7818608E-02  0.1102630E+00
          1   -1    0    0  501    0  0.00000000000E+00  0.00000000000E+00  0.24188363788E+03  0.24188363793E+03  0.50400000000E-02 0. -1.
         -1   -1    0    0    0  501 -0.00000000000E+00 -0.00000000000E+00 -0.42564015081E+03  0.42564015084E+03  0.50400000000E-02 0.  1.
    8880022    1    1    2    0    0 -0.16560460855E+03  0.14429928797E+03 -0.27595514561E+03  0.38443473606E+03  0.15294330000E+03 0.  1.
    8880022    1    1    2    0    0  0.16560460855E+03 -0.14429928797E+03  0.92198632676E+02  0.28308905271E+03  0.15294330000E+03 0.  0.
<mgrwt>
<rscale>  0 0.26765430E+03</rscale>
<asrwt>0</asrwt>
<pdfrwt beam="1">  1        1 0.37212867E-01 0.26765430E+03</pdfrwt>
<pdfrwt beam="2">  1       -1 0.65483100E-01 0.26765430E+03</pdfrwt>
<totfact> 0.28390814E+02</totfact>
</mgrwt>
</event>
<event>
 4    1  0.1678003E-008  0.3742868E+03  0.7818608E-02  0.1053066E+00
         -1   -1    0    0    0  501 -0.00000000000E+00  0.00000000000E+00  0.48310449579E+03  0.48310449581E+03  0.50400000000E-02 0.  1.
          1   -1    0    0  501    0  0.00000000000E+00 -0.00000000000E+00 -0.17122247142E+04  0.17122247142E+04  0.50400000000E-02 0. -1.
    8880022    1    1    2    0    0  0.28605818495E+03 -0.18673415398E+03  0.38584629334E+03  0.53755738720E+03  0.15294330000E+03 0.  0.
    8880022    1    1    2    0    0 -0.28605818495E+03  0.18673415398E+03 -0.16149665117E+04  0.16577718228E+04  0.15294330000E+03 0. -1.
<mgrwt>
<rscale>  0 0.37428677E+03</rscale>
<asrwt>0</asrwt>
<pdfrwt beam="1">  1        1 0.26341919E+00 0.37428677E+03</pdfrwt>
<pdfrwt beam="2">  1       -1 0.74323769E-01 0.37428677E+03</pdfrwt>
<totfact> 0.96469745E+00</totfact>
</mgrwt>
</event>
<event>
 4    1  0.1678003E-008  0.9848382E+03  0.7818608E-02  0.9325332E-01
          1   -1    0    0  501    0  0.00000000000E+00  0.00000000000E+00  0.16348189348E+04  0.16348189348E+04  0.50400000000E-02 0. -1.
         -1   -1    0    0    0  501 -0.00000000000E+00 -0.00000000000E+00 -0.14939321209E+04  0.14939321209E+04  0.50400000000E-02 0.  1.
    8880022    1    1    2    0    0 -0.86503633566E+03  0.44522667040E+03 -0.11442145025E+04  0.15096798107E+04  0.15294330000E+03 0.  0.
    8880022    1    1    2    0    0  0.86503633566E+03 -0.44522667040E+03  0.12851013164E+04  0.16190712451E+04  0.15294330000E+03 0.  0.
<mgrwt>
<rscale>  0 0.98483821E+03</rscale>
<asrwt>0</asrwt>
<pdfrwt beam="1">  1        1 0.25151060E+00 0.98483821E+03</pdfrwt>
<pdfrwt beam="2">  1       -1 0.22983571E+00 0.98483821E+03</pdfrwt>
<totfact> 0.50636752E-01</totfact>
</mgrwt>
</event>
<event>
 4    1  0.1678003E-008  0.4241752E+03  0.7818608E-02  0.1035716E+00
          1   -1    0    0  501    0  0.00000000000E+00  0.00000000000E+00  0.17409808780E+04  0.17409808780E+04  0.50400000000E-02 0. -1.
         -1   -1    0    0    0  501 -0.00000000000E+00 -0.00000000000E+00 -0.33236607306E+03  0.33236607310E+03  0.50400000000E-02 0.  1.
    8880022    1    1    2    0    0 -0.31111153959E+03  0.24442283547E+03  0.15648448793E+04  0.16213155344E+04  0.15294330000E+03 0.  0.
    8880022    1    1    2    0    0  0.31111153959E+03 -0.24442283547E+03 -0.15623007439E+03  0.45203141675E+03  0.15294330000E+03 0.  0.
<mgrwt>
<rscale>  0 0.42417516E+03</rscale>
<asrwt>0</asrwt>
<pdfrwt beam="1">  1        1 0.26784321E+00 0.42417516E+03</pdfrwt>
<pdfrwt beam="2">  1       -1 0.51133242E-01 0.42417516E+03</pdfrwt>
<totfact> 0.18953921E+01</totfact>
</mgrwt>
</event>
<event>
 4    1  0.1678003E-008  0.2932507E+03  0.7818608E-02  0.1088664E+00
          1   -1    0    0  501    0  0.00000000000E+00  0.00000000000E+00  0.10629251640E+04  0.10629251640E+04  0.50400000000E-02 0. -1.
         -1   -1    0    0    0  501 -0.00000000000E+00 -0.00000000000E+00 -0.11805329590E+03  0.11805329601E+03  0.50400000000E-02 0.  1.
    8880022    1    1    2    0    0  0.24386525488E+03  0.55982862916E+02  0.14119639434E+03  0.32547260755E+03  0.15294330000E+03 0.  0.
    8880022    1    1    2    0    0 -0.24386525488E+03 -0.55982862916E+02  0.80367547375E+03  0.85550585247E+03  0.15294330000E+03 0.  0.
<mgrwt>
<rscale>  0 0.29325074E+03</rscale>
<asrwt>0</asrwt>
<pdfrwt beam="1">  1        1 0.16352695E+00 0.29325074E+03</pdfrwt>
<pdfrwt beam="2">  1       -1 0.18162046E-01 0.29325074E+03</pdfrwt>
<totfact> 0.34016350E+02</totfact>
</mgrwt>
</event>
<event>
 4    1  0.1678003E-008  0.8018768E+03  0.7818608E-02  0.9557305E-01
          1   -1    0    0  501    0  0.00000000000E+00  0.00000000000E+00  0.36392551520E+03  0.36392551524E+03  0.50400000000E-02 0. -1.
         -1   -1    0    0    0  501 -0.00000000000E+00 -0.00000000000E+00 -0.28430562793E+04  0.28430562793E+04  0.50400000000E-02 0.  1.
    8880022    1    1    2    0    0 -0.76780074642E+03  0.17348398696E+03 -0.25301557451E+03  0.84084672438E+03  0.15294330000E+03 0.  0.
    8880022    1    1    2    0    0  0.76780074642E+03 -0.17348398696E+03 -0.22261151896E+04  0.23661350701E+04  0.15294330000E+03 0.  0.
<mgrwt>
<rscale>  0 0.80187676E+03</rscale>
<asrwt>0</asrwt>
<pdfrwt beam="1">  1        1 0.55988543E-01 0.80187676E+03</pdfrwt>
<pdfrwt beam="2">  1       -1 0.43739326E+00 0.80187676E+03</pdfrwt>
<totfact> 0.28584083E-01</totfact>
</mgrwt>
</event>
<event>
 4    1  0.1678003E-008  0.2104774E+03  0.7818608E-02  0.1141189E+00
          1   -1    0    0  501    0  0.00000000000E+00  0.00000000000E+00  0.68673404982E+03  0.68673404983E+03  0.50400000000E-02 0. -1.
         -1   -1    0    0    0  501 -0.00000000000E+00 -0.00000000000E+00 -0.42396789122E+03  0.42396789125E+03  0.50400000000E-02 0.  1.
    8880022    1    1    2    0    0 -0.23245784343E+02 -0.14271895970E+03  0.64274159901E+03  0.67632646263E+03  0.15294330000E+03 0. -1.
    8880022    1    1    2    0    0  0.23245784343E+02  0.14271895970E+03 -0.37997544041E+03  0.43437547845E+03  0.15294330000E+03 0.  0.
<mgrwt>
<rscale>  0 0.21047736E+03</rscale>
<asrwt>0</asrwt>
<pdfrwt beam="1">  1        1 0.10565139E+00 0.21047736E+03</pdfrwt>
<pdfrwt beam="2">  1       -1 0.65225830E-01 0.21047736E+03</pdfrwt>
<totfact> 0.73712570E+01</totfact>
</mgrwt>
</event>
<event>
 4    1  0.1678003E-008  0.4317316E+03  0.7818608E-02  0.1033314E+00
          1   -1    0    0  501    0  0.00000000000E+00  0.00000000000E+00  0.12118727356E+04  0.12118727356E+04  0.50400000000E-02 0. -1.
         -1   -1    0    0    0  501 -0.00000000000E+00 -0.00000000000E+00 -0.70521245151E+03  0.70521245152E+03  0.50400000000E-02 0.  1.
    8880022    1    1    2    0    0  0.22832183498E+03 -0.33297091359E+03 -0.59426357145E+03  0.73453477453E+03  0.15294330000E+03 0.  1.
    8880022    1    1    2    0    0 -0.22832183498E+03  0.33297091359E+03  0.11009238556E+04  0.11825504126E+04  0.15294330000E+03 0.  0.
<mgrwt>
<rscale>  0 0.43173156E+03</rscale>
<asrwt>0</asrwt>
<pdfrwt beam="1">  1        1 0.18644196E+00 0.43173156E+03</pdfrwt>
<pdfrwt beam="2">  1       -1 0.10849422E+00 0.43173156E+03</pdfrwt>
<totfact> 0.90975913E+00</totfact>
</mgrwt>
</event>
<event>
 4    1  0.1678003E-008  0.1113335E+04  0.7818608E-02  0.9192291E-01
          1   -1    0    0  501    0  0.00000000000E+00  0.00000000000E+00  0.21080347120E+04  0.21080347120E+04  0.50400000000E-02 0. -1.
         -1   -1    0    0    0  501 -0.00000000000E+00 -0.00000000000E+00 -0.21137460372E+04  0.21137460372E+04  0.50400000000E-02 0.  1.
    8880022    1    1    2    0    0  0.26795800038E+02  0.11024541523E+04  0.17905603737E+04  0.21084641988E+04  0.15294330000E+03 0.  0.
    8880022    1    1    2    0    0 -0.26795800038E+02 -0.11024541523E+04 -0.17962716989E+04  0.21133165504E+04  0.15294330000E+03 0.  0.
<mgrwt>
<rscale>  0 0.11133350E+04</rscale>
<asrwt>0</asrwt>
<pdfrwt beam="1">  1        1 0.32431303E+00 0.11133350E+04</pdfrwt>
<pdfrwt beam="2">  1       -1 0.32519170E+00 0.11133350E+04</pdfrwt>
<totfact> 0.57209729E-02</totfact>
</mgrwt>
</event>
<event>
 4    1  0.1678003E-008  0.3560579E+03  0.7818608E-02  0.1060156E+00
          1   -1    0    0  501    0  0.00000000000E+00  0.00000000000E+00  0.36712401142E+03  0.36712401145E+03  0.50400000000E-02 0. -1.
         -1   -1    0    0    0  501 -0.00000000000E+00 -0.00000000000E+00 -0.67756265452E+03  0.67756265454E+03  0.50400000000E-02 0.  1.
    8880022    1    1    2    0    0  0.15976253692E+03 -0.27903674792E+03 -0.52098716567E+03  0.63103474920E+03  0.15294330000E+03 0.  0.
    8880022    1    1    2    0    0 -0.15976253692E+03  0.27903674792E+03  0.21054852257E+03  0.41365191679E+03  0.15294330000E+03 0.  0.
<mgrwt>
<rscale>  0 0.35605790E+03</rscale>
<asrwt>0</asrwt>
<pdfrwt beam="1">  1        1 0.56480617E-01 0.35605790E+03</pdfrwt>
<pdfrwt beam="2">  1       -1 0.10424041E+00 0.35605790E+03</pdfrwt>
<totfact> 0.61921294E+01</totfact>
</mgrwt>
</event>
<event>
 4    1  0.1678003E-008  0.4193927E+03  0.7818608E-02  0.1037264E+00
          1   -1    0    0  501    0  0.00000000000E+00  0.00000000000E+00  0.92155907779E+03  0.92155907780E+03  0.50400000000E-02 0. -1.
         -1   -1    0    0    0  501 -0.00000000000E+00 -0.00000000000E+00 -0.21368760088E+03  0.21368760094E+03  0.50400000000E-02 0.  1.
    8880022    1    1    2    0    0 -0.34082598342E+03 -0.19062071593E+03  0.53945340740E+03  0.68330098791E+03  0.15294330000E+03 0.  0.
    8880022    1    1    2    0    0  0.34082598342E+03  0.19062071593E+03  0.16841806951E+03  0.45194569083E+03  0.15294330000E+03 0.  0.
<mgrwt>
<rscale>  0 0.41939273E+03</rscale>
<asrwt>0</asrwt>
<pdfrwt beam="1">  1        1 0.14177832E+00 0.41939273E+03</pdfrwt>
<pdfrwt beam="2">  1       -1 0.32875015E-01 0.41939273E+03</pdfrwt>
<totfact> 0.15856154E+02</totfact>
</mgrwt>
</event>
<event>
 4    1  0.1678003E-008  0.5947839E+03  0.7818608E-02  0.9916287E-01
          1   -1    0    0  501    0  0.00000000000E+00  0.00000000000E+00  0.12177122444E+04  0.12177122445E+04  0.50400000000E-02 0. -1.
         -1   -1    0    0    0  501 -0.00000000000E+00 -0.00000000000E+00 -0.45127351545E+03  0.45127351548E+03  0.50400000000E-02 0.  1.
    8880022    1    1    2    0    0 -0.56815966166E+03 -0.87010857064E+02  0.88128315401E+03  0.10632158487E+04  0.15294330000E+03 0.  0.
    8880022    1    1    2    0    0  0.56815966166E+03  0.87010857064E+02 -0.11484442501E+03  0.60576991123E+03  0.15294330000E+03 0.  0.
<mgrwt>
<rscale>  0 0.59478395E+03</rscale>
<asrwt>0</asrwt>
<pdfrwt beam="1">  1        1 0.18734034E+00 0.59478395E+03</pdfrwt>
<pdfrwt beam="2">  1       -1 0.69426696E-01 0.59478395E+03</pdfrwt>
<totfact> 0.22919906E+01</totfact>
</mgrwt>
</event>
<event>
 4    1  0.1678003E-008  0.1801411E+03  0.7818608E-02  0.1167667E+00
          1   -1    0    0  501    0  0.00000000000E+00  0.00000000000E+00  0.13087055423E+03  0.13087055433E+03  0.50400000000E-02 0. -1.
         -1   -1    0    0    0  501 -0.00000000000E+00 -0.00000000000E+00 -0.10247786554E+04  0.10247786554E+04  0.50400000000E-02 0.  1.
    8880022    1    1    2    0    0 -0.71171053217E+02  0.63196777076E+02 -0.95003806274E+03  0.96696593793E+03  0.15294330000E+03 0.  0.
    8880022    1    1    2    0    0  0.71171053217E+02 -0.63196777076E+02  0.56129961596E+02  0.18868327179E+03  0.15294330000E+03 0.  0.
<mgrwt>
<rscale>  0 0.18014107E+03</rscale>
<asrwt>0</asrwt>
<pdfrwt beam="1">  1        1 0.20133932E-01 0.18014107E+03</pdfrwt>
<pdfrwt beam="2">  1       -1 0.15765825E+00 0.18014107E+03</pdfrwt>
<totfact> 0.85709567E+01</totfact>
</mgrwt>
</event>
<event>
 4    1  0.1678003E-008  0.4538298E+03  0.7818608E-02  0.1026586E+00
          1   -1    0    0  501    0  0.00000000000E+00  0.00000000000E+00  0.33976701789E+04  0.33976701789E+04  0.50400000000E-02 0. -1.
         -1   -1    0    0    0  501 -0.00000000000E+00 -0.00000000000E+00 -0.10103520299E+03  0.10103520312E+03  0.50400000000E-02 0.  1.
    8880022    1    1    2    0    0 -0.32754916149E+02 -0.42602463599E+03  0.54189324265E+03  0.70683082449E+03  0.15294330000E+03 0.  0.
    8880022    1    1    2    0    0  0.32754916149E+02  0.42602463599E+03  0.27547417332E+04  0.27918745575E+04  0.15294330000E+03 0.  0.
<mgrwt>
<rscale>  0 0.45382984E+03</rscale>
<asrwt>0</asrwt>
<pdfrwt beam="1">  1        1 0.52271847E+00 0.45382984E+03</pdfrwt>
<pdfrwt beam="2">  1       -1 0.15543878E-01 0.45382984E+03</pdfrwt>
<totfact> 0.10668303E+01</totfact>
</mgrwt>
</event>
<event>
 4    1  0.1678003E-008  0.1682173E+03  0.7818608E-02  0.1179720E+00
         -1   -1    0    0    0  501 -0.00000000000E+00  0.00000000000E+00  0.13049139766E+04  0.13049139766E+04  0.50400000000E-02 0.  1.
          1   -1    0    0  501    0  0.00000000000E+00 -0.00000000000E+00 -0.20354726079E+03  0.20354726086E+03  0.50400000000E-02 0. -1.
    8880022    1    1    2    0    0  0.28427624180E+02  0.64009927578E+02 -0.16223997071E+03  0.23370678586E+03  0.15294330000E+03 0. -1.
    8880022    1    1    2    0    0 -0.28427624180E+02 -0.64009927578E+02  0.12636066865E+04  0.12747544516E+04  0.15294330000E+03 0.  0.
<mgrwt>
<rscale>  0 0.16821728E+03</rscale>
<asrwt>0</asrwt>
<pdfrwt beam="1">  1        1 0.31314962E-01 0.16821728E+03</pdfrwt>
<pdfrwt beam="2">  1       -1 0.20075601E+00 0.16821728E+03</pdfrwt>
<totfact> 0.24717439E+01</totfact>
</mgrwt>
</event>
<event>
 4    1  0.1678003E-008  0.3358214E+03  0.7818608E-02  0.1068590E+00
         -1   -1    0    0    0  501 -0.00000000000E+00  0.00000000000E+00  0.11823480468E+03  0.11823480479E+03  0.50400000000E-02 0.  1.
          1   -1    0    0  501    0  0.00000000000E+00 -0.00000000000E+00 -0.20426984235E+04  0.20426984235E+04  0.50400000000E-02 0. -1.
    8880022    1    1    2    0    0 -0.46750513411E+02 -0.29529437648E+03 -0.17510859515E+04  0.17829969270E+04  0.15294330000E+03 0.  0.
    8880022    1    1    2    0    0  0.46750513411E+02  0.29529437648E+03 -0.17337766738E+03  0.37793630131E+03  0.15294330000E+03 0.  0.
<mgrwt>
<rscale>  0 0.33582143E+03</rscale>
<asrwt>0</asrwt>
<pdfrwt beam="1">  1        1 0.31426127E+00 0.33582143E+03</pdfrwt>
<pdfrwt beam="2">  1       -1 0.18189971E-01 0.33582143E+03</pdfrwt>
<totfact> 0.73686790E+01</totfact>
</mgrwt>
</event>
<event>
 4    1  0.1678003E-008  0.4096307E+03  0.7818608E-02  0.1040495E+00
         -1   -1    0    0    0  501 -0.00000000000E+00  0.00000000000E+00  0.40535083690E+03  0.40535083694E+03  0.50400000000E-02 0.  1.
          1   -1    0    0  501    0  0.00000000000E+00 -0.00000000000E+00 -0.10333584676E+04  0.10333584676E+04  0.50400000000E-02 0. -1.
    8880022    1    1    2    0    0  0.27994892764E+03  0.25697124281E+03 -0.87093833743E+03  0.96246083678E+03  0.15294330000E+03 0.  0.
    8880022    1    1    2    0    0 -0.27994892764E+03 -0.25697124281E+03  0.24293070676E+03  0.47624846774E+03  0.15294330000E+03 0.  0.
<mgrwt>
<rscale>  0 0.40963066E+03</rscale>
<asrwt>0</asrwt>
<pdfrwt beam="1">  1        1 0.15897822E+00 0.40963066E+03</pdfrwt>
<pdfrwt beam="2">  1       -1 0.62361668E-01 0.40963066E+03</pdfrwt>
<totfact> 0.40025705E+01</totfact>
</mgrwt>
</event>
<event>
 4    1  0.1678003E-008  0.9079396E+03  0.7818608E-02  0.9415711E-01
         -1   -1    0    0    0  501 -0.00000000000E+00  0.00000000000E+00  0.43451701256E+04  0.43451701256E+04  0.50400000000E-02 0.  1.
          1   -1    0    0  501    0  0.00000000000E+00 -0.00000000000E+00 -0.99508218816E+03  0.99508218817E+03  0.50400000000E-02 0. -1.
    8880022    1    1    2    0    0 -0.44626673564E+03  0.77576322506E+03  0.40771857259E+04  0.41770561017E+04  0.15294330000E+03 0.  0.
    8880022    1    1    2    0    0  0.44626673564E+03 -0.77576322506E+03 -0.72709778846E+03  0.11631962120E+04  0.15294330000E+03 0.  0.
<mgrwt>
<rscale>  0 0.90793955E+03</rscale>
<asrwt>0</asrwt>
<pdfrwt beam="1">  1        1 0.15308957E+00 0.90793955E+03</pdfrwt>
<pdfrwt beam="2">  1       -1 0.66848771E+00 0.90793955E+03</pdfrwt>
<totfact> 0.39514032E-03</totfact>
</mgrwt>
</event>
<event>
 4    1  0.1678003E-008  0.3088683E+03  0.7818608E-02  0.1080890E+00
          1   -1    0    0  501    0  0.00000000000E+00  0.00000000000E+00  0.45142787337E+03  0.45142787340E+03  0.50400000000E-02 0. -1.
         -1   -1    0    0    0  501 -0.00000000000E+00 -0.00000000000E+00 -0.15303776430E+04  0.15303776430E+04  0.50400000000E-02 0.  1.
    8880022    1    1    2    0    0  0.26570786606E+03 -0.37513678291E+02 -0.14594206200E+04  0.14917466759E+04  0.15294330000E+03 0.  1.
    8880022    1    1    2    0    0 -0.26570786606E+03  0.37513678291E+02  0.38047085035E+03  0.49005884047E+03  0.15294330000E+03 0.  0.
<mgrwt>
<rscale>  0 0.30886826E+03</rscale>
<asrwt>0</asrwt>
<pdfrwt beam="1">  1        1 0.69450443E-01 0.30886826E+03</pdfrwt>
<pdfrwt beam="2">  1       -1 0.23544271E+00 0.30886826E+03</pdfrwt>
<totfact> 0.50769436E+00</totfact>
</mgrwt>
</event>
<event>
 4    1  0.1678003E-008  0.2405507E+03  0.7818608E-02  0.1119427E+00
          1   -1    0    0  501    0  0.00000000000E+00  0.00000000000E+00  0.50842576834E+03  0.50842576836E+03  0.50400000000E-02 0. -1.
         -1   -1    0    0    0  501 -0.00000000000E+00 -0.00000000000E+00 -0.64161641877E+03  0.64161641879E+03  0.50400000000E-02 0.  1.
    8880022    1    1    2    0    0 -0.16253369651E+03  0.89754028912E+02 -0.58812954032E+03  0.63542190505E+03  0.15294330000E+03 0.  0.
    8880022    1    1    2    0    0  0.16253369651E+03 -0.89754028912E+02  0.45493888989E+03  0.51462028210E+03  0.15294330000E+03 0. -1.
<mgrwt>
<rscale>  0 0.24055070E+03</rscale>
<asrwt>0</asrwt>
<pdfrwt beam="1">  1        1 0.78219349E-01 0.24055070E+03</pdfrwt>
<pdfrwt beam="2">  1       -1 0.98710218E-01 0.24055070E+03</pdfrwt>
<totfact> 0.46839809E+01</totfact>
</mgrwt>
</event>
<event>
 4    1  0.1678003E-008  0.4249875E+03  0.7818608E-02  0.1035455E+00
         -1   -1    0    0    0  501 -0.00000000000E+00  0.00000000000E+00  0.44278917331E+03  0.44278917334E+03  0.50400000000E-02 0.  1.
          1   -1    0    0  501    0  0.00000000000E+00 -0.00000000000E+00 -0.93754593031E+03  0.93754593032E+03  0.50400000000E-02 0. -1.
    8880022    1    1    2    0    0 -0.37418643176E+03 -0.13117649784E+03 -0.76611919874E+03  0.87610104382E+03  0.15294330000E+03 0.  0.
    8880022    1    1    2    0    0  0.37418643176E+03  0.13117649784E+03  0.27136244174E+03  0.50423405984E+03  0.15294330000E+03 0.  0.
<mgrwt>
<rscale>  0 0.42498754E+03</rscale>
<asrwt>0</asrwt>
<pdfrwt beam="1">  1        1 0.14423784E+00 0.42498754E+03</pdfrwt>
<pdfrwt beam="2">  1       -1 0.68121411E-01 0.42498754E+03</pdfrwt>
<totfact> 0.39654943E+01</totfact>
</mgrwt>
</event>
<event>
 4    1  0.1678003E-008  0.8777785E+03  0.7818608E-02  0.9453794E-01
         -1   -1    0    0    0  501 -0.00000000000E+00  0.00000000000E+00  0.58033528987E+03  0.58033528989E+03  0.50400000000E-02 0.  1.
          1   -1    0    0  501    0  0.00000000000E+00 -0.00000000000E+00 -0.23799907260E+04  0.23799907260E+04  0.50400000000E-02 0. -1.
    8880022    1    1    2    0    0 -0.62685202280E+03 -0.59511339249E+03 -0.18840552537E+04  0.20784992808E+04  0.15294330000E+03 0.  0.
    8880022    1    1    2    0    0  0.62685202280E+03  0.59511339249E+03  0.84399817593E+02  0.88182673504E+03  0.15294330000E+03 0.  0.
<mgrwt>
<rscale>  0 0.87777848E+03</rscale>
<asrwt>0</asrwt>
<pdfrwt beam="1">  1        1 0.36615241E+00 0.87777848E+03</pdfrwt>
<pdfrwt beam="2">  1       -1 0.89282354E-01 0.87777848E+03</pdfrwt>
<totfact> 0.20899732E+00</totfact>
</mgrwt>
</event>
<event>
 4    1  0.1678003E-008  0.9012141E+03  0.7818608E-02  0.9424065E-01
         -1   -1    0    0    0  501 -0.00000000000E+00  0.00000000000E+00  0.79045205389E+03  0.79045205391E+03  0.50400000000E-02 0.  1.
          1   -1    0    0  501    0  0.00000000000E+00 -0.00000000000E+00 -0.31740545972E+04  0.31740545972E+04  0.50400000000E-02 0. -1.
    8880022    1    1    2    0    0 -0.87527586063E+03  0.15062329160E+03 -0.28219351157E+04  0.29623478288E+04  0.15294330000E+03 0.  0.
    8880022    1    1    2    0    0  0.87527586063E+03 -0.15062329160E+03  0.43833257242E+03  0.10021588224E+04  0.15294330000E+03 0.  0.
<mgrwt>
<rscale>  0 0.90121410E+03</rscale>
<asrwt>0</asrwt>
<pdfrwt beam="1">  1        1 0.48831609E+00 0.90121410E+03</pdfrwt>
<pdfrwt beam="2">  1       -1 0.12160801E+00 0.90121410E+03</pdfrwt>
<totfact> 0.28019368E-01</totfact>
</mgrwt>
</event>
<event>
 4    1  0.1678003E-008  0.5929854E+03  0.7818608E-02  0.9920067E-01
          1   -1    0    0  501    0  0.00000000000E+00  0.00000000000E+00  0.23749058312E+04  0.23749058312E+04  0.50400000000E-02 0. -1.
         -1   -1    0    0    0  501 -0.00000000000E+00 -0.00000000000E+00 -0.56991531305E+03  0.56991531307E+03  0.50400000000E-02 0.  1.
    8880022    1    1    2    0    0 -0.57251879705E+03 -0.21501468294E+02  0.21692858704E+04  0.22488737018E+04  0.15294330000E+03 0.  0.
    8880022    1    1    2    0    0  0.57251879705E+03  0.21501468294E+02 -0.36429535220E+03  0.69594744253E+03  0.15294330000E+03 0.  0.
<mgrwt>
<rscale>  0 0.59298545E+03</rscale>
<asrwt>0</asrwt>
<pdfrwt beam="1">  1        1 0.36537014E+00 0.59298545E+03</pdfrwt>
<pdfrwt beam="2">  1       -1 0.87679277E-01 0.59298545E+03</pdfrwt>
<totfact> 0.23249428E+00</totfact>
</mgrwt>
</event>
<event>
 4    1  0.1678003E-008  0.4895268E+03  0.7818608E-02  0.1016549E+00
          1   -1    0    0  501    0  0.00000000000E+00  0.00000000000E+00  0.54298952898E+03  0.54298952901E+03  0.50400000000E-02 0. -1.
         -1   -1    0    0    0  501 -0.00000000000E+00 -0.00000000000E+00 -0.79735584204E+03  0.79735584206E+03  0.50400000000E-02 0.  1.
    8880022    1    1    2    0    0 -0.43323931465E+03  0.16896311544E+03  0.32063593497E+03  0.58518705893E+03  0.15294330000E+03 0.  0.
    8880022    1    1    2    0    0  0.43323931465E+03 -0.16896311544E+03 -0.57500224803E+03  0.75515831213E+03  0.15294330000E+03 0.  0.
<mgrwt>
<rscale>  0 0.48952680E+03</rscale>
<asrwt>0</asrwt>
<pdfrwt beam="1">  1        1 0.83536850E-01 0.48952680E+03</pdfrwt>
<pdfrwt beam="2">  1       -1 0.12267013E+00 0.48952680E+03</pdfrwt>
<totfact> 0.24553628E+01</totfact>
</mgrwt>
</event>
<event>
 4    1  0.1678003E-008  0.2024178E+03  0.7818608E-02  0.1147715E+00
          1   -1    0    0  501    0  0.00000000000E+00  0.00000000000E+00  0.47030326538E+03  0.47030326541E+03  0.50400000000E-02 0. -1.
         -1   -1    0    0    0  501 -0.00000000000E+00 -0.00000000000E+00 -0.11239696224E+03  0.11239696235E+03  0.50400000000E-02 0.  1.
    8880022    1    1    2    0    0  0.13130021907E+03 -0.18481841905E+02  0.31711796335E+03  0.37621374470E+03  0.15294330000E+03 0. -1.
    8880022    1    1    2    0    0 -0.13130021907E+03  0.18481841905E+02  0.40788339797E+02  0.20648648306E+03  0.15294330000E+03 0.  1.
<mgrwt>
<rscale>  0 0.20241783E+03</rscale>
<asrwt>0</asrwt>
<pdfrwt beam="1">  1        1 0.72354346E-01 0.20241783E+03</pdfrwt>
<pdfrwt beam="2">  1       -1 0.17291841E-01 0.20241783E+03</pdfrwt>
<totfact> 0.12496179E+03</totfact>
</mgrwt>
</event>
<event>
 4    1  0.1678003E-008  0.1628975E+03  0.7818608E-02  0.1185464E+00
         -1   -1    0    0    0  501 -0.00000000000E+00  0.00000000000E+00  0.21943422092E+02  0.21943422671E+02  0.50400000000E-02 0.  1.
          1   -1    0    0  501    0  0.00000000000E+00 -0.00000000000E+00 -0.36501047341E+04  0.36501047341E+04  0.50400000000E-02 0. -1.
    8880022    1    1    2    0    0  0.33810091321E+02  0.44730377082E+02 -0.33154745851E+04  0.33194739503E+04  0.15294330000E+03 0.  0.
    8880022    1    1    2    0    0 -0.33810091321E+02 -0.44730377082E+02 -0.31268672690E+03  0.35257420652E+03  0.15294330000E+03 0.  0.
<mgrwt>
<rscale>  0 0.16289746E+03</rscale>
<asrwt>0</asrwt>
<pdfrwt beam="1">  1        1 0.56155409E+00 0.16289746E+03</pdfrwt>
<pdfrwt beam="2">  1       -1 0.33759140E-02 0.16289746E+03</pdfrwt>
<totfact> 0.79841945E+01</totfact>
</mgrwt>
</event>
<event>
 4    1  0.1678003E-008  0.2534094E+03  0.7818608E-02  0.1111169E+00
         -1   -1    0    0    0  501 -0.00000000000E+00  0.00000000000E+00  0.37051129768E+03  0.37051129771E+03  0.50400000000E-02 0.  1.
          1   -1    0    0  501    0  0.00000000000E+00 -0.00000000000E+00 -0.28840749482E+03  0.28840749486E+03  0.50400000000E-02 0. -1.
    8880022    1    1    2    0    0 -0.35568525135E+02 -0.19889578355E+03 -0.16706929957E+03  0.30352669828E+03  0.15294330000E+03 0.  0.
    8880022    1    1    2    0    0  0.35568525135E+02  0.19889578355E+03  0.24917310243E+03  0.35539209429E+03  0.15294330000E+03 0.  0.
<mgrwt>
<rscale>  0 0.25340936E+03</rscale>
<asrwt>0</asrwt>
<pdfrwt beam="1">  1        1 0.44370384E-01 0.25340936E+03</pdfrwt>
<pdfrwt beam="2">  1       -1 0.57001738E-01 0.25340936E+03</pdfrwt>
<totfact> 0.29789708E+02</totfact>
</mgrwt>
</event>
<event>
 4    1  0.1678003E-008  0.5196637E+03  0.7818608E-02  0.1008770E+00
         -1   -1    0    0    0  501 -0.00000000000E+00  0.00000000000E+00  0.22646719875E+04  0.22646719875E+04  0.50400000000E-02 0.  1.
          1   -1    0    0  501    0  0.00000000000E+00 -0.00000000000E+00 -0.65397987118E+03  0.65397987120E+03  0.50400000000E-02 0. -1.
    8880022    1    1    2    0    0 -0.47191737688E+03 -0.15476645437E+03  0.21249373770E+04  0.21875578107E+04  0.15294330000E+03 0.  0.
    8880022    1    1    2    0    0  0.47191737688E+03  0.15476645437E+03 -0.51424526063E+03  0.73109404805E+03  0.15294330000E+03 0. -1.
<mgrwt>
<rscale>  0 0.51966366E+03</rscale>
<asrwt>0</asrwt>
<pdfrwt beam="1">  1        1 0.10061229E+00 0.51966366E+03</pdfrwt>
<pdfrwt beam="2">  1       -1 0.34841108E+00 0.51966366E+03</pdfrwt>
<totfact> 0.54337414E-01</totfact>
</mgrwt>
</event>
<event>
 4    1  0.1678003E-008  0.8113456E+03  0.7818608E-02  0.9543739E-01
          1   -1    0    0  501    0  0.00000000000E+00  0.00000000000E+00  0.10998875069E+04  0.10998875069E+04  0.50400000000E-02 0. -1.
         -1   -1    0    0    0  501 -0.00000000000E+00 -0.00000000000E+00 -0.72773603011E+03  0.72773603012E+03  0.50400000000E-02 0.  1.
    8880022    1    1    2    0    0  0.40075396318E+03 -0.68868443242E+03  0.57116658092E+03  0.99222623561E+03  0.15294330000E+03 0.  0.
    8880022    1    1    2    0    0 -0.40075396318E+03  0.68868443242E+03 -0.19901510416E+03  0.83539730139E+03  0.15294330000E+03 0.  0.
<mgrwt>
<rscale>  0 0.81134557E+03</rscale>
<asrwt>0</asrwt>
<pdfrwt beam="1">  1        1 0.16921346E+00 0.81134557E+03</pdfrwt>
<pdfrwt beam="2">  1       -1 0.11195939E+00 0.81134557E+03</pdfrwt>
<totfact> 0.95146515E+00</totfact>
</mgrwt>
</event>
<event>
 4    1  0.1678003E-008  0.3173516E+03  0.7818608E-02  0.1076875E+00
         -1   -1    0    0    0  501 -0.00000000000E+00  0.00000000000E+00  0.19402350339E+03  0.19402350346E+03  0.50400000000E-02 0.  1.
          1   -1    0    0  501    0  0.00000000000E+00 -0.00000000000E+00 -0.11002668889E+04  0.11002668889E+04  0.50400000000E-02 0. -1.
    8880022    1    1    2    0    0  0.21591838567E+02 -0.27722580392E+03 -0.92346385717E+03  0.97647196701E+03  0.15294330000E+03 0.  0.
    8880022    1    1    2    0    0 -0.21591838567E+02  0.27722580392E+03  0.17220471635E+02  0.31781842538E+03  0.15294330000E+03 0.  0.
<mgrwt>
<rscale>  0 0.31735155E+03</rscale>
<asrwt>0</asrwt>
<pdfrwt beam="1">  1        1 0.16927183E+00 0.31735155E+03</pdfrwt>
<pdfrwt beam="2">  1       -1 0.29849770E-01 0.31735155E+03</pdfrwt>
<totfact> 0.13930454E+02</totfact>
</mgrwt>
</event>
<event>
 4    1  0.1678003E-008  0.7600257E+03  0.7818608E-02  0.9619752E-01
          1   -1    0    0  501    0  0.00000000000E+00  0.00000000000E+00  0.16676305239E+04  0.16676305239E+04  0.50400000000E-02 0. -1.
         -1   -1    0    0    0  501 -0.00000000000E+00 -0.00000000000E+00 -0.38508848222E+03  0.38508848225E+03  0.50400000000E-02 0.  1.
    8880022    1    1    2    0    0 -0.60367162375E+03  0.43569258747E+03  0.96666135339E+03  0.12296638912E+04  0.15294330000E+03 0.  0.
    8880022    1    1    2    0    0  0.60367162375E+03 -0.43569258747E+03  0.31588068832E+03  0.82305511502E+03  0.15294330000E+03 0.  0.
<mgrwt>
<rscale>  0 0.76002573E+03</rscale>
<asrwt>0</asrwt>
<pdfrwt beam="1">  1        1 0.25655854E+00 0.76002573E+03</pdfrwt>
<pdfrwt beam="2">  1       -1 0.59244383E-01 0.76002573E+03</pdfrwt>
<totfact> 0.15020302E+01</totfact>
</mgrwt>
</event>
<event>
 4    1  0.1678003E-008  0.5251024E+03  0.7818608E-02  0.1007427E+00
          1   -1    0    0  501    0  0.00000000000E+00  0.00000000000E+00  0.15054788209E+04  0.15054788209E+04  0.50400000000E-02 0. -1.
         -1   -1    0    0    0  501 -0.00000000000E+00 -0.00000000000E+00 -0.23753995114E+03  0.23753995119E+03  0.50400000000E-02 0.  1.
    8880022    1    1    2    0    0  0.24595181084E+01  0.50232935990E+03  0.21695378612E+03  0.56815616988E+03  0.15294330000E+03 0.  0.
    8880022    1    1    2    0    0 -0.24595181084E+01 -0.50232935990E+03  0.10509850836E+04  0.11748626022E+04  0.15294330000E+03 0. -1.
<mgrwt>
<rscale>  0 0.52510236E+03</rscale>
<asrwt>0</asrwt>
<pdfrwt beam="1">  1        1 0.23161212E+00 0.52510236E+03</pdfrwt>
<pdfrwt beam="2">  1       -1 0.36544608E-01 0.52510236E+03</pdfrwt>
<totfact> 0.49313037E+01</totfact>
</mgrwt>
</event>
<event>
 4    1  0.1678003E-008  0.7265505E+03  0.7818608E-02  0.9672875E-01
          1   -1    0    0  501    0  0.00000000000E+00  0.00000000000E+00  0.14715194198E+04  0.14715194198E+04  0.50400000000E-02 0. -1.
         -1   -1    0    0    0  501 -0.00000000000E+00 -0.00000000000E+00 -0.86270670465E+03  0.86270670467E+03  0.50400000000E-02 0.  1.
    8880022    1    1    2    0    0  0.68710056550E+03 -0.17993540099E+03 -0.58763980158E+03  0.93444963752E+03  0.15294330000E+03 0.  0.
    8880022    1    1    2    0    0 -0.68710056550E+03  0.17993540099E+03  0.11964525167E+04  0.13997764870E+04  0.15294330000E+03 0.  0.
<mgrwt>
<rscale>  0 0.72655047E+03</rscale>
<asrwt>0</asrwt>
<pdfrwt beam="1">  1        1 0.22638760E+00 0.72655047E+03</pdfrwt>
<pdfrwt beam="2">  1       -1 0.13272411E+00 0.72655047E+03</pdfrwt>
<totfact> 0.34518334E+00</totfact>
</mgrwt>
</event>
<event>
 4    1  0.1678003E-008  0.5899453E+03  0.7818608E-02  0.9926489E-01
          1   -1    0    0  501    0  0.00000000000E+00  0.00000000000E+00  0.99666926541E+03  0.99666926542E+03  0.50400000000E-02 0. -1.
         -1   -1    0    0    0  501 -0.00000000000E+00 -0.00000000000E+00 -0.44067716506E+03  0.44067716509E+03  0.50400000000E-02 0.  1.
    8880022    1    1    2    0    0  0.56463616411E+03  0.76352955840E+02 -0.49443447810E+02  0.59201358028E+03  0.15294330000E+03 0. -1.
    8880022    1    1    2    0    0 -0.56463616411E+03 -0.76352955840E+02  0.60543554816E+03  0.84533285023E+03  0.15294330000E+03 0.  0.
<mgrwt>
<rscale>  0 0.58994527E+03</rscale>
<asrwt>0</asrwt>
<pdfrwt beam="1">  1        1 0.15333373E+00 0.58994527E+03</pdfrwt>
<pdfrwt beam="2">  1       -1 0.67796488E-01 0.58994527E+03</pdfrwt>
<totfact> 0.35087513E+01</totfact>
</mgrwt>
</event>
<event>
 4    1  0.1678003E-008  0.6011478E+03  0.7818608E-02  0.9903028E-01
         -1   -1    0    0    0  501 -0.00000000000E+00  0.00000000000E+00  0.40192331628E+03  0.40192331631E+03  0.50400000000E-02 0.  1.
          1   -1    0    0  501    0  0.00000000000E+00 -0.00000000000E+00 -0.23660934252E+04  0.23660934252E+04  0.50400000000E-02 0. -1.
    8880022    1    1    2    0    0  0.77294841094E+02  0.57620530587E+03 -0.20718513634E+04  0.21573008071E+04  0.15294330000E+03 0.  0.
    8880022    1    1    2    0    0 -0.77294841094E+02 -0.57620530587E+03  0.10768125454E+03  0.61071593443E+03  0.15294330000E+03 0.  0.
<mgrwt>
<rscale>  0 0.60114782E+03</rscale>
<asrwt>0</asrwt>
<pdfrwt beam="1">  1        1 0.36401437E+00 0.60114782E+03</pdfrwt>
<pdfrwt beam="2">  1       -1 0.61834357E-01 0.60114782E+03</pdfrwt>
<totfact> 0.48434573E+00</totfact>
</mgrwt>
</event>
<event>
 4    1  0.1678003E-008  0.3905978E+03  0.7818608E-02  0.1047085E+00
          1   -1    0    0  501    0  0.00000000000E+00  0.00000000000E+00  0.22471674913E+04  0.22471674913E+04  0.50400000000E-02 0. -1.
         -1   -1    0    0    0  501 -0.00000000000E+00 -0.00000000000E+00 -0.14515544882E+03  0.14515544890E+03  0.50400000000E-02 0.  1.
    8880022    1    1    2    0    0  0.18888842718E+03  0.30577140885E+03  0.17832055408E+03  0.42937729960E+03  0.15294330000E+03 0.  1.
    8880022    1    1    2    0    0 -0.18888842718E+03 -0.30577140885E+03  0.19236914884E+04  0.19629456406E+04  0.15294330000E+03 0.  0.
<mgrwt>
<rscale>  0 0.39059781E+03</rscale>
<asrwt>0</asrwt>
<pdfrwt beam="1">  1        1 0.34571807E+00 0.39059781E+03</pdfrwt>
<pdfrwt beam="2">  1       -1 0.22331608E-01 0.39059781E+03</pdfrwt>
<totfact> 0.38060525E+01</totfact>
</mgrwt>
</event>
<event>
 4    1  0.1678003E-008  0.5237887E+03  0.7818608E-02  0.1007750E+00
         -1   -1    0    0    0  501 -0.00000000000E+00  0.00000000000E+00  0.27255354447E+03  0.27255354451E+03  0.50400000000E-02 0.  1.
          1   -1    0    0  501    0  0.00000000000E+00 -0.00000000000E+00 -0.17077118343E+04  0.17077118343E+04  0.50400000000E-02 0. -1.
    8880022    1    1    2    0    0 -0.28840291759E+01 -0.50095372363E+03 -0.13519997023E+04  0.14499164799E+04  0.15294330000E+03 0. -1.
    8880022    1    1    2    0    0  0.28840291759E+01  0.50095372363E+03 -0.83158587551E+02  0.53034889887E+03  0.15294330000E+03 0.  0.
<mgrwt>
<rscale>  0 0.52378870E+03</rscale>
<asrwt>0</asrwt>
<pdfrwt beam="1">  1        1 0.26272489E+00 0.52378870E+03</pdfrwt>
<pdfrwt beam="2">  1       -1 0.41931316E-01 0.52378870E+03</pdfrwt>
<totfact> 0.28174108E+01</totfact>
</mgrwt>
</event>
<event>
 4    1  0.1678003E-008  0.1361041E+04  0.7818608E-02  0.8982512E-01
         -1   -1    0    0    0  501 -0.00000000000E+00  0.00000000000E+00  0.14113593288E+04  0.14113593288E+04  0.50400000000E-02 0.  1.
          1   -1    0    0  501    0  0.00000000000E+00 -0.00000000000E+00 -0.20270123282E+04  0.20270123282E+04  0.50400000000E-02 0. -1.
    8880022    1    1    2    0    0  0.85772148346E+03  0.10456365418E+04 -0.13285173574E+04  0.19019442533E+04  0.15294330000E+03 0.  0.
    8880022    1    1    2    0    0 -0.85772148346E+03 -0.10456365418E+04  0.71286435808E+03  0.15364274037E+04  0.15294330000E+03 0.  0.
<mgrwt>
<rscale>  0 0.13610414E+04</rscale>
<asrwt>0</asrwt>
<pdfrwt beam="1">  1        1 0.31184805E+00 0.13610414E+04</pdfrwt>
<pdfrwt beam="2">  1       -1 0.21713221E+00 0.13610414E+04</pdfrwt>
<totfact> 0.31570139E-01</totfact>
</mgrwt>
</event>
<event>
 4    1  0.1678003E-008  0.5428198E+03  0.7818608E-02  0.1003170E+00
          1   -1    0    0  501    0  0.00000000000E+00  0.00000000000E+00  0.13975697001E+04  0.13975697001E+04  0.50400000000E-02 0. -1.
         -1   -1    0    0    0  501 -0.00000000000E+00 -0.00000000000E+00 -0.13261689202E+04  0.13261689202E+04  0.50400000000E-02 0.  1.
    8880022    1    1    2    0    0 -0.27073705458E+02 -0.52012376518E+03 -0.12132319649E+04  0.13291294784E+04  0.15294330000E+03 0.  0.
    8880022    1    1    2    0    0  0.27073705458E+02  0.52012376518E+03  0.12846327449E+04  0.13946091419E+04  0.15294330000E+03 0.  0.
<mgrwt>
<rscale>  0 0.54281983E+03</rscale>
<asrwt>0</asrwt>
<pdfrwt beam="1">  1        1 0.21501072E+00 0.54281983E+03</pdfrwt>
<pdfrwt beam="2">  1       -1 0.20402599E+00 0.54281983E+03</pdfrwt>
<totfact> 0.12031396E+00</totfact>
</mgrwt>
</event>
<event>
 4    1  0.1678003E-008  0.5778210E+03  0.7818608E-02  0.9952520E-01
          1   -1    0    0  501    0  0.00000000000E+00  0.00000000000E+00  0.69797192366E+03  0.69797192367E+03  0.50400000000E-02 0. -1.
         -1   -1    0    0    0  501 -0.00000000000E+00 -0.00000000000E+00 -0.72715199556E+03  0.72715199558E+03  0.50400000000E-02 0.  1.
    8880022    1    1    2    0    0  0.49131844391E+02  0.55504194568E+03 -0.43139617650E+03  0.72109625829E+03  0.15294330000E+03 0.  0.
    8880022    1    1    2    0    0 -0.49131844391E+02 -0.55504194568E+03  0.40221610459E+03  0.70402766097E+03  0.15294330000E+03 0.  0.
<mgrwt>
<rscale>  0 0.57782104E+03</rscale>
<asrwt>0</asrwt>
<pdfrwt beam="1">  1        1 0.10738030E+00 0.57782104E+03</pdfrwt>
<pdfrwt beam="2">  1       -1 0.11186954E+00 0.57782104E+03</pdfrwt>
<totfact> 0.21059751E+01</totfact>
</mgrwt>
</event>
<event>
 4    1  0.1678003E-008  0.2302784E+04  0.7818608E-02  0.8476824E-01
         -1   -1    0    0    0  501 -0.00000000000E+00  0.00000000000E+00  0.21440318173E+04  0.21440318173E+04  0.50400000000E-02 0.  1.
          1   -1    0    0  501    0  0.00000000000E+00 -0.00000000000E+00 -0.39605173404E+04  0.39605173404E+04  0.50400000000E-02 0. -1.
    8880022    1    1    2    0    0  0.15942822494E+04  0.16545952425E+04  0.96216495668E+03  0.24957111940E+04  0.15294330000E+03 0.  0.
    8880022    1    1    2    0    0 -0.15942822494E+04 -0.16545952425E+04 -0.27786504797E+04  0.36088379637E+04  0.15294330000E+03 0.  0.
<mgrwt>
<rscale>  0 0.23027837E+04</rscale>
<asrwt>0</asrwt>
<pdfrwt beam="1">  1        1 0.60931036E+00 0.23027837E+04</pdfrwt>
<pdfrwt beam="2">  1       -1 0.32985105E+00 0.23027837E+04</pdfrwt>
<totfact> 0.18688906E-03</totfact>
</mgrwt>
</event>
<event>
 4    1  0.1678003E-008  0.8854732E+03  0.7818608E-02  0.9443925E-01
         -1   -1    0    0    0  501 -0.00000000000E+00  0.00000000000E+00  0.59412338123E+03  0.59412338125E+03  0.50400000000E-02 0.  1.
          1   -1    0    0  501    0  0.00000000000E+00 -0.00000000000E+00 -0.15120317719E+04  0.15120317719E+04  0.50400000000E-02 0. -1.
    8880022    1    1    2    0    0 -0.50017968603E+03 -0.71448680106E+03 -0.83368564061E+02  0.88938915987E+03  0.15294330000E+03 0.  0.
    8880022    1    1    2    0    0  0.50017968603E+03  0.71448680106E+03 -0.83453982658E+03  0.12167659933E+04  0.15294330000E+03 0.  0.
<mgrwt>
<rscale>  0 0.88547318E+03</rscale>
<asrwt>0</asrwt>
<pdfrwt beam="1">  1        1 0.23262027E+00 0.88547318E+03</pdfrwt>
<pdfrwt beam="2">  1       -1 0.91403598E-01 0.88547318E+03</pdfrwt>
<totfact> 0.76400751E+00</totfact>
</mgrwt>
</event>
<event>
 4    1  0.1678003E-008  0.8234646E+03  0.7818608E-02  0.9526661E-01
         -1   -1    0    0    0  501 -0.00000000000E+00  0.00000000000E+00  0.19950091841E+04  0.19950091841E+04  0.50400000000E-02 0.  1.
          1   -1    0    0  501    0  0.00000000000E+00 -0.00000000000E+00 -0.52107441093E+03  0.52107441096E+03  0.50400000000E-02 0. -1.
    8880022    1    1    2    0    0  0.44984081097E+03 -0.67256641811E+03 -0.48541023579E+01  0.82347893556E+03  0.15294330000E+03 0.  0.
    8880022    1    1    2    0    0 -0.44984081097E+03  0.67256641811E+03  0.14787888755E+04  0.16926046595E+04  0.15294330000E+03 0.  0.
<mgrwt>
<rscale>  0 0.82346463E+03</rscale>
<asrwt>0</asrwt>
<pdfrwt beam="1">  1        1 0.80165294E-01 0.82346463E+03</pdfrwt>
<pdfrwt beam="2">  1       -1 0.30692449E+00 0.82346463E+03</pdfrwt>
<totfact> 0.12985421E+00</totfact>
</mgrwt>
</event>
<event>
 4    1  0.1678003E-008  0.4703076E+03  0.7818608E-02  0.1021833E+00
          1   -1    0    0  501    0  0.00000000000E+00  0.00000000000E+00  0.36733071423E+03  0.36733071426E+03  0.50400000000E-02 0. -1.
         -1   -1    0    0    0  501 -0.00000000000E+00 -0.00000000000E+00 -0.68887796201E+03  0.68887796203E+03  0.50400000000E-02 0.  1.
    8880022    1    1    2    0    0 -0.22041605245E+03  0.38628274583E+03  0.26605385794E+02  0.47105954557E+03  0.15294330000E+03 0.  0.
    8880022    1    1    2    0    0  0.22041605245E+03 -0.38628274583E+03 -0.34815263358E+03  0.58514913072E+03  0.15294330000E+03 0.  0.
<mgrwt>
<rscale>  0 0.47030761E+03</rscale>
<asrwt>0</asrwt>
<pdfrwt beam="1">  1        1 0.56512418E-01 0.47030761E+03</pdfrwt>
<pdfrwt beam="2">  1       -1 0.10598122E+00 0.47030761E+03</pdfrwt>
<totfact> 0.58637212E+01</totfact>
</mgrwt>
</event>
<event>
 4    1  0.1678003E-008  0.7192591E+03  0.7818608E-02  0.9684852E-01
         -1   -1    0    0    0  501 -0.00000000000E+00  0.00000000000E+00  0.42499765528E+03  0.42499765531E+03  0.50400000000E-02 0.  1.
          1   -1    0    0  501    0  0.00000000000E+00 -0.00000000000E+00 -0.21582749585E+04  0.21582749585E+04  0.50400000000E-02 0. -1.
    8880022    1    1    2    0    0  0.69947357415E+03  0.68400838686E+02 -0.17195121096E+04  0.18638818374E+04  0.15294330000E+03 0.  0.
    8880022    1    1    2    0    0 -0.69947357415E+03 -0.68400838686E+02 -0.13765193635E+02  0.71939077645E+03  0.15294330000E+03 0.  0.
<mgrwt>
<rscale>  0 0.71925907E+03</rscale>
<asrwt>0</asrwt>
<pdfrwt beam="1">  1        1 0.33204230E+00 0.71925907E+03</pdfrwt>
<pdfrwt beam="2">  1       -1 0.65384256E-01 0.71925907E+03</pdfrwt>
<totfact> 0.58325335E+00</totfact>
</mgrwt>
</event>
<event>
 4    1  0.1678003E-008  0.7074297E+03  0.7818608E-02  0.9704610E-01
         -1   -1    0    0    0  501 -0.00000000000E+00  0.00000000000E+00  0.93568626561E+03  0.93568626563E+03  0.50400000000E-02 0.  1.
          1   -1    0    0  501    0  0.00000000000E+00 -0.00000000000E+00 -0.94222680983E+03  0.94222680984E+03  0.50400000000E-02 0. -1.
    8880022    1    1    2    0    0  0.19502247972E+03  0.66259438781E+03  0.61412471131E+03  0.93680622565E+03  0.15294330000E+03 0.  0.
    8880022    1    1    2    0    0 -0.19502247972E+03 -0.66259438781E+03 -0.62066525552E+03  0.94110684982E+03  0.15294330000E+03 0.  0.
<mgrwt>
<rscale>  0 0.70742967E+03</rscale>
<asrwt>0</asrwt>
<pdfrwt beam="1">  1        1 0.14495797E+00 0.70742967E+03</pdfrwt>
<pdfrwt beam="2">  1       -1 0.14395173E+00 0.70742967E+03</pdfrwt>
<totfact> 0.68177196E+00</totfact>
</mgrwt>
</event>
<event>
 4    1  0.1678003E-008  0.3273235E+03  0.7818608E-02  0.1072327E+00
         -1   -1    0    0    0  501 -0.00000000000E+00  0.00000000000E+00  0.31888233918E+03  0.31888233922E+03  0.50400000000E-02 0.  1.
          1   -1    0    0  501    0  0.00000000000E+00 -0.00000000000E+00 -0.22233095745E+04  0.22233095745E+04  0.50400000000E-02 0. -1.
    8880022    1    1    2    0    0 -0.20050364038E+03 -0.20867993680E+03  0.21890613536E+03  0.39377731644E+03  0.15294330000E+03 0.  0.
    8880022    1    1    2    0    0  0.20050364038E+03  0.20867993680E+03 -0.21233333707E+04  0.21484145973E+04  0.15294330000E+03 0.  0.
<mgrwt>
<rscale>  0 0.32732351E+03</rscale>
<asrwt>0</asrwt>
<pdfrwt beam="1">  1        1 0.34204762E+00 0.32732351E+03</pdfrwt>
<pdfrwt beam="2">  1       -1 0.49058823E-01 0.32732351E+03</pdfrwt>
<totfact> 0.10179005E+01</totfact>
</mgrwt>
</event>
<event>
 4    1  0.1678003E-008  0.1824850E+03  0.7818608E-02  0.1165419E+00
         -1   -1    0    0    0  501 -0.00000000000E+00  0.00000000000E+00  0.23200328386E+03  0.23200328391E+03  0.50400000000E-02 0.  1.
          1   -1    0    0  501    0  0.00000000000E+00 -0.00000000000E+00 -0.28331190977E+03  0.28331190981E+03  0.50400000000E-02 0. -1.
    8880022    1    1    2    0    0  0.78287038095E+02  0.61483915630E+02 -0.20663280083E+03  0.27567716556E+03  0.15294330000E+03 0. -1.
    8880022    1    1    2    0    0 -0.78287038095E+02 -0.61483915630E+02  0.15532417492E+03  0.23963802817E+03  0.15294330000E+03 0.  0.
<mgrwt>
<rscale>  0 0.18248503E+03</rscale>
<asrwt>0</asrwt>
<pdfrwt beam="1">  1        1 0.43586448E-01 0.18248503E+03</pdfrwt>
<pdfrwt beam="2">  1       -1 0.35692813E-01 0.18248503E+03</pdfrwt>
<totfact> 0.71348720E+02</totfact>
</mgrwt>
</event>
<event>
 4    1  0.1678003E-008  0.8672841E+03  0.7818608E-02  0.9467428E-01
          1   -1    0    0  501    0  0.00000000000E+00  0.00000000000E+00  0.63407055642E+03  0.63407055644E+03  0.50400000000E-02 0. -1.
         -1   -1    0    0    0  501 -0.00000000000E+00 -0.00000000000E+00 -0.21034358927E+04  0.21034358927E+04  0.50400000000E-02 0.  1.
    8880022    1    1    2    0    0  0.83927620285E+03  0.15622252998E+03 -0.16385057298E+04  0.18538831418E+04  0.15294330000E+03 0.  0.
    8880022    1    1    2    0    0 -0.83927620285E+03 -0.15622252998E+03  0.16914039360E+03  0.88362330736E+03  0.15294330000E+03 0.  0.
<mgrwt>
<rscale>  0 0.86728408E+03</rscale>
<asrwt>0</asrwt>
<pdfrwt beam="1">  1        1 0.97549318E-01 0.86728408E+03</pdfrwt>
<pdfrwt beam="2">  1       -1 0.32360552E+00 0.86728408E+03</pdfrwt>
<totfact> 0.76062161E-01</totfact>
</mgrwt>
</event>
<event>
 4    1  0.1678003E-008  0.1971817E+03  0.7818608E-02  0.1152139E+00
         -1   -1    0    0    0  501 -0.00000000000E+00  0.00000000000E+00  0.90409546646E+02  0.90409546786E+02  0.50400000000E-02 0.  1.
          1   -1    0    0  501    0  0.00000000000E+00 -0.00000000000E+00 -0.92597730636E+03  0.92597730637E+03  0.50400000000E-02 0. -1.
    8880022    1    1    2    0    0  0.93942785433E+02  0.81631720671E+02 -0.78969385199E+03  0.81393919775E+03  0.15294330000E+03 0. -1.
    8880022    1    1    2    0    0 -0.93942785433E+02 -0.81631720671E+02 -0.45873907724E+02  0.20244765541E+03  0.15294330000E+03 0.  0.
<mgrwt>
<rscale>  0 0.19718174E+03</rscale>
<asrwt>0</asrwt>
<pdfrwt beam="1">  1        1 0.14245804E+00 0.19718174E+03</pdfrwt>
<pdfrwt beam="2">  1       -1 0.13909162E-01 0.19718174E+03</pdfrwt>
<totfact> 0.66627275E+02</totfact>
</mgrwt>
</event>
<event>
 4    1  0.1678003E-008  0.1120876E+04  0.7818608E-02  0.9185080E-01
         -1   -1    0    0    0  501 -0.00000000000E+00  0.00000000000E+00  0.50164883236E+03  0.50164883239E+03  0.50400000000E-02 0.  1.
          1   -1    0    0  501    0  0.00000000000E+00 -0.00000000000E+00 -0.27993945713E+04  0.27993945713E+04  0.50400000000E-02 0. -1.
    8880022    1    1    2    0    0 -0.37689140540E+03 -0.10444731157E+04 -0.61314162633E+03  0.12776171288E+04  0.15294330000E+03 0.  0.
    8880022    1    1    2    0    0  0.37689140540E+03  0.10444731157E+04 -0.16846041126E+04  0.20234262749E+04  0.15294330000E+03 0.  0.
<mgrwt>
<rscale>  0 0.11208759E+04</rscale>
<asrwt>0</asrwt>
<pdfrwt beam="1">  1        1 0.43067608E+00 0.11208759E+04</pdfrwt>
<pdfrwt beam="2">  1       -1 0.77176745E-01 0.11208759E+04</pdfrwt>
<totfact> 0.14130802E+00</totfact>
</mgrwt>
</event>
<event>
 4    1  0.1678003E-008  0.2449122E+03  0.7818608E-02  0.1116563E+00
          1   -1    0    0  501    0  0.00000000000E+00  0.00000000000E+00  0.43940130875E+03  0.43940130878E+03  0.50400000000E-02 0. -1.
         -1   -1    0    0    0  501 -0.00000000000E+00 -0.00000000000E+00 -0.21593243824E+03  0.21593243830E+03  0.50400000000E-02 0.  1.
    8880022    1    1    2    0    0  0.52975531137E+02 -0.18380406709E+03  0.31045802216E+03  0.39543163570E+03  0.15294330000E+03 0.  0.
    8880022    1    1    2    0    0 -0.52975531137E+02  0.18380406709E+03 -0.86989151641E+02  0.25990211137E+03  0.15294330000E+03 0.  0.
<mgrwt>
<rscale>  0 0.24491222E+03</rscale>
<asrwt>0</asrwt>
<pdfrwt beam="1">  1        1 0.67600200E-01 0.24491222E+03</pdfrwt>
<pdfrwt beam="2">  1       -1 0.33220376E-01 0.24491222E+03</pdfrwt>
<totfact> 0.46246175E+02</totfact>
</mgrwt>
</event>
<event>
 4    1  0.1678003E-008  0.2193229E+03  0.7818608E-02  0.1134389E+00
          1   -1    0    0  501    0  0.00000000000E+00  0.00000000000E+00  0.68549555275E+03  0.68549555277E+03  0.50400000000E-02 0. -1.
         -1   -1    0    0    0  501 -0.00000000000E+00 -0.00000000000E+00 -0.37108624699E+03  0.37108624702E+03  0.50400000000E-02 0.  1.
    8880022    1    1    2    0    0 -0.12106416185E+03  0.10027127716E+03 -0.31852164564E+03  0.38672800786E+03  0.15294330000E+03 0.  0.
    8880022    1    1    2    0    0  0.12106416185E+03 -0.10027127716E+03  0.63293095140E+03  0.66985379193E+03  0.15294330000E+03 0. -1.
<mgrwt>
<rscale>  0 0.21932285E+03</rscale>
<asrwt>0</asrwt>
<pdfrwt beam="1">  1        1 0.10546085E+00 0.21932285E+03</pdfrwt>
<pdfrwt beam="2">  1       -1 0.57090192E-01 0.21932285E+03</pdfrwt>
<totfact> 0.95329078E+01</totfact>
</mgrwt>
</event>
<event>
 4    1  0.1678003E-008  0.3527400E+03  0.7818608E-02  0.1061496E+00
         -1   -1    0    0    0  501 -0.00000000000E+00  0.00000000000E+00  0.43048429201E+03  0.43048429204E+03  0.50400000000E-02 0.  1.
          1   -1    0    0  501    0  0.00000000000E+00 -0.00000000000E+00 -0.14828002938E+04  0.14828002938E+04  0.50400000000E-02 0. -1.
    8880022    1    1    2    0    0  0.44094425231E+02 -0.31478492892E+03  0.33219812355E+03  0.48454217166E+03  0.15294330000E+03 0.  0.
    8880022    1    1    2    0    0 -0.44094425231E+02  0.31478492892E+03 -0.13845141253E+04  0.14287424142E+04  0.15294330000E+03 0.  0.
<mgrwt>
<rscale>  0 0.35274002E+03</rscale>
<asrwt>0</asrwt>
<pdfrwt beam="1">  1        1 0.22812312E+00 0.35274002E+03</pdfrwt>
<pdfrwt beam="2">  1       -1 0.66228353E-01 0.35274002E+03</pdfrwt>
<totfact> 0.17412081E+01</totfact>
</mgrwt>
</event>
<event>
 4    1  0.1678003E-008  0.5095472E+03  0.7818608E-02  0.1011317E+00
         -1   -1    0    0    0  501 -0.00000000000E+00  0.00000000000E+00  0.50816195482E+03  0.50816195484E+03  0.50400000000E-02 0.  1.
          1   -1    0    0  501    0  0.00000000000E+00 -0.00000000000E+00 -0.10324331740E+04  0.10324331740E+04  0.50400000000E-02 0. -1.
    8880022    1    1    2    0    0 -0.17458870006E+03  0.45361384068E+03 -0.80959688946E+03  0.95660101771E+03  0.15294330000E+03 0.  0.
    8880022    1    1    2    0    0  0.17458870006E+03 -0.45361384068E+03  0.28532567032E+03  0.58399411111E+03  0.15294330000E+03 0.  0.
<mgrwt>
<rscale>  0 0.50954723E+03</rscale>
<asrwt>0</asrwt>
<pdfrwt beam="1">  1        1 0.15883587E+00 0.50954723E+03</pdfrwt>
<pdfrwt beam="2">  1       -1 0.78178763E-01 0.50954723E+03</pdfrwt>
<totfact> 0.24890824E+01</totfact>
</mgrwt>
</event>
<event>
 4    1  0.1678003E-008  0.5136729E+03  0.7818608E-02  0.1010270E+00
         -1   -1    0    0    0  501 -0.00000000000E+00  0.00000000000E+00  0.58827636106E+03  0.58827636108E+03  0.50400000000E-02 0.  1.
          1   -1    0    0  501    0  0.00000000000E+00 -0.00000000000E+00 -0.85145259379E+03  0.85145259380E+03  0.50400000000E-02 0. -1.
    8880022    1    1    2    0    0 -0.40330911725E+03  0.27894429402E+03 -0.62678866353E+03  0.81038499799E+03  0.15294330000E+03 0.  0.
    8880022    1    1    2    0    0  0.40330911725E+03 -0.27894429402E+03  0.36361243080E+03  0.62934395689E+03  0.15294330000E+03 0.  0.
<mgrwt>
<rscale>  0 0.51367287E+03</rscale>
<asrwt>0</asrwt>
<pdfrwt beam="1">  1        1 0.13099271E+00 0.51367287E+03</pdfrwt>
<pdfrwt beam="2">  1       -1 0.90504056E-01 0.51367287E+03</pdfrwt>
<totfact> 0.25263551E+01</totfact>
</mgrwt>
</event>
<event>
 4    1  0.1678003E-008  0.4383788E+03  0.7818608E-02  0.1031245E+00
          1   -1    0    0  501    0  0.00000000000E+00  0.00000000000E+00  0.16467885734E+03  0.16467885742E+03  0.50400000000E-02 0. -1.
         -1   -1    0    0    0  501 -0.00000000000E+00 -0.00000000000E+00 -0.13124252499E+04  0.13124252500E+04  0.50400000000E-02 0.  1.
    8880022    1    1    2    0    0 -0.18880724016E+03  0.36487825628E+03 -0.81974138022E+03  0.92959770832E+03  0.15294330000E+03 0.  0.
    8880022    1    1    2    0    0  0.18880724016E+03 -0.36487825628E+03 -0.32800501238E+03  0.54750639905E+03  0.15294330000E+03 0.  0.
<mgrwt>
<rscale>  0 0.43837880E+03</rscale>
<asrwt>0</asrwt>
<pdfrwt beam="1">  1        1 0.25335210E-01 0.43837880E+03</pdfrwt>
<pdfrwt beam="2">  1       -1 0.20191157E+00 0.43837880E+03</pdfrwt>
<totfact> 0.29756834E+01</totfact>
</mgrwt>
</event>
<event>
 4    1  0.1678003E-008  0.5146085E+03  0.7818608E-02  0.1010035E+00
         -1   -1    0    0    0  501 -0.00000000000E+00  0.00000000000E+00  0.18205989105E+03  0.18205989112E+03  0.50400000000E-02 0.  1.
          1   -1    0    0  501    0  0.00000000000E+00 -0.00000000000E+00 -0.18822746776E+04  0.18822746776E+04  0.50400000000E-02 0. -1.
    8880022    1    1    2    0    0 -0.37580199126E+03 -0.31654874474E+03 -0.35809945793E+03  0.62694267618E+03  0.15294330000E+03 0.  0.
    8880022    1    1    2    0    0  0.37580199126E+03  0.31654874474E+03 -0.13421153286E+04  0.14373918925E+04  0.15294330000E+03 0.  0.
<mgrwt>
<rscale>  0 0.51460849E+03</rscale>
<asrwt>0</asrwt>
<pdfrwt beam="1">  1        1 0.28958071E+00 0.51460849E+03</pdfrwt>
<pdfrwt beam="2">  1       -1 0.28009215E-01 0.51460849E+03</pdfrwt>
<totfact> 0.44055793E+01</totfact>
</mgrwt>
</event>
<event>
 4    1  0.1678003E-008  0.6063838E+03  0.7818608E-02  0.9892249E-01
         -1   -1    0    0    0  501 -0.00000000000E+00  0.00000000000E+00  0.14958522176E+03  0.14958522185E+03  0.50400000000E-02 0.  1.
          1   -1    0    0  501    0  0.00000000000E+00 -0.00000000000E+00 -0.29836247121E+04  0.29836247121E+04  0.50400000000E-02 0. -1.
    8880022    1    1    2    0    0 -0.36872315184E+03  0.45645691747E+03 -0.20744772331E+04  0.21612859885E+04  0.15294330000E+03 0.  0.
    8880022    1    1    2    0    0  0.36872315184E+03 -0.45645691747E+03 -0.75956225725E+03  0.97192394551E+03  0.15294330000E+03 0.  0.
<mgrwt>
<rscale>  0 0.60638382E+03</rscale>
<asrwt>0</asrwt>
<pdfrwt beam="1">  1        1 0.45901914E+00 0.60638382E+03</pdfrwt>
<pdfrwt beam="2">  1       -1 0.23013113E-01 0.60638382E+03</pdfrwt>
<totfact> 0.10805260E+01</totfact>
</mgrwt>
</event>
<event>
 4    1  0.1678003E-008  0.2032294E+03  0.7818608E-02  0.1147043E+00
         -1   -1    0    0    0  501 -0.00000000000E+00  0.00000000000E+00  0.23950447732E+02  0.23950448262E+02  0.50400000000E-02 0.  1.
          1   -1    0    0  501    0  0.00000000000E+00 -0.00000000000E+00 -0.24163811094E+04  0.24163811094E+04  0.50400000000E-02 0. -1.
    8880022    1    1    2    0    0  0.10057058478E+03  0.88295391094E+02 -0.54330011819E+03  0.58006653933E+03  0.15294330000E+03 0.  1.
    8880022    1    1    2    0    0 -0.10057058478E+03 -0.88295391094E+02 -0.18491305435E+04  0.18602650183E+04  0.15294330000E+03 0.  0.
<mgrwt>
<rscale>  0 0.20322936E+03</rscale>
<asrwt>0</asrwt>
<pdfrwt beam="1">  1        1 0.37175075E+00 0.20322936E+03</pdfrwt>
<pdfrwt beam="2">  1       -1 0.36846862E-02 0.20322936E+03</pdfrwt>
<totfact> 0.50690151E+02</totfact>
</mgrwt>
</event>
<event>
 4    1  0.1678003E-008  0.4403314E+03  0.7818608E-02  0.1030645E+00
          1   -1    0    0  501    0  0.00000000000E+00  0.00000000000E+00  0.14866185595E+04  0.14866185595E+04  0.50400000000E-02 0. -1.
         -1   -1    0    0    0  501 -0.00000000000E+00 -0.00000000000E+00 -0.36549501456E+03  0.36549501459E+03  0.50400000000E-02 0.  1.
    8880022    1    1    2    0    0  0.53103053460E+02  0.40948767305E+03 -0.18210810285E+03  0.47650299349E+03  0.15294330000E+03 0.  0.
    8880022    1    1    2    0    0 -0.53103053460E+02 -0.40948767305E+03  0.13032316478E+04  0.13756105806E+04  0.15294330000E+03 0.  0.
<mgrwt>
<rscale>  0 0.44033140E+03</rscale>
<asrwt>0</asrwt>
<pdfrwt beam="1">  1        1 0.22871055E+00 0.44033140E+03</pdfrwt>
<pdfrwt beam="2">  1       -1 0.56230001E-01 0.44033140E+03</pdfrwt>
<totfact> 0.23295165E+01</totfact>
</mgrwt>
</event>
<event>
 4    1  0.1678003E-008  0.3512144E+03  0.7818608E-02  0.1062118E+00
         -1   -1    0    0    0  501 -0.00000000000E+00  0.00000000000E+00  0.21694603647E+03  0.21694603653E+03  0.50400000000E-02 0.  1.
          1   -1    0    0  501    0  0.00000000000E+00 -0.00000000000E+00 -0.72608389665E+03  0.72608389667E+03  0.50400000000E-02 0. -1.
    8880022    1    1    2    0    0  0.29312309050E+02  0.31480259410E+03 -0.34962302988E+02  0.35295028029E+03  0.15294330000E+03 0.  1.
    8880022    1    1    2    0    0 -0.29312309050E+02 -0.31480259410E+03 -0.47417555719E+03  0.59007965290E+03  0.15294330000E+03 0. -1.
<mgrwt>
<rscale>  0 0.35121438E+03</rscale>
<asrwt>0</asrwt>
<pdfrwt beam="1">  1        1 0.11170521E+00 0.35121438E+03</pdfrwt>
<pdfrwt beam="2">  1       -1 0.33376314E-01 0.35121438E+03</pdfrwt>
<totfact> 0.22689913E+02</totfact>
</mgrwt>
</event>
<event>
 4    1  0.1678003E-008  0.2256822E+03  0.7818608E-02  0.1129716E+00
         -1   -1    0    0    0  501 -0.00000000000E+00  0.00000000000E+00  0.84862678859E+02  0.84862679009E+02  0.50400000000E-02 0.  1.
          1   -1    0    0  501    0  0.00000000000E+00 -0.00000000000E+00 -0.14237046987E+04  0.14237046987E+04  0.50400000000E-02 0. -1.
    8880022    1    1    2    0    0  0.15352217185E+03  0.63021918759E+02 -0.95748094865E+02  0.24515336053E+03  0.15294330000E+03 0.  0.
    8880022    1    1    2    0    0 -0.15352217185E+03 -0.63021918759E+02 -0.12430939250E+04  0.12634140172E+04  0.15294330000E+03 0.  0.
<mgrwt>
<rscale>  0 0.22568224E+03</rscale>
<asrwt>0</asrwt>
<pdfrwt beam="1">  1        1 0.21903147E+00 0.22568224E+03</pdfrwt>
<pdfrwt beam="2">  1       -1 0.13055798E-01 0.22568224E+03</pdfrwt>
<totfact> 0.32656190E+02</totfact>
</mgrwt>
</event>
<event>
 4    1  0.1678003E-008  0.8576306E+03  0.7818608E-02  0.9480152E-01
         -1   -1    0    0    0  501 -0.00000000000E+00  0.00000000000E+00  0.39430305212E+03  0.39430305215E+03  0.50400000000E-02 0.  1.
          1   -1    0    0  501    0  0.00000000000E+00 -0.00000000000E+00 -0.25505200720E+04  0.25505200720E+04  0.50400000000E-02 0. -1.
    8880022    1    1    2    0    0 -0.77611435745E+03  0.33133846324E+03 -0.18412415759E+04  0.20311821353E+04  0.15294330000E+03 0.  0.
    8880022    1    1    2    0    0  0.77611435745E+03 -0.33133846324E+03 -0.31497544393E+03  0.91364098877E+03  0.15294330000E+03 0.  0.
<mgrwt>
<rscale>  0 0.85763065E+03</rscale>
<asrwt>0</asrwt>
<pdfrwt beam="1">  1        1 0.39238769E+00 0.85763065E+03</pdfrwt>
<pdfrwt beam="2">  1       -1 0.60662010E-01 0.85763065E+03</pdfrwt>
<totfact> 0.35868516E+00</totfact>
</mgrwt>
</event>
<event>
 4    1  0.1678003E-008  0.5811674E+03  0.7818608E-02  0.9945267E-01
         -1   -1    0    0    0  501 -0.00000000000E+00  0.00000000000E+00  0.47975566440E+03  0.47975566442E+03  0.50400000000E-02 0.  1.
          1   -1    0    0  501    0  0.00000000000E+00 -0.00000000000E+00 -0.17953440460E+04  0.17953440460E+04  0.50400000000E-02 0. -1.
    8880022    1    1    2    0    0 -0.16478648707E+03 -0.53591911122E+03  0.22910510277E+03  0.62469567088E+03  0.15294330000E+03 0.  0.
    8880022    1    1    2    0    0  0.16478648707E+03  0.53591911122E+03 -0.15446934844E+04  0.16504040396E+04  0.15294330000E+03 0.  0.
<mgrwt>
<rscale>  0 0.58116739E+03</rscale>
<asrwt>0</asrwt>
<pdfrwt beam="1">  1        1 0.27620677E+00 0.58116739E+03</pdfrwt>
<pdfrwt beam="2">  1       -1 0.73808565E-01 0.58116739E+03</pdfrwt>
<totfact> 0.81696658E+00</totfact>
</mgrwt>
</event>
<event>
 4    1  0.1678003E-008  0.8190262E+03  0.7818608E-02  0.9532879E-01
          1   -1    0    0  501    0  0.00000000000E+00  0.00000000000E+00  0.87488350840E+03  0.87488350841E+03  0.50400000000E-02 0. -1.
         -1   -1    0    0    0  501 -0.00000000000E+00 -0.00000000000E+00 -0.16380521178E+04  0.16380521178E+04  0.50400000000E-02 0.  1.
    8880022    1    1    2    0    0  0.39298179498E+03 -0.70212364442E+03  0.53479567079E+03  0.97816683942E+03  0.15294330000E+03 0.  0.
    8880022    1    1    2    0    0 -0.39298179498E+03  0.70212364442E+03 -0.12979642802E+04  0.15347687868E+04  0.15294330000E+03 0.  0.
<mgrwt>
<rscale>  0 0.81902622E+03</rscale>
<asrwt>0</asrwt>
<pdfrwt beam="1">  1        1 0.13459746E+00 0.81902622E+03</pdfrwt>
<pdfrwt beam="2">  1       -1 0.25200802E+00 0.81902622E+03</pdfrwt>
<totfact> 0.13385298E+00</totfact>
</mgrwt>
</event>
<event>
 4    1  0.1678003E-008  0.1120565E+04  0.7818608E-02  0.9185377E-01
         -1   -1    0    0    0  501 -0.00000000000E+00  0.00000000000E+00  0.11221550166E+04  0.11221550166E+04  0.50400000000E-02 0.  1.
          1   -1    0    0  501    0  0.00000000000E+00 -0.00000000000E+00 -0.12639422291E+04  0.12639422291E+04  0.50400000000E-02 0. -1.
    8880022    1    1    2    0    0 -0.22530475026E+03  0.10869734422E+04  0.33314896936E+03  0.11690395131E+04  0.15294330000E+03 0.  0.
    8880022    1    1    2    0    0  0.22530475026E+03 -0.10869734422E+04 -0.47493618185E+03  0.12170577325E+04  0.15294330000E+03 0.  0.
<mgrwt>
<rscale>  0 0.11205647E+04</rscale>
<asrwt>0</asrwt>
<pdfrwt beam="1">  1        1 0.19445265E+00 0.11205647E+04</pdfrwt>
<pdfrwt beam="2">  1       -1 0.17263923E+00 0.11205647E+04</pdfrwt>
<totfact> 0.22353308E+00</totfact>
</mgrwt>
</event>
<event>
 4    1  0.1678003E-008  0.1826102E+03  0.7818608E-02  0.1165301E+00
         -1   -1    0    0    0  501 -0.00000000000E+00  0.00000000000E+00  0.63144859938E+03  0.63144859940E+03  0.50400000000E-02 0.  1.
          1   -1    0    0  501    0  0.00000000000E+00 -0.00000000000E+00 -0.94760650899E+03  0.94760650900E+03  0.50400000000E-02 0. -1.
    8880022    1    1    2    0    0  0.57619118708E+02  0.81454717655E+02 -0.92529121582E+03  0.94313854813E+03  0.15294330000E+03 0. -1.
    8880022    1    1    2    0    0 -0.57619118708E+02 -0.81454717655E+02  0.60913330621E+03  0.63591656027E+03  0.15294330000E+03 0.  0.
<mgrwt>
<rscale>  0 0.18261020E+03</rscale>
<asrwt>0</asrwt>
<pdfrwt beam="1">  1        1 0.14578562E+00 0.18261020E+03</pdfrwt>
<pdfrwt beam="2">  1       -1 0.97145939E-01 0.18261020E+03</pdfrwt>
<totfact> 0.19946974E+01</totfact>
</mgrwt>
</event>
<event>
 4    1  0.1678003E-008  0.1045799E+04  0.7818608E-02  0.9259693E-01
          1   -1    0    0  501    0  0.00000000000E+00  0.00000000000E+00  0.14819683037E+04  0.14819683038E+04  0.50400000000E-02 0. -1.
         -1   -1    0    0    0  501 -0.00000000000E+00 -0.00000000000E+00 -0.13225190473E+04  0.13225190473E+04  0.50400000000E-02 0.  1.
    8880022    1    1    2    0    0 -0.10323517557E+04 -0.67474777295E+02  0.10119509154E+04  0.14552454437E+04  0.15294330000E+03 0.  0.
    8880022    1    1    2    0    0  0.10323517557E+04  0.67474777295E+02 -0.85250165902E+03  0.13492419074E+04  0.15294330000E+03 0.  0.
<mgrwt>
<rscale>  0 0.10457986E+04</rscale>
<asrwt>0</asrwt>
<pdfrwt beam="1">  1        1 0.22799512E+00 0.10457986E+04</pdfrwt>
<pdfrwt beam="2">  1       -1 0.20346447E+00 0.10457986E+04</pdfrwt>
<totfact> 0.95957054E-01</totfact>
</mgrwt>
</event>
<event>
 4    1  0.1678003E-008  0.1019274E+04  0.7818608E-02  0.9287655E-01
         -1   -1    0    0    0  501 -0.00000000000E+00  0.00000000000E+00  0.33026550437E+04  0.33026550437E+04  0.50400000000E-02 0.  1.
          1   -1    0    0  501    0  0.00000000000E+00 -0.00000000000E+00 -0.68882755873E+03  0.68882755875E+03  0.50400000000E-02 0. -1.
    8880022    1    1    2    0    0  0.31199551271E+03  0.95822008108E+03 -0.16415802299E+03  0.10324080750E+04  0.15294330000E+03 0.  0.
    8880022    1    1    2    0    0 -0.31199551271E+03 -0.95822008108E+03  0.27779855079E+04  0.29590745274E+04  0.15294330000E+03 0.  0.
<mgrwt>
<rscale>  0 0.10192736E+04</rscale>
<asrwt>0</asrwt>
<pdfrwt beam="1">  1        1 0.10597347E+00 0.10192736E+04</pdfrwt>
<pdfrwt beam="2">  1       -1 0.50810077E+00 0.10192736E+04</pdfrwt>
<totfact> 0.37405551E-02</totfact>
</mgrwt>
</event>
<event>
 4    1  0.1678003E-008  0.4479018E+03  0.7818608E-02  0.1028350E+00
         -1   -1    0    0    0  501 -0.00000000000E+00  0.00000000000E+00  0.44595304315E+03  0.44595304317E+03  0.50400000000E-02 0.  1.
          1   -1    0    0  501    0  0.00000000000E+00 -0.00000000000E+00 -0.59395264511E+03  0.59395264513E+03  0.50400000000E-02 0. -1.
    8880022    1    1    2    0    0 -0.17058604304E+03  0.38486986641E+03  0.18210057015E+03  0.48350458407E+03  0.15294330000E+03 0.  0.
    8880022    1    1    2    0    0  0.17058604304E+03 -0.38486986641E+03 -0.33010017211E+03  0.55640110423E+03  0.15294330000E+03 0.  0.
<mgrwt>
<rscale>  0 0.44790185E+03</rscale>
<asrwt>0</asrwt>
<pdfrwt beam="1">  1        1 0.91377330E-01 0.44790185E+03</pdfrwt>
<pdfrwt beam="2">  1       -1 0.68608161E-01 0.44790185E+03</pdfrwt>
<totfact> 0.78460732E+01</totfact>
</mgrwt>
</event>
<event>
 4    1  0.1678003E-008  0.5289006E+03  0.7818608E-02  0.1006499E+00
         -1   -1    0    0    0  501 -0.00000000000E+00  0.00000000000E+00  0.26367940070E+03  0.26367940075E+03  0.50400000000E-02 0.  1.
          1   -1    0    0  501    0  0.00000000000E+00 -0.00000000000E+00 -0.15582145051E+04  0.15582145051E+04  0.50400000000E-02 0. -1.
    8880022    1    1    2    0    0 -0.26380199867E+03 -0.43214888047E+03 -0.11619007534E+04  0.12766162945E+04  0.15294330000E+03 0.  0.
    8880022    1    1    2    0    0  0.26380199867E+03  0.43214888047E+03 -0.13263435091E+03  0.54527761136E+03  0.15294330000E+03 0.  0.
<mgrwt>
<rscale>  0 0.52890056E+03</rscale>
<asrwt>0</asrwt>
<pdfrwt beam="1">  1        1 0.23972530E+00 0.52890056E+03</pdfrwt>
<pdfrwt beam="2">  1       -1 0.40566062E-01 0.52890056E+03</pdfrwt>
<totfact> 0.37641534E+01</totfact>
</mgrwt>
</event>
<event>
 4    1  0.1678003E-008  0.1490185E+04  0.7818608E-02  0.8891006E-01
          1   -1    0    0  501    0  0.00000000000E+00  0.00000000000E+00  0.15112936792E+04  0.15112936792E+04  0.50400000000E-02 0. -1.
         -1   -1    0    0    0  501 -0.00000000000E+00 -0.00000000000E+00 -0.15232320362E+04  0.15232320363E+04  0.50400000000E-02 0.  1.
    8880022    1    1    2    0    0  0.14822041675E+04 -0.18176452989E+02  0.27933938723E+03  0.15161404038E+04  0.15294330000E+03 0.  0.
    8880022    1    1    2    0    0 -0.14822041675E+04  0.18176452989E+02 -0.29127774423E+03  0.15183853117E+04  0.15294330000E+03 0.  0.
<mgrwt>
<rscale>  0 0.14901850E+04</rscale>
<asrwt>0</asrwt>
<pdfrwt beam="1">  1        1 0.23250672E+00 0.14901850E+04</pdfrwt>
<pdfrwt beam="2">  1       -1 0.23434339E+00 0.14901850E+04</pdfrwt>
<totfact> 0.53754532E-01</totfact>
</mgrwt>
</event>
<event>
 4    1  0.1678003E-008  0.4075898E+03  0.7818608E-02  0.1041183E+00
          1   -1    0    0  501    0  0.00000000000E+00  0.00000000000E+00  0.11423779109E+04  0.11423779109E+04  0.50400000000E-02 0. -1.
         -1   -1    0    0    0  501 -0.00000000000E+00 -0.00000000000E+00 -0.24845071977E+03  0.24845071982E+03  0.50400000000E-02 0.  1.
    8880022    1    1    2    0    0  0.37722068534E+03  0.21032104212E+02  0.89477784845E+03  0.98323793964E+03  0.15294330000E+03 0.  0.
    8880022    1    1    2    0    0 -0.37722068534E+03 -0.21032104212E+02 -0.85065728931E+00  0.40759069112E+03  0.15294330000E+03 0.  0.
<mgrwt>
<rscale>  0 0.40758980E+03</rscale>
<asrwt>0</asrwt>
<pdfrwt beam="1">  1        1 0.17575044E+00 0.40758980E+03</pdfrwt>
<pdfrwt beam="2">  1       -1 0.38223188E-01 0.40758980E+03</pdfrwt>
<totfact> 0.83017909E+01</totfact>
</mgrwt>
</event>
<event>
 4    1  0.1678003E-008  0.6399048E+03  0.7818608E-02  0.9825909E-01
         -1   -1    0    0    0  501 -0.00000000000E+00  0.00000000000E+00  0.95854476140E+03  0.95854476141E+03  0.50400000000E-02 0.  1.
          1   -1    0    0  501    0  0.00000000000E+00 -0.00000000000E+00 -0.51421014488E+03  0.51421014491E+03  0.50400000000E-02 0. -1.
    8880022    1    1    2    0    0  0.62134166107E+03  0.45822338778E+01  0.52510052879E+03  0.82777332344E+03  0.15294330000E+03 0.  0.
    8880022    1    1    2    0    0 -0.62134166107E+03 -0.45822338778E+01 -0.80765912278E+02  0.64498158288E+03  0.15294330000E+03 0.  0.
<mgrwt>
<rscale>  0 0.63990477E+03</rscale>
<asrwt>0</asrwt>
<pdfrwt beam="1">  1        1 0.79109254E-01 0.63990477E+03</pdfrwt>
<pdfrwt beam="2">  1       -1 0.14746842E+00 0.63990477E+03</pdfrwt>
<totfact> 0.16214954E+01</totfact>
</mgrwt>
</event>
<event>
 4    1  0.1678003E-008  0.1487413E+04  0.7818608E-02  0.8892866E-01
         -1   -1    0    0    0  501 -0.00000000000E+00  0.00000000000E+00  0.22587075654E+04  0.22587075654E+04  0.50400000000E-02 0.  1.
          1   -1    0    0  501    0  0.00000000000E+00 -0.00000000000E+00 -0.11077919903E+04  0.11077919903E+04  0.50400000000E-02 0. -1.
    8880022    1    1    2    0    0 -0.14772133988E+04  0.82744349776E+02  0.26301169171E+01  0.14874154173E+04  0.15294330000E+03 0.  0.
    8880022    1    1    2    0    0  0.14772133988E+04 -0.82744349776E+02  0.11482854582E+04  0.18790841385E+04  0.15294330000E+03 0.  0.
<mgrwt>
<rscale>  0 0.14874131E+04</rscale>
<asrwt>0</asrwt>
<pdfrwt beam="1">  1        1 0.17042954E+00 0.14874131E+04</pdfrwt>
<pdfrwt beam="2">  1       -1 0.34749347E+00 0.14874131E+04</pdfrwt>
<totfact> 0.19226242E-01</totfact>
</mgrwt>
</event>
<event>
 4    1  0.1678003E-008  0.6778262E+03  0.7818608E-02  0.9755922E-01
         -1   -1    0    0    0  501 -0.00000000000E+00  0.00000000000E+00  0.29757114726E+03  0.29757114730E+03  0.50400000000E-02 0.  1.
          1   -1    0    0  501    0  0.00000000000E+00 -0.00000000000E+00 -0.31819804375E+04  0.31819804375E+04  0.50400000000E-02 0. -1.
    8880022    1    1    2    0    0 -0.44960545153E+03 -0.48364406989E+03 -0.26904489030E+04  0.27745204272E+04  0.15294330000E+03 0.  0.
    8880022    1    1    2    0    0  0.44960545153E+03  0.48364406989E+03 -0.19396038730E+03  0.70503115764E+03  0.15294330000E+03 0.  0.
<mgrwt>
<rscale>  0 0.67782616E+03</rscale>
<asrwt>0</asrwt>
<pdfrwt beam="1">  1        1 0.48953543E+00 0.67782616E+03</pdfrwt>
<pdfrwt beam="2">  1       -1 0.45780179E-01 0.67782616E+03</pdfrwt>
<totfact> 0.22769386E+00</totfact>
</mgrwt>
</event>
<event>
 4    1  0.1678003E-008  0.4744471E+03  0.7818608E-02  0.1020673E+00
         -1   -1    0    0    0  501 -0.00000000000E+00  0.00000000000E+00  0.31295013790E+04  0.31295013790E+04  0.50400000000E-02 0.  1.
          1   -1    0    0  501    0  0.00000000000E+00 -0.00000000000E+00 -0.12996591907E+03  0.12996591917E+03  0.50400000000E-02 0. -1.
    8880022    1    1    2    0    0  0.44767716693E+03  0.35965893174E+02  0.25888389726E+04  0.26319550282E+04  0.15294330000E+03 0.  1.
    8880022    1    1    2    0    0 -0.44767716693E+03 -0.35965893174E+02  0.41069648729E+03  0.62751226996E+03  0.15294330000E+03 0.  0.
<mgrwt>
<rscale>  0 0.47444709E+03</rscale>
<asrwt>0</asrwt>
<pdfrwt beam="1">  1        1 0.19994757E-01 0.47444709E+03</pdfrwt>
<pdfrwt beam="2">  1       -1 0.48146174E+00 0.47444709E+03</pdfrwt>
<totfact> 0.58358055E-01</totfact>
</mgrwt>
</event>
<event>
 4    1  0.1678003E-008  0.6599067E+03  0.7818608E-02  0.9788366E-01
         -1   -1    0    0    0  501 -0.00000000000E+00  0.00000000000E+00  0.45862310825E+03  0.45862310828E+03  0.50400000000E-02 0.  1.
          1   -1    0    0  501    0  0.00000000000E+00 -0.00000000000E+00 -0.16014286630E+04  0.16014286630E+04  0.50400000000E-02 0. -1.
    8880022    1    1    2    0    0 -0.26281942023E+03  0.58567149667E+03 -0.12285824067E+04  0.13945936801E+04  0.15294330000E+03 0.  0.
    8880022    1    1    2    0    0  0.26281942023E+03 -0.58567149667E+03  0.85776851989E+02  0.66545809110E+03  0.15294330000E+03 0.  0.
<mgrwt>
<rscale>  0 0.65990666E+03</rscale>
<asrwt>0</asrwt>
<pdfrwt beam="1">  1        1 0.24637364E+00 0.65990666E+03</pdfrwt>
<pdfrwt beam="2">  1       -1 0.70557402E-01 0.65990666E+03</pdfrwt>
<totfact> 0.11909666E+01</totfact>
</mgrwt>
</event>
<event>
 4    1  0.1678003E-008  0.6429973E+03  0.7818608E-02  0.9820009E-01
         -1   -1    0    0    0  501 -0.00000000000E+00  0.00000000000E+00  0.12420367768E+04  0.12420367768E+04  0.50400000000E-02 0.  1.
          1   -1    0    0  501    0  0.00000000000E+00 -0.00000000000E+00 -0.10360156562E+04  0.10360156562E+04  0.50400000000E-02 0. -1.
    8880022    1    1    2    0    0  0.23130565467E+03 -0.58013063309E+03 -0.83535279557E+03  0.10541630820E+04  0.15294330000E+03 0.  0.
    8880022    1    1    2    0    0 -0.23130565467E+03  0.58013063309E+03  0.10413739162E+04  0.12238893511E+04  0.15294330000E+03 0.  0.
<mgrwt>
<rscale>  0 0.64299729E+03</rscale>
<asrwt>0</asrwt>
<pdfrwt beam="1">  1        1 0.15938702E+00 0.64299729E+03</pdfrwt>
<pdfrwt beam="2">  1       -1 0.19108258E+00 0.64299729E+03</pdfrwt>
<totfact> 0.26188668E+00</totfact>
</mgrwt>
</event>
<event>
 4    1  0.1678003E-008  0.5687236E+03  0.7818608E-02  0.9972507E-01
          1   -1    0    0  501    0  0.00000000000E+00  0.00000000000E+00  0.14835310141E+04  0.14835310141E+04  0.50400000000E-02 0. -1.
         -1   -1    0    0    0  501 -0.00000000000E+00 -0.00000000000E+00 -0.37389963869E+03  0.37389963873E+03  0.50400000000E-02 0.  1.
    8880022    1    1    2    0    0  0.76003708347E+02  0.54247423389E+03 -0.44827822089E+02  0.57048755005E+03  0.15294330000E+03 0.  0.
    8880022    1    1    2    0    0 -0.76003708347E+02 -0.54247423389E+03  0.11544591975E+04  0.12869431028E+04  0.15294330000E+03 0.  0.
<mgrwt>
<rscale>  0 0.56872358E+03</rscale>
<asrwt>0</asrwt>
<pdfrwt beam="1">  1        1 0.22823554E+00 0.56872358E+03</pdfrwt>
<pdfrwt beam="2">  1       -1 0.57523022E-01 0.56872358E+03</pdfrwt>
<totfact> 0.21841920E+01</totfact>
</mgrwt>
</event>
<event>
 4    1  0.1678003E-008  0.3405971E+03  0.7818608E-02  0.1066542E+00
         -1   -1    0    0    0  501 -0.00000000000E+00  0.00000000000E+00  0.27277755890E+03  0.27277755895E+03  0.50400000000E-02 0.  1.
          1   -1    0    0  501    0  0.00000000000E+00 -0.00000000000E+00 -0.89454469195E+03  0.89454469196E+03  0.50400000000E-02 0. -1.
    8880022    1    1    2    0    0  0.29443369345E+03 -0.76964492567E+02  0.11185265051E+03  0.35849323759E+03  0.15294330000E+03 0.  0.
    8880022    1    1    2    0    0 -0.29443369345E+03  0.76964492567E+02 -0.73361978355E+03  0.80882901332E+03  0.15294330000E+03 0.  0.
<mgrwt>
<rscale>  0 0.34059710E+03</rscale>
<asrwt>0</asrwt>
<pdfrwt beam="1">  1        1 0.13762226E+00 0.34059710E+03</pdfrwt>
<pdfrwt beam="2">  1       -1 0.41965779E-01 0.34059710E+03</pdfrwt>
<totfact> 0.10923822E+02</totfact>
</mgrwt>
</event>
<event>
 4    1  0.1678003E-008  0.9020215E+03  0.7818608E-02  0.9423058E-01
         -1   -1    0    0    0  501 -0.00000000000E+00  0.00000000000E+00  0.48495588113E+03  0.48495588116E+03  0.50400000000E-02 0.  1.
          1   -1    0    0  501    0  0.00000000000E+00 -0.00000000000E+00 -0.29644705921E+04  0.29644705921E+04  0.50400000000E-02 0. -1.
    8880022    1    1    2    0    0 -0.42021718043E+02 -0.88796699336E+03 -0.10348453153E+03  0.90793827288E+03  0.15294330000E+03 0.  0.
    8880022    1    1    2    0    0  0.42021718043E+02  0.88796699336E+03 -0.23760301795E+04  0.25414882004E+04  0.15294330000E+03 0.  0.
<mgrwt>
<rscale>  0 0.90202154E+03</rscale>
<asrwt>0</asrwt>
<pdfrwt beam="1">  1        1 0.45607239E+00 0.90202154E+03</pdfrwt>
<pdfrwt beam="2">  1       -1 0.74608599E-01 0.90202154E+03</pdfrwt>
<totfact> 0.11981879E+00</totfact>
</mgrwt>
</event>
<event>
 4    1  0.1678003E-008  0.7887444E+03  0.7818608E-02  0.9576453E-01
         -1   -1    0    0    0  501 -0.00000000000E+00  0.00000000000E+00  0.15972062244E+04  0.15972062244E+04  0.50400000000E-02 0.  1.
          1   -1    0    0  501    0  0.00000000000E+00 -0.00000000000E+00 -0.57184174334E+03  0.57184174336E+03  0.50400000000E-02 0. -1.
    8880022    1    1    2    0    0 -0.70531128367E+03  0.31821713784E+03  0.11250887866E+04  0.13740242299E+04  0.15294330000E+03 0.  0.
    8880022    1    1    2    0    0  0.70531128367E+03 -0.31821713784E+03 -0.99724305494E+02  0.79502373789E+03  0.15294330000E+03 0.  0.
<mgrwt>
<rscale>  0 0.78874445E+03</rscale>
<asrwt>0</asrwt>
<pdfrwt beam="1">  1        1 0.87975653E-01 0.78874445E+03</pdfrwt>
<pdfrwt beam="2">  1       -1 0.24572403E+00 0.78874445E+03</pdfrwt>
<totfact> 0.28296077E+00</totfact>
</mgrwt>
</event>
<event>
 4    1  0.1678003E-008  0.1154201E+04  0.7818608E-02  0.9153916E-01
         -1   -1    0    0    0  501 -0.00000000000E+00  0.00000000000E+00  0.13558285944E+04  0.13558285944E+04  0.50400000000E-02 0.  1.
          1   -1    0    0  501    0  0.00000000000E+00 -0.00000000000E+00 -0.17916886797E+04  0.17916886797E+04  0.50400000000E-02 0. -1.
    8880022    1    1    2    0    0 -0.11052957508E+04  0.29514406095E+03 -0.12755171782E+04  0.17202105797E+04  0.15294330000E+03 0.  0.
    8880022    1    1    2    0    0  0.11052957508E+04 -0.29514406095E+03  0.83965709286E+03  0.14273066944E+04  0.15294330000E+03 0.  0.
<mgrwt>
<rscale>  0 0.11542012E+04</rscale>
<asrwt>0</asrwt>
<pdfrwt beam="1">  1        1 0.27564441E+00 0.11542012E+04</pdfrwt>
<pdfrwt beam="2">  1       -1 0.20858902E+00 0.11542012E+04</pdfrwt>
<totfact> 0.53540728E-01</totfact>
</mgrwt>
</event>
<event>
 4    1  0.1678003E-008  0.1433893E+04  0.7818608E-02  0.8929644E-01
          1   -1    0    0  501    0  0.00000000000E+00  0.00000000000E+00  0.15755324178E+04  0.15755324178E+04  0.50400000000E-02 0. -1.
         -1   -1    0    0    0  501 -0.00000000000E+00 -0.00000000000E+00 -0.15927823033E+04  0.15927823033E+04  0.50400000000E-02 0.  1.
    8880022    1    1    2    0    0  0.14691184397E+03 -0.14181236400E+04 -0.68200759288E+03  0.15878235916E+04  0.15294330000E+03 0.  0.
    8880022    1    1    2    0    0 -0.14691184397E+03  0.14181236400E+04  0.66475770736E+03  0.15804911296E+04  0.15294330000E+03 0.  0.
<mgrwt>
<rscale>  0 0.14338931E+04</rscale>
<asrwt>0</asrwt>
<pdfrwt beam="1">  1        1 0.24238960E+00 0.14338931E+04</pdfrwt>
<pdfrwt beam="2">  1       -1 0.24504343E+00 0.14338931E+04</pdfrwt>
<totfact> 0.41504524E-01</totfact>
</mgrwt>
</event>
<event>
 4    1  0.1678003E-008  0.7243437E+03  0.7818608E-02  0.9676484E-01
         -1   -1    0    0    0  501 -0.00000000000E+00  0.00000000000E+00  0.10529367125E+04  0.10529367125E+04  0.50400000000E-02 0.  1.
          1   -1    0    0  501    0  0.00000000000E+00 -0.00000000000E+00 -0.15134604380E+04  0.15134604380E+04  0.50400000000E-02 0. -1.
    8880022    1    1    2    0    0  0.70377708582E+03 -0.77329892677E+02 -0.12811986910E+04  0.14717825375E+04  0.15294330000E+03 0.  0.
    8880022    1    1    2    0    0 -0.70377708582E+03  0.77329892677E+02  0.82067496560E+03  0.10946146130E+04  0.15294330000E+03 0.  0.
<mgrwt>
<rscale>  0 0.72434367E+03</rscale>
<asrwt>0</asrwt>
<pdfrwt beam="1">  1        1 0.23284007E+00 0.72434367E+03</pdfrwt>
<pdfrwt beam="2">  1       -1 0.16199026E+00 0.72434367E+03</pdfrwt>
<totfact> 0.19031873E+00</totfact>
</mgrwt>
</event>
<event>
 4    1  0.1678003E-008  0.6608234E+03  0.7818608E-02  0.9786679E-01
         -1   -1    0    0    0  501 -0.00000000000E+00  0.00000000000E+00  0.20223870519E+04  0.20223870519E+04  0.50400000000E-02 0.  1.
          1   -1    0    0  501    0  0.00000000000E+00 -0.00000000000E+00 -0.26978803281E+03  0.26978803285E+03  0.50400000000E-02 0. -1.
    8880022    1    1    2    0    0  0.59761595155E+03 -0.23696219089E+03  0.13883875203E+04  0.15376304709E+04  0.15294330000E+03 0.  0.
    8880022    1    1    2    0    0 -0.59761595155E+03  0.23696219089E+03  0.36421149881E+03  0.75454461388E+03  0.15294330000E+03 0.  0.
<mgrwt>
<rscale>  0 0.66082339E+03</rscale>
<asrwt>0</asrwt>
<pdfrwt beam="1">  1        1 0.41505851E-01 0.66082339E+03</pdfrwt>
<pdfrwt beam="2">  1       -1 0.31113647E+00 0.66082339E+03</pdfrwt>
<totfact> 0.29994040E+00</totfact>
</mgrwt>
</event>
<event>
 4    1  0.1678003E-008  0.7545118E+03  0.7818608E-02  0.9628299E-01
          1   -1    0    0  501    0  0.00000000000E+00  0.00000000000E+00  0.33328351068E+04  0.33328351068E+04  0.50400000000E-02 0. -1.
         -1   -1    0    0    0  501 -0.00000000000E+00 -0.00000000000E+00 -0.17294487040E+03  0.17294487048E+03  0.50400000000E-02 0.  1.
    8880022    1    1    2    0    0 -0.49635028532E+03  0.54729584516E+03  0.13852791371E+04  0.15774302801E+04  0.15294330000E+03 0.  0.
    8880022    1    1    2    0    0  0.49635028532E+03 -0.54729584516E+03  0.17746110992E+04  0.19283496971E+04  0.15294330000E+03 0.  0.
<mgrwt>
<rscale>  0 0.75451176E+03</rscale>
<asrwt>0</asrwt>
<pdfrwt beam="1">  1        1 0.51274385E+00 0.75451176E+03</pdfrwt>
<pdfrwt beam="2">  1       -1 0.26606904E-01 0.75451176E+03</pdfrwt>
<totfact> 0.45550382E+00</totfact>
</mgrwt>
</event>
<event>
 4    1  0.1678003E-008  0.4131404E+03  0.7818608E-02  0.1039322E+00
         -1   -1    0    0    0  501 -0.00000000000E+00  0.00000000000E+00  0.13075366156E+04  0.13075366156E+04  0.50400000000E-02 0.  1.
          1   -1    0    0  501    0  0.00000000000E+00 -0.00000000000E+00 -0.21527690166E+03  0.21527690172E+03  0.50400000000E-02 0. -1.
    8880022    1    1    2    0    0 -0.85972336603E+02  0.37403487200E+03  0.68429062190E+02  0.41876905055E+03  0.15294330000E+03 0.  0.
    8880022    1    1    2    0    0  0.85972336603E+02 -0.37403487200E+03  0.10238306517E+04  0.11040444668E+04  0.15294330000E+03 0.  1.
<mgrwt>
<rscale>  0 0.41314039E+03</rscale>
<asrwt>0</asrwt>
<pdfrwt beam="1">  1        1 0.33119523E-01 0.41314039E+03</pdfrwt>
<pdfrwt beam="2">  1       -1 0.20115948E+00 0.41314039E+03</pdfrwt>
<totfact> 0.21425307E+01</totfact>
</mgrwt>
</event>
<event>
 4    1  0.1678003E-008  0.8946902E+03  0.7818608E-02  0.9432243E-01
         -1   -1    0    0    0  501 -0.00000000000E+00  0.00000000000E+00  0.51501577074E+03  0.51501577077E+03  0.50400000000E-02 0.  1.
          1   -1    0    0  501    0  0.00000000000E+00 -0.00000000000E+00 -0.16763951286E+04  0.16763951286E+04  0.50400000000E-02 0. -1.
    8880022    1    1    2    0    0  0.11083767049E+03 -0.87452496354E+03 -0.28494391806E+03  0.93896943001E+03  0.15294330000E+03 0.  1.
    8880022    1    1    2    0    0 -0.11083767049E+03  0.87452496354E+03 -0.87643543983E+03  0.12524414694E+04  0.15294330000E+03 0. -1.
<mgrwt>
<rscale>  0 0.89469020E+03</rscale>
<asrwt>0</asrwt>
<pdfrwt beam="1">  1        1 0.25790694E+00 0.89469020E+03</pdfrwt>
<pdfrwt beam="2">  1       -1 0.79233196E-01 0.89469020E+03</pdfrwt>
<totfact> 0.80384085E+00</totfact>
</mgrwt>
</event>
<event>
 4    1  0.1678003E-008  0.5146992E+03  0.7818608E-02  0.1010012E+00
          1   -1    0    0  501    0  0.00000000000E+00  0.00000000000E+00  0.20992633796E+04  0.20992633796E+04  0.50400000000E-02 0. -1.
         -1   -1    0    0    0  501 -0.00000000000E+00 -0.00000000000E+00 -0.20344655418E+03  0.20344655424E+03  0.50400000000E-02 0.  1.
    8880022    1    1    2    0    0 -0.48078822833E+03 -0.10181476378E+03  0.23842956290E+03  0.56724234336E+03  0.15294330000E+03 0.  0.
    8880022    1    1    2    0    0  0.48078822833E+03  0.10181476378E+03  0.16573872625E+04  0.17354675904E+04  0.15294330000E+03 0.  0.
<mgrwt>
<rscale>  0 0.51469915E+03</rscale>
<asrwt>0</asrwt>
<pdfrwt beam="1">  1        1 0.32296359E+00 0.51469915E+03</pdfrwt>
<pdfrwt beam="2">  1       -1 0.31299471E-01 0.51469915E+03</pdfrwt>
<totfact> 0.26120773E+01</totfact>
</mgrwt>
</event>
<event>
 4    1  0.1678003E-008  0.4145785E+03  0.7818608E-02  0.1038845E+00
         -1   -1    0    0    0  501 -0.00000000000E+00  0.00000000000E+00  0.26035525191E+03  0.26035525196E+03  0.50400000000E-02 0.  1.
          1   -1    0    0  501    0  0.00000000000E+00 -0.00000000000E+00 -0.89864106450E+03  0.89864106451E+03  0.50400000000E-02 0. -1.
    8880022    1    1    2    0    0  0.51239718369E+02 -0.38191382275E+03 -0.61767336980E+03  0.74390572086E+03  0.15294330000E+03 0.  0.
    8880022    1    1    2    0    0 -0.51239718369E+02  0.38191382275E+03 -0.20612442790E+02  0.41509059561E+03  0.15294330000E+03 0.  0.
<mgrwt>
<rscale>  0 0.41457850E+03</rscale>
<asrwt>0</asrwt>
<pdfrwt beam="1">  1        1 0.13825247E+00 0.41457850E+03</pdfrwt>
<pdfrwt beam="2">  1       -1 0.40054654E-01 0.41457850E+03</pdfrwt>
<totfact> 0.11662476E+02</totfact>
</mgrwt>
</event>
<event>
 4    1  0.1678003E-008  0.9582456E+03  0.7818608E-02  0.9355564E-01
         -1   -1    0    0    0  501 -0.00000000000E+00  0.00000000000E+00  0.37485992745E+03  0.37485992748E+03  0.50400000000E-02 0.  1.
          1   -1    0    0  501    0  0.00000000000E+00 -0.00000000000E+00 -0.27977528552E+04  0.27977528552E+04  0.50400000000E-02 0. -1.
    8880022    1    1    2    0    0  0.90238967701E+03 -0.28378841590E+03 -0.17710808186E+04  0.20136935996E+04  0.15294330000E+03 0.  0.
    8880022    1    1    2    0    0 -0.90238967701E+03  0.28378841590E+03 -0.65181210913E+03  0.11589191830E+04  0.15294330000E+03 0.  0.
<mgrwt>
<rscale>  0 0.95824561E+03</rscale>
<asrwt>0</asrwt>
<pdfrwt beam="1">  1        1 0.43042350E+00 0.95824561E+03</pdfrwt>
<pdfrwt beam="2">  1       -1 0.57670760E-01 0.95824561E+03</pdfrwt>
<totfact> 0.26251516E+00</totfact>
</mgrwt>
</event>
<event>
 4    1  0.1678003E-008  0.5673287E+03  0.7818608E-02  0.9975607E-01
         -1   -1    0    0    0  501 -0.00000000000E+00  0.00000000000E+00  0.10585182327E+04  0.10585182327E+04  0.50400000000E-02 0.  1.
          1   -1    0    0  501    0  0.00000000000E+00 -0.00000000000E+00 -0.58397614797E+03  0.58397614799E+03  0.50400000000E-02 0. -1.
    8880022    1    1    2    0    0  0.52695774484E+03 -0.14417274046E+03  0.80584090736E+03  0.98551583697E+03  0.15294330000E+03 0.  0.
    8880022    1    1    2    0    0 -0.52695774484E+03  0.14417274046E+03 -0.33129882267E+03  0.65697854368E+03  0.15294330000E+03 0.  0.
<mgrwt>
<rscale>  0 0.56732874E+03</rscale>
<asrwt>0</asrwt>
<pdfrwt beam="1">  1        1 0.89842484E-01 0.56732874E+03</pdfrwt>
<pdfrwt beam="2">  1       -1 0.16284896E+00 0.56732874E+03</pdfrwt>
<totfact> 0.10481196E+01</totfact>
</mgrwt>
</event>
<event>
 4    1  0.1678003E-008  0.4528198E+03  0.7818608E-02  0.1026884E+00
         -1   -1    0    0    0  501 -0.00000000000E+00  0.00000000000E+00  0.10706219689E+04  0.10706219690E+04  0.50400000000E-02 0.  1.
          1   -1    0    0  501    0  0.00000000000E+00 -0.00000000000E+00 -0.22386263383E+03  0.22386263388E+03  0.50400000000E-02 0. -1.
    8880022    1    1    2    0    0 -0.33521979690E+03  0.26321440655E+03  0.17736438270E+03  0.48631668007E+03  0.15294330000E+03 0.  0.
    8880022    1    1    2    0    0  0.33521979690E+03 -0.26321440655E+03  0.66939495242E+03  0.80816792277E+03  0.15294330000E+03 0.  0.
<mgrwt>
<rscale>  0 0.45281982E+03</rscale>
<asrwt>0</asrwt>
<pdfrwt beam="1">  1        1 0.34440405E-01 0.45281982E+03</pdfrwt>
<pdfrwt beam="2">  1       -1 0.16471107E+00 0.45281982E+03</pdfrwt>
<totfact> 0.36491122E+01</totfact>
</mgrwt>
</event>
<event>
 4    1  0.1678003E-008  0.4568869E+03  0.7818608E-02  0.1025688E+00
          1   -1    0    0  501    0  0.00000000000E+00  0.00000000000E+00  0.51290831045E+03  0.51290831048E+03  0.50400000000E-02 0. -1.
         -1   -1    0    0    0  501 -0.00000000000E+00 -0.00000000000E+00 -0.61233291518E+03  0.61233291520E+03  0.50400000000E-02 0.  1.
    8880022    1    1    2    0    0  0.42830366726E+03 -0.43703007112E+02 -0.37552477864E+03  0.59140890812E+03  0.15294330000E+03 0.  0.
    8880022    1    1    2    0    0 -0.42830366726E+03  0.43703007112E+02  0.27610017391E+03  0.53383231756E+03  0.15294330000E+03 0.  1.
<mgrwt>
<rscale>  0 0.45688690E+03</rscale>
<asrwt>0</asrwt>
<pdfrwt beam="1">  1        1 0.78908971E-01 0.45688690E+03</pdfrwt>
<pdfrwt beam="2">  1       -1 0.94205064E-01 0.45688690E+03</pdfrwt>
<totfact> 0.49234324E+01</totfact>
</mgrwt>
</event>
<event>
 4    1  0.1678003E-008  0.7615328E+03  0.7818608E-02  0.9617429E-01
          1   -1    0    0  501    0  0.00000000000E+00  0.00000000000E+00  0.62285942999E+03  0.62285943002E+03  0.50400000000E-02 0. -1.
         -1   -1    0    0    0  501 -0.00000000000E+00 -0.00000000000E+00 -0.16600832607E+04  0.16600832607E+04  0.50400000000E-02 0.  1.
    8880022    1    1    2    0    0 -0.62520313055E+02 -0.74339201875E+03 -0.12750349209E+04  0.14851418066E+04  0.15294330000E+03 0.  0.
    8880022    1    1    2    0    0  0.62520313055E+02  0.74339201875E+03  0.23781109022E+03  0.79780088414E+03  0.15294330000E+03 0.  0.
<mgrwt>
<rscale>  0 0.76153275E+03</rscale>
<asrwt>0</asrwt>
<pdfrwt beam="1">  1        1 0.95824528E-01 0.76153275E+03</pdfrwt>
<pdfrwt beam="2">  1       -1 0.25539742E+00 0.76153275E+03</pdfrwt>
<totfact> 0.21766243E+00</totfact>
</mgrwt>
</event>
<event>
 4    1  0.1678003E-008  0.9861963E+03  0.7818608E-02  0.9323815E-01
         -1   -1    0    0    0  501 -0.00000000000E+00  0.00000000000E+00  0.29005946508E+03  0.29005946513E+03  0.50400000000E-02 0.  1.
          1   -1    0    0  501    0  0.00000000000E+00 -0.00000000000E+00 -0.39640785082E+04  0.39640785082E+04  0.50400000000E-02 0. -1.
    8880022    1    1    2    0    0  0.97407638583E+03  0.19149565692E+02 -0.10019026119E+04  0.14058420993E+04  0.15294330000E+03 0.  0.
    8880022    1    1    2    0    0 -0.97407638583E+03 -0.19149565692E+02 -0.26721164312E+04  0.28482958741E+04  0.15294330000E+03 0.  0.
<mgrwt>
<rscale>  0 0.98619631E+03</rscale>
<asrwt>0</asrwt>
<pdfrwt beam="1">  1        1 0.60985819E+00 0.98619631E+03</pdfrwt>
<pdfrwt beam="2">  1       -1 0.44624536E-01 0.98619631E+03</pdfrwt>
<totfact> 0.54161710E-01</totfact>
</mgrwt>
</event>
<event>
 4    1  0.1678003E-008  0.2308889E+03  0.7818608E-02  0.1126016E+00
          1   -1    0    0  501    0  0.00000000000E+00  0.00000000000E+00  0.12426756659E+04  0.12426756659E+04  0.50400000000E-02 0. -1.
         -1   -1    0    0    0  501 -0.00000000000E+00 -0.00000000000E+00 -0.67344467592E+02  0.67344467781E+02  0.50400000000E-02 0.  1.
    8880022    1    1    2    0    0 -0.15214624118E+03  0.82277391415E+02  0.19303108785E+03  0.30094966645E+03  0.15294330000E+03 0.  1.
    8880022    1    1    2    0    0  0.15214624118E+03 -0.82277391415E+02  0.98230011043E+03  0.10090704672E+04  0.15294330000E+03 0. -1.
<mgrwt>
<rscale>  0 0.23088894E+03</rscale>
<asrwt>0</asrwt>
<pdfrwt beam="1">  1        1 0.19118087E+00 0.23088894E+03</pdfrwt>
<pdfrwt beam="2">  1       -1 0.10360687E-01 0.23088894E+03</pdfrwt>
<totfact> 0.62065705E+02</totfact>
</mgrwt>
</event>
<event>
 4    1  0.1678003E-008  0.2880728E+03  0.7818608E-02  0.1091360E+00
          1   -1    0    0  501    0  0.00000000000E+00  0.00000000000E+00  0.94439435305E+03  0.94439435306E+03  0.50400000000E-02 0. -1.
         -1   -1    0    0    0  501 -0.00000000000E+00 -0.00000000000E+00 -0.21334658288E+03  0.21334658294E+03  0.50400000000E-02 0.  1.
    8880022    1    1    2    0    0  0.23285201599E+03  0.73308958882E+02  0.80945567962E+03  0.85918823030E+03  0.15294330000E+03 0. -1.
    8880022    1    1    2    0    0 -0.23285201599E+03 -0.73308958882E+02 -0.78407909453E+02  0.29855270570E+03  0.15294330000E+03 0.  0.
<mgrwt>
<rscale>  0 0.28807276E+03</rscale>
<asrwt>0</asrwt>
<pdfrwt beam="1">  1        1 0.14529144E+00 0.28807276E+03</pdfrwt>
<pdfrwt beam="2">  1       -1 0.32822551E-01 0.28807276E+03</pdfrwt>
<totfact> 0.15548899E+02</totfact>
</mgrwt>
</event>
<event>
 4    1  0.1678003E-008  0.1062500E+04  0.7818608E-02  0.9242533E-01
         -1   -1    0    0    0  501 -0.00000000000E+00  0.00000000000E+00  0.10877998656E+04  0.10877998656E+04  0.50400000000E-02 0.  1.
          1   -1    0    0  501    0  0.00000000000E+00 -0.00000000000E+00 -0.14331397398E+04  0.14331397398E+04  0.50400000000E-02 0. -1.
    8880022    1    1    2    0    0 -0.72431671349E+03 -0.76215516433E+03 -0.83470256899E+03  0.13511606965E+04  0.15294330000E+03 0.  0.
    8880022    1    1    2    0    0  0.72431671349E+03  0.76215516433E+03  0.48936269478E+03  0.11697789090E+04  0.15294330000E+03 0.  1.
<mgrwt>
<rscale>  0 0.10625003E+04</rscale>
<asrwt>0</asrwt>
<pdfrwt beam="1">  1        1 0.22048304E+00 0.10625003E+04</pdfrwt>
<pdfrwt beam="2">  1       -1 0.16735383E+00 0.10625003E+04</pdfrwt>
<totfact> 0.18685819E+00</totfact>
</mgrwt>
</event>
<event>
 4    1  0.1678003E-008  0.5656674E+03  0.7818608E-02  0.9979312E-01
          1   -1    0    0  501    0  0.00000000000E+00  0.00000000000E+00  0.13457813265E+04  0.13457813265E+04  0.50400000000E-02 0. -1.
         -1   -1    0    0    0  501 -0.00000000000E+00 -0.00000000000E+00 -0.47569047896E+03  0.47569047899E+03  0.50400000000E-02 0.  1.
    8880022    1    1    2    0    0 -0.43337223538E+03 -0.32981275749E+03 -0.20905082284E+03  0.60306040241E+03  0.15294330000E+03 0.  0.
    8880022    1    1    2    0    0  0.43337223538E+03  0.32981275749E+03  0.10791416704E+04  0.12184114031E+04  0.15294330000E+03 0.  0.
<mgrwt>
<rscale>  0 0.56566740E+03</rscale>
<asrwt>0</asrwt>
<pdfrwt beam="1">  1        1 0.20704328E+00 0.56566740E+03</pdfrwt>
<pdfrwt beam="2">  1       -1 0.73183152E-01 0.56566740E+03</pdfrwt>
<totfact> 0.16797848E+01</totfact>
</mgrwt>
</event>
<event>
 4    1  0.1678003E-008  0.9618188E+03  0.7818608E-02  0.9351442E-01
         -1   -1    0    0    0  501 -0.00000000000E+00  0.00000000000E+00  0.45446128126E+03  0.45446128129E+03  0.50400000000E-02 0.  1.
          1   -1    0    0  501    0  0.00000000000E+00 -0.00000000000E+00 -0.24219509703E+04  0.24219509703E+04  0.50400000000E-02 0. -1.
    8880022    1    1    2    0    0  0.78561349150E+03  0.53339958967E+03 -0.40931506363E+03  0.10452914209E+04  0.15294330000E+03 0.  0.
    8880022    1    1    2    0    0 -0.78561349150E+03 -0.53339958967E+03 -0.15581746254E+04  0.18311208307E+04  0.15294330000E+03 0.  0.
<mgrwt>
<rscale>  0 0.96181876E+03</rscale>
<asrwt>0</asrwt>
<pdfrwt beam="1">  1        1 0.37260783E+00 0.96181876E+03</pdfrwt>
<pdfrwt beam="2">  1       -1 0.69917122E-01 0.96181876E+03</pdfrwt>
<totfact> 0.32467500E+00</totfact>
</mgrwt>
</event>
<event>
 4    1  0.1678003E-008  0.4493344E+03  0.7818608E-02  0.1027921E+00
         -1   -1    0    0    0  501 -0.00000000000E+00  0.00000000000E+00  0.32299816179E+03  0.32299816183E+03  0.50400000000E-02 0.  1.
          1   -1    0    0  501    0  0.00000000000E+00 -0.00000000000E+00 -0.88786522703E+03  0.88786522704E+03  0.50400000000E-02 0. -1.
    8880022    1    1    2    0    0 -0.12746401885E+02  0.42231177600E+03  0.46939343938E+02  0.45177943948E+03  0.15294330000E+03 0.  0.
    8880022    1    1    2    0    0  0.12746401885E+02 -0.42231177600E+03 -0.61180640917E+03  0.75908394940E+03  0.15294330000E+03 0.  0.
<mgrwt>
<rscale>  0 0.44933435E+03</rscale>
<asrwt>0</asrwt>
<pdfrwt beam="1">  1        1 0.13659465E+00 0.44933435E+03</pdfrwt>
<pdfrwt beam="2">  1       -1 0.49692025E-01 0.44933435E+03</pdfrwt>
<totfact> 0.79722509E+01</totfact>
</mgrwt>
</event>
<event>
 4    1  0.1678003E-008  0.4201529E+03  0.7818608E-02  0.1037017E+00
          1   -1    0    0  501    0  0.00000000000E+00  0.00000000000E+00  0.59065211607E+03  0.59065211609E+03  0.50400000000E-02 0. -1.
         -1   -1    0    0    0  501 -0.00000000000E+00 -0.00000000000E+00 -0.10685293981E+04  0.10685293981E+04  0.50400000000E-02 0.  1.
    8880022    1    1    2    0    0  0.21694245427E+03  0.32568818232E+03  0.46513781799E+03  0.62680273078E+03  0.15294330000E+03 0.  0.
    8880022    1    1    2    0    0 -0.21694245427E+03 -0.32568818232E+03 -0.94301510005E+03  0.10323787834E+04  0.15294330000E+03 0.  0.
<mgrwt>
<rscale>  0 0.42015292E+03</rscale>
<asrwt>0</asrwt>
<pdfrwt beam="1">  1        1 0.90869556E-01 0.42015292E+03</pdfrwt>
<pdfrwt beam="2">  1       -1 0.16438914E+00 0.42015292E+03</pdfrwt>
<totfact> 0.10344440E+01</totfact>
</mgrwt>
</event>
<event>
 4    1  0.1678003E-008  0.7567164E+03  0.7818608E-02  0.9624872E-01
         -1   -1    0    0    0  501 -0.00000000000E+00  0.00000000000E+00  0.67081498752E+03  0.67081498754E+03  0.50400000000E-02 0.  1.
          1   -1    0    0  501    0  0.00000000000E+00 -0.00000000000E+00 -0.20080036203E+04  0.20080036203E+04  0.50400000000E-02 0. -1.
    8880022    1    1    2    0    0  0.37616403627E+03 -0.63853635723E+03 -0.16841565195E+04  0.18463485308E+04  0.15294330000E+03 0.  0.
    8880022    1    1    2    0    0 -0.37616403627E+03  0.63853635723E+03  0.34696788681E+03  0.83247007705E+03  0.15294330000E+03 0.  1.
<mgrwt>
<rscale>  0 0.75671640E+03</rscale>
<asrwt>0</asrwt>
<pdfrwt beam="1">  1        1 0.30892363E+00 0.75671640E+03</pdfrwt>
<pdfrwt beam="2">  1       -1 0.10320231E+00 0.75671640E+03</pdfrwt>
<totfact> 0.27431826E+00</totfact>
</mgrwt>
</event>
<event>
 4    1  0.1678003E-008  0.2698141E+03  0.7818608E-02  0.1101386E+00
         -1   -1    0    0    0  501 -0.00000000000E+00  0.00000000000E+00  0.36200795559E+03  0.36200795562E+03  0.50400000000E-02 0.  1.
          1   -1    0    0  501    0  0.00000000000E+00 -0.00000000000E+00 -0.59873304329E+03  0.59873304331E+03  0.50400000000E-02 0. -1.
    8880022    1    1    2    0    0 -0.15139974223E+03 -0.16274556084E+03 -0.50983496422E+03  0.57682869491E+03  0.15294330000E+03 0.  0.
    8880022    1    1    2    0    0  0.15139974223E+03  0.16274556084E+03  0.27310987651E+03  0.38391230403E+03  0.15294330000E+03 0.  0.
<mgrwt>
<rscale>  0 0.26981411E+03</rscale>
<asrwt>0</asrwt>
<pdfrwt beam="1">  1        1 0.92112776E-01 0.26981411E+03</pdfrwt>
<pdfrwt beam="2">  1       -1 0.55693532E-01 0.26981411E+03</pdfrwt>
<totfact> 0.11977561E+02</totfact>
</mgrwt>
</event>
<event>
 4    1  0.1678003E-008  0.3117614E+03  0.7818608E-02  0.1079505E+00
         -1   -1    0    0    0  501 -0.00000000000E+00  0.00000000000E+00  0.73199539592E+03  0.73199539593E+03  0.50400000000E-02 0.  1.
          1   -1    0    0  501    0  0.00000000000E+00 -0.00000000000E+00 -0.16423386091E+03  0.16423386099E+03  0.50400000000E-02 0. -1.
    8880022    1    1    2    0    0 -0.14912334822E+03  0.22708091494E+03  0.47998502597E+03  0.57234674201E+03  0.15294330000E+03 0.  0.
    8880022    1    1    2    0    0  0.14912334822E+03 -0.22708091494E+03  0.87776509029E+02  0.32388251491E+03  0.15294330000E+03 0.  0.
<mgrwt>
<rscale>  0 0.31176140E+03</rscale>
<asrwt>0</asrwt>
<pdfrwt beam="1">  1        1 0.25266748E-01 0.31176140E+03</pdfrwt>
<pdfrwt beam="2">  1       -1 0.11261468E+00 0.31176140E+03</pdfrwt>
<totfact> 0.14524599E+02</totfact>
</mgrwt>
</event>
<event>
 4    1  0.1678003E-008  0.6291029E+03  0.7818608E-02  0.9846801E-01
          1   -1    0    0  501    0  0.00000000000E+00  0.00000000000E+00  0.81341229346E+03  0.81341229348E+03  0.50400000000E-02 0. -1.
         -1   -1    0    0    0  501 -0.00000000000E+00 -0.00000000000E+00 -0.74636215235E+03  0.74636215236E+03  0.50400000000E-02 0.  1.
    8880022    1    1    2    0    0 -0.50049779344E+03  0.34911433060E+03  0.49365643945E+03  0.79966692459E+03  0.15294330000E+03 0.  0.
    8880022    1    1    2    0    0  0.50049779344E+03 -0.34911433060E+03 -0.42660629834E+03  0.76010752125E+03  0.15294330000E+03 0.  0.
<mgrwt>
<rscale>  0 0.62910294E+03</rscale>
<asrwt>0</asrwt>
<pdfrwt beam="1">  1        1 0.12514035E+00 0.62910294E+03</pdfrwt>
<pdfrwt beam="2">  1       -1 0.11482495E+00 0.62910294E+03</pdfrwt>
<totfact> 0.15507382E+01</totfact>
</mgrwt>
</event>
<event>
 4    1  0.1678003E-008  0.3221512E+03  0.7818608E-02  0.1074663E+00
          1   -1    0    0  501    0  0.00000000000E+00  0.00000000000E+00  0.58431205858E+03  0.58431205861E+03  0.50400000000E-02 0. -1.
         -1   -1    0    0    0  501 -0.00000000000E+00 -0.00000000000E+00 -0.25594960336E+03  0.25594960341E+03  0.50400000000E-02 0.  1.
    8880022    1    1    2    0    0 -0.26755567905E+03  0.93828128392E+02 -0.68247453373E+02  0.32930096717E+03  0.15294330000E+03 0.  0.
    8880022    1    1    2    0    0  0.26755567905E+03 -0.93828128392E+02  0.39660990860E+03  0.51096069485E+03  0.15294330000E+03 0.  0.
<mgrwt>
<rscale>  0 0.32215123E+03</rscale>
<asrwt>0</asrwt>
<pdfrwt beam="1">  1        1 0.89894163E-01 0.32215123E+03</pdfrwt>
<pdfrwt beam="2">  1       -1 0.39376862E-01 0.32215123E+03</pdfrwt>
<totfact> 0.23261481E+02</totfact>
</mgrwt>
</event>
<event>
 4    1  0.1678003E-008  0.5537412E+03  0.7818608E-02  0.1000632E+00
          1   -1    0    0  501    0  0.00000000000E+00  0.00000000000E+00  0.77208651573E+03  0.77208651575E+03  0.50400000000E-02 0. -1.
         -1   -1    0    0    0  501 -0.00000000000E+00 -0.00000000000E+00 -0.83964453790E+03  0.83964453791E+03  0.50400000000E-02 0.  1.
    8880022    1    1    2    0    0 -0.33671248162E+03 -0.41214369174E+03 -0.61880053560E+03  0.83038754434E+03  0.15294330000E+03 0.  0.
    8880022    1    1    2    0    0  0.33671248162E+03  0.41214369174E+03  0.55124251343E+03  0.78134350932E+03  0.15294330000E+03 0.  0.
<mgrwt>
<rscale>  0 0.55374125E+03</rscale>
<asrwt>0</asrwt>
<pdfrwt beam="1">  1        1 0.11878254E+00 0.55374125E+03</pdfrwt>
<pdfrwt beam="2">  1       -1 0.12917608E+00 0.55374125E+03</pdfrwt>
<totfact> 0.12783772E+01</totfact>
</mgrwt>
</event>
<event>
 4    1  0.1678003E-008  0.5904755E+03  0.7818608E-02  0.9925366E-01
          1   -1    0    0  501    0  0.00000000000E+00  0.00000000000E+00  0.52067674612E+03  0.52067674615E+03  0.50400000000E-02 0. -1.
         -1   -1    0    0    0  501 -0.00000000000E+00 -0.00000000000E+00 -0.72778956183E+03  0.72778956185E+03  0.50400000000E-02 0.  1.
    8880022    1    1    2    0    0 -0.51928093454E+03  0.23583249101E+03 -0.28001818033E+03  0.65350706738E+03  0.15294330000E+03 0.  0.
    8880022    1    1    2    0    0  0.51928093454E+03 -0.23583249101E+03  0.72905364617E+02  0.59495924061E+03  0.15294330000E+03 0.  0.
<mgrwt>
<rscale>  0 0.59047549E+03</rscale>
<asrwt>0</asrwt>
<pdfrwt beam="1">  1        1 0.80104115E-01 0.59047549E+03</pdfrwt>
<pdfrwt beam="2">  1       -1 0.11196762E+00 0.59047549E+03</pdfrwt>
<totfact> 0.31930283E+01</totfact>
</mgrwt>
</event>
<event>
 4    1  0.1678003E-008  0.5749231E+03  0.7818608E-02  0.9958843E-01
          1   -1    0    0  501    0  0.00000000000E+00  0.00000000000E+00  0.78254964216E+03  0.78254964218E+03  0.50400000000E-02 0. -1.
         -1   -1    0    0    0  501 -0.00000000000E+00 -0.00000000000E+00 -0.10151320791E+04  0.10151320791E+04  0.50400000000E-02 0.  1.
    8880022    1    1    2    0    0  0.54874726887E+03  0.77597453102E+02 -0.80313274597E+03  0.98770379694E+03  0.15294330000E+03 0.  1.
    8880022    1    1    2    0    0 -0.54874726887E+03 -0.77597453102E+02  0.57055030902E+03  0.80997792437E+03  0.15294330000E+03 0.  0.
<mgrwt>
<rscale>  0 0.57492311E+03</rscale>
<asrwt>0</asrwt>
<pdfrwt beam="1">  1        1 0.12039225E+00 0.57492311E+03</pdfrwt>
<pdfrwt beam="2">  1       -1 0.15617417E+00 0.57492311E+03</pdfrwt>
<totfact> 0.76055492E+00</totfact>
</mgrwt>
</event>
<event>
 4    1  0.1678003E-008  0.1053479E+04  0.7818608E-02  0.9251760E-01
          1   -1    0    0  501    0  0.00000000000E+00  0.00000000000E+00  0.11113263502E+04  0.11113263502E+04  0.50400000000E-02 0. -1.
         -1   -1    0    0    0  501 -0.00000000000E+00 -0.00000000000E+00 -0.13321736023E+04  0.13321736023E+04  0.50400000000E-02 0.  1.
    8880022    1    1    2    0    0 -0.77521851658E+03  0.69675107171E+03 -0.72174594725E+03  0.12770022200E+04  0.15294330000E+03 0.  0.
    8880022    1    1    2    0    0  0.77521851658E+03 -0.69675107171E+03  0.50089869514E+03  0.11664977326E+04  0.15294330000E+03 0.  0.
<mgrwt>
<rscale>  0 0.10534787E+04</rscale>
<asrwt>0</asrwt>
<pdfrwt beam="1">  1        1 0.17097328E+00 0.10534787E+04</pdfrwt>
<pdfrwt beam="2">  1       -1 0.20494978E+00 0.10534787E+04</pdfrwt>
<totfact> 0.17263610E+00</totfact>
</mgrwt>
</event>
<event>
 4    1  0.1678003E-008  0.3242174E+03  0.7818608E-02  0.1073725E+00
         -1   -1    0    0    0  501 -0.00000000000E+00  0.00000000000E+00  0.52874424759E+03  0.52874424761E+03  0.50400000000E-02 0.  1.
          1   -1    0    0  501    0  0.00000000000E+00 -0.00000000000E+00 -0.44938988583E+03  0.44938988586E+03  0.50400000000E-02 0. -1.
    8880022    1    1    2    0    0 -0.27305550833E+03 -0.84651890899E+02  0.40488020254E+03  0.51869536791E+03  0.15294330000E+03 0.  0.
    8880022    1    1    2    0    0  0.27305550833E+03  0.84651890899E+02 -0.32552584079E+03  0.45943876556E+03  0.15294330000E+03 0. -1.
<mgrwt>
<rscale>  0 0.32421738E+03</rscale>
<asrwt>0</asrwt>
<pdfrwt beam="1">  1        1 0.69136906E-01 0.32421738E+03</pdfrwt>
<pdfrwt beam="2">  1       -1 0.81345269E-01 0.32421738E+03</pdfrwt>
<totfact> 0.82238612E+01</totfact>
</mgrwt>
</event>
<event>
 4    1  0.1678003E-008  0.7786320E+03  0.7818608E-02  0.9591472E-01
         -1   -1    0    0    0  501 -0.00000000000E+00  0.00000000000E+00  0.38919805877E+03  0.38919805880E+03  0.50400000000E-02 0.  1.
          1   -1    0    0  501    0  0.00000000000E+00 -0.00000000000E+00 -0.17460438328E+04  0.17460438328E+04  0.50400000000E-02 0. -1.
    8880022    1    1    2    0    0  0.69098325621E+03  0.32468190293E+03 -0.32781342233E+03  0.84482512470E+03  0.15294330000E+03 0.  0.
    8880022    1    1    2    0    0 -0.69098325621E+03 -0.32468190293E+03 -0.10290323517E+04  0.12904167669E+04  0.15294330000E+03 0.  0.
<mgrwt>
<rscale>  0 0.77863204E+03</rscale>
<asrwt>0</asrwt>
<pdfrwt beam="1">  1        1 0.26862212E+00 0.77863204E+03</pdfrwt>
<pdfrwt beam="2">  1       -1 0.59876625E-01 0.77863204E+03</pdfrwt>
<totfact> 0.12991920E+01</totfact>
</mgrwt>
</event>
<event>
 4    1  0.1678003E-008  0.2455896E+03  0.7818608E-02  0.1116124E+00
         -1   -1    0    0    0  501 -0.00000000000E+00  0.00000000000E+00  0.41680448339E+03  0.41680448342E+03  0.50400000000E-02 0.  1.
          1   -1    0    0  501    0  0.00000000000E+00 -0.00000000000E+00 -0.39052326876E+03  0.39052326880E+03  0.50400000000E-02 0. -1.
    8880022    1    1    2    0    0  0.92771296267E+02 -0.16827390656E+03  0.33340029379E+03  0.41408939850E+03  0.15294330000E+03 0.  1.
    8880022    1    1    2    0    0 -0.92771296267E+02  0.16827390656E+03 -0.30711907916E+03  0.39323835372E+03  0.15294330000E+03 0.  0.
<mgrwt>
<rscale>  0 0.24558965E+03</rscale>
<asrwt>0</asrwt>
<pdfrwt beam="1">  1        1 0.60080503E-01 0.24558965E+03</pdfrwt>
<pdfrwt beam="2">  1       -1 0.64123767E-01 0.24558965E+03</pdfrwt>
<totfact> 0.16168914E+02</totfact>
</mgrwt>
</event>
<event>
 4    1  0.1678003E-008  0.2631353E+03  0.7818608E-02  0.1105274E+00
          1   -1    0    0  501    0  0.00000000000E+00  0.00000000000E+00  0.31938844897E+03  0.31938844901E+03  0.50400000000E-02 0. -1.
         -1   -1    0    0    0  501 -0.00000000000E+00 -0.00000000000E+00 -0.70378381790E+03  0.70378381792E+03  0.50400000000E-02 0.  1.
    8880022    1    1    2    0    0 -0.12949010081E+03 -0.17053114954E+03  0.23336237759E+03  0.35170756526E+03  0.15294330000E+03 0. -1.
    8880022    1    1    2    0    0  0.12949010081E+03  0.17053114954E+03 -0.61775774653E+03  0.67146470166E+03  0.15294330000E+03 0.  0.
<mgrwt>
<rscale>  0 0.26313535E+03</rscale>
<asrwt>0</asrwt>
<pdfrwt beam="1">  1        1 0.49136685E-01 0.26313535E+03</pdfrwt>
<pdfrwt beam="2">  1       -1 0.10827443E+00 0.26313535E+03</pdfrwt>
<totfact> 0.68939480E+01</totfact>
</mgrwt>
</event>
<event>
 4    1  0.1678003E-008  0.7879749E+03  0.7818608E-02  0.9577588E-01
          1   -1    0    0  501    0  0.00000000000E+00  0.00000000000E+00  0.14163952374E+04  0.14163952374E+04  0.50400000000E-02 0. -1.
         -1   -1    0    0    0  501 -0.00000000000E+00 -0.00000000000E+00 -0.58354521005E+03  0.58354521007E+03  0.50400000000E-02 0.  1.
    8880022    1    1    2    0    0  0.59600479266E+03  0.49223079044E+03  0.91519090477E+03  0.12076750014E+04  0.15294330000E+03 0.  0.
    8880022    1    1    2    0    0 -0.59600479266E+03 -0.49223079044E+03 -0.82340877390E+02  0.79226544607E+03  0.15294330000E+03 0.  0.
<mgrwt>
<rscale>  0 0.78797495E+03</rscale>
<asrwt>0</asrwt>
<pdfrwt beam="1">  1        1 0.21790696E+00 0.78797495E+03</pdfrwt>
<pdfrwt beam="2">  1       -1 0.89776187E-01 0.78797495E+03</pdfrwt>
<totfact> 0.93775925E+00</totfact>
</mgrwt>
</event>
<event>
 4    1  0.1678003E-008  0.7458362E+03  0.7818608E-02  0.9641905E-01
         -1   -1    0    0    0  501 -0.00000000000E+00  0.00000000000E+00  0.29078127739E+03  0.29078127743E+03  0.50400000000E-02 0.  1.
          1   -1    0    0  501    0  0.00000000000E+00 -0.00000000000E+00 -0.25810246016E+04  0.25810246016E+04  0.50400000000E-02 0. -1.
    8880022    1    1    2    0    0 -0.72772958023E+03  0.57355620278E+02 -0.18756167970E+04  0.20184672480E+04  0.15294330000E+03 0.  0.
    8880022    1    1    2    0    0  0.72772958023E+03 -0.57355620278E+02 -0.41462652721E+03  0.85333863102E+03  0.15294330000E+03 0.  0.
<mgrwt>
<rscale>  0 0.74583622E+03</rscale>
<asrwt>0</asrwt>
<pdfrwt beam="1">  1        1 0.39708069E+00 0.74583622E+03</pdfrwt>
<pdfrwt beam="2">  1       -1 0.44735583E-01 0.74583622E+03</pdfrwt>
<totfact> 0.62402221E+00</totfact>
</mgrwt>
</event>
<event>
 4    1  0.1678003E-008  0.3918409E+03  0.7818608E-02  0.1046642E+00
          1   -1    0    0  501    0  0.00000000000E+00  0.00000000000E+00  0.28481204025E+03  0.28481204029E+03  0.50400000000E-02 0. -1.
         -1   -1    0    0    0  501 -0.00000000000E+00 -0.00000000000E+00 -0.13558120986E+04  0.13558120986E+04  0.50400000000E-02 0.  1.
    8880022    1    1    2    0    0 -0.28155296703E+03 -0.22555611437E+03 -0.11721731803E+04  0.12359325433E+04  0.15294330000E+03 0.  0.
    8880022    1    1    2    0    0  0.28155296703E+03  0.22555611437E+03  0.10117312190E+03  0.40469159564E+03  0.15294330000E+03 0. -1.
<mgrwt>
<rscale>  0 0.39184089E+03</rscale>
<asrwt>0</asrwt>
<pdfrwt beam="1">  1        1 0.43817238E-01 0.39184089E+03</pdfrwt>
<pdfrwt beam="2">  1       -1 0.20858647E+00 0.39184089E+03</pdfrwt>
<totfact> 0.13428987E+01</totfact>
</mgrwt>
</event>
<event>
 4    1  0.1678003E-008  0.5381148E+03  0.7818608E-02  0.1004283E+00
          1   -1    0    0  501    0  0.00000000000E+00  0.00000000000E+00  0.11774467966E+04  0.11774467966E+04  0.50400000000E-02 0. -1.
         -1   -1    0    0    0  501 -0.00000000000E+00 -0.00000000000E+00 -0.38361854947E+03  0.38361854950E+03  0.50400000000E-02 0.  1.
    8880022    1    1    2    0    0 -0.48191921135E+03 -0.18420024979E+03 -0.70705633008E+02  0.54274008314E+03  0.15294330000E+03 0.  0.
    8880022    1    1    2    0    0  0.48191921135E+03  0.18420024979E+03  0.86453388017E+03  0.10183252630E+04  0.15294330000E+03 0.  0.
<mgrwt>
<rscale>  0 0.53811478E+03</rscale>
<asrwt>0</asrwt>
<pdfrwt beam="1">  1        1 0.18114566E+00 0.53811478E+03</pdfrwt>
<pdfrwt beam="2">  1       -1 0.59018239E-01 0.53811478E+03</pdfrwt>
<totfact> 0.34157960E+01</totfact>
</mgrwt>
</event>
<event>
 4    1  0.1678003E-008  0.8443233E+03  0.7818608E-02  0.9497988E-01
         -1   -1    0    0    0  501 -0.00000000000E+00  0.00000000000E+00  0.96223054429E+03  0.96223054430E+03  0.50400000000E-02 0.  1.
          1   -1    0    0  501    0  0.00000000000E+00 -0.00000000000E+00 -0.17094815517E+04  0.17094815517E+04  0.50400000000E-02 0. -1.
    8880022    1    1    2    0    0  0.98711807363E+02  0.82446719400E+03 -0.13791754616E+04  0.16170982597E+04  0.15294330000E+03 0.  0.
    8880022    1    1    2    0    0 -0.98711807363E+02 -0.82446719400E+03  0.63192445414E+03  0.10546138363E+04  0.15294330000E+03 0.  0.
<mgrwt>
<rscale>  0 0.84432330E+03</rscale>
<asrwt>0</asrwt>
<pdfrwt beam="1">  1        1 0.26299716E+00 0.84432330E+03</pdfrwt>
<pdfrwt beam="2">  1       -1 0.14803547E+00 0.84432330E+03</pdfrwt>
<totfact> 0.17527326E+00</totfact>
</mgrwt>
</event>
<event>
 4    1  0.1678003E-008  0.3731622E+03  0.7818608E-02  0.1053490E+00
         -1   -1    0    0    0  501 -0.00000000000E+00  0.00000000000E+00  0.11298162238E+04  0.11298162238E+04  0.50400000000E-02 0.  1.
          1   -1    0    0  501    0  0.00000000000E+00 -0.00000000000E+00 -0.39502100907E+03  0.39502100910E+03  0.50400000000E-02 0. -1.
    8880022    1    1    2    0    0 -0.16014845619E+03 -0.30035125935E+03 -0.26499212469E+03  0.45767989488E+03  0.15294330000E+03 0. -1.
    8880022    1    1    2    0    0  0.16014845619E+03  0.30035125935E+03  0.99978733940E+03  0.10671573380E+04  0.15294330000E+03 0.  0.
<mgrwt>
<rscale>  0 0.37316224E+03</rscale>
<asrwt>0</asrwt>
<pdfrwt beam="1">  1        1 0.60772463E-01 0.37316224E+03</pdfrwt>
<pdfrwt beam="2">  1       -1 0.17381788E+00 0.37316224E+03</pdfrwt>
<totfact> 0.15356795E+01</totfact>
</mgrwt>
</event>
<event>
 4    1  0.1678003E-008  0.4280327E+03  0.7818608E-02  0.1034483E+00
         -1   -1    0    0    0  501 -0.00000000000E+00  0.00000000000E+00  0.54736626696E+03  0.54736626698E+03  0.50400000000E-02 0.  1.
          1   -1    0    0  501    0  0.00000000000E+00 -0.00000000000E+00 -0.11265860908E+04  0.11265860908E+04  0.50400000000E-02 0. -1.
    8880022    1    1    2    0    0 -0.37633266703E+03  0.13488547190E+03 -0.99132043462E+03  0.10797815631E+04  0.15294330000E+03 0.  0.
    8880022    1    1    2    0    0  0.37633266703E+03 -0.13488547190E+03  0.41210061082E+03  0.59417079469E+03  0.15294330000E+03 0.  1.
<mgrwt>
<rscale>  0 0.42803273E+03</rscale>
<asrwt>0</asrwt>
<pdfrwt beam="1">  1        1 0.17332094E+00 0.42803273E+03</pdfrwt>
<pdfrwt beam="2">  1       -1 0.84210195E-01 0.42803273E+03</pdfrwt>
<totfact> 0.18414877E+01</totfact>
</mgrwt>
</event>
<event>
 4    1  0.1678003E-008  0.6475376E+03  0.7818608E-02  0.9811411E-01
         -1   -1    0    0    0  501 -0.00000000000E+00  0.00000000000E+00  0.92572747117E+03  0.92572747118E+03  0.50400000000E-02 0.  1.
          1   -1    0    0  501    0  0.00000000000E+00 -0.00000000000E+00 -0.73014378450E+03  0.73014378452E+03  0.50400000000E-02 0. -1.
    8880022    1    1    2    0    0 -0.39640349782E+03  0.48864868406E+03 -0.41234529535E+03  0.76768064007E+03  0.15294330000E+03 0.  0.
    8880022    1    1    2    0    0  0.39640349782E+03 -0.48864868406E+03  0.60792898201E+03  0.88819061564E+03  0.15294330000E+03 0.  0.
<mgrwt>
<rscale>  0 0.64753758E+03</rscale>
<asrwt>0</asrwt>
<pdfrwt beam="1">  1        1 0.11232981E+00 0.64753758E+03</pdfrwt>
<pdfrwt beam="2">  1       -1 0.14241961E+00 0.64753758E+03</pdfrwt>
<totfact> 0.10696966E+01</totfact>
</mgrwt>
</event>
<event>
 4    1  0.1678003E-008  0.2639403E+03  0.7818608E-02  0.1104799E+00
          1   -1    0    0  501    0  0.00000000000E+00  0.00000000000E+00  0.14197237610E+04  0.14197237610E+04  0.50400000000E-02 0. -1.
         -1   -1    0    0    0  501 -0.00000000000E+00 -0.00000000000E+00 -0.34611106368E+03  0.34611106371E+03  0.50400000000E-02 0.  1.
    8880022    1    1    2    0    0 -0.18717613080E+03 -0.10600903158E+03 -0.28113336205E+03  0.38561695890E+03  0.15294330000E+03 0.  1.
    8880022    1    1    2    0    0  0.18717613080E+03  0.10600903158E+03  0.13547460594E+04  0.13802178658E+04  0.15294330000E+03 0.  0.
<mgrwt>
<rscale>  0 0.26394028E+03</rscale>
<asrwt>0</asrwt>
<pdfrwt beam="1">  1        1 0.21841903E+00 0.26394028E+03</pdfrwt>
<pdfrwt beam="2">  1       -1 0.53247858E-01 0.26394028E+03</pdfrwt>
<totfact> 0.30123230E+01</totfact>
</mgrwt>
</event>
<event>
 4    1  0.1678003E-008  0.1955764E+03  0.7818608E-02  0.1153526E+00
          1   -1    0    0  501    0  0.00000000000E+00  0.00000000000E+00  0.48063952679E+03  0.48063952682E+03  0.50400000000E-02 0. -1.
         -1   -1    0    0    0  501 -0.00000000000E+00 -0.00000000000E+00 -0.38643715566E+03  0.38643715569E+03  0.50400000000E-02 0.  1.
    8880022    1    1    2    0    0  0.40989925541E+02  0.11479674970E+03 -0.33922574440E+03  0.39156637549E+03  0.15294330000E+03 0.  0.
    8880022    1    1    2    0    0 -0.40989925541E+02 -0.11479674970E+03  0.43342811553E+03  0.47551030702E+03  0.15294330000E+03 0. -1.
<mgrwt>
<rscale>  0 0.19557638E+03</rscale>
<asrwt>0</asrwt>
<pdfrwt beam="1">  1        1 0.73944542E-01 0.19557638E+03</pdfrwt>
<pdfrwt beam="2">  1       -1 0.59451870E-01 0.19557638E+03</pdfrwt>
<totfact> 0.14426826E+02</totfact>
</mgrwt>
</event>
<event>
 4    1  0.1678003E-008  0.8526146E+03  0.7818608E-02  0.9486834E-01
         -1   -1    0    0    0  501 -0.00000000000E+00  0.00000000000E+00  0.40101894345E+03  0.40101894348E+03  0.50400000000E-02 0.  1.
          1   -1    0    0  501    0  0.00000000000E+00 -0.00000000000E+00 -0.18325974830E+04  0.18325974830E+04  0.50400000000E-02 0. -1.
    8880022    1    1    2    0    0  0.42984387003E+03  0.72027373791E+03 -0.59959814212E+03  0.10423385224E+04  0.15294330000E+03 0.  1.
    8880022    1    1    2    0    0 -0.42984387003E+03 -0.72027373791E+03 -0.83198039740E+03  0.11912779041E+04  0.15294330000E+03 0. -1.
<mgrwt>
<rscale>  0 0.85261460E+03</rscale>
<asrwt>0</asrwt>
<pdfrwt beam="1">  1        1 0.28193807E+00 0.85261460E+03</pdfrwt>
<pdfrwt beam="2">  1       -1 0.61695223E-01 0.85261460E+03</pdfrwt>
<totfact> 0.10601366E+01</totfact>
</mgrwt>
</event>
<event>
 4    1  0.1678003E-008  0.6721484E+03  0.7818608E-02  0.9766084E-01
         -1   -1    0    0    0  501 -0.00000000000E+00  0.00000000000E+00  0.84433355847E+03  0.84433355849E+03  0.50400000000E-02 0.  1.
          1   -1    0    0  501    0  0.00000000000E+00 -0.00000000000E+00 -0.71790528571E+03  0.71790528573E+03  0.50400000000E-02 0. -1.
    8880022    1    1    2    0    0  0.60610691367E+03 -0.24703489619E+03 -0.33097579914E+03  0.74921856849E+03  0.15294330000E+03 0.  0.
    8880022    1    1    2    0    0 -0.60610691367E+03  0.24703489619E+03  0.45740407190E+03  0.81302027573E+03  0.15294330000E+03 0.  0.
<mgrwt>
<rscale>  0 0.67214841E+03</rscale>
<asrwt>0</asrwt>
<pdfrwt beam="1">  1        1 0.11044697E+00 0.67214841E+03</pdfrwt>
<pdfrwt beam="2">  1       -1 0.12989747E+00 0.67214841E+03</pdfrwt>
<totfact> 0.13844614E+01</totfact>
</mgrwt>
</event>
<event>
 4    1  0.1678003E-008  0.1925282E+03  0.7818608E-02  0.1156201E+00
          1   -1    0    0  501    0  0.00000000000E+00  0.00000000000E+00  0.83716081869E+03  0.83716081871E+03  0.50400000000E-02 0. -1.
         -1   -1    0    0    0  501 -0.00000000000E+00 -0.00000000000E+00 -0.54377681555E+03  0.54377681558E+03  0.50400000000E-02 0.  1.
    8880022    1    1    2    0    0 -0.99626284145E+02 -0.61237772162E+02  0.80845322742E+03  0.83106181189E+03  0.15294330000E+03 0. -1.
    8880022    1    1    2    0    0  0.99626284145E+02  0.61237772162E+02 -0.51506922429E+03  0.54987582240E+03  0.15294330000E+03 0.  0.
<mgrwt>
<rscale>  0 0.19252822E+03</rscale>
<asrwt>0</asrwt>
<pdfrwt beam="1">  1        1 0.12879397E+00 0.19252822E+03</pdfrwt>
<pdfrwt beam="2">  1       -1 0.83657972E-01 0.19252822E+03</pdfrwt>
<totfact> 0.33345947E+01</totfact>
</mgrwt>
</event>
<event>
 4    1  0.1678003E-008  0.5416724E+03  0.7818608E-02  0.1003440E+00
          1   -1    0    0  501    0  0.00000000000E+00  0.00000000000E+00  0.20547482883E+04  0.20547482883E+04  0.50400000000E-02 0. -1.
         -1   -1    0    0    0  501 -0.00000000000E+00 -0.00000000000E+00 -0.33951322639E+03  0.33951322643E+03  0.50400000000E-02 0.  1.
    8880022    1    1    2    0    0 -0.36911348400E+03  0.36574936904E+03  0.17688619389E+04  0.18499409658E+04  0.15294330000E+03 0.  0.
    8880022    1    1    2    0    0  0.36911348400E+03 -0.36574936904E+03 -0.53626877011E+02  0.54432054892E+03  0.15294330000E+03 0.  0.
<mgrwt>
<rscale>  0 0.54167243E+03</rscale>
<asrwt>0</asrwt>
<pdfrwt beam="1">  1        1 0.31611513E+00 0.54167243E+03</pdfrwt>
<pdfrwt beam="2">  1       -1 0.52232802E-01 0.54167243E+03</pdfrwt>
<totfact> 0.10983481E+01</totfact>
</mgrwt>
</event>
<event>
 4    1  0.1678003E-008  0.5205475E+03  0.7818608E-02  0.1008551E+00
         -1   -1    0    0    0  501 -0.00000000000E+00  0.00000000000E+00  0.13163505970E+04  0.13163505970E+04  0.50400000000E-02 0.  1.
          1   -1    0    0  501    0  0.00000000000E+00 -0.00000000000E+00 -0.42684251037E+03  0.42684251040E+03  0.50400000000E-02 0. -1.
    8880022    1    1    2    0    0  0.14941923573E+03  0.47460717829E+03 -0.18239566183E+03  0.55157765742E+03  0.15294330000E+03 0.  0.
    8880022    1    1    2    0    0 -0.14941923573E+03 -0.47460717829E+03  0.10719037484E+04  0.11916154500E+04  0.15294330000E+03 0.  0.
<mgrwt>
<rscale>  0 0.52054753E+03</rscale>
<asrwt>0</asrwt>
<pdfrwt beam="1">  1        1 0.65668079E-01 0.52054753E+03</pdfrwt>
<pdfrwt beam="2">  1       -1 0.20251547E+00 0.52054753E+03</pdfrwt>
<totfact> 0.85100631E+00</totfact>
</mgrwt>
</event>
<event>
 4    1  0.1678003E-008  0.4703715E+03  0.7818608E-02  0.1021815E+00
         -1   -1    0    0    0  501 -0.00000000000E+00  0.00000000000E+00  0.30955800837E+03  0.30955800841E+03  0.50400000000E-02 0.  1.
          1   -1    0    0  501    0  0.00000000000E+00 -0.00000000000E+00 -0.16527346925E+04  0.16527346925E+04  0.50400000000E-02 0. -1.
    8880022    1    1    2    0    0  0.22582747545E+03 -0.38322274366E+03 -0.14107432946E+04  0.14870931431E+04  0.15294330000E+03 0.  0.
    8880022    1    1    2    0    0 -0.22582747545E+03  0.38322274366E+03  0.67566610441E+02  0.47519955786E+03  0.15294330000E+03 0.  0.
<mgrwt>
<rscale>  0 0.47037153E+03</rscale>
<asrwt>0</asrwt>
<pdfrwt beam="1">  1        1 0.25426687E+00 0.47037153E+03</pdfrwt>
<pdfrwt beam="2">  1       -1 0.47624310E-01 0.47037153E+03</pdfrwt>
<totfact> 0.24510170E+01</totfact>
</mgrwt>
</event>
<event>
 4    1  0.1678003E-008  0.4645407E+03  0.7818608E-02  0.1023472E+00
          1   -1    0    0  501    0  0.00000000000E+00  0.00000000000E+00  0.21216795627E+04  0.21216795627E+04  0.50400000000E-02 0. -1.
         -1   -1    0    0    0  501 -0.00000000000E+00 -0.00000000000E+00 -0.10875606346E+03  0.10875606357E+03  0.50400000000E-02 0.  1.
    8880022    1    1    2    0    0  0.18080715270E+03 -0.39964387491E+03  0.12903033522E+04  0.13713791769E+04  0.15294330000E+03 0. -1.
    8880022    1    1    2    0    0 -0.18080715270E+03  0.39964387491E+03  0.72262014702E+03  0.85905644932E+03  0.15294330000E+03 0.  1.
<mgrwt>
<rscale>  0 0.46454075E+03</rscale>
<asrwt>0</asrwt>
<pdfrwt beam="1">  1        1 0.32641224E+00 0.46454075E+03</pdfrwt>
<pdfrwt beam="2">  1       -1 0.16731702E-01 0.46454075E+03</pdfrwt>
<totfact> 0.72887913E+01</totfact>
</mgrwt>
</event>
<event>
 4    1  0.1678003E-008  0.3066089E+03  0.7818608E-02  0.1081983E+00
         -1   -1    0    0    0  501 -0.00000000000E+00  0.00000000000E+00  0.88187678511E+02  0.88187678655E+02  0.50400000000E-02 0.  1.
          1   -1    0    0  501    0  0.00000000000E+00 -0.00000000000E+00 -0.23121208264E+04  0.23121208264E+04  0.50400000000E-02 0. -1.
    8880022    1    1    2    0    0  0.56762483093E+02 -0.25960617170E+03 -0.19930358194E+04  0.20164822772E+04  0.15294330000E+03 0.  0.
    8880022    1    1    2    0    0 -0.56762483093E+02  0.25960617170E+03 -0.23089732850E+03  0.38382622786E+03  0.15294330000E+03 0.  1.
<mgrwt>
<rscale>  0 0.30660887E+03</rscale>
<asrwt>0</asrwt>
<pdfrwt beam="1">  1        1 0.35571085E+00 0.30660887E+03</pdfrwt>
<pdfrwt beam="2">  1       -1 0.13567337E-01 0.30660887E+03</pdfrwt>
<totfact> 0.79128040E+01</totfact>
</mgrwt>
</event>
<event>
 4    1  0.1678003E-008  0.9057810E+03  0.7818608E-02  0.9418384E-01
         -1   -1    0    0    0  501 -0.00000000000E+00  0.00000000000E+00  0.74230981336E+03  0.74230981337E+03  0.50400000000E-02 0.  1.
          1   -1    0    0  501    0  0.00000000000E+00 -0.00000000000E+00 -0.11558803334E+04  0.11558803334E+04  0.50400000000E-02 0. -1.
    8880022    1    1    2    0    0 -0.85314336668E+03  0.26304747650E+03 -0.81523972937E+01  0.90581769336E+03  0.15294330000E+03 0.  0.
    8880022    1    1    2    0    0  0.85314336668E+03 -0.26304747650E+03 -0.40541812272E+03  0.99237245339E+03  0.15294330000E+03 0.  0.
<mgrwt>
<rscale>  0 0.90578101E+03</rscale>
<asrwt>0</asrwt>
<pdfrwt beam="1">  1        1 0.17782774E+00 0.90578101E+03</pdfrwt>
<pdfrwt beam="2">  1       -1 0.11420151E+00 0.90578101E+03</pdfrwt>
<totfact> 0.81501504E+00</totfact>
</mgrwt>
</event>
<event>
 4    1  0.1678003E-008  0.9842468E+03  0.7818608E-02  0.9325993E-01
          1   -1    0    0  501    0  0.00000000000E+00  0.00000000000E+00  0.89444965588E+03  0.89444965589E+03  0.50400000000E-02 0. -1.
         -1   -1    0    0    0  501 -0.00000000000E+00 -0.00000000000E+00 -0.12035109229E+04  0.12035109229E+04  0.50400000000E-02 0.  1.
    8880022    1    1    2    0    0 -0.39131455564E+03 -0.89006909492E+03  0.17732502108E+03  0.10000929413E+04  0.15294330000E+03 0.  0.
    8880022    1    1    2    0    0  0.39131455564E+03  0.89006909492E+03 -0.48638628813E+03  0.10978676375E+04  0.15294330000E+03 0.  0.
<mgrwt>
<rscale>  0 0.98424678E+03</rscale>
<asrwt>0</asrwt>
<pdfrwt beam="1">  1        1 0.13760764E+00 0.98424678E+03</pdfrwt>
<pdfrwt beam="2">  1       -1 0.18515553E+00 0.98424678E+03</pdfrwt>
<totfact> 0.35341836E+00</totfact>
</mgrwt>
</event>
<event>
 4    1  0.1678003E-008  0.3428622E+03  0.7818608E-02  0.1065583E+00
          1   -1    0    0  501    0  0.00000000000E+00  0.00000000000E+00  0.32794909171E+03  0.32794909175E+03  0.50400000000E-02 0. -1.
         -1   -1    0    0    0  501 -0.00000000000E+00 -0.00000000000E+00 -0.90646720577E+03  0.90646720578E+03  0.50400000000E-02 0.  1.
    8880022    1    1    2    0    0  0.12078900133E+02  0.30662181181E+03 -0.76915969450E+03  0.84211704885E+03  0.15294330000E+03 0.  0.
    8880022    1    1    2    0    0 -0.12078900133E+02 -0.30662181181E+03  0.19064158044E+03  0.39229924868E+03  0.15294330000E+03 0.  0.
<mgrwt>
<rscale>  0 0.34286220E+03</rscale>
<asrwt>0</asrwt>
<pdfrwt beam="1">  1        1 0.50453707E-01 0.34286220E+03</pdfrwt>
<pdfrwt beam="2">  1       -1 0.13945649E+00 0.34286220E+03</pdfrwt>
<totfact> 0.35584583E+01</totfact>
</mgrwt>
</event>
<event>
 4    1  0.1678003E-008  0.1754921E+03  0.7818608E-02  0.1172239E+00
         -1   -1    0    0    0  501 -0.00000000000E+00  0.00000000000E+00  0.12006214554E+03  0.12006214565E+03  0.50400000000E-02 0.  1.
          1   -1    0    0  501    0  0.00000000000E+00 -0.00000000000E+00 -0.25651283675E+03  0.25651283680E+03  0.50400000000E-02 0. -1.
    8880022    1    1    2    0    0 -0.81480690537E+02 -0.27689599943E+02 -0.68109400049E+02  0.18824547874E+03  0.15294330000E+03 0. -1.
    8880022    1    1    2    0    0  0.81480690537E+02  0.27689599943E+02 -0.68341291161E+02  0.18832950371E+03  0.15294330000E+03 0.  1.
<mgrwt>
<rscale>  0 0.17549208E+03</rscale>
<asrwt>0</asrwt>
<pdfrwt beam="1">  1        1 0.39463513E-01 0.17549208E+03</pdfrwt>
<pdfrwt beam="2">  1       -1 0.18471099E-01 0.17549208E+03</pdfrwt>
<totfact> 0.24122360E+03</totfact>
</mgrwt>
</event>
<event>
 4    1  0.1678003E-008  0.1298414E+04  0.7818608E-02  0.9030824E-01
          1   -1    0    0  501    0  0.00000000000E+00  0.00000000000E+00  0.93637952922E+03  0.93637952923E+03  0.50400000000E-02 0. -1.
         -1   -1    0    0    0  501 -0.00000000000E+00 -0.00000000000E+00 -0.24911718609E+04  0.24911718609E+04  0.50400000000E-02 0.  1.
    8880022    1    1    2    0    0 -0.74400295468E+03 -0.10530658483E+04 -0.16798231207E+04  0.21231310481E+04  0.15294330000E+03 0.  0.
    8880022    1    1    2    0    0  0.74400295468E+03  0.10530658483E+04  0.12503078907E+03  0.13044203420E+04  0.15294330000E+03 0.  0.
<mgrwt>
<rscale>  0 0.12984143E+04</rscale>
<asrwt>0</asrwt>
<pdfrwt beam="1">  1        1 0.14405839E+00 0.12984143E+04</pdfrwt>
<pdfrwt beam="2">  1       -1 0.38325721E+00 0.12984143E+04</pdfrwt>
<totfact> 0.15461349E-01</totfact>
</mgrwt>
</event>
<event>
 4    1  0.1678003E-008  0.2447917E+03  0.7818608E-02  0.1116641E+00
          1   -1    0    0  501    0  0.00000000000E+00  0.00000000000E+00  0.14093065813E+04  0.14093065813E+04  0.50400000000E-02 0. -1.
         -1   -1    0    0    0  501 -0.00000000000E+00 -0.00000000000E+00 -0.87477798773E+03  0.87477798774E+03  0.50400000000E-02 0.  1.
    8880022    1    1    2    0    0  0.77520034598E+02 -0.17470539909E+03  0.13812057926E+04  0.14027303471E+04  0.15294330000E+03 0.  0.
    8880022    1    1    2    0    0 -0.77520034598E+02  0.17470539909E+03 -0.84667719900E+03  0.88135422195E+03  0.15294330000E+03 0.  1.
<mgrwt>
<rscale>  0 0.24479172E+03</rscale>
<asrwt>0</asrwt>
<pdfrwt beam="1">  1        1 0.21681640E+00 0.24479172E+03</pdfrwt>
<pdfrwt beam="2">  1       -1 0.13458123E+00 0.24479172E+03</pdfrwt>
<totfact> 0.42566409E+00</totfact>
</mgrwt>
</event>
<event>
 4    1  0.1678003E-008  0.3638792E+03  0.7818608E-02  0.1057058E+00
          1   -1    0    0  501    0  0.00000000000E+00  0.00000000000E+00  0.18554977802E+04  0.18554977802E+04  0.50400000000E-02 0. -1.
         -1   -1    0    0    0  501 -0.00000000000E+00 -0.00000000000E+00 -0.25071083747E+03  0.25071083752E+03  0.50400000000E-02 0.  1.
    8880022    1    1    2    0    0 -0.53900282070E+02  0.32574706289E+03  0.16931042802E+04  0.17317650378E+04  0.15294330000E+03 0.  0.
    8880022    1    1    2    0    0  0.53900282070E+02 -0.32574706289E+03 -0.88317337550E+02  0.37444357988E+03  0.15294330000E+03 0.  0.
<mgrwt>
<rscale>  0 0.36387916E+03</rscale>
<asrwt>0</asrwt>
<pdfrwt beam="1">  1        1 0.28546120E+00 0.36387916E+03</pdfrwt>
<pdfrwt beam="2">  1       -1 0.38570898E-01 0.36387916E+03</pdfrwt>
<totfact> 0.27126349E+01</totfact>
</mgrwt>
</event>
<event>
 4    1  0.1937243E-008  0.3972878E+03  0.7818608E-02  0.1044723E+00
         -1   -1    0    0    0  501 -0.00000000000E+00  0.00000000000E+00  0.92644107392E+03  0.92644107393E+03  0.50400000000E-02 0.  1.
          1   -1    0    0  501    0  0.00000000000E+00 -0.00000000000E+00 -0.31419439186E+04  0.31419439186E+04  0.50400000000E-02 0. -1.
    8880022    1    1    2    0    0  0.29134581288E+03  0.22262879782E+03 -0.30860239235E+04  0.31114918084E+04  0.15294330000E+03 0.  0.
    8880022    1    1    2    0    0 -0.29134581288E+03 -0.22262879782E+03  0.87052107878E+03  0.95689318417E+03  0.15294330000E+03 0.  0.
<mgrwt>
<rscale>  0 0.39728783E+03</rscale>
<asrwt>0</asrwt>
<pdfrwt beam="1">  1        1 0.48337598E+00 0.39728783E+03</pdfrwt>
<pdfrwt beam="2">  1       -1 0.14252940E+00 0.39728783E+03</pdfrwt>
<totfact> 0.23336322E-01</totfact>
</mgrwt>
</event>
<event>
 4    1  0.1678003E-008  0.3350977E+03  0.7818608E-02  0.1068903E+00
         -1   -1    0    0    0  501 -0.00000000000E+00  0.00000000000E+00  0.13609898176E+04  0.13609898176E+04  0.50400000000E-02 0.  1.
          1   -1    0    0  501    0  0.00000000000E+00 -0.00000000000E+00 -0.19157418395E+03  0.19157418402E+03  0.50400000000E-02 0. -1.
    8880022    1    1    2    0    0 -0.27440803104E+03  0.11661482172E+03 -0.10244798377E+01  0.33509921921E+03  0.15294330000E+03 0.  0.
    8880022    1    1    2    0    0  0.27440803104E+03 -0.11661482172E+03  0.11704401135E+04  0.12174647824E+04  0.15294330000E+03 0.  0.
<mgrwt>
<rscale>  0 0.33509765E+03</rscale>
<asrwt>0</asrwt>
<pdfrwt beam="1">  1        1 0.29472951E-01 0.33509765E+03</pdfrwt>
<pdfrwt beam="2">  1       -1 0.20938305E+00 0.33509765E+03</pdfrwt>
<totfact> 0.22257331E+01</totfact>
</mgrwt>
</event>
<event>
 4    1  0.1678003E-008  0.2268041E+03  0.7818608E-02  0.1128910E+00
         -1   -1    0    0    0  501 -0.00000000000E+00  0.00000000000E+00  0.26229241490E+03  0.26229241495E+03  0.50400000000E-02 0.  1.
          1   -1    0    0  501    0  0.00000000000E+00 -0.00000000000E+00 -0.27307087818E+03  0.27307087823E+03  0.50400000000E-02 0. -1.
    8880022    1    1    2    0    0 -0.14883721976E+03 -0.76784977399E+02  0.13671108898E+03  0.26482074240E+03  0.15294330000E+03 0.  0.
    8880022    1    1    2    0    0  0.14883721976E+03  0.76784977399E+02 -0.14748955226E+03  0.27054255077E+03  0.15294330000E+03 0. -1.
<mgrwt>
<rscale>  0 0.22680411E+03</rscale>
<asrwt>0</asrwt>
<pdfrwt beam="1">  1        1 0.42010904E-01 0.22680411E+03</pdfrwt>
<pdfrwt beam="2">  1       -1 0.40352679E-01 0.22680411E+03</pdfrwt>
<totfact> 0.60257692E+02</totfact>
</mgrwt>
</event>
<event>
 4    1  0.1678003E-008  0.1541654E+03  0.7818608E-02  0.1195446E+00
          1   -1    0    0  501    0  0.00000000000E+00  0.00000000000E+00  0.93674650838E+03  0.93674650839E+03  0.50400000000E-02 0. -1.
         -1   -1    0    0    0  501 -0.00000000000E+00 -0.00000000000E+00 -0.35759667188E+03  0.35759667191E+03  0.50400000000E-02 0.  1.
    8880022    1    1    2    0    0  0.67193382179E+01 -0.18170486012E+02  0.91336543004E+03  0.92628471750E+03  0.15294330000E+03 0. -1.
    8880022    1    1    2    0    0 -0.67193382179E+01  0.18170486012E+02 -0.33421559353E+03  0.36805846281E+03  0.15294330000E+03 0.  0.
<mgrwt>
<rscale>  0 0.15416540E+03</rscale>
<asrwt>0</asrwt>
<pdfrwt beam="1">  1        1 0.14411485E+00 0.15416540E+03</pdfrwt>
<pdfrwt beam="2">  1       -1 0.55014873E-01 0.15416540E+03</pdfrwt>
<totfact> 0.64794863E+01</totfact>
</mgrwt>
</event>
<event>
 4    1  0.1678003E-008  0.2660884E+03  0.7818608E-02  0.1103539E+00
          1   -1    0    0  501    0  0.00000000000E+00  0.00000000000E+00  0.61241211474E+03  0.61241211476E+03  0.50400000000E-02 0. -1.
         -1   -1    0    0    0  501 -0.00000000000E+00 -0.00000000000E+00 -0.54075916452E+03  0.54075916454E+03  0.50400000000E-02 0.  1.
    8880022    1    1    2    0    0 -0.21623551519E+03  0.25565659945E+02 -0.47542055706E+03  0.54481901590E+03  0.15294330000E+03 0.  0.
    8880022    1    1    2    0    0  0.21623551519E+03 -0.25565659945E+02  0.54707350728E+03  0.60835226340E+03  0.15294330000E+03 0. -1.
<mgrwt>
<rscale>  0 0.26608843E+03</rscale>
<asrwt>0</asrwt>
<pdfrwt beam="1">  1        1 0.94217248E-01 0.26608843E+03</pdfrwt>
<pdfrwt beam="2">  1       -1 0.83193718E-01 0.26608843E+03</pdfrwt>
<totfact> 0.52189217E+01</totfact>
</mgrwt>
</event>
<event>
 4    1  0.1678003E-008  0.3411666E+03  0.7818608E-02  0.1066300E+00
         -1   -1    0    0    0  501 -0.00000000000E+00  0.00000000000E+00  0.81443228513E+02  0.81443228669E+02  0.50400000000E-02 0.  1.
          1   -1    0    0  501    0  0.00000000000E+00 -0.00000000000E+00 -0.29438317717E+04  0.29438317717E+04  0.50400000000E-02 0. -1.
    8880022    1    1    2    0    0 -0.74031463454E+02  0.29584179333E+03 -0.25162171981E+04  0.25392407655E+04  0.15294330000E+03 0.  0.
    8880022    1    1    2    0    0  0.74031463454E+02 -0.29584179333E+03 -0.34617134506E+03  0.48603423482E+03  0.15294330000E+03 0.  0.
<mgrwt>
<rscale>  0 0.34116664E+03</rscale>
<asrwt>0</asrwt>
<pdfrwt beam="1">  1        1 0.45289711E+00 0.34116664E+03</pdfrwt>
<pdfrwt beam="2">  1       -1 0.12529730E-01 0.34116664E+03</pdfrwt>
<totfact> 0.33184935E+01</totfact>
</mgrwt>
</event>
<event>
 4    1  0.1678003E-008  0.7729067E+03  0.7818608E-02  0.9600083E-01
         -1   -1    0    0    0  501 -0.00000000000E+00  0.00000000000E+00  0.76431482792E+03  0.76431482794E+03  0.50400000000E-02 0.  1.
          1   -1    0    0  501    0  0.00000000000E+00 -0.00000000000E+00 -0.10912849267E+04  0.10912849267E+04  0.50400000000E-02 0. -1.
    8880022    1    1    2    0    0 -0.75437653966E+03  0.70065164785E+02  0.33076723362E+03  0.84070905000E+03  0.15294330000E+03 0.  0.
    8880022    1    1    2    0    0  0.75437653966E+03 -0.70065164785E+02 -0.65773733236E+03  0.10148907046E+04  0.15294330000E+03 0.  0.
<mgrwt>
<rscale>  0 0.77290669E+03</rscale>
<asrwt>0</asrwt>
<pdfrwt beam="1">  1        1 0.16788999E+00 0.77290669E+03</pdfrwt>
<pdfrwt beam="2">  1       -1 0.11758690E+00 0.77290669E+03</pdfrwt>
<totfact> 0.86323636E+00</totfact>
</mgrwt>
</event>
<event>
 4    1  0.1678003E-008  0.4962962E+03  0.7818608E-02  0.1014750E+00
         -1   -1    0    0    0  501 -0.00000000000E+00  0.00000000000E+00  0.34323656198E+03  0.34323656202E+03  0.50400000000E-02 0.  1.
          1   -1    0    0  501    0  0.00000000000E+00 -0.00000000000E+00 -0.10407319763E+04  0.10407319763E+04  0.50400000000E-02 0. -1.
    8880022    1    1    2    0    0  0.17762041923E+03 -0.43745772683E+03  0.36828421550E+02  0.49766078983E+03  0.15294330000E+03 0.  0.
    8880022    1    1    2    0    0 -0.17762041923E+03  0.43745772683E+03 -0.73432383582E+03  0.88630774845E+03  0.15294330000E+03 0.  0.
<mgrwt>
<rscale>  0 0.49629621E+03</rscale>
<asrwt>0</asrwt>
<pdfrwt beam="1">  1        1 0.16011261E+00 0.49629621E+03</pdfrwt>
<pdfrwt beam="2">  1       -1 0.52805625E-01 0.49629621E+03</pdfrwt>
<totfact> 0.53690981E+01</totfact>
</mgrwt>
</event>
<event>
 4    1  0.1678003E-008  0.7580039E+03  0.7818608E-02  0.9622876E-01
          1   -1    0    0  501    0  0.00000000000E+00  0.00000000000E+00  0.11204426119E+04  0.11204426119E+04  0.50400000000E-02 0. -1.
         -1   -1    0    0    0  501 -0.00000000000E+00 -0.00000000000E+00 -0.84732159144E+03  0.84732159146E+03  0.50400000000E-02 0.  1.
    8880022    1    1    2    0    0 -0.13188127776E+03 -0.73060636228E+03  0.75475757626E+03  0.10696863933E+04  0.15294330000E+03 0.  0.
    8880022    1    1    2    0    0  0.13188127776E+03  0.73060636228E+03 -0.48163655581E+03  0.89807781007E+03  0.15294330000E+03 0.  0.
<mgrwt>
<rscale>  0 0.75800395E+03</rscale>
<asrwt>0</asrwt>
<pdfrwt beam="1">  1        1 0.17237579E+00 0.75800395E+03</pdfrwt>
<pdfrwt beam="2">  1       -1 0.13035717E+00 0.75800395E+03</pdfrwt>
<totfact> 0.63783319E+00</totfact>
</mgrwt>
</event>
<event>
 4    1  0.1678003E-008  0.7191115E+03  0.7818608E-02  0.9685096E-01
          1   -1    0    0  501    0  0.00000000000E+00  0.00000000000E+00  0.98023265183E+03  0.98023265184E+03  0.50400000000E-02 0. -1.
         -1   -1    0    0    0  501 -0.00000000000E+00 -0.00000000000E+00 -0.88380542833E+03  0.88380542834E+03  0.50400000000E-02 0.  1.
    8880022    1    1    2    0    0 -0.59923064788E+03 -0.36695005764E+03  0.63994884173E+03  0.96262967293E+03  0.15294330000E+03 0.  0.
    8880022    1    1    2    0    0  0.59923064788E+03  0.36695005764E+03 -0.54352161823E+03  0.90140840725E+03  0.15294330000E+03 0.  0.
<mgrwt>
<rscale>  0 0.71911151E+03</rscale>
<asrwt>0</asrwt>
<pdfrwt beam="1">  1        1 0.15080502E+00 0.71911151E+03</pdfrwt>
<pdfrwt beam="2">  1       -1 0.13597007E+00 0.71911151E+03</pdfrwt>
<totfact> 0.73674300E+00</totfact>
</mgrwt>
</event>
<event>
 4    1  0.1678003E-008  0.4800388E+03  0.7818608E-02  0.1019124E+00
         -1   -1    0    0    0  501 -0.00000000000E+00  0.00000000000E+00  0.23600483325E+03  0.23600483330E+03  0.50400000000E-02 0.  1.
          1   -1    0    0  501    0  0.00000000000E+00 -0.00000000000E+00 -0.14827719679E+04  0.14827719679E+04  0.50400000000E-02 0. -1.
    8880022    1    1    2    0    0  0.47916679801E+02  0.45249267119E+03 -0.12117605133E+03  0.49509687347E+03  0.15294330000E+03 0.  0.
    8880022    1    1    2    0    0 -0.47916679801E+02 -0.45249267119E+03 -0.11255910833E+04  0.12236799278E+04  0.15294330000E+03 0.  0.
<mgrwt>
<rscale>  0 0.48003883E+03</rscale>
<asrwt>0</asrwt>
<pdfrwt beam="1">  1        1 0.22811876E+00 0.48003883E+03</pdfrwt>
<pdfrwt beam="2">  1       -1 0.36308437E-01 0.48003883E+03</pdfrwt>
<totfact> 0.52068273E+01</totfact>
</mgrwt>
</event>
<event>
 4    1  0.1678003E-008  0.2591358E+03  0.7818608E-02  0.1107664E+00
          1   -1    0    0  501    0  0.00000000000E+00  0.00000000000E+00  0.40013794602E+03  0.40013794606E+03  0.50400000000E-02 0. -1.
         -1   -1    0    0    0  501 -0.00000000000E+00 -0.00000000000E+00 -0.24540114171E+03  0.24540114176E+03  0.50400000000E-02 0.  1.
    8880022    1    1    2    0    0  0.11852021461E+03  0.17237367692E+03 -0.10411242200E+03  0.27926828534E+03  0.15294330000E+03 0.  1.
    8880022    1    1    2    0    0 -0.11852021461E+03 -0.17237367692E+03  0.25884922632E+03  0.36627080248E+03  0.15294330000E+03 0.  0.
<mgrwt>
<rscale>  0 0.25913583E+03</rscale>
<asrwt>0</asrwt>
<pdfrwt beam="1">  1        1 0.61559683E-01 0.25913583E+03</pdfrwt>
<pdfrwt beam="2">  1       -1 0.37754022E-01 0.25913583E+03</pdfrwt>
<totfact> 0.41725607E+02</totfact>
</mgrwt>
</event>
<event>
 4    1  0.1678003E-008  0.4668706E+03  0.7818608E-02  0.1022807E+00
         -1   -1    0    0    0  501 -0.00000000000E+00  0.00000000000E+00  0.94362184659E+03  0.94362184660E+03  0.50400000000E-02 0.  1.
          1   -1    0    0  501    0  0.00000000000E+00 -0.00000000000E+00 -0.53341492199E+03  0.53341492201E+03  0.50400000000E-02 0. -1.
    8880022    1    1    2    0    0  0.25421136839E+03  0.36049000898E+03 -0.35097596405E+03  0.58408239723E+03  0.15294330000E+03 0.  0.
    8880022    1    1    2    0    0 -0.25421136839E+03 -0.36049000898E+03  0.76118288865E+03  0.89295437139E+03  0.15294330000E+03 0.  0.
<mgrwt>
<rscale>  0 0.46687056E+03</rscale>
<asrwt>0</asrwt>
<pdfrwt beam="1">  1        1 0.82063835E-01 0.46687056E+03</pdfrwt>
<pdfrwt beam="2">  1       -1 0.14517259E+00 0.46687056E+03</pdfrwt>
<totfact> 0.16509063E+01</totfact>
</mgrwt>
</event>
<event>
 4    1  0.1678003E-008  0.2166903E+03  0.7818608E-02  0.1136375E+00
         -1   -1    0    0    0  501 -0.00000000000E+00  0.00000000000E+00  0.17537259754E+03  0.17537259762E+03  0.50400000000E-02 0.  1.
          1   -1    0    0  501    0  0.00000000000E+00 -0.00000000000E+00 -0.11227949956E+04  0.11227949956E+04  0.50400000000E-02 0. -1.
    8880022    1    1    2    0    0 -0.60287725863E+02  0.14116805634E+03  0.92719710512E+02  0.23569392812E+03  0.15294330000E+03 0.  0.
    8880022    1    1    2    0    0  0.60287725863E+02 -0.14116805634E+03 -0.10401421086E+04  0.10624736651E+04  0.15294330000E+03 0. -1.
<mgrwt>
<rscale>  0 0.21669029E+03</rscale>
<asrwt>0</asrwt>
<pdfrwt beam="1">  1        1 0.17273769E+00 0.21669029E+03</pdfrwt>
<pdfrwt beam="2">  1       -1 0.26980400E-01 0.21669029E+03</pdfrwt>
<totfact> 0.16258866E+02</totfact>
</mgrwt>
</event>
<event>
 4    1  0.1678003E-008  0.4545971E+03  0.7818608E-02  0.1026360E+00
         -1   -1    0    0    0  501 -0.00000000000E+00  0.00000000000E+00  0.41079566201E+03  0.41079566204E+03  0.50400000000E-02 0.  1.
          1   -1    0    0  501    0  0.00000000000E+00 -0.00000000000E+00 -0.10052879316E+04  0.10052879317E+04  0.50400000000E-02 0. -1.
    8880022    1    1    2    0    0  0.42332223315E+03 -0.63758550694E+02 -0.79769562060E+03  0.91813769229E+03  0.15294330000E+03 0.  0.
    8880022    1    1    2    0    0 -0.42332223315E+03  0.63758550694E+02  0.20320335096E+03  0.49794590140E+03  0.15294330000E+03 0.  0.
<mgrwt>
<rscale>  0 0.45459710E+03</rscale>
<asrwt>0</asrwt>
<pdfrwt beam="1">  1        1 0.15465968E+00 0.45459710E+03</pdfrwt>
<pdfrwt beam="2">  1       -1 0.63199333E-01 0.45459710E+03</pdfrwt>
<totfact> 0.40602191E+01</totfact>
</mgrwt>
</event>
<event>
 4    1  0.1678003E-008  0.5347034E+03  0.7818608E-02  0.1005098E+00
          1   -1    0    0  501    0  0.00000000000E+00  0.00000000000E+00  0.42491344564E+03  0.42491344567E+03  0.50400000000E-02 0. -1.
         -1   -1    0    0    0  501 -0.00000000000E+00 -0.00000000000E+00 -0.92107011554E+03  0.92107011555E+03  0.50400000000E-02 0.  1.
    8880022    1    1    2    0    0 -0.49282688227E+03  0.14013460051E+03 -0.59743759484E+03  0.80177264539E+03  0.15294330000E+03 0.  0.
    8880022    1    1    2    0    0  0.49282688227E+03 -0.14013460051E+03  0.10128092494E+03  0.54421091584E+03  0.15294330000E+03 0.  0.
<mgrwt>
<rscale>  0 0.53470337E+03</rscale>
<asrwt>0</asrwt>
<pdfrwt beam="1">  1        1 0.65371300E-01 0.53470337E+03</pdfrwt>
<pdfrwt beam="2">  1       -1 0.14170309E+00 0.53470337E+03</pdfrwt>
<totfact> 0.23630512E+01</totfact>
</mgrwt>
</event>
<event>
 4    1  0.1678003E-008  0.4198428E+03  0.7818608E-02  0.1037117E+00
          1   -1    0    0  501    0  0.00000000000E+00  0.00000000000E+00  0.15436426623E+04  0.15436426623E+04  0.50400000000E-02 0. -1.
         -1   -1    0    0    0  501 -0.00000000000E+00 -0.00000000000E+00 -0.33874106151E+03  0.33874106155E+03  0.50400000000E-02 0.  1.
    8880022    1    1    2    0    0  0.33503659885E+03 -0.20156099004E+03  0.13687566493E+04  0.14316992608E+04  0.15294330000E+03 0.  0.
    8880022    1    1    2    0    0 -0.33503659885E+03  0.20156099004E+03 -0.16385504856E+03  0.45068446304E+03  0.15294330000E+03 0.  0.
<mgrwt>
<rscale>  0 0.41984284E+03</rscale>
<asrwt>0</asrwt>
<pdfrwt beam="1">  1        1 0.23748349E+00 0.41984284E+03</pdfrwt>
<pdfrwt beam="2">  1       -1 0.52114008E-01 0.41984284E+03</pdfrwt>
<totfact> 0.24763819E+01</totfact>
</mgrwt>
</event>
<event>
 4    1  0.1678003E-008  0.4055689E+03  0.7818608E-02  0.1041868E+00
         -1   -1    0    0    0  501 -0.00000000000E+00  0.00000000000E+00  0.30891529854E+03  0.30891529858E+03  0.50400000000E-02 0.  1.
          1   -1    0    0  501    0  0.00000000000E+00 -0.00000000000E+00 -0.19396460636E+04  0.19396460636E+04  0.50400000000E-02 0. -1.
    8880022    1    1    2    0    0  0.37362779101E+03  0.38688098746E+02  0.14224470524E+03  0.42979030280E+03  0.15294330000E+03 0.  0.
    8880022    1    1    2    0    0 -0.37362779101E+03 -0.38688098746E+02 -0.17729754703E+04  0.18187710594E+04  0.15294330000E+03 0.  0.
<mgrwt>
<rscale>  0 0.40556892E+03</rscale>
<asrwt>0</asrwt>
<pdfrwt beam="1">  1        1 0.29840708E+00 0.40556892E+03</pdfrwt>
<pdfrwt beam="2">  1       -1 0.47525432E-01 0.40556892E+03</pdfrwt>
<totfact> 0.16155210E+01</totfact>
</mgrwt>
</event>
<event>
 4    1  0.1678003E-008  0.1036962E+04  0.7818608E-02  0.9268909E-01
         -1   -1    0    0    0  501 -0.00000000000E+00  0.00000000000E+00  0.88222306843E+03  0.88222306845E+03  0.50400000000E-02 0.  1.
          1   -1    0    0  501    0  0.00000000000E+00 -0.00000000000E+00 -0.17743902975E+04  0.17743902975E+04  0.50400000000E-02 0. -1.
    8880022    1    1    2    0    0 -0.28566503198E+02 -0.10252234266E+04 -0.11893330420E+04  0.15779112324E+04  0.15294330000E+03 0.  0.
    8880022    1    1    2    0    0  0.28566503198E+02  0.10252234266E+04  0.29716581298E+03  0.10787021335E+04  0.15294330000E+03 0.  0.
<mgrwt>
<rscale>  0 0.10369623E+04</rscale>
<asrwt>0</asrwt>
<pdfrwt beam="1">  1        1 0.27298312E+00 0.10369623E+04</pdfrwt>
<pdfrwt beam="2">  1       -1 0.13572663E+00 0.10369623E+04</pdfrwt>
<totfact> 0.19323696E+00</totfact>
</mgrwt>
</event>
<event>
 4    1  0.1678003E-008  0.3523952E+03  0.7818608E-02  0.1061636E+00
         -1   -1    0    0    0  501 -0.00000000000E+00  0.00000000000E+00  0.48021779595E+03  0.48021779597E+03  0.50400000000E-02 0.  1.
          1   -1    0    0  501    0  0.00000000000E+00 -0.00000000000E+00 -0.27212681162E+03  0.27212681167E+03  0.50400000000E-02 0. -1.
    8880022    1    1    2    0    0  0.53073170407E+02 -0.31300790238E+03  0.18792664763E+03  0.39937299142E+03  0.15294330000E+03 0.  1.
    8880022    1    1    2    0    0 -0.53073170407E+02  0.31300790238E+03  0.20164336699E+02  0.35297161622E+03  0.15294330000E+03 0. -1.
<mgrwt>
<rscale>  0 0.35239518E+03</rscale>
<asrwt>0</asrwt>
<pdfrwt beam="1">  1        1 0.41865663E-01 0.35239518E+03</pdfrwt>
<pdfrwt beam="2">  1       -1 0.73879661E-01 0.35239518E+03</pdfrwt>
<totfact> 0.19067417E+02</totfact>
</mgrwt>
</event>
<event>
 4    1  0.1678003E-008  0.6512026E+03  0.7818608E-02  0.9804525E-01
         -1   -1    0    0    0  501 -0.00000000000E+00  0.00000000000E+00  0.90113737072E+03  0.90113737073E+03  0.50400000000E-02 0.  1.
          1   -1    0    0  501    0  0.00000000000E+00 -0.00000000000E+00 -0.15885569784E+04  0.15885569784E+04  0.50400000000E-02 0. -1.
    8880022    1    1    2    0    0 -0.25821396880E+03  0.57792627229E+03  0.70060015363E+03  0.95650690440E+03  0.15294330000E+03 0.  0.
    8880022    1    1    2    0    0  0.25821396880E+03 -0.57792627229E+03 -0.13880197613E+04  0.15331874447E+04  0.15294330000E+03 0.  0.
<mgrwt>
<rscale>  0 0.65120264E+03</rscale>
<asrwt>0</asrwt>
<pdfrwt beam="1">  1        1 0.24439338E+00 0.65120264E+03</pdfrwt>
<pdfrwt beam="2">  1       -1 0.13863652E+00 0.65120264E+03</pdfrwt>
<totfact> 0.26086696E+00</totfact>
</mgrwt>
</event>
<event>
 4    1  0.1678003E-008  0.2834192E+03  0.7818608E-02  0.1093836E+00
          1   -1    0    0  501    0  0.00000000000E+00  0.00000000000E+00  0.90066795671E+03  0.90066795672E+03  0.50400000000E-02 0. -1.
         -1   -1    0    0    0  501 -0.00000000000E+00 -0.00000000000E+00 -0.15376737741E+03  0.15376737749E+03  0.50400000000E-02 0.  1.
    8880022    1    1    2    0    0 -0.20510212709E+03  0.12193395296E+03  0.71512556173E+03  0.76924053031E+03  0.15294330000E+03 0.  0.
    8880022    1    1    2    0    0  0.20510212709E+03 -0.12193395296E+03  0.31775017569E+02  0.28519480391E+03  0.15294330000E+03 0.  1.
<mgrwt>
<rscale>  0 0.28341917E+03</rscale>
<asrwt>0</asrwt>
<pdfrwt beam="1">  1        1 0.13856430E+00 0.28341917E+03</pdfrwt>
<pdfrwt beam="2">  1       -1 0.23656519E-01 0.28341917E+03</pdfrwt>
<totfact> 0.29316934E+02</totfact>
</mgrwt>
</event>
<event>
 4    1  0.2128918E-008  0.8942183E+03  0.7818608E-02  0.9432838E-01
         -1   -1    0    0    0  501 -0.00000000000E+00  0.00000000000E+00  0.14981493763E+04  0.14981493763E+04  0.50400000000E-02 0.  1.
          1   -1    0    0  501    0  0.00000000000E+00 -0.00000000000E+00 -0.14950041639E+04  0.14950041639E+04  0.50400000000E-02 0. -1.
    8880022    1    1    2    0    0 -0.88031448770E+03  0.35791818113E+02  0.12016204559E+04  0.14978377831E+04  0.15294330000E+03 0.  1.
    8880022    1    1    2    0    0  0.88031448770E+03 -0.35791818113E+02 -0.11984752435E+04  0.14953157572E+04  0.15294330000E+03 0.  0.
<mgrwt>
<rscale>  0 0.89421826E+03</rscale>
<asrwt>0</asrwt>
<pdfrwt beam="1">  1        1 0.23000064E+00 0.89421826E+03</pdfrwt>
<pdfrwt beam="2">  1       -1 0.23048452E+00 0.89421826E+03</pdfrwt>
<totfact> 0.63498284E-01</totfact>
</mgrwt>
</event>
<event>
 4    1  0.1678003E-008  0.3631209E+03  0.7818608E-02  0.1057355E+00
         -1   -1    0    0    0  501 -0.00000000000E+00  0.00000000000E+00  0.26004819680E+03  0.26004819684E+03  0.50400000000E-02 0.  1.
          1   -1    0    0  501    0  0.00000000000E+00 -0.00000000000E+00 -0.85589977589E+03  0.85589977591E+03  0.50400000000E-02 0. -1.
    8880022    1    1    2    0    0  0.20845573258E+03 -0.25497315393E+03  0.58298357995E+02  0.36777092493E+03  0.15294330000E+03 0.  0.
    8880022    1    1    2    0    0 -0.20845573258E+03  0.25497315393E+03 -0.65414993709E+03  0.74817704782E+03  0.15294330000E+03 0.  0.
<mgrwt>
<rscale>  0 0.36312085E+03</rscale>
<asrwt>0</asrwt>
<pdfrwt beam="1">  1        1 0.13167689E+00 0.36312085E+03</pdfrwt>
<pdfrwt beam="2">  1       -1 0.40007415E-01 0.36312085E+03</pdfrwt>
<totfact> 0.12745625E+02</totfact>
</mgrwt>
</event>
<event>
 4    1  0.1678003E-008  0.4107355E+03  0.7818608E-02  0.1040124E+00
         -1   -1    0    0    0  501 -0.00000000000E+00  0.00000000000E+00  0.46574509676E+03  0.46574509679E+03  0.50400000000E-02 0.  1.
          1   -1    0    0  501    0  0.00000000000E+00 -0.00000000000E+00 -0.10498609362E+04  0.10498609362E+04  0.50400000000E-02 0. -1.
    8880022    1    1    2    0    0  0.33303105085E+03 -0.18547857763E+03 -0.90535418682E+03  0.99416791348E+03  0.15294330000E+03 0.  0.
    8880022    1    1    2    0    0 -0.33303105085E+03  0.18547857763E+03  0.32123834742E+03  0.52143811949E+03  0.15294330000E+03 0.  1.
<mgrwt>
<rscale>  0 0.41073548E+03</rscale>
<asrwt>0</asrwt>
<pdfrwt beam="1">  1        1 0.16151707E+00 0.41073548E+03</pdfrwt>
<pdfrwt beam="2">  1       -1 0.71653092E-01 0.41073548E+03</pdfrwt>
<totfact> 0.29464402E+01</totfact>
</mgrwt>
</event>
<event>
 4    1  0.1678003E-008  0.5408046E+03  0.7818608E-02  0.1003645E+00
         -1   -1    0    0    0  501 -0.00000000000E+00  0.00000000000E+00  0.28925647007E+03  0.28925647011E+03  0.50400000000E-02 0.  1.
          1   -1    0    0  501    0  0.00000000000E+00 -0.00000000000E+00 -0.11328331055E+04  0.11328331055E+04  0.50400000000E-02 0. -1.
    8880022    1    1    2    0    0  0.51612588047E+03  0.51884785452E+02 -0.65486755759E+03  0.84930626187E+03  0.15294330000E+03 0.  0.
    8880022    1    1    2    0    0 -0.51612588047E+03 -0.51884785452E+02 -0.18870907786E+03  0.57278331377E+03  0.15294330000E+03 0.  0.
<mgrwt>
<rscale>  0 0.54080459E+03</rscale>
<asrwt>0</asrwt>
<pdfrwt beam="1">  1        1 0.17428201E+00 0.54080459E+03</pdfrwt>
<pdfrwt beam="2">  1       -1 0.44500996E-01 0.54080459E+03</pdfrwt>
<totfact> 0.62781505E+01</totfact>
</mgrwt>
</event>
<event>
 4    1  0.1747576E-008  0.9105919E+03  0.7818608E-02  0.9412437E-01
          1   -1    0    0  501    0  0.00000000000E+00  0.00000000000E+00  0.28783367080E+04  0.28783367080E+04  0.50400000000E-02 0. -1.
         -1   -1    0    0    0  501 -0.00000000000E+00 -0.00000000000E+00 -0.73995814841E+03  0.73995814842E+03  0.50400000000E-02 0.  1.
    8880022    1    1    2    0    0 -0.59334720047E+03 -0.67359115582E+03 -0.34459558553E+03  0.97361374070E+03  0.15294330000E+03 0.  0.
    8880022    1    1    2    0    0  0.59334720047E+03  0.67359115582E+03  0.24829741451E+04  0.26446811157E+04  0.15294330000E+03 0.  0.
<mgrwt>
<rscale>  0 0.91059189E+03</rscale>
<asrwt>0</asrwt>
<pdfrwt beam="1">  1        1 0.44282103E+00 0.91059189E+03</pdfrwt>
<pdfrwt beam="2">  1       -1 0.11383972E+00 0.91059189E+03</pdfrwt>
<totfact> 0.53689476E-01</totfact>
</mgrwt>
</event>
<event>
 4    1  0.1678003E-008  0.4688858E+03  0.7818608E-02  0.1022235E+00
         -1   -1    0    0    0  501 -0.00000000000E+00  0.00000000000E+00  0.17070878464E+04  0.17070878464E+04  0.50400000000E-02 0.  1.
          1   -1    0    0  501    0  0.00000000000E+00 -0.00000000000E+00 -0.38924768962E+03  0.38924768965E+03  0.50400000000E-02 0. -1.
    8880022    1    1    2    0    0 -0.38772448253E+02 -0.44154153814E+03 -0.19848751847E+03  0.50916714412E+03  0.15294330000E+03 0.  0.
    8880022    1    1    2    0    0  0.38772448253E+02  0.44154153814E+03  0.15163276752E+04  0.15871683919E+04  0.15294330000E+03 0.  0.
<mgrwt>
<rscale>  0 0.46888579E+03</rscale>
<asrwt>0</asrwt>
<pdfrwt beam="1">  1        1 0.59884261E-01 0.46888579E+03</pdfrwt>
<pdfrwt beam="2">  1       -1 0.26262890E+00 0.46888579E+03</pdfrwt>
<totfact> 0.39472687E+00</totfact>
</mgrwt>
</event>
<event>
 4    1  0.1678003E-008  0.3476108E+03  0.7818608E-02  0.1063600E+00
         -1   -1    0    0    0  501 -0.00000000000E+00  0.00000000000E+00  0.16099617405E+03  0.16099617413E+03  0.50400000000E-02 0.  1.
          1   -1    0    0  501    0  0.00000000000E+00 -0.00000000000E+00 -0.14745282922E+04  0.14745282922E+04  0.50400000000E-02 0. -1.
    8880022    1    1    2    0    0 -0.28912731504E+03 -0.11767336411E+03 -0.83748752393E+02  0.35755717231E+03  0.15294330000E+03 0.  0.
    8880022    1    1    2    0    0  0.28912731504E+03  0.11767336411E+03 -0.12297833658E+04  0.12779672941E+04  0.15294330000E+03 0.  0.
<mgrwt>
<rscale>  0 0.34761081E+03</rscale>
<asrwt>0</asrwt>
<pdfrwt beam="1">  1        1 0.22685050E+00 0.34761081E+03</pdfrwt>
<pdfrwt beam="2">  1       -1 0.24768643E-01 0.34761081E+03</pdfrwt>
<totfact> 0.10448943E+02</totfact>
</mgrwt>
</event>
<event>
 4    1  0.1678003E-008  0.7237353E+03  0.7818608E-02  0.9677481E-01
         -1   -1    0    0    0  501 -0.00000000000E+00  0.00000000000E+00  0.39594562497E+03  0.39594562500E+03  0.50400000000E-02 0.  1.
          1   -1    0    0  501    0  0.00000000000E+00 -0.00000000000E+00 -0.16694793118E+04  0.16694793118E+04  0.50400000000E-02 0. -1.
    8880022    1    1    2    0    0  0.70606795564E+03  0.43234761326E+02 -0.11073061761E+04  0.13228453512E+04  0.15294330000E+03 0.  0.
    8880022    1    1    2    0    0 -0.70606795564E+03 -0.43234761326E+02 -0.16622751070E+03  0.74257958557E+03  0.15294330000E+03 0.  0.
<mgrwt>
<rscale>  0 0.72373535E+03</rscale>
<asrwt>0</asrwt>
<pdfrwt beam="1">  1        1 0.25684297E+00 0.72373535E+03</pdfrwt>
<pdfrwt beam="2">  1       -1 0.60914713E-01 0.72373535E+03</pdfrwt>
<totfact> 0.14252439E+01</totfact>
</mgrwt>
</event>
<event>
 4    1  0.1678003E-008  0.4304909E+03  0.7818608E-02  0.1033705E+00
          1   -1    0    0  501    0  0.00000000000E+00  0.00000000000E+00  0.84819404431E+03  0.84819404433E+03  0.50400000000E-02 0. -1.
         -1   -1    0    0    0  501 -0.00000000000E+00 -0.00000000000E+00 -0.33162331175E+03  0.33162331179E+03  0.50400000000E-02 0.  1.
    8880022    1    1    2    0    0  0.21196630210E+03  0.34205412608E+03  0.60283868323E+03  0.74076775673E+03  0.15294330000E+03 0.  0.
    8880022    1    1    2    0    0 -0.21196630210E+03 -0.34205412608E+03 -0.86267950670E+02  0.43904959938E+03  0.15294330000E+03 0.  0.
<mgrwt>
<rscale>  0 0.43049087E+03</rscale>
<asrwt>0</asrwt>
<pdfrwt beam="1">  1        1 0.13049139E+00 0.43049087E+03</pdfrwt>
<pdfrwt beam="2">  1       -1 0.51018971E-01 0.43049087E+03</pdfrwt>
<totfact> 0.81961725E+01</totfact>
</mgrwt>
</event>
<event>
 4    1  0.1678003E-008  0.3998680E+03  0.7818608E-02  0.1043825E+00
          1   -1    0    0  501    0  0.00000000000E+00  0.00000000000E+00  0.19755515150E+04  0.19755515150E+04  0.50400000000E-02 0. -1.
         -1   -1    0    0    0  501 -0.00000000000E+00 -0.00000000000E+00 -0.35427855741E+03  0.35427855744E+03  0.50400000000E-02 0.  1.
    8880022    1    1    2    0    0  0.12477885574E+03 -0.34775417210E+03  0.18338705305E+04  0.18769591106E+04  0.15294330000E+03 0.  0.
    8880022    1    1    2    0    0 -0.12477885574E+03  0.34775417210E+03 -0.21259757295E+03  0.45287096185E+03  0.15294330000E+03 0.  0.
<mgrwt>
<rscale>  0 0.39986795E+03</rscale>
<asrwt>0</asrwt>
<pdfrwt beam="1">  1        1 0.30393101E+00 0.39986795E+03</pdfrwt>
<pdfrwt beam="2">  1       -1 0.54504392E-01 0.39986795E+03</pdfrwt>
<totfact> 0.11849178E+01</totfact>
</mgrwt>
</event>
<event>
 4    1  0.1678003E-008  0.3942363E+03  0.7818608E-02  0.1045794E+00
          1   -1    0    0  501    0  0.00000000000E+00  0.00000000000E+00  0.37046299579E+03  0.37046299583E+03  0.50400000000E-02 0. -1.
         -1   -1    0    0    0  501 -0.00000000000E+00 -0.00000000000E+00 -0.50299824846E+03  0.50299824848E+03  0.50400000000E-02 0.  1.
    8880022    1    1    2    0    0 -0.14747731313E+03  0.33208595661E+03 -0.24416819812E+03  0.46372448981E+03  0.15294330000E+03 0.  1.
    8880022    1    1    2    0    0  0.14747731313E+03 -0.33208595661E+03  0.11163294545E+03  0.40973675450E+03  0.15294330000E+03 0.  0.
<mgrwt>
<rscale>  0 0.39423634E+03</rscale>
<asrwt>0</asrwt>
<pdfrwt beam="1">  1        1 0.56994307E-01 0.39423634E+03</pdfrwt>
<pdfrwt beam="2">  1       -1 0.77384346E-01 0.39423634E+03</pdfrwt>
<totfact> 0.11630736E+02</totfact>
</mgrwt>
</event>
<event>
 4    1  0.1678003E-008  0.4032345E+03  0.7818608E-02  0.1042665E+00
          1   -1    0    0  501    0  0.00000000000E+00  0.00000000000E+00  0.28643842514E+04  0.28643842514E+04  0.50400000000E-02 0. -1.
         -1   -1    0    0    0  501 -0.00000000000E+00 -0.00000000000E+00 -0.17570999316E+03  0.17570999323E+03  0.50400000000E-02 0.  1.
    8880022    1    1    2    0    0 -0.35851517141E+03 -0.10331151339E+03  0.93700659309E+02  0.41397809543E+03  0.15294330000E+03 0.  0.
    8880022    1    1    2    0    0  0.35851517141E+03  0.10331151339E+03  0.25949735990E+04  0.26261161492E+04  0.15294330000E+03 0.  0.
<mgrwt>
<rscale>  0 0.40323449E+03</rscale>
<asrwt>0</asrwt>
<pdfrwt beam="1">  1        1 0.44067448E+00 0.40323449E+03</pdfrwt>
<pdfrwt beam="2">  1       -1 0.27032308E-01 0.40323449E+03</pdfrwt>
<totfact> 0.10520452E+01</totfact>
</mgrwt>
</event>
<event>
 4    1  0.1678003E-008  0.3294664E+03  0.7818608E-02  0.1071373E+00
          1   -1    0    0  501    0  0.00000000000E+00  0.00000000000E+00  0.21491494679E+03  0.21491494685E+03  0.50400000000E-02 0. -1.
         -1   -1    0    0    0  501 -0.00000000000E+00 -0.00000000000E+00 -0.95252559103E+03  0.95252559104E+03  0.50400000000E-02 0.  1.
    8880022    1    1    2    0    0  0.15571293137E+03 -0.24679939349E+03  0.31267562369E+02  0.33094677986E+03  0.15294330000E+03 0. -1.
    8880022    1    1    2    0    0 -0.15571293137E+03  0.24679939349E+03 -0.76887820660E+03  0.83649375804E+03  0.15294330000E+03 0.  0.
<mgrwt>
<rscale>  0 0.32946640E+03</rscale>
<asrwt>0</asrwt>
<pdfrwt beam="1">  1        1 0.33063838E-01 0.32946640E+03</pdfrwt>
<pdfrwt beam="2">  1       -1 0.14654240E+00 0.32946640E+03</pdfrwt>
<totfact> 0.53686414E+01</totfact>
</mgrwt>
</event>
<event>
 4    1  0.1678003E-008  0.1940271E+03  0.7818608E-02  0.1154879E+00
          1   -1    0    0  501    0  0.00000000000E+00  0.00000000000E+00  0.16305452377E+04  0.16305452377E+04  0.50400000000E-02 0. -1.
         -1   -1    0    0    0  501 -0.00000000000E+00 -0.00000000000E+00 -0.33055947593E+03  0.33055947597E+03  0.50400000000E-02 0.  1.
    8880022    1    1    2    0    0 -0.78295718735E+02 -0.90136771363E+02 -0.29569579774E+03  0.35367006509E+03  0.15294330000E+03 0.  0.
    8880022    1    1    2    0    0  0.78295718735E+02  0.90136771363E+02  0.15956815595E+04  0.16074346486E+04  0.15294330000E+03 0.  0.
<mgrwt>
<rscale>  0 0.19402709E+03</rscale>
<asrwt>0</asrwt>
<pdfrwt beam="1">  1        1 0.25085312E+00 0.19402709E+03</pdfrwt>
<pdfrwt beam="2">  1       -1 0.50855304E-01 0.19402709E+03</pdfrwt>
<totfact> 0.24584438E+01</totfact>
</mgrwt>
</event>
<event>
 4    1  0.1678003E-008  0.3344557E+03  0.7818608E-02  0.1069182E+00
         -1   -1    0    0    0  501 -0.00000000000E+00  0.00000000000E+00  0.25010444111E+03  0.25010444116E+03  0.50400000000E-02 0.  1.
          1   -1    0    0  501    0  0.00000000000E+00 -0.00000000000E+00 -0.57880854038E+03  0.57880854040E+03  0.50400000000E-02 0. -1.
    8880022    1    1    2    0    0  0.29699561830E+03 -0.16203074730E+02 -0.36194065912E+03  0.49280993360E+03  0.15294330000E+03 0.  0.
    8880022    1    1    2    0    0 -0.29699561830E+03  0.16203074730E+02  0.33236559843E+02  0.33610304796E+03  0.15294330000E+03 0.  1.
<mgrwt>
<rscale>  0 0.33445566E+03</rscale>
<asrwt>0</asrwt>
<pdfrwt beam="1">  1        1 0.89047467E-01 0.33445566E+03</pdfrwt>
<pdfrwt beam="2">  1       -1 0.38477606E-01 0.33445566E+03</pdfrwt>
<totfact> 0.24529686E+02</totfact>
</mgrwt>
</event>
<event>
 4    1  0.1678003E-008  0.1560136E+04  0.7818608E-02  0.8845419E-01
          1   -1    0    0  501    0  0.00000000000E+00  0.00000000000E+00  0.30044382504E+04  0.30044382504E+04  0.50400000000E-02 0. -1.
         -1   -1    0    0    0  501 -0.00000000000E+00 -0.00000000000E+00 -0.10213795680E+04  0.10213795680E+04  0.50400000000E-02 0.  1.
    8880022    1    1    2    0    0 -0.14110799263E+04  0.64767815459E+03  0.76120947883E+02  0.15619921901E+04  0.15294330000E+03 0.  0.
    8880022    1    1    2    0    0  0.14110799263E+04 -0.64767815459E+03  0.19069377345E+04  0.24638256283E+04  0.15294330000E+03 0.  0.
<mgrwt>
<rscale>  0 0.15601363E+04</rscale>
<asrwt>0</asrwt>
<pdfrwt beam="1">  1        1 0.46222127E+00 0.15601363E+04</pdfrwt>
<pdfrwt beam="2">  1       -1 0.15713532E+00 0.15601363E+04</pdfrwt>
<totfact> 0.17215840E-01</totfact>
</mgrwt>
</event>
<event>
 4    1  0.1678003E-008  0.4528417E+03  0.7818608E-02  0.1026878E+00
         -1   -1    0    0    0  501 -0.00000000000E+00  0.00000000000E+00  0.21129157956E+03  0.21129157962E+03  0.50400000000E-02 0.  1.
          1   -1    0    0  501    0  0.00000000000E+00 -0.00000000000E+00 -0.11643806889E+04  0.11643806889E+04  0.50400000000E-02 0. -1.
    8880022    1    1    2    0    0  0.40138360947E+03  0.14340543687E+03 -0.75719591270E+03  0.88227616113E+03  0.15294330000E+03 0.  0.
    8880022    1    1    2    0    0 -0.40138360947E+03 -0.14340543687E+03 -0.19589319663E+03  0.49339610738E+03  0.15294330000E+03 0. -1.
<mgrwt>
<rscale>  0 0.45284167E+03</rscale>
<asrwt>0</asrwt>
<pdfrwt beam="1">  1        1 0.17913549E+00 0.45284167E+03</pdfrwt>
<pdfrwt beam="2">  1       -1 0.32506397E-01 0.45284167E+03</pdfrwt>
<totfact> 0.10578586E+02</totfact>
</mgrwt>
</event>
<event>
 4    1  0.1678003E-008  0.5465485E+03  0.7818608E-02  0.1002296E+00
          1   -1    0    0  501    0  0.00000000000E+00  0.00000000000E+00  0.17961561876E+04  0.17961561876E+04  0.50400000000E-02 0. -1.
         -1   -1    0    0    0  501 -0.00000000000E+00 -0.00000000000E+00 -0.28083308063E+03  0.28083308067E+03  0.50400000000E-02 0.  1.
    8880022    1    1    2    0    0  0.17288582999E+03 -0.49541300732E+03  0.14208399287E+04  0.15223341664E+04  0.15294330000E+03 0.  0.
    8880022    1    1    2    0    0 -0.17288582999E+03  0.49541300732E+03  0.94483178190E+02  0.55465510185E+03  0.15294330000E+03 0.  0.
<mgrwt>
<rscale>  0 0.54654845E+03</rscale>
<asrwt>0</asrwt>
<pdfrwt beam="1">  1        1 0.27633171E+00 0.54654845E+03</pdfrwt>
<pdfrwt beam="2">  1       -1 0.43205091E-01 0.54654845E+03</pdfrwt>
<totfact> 0.23197347E+01</totfact>
</mgrwt>
</event>
<event>
 4    1  0.1678003E-008  0.8103023E+03  0.7818608E-02  0.9545223E-01
         -1   -1    0    0    0  501 -0.00000000000E+00  0.00000000000E+00  0.39235942541E+03  0.39235942544E+03  0.50400000000E-02 0.  1.
          1   -1    0    0  501    0  0.00000000000E+00 -0.00000000000E+00 -0.27669044201E+04  0.27669044201E+04  0.50400000000E-02 0. -1.
    8880022    1    1    2    0    0  0.75752361686E+03  0.24363124895E+03 -0.21802998154E+04  0.23260045472E+04  0.15294330000E+03 0.  0.
    8880022    1    1    2    0    0 -0.75752361686E+03 -0.24363124895E+03 -0.19424517928E+03  0.83325929833E+03  0.15294330000E+03 0.  0.
<mgrwt>
<rscale>  0 0.81030233E+03</rscale>
<asrwt>0</asrwt>
<pdfrwt beam="1">  1        1 0.42567759E+00 0.81030233E+03</pdfrwt>
<pdfrwt beam="2">  1       -1 0.60362990E-01 0.81030233E+03</pdfrwt>
<totfact> 0.25854234E+00</totfact>
</mgrwt>
</event>
<event>
 4    1  0.1678003E-008  0.3103854E+03  0.7818608E-02  0.1080161E+00
          1   -1    0    0  501    0  0.00000000000E+00  0.00000000000E+00  0.36914044626E+03  0.36914044629E+03  0.50400000000E-02 0. -1.
         -1   -1    0    0    0  501 -0.00000000000E+00 -0.00000000000E+00 -0.40449435723E+03  0.40449435726E+03  0.50400000000E-02 0.  1.
    8880022    1    1    2    0    0  0.21463195693E+03  0.16395285486E+03  0.21272925795E+03  0.37628819508E+03  0.15294330000E+03 0.  0.
    8880022    1    1    2    0    0 -0.21463195693E+03 -0.16395285486E+03 -0.24808316892E+03  0.39734660848E+03  0.15294330000E+03 0. -1.
<mgrwt>
<rscale>  0 0.31038535E+03</rscale>
<asrwt>0</asrwt>
<pdfrwt beam="1">  1        1 0.56790838E-01 0.31038535E+03</pdfrwt>
<pdfrwt beam="2">  1       -1 0.62229901E-01 0.31038535E+03</pdfrwt>
<totfact> 0.18282947E+02</totfact>
</mgrwt>
</event>
<event>
 4    1  0.1678003E-008  0.8096468E+03  0.7818608E-02  0.9546158E-01
         -1   -1    0    0    0  501 -0.00000000000E+00  0.00000000000E+00  0.16159472147E+04  0.16159472147E+04  0.50400000000E-02 0.  1.
          1   -1    0    0  501    0  0.00000000000E+00 -0.00000000000E+00 -0.11290453372E+04  0.11290453373E+04  0.50400000000E-02 0. -1.
    8880022    1    1    2    0    0  0.25646601501E+03 -0.75256992915E+03  0.13420514852E+04  0.15673640793E+04  0.15294330000E+03 0.  0.
    8880022    1    1    2    0    0 -0.25646601501E+03  0.75256992915E+03 -0.85514960772E+03  0.11776284727E+04  0.15294330000E+03 0.  0.
<mgrwt>
<rscale>  0 0.80964682E+03</rscale>
<asrwt>0</asrwt>
<pdfrwt beam="1">  1        1 0.17369928E+00 0.80964682E+03</pdfrwt>
<pdfrwt beam="2">  1       -1 0.24860726E+00 0.80964682E+03</pdfrwt>
<totfact> 0.89397476E-01</totfact>
</mgrwt>
</event>
<event>
 4    1  0.1678003E-008  0.4322033E+03  0.7818608E-02  0.1033166E+00
          1   -1    0    0  501    0  0.00000000000E+00  0.00000000000E+00  0.11166853078E+04  0.11166853079E+04  0.50400000000E-02 0. -1.
         -1   -1    0    0    0  501 -0.00000000000E+00 -0.00000000000E+00 -0.66707633190E+03  0.66707633192E+03  0.50400000000E-02 0.  1.
    8880022    1    1    2    0    0 -0.18624422615E+03 -0.35877726587E+03 -0.54719207658E+03  0.69729395521E+03  0.15294330000E+03 0.  1.
    8880022    1    1    2    0    0  0.18624422615E+03  0.35877726587E+03  0.99680105252E+03  0.10864676846E+04  0.15294330000E+03 0.  0.
<mgrwt>
<rscale>  0 0.43220330E+03</rscale>
<asrwt>0</asrwt>
<pdfrwt beam="1">  1        1 0.17179774E+00 0.43220330E+03</pdfrwt>
<pdfrwt beam="2">  1       -1 0.10262713E+00 0.43220330E+03</pdfrwt>
<totfact> 0.12102939E+01</totfact>
</mgrwt>
</event>
<event>
 4    1  0.1678003E-008  0.9094820E+03  0.7818608E-02  0.9413806E-01
         -1   -1    0    0    0  501 -0.00000000000E+00  0.00000000000E+00  0.75398094767E+03  0.75398094769E+03  0.50400000000E-02 0.  1.
          1   -1    0    0  501    0  0.00000000000E+00 -0.00000000000E+00 -0.16516663401E+04  0.16516663401E+04  0.50400000000E-02 0. -1.
    8880022    1    1    2    0    0 -0.89652735543E+03  0.21164783035E+01 -0.11458474825E+04  0.14629162261E+04  0.15294330000E+03 0.  0.
    8880022    1    1    2    0    0  0.89652735543E+03 -0.21164783035E+01  0.24816209014E+03  0.94273106160E+03  0.15294330000E+03 0.  0.
<mgrwt>
<rscale>  0 0.90948196E+03</rscale>
<asrwt>0</asrwt>
<pdfrwt beam="1">  1        1 0.25410251E+00 0.90948196E+03</pdfrwt>
<pdfrwt beam="2">  1       -1 0.11599707E+00 0.90948196E+03</pdfrwt>
<totfact> 0.35248767E+00</totfact>
</mgrwt>
</event>
<event>
 4    1  0.1678003E-008  0.4155199E+03  0.7818608E-02  0.1038534E+00
          1   -1    0    0  501    0  0.00000000000E+00  0.00000000000E+00  0.15240250970E+04  0.15240250970E+04  0.50400000000E-02 0. -1.
         -1   -1    0    0    0  501 -0.00000000000E+00 -0.00000000000E+00 -0.32561000320E+03  0.32561000323E+03  0.50400000000E-02 0.  1.
    8880022    1    1    2    0    0  0.39623635839E+02 -0.38431124849E+03  0.13460046719E+04  0.14086821494E+04  0.15294330000E+03 0.  0.
    8880022    1    1    2    0    0 -0.39623635839E+02  0.38431124849E+03 -0.14758957814E+03  0.44095295080E+03  0.15294330000E+03 0.  0.
<mgrwt>
<rscale>  0 0.41551994E+03</rscale>
<asrwt>0</asrwt>
<pdfrwt beam="1">  1        1 0.23446540E+00 0.41551994E+03</pdfrwt>
<pdfrwt beam="2">  1       -1 0.50093846E-01 0.41551994E+03</pdfrwt>
<totfact> 0.27523386E+01</totfact>
</mgrwt>
</event>
<event>
 4    1  0.1678003E-008  0.5788899E+03  0.7818608E-02  0.9950197E-01
          1   -1    0    0  501    0  0.00000000000E+00  0.00000000000E+00  0.14005220893E+04  0.14005220894E+04  0.50400000000E-02 0. -1.
         -1   -1    0    0    0  501 -0.00000000000E+00 -0.00000000000E+00 -0.32965956363E+03  0.32965956367E+03  0.50400000000E-02 0.  1.
    8880022    1    1    2    0    0 -0.54570816191E+03  0.11800173159E+03  0.82460748637E+02  0.58473347323E+03  0.15294330000E+03 0.  1.
    8880022    1    1    2    0    0  0.54570816191E+03 -0.11800173159E+03  0.98840177708E+03  0.11454481798E+04  0.15294330000E+03 0. -1.
<mgrwt>
<rscale>  0 0.57888985E+03</rscale>
<asrwt>0</asrwt>
<pdfrwt beam="1">  1        1 0.21546493E+00 0.57888985E+03</pdfrwt>
<pdfrwt beam="2">  1       -1 0.50716857E-01 0.57888985E+03</pdfrwt>
<totfact> 0.31630992E+01</totfact>
</mgrwt>
</event>
<event>
 4    1  0.1678003E-008  0.4556354E+03  0.7818608E-02  0.1026055E+00
          1   -1    0    0  501    0  0.00000000000E+00  0.00000000000E+00  0.34551883123E+03  0.34551883127E+03  0.50400000000E-02 0. -1.
         -1   -1    0    0    0  501 -0.00000000000E+00 -0.00000000000E+00 -0.68834522847E+03  0.68834522849E+03  0.50400000000E-02 0.  1.
    8880022    1    1    2    0    0 -0.22559158953E+03  0.36513067247E+03 -0.35571614064E+03  0.57804636403E+03  0.15294330000E+03 0.  1.
    8880022    1    1    2    0    0  0.22559158953E+03 -0.36513067247E+03  0.12889743400E+02  0.45581769573E+03  0.15294330000E+03 0. -1.
<mgrwt>
<rscale>  0 0.45563541E+03</rscale>
<asrwt>0</asrwt>
<pdfrwt beam="1">  1        1 0.53156743E-01 0.45563541E+03</pdfrwt>
<pdfrwt beam="2">  1       -1 0.10589927E+00 0.45563541E+03</pdfrwt>
<totfact> 0.63703013E+01</totfact>
</mgrwt>
</event>
<event>
 4    1  0.1678003E-008  0.2915768E+03  0.7818608E-02  0.1089529E+00
          1   -1    0    0  501    0  0.00000000000E+00  0.00000000000E+00  0.13041182156E+04  0.13041182156E+04  0.50400000000E-02 0. -1.
         -1   -1    0    0    0  501 -0.00000000000E+00 -0.00000000000E+00 -0.23322142982E+03  0.23322142988E+03  0.50400000000E-02 0.  1.
    8880022    1    1    2    0    0 -0.23629637701E+03  0.76088255680E+02 -0.11700469894E+03  0.31417694542E+03  0.15294330000E+03 0.  1.
    8880022    1    1    2    0    0  0.23629637701E+03 -0.76088255680E+02  0.11879014847E+04  0.12231627001E+04  0.15294330000E+03 0.  0.
<mgrwt>
<rscale>  0 0.29157684E+03</rscale>
<asrwt>0</asrwt>
<pdfrwt beam="1">  1        1 0.20063357E+00 0.29157684E+03</pdfrwt>
<pdfrwt beam="2">  1       -1 0.35880221E-01 0.29157684E+03</pdfrwt>
<totfact> 0.73160703E+01</totfact>
</mgrwt>
</event>
<event>
 4    1  0.1678003E-008  0.9273003E+03  0.7818608E-02  0.9392084E-01
          1   -1    0    0  501    0  0.00000000000E+00  0.00000000000E+00  0.86864269711E+03  0.86864269713E+03  0.50400000000E-02 0. -1.
         -1   -1    0    0    0  501 -0.00000000000E+00 -0.00000000000E+00 -0.10975754183E+04  0.10975754183E+04  0.50400000000E-02 0.  1.
    8880022    1    1    2    0    0 -0.77744371065E+03  0.48174208963E+03  0.19343009592E+03  0.94725974219E+03  0.15294330000E+03 0.  0.
    8880022    1    1    2    0    0  0.77744371065E+03 -0.48174208963E+03 -0.42236281714E+03  0.10189583733E+04  0.15294330000E+03 0.  0.
<mgrwt>
<rscale>  0 0.92730028E+03</rscale>
<asrwt>0</asrwt>
<pdfrwt beam="1">  1        1 0.13363734E+00 0.92730028E+03</pdfrwt>
<pdfrwt beam="2">  1       -1 0.16885776E+00 0.92730028E+03</pdfrwt>
<totfact> 0.49014498E+00</totfact>
</mgrwt>
</event>
<event>
 4    1  0.1678003E-008  0.6950917E+03  0.7818608E-02  0.9725663E-01
          1   -1    0    0  501    0  0.00000000000E+00  0.00000000000E+00  0.23522567555E+04  0.23522567555E+04  0.50400000000E-02 0. -1.
         -1   -1    0    0    0  501 -0.00000000000E+00 -0.00000000000E+00 -0.81441764510E+03  0.81441764511E+03  0.50400000000E-02 0.  1.
    8880022    1    1    2    0    0 -0.63810167353E+03 -0.22931864217E+03 -0.60027427281E+03  0.91841256580E+03  0.15294330000E+03 0.  0.
    8880022    1    1    2    0    0  0.63810167353E+03  0.22931864217E+03  0.21381133832E+04  0.22482618348E+04  0.15294330000E+03 0.  0.
<mgrwt>
<rscale>  0 0.69509168E+03</rscale>
<asrwt>0</asrwt>
<pdfrwt beam="1">  1        1 0.36188565E+00 0.69509168E+03</pdfrwt>
<pdfrwt beam="2">  1       -1 0.12529502E+00 0.69509168E+03</pdfrwt>
<totfact> 0.10277574E+00</totfact>
</mgrwt>
</event>
<event>
 4    1  0.1678003E-008  0.3192179E+03  0.7818608E-02  0.1076010E+00
         -1   -1    0    0    0  501 -0.00000000000E+00  0.00000000000E+00  0.19258428207E+03  0.19258428213E+03  0.50400000000E-02 0.  1.
          1   -1    0    0  501    0  0.00000000000E+00 -0.00000000000E+00 -0.15164106044E+04  0.15164106044E+04  0.50400000000E-02 0. -1.
    8880022    1    1    2    0    0  0.18721463633E+03 -0.20846845443E+03  0.27572131746E+02  0.32040644814E+03  0.15294330000E+03 0.  1.
    8880022    1    1    2    0    0 -0.18721463633E+03  0.20846845443E+03 -0.13513984541E+04  0.13885884384E+04  0.15294330000E+03 0.  0.
<mgrwt>
<rscale>  0 0.31921790E+03</rscale>
<asrwt>0</asrwt>
<pdfrwt beam="1">  1        1 0.23329393E+00 0.31921790E+03</pdfrwt>
<pdfrwt beam="2">  1       -1 0.29628352E-01 0.31921790E+03</pdfrwt>
<totfact> 0.72774605E+01</totfact>
</mgrwt>
</event>
<event>
 4    1  0.1678003E-008  0.3874550E+03  0.7818608E-02  0.1048212E+00
          1   -1    0    0  501    0  0.00000000000E+00  0.00000000000E+00  0.62306416169E+03  0.62306416171E+03  0.50400000000E-02 0. -1.
         -1   -1    0    0    0  501 -0.00000000000E+00 -0.00000000000E+00 -0.62577545136E+03  0.62577545138E+03  0.50400000000E-02 0.  1.
    8880022    1    1    2    0    0  0.24701774878E+03  0.25634337329E+03  0.48831571532E+03  0.62335670694E+03  0.15294330000E+03 0.  0.
    8880022    1    1    2    0    0 -0.24701774878E+03 -0.25634337329E+03 -0.49102700499E+03  0.62548290615E+03  0.15294330000E+03 0.  0.
<mgrwt>
<rscale>  0 0.38745496E+03</rscale>
<asrwt>0</asrwt>
<pdfrwt beam="1">  1        1 0.95856024E-01 0.38745496E+03</pdfrwt>
<pdfrwt beam="2">  1       -1 0.96273147E-01 0.38745496E+03</pdfrwt>
<totfact> 0.36192160E+01</totfact>
</mgrwt>
</event>
<event>
 4    1  0.1678003E-008  0.1009763E+04  0.7818608E-02  0.9297901E-01
         -1   -1    0    0    0  501 -0.00000000000E+00  0.00000000000E+00  0.90934688856E+03  0.90934688857E+03  0.50400000000E-02 0.  1.
          1   -1    0    0  501    0  0.00000000000E+00 -0.00000000000E+00 -0.18411093731E+04  0.18411093731E+04  0.50400000000E-02 0. -1.
    8880022    1    1    2    0    0  0.13529076760E+03  0.98890178403E+03  0.39402918846E+03  0.10839192704E+04  0.15294330000E+03 0.  0.
    8880022    1    1    2    0    0 -0.13529076760E+03 -0.98890178403E+03 -0.13257916730E+04  0.16665369913E+04  0.15294330000E+03 0.  0.
<mgrwt>
<rscale>  0 0.10097633E+04</rscale>
<asrwt>0</asrwt>
<pdfrwt beam="1">  1        1 0.28324760E+00 0.10097633E+04</pdfrwt>
<pdfrwt beam="2">  1       -1 0.13989952E+00 0.10097633E+04</pdfrwt>
<totfact> 0.16163492E+00</totfact>
</mgrwt>
</event>
<event>
 4    1  0.1678003E-008  0.2749688E+03  0.7818608E-02  0.1098469E+00
          1   -1    0    0  501    0  0.00000000000E+00  0.00000000000E+00  0.17645803646E+04  0.17645803646E+04  0.50400000000E-02 0. -1.
         -1   -1    0    0    0  501 -0.00000000000E+00 -0.00000000000E+00 -0.20975004773E+03  0.20975004779E+03  0.50400000000E-02 0.  1.
    8880022    1    1    2    0    0  0.38994472651E+01  0.22847534365E+03  0.16579981652E+04  0.16806444470E+04  0.15294330000E+03 0.  0.
    8880022    1    1    2    0    0 -0.38994472651E+01 -0.22847534365E+03 -0.10316784832E+03  0.29368596542E+03  0.15294330000E+03 0.  0.
<mgrwt>
<rscale>  0 0.27496880E+03</rscale>
<asrwt>0</asrwt>
<pdfrwt beam="1">  1        1 0.27147391E+00 0.27496880E+03</pdfrwt>
<pdfrwt beam="2">  1       -1 0.32269238E-01 0.27496880E+03</pdfrwt>
<totfact> 0.43698034E+01</totfact>
</mgrwt>
</event>
<event>
 4    1  0.1678003E-008  0.6562566E+03  0.7818608E-02  0.9795109E-01
          1   -1    0    0  501    0  0.00000000000E+00  0.00000000000E+00  0.10502176281E+04  0.10502176281E+04  0.50400000000E-02 0. -1.
         -1   -1    0    0    0  501 -0.00000000000E+00 -0.00000000000E+00 -0.74834693339E+03  0.74834693341E+03  0.50400000000E-02 0.  1.
    8880022    1    1    2    0    0  0.15714457411E+03 -0.61853586927E+03 -0.45367371977E+03  0.79780482311E+03  0.15294330000E+03 0.  0.
    8880022    1    1    2    0    0 -0.15714457411E+03  0.61853586927E+03  0.75554441446E+03  0.10007597384E+04  0.15294330000E+03 0. -1.
<mgrwt>
<rscale>  0 0.65625657E+03</rscale>
<asrwt>0</asrwt>
<pdfrwt beam="1">  1        1 0.16157194E+00 0.65625657E+03</pdfrwt>
<pdfrwt beam="2">  1       -1 0.11513030E+00 0.65625657E+03</pdfrwt>
<totfact> 0.99225550E+00</totfact>
</mgrwt>
</event>
<event>
 4    1  0.1678003E-008  0.4492183E+03  0.7818608E-02  0.1027955E+00
          1   -1    0    0  501    0  0.00000000000E+00  0.00000000000E+00  0.74850848532E+03  0.74850848533E+03  0.50400000000E-02 0. -1.
         -1   -1    0    0    0  501 -0.00000000000E+00 -0.00000000000E+00 -0.51610632978E+03  0.51610632980E+03  0.50400000000E-02 0.  1.
    8880022    1    1    2    0    0 -0.21266301983E+03 -0.36493819791E+03  0.55319323241E+03  0.71261480036E+03  0.15294330000E+03 0.  0.
    8880022    1    1    2    0    0  0.21266301983E+03  0.36493819791E+03 -0.32079107687E+03  0.55200001477E+03  0.15294330000E+03 0.  0.
<mgrwt>
<rscale>  0 0.44921832E+03</rscale>
<asrwt>0</asrwt>
<pdfrwt beam="1">  1        1 0.11515515E+00 0.44921832E+03</pdfrwt>
<pdfrwt beam="2">  1       -1 0.79400974E-01 0.44921832E+03</pdfrwt>
<totfact> 0.41389800E+01</totfact>
</mgrwt>
</event>
<event>
 4    1  0.1678003E-008  0.3053322E+03  0.7818608E-02  0.1082605E+00
          1   -1    0    0  501    0  0.00000000000E+00  0.00000000000E+00  0.71293302596E+03  0.71293302597E+03  0.50400000000E-02 0. -1.
         -1   -1    0    0    0  501 -0.00000000000E+00 -0.00000000000E+00 -0.69188786529E+03  0.69188786531E+03  0.50400000000E-02 0.  1.
    8880022    1    1    2    0    0  0.23368355435E+03 -0.12340218878E+03 -0.62203710100E+03  0.69293427668E+03  0.15294330000E+03 0.  0.
    8880022    1    1    2    0    0 -0.23368355435E+03  0.12340218878E+03  0.64308226166E+03  0.71188661460E+03  0.15294330000E+03 0.  0.
<mgrwt>
<rscale>  0 0.30533221E+03</rscale>
<asrwt>0</asrwt>
<pdfrwt beam="1">  1        1 0.10968200E+00 0.30533221E+03</pdfrwt>
<pdfrwt beam="2">  1       -1 0.10644429E+00 0.30533221E+03</pdfrwt>
<totfact> 0.24177103E+01</totfact>
</mgrwt>
</event>
<event>
 4    1  0.1678003E-008  0.6115921E+03  0.7818608E-02  0.9881644E-01
         -1   -1    0    0    0  501 -0.00000000000E+00  0.00000000000E+00  0.51790488341E+03  0.51790488343E+03  0.50400000000E-02 0.  1.
          1   -1    0    0  501    0  0.00000000000E+00 -0.00000000000E+00 -0.20856924508E+04  0.20856924508E+04  0.50400000000E-02 0. -1.
    8880022    1    1    2    0    0 -0.51858988353E+03 -0.28586314972E+03  0.26865144259E+03  0.66799585200E+03  0.15294330000E+03 0.  0.
    8880022    1    1    2    0    0  0.51858988353E+03  0.28586314972E+03 -0.18364390100E+04  0.19356014822E+04  0.15294330000E+03 0.  0.
<mgrwt>
<rscale>  0 0.61159207E+03</rscale>
<asrwt>0</asrwt>
<pdfrwt beam="1">  1        1 0.32087576E+00 0.61159207E+03</pdfrwt>
<pdfrwt beam="2">  1       -1 0.79677676E-01 0.61159207E+03</pdfrwt>
<totfact> 0.44353582E+00</totfact>
</mgrwt>
</event>
<event>
 4    1  0.1678003E-008  0.6833356E+03  0.7818608E-02  0.9746163E-01
         -1   -1    0    0    0  501 -0.00000000000E+00  0.00000000000E+00  0.25433722620E+03  0.25433722625E+03  0.50400000000E-02 0.  1.
          1   -1    0    0  501    0  0.00000000000E+00 -0.00000000000E+00 -0.30081512687E+04  0.30081512687E+04  0.50400000000E-02 0. -1.
    8880022    1    1    2    0    0 -0.66397228085E+03  0.51929843119E+02 -0.35861498343E+03  0.77172032350E+03  0.15294330000E+03 0.  0.
    8880022    1    1    2    0    0  0.66397228085E+03 -0.51929843119E+02 -0.23951990591E+04  0.24907681714E+04  0.15294330000E+03 0.  0.
<mgrwt>
<rscale>  0 0.68333561E+03</rscale>
<asrwt>0</asrwt>
<pdfrwt beam="1">  1        1 0.46279248E+00 0.68333561E+03</pdfrwt>
<pdfrwt beam="2">  1       -1 0.39128806E-01 0.68333561E+03</pdfrwt>
<totfact> 0.40533170E+00</totfact>
</mgrwt>
</event>
<event>
 4    1  0.1678003E-008  0.1965110E+03  0.7818608E-02  0.1152717E+00
          1   -1    0    0  501    0  0.00000000000E+00  0.00000000000E+00  0.85968403659E+03  0.85968403660E+03  0.50400000000E-02 0. -1.
         -1   -1    0    0    0  501 -0.00000000000E+00 -0.00000000000E+00 -0.43971827136E+03  0.43971827139E+03  0.50400000000E-02 0.  1.
    8880022    1    1    2    0    0 -0.65952977809E+02 -0.10428378790E+03  0.82560510934E+03  0.84866975514E+03  0.15294330000E+03 0. -1.
    8880022    1    1    2    0    0  0.65952977809E+02  0.10428378790E+03 -0.40563934411E+03  0.45073255286E+03  0.15294330000E+03 0.  0.
<mgrwt>
<rscale>  0 0.19651096E+03</rscale>
<asrwt>0</asrwt>
<pdfrwt beam="1">  1        1 0.13225908E+00 0.19651096E+03</pdfrwt>
<pdfrwt beam="2">  1       -1 0.67648966E-01 0.19651096E+03</pdfrwt>
<totfact> 0.49147571E+01</totfact>
</mgrwt>
</event>
<event>
 4    1  0.1678003E-008  0.4148402E+03  0.7818608E-02  0.1038759E+00
          1   -1    0    0  501    0  0.00000000000E+00  0.00000000000E+00  0.22885768406E+04  0.22885768406E+04  0.50400000000E-02 0. -1.
         -1   -1    0    0    0  501 -0.00000000000E+00 -0.00000000000E+00 -0.22005694790E+03  0.22005694796E+03  0.50400000000E-02 0.  1.
    8880022    1    1    2    0    0  0.38560796519E+03 -0.26914146351E+01  0.16571102629E+02  0.41517105027E+03  0.15294330000E+03 0.  1.
    8880022    1    1    2    0    0 -0.38560796519E+03  0.26914146351E+01  0.20519487901E+04  0.20934627383E+04  0.15294330000E+03 0.  0.
<mgrwt>
<rscale>  0 0.41484021E+03</rscale>
<asrwt>0</asrwt>
<pdfrwt beam="1">  1        1 0.35208875E+00 0.41484021E+03</pdfrwt>
<pdfrwt beam="2">  1       -1 0.33854915E-01 0.41484021E+03</pdfrwt>
<totfact> 0.17464542E+01</totfact>
</mgrwt>
</event>
<event>
 4    1  0.1678003E-008  0.4987179E+03  0.7818608E-02  0.1014114E+00
         -1   -1    0    0    0  501 -0.00000000000E+00  0.00000000000E+00  0.42985680107E+03  0.42985680110E+03  0.50400000000E-02 0.  1.
          1   -1    0    0  501    0  0.00000000000E+00 -0.00000000000E+00 -0.58414689098E+03  0.58414689101E+03  0.50400000000E-02 0. -1.
    8880022    1    1    2    0    0 -0.27002791891E+03  0.39040085753E+03 -0.12650456413E+03  0.51451235584E+03  0.15294330000E+03 0.  0.
    8880022    1    1    2    0    0  0.27002791891E+03 -0.39040085753E+03 -0.27785525781E+02  0.49949133627E+03  0.15294330000E+03 0.  0.
<mgrwt>
<rscale>  0 0.49871792E+03</rscale>
<asrwt>0</asrwt>
<pdfrwt beam="1">  1        1 0.89868753E-01 0.49871792E+03</pdfrwt>
<pdfrwt beam="2">  1       -1 0.66131815E-01 0.49871792E+03</pdfrwt>
<totfact> 0.85965146E+01</totfact>
</mgrwt>
</event>
<event>
 4    1  0.1678003E-008  0.5634996E+03  0.7818608E-02  0.9984167E-01
         -1   -1    0    0    0  501 -0.00000000000E+00  0.00000000000E+00  0.17597711007E+04  0.17597711007E+04  0.50400000000E-02 0.  1.
          1   -1    0    0  501    0  0.00000000000E+00 -0.00000000000E+00 -0.54813404591E+03  0.54813404593E+03  0.50400000000E-02 0. -1.
    8880022    1    1    2    0    0 -0.10039908857E+03 -0.53297296728E+03 -0.33930440379E+03  0.65776841843E+03  0.15294330000E+03 0.  0.
    8880022    1    1    2    0    0  0.10039908857E+03  0.53297296728E+03  0.15509414586E+04  0.16501367282E+04  0.15294330000E+03 0.  0.
<mgrwt>
<rscale>  0 0.56349961E+03</rscale>
<asrwt>0</asrwt>
<pdfrwt beam="1">  1        1 0.84328316E-01 0.56349961E+03</pdfrwt>
<pdfrwt beam="2">  1       -1 0.27073401E+00 0.56349961E+03</pdfrwt>
<totfact> 0.21647611E+00</totfact>
</mgrwt>
</event>
<event>
 4    1  0.1678003E-008  0.5040459E+03  0.7818608E-02  0.1012728E+00
          1   -1    0    0  501    0  0.00000000000E+00  0.00000000000E+00  0.13596433795E+04  0.13596433795E+04  0.50400000000E-02 0. -1.
         -1   -1    0    0    0  501 -0.00000000000E+00 -0.00000000000E+00 -0.22664910325E+03  0.22664910331E+03  0.50400000000E-02 0.  1.
    8880022    1    1    2    0    0 -0.28677368315E+03 -0.38526799683E+03  0.23417345644E+03  0.55578722138E+03  0.15294330000E+03 0.  0.
    8880022    1    1    2    0    0  0.28677368315E+03  0.38526799683E+03  0.89882081979E+03  0.10305052614E+04  0.15294330000E+03 0.  0.
<mgrwt>
<rscale>  0 0.50404586E+03</rscale>
<asrwt>0</asrwt>
<pdfrwt beam="1">  1        1 0.20917591E+00 0.50404586E+03</pdfrwt>
<pdfrwt beam="2">  1       -1 0.34869093E-01 0.50404586E+03</pdfrwt>
<totfact> 0.67640552E+01</totfact>
</mgrwt>
</event>
<event>
 4    1  0.1678003E-008  0.7357686E+03  0.7818608E-02  0.9657946E-01
          1   -1    0    0  501    0  0.00000000000E+00  0.00000000000E+00  0.62473885803E+03  0.62473885805E+03  0.50400000000E-02 0. -1.
         -1   -1    0    0    0  501 -0.00000000000E+00 -0.00000000000E+00 -0.12086425231E+04  0.12086425231E+04  0.50400000000E-02 0.  1.
    8880022    1    1    2    0    0 -0.10898741723E+03 -0.71139684652E+03  0.19575399459E+03  0.76136391414E+03  0.15294330000E+03 0.  0.
    8880022    1    1    2    0    0  0.10898741723E+03  0.71139684652E+03 -0.77965765969E+03  0.10720174671E+04  0.15294330000E+03 0.  0.
<mgrwt>
<rscale>  0 0.73576857E+03</rscale>
<asrwt>0</asrwt>
<pdfrwt beam="1">  1        1 0.96113671E-01 0.73576857E+03</pdfrwt>
<pdfrwt beam="2">  1       -1 0.18594500E+00 0.73576857E+03</pdfrwt>
<totfact> 0.63148542E+00</totfact>
</mgrwt>
</event>
<event>
 4    1  0.1678003E-008  0.5523254E+03  0.7818608E-02  0.1000957E+00
         -1   -1    0    0    0  501 -0.00000000000E+00  0.00000000000E+00  0.42129316691E+03  0.42129316694E+03  0.50400000000E-02 0.  1.
          1   -1    0    0  501    0  0.00000000000E+00 -0.00000000000E+00 -0.12671006417E+04  0.12671006417E+04  0.50400000000E-02 0. -1.
    8880022    1    1    2    0    0 -0.48057165415E+03  0.22521680719E+03  0.12972520864E+03  0.56735527475E+03  0.15294330000E+03 0.  0.
    8880022    1    1    2    0    0  0.48057165415E+03 -0.22521680719E+03 -0.97553268340E+03  0.11210385339E+04  0.15294330000E+03 0.  0.
<mgrwt>
<rscale>  0 0.55232543E+03</rscale>
<asrwt>0</asrwt>
<pdfrwt beam="1">  1        1 0.19493856E+00 0.55232543E+03</pdfrwt>
<pdfrwt beam="2">  1       -1 0.64814334E-01 0.55232543E+03</pdfrwt>
<totfact> 0.24449003E+01</totfact>
</mgrwt>
</event>
<event>
 4    1  0.1678003E-008  0.4998144E+03  0.7818608E-02  0.1013827E+00
          1   -1    0    0  501    0  0.00000000000E+00  0.00000000000E+00  0.63808818046E+03  0.63808818048E+03  0.50400000000E-02 0. -1.
         -1   -1    0    0    0  501 -0.00000000000E+00 -0.00000000000E+00 -0.76084639519E+03  0.76084639521E+03  0.50400000000E-02 0.  1.
    8880022    1    1    2    0    0  0.26716627300E+03 -0.39375744432E+03  0.42596217341E+03  0.65670249624E+03  0.15294330000E+03 0.  0.
    8880022    1    1    2    0    0 -0.26716627300E+03  0.39375744432E+03 -0.54872038814E+03  0.74223207944E+03  0.15294330000E+03 0.  0.
<mgrwt>
<rscale>  0 0.49981436E+03</rscale>
<asrwt>0</asrwt>
<pdfrwt beam="1">  1        1 0.98167412E-01 0.49981436E+03</pdfrwt>
<pdfrwt beam="2">  1       -1 0.11705329E+00 0.49981436E+03</pdfrwt>
<totfact> 0.21850093E+01</totfact>
</mgrwt>
</event>
<event>
 4    1  0.1678003E-008  0.4632275E+03  0.7818608E-02  0.1023849E+00
          1   -1    0    0  501    0  0.00000000000E+00  0.00000000000E+00  0.70728875161E+03  0.70728875163E+03  0.50400000000E-02 0. -1.
         -1   -1    0    0    0  501 -0.00000000000E+00 -0.00000000000E+00 -0.36378753511E+03  0.36378753515E+03  0.50400000000E-02 0.  1.
    8880022    1    1    2    0    0 -0.33337352877E+03 -0.28293139706E+03  0.38997308040E+03  0.60552352685E+03  0.15294330000E+03 0.  0.
    8880022    1    1    2    0    0  0.33337352877E+03  0.28293139706E+03 -0.46471863903E+02  0.46555275992E+03  0.15294330000E+03 0.  0.
<mgrwt>
<rscale>  0 0.46322752E+03</rscale>
<asrwt>0</asrwt>
<pdfrwt beam="1">  1        1 0.10881365E+00 0.46322752E+03</pdfrwt>
<pdfrwt beam="2">  1       -1 0.55967314E-01 0.46322752E+03</pdfrwt>
<totfact> 0.90708099E+01</totfact>
</mgrwt>
</event>
<event>
 4    1  0.1678003E-008  0.1014677E+04  0.7818608E-02  0.9292592E-01
         -1   -1    0    0    0  501 -0.00000000000E+00  0.00000000000E+00  0.57451568538E+03  0.57451568541E+03  0.50400000000E-02 0.  1.
          1   -1    0    0  501    0  0.00000000000E+00 -0.00000000000E+00 -0.29505648516E+04  0.29505648516E+04  0.50400000000E-02 0. -1.
    8880022    1    1    2    0    0  0.16329091614E+03  0.98970437157E+03 -0.22924443573E+04  0.25069645891E+04  0.15294330000E+03 0.  0.
    8880022    1    1    2    0    0 -0.16329091614E+03 -0.98970437157E+03 -0.83604808903E+02  0.10181159480E+04  0.15294330000E+03 0.  0.
<mgrwt>
<rscale>  0 0.10146774E+04</rscale>
<asrwt>0</asrwt>
<pdfrwt beam="1">  1        1 0.45393304E+00 0.10146774E+04</pdfrwt>
<pdfrwt beam="2">  1       -1 0.88387030E-01 0.10146774E+04</pdfrwt>
<totfact> 0.83639645E-01</totfact>
</mgrwt>
</event>
<event>
 4    1  0.1678003E-008  0.3598044E+03  0.7818608E-02  0.1058661E+00
          1   -1    0    0  501    0  0.00000000000E+00  0.00000000000E+00  0.66566480849E+03  0.66566480851E+03  0.50400000000E-02 0. -1.
         -1   -1    0    0    0  501 -0.00000000000E+00 -0.00000000000E+00 -0.19790651085E+03  0.19790651092E+03  0.50400000000E-02 0.  1.
    8880022    1    1    2    0    0 -0.27495989744E+03  0.17454110480E+03  0.29068554593E+03  0.46255516654E+03  0.15294330000E+03 0.  0.
    8880022    1    1    2    0    0  0.27495989744E+03 -0.17454110480E+03  0.17707275170E+03  0.40101615289E+03  0.15294330000E+03 0.  0.
<mgrwt>
<rscale>  0 0.35980439E+03</rscale>
<asrwt>0</asrwt>
<pdfrwt beam="1">  1        1 0.10240997E+00 0.35980439E+03</pdfrwt>
<pdfrwt beam="2">  1       -1 0.30447156E-01 0.35980439E+03</pdfrwt>
<totfact> 0.30214749E+02</totfact>
</mgrwt>
</event>
<event>
 4    1  0.1678003E-008  0.6327941E+03  0.7818608E-02  0.9839611E-01
         -1   -1    0    0    0  501 -0.00000000000E+00  0.00000000000E+00  0.20746073557E+04  0.20746073557E+04  0.50400000000E-02 0.  1.
          1   -1    0    0  501    0  0.00000000000E+00 -0.00000000000E+00 -0.33502894096E+03  0.33502894100E+03  0.50400000000E-02 0. -1.
    8880022    1    1    2    0    0  0.47403042048E+03  0.39029712961E+03  0.85371660482E+02  0.63852694724E+03  0.15294330000E+03 0. -1.
    8880022    1    1    2    0    0 -0.47403042048E+03 -0.39029712961E+03  0.16542067543E+04  0.17711093495E+04  0.15294330000E+03 0.  0.
<mgrwt>
<rscale>  0 0.63279408E+03</rscale>
<asrwt>0</asrwt>
<pdfrwt beam="1">  1        1 0.51542914E-01 0.63279408E+03</pdfrwt>
<pdfrwt beam="2">  1       -1 0.31917036E+00 0.63279408E+03</pdfrwt>
<totfact> 0.20237693E+00</totfact>
</mgrwt>
</event>
<event>
 4    1  0.1678003E-008  0.2020601E+03  0.7818608E-02  0.1148012E+00
         -1   -1    0    0    0  501 -0.00000000000E+00  0.00000000000E+00  0.74741180175E+03  0.74741180177E+03  0.50400000000E-02 0.  1.
          1   -1    0    0  501    0  0.00000000000E+00 -0.00000000000E+00 -0.11470118441E+04  0.11470118441E+04  0.50400000000E-02 0. -1.
    8880022    1    1    2    0    0  0.12119483936E+03 -0.52425713383E+02  0.72458126085E+03  0.75222755939E+03  0.15294330000E+03 0.  0.
    8880022    1    1    2    0    0 -0.12119483936E+03  0.52425713383E+02 -0.11241813032E+04  0.11421960865E+04  0.15294330000E+03 0. -1.
<mgrwt>
<rscale>  0 0.20206013E+03</rscale>
<asrwt>0</asrwt>
<pdfrwt beam="1">  1        1 0.17646336E+00 0.20206013E+03</pdfrwt>
<pdfrwt beam="2">  1       -1 0.11498643E+00 0.20206013E+03</pdfrwt>
<totfact> 0.96442769E+00</totfact>
</mgrwt>
</event>
<event>
 4    1  0.1678003E-008  0.3835137E+03  0.7818608E-02  0.1049643E+00
          1   -1    0    0  501    0  0.00000000000E+00  0.00000000000E+00  0.25132907402E+04  0.25132907402E+04  0.50400000000E-02 0. -1.
         -1   -1    0    0    0  501 -0.00000000000E+00 -0.00000000000E+00 -0.10284107076E+03  0.10284107089E+03  0.50400000000E-02 0.  1.
    8880022    1    1    2    0    0 -0.26122955056E+03 -0.23547875545E+03  0.20639253107E+04  0.20992547400E+04  0.15294330000E+03 0.  0.
    8880022    1    1    2    0    0  0.26122955056E+03  0.23547875545E+03  0.34652435867E+03  0.51687707100E+03  0.15294330000E+03 0.  1.
<mgrwt>
<rscale>  0 0.38351372E+03</rscale>
<asrwt>0</asrwt>
<pdfrwt beam="1">  1        1 0.38666009E+00 0.38351372E+03</pdfrwt>
<pdfrwt beam="2">  1       -1 0.15821704E-01 0.38351372E+03</pdfrwt>
<totfact> 0.44546443E+01</totfact>
</mgrwt>
</event>
<event>
 4    1  0.1678003E-008  0.7371328E+03  0.7818608E-02  0.9655756E-01
         -1   -1    0    0    0  501 -0.00000000000E+00  0.00000000000E+00  0.10386392536E+04  0.10386392536E+04  0.50400000000E-02 0.  1.
          1   -1    0    0  501    0  0.00000000000E+00 -0.00000000000E+00 -0.12896186327E+04  0.12896186327E+04  0.50400000000E-02 0. -1.
    8880022    1    1    2    0    0  0.71168794497E+03 -0.11607480585E+03  0.77197518855E+03  0.10673848586E+04  0.15294330000E+03 0.  1.
    8880022    1    1    2    0    0 -0.71168794497E+03  0.11607480585E+03 -0.10229545676E+04  0.12608730277E+04  0.15294330000E+03 0.  0.
<mgrwt>
<rscale>  0 0.73713279E+03</rscale>
<asrwt>0</asrwt>
<pdfrwt beam="1">  1        1 0.19840287E+00 0.73713279E+03</pdfrwt>
<pdfrwt beam="2">  1       -1 0.15979065E+00 0.73713279E+03</pdfrwt>
<totfact> 0.28208478E+00</totfact>
</mgrwt>
</event>
<event>
 4    1  0.1678003E-008  0.6395150E+03  0.7818608E-02  0.9826655E-01
         -1   -1    0    0    0  501 -0.00000000000E+00  0.00000000000E+00  0.22062320383E+04  0.22062320383E+04  0.50400000000E-02 0.  1.
          1   -1    0    0  501    0  0.00000000000E+00 -0.00000000000E+00 -0.25436225044E+03  0.25436225049E+03  0.50400000000E-02 0. -1.
    8880022    1    1    2    0    0 -0.39142048309E+03 -0.48205579799E+03  0.16166563691E+04  0.17385503316E+04  0.15294330000E+03 0.  1.
    8880022    1    1    2    0    0  0.39142048309E+03  0.48205579799E+03  0.33521341885E+03  0.72204395721E+03  0.15294330000E+03 0.  0.
<mgrwt>
<rscale>  0 0.63951500E+03</rscale>
<asrwt>0</asrwt>
<pdfrwt beam="1">  1        1 0.39132654E-01 0.63951500E+03</pdfrwt>
<pdfrwt beam="2">  1       -1 0.33942031E+00 0.63951500E+03</pdfrwt>
<totfact> 0.21364483E+00</totfact>
</mgrwt>
</event>
<event>
 4    1  0.1678003E-008  0.4710693E+03  0.7818608E-02  0.1021619E+00
          1   -1    0    0  501    0  0.00000000000E+00  0.00000000000E+00  0.12897045254E+04  0.12897045254E+04  0.50400000000E-02 0. -1.
         -1   -1    0    0    0  501 -0.00000000000E+00 -0.00000000000E+00 -0.33421761352E+03  0.33421761355E+03  0.50400000000E-02 0.  1.
    8880022    1    1    2    0    0  0.20462025940E+03 -0.39578428067E+03 -0.87830604039E+02  0.47918734897E+03  0.15294330000E+03 0.  0.
    8880022    1    1    2    0    0 -0.20462025940E+03  0.39578428067E+03  0.10433175159E+04  0.11447347900E+04  0.15294330000E+03 0.  0.
<mgrwt>
<rscale>  0 0.47106932E+03</rscale>
<asrwt>0</asrwt>
<pdfrwt beam="1">  1        1 0.19841608E+00 0.47106932E+03</pdfrwt>
<pdfrwt beam="2">  1       -1 0.51418094E-01 0.47106932E+03</pdfrwt>
<totfact> 0.37463677E+01</totfact>
</mgrwt>
</event>
<event>
 4    1  0.1678003E-008  0.3188362E+03  0.7818608E-02  0.1076186E+00
          1   -1    0    0  501    0  0.00000000000E+00  0.00000000000E+00  0.15374924826E+04  0.15374924826E+04  0.50400000000E-02 0. -1.
         -1   -1    0    0    0  501 -0.00000000000E+00 -0.00000000000E+00 -0.41049994488E+03  0.41049994491E+03  0.50400000000E-02 0.  1.
    8880022    1    1    2    0    0 -0.20210967750E+03 -0.19343350912E+03 -0.32861838019E+03  0.45787174732E+03  0.15294330000E+03 0.  0.
    8880022    1    1    2    0    0  0.20210967750E+03  0.19343350912E+03  0.14556109179E+04  0.14901206802E+04  0.15294330000E+03 0.  0.
<mgrwt>
<rscale>  0 0.31883616E+03</rscale>
<asrwt>0</asrwt>
<pdfrwt beam="1">  1        1 0.23653731E+00 0.31883616E+03</pdfrwt>
<pdfrwt beam="2">  1       -1 0.63153838E-01 0.31883616E+03</pdfrwt>
<totfact> 0.17774620E+01</totfact>
</mgrwt>
</event>
<event>
 4    1  0.1678003E-008  0.1301607E+04  0.7818608E-02  0.9028292E-01
         -1   -1    0    0    0  501 -0.00000000000E+00  0.00000000000E+00  0.93328687551E+03  0.93328687552E+03  0.50400000000E-02 0.  1.
          1   -1    0    0  501    0  0.00000000000E+00 -0.00000000000E+00 -0.20760043071E+04  0.20760043071E+04  0.50400000000E-02 0. -1.
    8880022    1    1    2    0    0  0.59686235044E+03  0.11465356844E+04 -0.38137005652E+02  0.13021654370E+04  0.15294330000E+03 0.  0.
    8880022    1    1    2    0    0 -0.59686235044E+03 -0.11465356844E+04 -0.11045804259E+04  0.17071257456E+04  0.15294330000E+03 0.  0.
<mgrwt>
<rscale>  0 0.13016069E+04</rscale>
<asrwt>0</asrwt>
<pdfrwt beam="1">  1        1 0.31938528E+00 0.13016069E+04</pdfrwt>
<pdfrwt beam="2">  1       -1 0.14358260E+00 0.13016069E+04</pdfrwt>
<totfact> 0.10079803E+00</totfact>
</mgrwt>
</event>
<event>
 4    1  0.1678003E-008  0.6623229E+03  0.7818608E-02  0.9783927E-01
          1   -1    0    0  501    0  0.00000000000E+00  0.00000000000E+00  0.12179816724E+04  0.12179816724E+04  0.50400000000E-02 0. -1.
         -1   -1    0    0    0  501 -0.00000000000E+00 -0.00000000000E+00 -0.62061309892E+03  0.62061309894E+03  0.50400000000E-02 0.  1.
    8880022    1    1    2    0    0 -0.61085717674E+03 -0.20526448277E+03  0.89422027689E+03  0.11127899869E+04  0.15294330000E+03 0.  0.
    8880022    1    1    2    0    0  0.61085717674E+03  0.20526448277E+03 -0.29685170345E+03  0.72580478444E+03  0.15294330000E+03 0.  0.
<mgrwt>
<rscale>  0 0.66232292E+03</rscale>
<asrwt>0</asrwt>
<pdfrwt beam="1">  1        1 0.18738179E+00 0.66232292E+03</pdfrwt>
<pdfrwt beam="2">  1       -1 0.95478939E-01 0.66232292E+03</pdfrwt>
<totfact> 0.11501239E+01</totfact>
</mgrwt>
</event>
<event>
 4    1  0.1678003E-008  0.2626123E+03  0.7818608E-02  0.1105584E+00
         -1   -1    0    0    0  501 -0.00000000000E+00  0.00000000000E+00  0.13592217774E+03  0.13592217783E+03  0.50400000000E-02 0.  1.
          1   -1    0    0  501    0  0.00000000000E+00 -0.00000000000E+00 -0.89410147809E+03  0.89410147810E+03  0.50400000000E-02 0. -1.
    8880022    1    1    2    0    0 -0.14790302834E+03  0.15394237504E+03 -0.40386891814E+02  0.26569967006E+03  0.15294330000E+03 0.  0.
    8880022    1    1    2    0    0  0.14790302834E+03 -0.15394237504E+03 -0.71779240854E+03  0.76432398588E+03  0.15294330000E+03 0. -1.
<mgrwt>
<rscale>  0 0.26261229E+03</rscale>
<asrwt>0</asrwt>
<pdfrwt beam="1">  1        1 0.13755407E+00 0.26261229E+03</pdfrwt>
<pdfrwt beam="2">  1       -1 0.20911105E-01 0.26261229E+03</pdfrwt>
<totfact> 0.36454386E+02</totfact>
</mgrwt>
</event>
<event>
 4    1  0.1678003E-008  0.6764964E+03  0.7818608E-02  0.9758293E-01
         -1   -1    0    0    0  501 -0.00000000000E+00  0.00000000000E+00  0.51447859070E+03  0.51447859072E+03  0.50400000000E-02 0.  1.
          1   -1    0    0  501    0  0.00000000000E+00 -0.00000000000E+00 -0.19629410684E+04  0.19629410684E+04  0.50400000000E-02 0. -1.
    8880022    1    1    2    0    0  0.52793697600E+03  0.39438334060E+03  0.19177353389E+03  0.70315319190E+03  0.15294330000E+03 0.  0.
    8880022    1    1    2    0    0 -0.52793697600E+03 -0.39438334060E+03 -0.16402360116E+04  0.17742664672E+04  0.15294330000E+03 0.  0.
<mgrwt>
<rscale>  0 0.67649636E+03</rscale>
<asrwt>0</asrwt>
<pdfrwt beam="1">  1        1 0.30199093E+00 0.67649636E+03</pdfrwt>
<pdfrwt beam="2">  1       -1 0.79150554E-01 0.67649636E+03</pdfrwt>
<totfact> 0.53571077E+00</totfact>
</mgrwt>
</event>
<event>
 4    1  0.1678003E-008  0.1166745E+04  0.7818608E-02  0.9142473E-01
         -1   -1    0    0    0  501 -0.00000000000E+00  0.00000000000E+00  0.15863627053E+04  0.15863627053E+04  0.50400000000E-02 0.  1.
          1   -1    0    0  501    0  0.00000000000E+00 -0.00000000000E+00 -0.16355961178E+04  0.16355961178E+04  0.50400000000E-02 0. -1.
    8880022    1    1    2    0    0 -0.10194020182E+04  0.54655483479E+03 -0.11353112717E+04  0.16279514732E+04  0.15294330000E+03 0.  0.
    8880022    1    1    2    0    0  0.10194020182E+04 -0.54655483479E+03  0.10860778593E+04  0.15940073499E+04  0.15294330000E+03 0.  0.
<mgrwt>
<rscale>  0 0.11667452E+04</rscale>
<asrwt>0</asrwt>
<pdfrwt beam="1">  1        1 0.25163017E+00 0.11667452E+04</pdfrwt>
<pdfrwt beam="2">  1       -1 0.24405580E+00 0.11667452E+04</pdfrwt>
<totfact> 0.39647769E-01</totfact>
</mgrwt>
</event>
<event>
 4    1  0.1678003E-008  0.2842868E+03  0.7818608E-02  0.1093370E+00
          1   -1    0    0  501    0  0.00000000000E+00  0.00000000000E+00  0.48440651324E+03  0.48440651327E+03  0.50400000000E-02 0. -1.
         -1   -1    0    0    0  501 -0.00000000000E+00 -0.00000000000E+00 -0.40365372135E+03  0.40365372138E+03  0.50400000000E-02 0.  1.
    8880022    1    1    2    0    0  0.23683634983E+03  0.36549670258E+02  0.38047921609E+03  0.47495623155E+03  0.15294330000E+03 0. -1.
    8880022    1    1    2    0    0 -0.23683634983E+03 -0.36549670258E+02 -0.29972642420E+03  0.41310400310E+03  0.15294330000E+03 0.  0.
<mgrwt>
<rscale>  0 0.28428681E+03</rscale>
<asrwt>0</asrwt>
<pdfrwt beam="1">  1        1 0.74524079E-01 0.28428681E+03</pdfrwt>
<pdfrwt beam="2">  1       -1 0.62100573E-01 0.28428681E+03</pdfrwt>
<totfact> 0.12925761E+02</totfact>
</mgrwt>
</event>
<event>
 4    1  0.1678003E-008  0.4594636E+03  0.7818608E-02  0.1024937E+00
          1   -1    0    0  501    0  0.00000000000E+00  0.00000000000E+00  0.31479689368E+04  0.31479689368E+04  0.50400000000E-02 0. -1.
         -1   -1    0    0    0  501 -0.00000000000E+00 -0.00000000000E+00 -0.54905095611E+03  0.54905095613E+03  0.50400000000E-02 0.  1.
    8880022    1    1    2    0    0 -0.43282808616E+03 -0.19364117935E+02  0.30314049667E+04  0.30660272090E+04  0.15294330000E+03 0. -1.
    8880022    1    1    2    0    0  0.43282808616E+03  0.19364117935E+02 -0.43248698594E+03  0.63099268400E+03  0.15294330000E+03 0.  0.
<mgrwt>
<rscale>  0 0.45946357E+03</rscale>
<asrwt>0</asrwt>
<pdfrwt beam="1">  1        1 0.48430292E+00 0.45946357E+03</pdfrwt>
<pdfrwt beam="2">  1       -1 0.84469377E-01 0.45946357E+03</pdfrwt>
<totfact> 0.76406656E-01</totfact>
</mgrwt>
</event>
<event>
 4    1  0.1678003E-008  0.2823621E+03  0.7818608E-02  0.1094406E+00
         -1   -1    0    0    0  501 -0.00000000000E+00  0.00000000000E+00  0.17141476769E+03  0.17141476777E+03  0.50400000000E-02 0.  1.
          1   -1    0    0  501    0  0.00000000000E+00 -0.00000000000E+00 -0.22632775214E+04  0.22632775214E+04  0.50400000000E-02 0. -1.
    8880022    1    1    2    0    0  0.12644077388E+03 -0.20087172038E+03 -0.21310047175E+04  0.21496300789E+04  0.15294330000E+03 0. -1.
    8880022    1    1    2    0    0 -0.12644077388E+03  0.20087172038E+03  0.39141963794E+02  0.28506221021E+03  0.15294330000E+03 0.  0.
<mgrwt>
<rscale>  0 0.28236213E+03</rscale>
<asrwt>0</asrwt>
<pdfrwt beam="1">  1        1 0.34819652E+00 0.28236213E+03</pdfrwt>
<pdfrwt beam="2">  1       -1 0.26371504E-01 0.28236213E+03</pdfrwt>
<totfact> 0.29080038E+01</totfact>
</mgrwt>
</event>
<event>
 4    1  0.1678003E-008  0.6011535E+03  0.7818608E-02  0.9903016E-01
          1   -1    0    0  501    0  0.00000000000E+00  0.00000000000E+00  0.16870926302E+04  0.16870926302E+04  0.50400000000E-02 0. -1.
         -1   -1    0    0    0  501 -0.00000000000E+00 -0.00000000000E+00 -0.64985602760E+03  0.64985602762E+03  0.50400000000E-02 0.  1.
    8880022    1    1    2    0    0  0.18686755714E+03 -0.55052190563E+03 -0.43808975446E+03  0.74384685149E+03  0.15294330000E+03 0.  0.
    8880022    1    1    2    0    0 -0.18686755714E+03  0.55052190563E+03  0.14753263571E+04  0.15931018064E+04  0.15294330000E+03 0. -1.
<mgrwt>
<rscale>  0 0.60115348E+03</rscale>
<asrwt>0</asrwt>
<pdfrwt beam="1">  1        1 0.25955271E+00 0.60115348E+03</pdfrwt>
<pdfrwt beam="2">  1       -1 0.99977851E-01 0.60115348E+03</pdfrwt>
<totfact> 0.49861685E+00</totfact>
</mgrwt>
</event>
<event>
 4    1  0.1678003E-008  0.1135546E+04  0.7818608E-02  0.9171222E-01
          1   -1    0    0  501    0  0.00000000000E+00  0.00000000000E+00  0.17138290441E+04  0.17138290441E+04  0.50400000000E-02 0. -1.
         -1   -1    0    0    0  501 -0.00000000000E+00 -0.00000000000E+00 -0.19976032792E+04  0.19976032792E+04  0.50400000000E-02 0.  1.
    8880022    1    1    2    0    0  0.30357498193E+03  0.10834739161E+04 -0.16070269442E+04  0.19677400105E+04  0.15294330000E+03 0.  0.
    8880022    1    1    2    0    0 -0.30357498193E+03 -0.10834739161E+04  0.13232527091E+04  0.17436923128E+04  0.15294330000E+03 0.  0.
<mgrwt>
<rscale>  0 0.11355462E+04</rscale>
<asrwt>0</asrwt>
<pdfrwt beam="1">  1        1 0.26366601E+00 0.11355462E+04</pdfrwt>
<pdfrwt beam="2">  1       -1 0.30732358E+00 0.11355462E+04</pdfrwt>
<totfact> 0.13742522E-01</totfact>
</mgrwt>
</event>
<event>
 4    1  0.1678003E-008  0.3855232E+03  0.7818608E-02  0.1048911E+00
          1   -1    0    0  501    0  0.00000000000E+00  0.00000000000E+00  0.11432981533E+04  0.11432981533E+04  0.50400000000E-02 0. -1.
         -1   -1    0    0    0  501 -0.00000000000E+00 -0.00000000000E+00 -0.57456752140E+03  0.57456752143E+03  0.50400000000E-02 0.  1.
    8880022    1    1    2    0    0 -0.33555730092E+03  0.11241797933E+03 -0.47117526024E+03  0.60879740732E+03  0.15294330000E+03 0.  0.
    8880022    1    1    2    0    0  0.33555730092E+03 -0.11241797933E+03  0.10399058921E+04  0.11090682674E+04  0.15294330000E+03 0. -1.
<mgrwt>
<rscale>  0 0.38552323E+03</rscale>
<asrwt>0</asrwt>
<pdfrwt beam="1">  1        1 0.17589202E+00 0.38552323E+03</pdfrwt>
<pdfrwt beam="2">  1       -1 0.88395004E-01 0.38552323E+03</pdfrwt>
<totfact> 0.16308254E+01</totfact>
</mgrwt>
</event>
<event>
 4    1  0.1678003E-008  0.4587754E+03  0.7818608E-02  0.1025137E+00
          1   -1    0    0  501    0  0.00000000000E+00  0.00000000000E+00  0.11179662685E+04  0.11179662685E+04  0.50400000000E-02 0. -1.
         -1   -1    0    0    0  501 -0.00000000000E+00 -0.00000000000E+00 -0.12444174895E+04  0.12444174895E+04  0.50400000000E-02 0.  1.
    8880022    1    1    2    0    0 -0.24845695957E+03 -0.35405131252E+03 -0.11514051167E+04  0.12394388199E+04  0.15294330000E+03 0.  1.
    8880022    1    1    2    0    0  0.24845695957E+03  0.35405131252E+03  0.10249538956E+04  0.11229449380E+04  0.15294330000E+03 0.  0.
<mgrwt>
<rscale>  0 0.45877538E+03</rscale>
<asrwt>0</asrwt>
<pdfrwt beam="1">  1        1 0.17199481E+00 0.45877538E+03</pdfrwt>
<pdfrwt beam="2">  1       -1 0.19144884E+00 0.45877538E+03</pdfrwt>
<totfact> 0.23677755E+00</totfact>
</mgrwt>
</event>
<event>
 4    1  0.1678003E-008  0.7772467E+03  0.7818608E-02  0.9593548E-01
         -1   -1    0    0    0  501 -0.00000000000E+00  0.00000000000E+00  0.12378028729E+04  0.12378028729E+04  0.50400000000E-02 0.  1.
          1   -1    0    0  501    0  0.00000000000E+00 -0.00000000000E+00 -0.10399493697E+04  0.10399493697E+04  0.50400000000E-02 0. -1.
    8880022    1    1    2    0    0 -0.20825065555E+02 -0.76176576927E+03 -0.73073194525E+03  0.10668090736E+04  0.15294330000E+03 0.  0.
    8880022    1    1    2    0    0  0.20825065555E+02  0.76176576927E+03  0.92858544841E+03  0.12109431690E+04  0.15294330000E+03 0.  0.
<mgrwt>
<rscale>  0 0.77724669E+03</rscale>
<asrwt>0</asrwt>
<pdfrwt beam="1">  1        1 0.15999221E+00 0.77724669E+03</pdfrwt>
<pdfrwt beam="2">  1       -1 0.19043121E+00 0.77724669E+03</pdfrwt>
<totfact> 0.25637133E+00</totfact>
</mgrwt>
</event>
<event>
 4    1  0.1678003E-008  0.4621624E+03  0.7818608E-02  0.1024156E+00
         -1   -1    0    0    0  501 -0.00000000000E+00  0.00000000000E+00  0.10096614276E+04  0.10096614276E+04  0.50400000000E-02 0.  1.
          1   -1    0    0  501    0  0.00000000000E+00 -0.00000000000E+00 -0.27809058557E+04  0.27809058557E+04  0.50400000000E-02 0. -1.
    8880022    1    1    2    0    0  0.38050171999E+03  0.21312173069E+03 -0.27073906891E+04  0.27465539185E+04  0.15294330000E+03 0.  0.
    8880022    1    1    2    0    0 -0.38050171999E+03 -0.21312173069E+03  0.93614626091E+03  0.10440133648E+04  0.15294330000E+03 0.  0.
<mgrwt>
<rscale>  0 0.46216240E+03</rscale>
<asrwt>0</asrwt>
<pdfrwt beam="1">  1        1 0.42783167E+00 0.46216240E+03</pdfrwt>
<pdfrwt beam="2">  1       -1 0.15533253E+00 0.46216240E+03</pdfrwt>
<totfact> 0.32390604E-01</totfact>
</mgrwt>
</event>
<event>
 4    1  0.1678003E-008  0.9908710E+03  0.7818608E-02  0.9318614E-01
          1   -1    0    0  501    0  0.00000000000E+00  0.00000000000E+00  0.24223406284E+04  0.24223406284E+04  0.50400000000E-02 0. -1.
         -1   -1    0    0    0  501 -0.00000000000E+00 -0.00000000000E+00 -0.48086888814E+03  0.48086888816E+03  0.50400000000E-02 0.  1.
    8880022    1    1    2    0    0 -0.91897457298E+03 -0.33751945426E+03  0.15461048909E+04  0.18363729563E+04  0.15294330000E+03 0.  1.
    8880022    1    1    2    0    0  0.91897457298E+03  0.33751945426E+03  0.39536684932E+03  0.10668365603E+04  0.15294330000E+03 0.  0.
<mgrwt>
<rscale>  0 0.99087098E+03</rscale>
<asrwt>0</asrwt>
<pdfrwt beam="1">  1        1 0.37266779E+00 0.99087098E+03</pdfrwt>
<pdfrwt beam="2">  1       -1 0.73979830E-01 0.99087098E+03</pdfrwt>
<totfact> 0.28744304E+00</totfact>
</mgrwt>
</event>
<event>
 4    1  0.1678003E-008  0.5354508E+03  0.7818608E-02  0.1004919E+00
         -1   -1    0    0    0  501 -0.00000000000E+00  0.00000000000E+00  0.67597955377E+03  0.67597955379E+03  0.50400000000E-02 0.  1.
          1   -1    0    0  501    0  0.00000000000E+00 -0.00000000000E+00 -0.11736665279E+04  0.11736665279E+04  0.50400000000E-02 0. -1.
    8880022    1    1    2    0    0  0.32049770504E+03 -0.40074576427E+03 -0.98790536448E+03  0.11236835002E+04  0.15294330000E+03 0.  0.
    8880022    1    1    2    0    0 -0.32049770504E+03  0.40074576427E+03  0.49021839032E+03  0.72596258150E+03  0.15294330000E+03 0.  0.
<mgrwt>
<rscale>  0 0.53545084E+03</rscale>
<asrwt>0</asrwt>
<pdfrwt beam="1">  1        1 0.18056408E+00 0.53545084E+03</pdfrwt>
<pdfrwt beam="2">  1       -1 0.10399685E+00 0.53545084E+03</pdfrwt>
<totfact> 0.10432138E+01</totfact>
</mgrwt>
</event>
<event>
 4    1  0.1678003E-008  0.2910846E+03  0.7818608E-02  0.1089784E+00
         -1   -1    0    0    0  501 -0.00000000000E+00  0.00000000000E+00  0.50107667561E+03  0.50107667564E+03  0.50400000000E-02 0.  1.
          1   -1    0    0  501    0  0.00000000000E+00 -0.00000000000E+00 -0.12378708900E+04  0.12378708900E+04  0.50400000000E-02 0. -1.
    8880022    1    1    2    0    0  0.11438872844E+03  0.21966749797E+03  0.43951080843E+03  0.52716220901E+03  0.15294330000E+03 0.  0.
    8880022    1    1    2    0    0 -0.11438872844E+03 -0.21966749797E+03 -0.11763050228E+04  0.12117853567E+04  0.15294330000E+03 0. -1.
<mgrwt>
<rscale>  0 0.29108460E+03</rscale>
<asrwt>0</asrwt>
<pdfrwt beam="1">  1        1 0.19044167E+00 0.29108460E+03</pdfrwt>
<pdfrwt beam="2">  1       -1 0.77088720E-01 0.29108460E+03</pdfrwt>
<totfact> 0.19193214E+01</totfact>
</mgrwt>
</event>
<event>
 4    1  0.1678003E-008  0.5768986E+03  0.7818608E-02  0.9954528E-01
         -1   -1    0    0    0  501 -0.00000000000E+00  0.00000000000E+00  0.45255923623E+03  0.45255923626E+03  0.50400000000E-02 0.  1.
          1   -1    0    0  501    0  0.00000000000E+00 -0.00000000000E+00 -0.87683947752E+03  0.87683947754E+03  0.50400000000E-02 0. -1.
    8880022    1    1    2    0    0 -0.45521973557E+03  0.31968010744E+03 -0.47910285182E+03  0.74990104306E+03  0.15294330000E+03 0.  0.
    8880022    1    1    2    0    0  0.45521973557E+03 -0.31968010744E+03  0.54822610528E+02  0.57949767073E+03  0.15294330000E+03 0.  0.
<mgrwt>
<rscale>  0 0.57689863E+03</rscale>
<asrwt>0</asrwt>
<pdfrwt beam="1">  1        1 0.13489838E+00 0.57689863E+03</pdfrwt>
<pdfrwt beam="2">  1       -1 0.69624498E-01 0.57689863E+03</pdfrwt>
<totfact> 0.41452065E+01</totfact>
</mgrwt>
</event>
<event>
 4    1  0.1678003E-008  0.7012986E+03  0.7818608E-02  0.9715014E-01
         -1   -1    0    0    0  501 -0.00000000000E+00  0.00000000000E+00  0.57038429057E+03  0.57038429059E+03  0.50400000000E-02 0.  1.
          1   -1    0    0  501    0  0.00000000000E+00 -0.00000000000E+00 -0.10788929109E+04  0.10788929109E+04  0.50400000000E-02 0. -1.
    8880022    1    1    2    0    0 -0.67445829065E+03  0.11633599179E+03  0.11526441920E+03  0.71070780787E+03  0.15294330000E+03 0.  0.
    8880022    1    1    2    0    0  0.67445829065E+03 -0.11633599179E+03 -0.62377303954E+03  0.93856939364E+03  0.15294330000E+03 0.  0.
<mgrwt>
<rscale>  0 0.70129858E+03</rscale>
<asrwt>0</asrwt>
<pdfrwt beam="1">  1        1 0.16598352E+00 0.70129858E+03</pdfrwt>
<pdfrwt beam="2">  1       -1 0.87751429E-01 0.70129858E+03</pdfrwt>
<totfact> 0.17423991E+01</totfact>
</mgrwt>
</event>
<event>
 4    1  0.1678003E-008  0.5538556E+03  0.7818608E-02  0.1000605E+00
         -1   -1    0    0    0  501 -0.00000000000E+00  0.00000000000E+00  0.51670942518E+03  0.51670942520E+03  0.50400000000E-02 0.  1.
          1   -1    0    0  501    0  0.00000000000E+00 -0.00000000000E+00 -0.96916013262E+03  0.96916013264E+03  0.50400000000E-02 0. -1.
    8880022    1    1    2    0    0 -0.10008934773E+03 -0.52282547175E+03  0.23620989454E+03  0.60212217924E+03  0.15294330000E+03 0.  0.
    8880022    1    1    2    0    0  0.10008934773E+03  0.52282547175E+03 -0.68866060198E+03  0.88374737860E+03  0.15294330000E+03 0.  0.
<mgrwt>
<rscale>  0 0.55385558E+03</rscale>
<asrwt>0</asrwt>
<pdfrwt beam="1">  1        1 0.14910156E+00 0.55385558E+03</pdfrwt>
<pdfrwt beam="2">  1       -1 0.79493758E-01 0.55385558E+03</pdfrwt>
<totfact> 0.26681553E+01</totfact>
</mgrwt>
</event>
<event>
 4    1  0.1678003E-008  0.6710297E+03  0.7818608E-02  0.9768099E-01
         -1   -1    0    0    0  501 -0.00000000000E+00  0.00000000000E+00  0.64725272109E+03  0.64725272111E+03  0.50400000000E-02 0.  1.
          1   -1    0    0  501    0  0.00000000000E+00 -0.00000000000E+00 -0.12815437214E+04  0.12815437214E+04  0.50400000000E-02 0. -1.
    8880022    1    1    2    0    0  0.70941930260E+02  0.64950481468E+03 -0.96920602445E+03  0.11788304512E+04  0.15294330000E+03 0.  0.
    8880022    1    1    2    0    0 -0.70941930260E+02 -0.64950481468E+03  0.33491502414E+03  0.74996599134E+03  0.15294330000E+03 0.  0.
<mgrwt>
<rscale>  0 0.67102974E+03</rscale>
<asrwt>0</asrwt>
<pdfrwt beam="1">  1        1 0.19716057E+00 0.67102974E+03</pdfrwt>
<pdfrwt beam="2">  1       -1 0.99577342E-01 0.67102974E+03</pdfrwt>
<totfact> 0.94124170E+00</totfact>
</mgrwt>
</event>
<event>
 4    1  0.1678003E-008  0.3602272E+03  0.7818608E-02  0.1058494E+00
          1   -1    0    0  501    0  0.00000000000E+00  0.00000000000E+00  0.43486425379E+04  0.43486425379E+04  0.50400000000E-02 0. -1.
         -1   -1    0    0    0  501 -0.00000000000E+00 -0.00000000000E+00 -0.42034520888E+02  0.42034521190E+02  0.50400000000E-02 0.  1.
    8880022    1    1    2    0    0  0.32589382223E+03  0.12853707493E+02  0.33357468680E+04  0.33551409541E+04  0.15294330000E+03 0.  0.
    8880022    1    1    2    0    0 -0.32589382223E+03 -0.12853707493E+02  0.97086114899E+03  0.10355361050E+04  0.15294330000E+03 0.  0.
<mgrwt>
<rscale>  0 0.36022723E+03</rscale>
<asrwt>0</asrwt>
<pdfrwt beam="1">  1        1 0.66902153E+00 0.36022723E+03</pdfrwt>
<pdfrwt beam="2">  1       -1 0.64668533E-02 0.36022723E+03</pdfrwt>
<totfact> 0.70537979E+00</totfact>
</mgrwt>
</event>
<event>
 4    1  0.1678003E-008  0.2547636E+03  0.7818608E-02  0.1110331E+00
         -1   -1    0    0    0  501 -0.00000000000E+00  0.00000000000E+00  0.24482583360E+03  0.24482583365E+03  0.50400000000E-02 0.  1.
          1   -1    0    0  501    0  0.00000000000E+00 -0.00000000000E+00 -0.12478189353E+04  0.12478189353E+04  0.50400000000E-02 0. -1.
    8880022    1    1    2    0    0  0.20142790991E+03  0.30653646417E+02  0.16081798226E+03  0.30127549745E+03  0.15294330000E+03 0.  0.
    8880022    1    1    2    0    0 -0.20142790991E+03 -0.30653646417E+02 -0.11638110839E+04  0.11913692715E+04  0.15294330000E+03 0. -1.
<mgrwt>
<rscale>  0 0.25476362E+03</rscale>
<asrwt>0</asrwt>
<pdfrwt beam="1">  1        1 0.19197214E+00 0.25476362E+03</pdfrwt>
<pdfrwt beam="2">  1       -1 0.37665513E-01 0.25476362E+03</pdfrwt>
<totfact> 0.74179439E+01</totfact>
</mgrwt>
</event>
<event>
 4    1  0.1678003E-008  0.7296277E+03  0.7818608E-02  0.9667865E-01
          1   -1    0    0  501    0  0.00000000000E+00  0.00000000000E+00  0.22447419534E+04  0.22447419534E+04  0.50400000000E-02 0. -1.
         -1   -1    0    0    0  501 -0.00000000000E+00 -0.00000000000E+00 -0.40766873754E+03  0.40766873757E+03  0.50400000000E-02 0.  1.
    8880022    1    1    2    0    0  0.41922934960E+03  0.57724489977E+03  0.60839322772E+02  0.73215981731E+03  0.15294330000E+03 0.  0.
    8880022    1    1    2    0    0 -0.41922934960E+03 -0.57724489977E+03  0.17762338931E+04  0.19202508737E+04  0.15294330000E+03 0.  0.
<mgrwt>
<rscale>  0 0.72962770E+03</rscale>
<asrwt>0</asrwt>
<pdfrwt beam="1">  1        1 0.34534492E+00 0.72962770E+03</pdfrwt>
<pdfrwt beam="2">  1       -1 0.62718267E-01 0.72962770E+03</pdfrwt>
<totfact> 0.55361154E+00</totfact>
</mgrwt>
</event>
<event>
 4    1  0.1678003E-008  0.5299359E+03  0.7818608E-02  0.1006248E+00
         -1   -1    0    0    0  501 -0.00000000000E+00  0.00000000000E+00  0.74625205978E+03  0.74625205980E+03  0.50400000000E-02 0.  1.
          1   -1    0    0  501    0  0.00000000000E+00 -0.00000000000E+00 -0.71493622524E+03  0.71493622526E+03  0.50400000000E-02 0. -1.
    8880022    1    1    2    0    0  0.37026283540E+03  0.34690904778E+03  0.51845672616E+03  0.74137000521E+03  0.15294330000E+03 0.  0.
    8880022    1    1    2    0    0 -0.37026283540E+03 -0.34690904778E+03 -0.48714089162E+03  0.71981827985E+03  0.15294330000E+03 0.  0.
<mgrwt>
<rscale>  0 0.52993595E+03</rscale>
<asrwt>0</asrwt>
<pdfrwt beam="1">  1        1 0.10999019E+00 0.52993595E+03</pdfrwt>
<pdfrwt beam="2">  1       -1 0.11480801E+00 0.52993595E+03</pdfrwt>
<totfact> 0.19246775E+01</totfact>
</mgrwt>
</event>
<event>
 4    1  0.1678003E-008  0.3166007E+03  0.7818608E-02  0.1077224E+00
          1   -1    0    0  501    0  0.00000000000E+00  0.00000000000E+00  0.88306963070E+03  0.88306963072E+03  0.50400000000E-02 0. -1.
         -1   -1    0    0    0  501 -0.00000000000E+00 -0.00000000000E+00 -0.28143945040E+03  0.28143945045E+03  0.50400000000E-02 0.  1.
    8880022    1    1    2    0    0 -0.23644065435E+03  0.14470714284E+03  0.75058008034E+03  0.81462043323E+03  0.15294330000E+03 0.  0.
    8880022    1    1    2    0    0  0.23644065435E+03 -0.14470714284E+03 -0.14894990004E+03  0.34988864794E+03  0.15294330000E+03 0.  1.
<mgrwt>
<rscale>  0 0.31660068E+03</rscale>
<asrwt>0</asrwt>
<pdfrwt beam="1">  1        1 0.13585687E+00 0.31660068E+03</pdfrwt>
<pdfrwt beam="2">  1       -1 0.43298377E-01 0.31660068E+03</pdfrwt>
<totfact> 0.10587254E+02</totfact>
</mgrwt>
</event>
<event>
 4    1  0.1678003E-008  0.4912259E+03  0.7818608E-02  0.1016095E+00
         -1   -1    0    0    0  501 -0.00000000000E+00  0.00000000000E+00  0.11222365945E+04  0.11222365946E+04  0.50400000000E-02 0.  1.
          1   -1    0    0  501    0  0.00000000000E+00 -0.00000000000E+00 -0.24686770431E+03  0.24686770436E+03  0.50400000000E-02 0. -1.
    8880022    1    1    2    0    0  0.39680970559E+03  0.24587243041E+03  0.68356053113E+03  0.84175878209E+03  0.15294330000E+03 0.  0.
    8880022    1    1    2    0    0 -0.39680970559E+03 -0.24587243041E+03  0.19180835910E+03  0.52734551683E+03  0.15294330000E+03 0.  0.
<mgrwt>
<rscale>  0 0.49122586E+03</rscale>
<asrwt>0</asrwt>
<pdfrwt beam="1">  1        1 0.37979647E-01 0.49122586E+03</pdfrwt>
<pdfrwt beam="2">  1       -1 0.17265178E+00 0.49122586E+03</pdfrwt>
<totfact> 0.28035541E+01</totfact>
</mgrwt>
</event>
<event>
 4    1  0.2814774E-008  0.7772351E+03  0.7818608E-02  0.9593566E-01
         -1   -1    0    0    0  501 -0.00000000000E+00  0.00000000000E+00  0.11266275011E+04  0.11266275011E+04  0.50400000000E-02 0.  1.
          1   -1    0    0  501    0  0.00000000000E+00 -0.00000000000E+00 -0.18469841094E+04  0.18469841094E+04  0.50400000000E-02 0. -1.
    8880022    1    1    2    0    0 -0.71885996289E+03 -0.25286983781E+03 -0.16127100005E+04  0.17902312699E+04  0.15294330000E+03 0.  0.
    8880022    1    1    2    0    0  0.71885996289E+03  0.25286983781E+03  0.89235339209E+03  0.11833803406E+04  0.15294330000E+03 0.  0.
<mgrwt>
<rscale>  0 0.77723513E+03</rscale>
<asrwt>0</asrwt>
<pdfrwt beam="1">  1        1 0.28415140E+00 0.77723513E+03</pdfrwt>
<pdfrwt beam="2">  1       -1 0.17332731E+00 0.77723513E+03</pdfrwt>
<totfact> 0.92551681E-01</totfact>
</mgrwt>
</event>
<event>
 4    1  0.1678003E-008  0.6315680E+03  0.7818608E-02  0.9841994E-01
         -1   -1    0    0    0  501 -0.00000000000E+00  0.00000000000E+00  0.52929001942E+03  0.52929001944E+03  0.50400000000E-02 0.  1.
          1   -1    0    0  501    0  0.00000000000E+00 -0.00000000000E+00 -0.21884903563E+04  0.21884903563E+04  0.50400000000E-02 0. -1.
    8880022    1    1    2    0    0 -0.34017325741E+03  0.50967508115E+03 -0.19299224507E+04  0.20306350859E+04  0.15294330000E+03 0.  0.
    8880022    1    1    2    0    0  0.34017325741E+03 -0.50967508115E+03  0.27072211383E+03  0.68714528982E+03  0.15294330000E+03 0.  0.
<mgrwt>
<rscale>  0 0.63156804E+03</rscale>
<asrwt>0</asrwt>
<pdfrwt beam="1">  1        1 0.33669082E+00 0.63156804E+03</pdfrwt>
<pdfrwt beam="2">  1       -1 0.81429235E-01 0.63156804E+03</pdfrwt>
<totfact> 0.36011388E+00</totfact>
</mgrwt>
</event>
<event>
 4    1  0.1678003E-008  0.2138340E+03  0.7818608E-02  0.1138565E+00
          1   -1    0    0  501    0  0.00000000000E+00  0.00000000000E+00  0.17216249918E+03  0.17216249925E+03  0.50400000000E-02 0. -1.
         -1   -1    0    0    0  501 -0.00000000000E+00 -0.00000000000E+00 -0.73492417417E+03  0.73492417419E+03  0.50400000000E-02 0.  1.
    8880022    1    1    2    0    0 -0.65749511865E+01  0.14929869149E+03 -0.64382214516E+03  0.67840396290E+03  0.15294330000E+03 0.  0.
    8880022    1    1    2    0    0  0.65749511865E+01 -0.14929869149E+03  0.81060470163E+02  0.22868271055E+03  0.15294330000E+03 0.  0.
<mgrwt>
<rscale>  0 0.21383401E+03</rscale>
<asrwt>0</asrwt>
<pdfrwt beam="1">  1        1 0.26486539E-01 0.21383401E+03</pdfrwt>
<pdfrwt beam="2">  1       -1 0.11306526E+00 0.21383401E+03</pdfrwt>
<totfact> 0.13714600E+02</totfact>
</mgrwt>
</event>
<event>
 4    1  0.1678003E-008  0.5622025E+03  0.7818608E-02  0.9987083E-01
          1   -1    0    0  501    0  0.00000000000E+00  0.00000000000E+00  0.12323300742E+04  0.12323300742E+04  0.50400000000E-02 0. -1.
         -1   -1    0    0    0  501 -0.00000000000E+00 -0.00000000000E+00 -0.88692878811E+03  0.88692878813E+03  0.50400000000E-02 0.  1.
    8880022    1    1    2    0    0  0.50339048555E+03 -0.19818672064E+03 -0.72067383111E+03  0.91402537221E+03  0.15294330000E+03 0.  0.
    8880022    1    1    2    0    0 -0.50339048555E+03  0.19818672064E+03  0.10660751172E+04  0.12052334901E+04  0.15294330000E+03 0.  0.
<mgrwt>
<rscale>  0 0.56220246E+03</rscale>
<asrwt>0</asrwt>
<pdfrwt beam="1">  1        1 0.18958924E+00 0.56220246E+03</pdfrwt>
<pdfrwt beam="2">  1       -1 0.13645058E+00 0.56220246E+03</pdfrwt>
<totfact> 0.48821100E+00</totfact>
</mgrwt>
</event>
<event>
 4    1  0.1678003E-008  0.9000237E+03  0.7818608E-02  0.9425552E-01
         -1   -1    0    0    0  501 -0.00000000000E+00  0.00000000000E+00  0.63470066756E+03  0.63470066758E+03  0.50400000000E-02 0.  1.
          1   -1    0    0  501    0  0.00000000000E+00 -0.00000000000E+00 -0.19999188348E+04  0.19999188348E+04  0.50400000000E-02 0. -1.
    8880022    1    1    2    0    0  0.81080557286E+03  0.35950714004E+03 -0.14750170372E+04  0.17279230231E+04  0.15294330000E+03 0.  0.
    8880022    1    1    2    0    0 -0.81080557286E+03 -0.35950714004E+03  0.10979886994E+03  0.90669647930E+03  0.15294330000E+03 0.  0.
<mgrwt>
<rscale>  0 0.90002373E+03</rscale>
<asrwt>0</asrwt>
<pdfrwt beam="1">  1        1 0.30767982E+00 0.90002373E+03</pdfrwt>
<pdfrwt beam="2">  1       -1 0.97646257E-01 0.90002373E+03</pdfrwt>
<totfact> 0.30768787E+00</totfact>
</mgrwt>
</event>
<event>
 4    1  0.1678003E-008  0.2002693E+03  0.7818608E-02  0.1149512E+00
         -1   -1    0    0    0  501 -0.00000000000E+00  0.00000000000E+00  0.26229687137E+03  0.26229687142E+03  0.50400000000E-02 0.  1.
          1   -1    0    0  501    0  0.00000000000E+00 -0.00000000000E+00 -0.28289681261E+04  0.28289681261E+04  0.50400000000E-02 0. -1.
    8880022    1    1    2    0    0 -0.33182310121E+02  0.12496032001E+03  0.21994475224E+03  0.29746175273E+03  0.15294330000E+03 0.  0.
    8880022    1    1    2    0    0  0.33182310121E+02 -0.12496032001E+03 -0.27866160070E+04  0.27938032448E+04  0.15294330000E+03 0.  0.
<mgrwt>
<rscale>  0 0.20026932E+03</rscale>
<asrwt>0</asrwt>
<pdfrwt beam="1">  1        1 0.43522584E+00 0.20026932E+03</pdfrwt>
<pdfrwt beam="2">  1       -1 0.40353367E-01 0.20026932E+03</pdfrwt>
<totfact> 0.61286560E+00</totfact>
</mgrwt>
</event>
<event>
 4    1  0.1678003E-008  0.7457377E+03  0.7818608E-02  0.9642061E-01
         -1   -1    0    0    0  501 -0.00000000000E+00  0.00000000000E+00  0.20186164861E+03  0.20186164867E+03  0.50400000000E-02 0.  1.
          1   -1    0    0  501    0  0.00000000000E+00 -0.00000000000E+00 -0.31517196172E+04  0.31517196172E+04  0.50400000000E-02 0. -1.
    8880022    1    1    2    0    0 -0.43494067267E+03  0.58613965894E+03 -0.88000975285E+03  0.11534911819E+04  0.15294330000E+03 0.  0.
    8880022    1    1    2    0    0  0.43494067267E+03 -0.58613965894E+03 -0.20698482157E+04  0.22000900840E+04  0.15294330000E+03 0.  0.
<mgrwt>
<rscale>  0 0.74573772E+03</rscale>
<asrwt>0</asrwt>
<pdfrwt beam="1">  1        1 0.48487991E+00 0.74573772E+03</pdfrwt>
<pdfrwt beam="2">  1       -1 0.31055640E-01 0.74573772E+03</pdfrwt>
<totfact> 0.47536426E+00</totfact>
</mgrwt>
</event>
<event>
 4    1  0.1678003E-008  0.5515727E+03  0.7818608E-02  0.1001131E+00
         -1   -1    0    0    0  501 -0.00000000000E+00  0.00000000000E+00  0.17403989983E+03  0.17403989991E+03  0.50400000000E-02 0.  1.
          1   -1    0    0  501    0  0.00000000000E+00 -0.00000000000E+00 -0.23737435810E+04  0.23737435810E+04  0.50400000000E-02 0. -1.
    8880022    1    1    2    0    0  0.22564107454E+03 -0.47950692143E+03 -0.17538740631E+04  0.18385610309E+04  0.15294330000E+03 0.  0.
    8880022    1    1    2    0    0 -0.22564107454E+03  0.47950692143E+03 -0.44582961809E+03  0.70922245001E+03  0.15294330000E+03 0.  0.
<mgrwt>
<rscale>  0 0.55157269E+03</rscale>
<asrwt>0</asrwt>
<pdfrwt beam="1">  1        1 0.36519130E+00 0.55157269E+03</pdfrwt>
<pdfrwt beam="2">  1       -1 0.26775371E-01 0.55157269E+03</pdfrwt>
<totfact> 0.22268332E+01</totfact>
</mgrwt>
</event>
<event>
 4    1  0.1678003E-008  0.2722956E+03  0.7818608E-02  0.1099973E+00
         -1   -1    0    0    0  501 -0.00000000000E+00  0.00000000000E+00  0.67052394453E+03  0.67052394454E+03  0.50400000000E-02 0.  1.
          1   -1    0    0  501    0  0.00000000000E+00 -0.00000000000E+00 -0.32651738914E+03  0.32651738918E+03  0.50400000000E-02 0. -1.
    8880022    1    1    2    0    0 -0.18773838989E+03 -0.12452931987E+03 -0.23340851525E+03  0.35864249965E+03  0.15294330000E+03 0. -1.
    8880022    1    1    2    0    0  0.18773838989E+03  0.12452931987E+03  0.57741507063E+03  0.63839883408E+03  0.15294330000E+03 0.  0.
<mgrwt>
<rscale>  0 0.27229563E+03</rscale>
<asrwt>0</asrwt>
<pdfrwt beam="1">  1        1 0.50233445E-01 0.27229563E+03</pdfrwt>
<pdfrwt beam="2">  1       -1 0.10315753E+00 0.27229563E+03</pdfrwt>
<totfact> 0.74723617E+01</totfact>
</mgrwt>
</event>
<event>
 4    1  0.1678003E-008  0.3923858E+03  0.7818608E-02  0.1046449E+00
          1   -1    0    0  501    0  0.00000000000E+00  0.00000000000E+00  0.43947816528E+03  0.43947816531E+03  0.50400000000E-02 0. -1.
         -1   -1    0    0    0  501 -0.00000000000E+00 -0.00000000000E+00 -0.55172668410E+03  0.55172668412E+03  0.50400000000E-02 0.  1.
    8880022    1    1    2    0    0  0.30301627348E+03 -0.19686566157E+03  0.24330017451E+03  0.46169424799E+03  0.15294330000E+03 0. -1.
    8880022    1    1    2    0    0 -0.30301627348E+03  0.19686566157E+03 -0.35554869332E+03  0.52951060144E+03  0.15294330000E+03 0.  0.
<mgrwt>
<rscale>  0 0.39238578E+03</rscale>
<asrwt>0</asrwt>
<pdfrwt beam="1">  1        1 0.67612026E-01 0.39238578E+03</pdfrwt>
<pdfrwt beam="2">  1       -1 0.84881028E-01 0.39238578E+03</pdfrwt>
<totfact> 0.76626095E+01</totfact>
</mgrwt>
</event>
<event>
 4    1  0.1678003E-008  0.9531756E+03  0.7818608E-02  0.9361446E-01
         -1   -1    0    0    0  501 -0.00000000000E+00  0.00000000000E+00  0.94856873751E+03  0.94856873753E+03  0.50400000000E-02 0.  1.
          1   -1    0    0  501    0  0.00000000000E+00 -0.00000000000E+00 -0.12904687442E+04  0.12904687442E+04  0.50400000000E-02 0. -1.
    8880022    1    1    2    0    0 -0.23865889588E+03 -0.91005168312E+03  0.39745831119E+03  0.10327230494E+04  0.15294330000E+03 0.  0.
    8880022    1    1    2    0    0  0.23865889588E+03  0.91005168312E+03 -0.73935831789E+03  0.12063144324E+04  0.15294330000E+03 0. -1.
<mgrwt>
<rscale>  0 0.95317563E+03</rscale>
<asrwt>0</asrwt>
<pdfrwt beam="1">  1        1 0.19853365E+00 0.95317563E+03</pdfrwt>
<pdfrwt beam="2">  1       -1 0.14593365E+00 0.95317563E+03</pdfrwt>
<totfact> 0.34859207E+00</totfact>
</mgrwt>
</event>
<event>
 4    1  0.1678003E-008  0.3812310E+03  0.7818608E-02  0.1050480E+00
          1   -1    0    0  501    0  0.00000000000E+00  0.00000000000E+00  0.51533226486E+03  0.51533226488E+03  0.50400000000E-02 0. -1.
         -1   -1    0    0    0  501 -0.00000000000E+00 -0.00000000000E+00 -0.34255845651E+03  0.34255845655E+03  0.50400000000E-02 0.  1.
    8880022    1    1    2    0    0 -0.86161592828E+02 -0.33841043268E+03 -0.93926827283E+02  0.39263130660E+03  0.15294330000E+03 0.  0.
    8880022    1    1    2    0    0  0.86161592828E+02  0.33841043268E+03  0.26670063563E+03  0.46525941483E+03  0.15294330000E+03 0.  0.
<mgrwt>
<rscale>  0 0.38123102E+03</rscale>
<asrwt>0</asrwt>
<pdfrwt beam="1">  1        1 0.79281886E-01 0.38123102E+03</pdfrwt>
<pdfrwt beam="2">  1       -1 0.52701301E-01 0.38123102E+03</pdfrwt>
<totfact> 0.16097285E+02</totfact>
</mgrwt>
</event>
<event>
 4    1  0.1678003E-008  0.6037613E+03  0.7818608E-02  0.9897633E-01
         -1   -1    0    0    0  501 -0.00000000000E+00  0.00000000000E+00  0.32264916672E+03  0.32264916676E+03  0.50400000000E-02 0.  1.
          1   -1    0    0  501    0  0.00000000000E+00 -0.00000000000E+00 -0.13176417971E+04  0.13176417971E+04  0.50400000000E-02 0. -1.
    8880022    1    1    2    0    0  0.51192293749E+03 -0.28119564218E+03 -0.80716191530E+03  0.10079871495E+04  0.15294330000E+03 0.  0.
    8880022    1    1    2    0    0 -0.51192293749E+03  0.28119564218E+03 -0.18783071512E+03  0.63230381437E+03  0.15294330000E+03 0.  0.
<mgrwt>
<rscale>  0 0.60376132E+03</rscale>
<asrwt>0</asrwt>
<pdfrwt beam="1">  1        1 0.20271412E+00 0.60376132E+03</pdfrwt>
<pdfrwt beam="2">  1       -1 0.49638334E-01 0.60376132E+03</pdfrwt>
<totfact> 0.37469319E+01</totfact>
</mgrwt>
</event>
<event>
 4    1  0.1678003E-008  0.6341272E+03  0.7818608E-02  0.9837028E-01
          1   -1    0    0  501    0  0.00000000000E+00  0.00000000000E+00  0.53985992857E+03  0.53985992860E+03  0.50400000000E-02 0. -1.
         -1   -1    0    0    0  501 -0.00000000000E+00 -0.00000000000E+00 -0.16235737372E+04  0.16235737372E+04  0.50400000000E-02 0.  1.
    8880022    1    1    2    0    0 -0.54856271035E+03  0.27893479231E+03  0.25394054886E+03  0.68308353875E+03  0.15294330000E+03 0.  0.
    8880022    1    1    2    0    0  0.54856271035E+03 -0.27893479231E+03 -0.13376543575E+04  0.14803501270E+04  0.15294330000E+03 0.  0.
<mgrwt>
<rscale>  0 0.63412721E+03</rscale>
<asrwt>0</asrwt>
<pdfrwt beam="1">  1        1 0.83055374E-01 0.63412721E+03</pdfrwt>
<pdfrwt beam="2">  1       -1 0.24978057E+00 0.63412721E+03</pdfrwt>
<totfact> 0.29655852E+00</totfact>
</mgrwt>
</event>
<event>
 4    1  0.1678003E-008  0.4080298E+03  0.7818608E-02  0.1041034E+00
         -1   -1    0    0    0  501 -0.00000000000E+00  0.00000000000E+00  0.29615305110E+03  0.29615305115E+03  0.50400000000E-02 0.  1.
          1   -1    0    0  501    0  0.00000000000E+00 -0.00000000000E+00 -0.10702068269E+04  0.10702068269E+04  0.50400000000E-02 0. -1.
    8880022    1    1    2    0    0 -0.13882933565E+03  0.35188499772E+03 -0.85773203527E+03  0.94983816169E+03  0.15294330000E+03 0.  0.
    8880022    1    1    2    0    0  0.13882933565E+03 -0.35188499772E+03  0.83678259502E+02  0.41652171634E+03  0.15294330000E+03 0.  0.
<mgrwt>
<rscale>  0 0.40802976E+03</rscale>
<asrwt>0</asrwt>
<pdfrwt beam="1">  1        1 0.16464720E+00 0.40802976E+03</pdfrwt>
<pdfrwt beam="2">  1       -1 0.45562008E-01 0.40802976E+03</pdfrwt>
<totfact> 0.68198294E+01</totfact>
</mgrwt>
</event>
<event>
 4    1  0.1678003E-008  0.9384124E+03  0.7818608E-02  0.9378798E-01
         -1   -1    0    0    0  501 -0.00000000000E+00  0.00000000000E+00  0.87264871346E+03  0.87264871348E+03  0.50400000000E-02 0.  1.
          1   -1    0    0  501    0  0.00000000000E+00 -0.00000000000E+00 -0.23258076900E+04  0.23258076900E+04  0.50400000000E-02 0. -1.
    8880022    1    1    2    0    0  0.44081102509E+03  0.81419396788E+03 -0.19298490493E+04  0.21459112711E+04  0.15294330000E+03 0.  0.
    8880022    1    1    2    0    0 -0.44081102509E+03 -0.81419396788E+03  0.47669007281E+03  0.10525451324E+04  0.15294330000E+03 0.  0.
<mgrwt>
<rscale>  0 0.93841240E+03</rscale>
<asrwt>0</asrwt>
<pdfrwt beam="1">  1        1 0.35781657E+00 0.93841240E+03</pdfrwt>
<pdfrwt beam="2">  1       -1 0.13425365E+00 0.93841240E+03</pdfrwt>
<totfact> 0.85676334E-01</totfact>
</mgrwt>
</event>
<event>
 4    1  0.1678003E-008  0.5081285E+03  0.7818608E-02  0.1011679E+00
          1   -1    0    0  501    0  0.00000000000E+00  0.00000000000E+00  0.19955603200E+04  0.19955603200E+04  0.50400000000E-02 0. -1.
         -1   -1    0    0    0  501 -0.00000000000E+00 -0.00000000000E+00 -0.16950289512E+03  0.16950289520E+03  0.50400000000E-02 0.  1.
    8880022    1    1    2    0    0  0.34430970131E+03  0.34095998454E+03  0.38637650466E+03  0.63834264924E+03  0.15294330000E+03 0.  0.
    8880022    1    1    2    0    0 -0.34430970131E+03 -0.34095998454E+03  0.14396809202E+04  0.15267205660E+04  0.15294330000E+03 0.  0.
<mgrwt>
<rscale>  0 0.50812846E+03</rscale>
<asrwt>0</asrwt>
<pdfrwt beam="1">  1        1 0.30700928E+00 0.50812846E+03</pdfrwt>
<pdfrwt beam="2">  1       -1 0.26077368E-01 0.50812846E+03</pdfrwt>
<totfact> 0.41933833E+01</totfact>
</mgrwt>
</event>
<event>
 4    1  0.1923433E-008  0.9651512E+03  0.7818608E-02  0.9347614E-01
          1   -1    0    0  501    0  0.00000000000E+00  0.00000000000E+00  0.10070489955E+04  0.10070489955E+04  0.50400000000E-02 0. -1.
         -1   -1    0    0    0  501 -0.00000000000E+00 -0.00000000000E+00 -0.22722766728E+04  0.22722766728E+04  0.50400000000E-02 0.  1.
    8880022    1    1    2    0    0 -0.27792529599E+03  0.91152770553E+03  0.62994868295E+03  0.11525416367E+04  0.15294330000E+03 0.  0.
    8880022    1    1    2    0    0  0.27792529599E+03 -0.91152770553E+03 -0.18951763602E+04  0.21267840317E+04  0.15294330000E+03 0.  0.
<mgrwt>
<rscale>  0 0.96515122E+03</rscale>
<asrwt>0</asrwt>
<pdfrwt beam="1">  1        1 0.15493062E+00 0.96515122E+03</pdfrwt>
<pdfrwt beam="2">  1       -1 0.34958103E+00 0.96515122E+03</pdfrwt>
<totfact> 0.23992208E-01</totfact>
</mgrwt>
</event>
<event>
 4    1  0.1678003E-008  0.2780517E+03  0.7818608E-02  0.1096758E+00
          1   -1    0    0  501    0  0.00000000000E+00  0.00000000000E+00  0.82558253344E+03  0.82558253346E+03  0.50400000000E-02 0. -1.
         -1   -1    0    0    0  501 -0.00000000000E+00 -0.00000000000E+00 -0.37499309155E+03  0.37499309159E+03  0.50400000000E-02 0.  1.
    8880022    1    1    2    0    0 -0.18919113497E+03  0.13463951114E+03  0.74525346771E+03  0.79543413786E+03  0.15294330000E+03 0.  0.
    8880022    1    1    2    0    0  0.18919113497E+03 -0.13463951114E+03 -0.29466402582E+03  0.40514148719E+03  0.15294330000E+03 0.  0.
<mgrwt>
<rscale>  0 0.27805168E+03</rscale>
<asrwt>0</asrwt>
<pdfrwt beam="1">  1        1 0.12701270E+00 0.27805168E+03</pdfrwt>
<pdfrwt beam="2">  1       -1 0.57691245E-01 0.27805168E+03</pdfrwt>
<totfact> 0.69670262E+01</totfact>
</mgrwt>
</event>
<event>
 4    1  0.1678003E-008  0.1711770E+03  0.7818608E-02  0.1176626E+00
          1   -1    0    0  501    0  0.00000000000E+00  0.00000000000E+00  0.39453122723E+03  0.39453122727E+03  0.50400000000E-02 0. -1.
         -1   -1    0    0    0  501 -0.00000000000E+00 -0.00000000000E+00 -0.10304037022E+04  0.10304037022E+04  0.50400000000E-02 0.  1.
    8880022    1    1    2    0    0  0.70612790720E+02 -0.30393175170E+02  0.36837451064E+03  0.40620357509E+03  0.15294330000E+03 0.  0.
    8880022    1    1    2    0    0 -0.70612790720E+02  0.30393175170E+02 -0.10042469856E+04  0.10187313544E+04  0.15294330000E+03 0.  1.
<mgrwt>
<rscale>  0 0.17117700E+03</rscale>
<asrwt>0</asrwt>
<pdfrwt beam="1">  1        1 0.60697112E-01 0.17117700E+03</pdfrwt>
<pdfrwt beam="2">  1       -1 0.15852365E+00 0.17117700E+03</pdfrwt>
<totfact> 0.21172691E+01</totfact>
</mgrwt>
</event>
<event>
 4    1  0.1678003E-008  0.5496051E+03  0.7818608E-02  0.1001585E+00
         -1   -1    0    0    0  501 -0.00000000000E+00  0.00000000000E+00  0.30388418030E+03  0.30388418034E+03  0.50400000000E-02 0.  1.
          1   -1    0    0  501    0  0.00000000000E+00 -0.00000000000E+00 -0.11961659520E+04  0.11961659520E+04  0.50400000000E-02 0. -1.
    8880022    1    1    2    0    0  0.43388403026E+03 -0.30069712100E+03 -0.13781017125E+03  0.56661927836E+03  0.15294330000E+03 0.  0.
    8880022    1    1    2    0    0 -0.43388403026E+03  0.30069712100E+03 -0.75447160048E+03  0.93343085402E+03  0.15294330000E+03 0.  0.
<mgrwt>
<rscale>  0 0.54960510E+03</rscale>
<asrwt>0</asrwt>
<pdfrwt beam="1">  1        1 0.18402553E+00 0.54960510E+03</pdfrwt>
<pdfrwt beam="2">  1       -1 0.46751413E-01 0.54960510E+03</pdfrwt>
<totfact> 0.51497237E+01</totfact>
</mgrwt>
</event>
<event>
 4    1  0.1678003E-008  0.5272575E+03  0.7818608E-02  0.1006899E+00
          1   -1    0    0  501    0  0.00000000000E+00  0.00000000000E+00  0.76862643863E+03  0.76862643865E+03  0.50400000000E-02 0. -1.
         -1   -1    0    0    0  501 -0.00000000000E+00 -0.00000000000E+00 -0.85970593746E+03  0.85970593747E+03  0.50400000000E-02 0.  1.
    8880022    1    1    2    0    0 -0.66770948241E+02 -0.50015039813E+03  0.57413246748E+03  0.77950530691E+03  0.15294330000E+03 0.  0.
    8880022    1    1    2    0    0  0.66770948241E+02  0.50015039813E+03 -0.66521196631E+03  0.84882706920E+03  0.15294330000E+03 0.  0.
<mgrwt>
<rscale>  0 0.52725746E+03</rscale>
<asrwt>0</asrwt>
<pdfrwt beam="1">  1        1 0.11825022E+00 0.52725746E+03</pdfrwt>
<pdfrwt beam="2">  1       -1 0.13226245E+00 0.52725746E+03</pdfrwt>
<totfact> 0.12191426E+01</totfact>
</mgrwt>
</event>
<event>
 4    1  0.1678003E-008  0.7248281E+03  0.7818608E-02  0.9675690E-01
          1   -1    0    0  501    0  0.00000000000E+00  0.00000000000E+00  0.49675610528E+03  0.49675610531E+03  0.50400000000E-02 0. -1.
         -1   -1    0    0    0  501 -0.00000000000E+00 -0.00000000000E+00 -0.23728202065E+04  0.23728202065E+04  0.50400000000E-02 0.  1.
    8880022    1    1    2    0    0 -0.58612496171E+03  0.39804726532E+03 -0.20062317352E+04  0.21331529538E+04  0.15294330000E+03 0.  0.
    8880022    1    1    2    0    0  0.58612496171E+03 -0.39804726532E+03  0.13016763400E+03  0.73642335794E+03  0.15294330000E+03 0.  0.
<mgrwt>
<rscale>  0 0.72482808E+03</rscale>
<asrwt>0</asrwt>
<pdfrwt beam="1">  1        1 0.76424017E-01 0.72482808E+03</pdfrwt>
<pdfrwt beam="2">  1       -1 0.36504926E+00 0.72482808E+03</pdfrwt>
<totfact> 0.59182639E-01</totfact>
</mgrwt>
</event>
<event>
 4    1  0.1678003E-008  0.2771438E+03  0.7818608E-02  0.1097259E+00
         -1   -1    0    0    0  501 -0.00000000000E+00  0.00000000000E+00  0.20254998413E+03  0.20254998419E+03  0.50400000000E-02 0.  1.
          1   -1    0    0  501    0  0.00000000000E+00 -0.00000000000E+00 -0.10856900825E+04  0.10856900825E+04  0.50400000000E-02 0. -1.
    8880022    1    1    2    0    0  0.12872103893E+03 -0.19195820514E+03 -0.96116418327E+03  0.10003225973E+04  0.15294330000E+03 0.  0.
    8880022    1    1    2    0    0 -0.12872103893E+03  0.19195820514E+03  0.78024084882E+02  0.28791746946E+03  0.15294330000E+03 0.  0.
<mgrwt>
<rscale>  0 0.27714385E+03</rscale>
<asrwt>0</asrwt>
<pdfrwt beam="1">  1        1 0.16702924E+00 0.27714385E+03</pdfrwt>
<pdfrwt beam="2">  1       -1 0.31161537E-01 0.27714385E+03</pdfrwt>
<totfact> 0.13360358E+02</totfact>
</mgrwt>
</event>
<event>
 4    1  0.1678003E-008  0.5792905E+03  0.7818608E-02  0.9949328E-01
         -1   -1    0    0    0  501 -0.00000000000E+00  0.00000000000E+00  0.12761078749E+04  0.12761078749E+04  0.50400000000E-02 0.  1.
          1   -1    0    0  501    0  0.00000000000E+00 -0.00000000000E+00 -0.39258318300E+03  0.39258318303E+03  0.50400000000E-02 0. -1.
    8880022    1    1    2    0    0 -0.35007262252E+03  0.43547099884E+03  0.92117056653E+03  0.10881786147E+04  0.15294330000E+03 0.  0.
    8880022    1    1    2    0    0  0.35007262252E+03 -0.43547099884E+03 -0.37645874623E+02  0.58051244324E+03  0.15294330000E+03 0.  0.
<mgrwt>
<rscale>  0 0.57929050E+03</rscale>
<asrwt>0</asrwt>
<pdfrwt beam="1">  1        1 0.60397412E-01 0.57929050E+03</pdfrwt>
<pdfrwt beam="2">  1       -1 0.19632429E+00 0.57929050E+03</pdfrwt>
<totfact> 0.10365536E+01</totfact>
</mgrwt>
</event>
<event>
 4    1  0.1678003E-008  0.3198877E+03  0.7818608E-02  0.1075701E+00
          1   -1    0    0  501    0  0.00000000000E+00  0.00000000000E+00  0.10725374909E+04  0.10725374909E+04  0.50400000000E-02 0. -1.
         -1   -1    0    0    0  501 -0.00000000000E+00 -0.00000000000E+00 -0.15059422455E+03  0.15059422464E+03  0.50400000000E-02 0.  1.
    8880022    1    1    2    0    0  0.26152053391E+03 -0.10268163981E+03  0.83118852633E+03  0.89061918244E+03  0.15294330000E+03 0.  0.
    8880022    1    1    2    0    0 -0.26152053391E+03  0.10268163981E+03  0.90754739980E+02  0.33251253308E+03  0.15294330000E+03 0.  0.
<mgrwt>
<rscale>  0 0.31988773E+03</rscale>
<asrwt>0</asrwt>
<pdfrwt beam="1">  1        1 0.16500577E+00 0.31988773E+03</pdfrwt>
<pdfrwt beam="2">  1       -1 0.23168343E-01 0.31988773E+03</pdfrwt>
<totfact> 0.22367222E+02</totfact>
</mgrwt>
</event>
<event>
 4    1  0.1678003E-008  0.5119063E+03  0.7818608E-02  0.1010717E+00
         -1   -1    0    0    0  501 -0.00000000000E+00  0.00000000000E+00  0.19813021128E+03  0.19813021134E+03  0.50400000000E-02 0.  1.
          1   -1    0    0  501    0  0.00000000000E+00 -0.00000000000E+00 -0.15854272471E+04  0.15854272471E+04  0.50400000000E-02 0. -1.
    8880022    1    1    2    0    0 -0.48733038025E+03 -0.34139007224E+02 -0.33055796867E+03  0.60935752641E+03  0.15294330000E+03 0.  0.
    8880022    1    1    2    0    0  0.48733038025E+03  0.34139007224E+02 -0.10567390672E+04  0.11741999320E+04  0.15294330000E+03 0.  0.
<mgrwt>
<rscale>  0 0.51190627E+03</rscale>
<asrwt>0</asrwt>
<pdfrwt beam="1">  1        1 0.24391188E+00 0.51190627E+03</pdfrwt>
<pdfrwt beam="2">  1       -1 0.30481572E-01 0.51190627E+03</pdfrwt>
<totfact> 0.60029295E+01</totfact>
</mgrwt>
</event>
<event>
 4    1  0.1678003E-008  0.2590434E+03  0.7818608E-02  0.1107719E+00
          1   -1    0    0  501    0  0.00000000000E+00  0.00000000000E+00  0.14635600746E+04  0.14635600746E+04  0.50400000000E-02 0. -1.
         -1   -1    0    0    0  501 -0.00000000000E+00 -0.00000000000E+00 -0.31723651878E+03  0.31723651882E+03  0.50400000000E-02 0.  1.
    8880022    1    1    2    0    0 -0.12402945581E+02  0.20870558423E+03 -0.25038308566E+03  0.36027100431E+03  0.15294330000E+03 0.  0.
    8880022    1    1    2    0    0  0.12402945581E+02 -0.20870558423E+03  0.13967066415E+04  0.14205255891E+04  0.15294330000E+03 0. -1.
<mgrwt>
<rscale>  0 0.25904345E+03</rscale>
<asrwt>0</asrwt>
<pdfrwt beam="1">  1        1 0.22516309E+00 0.25904345E+03</pdfrwt>
<pdfrwt beam="2">  1       -1 0.48805618E-01 0.25904345E+03</pdfrwt>
<totfact> 0.33174052E+01</totfact>
</mgrwt>
</event>
<event>
 4    1  0.1678003E-008  0.4725706E+03  0.7818608E-02  0.1021197E+00
          1   -1    0    0  501    0  0.00000000000E+00  0.00000000000E+00  0.14618790923E+04  0.14618790923E+04  0.50400000000E-02 0. -1.
         -1   -1    0    0    0  501 -0.00000000000E+00 -0.00000000000E+00 -0.46028794112E+03  0.46028794115E+03  0.50400000000E-02 0.  1.
    8880022    1    1    2    0    0  0.43812507669E+03 -0.89318061982E+02 -0.28477566674E+03  0.55174281364E+03  0.15294330000E+03 0.  1.
    8880022    1    1    2    0    0 -0.43812507669E+03  0.89318061982E+02  0.12863668179E+04  0.13704242198E+04  0.15294330000E+03 0.  0.
<mgrwt>
<rscale>  0 0.47257058E+03</rscale>
<asrwt>0</asrwt>
<pdfrwt beam="1">  1        1 0.22490447E+00 0.47257058E+03</pdfrwt>
<pdfrwt beam="2">  1       -1 0.70813530E-01 0.47257058E+03</pdfrwt>
<totfact> 0.15238565E+01</totfact>
</mgrwt>
</event>
<event>
 4    1  0.1678003E-008  0.1064341E+04  0.7818608E-02  0.9240662E-01
         -1   -1    0    0    0  501 -0.00000000000E+00  0.00000000000E+00  0.11391352921E+04  0.11391352921E+04  0.50400000000E-02 0.  1.
          1   -1    0    0  501    0  0.00000000000E+00 -0.00000000000E+00 -0.14298259103E+04  0.14298259103E+04  0.50400000000E-02 0. -1.
    8880022    1    1    2    0    0 -0.53785562990E+03 -0.90561651173E+03  0.56343956600E+03  0.12042781001E+04  0.15294330000E+03 0.  0.
    8880022    1    1    2    0    0  0.53785562990E+03  0.90561651173E+03 -0.85413018426E+03  0.13646831023E+04  0.15294330000E+03 0.  0.
<mgrwt>
<rscale>  0 0.10643409E+04</rscale>
<asrwt>0</asrwt>
<pdfrwt beam="1">  1        1 0.21997322E+00 0.10643409E+04</pdfrwt>
<pdfrwt beam="2">  1       -1 0.17525158E+00 0.10643409E+04</pdfrwt>
<totfact> 0.16435998E+00</totfact>
</mgrwt>
</event>
<event>
 4    1  0.1678003E-008  0.4866702E+03  0.7818608E-02  0.1017318E+00
          1   -1    0    0  501    0  0.00000000000E+00  0.00000000000E+00  0.16870252396E+04  0.16870252396E+04  0.50400000000E-02 0. -1.
         -1   -1    0    0    0  501 -0.00000000000E+00 -0.00000000000E+00 -0.40207535733E+03  0.40207535736E+03  0.50400000000E-02 0.  1.
    8880022    1    1    2    0    0  0.15560356834E+03 -0.43502158968E+03  0.14851539501E+04  0.15628596106E+04  0.15294330000E+03 0. -1.
    8880022    1    1    2    0    0 -0.15560356834E+03  0.43502158968E+03 -0.20020406781E+03  0.52624098638E+03  0.15294330000E+03 0.  0.
<mgrwt>
<rscale>  0 0.48667022E+03</rscale>
<asrwt>0</asrwt>
<pdfrwt beam="1">  1        1 0.25954235E+00 0.48667022E+03</pdfrwt>
<pdfrwt beam="2">  1       -1 0.61857747E-01 0.48667022E+03</pdfrwt>
<totfact> 0.14056978E+01</totfact>
</mgrwt>
</event>
<event>
 4    1  0.1678003E-008  0.3764794E+03  0.7818608E-02  0.1052243E+00
         -1   -1    0    0    0  501 -0.00000000000E+00  0.00000000000E+00  0.28596428629E+03  0.28596428633E+03  0.50400000000E-02 0.  1.
          1   -1    0    0  501    0  0.00000000000E+00 -0.00000000000E+00 -0.65760121270E+03  0.65760121272E+03  0.50400000000E-02 0. -1.
    8880022    1    1    2    0    0 -0.18403209457E+03 -0.29064978909E+03  0.48312892102E+02  0.37956672706E+03  0.15294330000E+03 0.  0.
    8880022    1    1    2    0    0  0.18403209457E+03  0.29064978909E+03 -0.41994981851E+03  0.56399877199E+03  0.15294330000E+03 0.  0.
<mgrwt>
<rscale>  0 0.37647943E+03</rscale>
<asrwt>0</asrwt>
<pdfrwt beam="1">  1        1 0.10116942E+00 0.37647943E+03</pdfrwt>
<pdfrwt beam="2">  1       -1 0.43994506E-01 0.37647943E+03</pdfrwt>
<totfact> 0.16006432E+02</totfact>
</mgrwt>
</event>
<event>
 4    1  0.1678003E-008  0.5691178E+03  0.7818608E-02  0.9971633E-01
         -1   -1    0    0    0  501 -0.00000000000E+00  0.00000000000E+00  0.71082965465E+03  0.71082965467E+03  0.50400000000E-02 0.  1.
          1   -1    0    0  501    0  0.00000000000E+00 -0.00000000000E+00 -0.76113985916E+03  0.76113985918E+03  0.50400000000E-02 0. -1.
    8880022    1    1    2    0    0  0.21360104942E+03  0.50485448201E+03  0.44110623930E+03  0.72004848703E+03  0.15294330000E+03 0.  0.
    8880022    1    1    2    0    0 -0.21360104942E+03 -0.50485448201E+03 -0.49141644381E+03  0.75192102682E+03  0.15294330000E+03 0.  0.
<mgrwt>
<rscale>  0 0.56911783E+03</rscale>
<asrwt>0</asrwt>
<pdfrwt beam="1">  1        1 0.11709844E+00 0.56911783E+03</pdfrwt>
<pdfrwt beam="2">  1       -1 0.10935841E+00 0.56911783E+03</pdfrwt>
<totfact> 0.19492818E+01</totfact>
</mgrwt>
</event>
<event>
 4    1  0.1678003E-008  0.5921029E+03  0.7818608E-02  0.9921927E-01
         -1   -1    0    0    0  501 -0.00000000000E+00  0.00000000000E+00  0.47417770197E+03  0.47417770199E+03  0.50400000000E-02 0.  1.
          1   -1    0    0  501    0  0.00000000000E+00 -0.00000000000E+00 -0.14530737660E+04  0.14530737660E+04  0.50400000000E-02 0. -1.
    8880022    1    1    2    0    0 -0.55248927272E+03  0.14815452710E+03 -0.11647966488E+04  0.13066510806E+04  0.15294330000E+03 0.  0.
    8880022    1    1    2    0    0  0.55248927272E+03 -0.14815452710E+03  0.18590058479E+03  0.62060038738E+03  0.15294330000E+03 0.  0.
<mgrwt>
<rscale>  0 0.59210287E+03</rscale>
<asrwt>0</asrwt>
<pdfrwt beam="1">  1        1 0.22354981E+00 0.59210287E+03</pdfrwt>
<pdfrwt beam="2">  1       -1 0.72950416E-01 0.59210287E+03</pdfrwt>
<totfact> 0.14192470E+01</totfact>
</mgrwt>
</event>
<event>
 4    1  0.1678003E-008  0.6987328E+03  0.7818608E-02  0.9719402E-01
         -1   -1    0    0    0  501 -0.00000000000E+00  0.00000000000E+00  0.22837150076E+04  0.22837150076E+04  0.50400000000E-02 0.  1.
          1   -1    0    0  501    0  0.00000000000E+00 -0.00000000000E+00 -0.30265110826E+03  0.30265110830E+03  0.50400000000E-02 0. -1.
    8880022    1    1    2    0    0  0.23167281701E+02  0.68139498180E+03  0.16912660051E+04  0.18299202707E+04  0.15294330000E+03 0.  0.
    8880022    1    1    2    0    0 -0.23167281701E+02 -0.68139498180E+03  0.28979789422E+03  0.75644584517E+03  0.15294330000E+03 0.  0.
<mgrwt>
<rscale>  0 0.69873278E+03</rscale>
<asrwt>0</asrwt>
<pdfrwt beam="1">  1        1 0.46561709E-01 0.69873278E+03</pdfrwt>
<pdfrwt beam="2">  1       -1 0.35134077E+00 0.69873278E+03</pdfrwt>
<totfact> 0.14114120E+00</totfact>
</mgrwt>
</event>
<event>
 4    1  0.1678003E-008  0.4858637E+03  0.7818608E-02  0.1017536E+00
          1   -1    0    0  501    0  0.00000000000E+00  0.00000000000E+00  0.69802804670E+03  0.69802804672E+03  0.50400000000E-02 0. -1.
         -1   -1    0    0    0  501 -0.00000000000E+00 -0.00000000000E+00 -0.47091504571E+03  0.47091504574E+03  0.50400000000E-02 0.  1.
    8880022    1    1    2    0    0 -0.45504682503E+03 -0.74861434961E+02 -0.19673839898E+03  0.52418460304E+03  0.15294330000E+03 0.  0.
    8880022    1    1    2    0    0  0.45504682503E+03  0.74861434961E+02  0.42385139997E+03  0.64475848942E+03  0.15294330000E+03 0.  0.
<mgrwt>
<rscale>  0 0.48586366E+03</rscale>
<asrwt>0</asrwt>
<pdfrwt beam="1">  1        1 0.10738893E+00 0.48586366E+03</pdfrwt>
<pdfrwt beam="2">  1       -1 0.72448469E-01 0.48586366E+03</pdfrwt>
<totfact> 0.55299473E+01</totfact>
</mgrwt>
</event>
<event>
 4    1  0.1678003E-008  0.6963600E+03  0.7818608E-02  0.9723477E-01
          1   -1    0    0  501    0  0.00000000000E+00  0.00000000000E+00  0.11879851269E+04  0.11879851269E+04  0.50400000000E-02 0. -1.
         -1   -1    0    0    0  501 -0.00000000000E+00 -0.00000000000E+00 -0.79468410456E+03  0.79468410458E+03  0.50400000000E-02 0.  1.
    8880022    1    1    2    0    0  0.20077540208E+03 -0.64901062613E+03  0.88799975347E+03  0.11284771908E+04  0.15294330000E+03 0.  0.
    8880022    1    1    2    0    0 -0.20077540208E+03  0.64901062613E+03 -0.49469873110E+03  0.85419204075E+03  0.15294330000E+03 0.  0.
<mgrwt>
<rscale>  0 0.69635997E+03</rscale>
<asrwt>0</asrwt>
<pdfrwt beam="1">  1        1 0.18276694E+00 0.69635997E+03</pdfrwt>
<pdfrwt beam="2">  1       -1 0.12225909E+00 0.69635997E+03</pdfrwt>
<totfact> 0.67405244E+00</totfact>
</mgrwt>
</event>
<event>
 4    1  0.1678003E-008  0.6803050E+03  0.7818608E-02  0.9751519E-01
         -1   -1    0    0    0  501 -0.00000000000E+00  0.00000000000E+00  0.51347298049E+03  0.51347298052E+03  0.50400000000E-02 0.  1.
          1   -1    0    0  501    0  0.00000000000E+00 -0.00000000000E+00 -0.11046891644E+04  0.11046891644E+04  0.50400000000E-02 0. -1.
    8880022    1    1    2    0    0 -0.65425586581E+03  0.10664194275E+03 -0.64273699890E+03  0.93590904722E+03  0.15294330000E+03 0.  0.
    8880022    1    1    2    0    0  0.65425586581E+03 -0.10664194275E+03  0.51520815019E+02  0.68225309768E+03  0.15294330000E+03 0.  0.
<mgrwt>
<rscale>  0 0.68030500E+03</rscale>
<asrwt>0</asrwt>
<pdfrwt beam="1">  1        1 0.16995218E+00 0.68030500E+03</pdfrwt>
<pdfrwt beam="2">  1       -1 0.78995843E-01 0.68030500E+03</pdfrwt>
<totfact> 0.20942819E+01</totfact>
</mgrwt>
</event>
<event>
 4    1  0.1678003E-008  0.5994964E+03  0.7818608E-02  0.9906451E-01
         -1   -1    0    0    0  501 -0.00000000000E+00  0.00000000000E+00  0.93935068726E+03  0.93935068727E+03  0.50400000000E-02 0.  1.
          1   -1    0    0  501    0  0.00000000000E+00 -0.00000000000E+00 -0.96033187804E+03  0.96033187805E+03  0.50400000000E-02 0. -1.
    8880022    1    1    2    0    0  0.55730196485E+03  0.15943269701E+03 -0.74721218385E+03  0.95797806113E+03  0.15294330000E+03 0.  0.
    8880022    1    1    2    0    0 -0.55730196485E+03 -0.15943269701E+03  0.72623099307E+03  0.94170450419E+03  0.15294330000E+03 0.  0.
<mgrwt>
<rscale>  0 0.59949639E+03</rscale>
<asrwt>0</asrwt>
<pdfrwt beam="1">  1        1 0.14774337E+00 0.59949639E+03</pdfrwt>
<pdfrwt beam="2">  1       -1 0.14451549E+00 0.59949639E+03</pdfrwt>
<totfact> 0.66507134E+00</totfact>
</mgrwt>
</event>
<event>
 4    1  0.1678003E-008  0.1934029E+03  0.7818608E-02  0.1155427E+00
          1   -1    0    0  501    0  0.00000000000E+00  0.00000000000E+00  0.11473489414E+04  0.11473489414E+04  0.50400000000E-02 0. -1.
         -1   -1    0    0    0  501 -0.00000000000E+00 -0.00000000000E+00 -0.36149090887E+03  0.36149090890E+03  0.50400000000E-02 0.  1.
    8880022    1    1    2    0    0 -0.11583357536E+03  0.24405068402E+02  0.11125267064E+04  0.11292122697E+04  0.15294330000E+03 0. -1.
    8880022    1    1    2    0    0  0.11583357536E+03 -0.24405068402E+02 -0.32666867382E+03  0.37962758068E+03  0.15294330000E+03 0.  0.
<mgrwt>
<rscale>  0 0.19340289E+03</rscale>
<asrwt>0</asrwt>
<pdfrwt beam="1">  1        1 0.17651522E+00 0.19340289E+03</pdfrwt>
<pdfrwt beam="2">  1       -1 0.55613987E-01 0.19340289E+03</pdfrwt>
<totfact> 0.43846123E+01</totfact>
</mgrwt>
</event>
<event>
 4    1  0.1678003E-008  0.9923697E+03  0.7818608E-02  0.9316953E-01
          1   -1    0    0  501    0  0.00000000000E+00  0.00000000000E+00  0.33427655906E+04  0.33427655906E+04  0.50400000000E-02 0. -1.
         -1   -1    0    0    0  501 -0.00000000000E+00 -0.00000000000E+00 -0.77855732482E+03  0.77855732483E+03  0.50400000000E-02 0.  1.
    8880022    1    1    2    0    0  0.73167059176E+03 -0.65273582435E+03  0.29067636467E+04  0.30714935230E+04  0.15294330000E+03 0.  0.
    8880022    1    1    2    0    0 -0.73167059176E+03  0.65273582435E+03 -0.34255538089E+03  0.10498293924E+04  0.15294330000E+03 0.  0.
<mgrwt>
<rscale>  0 0.99236967E+03</rscale>
<asrwt>0</asrwt>
<pdfrwt beam="1">  1        1 0.51427162E+00 0.99236967E+03</pdfrwt>
<pdfrwt beam="2">  1       -1 0.11977805E+00 0.99236967E+03</pdfrwt>
<totfact> 0.21361453E-01</totfact>
</mgrwt>
</event>
<event>
 4    1  0.1678003E-008  0.4171042E+03  0.7818608E-02  0.1038013E+00
         -1   -1    0    0    0  501 -0.00000000000E+00  0.00000000000E+00  0.35698399332E+03  0.35698399336E+03  0.50400000000E-02 0.  1.
          1   -1    0    0  501    0  0.00000000000E+00 -0.00000000000E+00 -0.80088610501E+03  0.80088610502E+03  0.50400000000E-02 0. -1.
    8880022    1    1    2    0    0 -0.37054070188E+03 -0.11525542628E+03 -0.58418468654E+03  0.71780751322E+03  0.15294330000E+03 0. -1.
    8880022    1    1    2    0    0  0.37054070188E+03  0.11525542628E+03  0.14028257486E+03  0.44006258516E+03  0.15294330000E+03 0.  0.
<mgrwt>
<rscale>  0 0.41710416E+03</rscale>
<asrwt>0</asrwt>
<pdfrwt beam="1">  1        1 0.12321325E+00 0.41710416E+03</pdfrwt>
<pdfrwt beam="2">  1       -1 0.54920615E-01 0.41710416E+03</pdfrwt>
<totfact> 0.78239673E+01</totfact>
</mgrwt>
</event>
<event>
 4    1  0.1678003E-008  0.2616577E+03  0.7818608E-02  0.1106151E+00
          1   -1    0    0  501    0  0.00000000000E+00  0.00000000000E+00  0.59528008909E+03  0.59528008911E+03  0.50400000000E-02 0. -1.
         -1   -1    0    0    0  501 -0.00000000000E+00 -0.00000000000E+00 -0.19509417799E+03  0.19509417805E+03  0.50400000000E-02 0.  1.
    8880022    1    1    2    0    0  0.17047339631E+03  0.12653813812E+03  0.45328313415E+03  0.52338354194E+03  0.15294330000E+03 0.  0.
    8880022    1    1    2    0    0 -0.17047339631E+03 -0.12653813812E+03 -0.53097223050E+02  0.26699072523E+03  0.15294330000E+03 0.  0.
<mgrwt>
<rscale>  0 0.26165766E+03</rscale>
<asrwt>0</asrwt>
<pdfrwt beam="1">  1        1 0.91581550E-01 0.26165766E+03</pdfrwt>
<pdfrwt beam="2">  1       -1 0.30014490E-01 0.26165766E+03</pdfrwt>
<totfact> 0.36598744E+02</totfact>
</mgrwt>
</event>
<event>
 4    1  0.1678003E-008  0.1070243E+04  0.7818608E-02  0.9234691E-01
         -1   -1    0    0    0  501 -0.00000000000E+00  0.00000000000E+00  0.67135799556E+03  0.67135799558E+03  0.50400000000E-02 0.  1.
          1   -1    0    0  501    0  0.00000000000E+00 -0.00000000000E+00 -0.21223260656E+04  0.21223260656E+04  0.50400000000E-02 0. -1.
    8880022    1    1    2    0    0  0.35359786505E+03 -0.99849688612E+03 -0.10690667641E+03  0.10755687669E+04  0.15294330000E+03 0.  0.
    8880022    1    1    2    0    0 -0.35359786505E+03  0.99849688612E+03 -0.13440613936E+04  0.17181152943E+04  0.15294330000E+03 0.  0.
<mgrwt>
<rscale>  0 0.10702426E+04</rscale>
<asrwt>0</asrwt>
<pdfrwt beam="1">  1        1 0.32651170E+00 0.10702426E+04</pdfrwt>
<pdfrwt beam="2">  1       -1 0.10328585E+00 0.10702426E+04</pdfrwt>
<totfact> 0.21832421E+00</totfact>
</mgrwt>
</event>
<event>
 4    1  0.1678003E-008  0.8434442E+03  0.7818608E-02  0.9499178E-01
         -1   -1    0    0    0  501 -0.00000000000E+00  0.00000000000E+00  0.77763736868E+03  0.77763736870E+03  0.50400000000E-02 0.  1.
          1   -1    0    0  501    0  0.00000000000E+00 -0.00000000000E+00 -0.12746225727E+04  0.12746225727E+04  0.50400000000E-02 0. -1.
    8880022    1    1    2    0    0  0.26245903545E+03 -0.78684285796E+03 -0.79367748829E+03  0.11581545824E+04  0.15294330000E+03 0.  0.
    8880022    1    1    2    0    0 -0.26245903545E+03  0.78684285796E+03  0.29669228425E+03  0.89410535898E+03  0.15294330000E+03 0.  0.
<mgrwt>
<rscale>  0 0.84344418E+03</rscale>
<asrwt>0</asrwt>
<pdfrwt beam="1">  1        1 0.19609578E+00 0.84344418E+03</pdfrwt>
<pdfrwt beam="2">  1       -1 0.11963652E+00 0.84344418E+03</pdfrwt>
<totfact> 0.60233758E+00</totfact>
</mgrwt>
</event>
<event>
 4    1  0.1678003E-008  0.5416232E+03  0.7818608E-02  0.1003452E+00
         -1   -1    0    0    0  501 -0.00000000000E+00  0.00000000000E+00  0.29418965856E+03  0.29418965860E+03  0.50400000000E-02 0.  1.
          1   -1    0    0  501    0  0.00000000000E+00 -0.00000000000E+00 -0.53793609037E+04  0.53793609037E+04  0.50400000000E-02 0. -1.
    8880022    1    1    2    0    0 -0.77220102789E+02  0.51381040646E+03  0.17800533001E+02  0.54191566691E+03  0.15294330000E+03 0.  0.
    8880022    1    1    2    0    0  0.77220102789E+02 -0.51381040646E+03 -0.51029717781E+04  0.51316348954E+04  0.15294330000E+03 0.  0.
<mgrwt>
<rscale>  0 0.54162324E+03</rscale>
<asrwt>0</asrwt>
<pdfrwt beam="1">  1        1 0.82759391E+00 0.54162324E+03</pdfrwt>
<pdfrwt beam="2">  1       -1 0.45259952E-01 0.54162324E+03</pdfrwt>
<totfact> 0.15665788E-02</totfact>
</mgrwt>
</event>
<event>
 4    1  0.1678003E-008  0.5071812E+03  0.7818608E-02  0.1011921E+00
          1   -1    0    0  501    0  0.00000000000E+00  0.00000000000E+00  0.11825558008E+04  0.11825558008E+04  0.50400000000E-02 0. -1.
         -1   -1    0    0    0  501 -0.00000000000E+00 -0.00000000000E+00 -0.29476846878E+03  0.29476846882E+03  0.50400000000E-02 0.  1.
    8880022    1    1    2    0    0  0.21884668168E+03  0.43121605015E+03  0.82202485253E+03  0.96589733573E+03  0.15294330000E+03 0.  0.
    8880022    1    1    2    0    0 -0.21884668168E+03 -0.43121605015E+03  0.65762479482E+02  0.51142693389E+03  0.15294330000E+03 0.  1.
<mgrwt>
<rscale>  0 0.50718123E+03</rscale>
<asrwt>0</asrwt>
<pdfrwt beam="1">  1        1 0.18193166E+00 0.50718123E+03</pdfrwt>
<pdfrwt beam="2">  1       -1 0.45348996E-01 0.50718123E+03</pdfrwt>
<totfact> 0.56069781E+01</totfact>
</mgrwt>
</event>
<event>
 4    1  0.1678003E-008  0.7712239E+03  0.7818608E-02  0.9602629E-01
          1   -1    0    0  501    0  0.00000000000E+00  0.00000000000E+00  0.10199241962E+04  0.10199241962E+04  0.50400000000E-02 0. -1.
         -1   -1    0    0    0  501 -0.00000000000E+00 -0.00000000000E+00 -0.97079081633E+03  0.97079081634E+03  0.50400000000E-02 0.  1.
    8880022    1    1    2    0    0  0.75497925826E+03  0.37429092505E+02 -0.60439098032E+03  0.97983403057E+03  0.15294330000E+03 0.  0.
    8880022    1    1    2    0    0 -0.75497925826E+03 -0.37429092505E+02  0.65352436020E+03  0.10108809820E+04  0.15294330000E+03 0.  0.
<mgrwt>
<rscale>  0 0.77122388E+03</rscale>
<asrwt>0</asrwt>
<pdfrwt beam="1">  1        1 0.15691142E+00 0.77122388E+03</pdfrwt>
<pdfrwt beam="2">  1       -1 0.14935243E+00 0.77122388E+03</pdfrwt>
<totfact> 0.53235253E+00</totfact>
</mgrwt>
</event>
<event>
 4    1  0.1678003E-008  0.2624181E+03  0.7818608E-02  0.1105699E+00
         -1   -1    0    0    0  501 -0.00000000000E+00  0.00000000000E+00  0.30198963492E+03  0.30198963496E+03  0.50400000000E-02 0.  1.
          1   -1    0    0  501    0  0.00000000000E+00 -0.00000000000E+00 -0.37880813427E+03  0.37880813431E+03  0.50400000000E-02 0. -1.
    8880022    1    1    2    0    0  0.18966472583E+03  0.97462310537E+02 -0.25316507845E+03  0.36463107404E+03  0.15294330000E+03 0.  0.
    8880022    1    1    2    0    0 -0.18966472583E+03 -0.97462310537E+02  0.17634657909E+03  0.31616669523E+03  0.15294330000E+03 0.  0.
<mgrwt>
<rscale>  0 0.26241811E+03</rscale>
<asrwt>0</asrwt>
<pdfrwt beam="1">  1        1 0.58278175E-01 0.26241811E+03</pdfrwt>
<pdfrwt beam="2">  1       -1 0.46459944E-01 0.26241811E+03</pdfrwt>
<totfact> 0.30840342E+02</totfact>
</mgrwt>
</event>
<event>
 4    1  0.1678003E-008  0.5558987E+03  0.7818608E-02  0.1000138E+00
          1   -1    0    0  501    0  0.00000000000E+00  0.00000000000E+00  0.60972764145E+03  0.60972764147E+03  0.50400000000E-02 0. -1.
         -1   -1    0    0    0  501 -0.00000000000E+00 -0.00000000000E+00 -0.69981719237E+03  0.69981719239E+03  0.50400000000E-02 0.  1.
    8880022    1    1    2    0    0 -0.51120496764E+03  0.15588839610E+03 -0.38889661495E+03  0.67842755038E+03  0.15294330000E+03 0.  0.
    8880022    1    1    2    0    0  0.51120496764E+03 -0.15588839610E+03  0.29880706403E+03  0.63111728348E+03  0.15294330000E+03 0.  0.
<mgrwt>
<rscale>  0 0.55589870E+03</rscale>
<asrwt>0</asrwt>
<pdfrwt beam="1">  1        1 0.93804253E-01 0.55589870E+03</pdfrwt>
<pdfrwt beam="2">  1       -1 0.10766418E+00 0.55589870E+03</pdfrwt>
<totfact> 0.28169577E+01</totfact>
</mgrwt>
</event>
<event>
 4    1  0.1678003E-008  0.7223526E+03  0.7818608E-02  0.9679752E-01
         -1   -1    0    0    0  501 -0.00000000000E+00  0.00000000000E+00  0.10472787333E+04  0.10472787333E+04  0.50400000000E-02 0.  1.
          1   -1    0    0  501    0  0.00000000000E+00 -0.00000000000E+00 -0.13976213043E+04  0.13976213043E+04  0.50400000000E-02 0. -1.
    8880022    1    1    2    0    0 -0.52279069651E+03 -0.47443807812E+03 -0.11558098133E+04  0.13629708654E+04  0.15294330000E+03 0.  0.
    8880022    1    1    2    0    0  0.52279069651E+03  0.47443807812E+03  0.80546724229E+03  0.10819291722E+04  0.15294330000E+03 0.  0.
<mgrwt>
<rscale>  0 0.72235258E+03</rscale>
<asrwt>0</asrwt>
<pdfrwt beam="1">  1        1 0.21501866E+00 0.72235258E+03</pdfrwt>
<pdfrwt beam="2">  1       -1 0.16111981E+00 0.72235258E+03</pdfrwt>
<totfact> 0.23221087E+00</totfact>
</mgrwt>
</event>
<event>
 4    1  0.1678003E-008  0.3570557E+03  0.7818608E-02  0.1059756E+00
          1   -1    0    0  501    0  0.00000000000E+00  0.00000000000E+00  0.25973438728E+04  0.25973438728E+04  0.50400000000E-02 0. -1.
         -1   -1    0    0    0  501 -0.00000000000E+00 -0.00000000000E+00 -0.35123781178E+03  0.35123781182E+03  0.50400000000E-02 0.  1.
    8880022    1    1    2    0    0  0.96742249466E+02 -0.30779545077E+03 -0.24434948199E+03  0.43266086570E+03  0.15294330000E+03 0.  0.
    8880022    1    1    2    0    0 -0.96742249466E+02  0.30779545077E+03  0.24904555430E+04  0.25159208189E+04  0.15294330000E+03 0.  0.
<mgrwt>
<rscale>  0 0.35705568E+03</rscale>
<asrwt>0</asrwt>
<pdfrwt beam="1">  1        1 0.39959136E+00 0.35705568E+03</pdfrwt>
<pdfrwt beam="2">  1       -1 0.54036587E-01 0.35705568E+03</pdfrwt>
<totfact> 0.47293460E+00</totfact>
</mgrwt>
</event>
<event>
 4    1  0.1678003E-008  0.5587336E+03  0.7818608E-02  0.9994924E-01
         -1   -1    0    0    0  501 -0.00000000000E+00  0.00000000000E+00  0.51884967090E+03  0.51884967093E+03  0.50400000000E-02 0.  1.
          1   -1    0    0  501    0  0.00000000000E+00 -0.00000000000E+00 -0.91495835748E+03  0.91495835750E+03  0.50400000000E-02 0. -1.
    8880022    1    1    2    0    0  0.27575081087E+03 -0.46125166713E+03 -0.61754582754E+03  0.83279415959E+03  0.15294330000E+03 0.  0.
    8880022    1    1    2    0    0 -0.27575081087E+03  0.46125166713E+03  0.22143714096E+03  0.60101386883E+03  0.15294330000E+03 0.  0.
<mgrwt>
<rscale>  0 0.55873362E+03</rscale>
<asrwt>0</asrwt>
<pdfrwt beam="1">  1        1 0.14076282E+00 0.55873362E+03</pdfrwt>
<pdfrwt beam="2">  1       -1 0.79823026E-01 0.55873362E+03</pdfrwt>
<totfact> 0.29167153E+01</totfact>
</mgrwt>
</event>
<event>
 4    1  0.1678003E-008  0.6212047E+03  0.7818608E-02  0.9862364E-01
          1   -1    0    0  501    0  0.00000000000E+00  0.00000000000E+00  0.87320055226E+03  0.87320055227E+03  0.50400000000E-02 0. -1.
         -1   -1    0    0    0  501 -0.00000000000E+00 -0.00000000000E+00 -0.69951797840E+03  0.69951797842E+03  0.50400000000E-02 0.  1.
    8880022    1    1    2    0    0  0.11032779533E+03  0.59188805051E+03  0.56402169741E+03  0.83905650282E+03  0.15294330000E+03 0.  0.
    8880022    1    1    2    0    0 -0.11032779533E+03 -0.59188805051E+03 -0.39033912355E+03  0.73366202788E+03  0.15294330000E+03 0.  0.
<mgrwt>
<rscale>  0 0.62120475E+03</rscale>
<asrwt>0</asrwt>
<pdfrwt beam="1">  1        1 0.13433855E+00 0.62120475E+03</pdfrwt>
<pdfrwt beam="2">  1       -1 0.10761815E+00 0.62120475E+03</pdfrwt>
<totfact> 0.16118871E+01</totfact>
</mgrwt>
</event>
<event>
 4    1  0.1678003E-008  0.3264371E+03  0.7818608E-02  0.1072724E+00
         -1   -1    0    0    0  501 -0.00000000000E+00  0.00000000000E+00  0.12177212762E+03  0.12177212772E+03  0.50400000000E-02 0.  1.
          1   -1    0    0  501    0  0.00000000000E+00 -0.00000000000E+00 -0.88181167840E+03  0.88181167842E+03  0.50400000000E-02 0. -1.
    8880022    1    1    2    0    0  0.64691875729E+02 -0.28104173382E+03 -0.33619831440E+03  0.46860479570E+03  0.15294330000E+03 0.  0.
    8880022    1    1    2    0    0 -0.64691875729E+02  0.28104173382E+03 -0.42384123639E+03  0.53497901044E+03  0.15294330000E+03 0.  0.
<mgrwt>
<rscale>  0 0.32643705E+03</rscale>
<asrwt>0</asrwt>
<pdfrwt beam="1">  1        1 0.13566333E+00 0.32643705E+03</pdfrwt>
<pdfrwt beam="2">  1       -1 0.18734174E-01 0.32643705E+03</pdfrwt>
<totfact> 0.44349798E+02</totfact>
</mgrwt>
</event>
<event>
 4    1  0.1678003E-008  0.3287644E+03  0.7818608E-02  0.1071685E+00
          1   -1    0    0  501    0  0.00000000000E+00  0.00000000000E+00  0.10944412248E+04  0.10944412248E+04  0.50400000000E-02 0. -1.
         -1   -1    0    0    0  501 -0.00000000000E+00 -0.00000000000E+00 -0.23181658077E+03  0.23181658083E+03  0.50400000000E-02 0.  1.
    8880022    1    1    2    0    0 -0.10804122695E+03 -0.27022484888E+03  0.93370738174E+03  0.98989671350E+03  0.15294330000E+03 0. -1.
    8880022    1    1    2    0    0  0.10804122695E+03  0.27022484888E+03 -0.71082737728E+02  0.33636109212E+03  0.15294330000E+03 0. -1.
<mgrwt>
<rscale>  0 0.32876440E+03</rscale>
<asrwt>0</asrwt>
<pdfrwt beam="1">  1        1 0.16837557E+00 0.32876440E+03</pdfrwt>
<pdfrwt beam="2">  1       -1 0.35664089E-01 0.32876440E+03</pdfrwt>
<totfact> 0.10310395E+02</totfact>
</mgrwt>
</event>
<event>
 4    1  0.1678003E-008  0.1814238E+04  0.7818608E-02  0.8698764E-01
         -1   -1    0    0    0  501 -0.00000000000E+00  0.00000000000E+00  0.25635310335E+04  0.25635310335E+04  0.50400000000E-02 0.  1.
          1   -1    0    0  501    0  0.00000000000E+00 -0.00000000000E+00 -0.14957406727E+04  0.14957406728E+04  0.50400000000E-02 0. -1.
    8880022    1    1    2    0    0 -0.18073426273E+04  0.39770333907E+02 -0.22983046856E+03  0.18287380209E+04  0.15294330000E+03 0.  0.
    8880022    1    1    2    0    0  0.18073426273E+04 -0.39770333907E+02  0.12976208293E+04  0.22305336853E+04  0.15294330000E+03 0.  0.
<mgrwt>
<rscale>  0 0.18142383E+04</rscale>
<asrwt>0</asrwt>
<pdfrwt beam="1">  1        1 0.23011395E+00 0.18142383E+04</pdfrwt>
<pdfrwt beam="2">  1       -1 0.39438939E+00 0.18142383E+04</pdfrwt>
<totfact> 0.46928023E-02</totfact>
</mgrwt>
</event>
<event>
 4    1  0.1678003E-008  0.4359178E+03  0.7818608E-02  0.1032007E+00
         -1   -1    0    0    0  501 -0.00000000000E+00  0.00000000000E+00  0.97352107823E+03  0.97352107824E+03  0.50400000000E-02 0.  1.
          1   -1    0    0  501    0  0.00000000000E+00 -0.00000000000E+00 -0.10475643179E+04  0.10475643179E+04  0.50400000000E-02 0. -1.
    8880022    1    1    2    0    0  0.16676698425E+03  0.37258754817E+03 -0.94856799783E+03  0.10439375497E+04  0.15294330000E+03 0.  0.
    8880022    1    1    2    0    0 -0.16676698425E+03 -0.37258754817E+03  0.87452475820E+03  0.97714784645E+03  0.15294330000E+03 0.  0.
<mgrwt>
<rscale>  0 0.43591784E+03</rscale>
<asrwt>0</asrwt>
<pdfrwt beam="1">  1        1 0.16116374E+00 0.43591784E+03</pdfrwt>
<pdfrwt beam="2">  1       -1 0.14977247E+00 0.43591784E+03</pdfrwt>
<totfact> 0.53861305E+00</totfact>
</mgrwt>
</event>
<event>
 4    1  0.1678003E-008  0.4031733E+03  0.7818608E-02  0.1042686E+00
          1   -1    0    0  501    0  0.00000000000E+00  0.00000000000E+00  0.35343992783E+03  0.35343992787E+03  0.50400000000E-02 0. -1.
         -1   -1    0    0    0  501 -0.00000000000E+00 -0.00000000000E+00 -0.10997527600E+04  0.10997527600E+04  0.50400000000E-02 0.  1.
    8880022    1    1    2    0    0  0.15561397296E+03  0.33903001170E+03 -0.92737882457E+03  0.10112270737E+04  0.15294330000E+03 0.  0.
    8880022    1    1    2    0    0 -0.15561397296E+03 -0.33903001170E+03  0.18106599243E+03  0.44196561410E+03  0.15294330000E+03 0.  0.
<mgrwt>
<rscale>  0 0.40317330E+03</rscale>
<asrwt>0</asrwt>
<pdfrwt beam="1">  1        1 0.54375374E-01 0.40317330E+03</pdfrwt>
<pdfrwt beam="2">  1       -1 0.16919273E+00 0.40317330E+03</pdfrwt>
<totfact> 0.19021082E+01</totfact>
</mgrwt>
</event>
<event>
 4    1  0.1678003E-008  0.4329153E+03  0.7818608E-02  0.1032943E+00
         -1   -1    0    0    0  501 -0.00000000000E+00  0.00000000000E+00  0.12166592539E+04  0.12166592539E+04  0.50400000000E-02 0.  1.
          1   -1    0    0  501    0  0.00000000000E+00 -0.00000000000E+00 -0.15459637398E+03  0.15459637407E+03  0.50400000000E-02 0. -1.
    8880022    1    1    2    0    0  0.70904395983E+02  0.39874371735E+03  0.48994414821E+03  0.65380494559E+03  0.15294330000E+03 0. -1.
    8880022    1    1    2    0    0 -0.70904395983E+02 -0.39874371735E+03  0.57211873174E+03  0.71745068243E+03  0.15294330000E+03 0.  1.
<mgrwt>
<rscale>  0 0.43291528E+03</rscale>
<asrwt>0</asrwt>
<pdfrwt beam="1">  1        1 0.23784057E-01 0.43291528E+03</pdfrwt>
<pdfrwt beam="2">  1       -1 0.18717835E+00 0.43291528E+03</pdfrwt>
<totfact> 0.40755002E+01</totfact>
</mgrwt>
</event>
<event>
 4    1  0.1678003E-008  0.1970867E+03  0.7818608E-02  0.1152220E+00
          1   -1    0    0  501    0  0.00000000000E+00  0.00000000000E+00  0.45886889599E+03  0.45886889602E+03  0.50400000000E-02 0. -1.
         -1   -1    0    0    0  501 -0.00000000000E+00 -0.00000000000E+00 -0.11906430209E+03  0.11906430220E+03  0.50400000000E-02 0.  1.
    8880022    1    1    2    0    0 -0.59294124535E+02 -0.10925074598E+03  0.14546504830E+02  0.19762280364E+03  0.15294330000E+03 0.  0.
    8880022    1    1    2    0    0  0.59294124535E+02  0.10925074598E+03  0.32525808907E+03  0.38031039457E+03  0.15294330000E+03 0.  0.
<mgrwt>
<rscale>  0 0.19708671E+03</rscale>
<asrwt>0</asrwt>
<pdfrwt beam="1">  1        1 0.70595216E-01 0.19708671E+03</pdfrwt>
<pdfrwt beam="2">  1       -1 0.18317585E-01 0.19708671E+03</pdfrwt>
<totfact> 0.11761343E+03</totfact>
</mgrwt>
</event>
<event>
 4    1  0.1678003E-008  0.5023604E+03  0.7818608E-02  0.1013165E+00
         -1   -1    0    0    0  501 -0.00000000000E+00  0.00000000000E+00  0.16805888724E+03  0.16805888732E+03  0.50400000000E-02 0.  1.
          1   -1    0    0  501    0  0.00000000000E+00 -0.00000000000E+00 -0.18849904982E+04  0.18849904982E+04  0.50400000000E-02 0. -1.
    8880022    1    1    2    0    0  0.29577815708E+03 -0.37615099653E+03 -0.13213859783E+04  0.14136572594E+04  0.15294330000E+03 0.  0.
    8880022    1    1    2    0    0 -0.29577815708E+03  0.37615099653E+03 -0.39554563261E+03  0.63939212608E+03  0.15294330000E+03 0.  0.
<mgrwt>
<rscale>  0 0.50236037E+03</rscale>
<asrwt>0</asrwt>
<pdfrwt beam="1">  1        1 0.28999852E+00 0.50236037E+03</pdfrwt>
<pdfrwt beam="2">  1       -1 0.25855215E-01 0.50236037E+03</pdfrwt>
<totfact> 0.50403195E+01</totfact>
</mgrwt>
</event>
<event>
 4    1  0.1678003E-008  0.8640647E+03  0.7818608E-02  0.9471652E-01
          1   -1    0    0  501    0  0.00000000000E+00  0.00000000000E+00  0.17153362512E+04  0.17153362512E+04  0.50400000000E-02 0. -1.
         -1   -1    0    0    0  501 -0.00000000000E+00 -0.00000000000E+00 -0.50838651855E+03  0.50838651857E+03  0.50400000000E-02 0.  1.
    8880022    1    1    2    0    0  0.70690295645E+03 -0.47276256727E+03  0.10251784597E+04  0.13407455993E+04  0.15294330000E+03 0.  0.
    8880022    1    1    2    0    0 -0.70690295645E+03  0.47276256727E+03  0.18177127295E+03  0.88297717045E+03  0.15294330000E+03 0.  0.
<mgrwt>
<rscale>  0 0.86406475E+03</rscale>
<asrwt>0</asrwt>
<pdfrwt beam="1">  1        1 0.26389788E+00 0.86406475E+03</pdfrwt>
<pdfrwt beam="2">  1       -1 0.78213310E-01 0.86406475E+03</pdfrwt>
<totfact> 0.78077711E+00</totfact>
</mgrwt>
</event>
