<event>
 4    1  0.4938540E-001  0.8188403E+02  0.7546771E-02  0.1323788E+00
         -2   -1    0    0    0  501 -0.00000000000E+00  0.00000000000E+00  0.62711719953E+01  0.62711719953E+01  0.00000000000E+00 0.  1.
          2   -1    0    0  501    0  0.00000000000E+00 -0.00000000000E+00 -0.11639699449E+04  0.11639699449E+04  0.00000000000E+00 0. -1.
         24    1    1    2    0    0 -0.10543133499E+02  0.11252424978E+02 -0.41186984032E+03  0.41993065624E+03  0.80419002446E+02 0.  1.
        -24    1    1    2    0    0  0.10543133499E+02 -0.11252424978E+02 -0.74582893260E+03  0.75031046067E+03  0.80419002446E+02 0.  0.
<mgrwt>
<rscale>  0 0.81884018E+02</rscale>
<asrwt>0</asrwt>
<pdfrwt beam="1">  1        2 0.17907224E+00 0.81884028E+02</pdfrwt>
<pdfrwt beam="2">  1       -2 0.96479600E-03 0.81884028E+02</pdfrwt>
<totfact> 0.42369447E+04</totfact>
</mgrwt>
</event>
<event>
 4    1  0.4938540E-001  0.1546342E+03  0.7546771E-02  0.1194891E+00
          2   -1    0    0  501    0  0.00000000000E+00  0.00000000000E+00  0.79419605647E+03  0.79419605647E+03  0.00000000000E+00 0. -1.
         -2   -1    0    0    0  501 -0.00000000000E+00 -0.00000000000E+00 -0.46908800532E+02  0.46908800532E+02  0.00000000000E+00 0.  1.
         24    1    1    2    0    0 -0.13198574037E+03 -0.49283276571E+01  0.62532819329E+03  0.64416386840E+03  0.80419002446E+02 0. -1.
        -24    1    1    2    0    0  0.13198574037E+03  0.49283276571E+01  0.12195906265E+03  0.19694098860E+03  0.80419002446E+02 0.  1.
<mgrwt>
<rscale>  0 0.15463421E+03</rscale>
<asrwt>0</asrwt>
<pdfrwt beam="1">  1        2 0.12218400E+00 0.15463421E+03</pdfrwt>
<pdfrwt beam="2">  1       -2 0.72167391E-02 0.15463421E+03</pdfrwt>
<totfact> 0.39017309E+03</totfact>
</mgrwt>
</event>
<event>
 4    1  0.4938540E-001  0.8559511E+02  0.7546771E-02  0.1313884E+00
          1   -1    0    0  501    0  0.00000000000E+00  0.00000000000E+00  0.16167352896E+03  0.16167352896E+03  0.00000000000E+00 0. -1.
         -1   -1    0    0    0  501 -0.00000000000E+00 -0.00000000000E+00 -0.15274939653E+03  0.15274939653E+03  0.00000000000E+00 0.  1.
         24    1    1    2    0    0  0.15419454206E+02  0.24930839109E+02 -0.12738259605E+03  0.15346937166E+03  0.80419002446E+02 0.  1.
        -24    1    1    2    0    0 -0.15419454206E+02 -0.24930839109E+02  0.13630672848E+03  0.16095355383E+03  0.80419002446E+02 0. -1.
<mgrwt>
<rscale>  0 0.85595107E+02</rscale>
<asrwt>0</asrwt>
<pdfrwt beam="1">  1        1 0.24872851E-01 0.85595107E+02</pdfrwt>
<pdfrwt beam="2">  1       -1 0.23499907E-01 0.85595107E+02</pdfrwt>
<totfact> 0.28084038E+03</totfact>
</mgrwt>
</event>
<event>
 4    1  0.4938540E-001  0.8568814E+02  0.7546771E-02  0.1313643E+00
          2   -1    0    0  501    0  0.00000000000E+00  0.00000000000E+00  0.29102936471E+04  0.29102936471E+04  0.00000000000E+00 0. -1.
         -2   -1    0    0    0  501 -0.00000000000E+00 -0.00000000000E+00 -0.25371390822E+01  0.25371390822E+01  0.00000000000E+00 0.  1.
         24    1    1    2    0    0 -0.84062627571E+01 -0.28365056397E+02  0.15628831776E+04  0.15652304254E+04  0.80419002446E+02 0.  1.
        -24    1    1    2    0    0  0.84062627571E+01  0.28365056397E+02  0.13448733304E+04  0.13476003608E+04  0.80419002446E+02 0.  0.
<mgrwt>
<rscale>  0 0.85688142E+02</rscale>
<asrwt>0</asrwt>
<pdfrwt beam="1">  1        2 0.44773481E+00 0.85688142E+02</pdfrwt>
<pdfrwt beam="2">  1       -2 0.39033142E-03 0.85688142E+02</pdfrwt>
<totfact> 0.18892090E+04</totfact>
</mgrwt>
</event>
<event>
 4    1  0.4938540E-001  0.9838064E+02  0.7546771E-02  0.1283739E+00
         -2   -1    0    0    0  501 -0.00000000000E+00  0.00000000000E+00  0.32813695601E+01  0.32813695601E+01  0.00000000000E+00 0.  1.
          2   -1    0    0  501    0  0.00000000000E+00 -0.00000000000E+00 -0.31638268311E+04  0.31638268311E+04  0.00000000000E+00 0. -1.
         24    1    1    2    0    0  0.56495921670E+02  0.44434582097E+01 -0.19923292168E+04  0.19947567415E+04  0.80419002446E+02 0. -1.
        -24    1    1    2    0    0 -0.56495921670E+02 -0.44434582097E+01 -0.11682162447E+04  0.11723514592E+04  0.80419002446E+02 0.  1.
<mgrwt>
<rscale>  0 0.98380635E+02</rscale>
<asrwt>0</asrwt>
<pdfrwt beam="1">  1        2 0.48674418E+00 0.98380635E+02</pdfrwt>
<pdfrwt beam="2">  1       -2 0.50482444E-03 0.98380635E+02</pdfrwt>
<totfact> 0.94636220E+03</totfact>
</mgrwt>
</event>
<event>
 4    1  0.4938540E-001  0.8823052E+02  0.7546771E-02  0.1307194E+00
         -2   -1    0    0    0  501 -0.00000000000E+00  0.00000000000E+00  0.57472228201E+02  0.57472228201E+02  0.00000000000E+00 0.  1.
          2   -1    0    0  501    0  0.00000000000E+00 -0.00000000000E+00 -0.25759297266E+03  0.25759297266E+03  0.00000000000E+00 0. -1.
         24    1    1    2    0    0  0.21938170467E+02 -0.28915843951E+02 -0.20853728284E+03  0.22643414858E+03  0.80419002446E+02 0. -1.
        -24    1    1    2    0    0 -0.21938170467E+02  0.28915843951E+02  0.84165383850E+01  0.88631052276E+02  0.80419002446E+02 0.  1.
<mgrwt>
<rscale>  0 0.88230524E+02</rscale>
<asrwt>0</asrwt>
<pdfrwt beam="1">  1        2 0.39629688E-01 0.88230524E+02</pdfrwt>
<pdfrwt beam="2">  1       -2 0.88418812E-02 0.88230524E+02</pdfrwt>
<totfact> 0.95119632E+03</totfact>
</mgrwt>
</event>
<event>
 4    1  0.4938540E-001  0.8727317E+02  0.7546771E-02  0.1309593E+00
          1   -1    0    0  501    0  0.00000000000E+00  0.00000000000E+00  0.24030507523E+04  0.24030507523E+04  0.00000000000E+00 0. -1.
         -1   -1    0    0    0  501 -0.00000000000E+00 -0.00000000000E+00 -0.10994277845E+02  0.10994277845E+02  0.00000000000E+00 0.  1.
         24    1    1    2    0    0 -0.26572112468E+02 -0.21054988443E+02  0.17775002524E+03  0.19801938574E+03  0.80419002446E+02 0.  1.
        -24    1    1    2    0    0  0.26572112468E+02  0.21054988443E+02  0.22143064492E+04  0.22160256444E+04  0.80419002446E+02 0. -1.
<mgrwt>
<rscale>  0 0.87273167E+02</rscale>
<asrwt>0</asrwt>
<pdfrwt beam="1">  1        1 0.36969970E+00 0.87273167E+02</pdfrwt>
<pdfrwt beam="2">  1       -1 0.16914293E-02 0.87273167E+02</pdfrwt>
<totfact> 0.16313780E+03</totfact>
</mgrwt>
</event>
<event>
 4    1  0.4938540E-001  0.1170011E+03  0.7546771E-02  0.1248128E+00
         -1   -1    0    0    0  501 -0.00000000000E+00  0.00000000000E+00  0.22897736397E+03  0.22897736397E+03  0.00000000000E+00 0.  1.
          1   -1    0    0  501    0  0.00000000000E+00 -0.00000000000E+00 -0.63310048765E+02  0.63310048765E+02  0.00000000000E+00 0. -1.
         24    1    1    2    0    0  0.80513868042E+02 -0.27194764012E+02  0.11732171687E+03  0.16569139791E+03  0.80419002446E+02 0. -1.
        -24    1    1    2    0    0 -0.80513868042E+02  0.27194764012E+02  0.48345598331E+02  0.12659601482E+03  0.80419002446E+02 0.  1.
<mgrwt>
<rscale>  0 0.11700109E+03</rscale>
<asrwt>0</asrwt>
<pdfrwt beam="1">  1        1 0.97400076E-02 0.11700109E+03</pdfrwt>
<pdfrwt beam="2">  1       -1 0.35227286E-01 0.11700109E+03</pdfrwt>
<totfact> 0.48574159E+03</totfact>
</mgrwt>
</event>
<event>
 4    1  0.4938540E-001  0.1066157E+03  0.7546771E-02  0.1266969E+00
         -2   -1    0    0    0  501 -0.00000000000E+00  0.00000000000E+00  0.27106272079E+02  0.27106272079E+02  0.00000000000E+00 0.  1.
          2   -1    0    0  501    0  0.00000000000E+00 -0.00000000000E+00 -0.42529796020E+03  0.42529796020E+03  0.00000000000E+00 0. -1.
         24    1    1    2    0    0 -0.77795476888E+01 -0.69564147389E+02 -0.17233631421E+03  0.20264923665E+03  0.80419002446E+02 0.  1.
        -24    1    1    2    0    0  0.77795476888E+01  0.69564147389E+02 -0.22585537391E+03  0.24975499563E+03  0.80419002446E+02 0. -1.
<mgrwt>
<rscale>  0 0.10661572E+03</rscale>
<asrwt>0</asrwt>
<pdfrwt beam="1">  1        2 0.65430456E-01 0.10661573E+03</pdfrwt>
<pdfrwt beam="2">  1       -2 0.41701957E-02 0.10661573E+03</pdfrwt>
<totfact> 0.17715372E+04</totfact>
</mgrwt>
</event>
<event>
 4    1  0.4938540E-001  0.8215311E+02  0.7546771E-02  0.1323050E+00
          3   -1    0    0  501    0  0.00000000000E+00  0.00000000000E+00  0.78580200218E+03  0.78580200218E+03  0.00000000000E+00 0. -1.
         -3   -1    0    0    0  501 -0.00000000000E+00 -0.00000000000E+00 -0.93750259771E+01  0.93750259771E+01  0.00000000000E+00 0.  1.
         24    1    1    2    0    0  0.59374269201E+00  0.16779902809E+02  0.27307828185E+03  0.28516816379E+03  0.80419002446E+02 0.  0.
        -24    1    1    2    0    0 -0.59374269201E+00 -0.16779902809E+02  0.50334869435E+03  0.51000886436E+03  0.80419002446E+02 0. -1.
<mgrwt>
<rscale>  0 0.82153111E+02</rscale>
<asrwt>0</asrwt>
<pdfrwt beam="1">  1        3 0.12089256E+00 0.82153111E+02</pdfrwt>
<pdfrwt beam="2">  1       -3 0.14423123E-02 0.82153111E+02</pdfrwt>
<totfact> 0.19104739E+03</totfact>
</mgrwt>
</event>
<event>
 4    1  0.4938540E-001  0.9255705E+02  0.7546771E-02  0.1296775E+00
          1   -1    0    0  501    0  0.00000000000E+00  0.00000000000E+00  0.97175659376E+02  0.97175659376E+02  0.00000000000E+00 0. -1.
         -1   -1    0    0    0  501 -0.00000000000E+00 -0.00000000000E+00 -0.10710132267E+03  0.10710132267E+03  0.00000000000E+00 0.  1.
         24    1    1    2    0    0 -0.45176670791E+02 -0.76589280400E+01 -0.47918521290E+02  0.10422567534E+03  0.80419002446E+02 0. -1.
        -24    1    1    2    0    0  0.45176670791E+02  0.76589280400E+01  0.37992857991E+02  0.10005130671E+03  0.80419002446E+02 0.  0.
<mgrwt>
<rscale>  0 0.92557046E+02</rscale>
<asrwt>0</asrwt>
<pdfrwt beam="1">  1        1 0.14950102E-01 0.92557046E+02</pdfrwt>
<pdfrwt beam="2">  1       -1 0.16477126E-01 0.92557046E+02</pdfrwt>
<totfact> 0.94105514E+03</totfact>
</mgrwt>
</event>
<event>
 4    1  0.4938540E-001  0.8899345E+02  0.7546771E-02  0.1305308E+00
         -2   -1    0    0    0  501 -0.00000000000E+00  0.00000000000E+00  0.68955936840E+02  0.68955936840E+02  0.00000000000E+00 0.  1.
          2   -1    0    0  501    0  0.00000000000E+00 -0.00000000000E+00 -0.12044752168E+03  0.12044752168E+03  0.00000000000E+00 0. -1.
         24    1    1    2    0    0 -0.34949936929E+02  0.15202659712E+02 -0.46154649028E+02  0.10025011988E+03  0.80419002446E+02 0.  0.
        -24    1    1    2    0    0  0.34949936929E+02 -0.15202659712E+02 -0.53369358133E+01  0.89153338647E+02  0.80419002446E+02 0. -1.
<mgrwt>
<rscale>  0 0.88993454E+02</rscale>
<asrwt>0</asrwt>
<pdfrwt beam="1">  1        2 0.18530388E-01 0.88993454E+02</pdfrwt>
<pdfrwt beam="2">  1       -2 0.10608606E-01 0.88993454E+02</pdfrwt>
<totfact> 0.16336210E+04</totfact>
</mgrwt>
</event>
<event>
 4    1  0.4938540E-001  0.8104287E+02  0.7546771E-02  0.1326118E+00
         -1   -1    0    0    0  501 -0.00000000000E+00  0.00000000000E+00  0.27981876542E+01  0.27981876542E+01  0.00000000000E+00 0.  1.
          1   -1    0    0  501    0  0.00000000000E+00 -0.00000000000E+00 -0.24580267649E+04  0.24580267649E+04  0.00000000000E+00 0. -1.
         24    1    1    2    0    0  0.82552919868E+01  0.57077041192E+01 -0.14888625467E+04  0.14910666071E+04  0.80419002446E+02 0. -1.
        -24    1    1    2    0    0 -0.82552919868E+01 -0.57077041192E+01 -0.96636603048E+03  0.96975834544E+03  0.80419002446E+02 0.  1.
<mgrwt>
<rscale>  0 0.81042861E+02</rscale>
<asrwt>0</asrwt>
<pdfrwt beam="1">  1        1 0.37815841E+00 0.81042871E+02</pdfrwt>
<pdfrwt beam="2">  1       -1 0.43048990E-03 0.81042871E+02</pdfrwt>
<totfact> 0.10274980E+04</totfact>
</mgrwt>
</event>
<event>
 4    1  0.4938540E-001  0.1098725E+03  0.7546771E-02  0.1260806E+00
          2   -1    0    0  501    0  0.00000000000E+00  0.00000000000E+00  0.14609870970E+03  0.14609870970E+03  0.00000000000E+00 0. -1.
         -2   -1    0    0    0  501 -0.00000000000E+00 -0.00000000000E+00 -0.88360109187E+02  0.88360109187E+02  0.00000000000E+00 0.  1.
         24    1    1    2    0    0 -0.60761554454E+02  0.43735342927E+02  0.58725529487E+02  0.12458190273E+03  0.80419002446E+02 0.  0.
        -24    1    1    2    0    0  0.60761554454E+02 -0.43735342927E+02 -0.98692897316E+00  0.10987691616E+03  0.80419002446E+02 0. -1.
<mgrwt>
<rscale>  0 0.10987248E+03</rscale>
<asrwt>0</asrwt>
<pdfrwt beam="1">  1        2 0.22476725E-01 0.10987248E+03</pdfrwt>
<pdfrwt beam="2">  1       -2 0.13593863E-01 0.10987248E+03</pdfrwt>
<totfact> 0.90687531E+03</totfact>
</mgrwt>
</event>
<event>
 4    1  0.4938540E-001  0.8362699E+02  0.7546771E-02  0.1319063E+00
         -2   -1    0    0    0  501 -0.00000000000E+00  0.00000000000E+00  0.74594785498E+01  0.74594785498E+01  0.00000000000E+00 0.  1.
          2   -1    0    0  501    0  0.00000000000E+00 -0.00000000000E+00 -0.15325278255E+04  0.15325278255E+04  0.00000000000E+00 0. -1.
         24    1    1    2    0    0 -0.18532018314E+01 -0.22865312435E+02 -0.12423131810E+04  0.12451246976E+04  0.80419002446E+02 0. -1.
        -24    1    1    2    0    0  0.18532018314E+01  0.22865312435E+02 -0.28275516588E+03  0.29486260641E+03  0.80419002446E+02 0.  1.
<mgrwt>
<rscale>  0 0.83626986E+02</rscale>
<asrwt>0</asrwt>
<pdfrwt beam="1">  1        2 0.23577399E+00 0.83626986E+02</pdfrwt>
<pdfrwt beam="2">  1       -2 0.11476098E-02 0.83626986E+02</pdfrwt>
<totfact> 0.21314712E+04</totfact>
</mgrwt>
</event>
<event>
 4    1  0.4938540E-001  0.8166246E+02  0.7546771E-02  0.1324399E+00
         -2   -1    0    0    0  501 -0.00000000000E+00  0.00000000000E+00  0.17906215088E+02  0.17906215088E+02  0.00000000000E+00 0.  1.
          2   -1    0    0  501    0  0.00000000000E+00 -0.00000000000E+00 -0.39953193566E+03  0.39953193566E+03  0.00000000000E+00 0. -1.
         24    1    1    2    0    0 -0.18020163561E+01  0.14081685912E+02 -0.24517680630E+03  0.25841908491E+03  0.80419002446E+02 0.  0.
        -24    1    1    2    0    0  0.18020163561E+01 -0.14081685912E+02 -0.13644891427E+03  0.15901906584E+03  0.80419002446E+02 0. -1.
<mgrwt>
<rscale>  0 0.81662458E+02</rscale>
<asrwt>0</asrwt>
<pdfrwt beam="1">  1        2 0.61466446E-01 0.81662458E+02</pdfrwt>
<pdfrwt beam="2">  1       -2 0.27548026E-02 0.81662458E+02</pdfrwt>
<totfact> 0.33720416E+04</totfact>
</mgrwt>
</event>
<event>
 4    1  0.4938540E-001  0.9015750E+02  0.7546771E-02  0.1302471E+00
          2   -1    0    0  501    0  0.00000000000E+00  0.00000000000E+00  0.17794375633E+04  0.17794375633E+04  0.00000000000E+00 0. -1.
         -2   -1    0    0    0  501 -0.00000000000E+00 -0.00000000000E+00 -0.16507958894E+02  0.16507958894E+02  0.00000000000E+00 0.  1.
         24    1    1    2    0    0  0.26393344178E+02  0.31057206222E+02  0.16451579120E+04  0.16476264534E+04  0.80419002446E+02 0. -1.
        -24    1    1    2    0    0 -0.26393344178E+02 -0.31057206222E+02  0.11777169246E+03  0.14831906882E+03  0.80419002446E+02 0.  1.
<mgrwt>
<rscale>  0 0.90157499E+02</rscale>
<asrwt>0</asrwt>
<pdfrwt beam="1">  1        2 0.27375947E+00 0.90157499E+02</pdfrwt>
<pdfrwt beam="2">  1       -2 0.25396874E-02 0.90157499E+02</pdfrwt>
<totfact> 0.51634727E+03</totfact>
</mgrwt>
</event>
<event>
 4    1  0.4938540E-001  0.8658480E+02  0.7546771E-02  0.1311339E+00
         -3   -1    0    0    0  501 -0.00000000000E+00  0.00000000000E+00  0.10327466623E+03  0.10327466623E+03  0.00000000000E+00 0.  1.
          3   -1    0    0  501    0  0.00000000000E+00 -0.00000000000E+00 -0.75088294623E+02  0.75088294623E+02  0.00000000000E+00 0. -1.
         24    1    1    2    0    0  0.46991286378E+01  0.31743138907E+02 -0.21670935740E+01  0.86611898297E+02  0.80419002446E+02 0.  0.
        -24    1    1    2    0    0 -0.46991286378E+01 -0.31743138907E+02  0.30353465185E+02  0.91751062559E+02  0.80419002446E+02 0.  0.
<mgrwt>
<rscale>  0 0.86584794E+02</rscale>
<asrwt>0</asrwt>
<pdfrwt beam="1">  1        3 0.11552045E-01 0.86584805E+02</pdfrwt>
<pdfrwt beam="2">  1       -3 0.15888410E-01 0.86584805E+02</pdfrwt>
<totfact> 0.40395672E+03</totfact>
</mgrwt>
</event>
<event>
 4    1  0.4938540E-001  0.1100655E+03  0.7546771E-02  0.1260449E+00
          1   -1    0    0  501    0  0.00000000000E+00  0.00000000000E+00  0.16780589673E+03  0.16780589673E+03  0.00000000000E+00 0. -1.
         -1   -1    0    0    0  501 -0.00000000000E+00 -0.00000000000E+00 -0.97478697299E+02  0.97478697299E+02  0.00000000000E+00 0.  1.
         24    1    1    2    0    0  0.67159399322E+01 -0.74847091616E+02 -0.32392544909E+02  0.11473309851E+03  0.80419002446E+02 0.  1.
        -24    1    1    2    0    0 -0.67159399322E+01  0.74847091616E+02  0.10271974434E+03  0.15055149552E+03  0.80419002446E+02 0. -1.
<mgrwt>
<rscale>  0 0.11006547E+03</rscale>
<asrwt>0</asrwt>
<pdfrwt beam="1">  1        1 0.25816292E-01 0.11006547E+03</pdfrwt>
<pdfrwt beam="2">  1       -1 0.14996723E-01 0.11006547E+03</pdfrwt>
<totfact> 0.55483154E+03</totfact>
</mgrwt>
</event>
<event>
 4    1  0.4938540E-001  0.8261352E+02  0.7546771E-02  0.1321794E+00
          2   -1    0    0  501    0  0.00000000000E+00  0.00000000000E+00  0.93977662874E+03  0.93977662874E+03  0.00000000000E+00 0. -1.
         -2   -1    0    0    0  501 -0.00000000000E+00 -0.00000000000E+00 -0.78295336823E+01  0.78295336823E+01  0.00000000000E+00 0.  1.
         24    1    1    2    0    0 -0.15755967825E+02 -0.10465545094E+02  0.59349663469E+03  0.59921886611E+03  0.80419002446E+02 0. -1.
        -24    1    1    2    0    0  0.15755967825E+02  0.10465545094E+02  0.33845046037E+03  0.34838729631E+03  0.80419002446E+02 0.  1.
<mgrwt>
<rscale>  0 0.82613523E+02</rscale>
<asrwt>0</asrwt>
<pdfrwt beam="1">  1        2 0.14458093E+00 0.82613523E+02</pdfrwt>
<pdfrwt beam="2">  1       -2 0.12045444E-02 0.82613523E+02</pdfrwt>
<totfact> 0.41620154E+04</totfact>
</mgrwt>
</event>
<event>
 4    1  0.4938540E-001  0.9320073E+02  0.7546771E-02  0.1295281E+00
          2   -1    0    0  501    0  0.00000000000E+00  0.00000000000E+00  0.16075454525E+04  0.16075454525E+04  0.00000000000E+00 0. -1.
         -2   -1    0    0    0  501 -0.00000000000E+00 -0.00000000000E+00 -0.12180188522E+02  0.12180188522E+02  0.00000000000E+00 0.  1.
         24    1    1    2    0    0 -0.22318088694E+02  0.41485707123E+02  0.14017607685E+04  0.14048557325E+04  0.80419002446E+02 0. -1.
        -24    1    1    2    0    0  0.22318088694E+02 -0.41485707123E+02  0.19360449544E+03  0.21486990852E+03  0.80419002446E+02 0.  1.
<mgrwt>
<rscale>  0 0.93200735E+02</rscale>
<asrwt>0</asrwt>
<pdfrwt beam="1">  1        2 0.24731452E+00 0.93200735E+02</pdfrwt>
<pdfrwt beam="2">  1       -2 0.18738764E-02 0.93200735E+02</pdfrwt>
<totfact> 0.97760747E+03</totfact>
</mgrwt>
</event>
<event>
 4    1  0.4938540E-001  0.8157823E+02  0.7546771E-02  0.1324631E+00
          2   -1    0    0  501    0  0.00000000000E+00  0.00000000000E+00  0.10823081000E+02  0.10823081000E+02  0.00000000000E+00 0. -1.
         -2   -1    0    0    0  501 -0.00000000000E+00 -0.00000000000E+00 -0.12411974706E+04  0.12411974706E+04  0.00000000000E+00 0.  1.
         24    1    1    2    0    0 -0.53363983419E+01 -0.12621997067E+02 -0.17049992115E+03  0.18901119285E+03  0.80419002446E+02 0. -1.
        -24    1    1    2    0    0  0.53363983419E+01  0.12621997067E+02 -0.10598744685E+04  0.10630093588E+04  0.80419002446E+02 0.  1.
<mgrwt>
<rscale>  0 0.81578232E+02</rscale>
<asrwt>0</asrwt>
<pdfrwt beam="1">  1        2 0.16650905E-02 0.81578232E+02</pdfrwt>
<pdfrwt beam="2">  1       -2 0.19095333E+00 0.81578232E+02</pdfrwt>
<totfact> 0.10862644E+03</totfact>
</mgrwt>
</event>
<event>
 4    1  0.4938540E-001  0.8397056E+02  0.7546771E-02  0.1318147E+00
         -2   -1    0    0    0  501 -0.00000000000E+00  0.00000000000E+00  0.22872003945E+01  0.22872003945E+01  0.00000000000E+00 0.  1.
          2   -1    0    0  501    0  0.00000000000E+00 -0.00000000000E+00 -0.31778178019E+04  0.31778178019E+04  0.00000000000E+00 0. -1.
         24    1    1    2    0    0 -0.20750975897E+02 -0.12378876989E+02 -0.18626656749E+04  0.18645574467E+04  0.80419002446E+02 0.  1.
        -24    1    1    2    0    0  0.20750975897E+02  0.12378876989E+02 -0.13128649266E+04  0.13155475556E+04  0.80419002446E+02 0.  1.
<mgrwt>
<rscale>  0 0.83970564E+02</rscale>
<asrwt>0</asrwt>
<pdfrwt beam="1">  1        2 0.48889453E+00 0.83970564E+02</pdfrwt>
<pdfrwt beam="2">  1       -2 0.35187736E-03 0.83970564E+02</pdfrwt>
<totfact> 0.15326182E+04</totfact>
</mgrwt>
</event>
<event>
 4    1  0.4938540E-001  0.8317828E+02  0.7546771E-02  0.1320266E+00
          1   -1    0    0  501    0  0.00000000000E+00  0.00000000000E+00  0.38004603975E+03  0.38004603975E+03  0.00000000000E+00 0. -1.
         -1   -1    0    0    0  501 -0.00000000000E+00 -0.00000000000E+00 -0.55552233966E+02  0.55552233966E+02  0.00000000000E+00 0.  1.
         24    1    1    2    0    0 -0.16388582280E+02  0.13521278978E+02 -0.16334536234E+02  0.84766996188E+02  0.80419002446E+02 0.  1.
        -24    1    1    2    0    0  0.16388582280E+02 -0.13521278978E+02  0.34082834202E+03  0.35083127753E+03  0.80419002446E+02 0. -1.
<mgrwt>
<rscale>  0 0.83178282E+02</rscale>
<asrwt>0</asrwt>
<pdfrwt beam="1">  1        1 0.58468620E-01 0.83178282E+02</pdfrwt>
<pdfrwt beam="2">  1       -1 0.85464978E-02 0.83178282E+02</pdfrwt>
<totfact> 0.47008654E+03</totfact>
</mgrwt>
</event>
<event>
 4    1  0.4938540E-001  0.8096562E+02  0.7546771E-02  0.1326333E+00
         -1   -1    0    0    0  501 -0.00000000000E+00  0.00000000000E+00  0.17611698916E+02  0.17611698916E+02  0.00000000000E+00 0.  1.
          1   -1    0    0  501    0  0.00000000000E+00 -0.00000000000E+00 -0.38719923202E+03  0.38719923202E+03  0.00000000000E+00 0. -1.
         24    1    1    2    0    0  0.85997121279E+01 -0.37763061695E+01 -0.14498344228E+03  0.16605911606E+03  0.80419002446E+02 0.  0.
        -24    1    1    2    0    0 -0.85997121279E+01  0.37763061695E+01 -0.22460409082E+03  0.23875181487E+03  0.80419002446E+02 0.  0.
<mgrwt>
<rscale>  0 0.80965619E+02</rscale>
<asrwt>0</asrwt>
<pdfrwt beam="1">  1        1 0.59569109E-01 0.80965619E+02</pdfrwt>
<pdfrwt beam="2">  1       -1 0.27094923E-02 0.80965619E+02</pdfrwt>
<totfact> 0.24488847E+04</totfact>
</mgrwt>
</event>
<event>
 4    1  0.4938540E-001  0.8046553E+02  0.7546771E-02  0.1327735E+00
         -2   -1    0    0    0  501 -0.00000000000E+00  0.00000000000E+00  0.51722023027E+03  0.51722023027E+03  0.00000000000E+00 0.  1.
          2   -1    0    0  501    0  0.00000000000E+00 -0.00000000000E+00 -0.51582521249E+03  0.51582521249E+03  0.00000000000E+00 0. -1.
         24    1    1    2    0    0  0.26097153786E+01  0.82183017988E+00 -0.50951911954E+03  0.51583372820E+03  0.80419002446E+02 0. -1.
        -24    1    1    2    0    0 -0.26097153786E+01 -0.82183017988E+00  0.51091413732E+03  0.51721171456E+03  0.80419002446E+02 0.  1.
<mgrwt>
<rscale>  0 0.80465533E+02</rscale>
<asrwt>0</asrwt>
<pdfrwt beam="1">  1        2 0.79357725E-01 0.80465533E+02</pdfrwt>
<pdfrwt beam="2">  1       -2 0.79572343E-01 0.80465533E+02</pdfrwt>
<totfact> 0.91473637E+01</totfact>
</mgrwt>
</event>
<event>
 4    1  0.4938540E-001  0.8155285E+02  0.7546771E-02  0.1324702E+00
         -2   -1    0    0    0  501 -0.00000000000E+00  0.00000000000E+00  0.76260638690E+02  0.76260638690E+02  0.00000000000E+00 0.  1.
          2   -1    0    0  501    0  0.00000000000E+00 -0.00000000000E+00 -0.23375520391E+03  0.23375520391E+03  0.00000000000E+00 0. -1.
         24    1    1    2    0    0 -0.48504167584E+01 -0.12654073043E+02 -0.20147865740E+03  0.21735803977E+03  0.80419002446E+02 0. -1.
        -24    1    1    2    0    0  0.48504167584E+01  0.12654073043E+02  0.43984092181E+02  0.92657802837E+02  0.80419002446E+02 0.  0.
<mgrwt>
<rscale>  0 0.81552854E+02</rscale>
<asrwt>0</asrwt>
<pdfrwt beam="1">  1        2 0.35962339E-01 0.81552854E+02</pdfrwt>
<pdfrwt beam="2">  1       -2 0.11732406E-01 0.81552854E+02</pdfrwt>
<totfact> 0.67397050E+03</totfact>
</mgrwt>
</event>
<event>
 4    1  0.4938540E-001  0.8615564E+02  0.7546771E-02  0.1312438E+00
          1   -1    0    0  501    0  0.00000000000E+00  0.00000000000E+00  0.14186526536E+03  0.14186526536E+03  0.00000000000E+00 0. -1.
         -1   -1    0    0    0  501 -0.00000000000E+00 -0.00000000000E+00 -0.57280319074E+02  0.57280319074E+02  0.00000000000E+00 0.  1.
         24    1    1    2    0    0 -0.24553254608E+02  0.18780716998E+02  0.12999165587E+02  0.87130774719E+02  0.80419002446E+02 0.  1.
        -24    1    1    2    0    0  0.24553254608E+02 -0.18780716998E+02  0.71585780698E+02  0.11201480971E+03  0.80419002446E+02 0. -1.
<mgrwt>
<rscale>  0 0.86155636E+02</rscale>
<asrwt>0</asrwt>
<pdfrwt beam="1">  1        1 0.21825425E-01 0.86155636E+02</pdfrwt>
<pdfrwt beam="2">  1       -1 0.88123568E-02 0.86155636E+02</pdfrwt>
<totfact> 0.15069328E+04</totfact>
</mgrwt>
</event>
<event>
 4    1  0.4938540E-001  0.1038907E+03  0.7546771E-02  0.1272321E+00
          2   -1    0    0  501    0  0.00000000000E+00  0.00000000000E+00  0.15606776325E+03  0.15606776325E+03  0.00000000000E+00 0. -1.
         -2   -1    0    0    0  501 -0.00000000000E+00 -0.00000000000E+00 -0.79454350853E+02  0.79454350853E+02  0.00000000000E+00 0.  1.
         24    1    1    2    0    0 -0.57067475810E+02  0.32701217456E+02 -0.40860395473E+01  0.10397104449E+03  0.80419002446E+02 0.  1.
        -24    1    1    2    0    0  0.57067475810E+02 -0.32701217456E+02  0.80699451946E+02  0.13155106962E+03  0.80419002446E+02 0. -1.
<mgrwt>
<rscale>  0 0.10389074E+03</rscale>
<asrwt>0</asrwt>
<pdfrwt beam="1">  1        2 0.24010425E-01 0.10389075E+03</pdfrwt>
<pdfrwt beam="2">  1       -2 0.12223746E-01 0.10389075E+03</pdfrwt>
<totfact> 0.99439737E+03</totfact>
</mgrwt>
</event>
<event>
 4    1  0.4938540E-001  0.8392337E+02  0.7546771E-02  0.1318272E+00
          2   -1    0    0  501    0  0.00000000000E+00  0.00000000000E+00  0.83169153755E+03  0.83169153755E+03  0.00000000000E+00 0. -1.
         -2   -1    0    0    0  501 -0.00000000000E+00 -0.00000000000E+00 -0.94319114189E+01  0.94319114189E+01  0.00000000000E+00 0.  1.
         24    1    1    2    0    0 -0.16972222716E+02  0.16966437746E+02  0.54554509561E+03  0.55196248391E+03  0.80419002446E+02 0.  0.
        -24    1    1    2    0    0  0.16972222716E+02 -0.16966437746E+02  0.27671453052E+03  0.28916096505E+03  0.80419002446E+02 0.  0.
<mgrwt>
<rscale>  0 0.83923372E+02</rscale>
<asrwt>0</asrwt>
<pdfrwt beam="1">  1        2 0.12795249E+00 0.83923372E+02</pdfrwt>
<pdfrwt beam="2">  1       -2 0.14510640E-02 0.83923372E+02</pdfrwt>
<totfact> 0.37374003E+04</totfact>
</mgrwt>
</event>
<event>
 4    1  0.4938540E-001  0.8248251E+02  0.7546771E-02  0.1322150E+00
         -2   -1    0    0    0  501 -0.00000000000E+00  0.00000000000E+00  0.21204445682E+02  0.21204445682E+02  0.00000000000E+00 0.  1.
          2   -1    0    0  501    0  0.00000000000E+00 -0.00000000000E+00 -0.60476913319E+03  0.60476913319E+03  0.00000000000E+00 0. -1.
         24    1    1    2    0    0 -0.33131655069E+01 -0.18032522984E+02 -0.50623501892E+03  0.51291057631E+03  0.80419002446E+02 0. -1.
        -24    1    1    2    0    0  0.33131655069E+01  0.18032522984E+02 -0.77329668587E+02  0.11306300257E+03  0.80419002446E+02 0.  0.
<mgrwt>
<rscale>  0 0.82482513E+02</rscale>
<asrwt>0</asrwt>
<pdfrwt beam="1">  1        2 0.93041408E-01 0.82482513E+02</pdfrwt>
<pdfrwt beam="2">  1       -2 0.32622223E-02 0.82482513E+02</pdfrwt>
<totfact> 0.16910581E+04</totfact>
</mgrwt>
</event>
<event>
 4    1  0.4938540E-001  0.8300535E+02  0.7546771E-02  0.1320733E+00
         -3   -1    0    0    0  501 -0.00000000000E+00  0.00000000000E+00  0.18161041487E+03  0.18161041487E+03  0.00000000000E+00 0.  1.
          3   -1    0    0  501    0  0.00000000000E+00 -0.00000000000E+00 -0.80827980299E+02  0.80827980299E+02  0.00000000000E+00 0. -1.
         24    1    1    2    0    0  0.87784407021E+01 -0.18590611251E+02  0.14597754545E+03  0.16792656603E+03  0.80419002446E+02 0.  1.
        -24    1    1    2    0    0 -0.87784407021E+01  0.18590611251E+02 -0.45195110872E+02  0.94511829148E+02  0.80419002446E+02 0. -1.
<mgrwt>
<rscale>  0 0.83005348E+02</rscale>
<asrwt>0</asrwt>
<pdfrwt beam="1">  1        3 0.12435074E-01 0.83005348E+02</pdfrwt>
<pdfrwt beam="2">  1       -3 0.27940064E-01 0.83005348E+02</pdfrwt>
<totfact> 0.13172491E+03</totfact>
</mgrwt>
</event>
<event>
 4    1  0.4938540E-001  0.9970198E+02  0.7546771E-02  0.1280924E+00
          2   -1    0    0  501    0  0.00000000000E+00  0.00000000000E+00  0.11292409259E+03  0.11292409259E+03  0.00000000000E+00 0. -1.
         -2   -1    0    0    0  501 -0.00000000000E+00 -0.00000000000E+00 -0.88453529811E+02  0.88453529811E+02  0.00000000000E+00 0.  1.
         24    1    1    2    0    0 -0.27383506124E+02  0.52186315997E+02  0.19218891159E+02  0.10153743013E+03  0.80419002446E+02 0. -1.
        -24    1    1    2    0    0  0.27383506124E+02 -0.52186315997E+02  0.52516716234E+01  0.99840192278E+02  0.80419002446E+02 0.  1.
<mgrwt>
<rscale>  0 0.99701976E+02</rscale>
<asrwt>0</asrwt>
<pdfrwt beam="1">  1        2 0.17372937E-01 0.99701976E+02</pdfrwt>
<pdfrwt beam="2">  1       -2 0.13608235E-01 0.99701976E+02</pdfrwt>
<totfact> 0.11986311E+04</totfact>
</mgrwt>
</event>
<event>
 4    1  0.4938540E-001  0.1217307E+03  0.7546771E-02  0.1240269E+00
          2   -1    0    0  501    0  0.00000000000E+00  0.00000000000E+00  0.58584100856E+02  0.58584100856E+02  0.00000000000E+00 0. -1.
         -2   -1    0    0    0  501 -0.00000000000E+00 -0.00000000000E+00 -0.27040741896E+03  0.27040741896E+03  0.00000000000E+00 0.  1.
         24    1    1    2    0    0 -0.13507336514E+02  0.90380895613E+02 -0.64105826752E+02  0.13757880436E+03  0.80419002446E+02 0. -1.
        -24    1    1    2    0    0  0.13507336514E+02 -0.90380895613E+02 -0.14771749135E+03  0.19141271545E+03  0.80419002446E+02 0.  0.
<mgrwt>
<rscale>  0 0.12173073E+03</rscale>
<asrwt>0</asrwt>
<pdfrwt beam="1">  1        2 0.90129384E-02 0.12173073E+03</pdfrwt>
<pdfrwt beam="2">  1       -2 0.41601142E-01 0.12173073E+03</pdfrwt>
<totfact> 0.38244066E+03</totfact>
</mgrwt>
</event>
<event>
 4    1  0.4938540E-001  0.8125905E+02  0.7546771E-02  0.1325516E+00
         -2   -1    0    0    0  501 -0.00000000000E+00  0.00000000000E+00  0.83337427270E+01  0.83337427270E+01  0.00000000000E+00 0.  1.
          2   -1    0    0  501    0  0.00000000000E+00 -0.00000000000E+00 -0.17746225171E+04  0.17746225171E+04  0.00000000000E+00 0. -1.
         24    1    1    2    0    0 -0.70584279523E+01 -0.92734258535E+01 -0.15463973428E+04  0.15485308443E+04  0.80419002446E+02 0.  0.
        -24    1    1    2    0    0  0.70584279523E+01  0.92734258535E+01 -0.21989143154E+03  0.23442541554E+03  0.80419002446E+02 0.  1.
<mgrwt>
<rscale>  0 0.81259054E+02</rscale>
<asrwt>0</asrwt>
<pdfrwt beam="1">  1        2 0.27301877E+00 0.81259054E+02</pdfrwt>
<pdfrwt beam="2">  1       -2 0.12821146E-02 0.81259054E+02</pdfrwt>
<totfact> 0.13744986E+04</totfact>
</mgrwt>
</event>
<event>
 4    1  0.4938540E-001  0.8221735E+02  0.7546771E-02  0.1322874E+00
          1   -1    0    0  501    0  0.00000000000E+00  0.00000000000E+00  0.23033651551E+03  0.23033651551E+03  0.00000000000E+00 0. -1.
         -1   -1    0    0    0  501 -0.00000000000E+00 -0.00000000000E+00 -0.42077824120E+02  0.42077824120E+02  0.00000000000E+00 0.  1.
         24    1    1    2    0    0  0.71319664570E+01  0.15543887345E+02  0.19208783535E+02  0.84431455623E+02  0.80419002446E+02 0.  1.
        -24    1    1    2    0    0 -0.71319664570E+01 -0.15543887345E+02  0.16904990786E+03  0.18798288401E+03  0.80419002446E+02 0. -1.
<mgrwt>
<rscale>  0 0.82217354E+02</rscale>
<asrwt>0</asrwt>
<pdfrwt beam="1">  1        1 0.35436386E-01 0.82217354E+02</pdfrwt>
<pdfrwt beam="2">  1       -1 0.64735115E-02 0.82217354E+02</pdfrwt>
<totfact> 0.13061064E+04</totfact>
</mgrwt>
</event>
<event>
 4    1  0.4938540E-001  0.9387330E+02  0.7546771E-02  0.1293734E+00
          1   -1    0    0  501    0  0.00000000000E+00  0.00000000000E+00  0.34189522036E+04  0.34189522036E+04  0.00000000000E+00 0. -1.
         -1   -1    0    0    0  501 -0.00000000000E+00 -0.00000000000E+00 -0.33416014735E+01  0.33416014735E+01  0.00000000000E+00 0.  1.
         24    1    1    2    0    0  0.34913556740E+02 -0.33556271170E+02  0.88953224359E+03  0.89447180398E+03  0.80419002446E+02 0.  1.
        -24    1    1    2    0    0 -0.34913556740E+02  0.33556271170E+02  0.25260783586E+04  0.25278220011E+04  0.80419002446E+02 0. -1.
<mgrwt>
<rscale>  0 0.93873296E+02</rscale>
<asrwt>0</asrwt>
<pdfrwt beam="1">  1        1 0.52598985E+00 0.93873296E+02</pdfrwt>
<pdfrwt beam="2">  1       -1 0.51409527E-03 0.93873296E+02</pdfrwt>
<totfact> 0.18025058E+03</totfact>
</mgrwt>
</event>
<event>
 4    1  0.4938540E-001  0.1102281E+03  0.7546771E-02  0.1260148E+00
         -2   -1    0    0    0  501 -0.00000000000E+00  0.00000000000E+00  0.27097029320E+02  0.27097029320E+02  0.00000000000E+00 0.  1.
          2   -1    0    0  501    0  0.00000000000E+00 -0.00000000000E+00 -0.51628939480E+03  0.51628939480E+03  0.00000000000E+00 0. -1.
         24    1    1    2    0    0  0.62837883282E+02 -0.41646443500E+02 -0.34311993970E+03  0.36039080844E+03  0.80419002446E+02 0. -1.
        -24    1    1    2    0    0 -0.62837883282E+02  0.41646443500E+02 -0.14607242577E+03  0.18299561568E+03  0.80419002446E+02 0.  1.
<mgrwt>
<rscale>  0 0.11022814E+03</rscale>
<asrwt>0</asrwt>
<pdfrwt beam="1">  1        2 0.79429129E-01 0.11022814E+03</pdfrwt>
<pdfrwt beam="2">  1       -2 0.41687742E-02 0.11022814E+03</pdfrwt>
<totfact> 0.14422005E+04</totfact>
</mgrwt>
</event>
<event>
 4    1  0.4938540E-001  0.1007420E+03  0.7546771E-02  0.1278743E+00
          2   -1    0    0  501    0  0.00000000000E+00  0.00000000000E+00  0.18848157772E+03  0.18848157772E+03  0.00000000000E+00 0. -1.
         -2   -1    0    0    0  501 -0.00000000000E+00 -0.00000000000E+00 -0.61008265808E+02  0.61008265808E+02  0.00000000000E+00 0.  1.
         24    1    1    2    0    0 -0.41195645805E+02 -0.44549463524E+02  0.20994333266E+02  0.10290633565E+03  0.80419002446E+02 0.  0.
        -24    1    1    2    0    0  0.41195645805E+02  0.44549463524E+02  0.10647897865E+03  0.14658350788E+03  0.80419002446E+02 0.  0.
<mgrwt>
<rscale>  0 0.10074202E+03</rscale>
<asrwt>0</asrwt>
<pdfrwt beam="1">  1        2 0.28997166E-01 0.10074203E+03</pdfrwt>
<pdfrwt beam="2">  1       -2 0.93858871E-02 0.10074203E+03</pdfrwt>
<totfact> 0.12226945E+04</totfact>
</mgrwt>
</event>
<event>
 4    1  0.4938540E-001  0.8095588E+02  0.7546771E-02  0.1326360E+00
         -4   -1    0    0    0  501 -0.00000000000E+00  0.00000000000E+00  0.30332366730E+02  0.30332366730E+02  0.00000000000E+00 0.  1.
          4   -1    0    0  501    0  0.00000000000E+00 -0.00000000000E+00 -0.53412903725E+03  0.53412903725E+03  0.00000000000E+00 0. -1.
         24    1    1    2    0    0 -0.93055877999E+01 -0.21252046734E+00 -0.46968754981E+03  0.47661331237E+03  0.80419002446E+02 0.  0.
        -24    1    1    2    0    0  0.93055877999E+01  0.21252046734E+00 -0.34109120712E+02  0.87848091609E+02  0.80419002446E+02 0.  1.
<mgrwt>
<rscale>  0 0.80955884E+02</rscale>
<asrwt>0</asrwt>
<pdfrwt beam="1">  1        4 0.82173702E-01 0.80955884E+02</pdfrwt>
<pdfrwt beam="2">  1       -4 0.46665177E-02 0.80955884E+02</pdfrwt>
<totfact> 0.52936845E+02</totfact>
</mgrwt>
</event>
<event>
 4    1  0.4938540E-001  0.1273869E+03  0.7546771E-02  0.1231385E+00
          2   -1    0    0  501    0  0.00000000000E+00  0.00000000000E+00  0.20262252476E+03  0.20262252476E+03  0.00000000000E+00 0. -1.
         -2   -1    0    0    0  501 -0.00000000000E+00 -0.00000000000E+00 -0.15213396955E+03  0.15213396955E+03  0.00000000000E+00 0.  1.
         24    1    1    2    0    0  0.82339622174E+02 -0.54592977500E+02  0.14731042356E+03  0.19475056718E+03  0.80419002446E+02 0. -1.
        -24    1    1    2    0    0 -0.82339622174E+02  0.54592977500E+02 -0.96821868348E+02  0.16000592713E+03  0.80419002446E+02 0.  1.
<mgrwt>
<rscale>  0 0.12738690E+03</rscale>
<asrwt>0</asrwt>
<pdfrwt beam="1">  1        2 0.31172696E-01 0.12738690E+03</pdfrwt>
<pdfrwt beam="2">  1       -2 0.23405226E-01 0.12738690E+03</pdfrwt>
<totfact> 0.25938618E+03</totfact>
</mgrwt>
</event>
<event>
 4    1  0.4938540E-001  0.9159364E+02  0.7546771E-02  0.1299038E+00
          1   -1    0    0  501    0  0.00000000000E+00  0.00000000000E+00  0.58425617293E+03  0.58425617293E+03  0.00000000000E+00 0. -1.
         -1   -1    0    0    0  501 -0.00000000000E+00 -0.00000000000E+00 -0.40665849452E+02  0.40665849452E+02  0.00000000000E+00 0.  1.
         24    1    1    2    0    0  0.42557520224E+02 -0.10537356605E+02  0.20482435178E+02  0.93855870978E+02  0.80419002446E+02 0.  1.
        -24    1    1    2    0    0 -0.42557520224E+02  0.10537356605E+02  0.52310788830E+03  0.53106615141E+03  0.80419002446E+02 0. -1.
<mgrwt>
<rscale>  0 0.91593637E+02</rscale>
<asrwt>0</asrwt>
<pdfrwt beam="1">  1        1 0.89885559E-01 0.91593637E+02</pdfrwt>
<pdfrwt beam="2">  1       -1 0.62562850E-02 0.91593637E+02</pdfrwt>
<totfact> 0.43460011E+03</totfact>
</mgrwt>
</event>
<event>
 4    1  0.4938540E-001  0.8235023E+02  0.7546771E-02  0.1322511E+00
         -2   -1    0    0    0  501 -0.00000000000E+00  0.00000000000E+00  0.89701963307E+01  0.89701963307E+01  0.00000000000E+00 0.  1.
          2   -1    0    0  501    0  0.00000000000E+00 -0.00000000000E+00 -0.13582196019E+04  0.13582196019E+04  0.00000000000E+00 0. -1.
         24    1    1    2    0    0 -0.17378998441E+02 -0.35092042384E+01 -0.11298093200E+04  0.11328065411E+04  0.80419002446E+02 0. -1.
        -24    1    1    2    0    0  0.17378998441E+02  0.35092042384E+01 -0.21944008552E+03  0.23438325706E+03  0.80419002446E+02 0.  1.
<mgrwt>
<rscale>  0 0.82350228E+02</rscale>
<asrwt>0</asrwt>
<pdfrwt beam="1">  1        2 0.20895685E+00 0.82350228E+02</pdfrwt>
<pdfrwt beam="2">  1       -2 0.13800303E-02 0.82350228E+02</pdfrwt>
<totfact> 0.20136828E+04</totfact>
</mgrwt>
</event>
<event>
 4    1  0.4938540E-001  0.8075463E+02  0.7546771E-02  0.1326923E+00
          1   -1    0    0  501    0  0.00000000000E+00  0.00000000000E+00  0.10318523234E+04  0.10318523234E+04  0.00000000000E+00 0. -1.
         -1   -1    0    0    0  501 -0.00000000000E+00 -0.00000000000E+00 -0.15876741686E+02  0.15876741686E+02  0.00000000000E+00 0.  1.
         24    1    1    2    0    0 -0.60376919463E+01  0.42001358095E+01  0.10155088228E+03  0.12974549130E+03  0.80419002446E+02 0.  0.
        -24    1    1    2    0    0  0.60376919463E+01 -0.42001358095E+01  0.91442469944E+03  0.91798357380E+03  0.80419002446E+02 0. -1.
<mgrwt>
<rscale>  0 0.80754633E+02</rscale>
<asrwt>0</asrwt>
<pdfrwt beam="1">  1        1 0.15874646E+00 0.80754633E+02</pdfrwt>
<pdfrwt beam="2">  1       -1 0.24425764E-02 0.80754633E+02</pdfrwt>
<totfact> 0.72899347E+03</totfact>
</mgrwt>
</event>
<event>
 4    1  0.4938540E-001  0.9124804E+02  0.7546771E-02  0.1299857E+00
         -2   -1    0    0    0  501 -0.00000000000E+00  0.00000000000E+00  0.23807526852E+02  0.23807526852E+02  0.00000000000E+00 0.  1.
          2   -1    0    0  501    0  0.00000000000E+00 -0.00000000000E+00 -0.56011022181E+03  0.56011022181E+03  0.00000000000E+00 0. -1.
         24    1    1    2    0    0  0.35891682880E+02  0.23890917617E+02 -0.44708311564E+03  0.45629981053E+03  0.80419002446E+02 0. -1.
        -24    1    1    2    0    0 -0.35891682880E+02 -0.23890917617E+02 -0.89219579312E+02  0.12761793813E+03  0.80419002446E+02 0.  1.
<mgrwt>
<rscale>  0 0.91248040E+02</rscale>
<asrwt>0</asrwt>
<pdfrwt beam="1">  1        2 0.86170805E-01 0.91248040E+02</pdfrwt>
<pdfrwt beam="2">  1       -2 0.36626964E-02 0.91248040E+02</pdfrwt>
<totfact> 0.15696293E+04</totfact>
</mgrwt>
</event>
<event>
 4    1  0.4938540E-001  0.8893708E+02  0.7546771E-02  0.1305446E+00
          2   -1    0    0  501    0  0.00000000000E+00  0.00000000000E+00  0.68065085724E+03  0.68065085724E+03  0.00000000000E+00 0. -1.
         -2   -1    0    0    0  501 -0.00000000000E+00 -0.00000000000E+00 -0.11638976650E+02  0.11638976650E+02  0.00000000000E+00 0.  1.
         24    1    1    2    0    0 -0.31116620431E+02 -0.21779340677E+02  0.32087791879E+03  0.33297513191E+03  0.80419002446E+02 0.  1.
        -24    1    1    2    0    0  0.31116620431E+02  0.21779340677E+02  0.34813396181E+03  0.35931470199E+03  0.80419002446E+02 0. -1.
<mgrwt>
<rscale>  0 0.88937066E+02</rscale>
<asrwt>0</asrwt>
<pdfrwt beam="1">  1        2 0.10471549E+00 0.88937077E+02</pdfrwt>
<pdfrwt beam="2">  1       -2 0.17906123E-02 0.88937077E+02</pdfrwt>
<totfact> 0.35393193E+04</totfact>
</mgrwt>
</event>
<event>
 4    1  0.4938540E-001  0.9724309E+02  0.7546771E-02  0.1286203E+00
          2   -1    0    0  501    0  0.00000000000E+00  0.00000000000E+00  0.39589521796E+03  0.39589521796E+03  0.00000000000E+00 0. -1.
         -2   -1    0    0    0  501 -0.00000000000E+00 -0.00000000000E+00 -0.42127235714E+02  0.42127235714E+02  0.00000000000E+00 0.  1.
         24    1    1    2    0    0  0.25734264706E+02  0.48236391908E+02  0.32100128336E+03  0.33540727744E+03  0.80419002446E+02 0.  1.
        -24    1    1    2    0    0 -0.25734264706E+02 -0.48236391908E+02  0.32766698888E+02  0.10261517624E+03  0.80419002446E+02 0.  0.
<mgrwt>
<rscale>  0 0.97243086E+02</rscale>
<asrwt>0</asrwt>
<pdfrwt beam="1">  1        2 0.60906954E-01 0.97243086E+02</pdfrwt>
<pdfrwt beam="2">  1       -2 0.64811135E-02 0.97243086E+02</pdfrwt>
<totfact> 0.98132555E+03</totfact>
</mgrwt>
</event>
<event>
 4    1  0.4938540E-001  0.8218949E+02  0.7546771E-02  0.1322950E+00
          2   -1    0    0  501    0  0.00000000000E+00  0.00000000000E+00  0.19406274884E+03  0.19406274884E+03  0.00000000000E+00 0. -1.
         -2   -1    0    0    0  501 -0.00000000000E+00 -0.00000000000E+00 -0.48024680147E+02  0.48024680147E+02  0.00000000000E+00 0.  1.
         24    1    1    2    0    0 -0.39047428300E+01 -0.16512116882E+02  0.13651647517E+03  0.15934823805E+03  0.80419002446E+02 0. -1.
        -24    1    1    2    0    0  0.39047428300E+01  0.16512116882E+02  0.95215935227E+01  0.82739190944E+02  0.80419002446E+02 0.  0.
<mgrwt>
<rscale>  0 0.82189494E+02</rscale>
<asrwt>0</asrwt>
<pdfrwt beam="1">  1        2 0.29855807E-01 0.82189494E+02</pdfrwt>
<pdfrwt beam="2">  1       -2 0.73884124E-02 0.82189494E+02</pdfrwt>
<totfact> 0.16759886E+04</totfact>
</mgrwt>
</event>
<event>
 4    1  0.4938540E-001  0.1267087E+03  0.7546771E-02  0.1232423E+00
         -1   -1    0    0    0  501 -0.00000000000E+00  0.00000000000E+00  0.61279865652E+02  0.61279865652E+02  0.00000000000E+00 0.  1.
          1   -1    0    0  501    0  0.00000000000E+00 -0.00000000000E+00 -0.57660376774E+03  0.57660376774E+03  0.00000000000E+00 0. -1.
         24    1    1    2    0    0 -0.63415556703E+02 -0.74608018920E+02 -0.22071785106E+02  0.12861675230E+03  0.80419002446E+02 0.  1.
        -24    1    1    2    0    0  0.63415556703E+02  0.74608018920E+02 -0.49325211698E+03  0.50926688109E+03  0.80419002446E+02 0. -1.
<mgrwt>
<rscale>  0 0.12670874E+03</rscale>
<asrwt>0</asrwt>
<pdfrwt beam="1">  1        1 0.88708273E-01 0.12670874E+03</pdfrwt>
<pdfrwt beam="2">  1       -1 0.94276715E-02 0.12670874E+03</pdfrwt>
<totfact> 0.24284613E+03</totfact>
</mgrwt>
</event>
<event>
 4    1  0.4938540E-001  0.1050864E+03  0.7546771E-02  0.1269950E+00
         -1   -1    0    0    0  501 -0.00000000000E+00  0.00000000000E+00  0.99779676410E+01  0.99779676410E+01  0.00000000000E+00 0.  1.
          1   -1    0    0  501    0  0.00000000000E+00 -0.00000000000E+00 -0.11128987740E+04  0.11128987740E+04  0.00000000000E+00 0. -1.
         24    1    1    2    0    0  0.52224485227E+02  0.42994496666E+02 -0.59318421990E+03  0.60242066556E+03  0.80419002446E+02 0.  1.
        -24    1    1    2    0    0 -0.52224485227E+02 -0.42994496666E+02 -0.50973658648E+03  0.52045607610E+03  0.80419002446E+02 0. -1.
<mgrwt>
<rscale>  0 0.10508636E+03</rscale>
<asrwt>0</asrwt>
<pdfrwt beam="1">  1        1 0.17121525E+00 0.10508637E+03</pdfrwt>
<pdfrwt beam="2">  1       -1 0.15350714E-02 0.10508637E+03</pdfrwt>
<totfact> 0.12623665E+04</totfact>
</mgrwt>
</event>
<event>
 4    1  0.4938540E-001  0.8777402E+02  0.7546771E-02  0.1308334E+00
         -2   -1    0    0    0  501 -0.00000000000E+00  0.00000000000E+00  0.45247243632E+02  0.45247243632E+02  0.00000000000E+00 0.  1.
          2   -1    0    0  501    0  0.00000000000E+00 -0.00000000000E+00 -0.13250115446E+04  0.13250115446E+04  0.00000000000E+00 0. -1.
         24    1    1    2    0    0 -0.13503243293E+02  0.32476519155E+02 -0.12794771233E+04  0.12824843027E+04  0.80419002446E+02 0. -1.
        -24    1    1    2    0    0  0.13503243293E+02 -0.32476519155E+02 -0.28717769553E+00  0.87774485480E+02  0.80419002446E+02 0.  1.
<mgrwt>
<rscale>  0 0.87774016E+02</rscale>
<asrwt>0</asrwt>
<pdfrwt beam="1">  1        2 0.20384789E+00 0.87774016E+02</pdfrwt>
<pdfrwt beam="2">  1       -2 0.69611157E-02 0.87774016E+02</pdfrwt>
<totfact> 0.19879279E+03</totfact>
</mgrwt>
</event>
<event>
 4    1  0.4938540E-001  0.1164761E+03  0.7546771E-02  0.1249026E+00
          1   -1    0    0  501    0  0.00000000000E+00  0.00000000000E+00  0.12983310629E+04  0.12983310629E+04  0.00000000000E+00 0. -1.
         -1   -1    0    0    0  501 -0.00000000000E+00 -0.00000000000E+00 -0.55671422065E+02  0.55671422065E+02  0.00000000000E+00 0.  1.
         24    1    1    2    0    0  0.81063328859E+02 -0.22982797641E+02  0.11162928715E+02  0.11700982525E+03  0.80419002446E+02 0.  1.
        -24    1    1    2    0    0 -0.81063328859E+02  0.22982797641E+02  0.12314967121E+04  0.12369926597E+04  0.80419002446E+02 0. -1.
<mgrwt>
<rscale>  0 0.11647613E+03</rscale>
<asrwt>0</asrwt>
<pdfrwt beam="1">  1        1 0.19974322E+00 0.11647613E+03</pdfrwt>
<pdfrwt beam="2">  1       -1 0.85648351E-02 0.11647613E+03</pdfrwt>
<totfact> 0.77103750E+02</totfact>
</mgrwt>
</event>
<event>
 4    1  0.4938540E-001  0.8763385E+02  0.7546771E-02  0.1308685E+00
          2   -1    0    0  501    0  0.00000000000E+00  0.00000000000E+00  0.47517242850E+03  0.47517242850E+03  0.00000000000E+00 0. -1.
         -2   -1    0    0    0  501 -0.00000000000E+00 -0.00000000000E+00 -0.16162094483E+02  0.16162094483E+02  0.00000000000E+00 0.  1.
         24    1    1    2    0    0  0.21047334926E+02  0.27739592890E+02  0.23034807419E+03  0.24645471503E+03  0.80419002446E+02 0.  1.
        -24    1    1    2    0    0 -0.21047334926E+02 -0.27739592890E+02  0.22866225983E+03  0.24487980796E+03  0.80419002446E+02 0. -1.
<mgrwt>
<rscale>  0 0.87633848E+02</rscale>
<asrwt>0</asrwt>
<pdfrwt beam="1">  1        2 0.73103440E-01 0.87633848E+02</pdfrwt>
<pdfrwt beam="2">  1       -2 0.24864764E-02 0.87633848E+02</pdfrwt>
<totfact> 0.32816764E+04</totfact>
</mgrwt>
</event>
<event>
 4    1  0.4938540E-001  0.1074169E+03  0.7546771E-02  0.1265429E+00
          3   -1    0    0  501    0  0.00000000000E+00  0.00000000000E+00  0.40036494368E+03  0.40036494368E+03  0.00000000000E+00 0. -1.
         -3   -1    0    0    0  501 -0.00000000000E+00 -0.00000000000E+00 -0.54707412751E+02  0.54707412751E+02  0.00000000000E+00 0.  1.
         24    1    1    2    0    0 -0.59033208105E+02 -0.39827911774E+02  0.16307194214E+02  0.10864770017E+03  0.80419002446E+02 0.  1.
        -24    1    1    2    0    0  0.59033208105E+02  0.39827911774E+02  0.32935033672E+03  0.34642465626E+03  0.80419002446E+02 0. -1.
<mgrwt>
<rscale>  0 0.10741694E+03</rscale>
<asrwt>0</asrwt>
<pdfrwt beam="1">  1        3 0.61594605E-01 0.10741694E+03</pdfrwt>
<pdfrwt beam="2">  1       -3 0.84165253E-02 0.10741694E+03</pdfrwt>
<totfact> 0.57205609E+02</totfact>
</mgrwt>
</event>
<event>
 4    1  0.4938540E-001  0.1036049E+03  0.7546771E-02  0.1272893E+00
          1   -1    0    0  501    0  0.00000000000E+00  0.00000000000E+00  0.10248399372E+04  0.10248399372E+04  0.00000000000E+00 0. -1.
         -1   -1    0    0    0  501 -0.00000000000E+00 -0.00000000000E+00 -0.41080442950E+02  0.41080442950E+02  0.00000000000E+00 0.  1.
         24    1    1    2    0    0  0.22421922950E+02 -0.61351615256E+02  0.31850985105E+02  0.10839033412E+03  0.80419002446E+02 0.  1.
        -24    1    1    2    0    0 -0.22421922950E+02  0.61351615256E+02  0.95190850918E+03  0.95753004607E+03  0.80419002446E+02 0. -1.
<mgrwt>
<rscale>  0 0.10360492E+03</rscale>
<asrwt>0</asrwt>
<pdfrwt beam="1">  1        1 0.15766766E+00 0.10360492E+03</pdfrwt>
<pdfrwt beam="2">  1       -1 0.63200689E-02 0.10360492E+03</pdfrwt>
<totfact> 0.18713548E+03</totfact>
</mgrwt>
</event>
<event>
 4    1  0.4938540E-001  0.8802940E+02  0.7546771E-02  0.1307695E+00
          2   -1    0    0  501    0  0.00000000000E+00  0.00000000000E+00  0.81079130354E+03  0.81079130354E+03  0.00000000000E+00 0. -1.
         -2   -1    0    0    0  501 -0.00000000000E+00 -0.00000000000E+00 -0.99365666405E+01  0.99365666405E+01  0.00000000000E+00 0.  1.
         24    1    1    2    0    0  0.31243253381E+02  0.17487645797E+02  0.48057355394E+03  0.48856945805E+03  0.80419002446E+02 0.  0.
        -24    1    1    2    0    0 -0.31243253381E+02 -0.17487645797E+02  0.32028118296E+03  0.33215841213E+03  0.80419002446E+02 0.  1.
<mgrwt>
<rscale>  0 0.88029396E+02</rscale>
<asrwt>0</asrwt>
<pdfrwt beam="1">  1        2 0.12473707E+00 0.88029396E+02</pdfrwt>
<pdfrwt beam="2">  1       -2 0.15287032E-02 0.88029396E+02</pdfrwt>
<totfact> 0.35992044E+04</totfact>
</mgrwt>
</event>
<event>
 4    1  0.4938540E-001  0.8104861E+02  0.7546771E-02  0.1326102E+00
          3   -1    0    0  501    0  0.00000000000E+00  0.00000000000E+00  0.23419792716E+02  0.23419792716E+02  0.00000000000E+00 0. -1.
         -3   -1    0    0    0  501 -0.00000000000E+00 -0.00000000000E+00 -0.28053417702E+03  0.28053417702E+03  0.00000000000E+00 0.  1.
         24    1    1    2    0    0 -0.89159744683E+01  0.47081315822E+01 -0.13058979506E+03  0.15369636180E+03  0.80419002446E+02 0.  0.
        -24    1    1    2    0    0  0.89159744683E+01 -0.47081315822E+01 -0.12652458925E+03  0.15025760794E+03  0.80419002446E+02 0. -1.
<mgrwt>
<rscale>  0 0.81048609E+02</rscale>
<asrwt>0</asrwt>
<pdfrwt beam="1">  1        3 0.36030449E-02 0.81048609E+02</pdfrwt>
<pdfrwt beam="2">  1       -3 0.43159106E-01 0.81048609E+02</pdfrwt>
<totfact> 0.41875243E+03</totfact>
</mgrwt>
</event>
<event>
 4    1  0.4938540E-001  0.8063563E+02  0.7546771E-02  0.1327257E+00
         -2   -1    0    0    0  501 -0.00000000000E+00  0.00000000000E+00  0.23102569632E+02  0.23102569632E+02  0.00000000000E+00 0.  1.
          2   -1    0    0  501    0  0.00000000000E+00 -0.00000000000E+00 -0.24452080173E+04  0.24452080173E+04  0.00000000000E+00 0. -1.
         24    1    1    2    0    0 -0.40963628142E+01 -0.42555175518E+01 -0.23720113403E+04  0.23733815336E+04  0.80419002446E+02 0. -1.
        -24    1    1    2    0    0  0.40963628142E+01  0.42555175518E+01 -0.50094107378E+02  0.94929053331E+02  0.80419002446E+02 0.  1.
<mgrwt>
<rscale>  0 0.80635635E+02</rscale>
<asrwt>0</asrwt>
<pdfrwt beam="1">  1        2 0.37618577E+00 0.80635635E+02</pdfrwt>
<pdfrwt beam="2">  1       -2 0.35542422E-02 0.80635635E+02</pdfrwt>
<totfact> 0.14589757E+03</totfact>
</mgrwt>
</event>
<event>
 4    1  0.4938540E-001  0.2269469E+03  0.7546771E-02  0.1128807E+00
          2   -1    0    0  501    0  0.00000000000E+00  0.00000000000E+00  0.17381450516E+04  0.17381450516E+04  0.00000000000E+00 0. -1.
         -2   -1    0    0    0  501 -0.00000000000E+00 -0.00000000000E+00 -0.76696759924E+02  0.76696759924E+02  0.00000000000E+00 0.  1.
         24    1    1    2    0    0 -0.18424547261E+03  0.10531525571E+03  0.15415572864E+04  0.15581732191E+04  0.80419002446E+02 0. -1.
        -24    1    1    2    0    0  0.18424547261E+03 -0.10531525571E+03  0.11989100522E+03  0.25666859245E+03  0.80419002446E+02 0.  1.
<mgrwt>
<rscale>  0 0.22694694E+03</rscale>
<asrwt>0</asrwt>
<pdfrwt beam="1">  1        2 0.26740690E+00 0.22694694E+03</pdfrwt>
<pdfrwt beam="2">  1       -2 0.11799503E-01 0.22694694E+03</pdfrwt>
<totfact> 0.52356379E+02</totfact>
</mgrwt>
</event>
<event>
 4    1  0.4938540E-001  0.9285975E+02  0.7546771E-02  0.1296071E+00
         -2   -1    0    0    0  501 -0.00000000000E+00  0.00000000000E+00  0.20978924545E+02  0.20978924545E+02  0.00000000000E+00 0.  1.
          2   -1    0    0  501    0  0.00000000000E+00 -0.00000000000E+00 -0.93682134913E+03  0.93682134913E+03  0.00000000000E+00 0. -1.
         24    1    1    2    0    0  0.35504867395E+02 -0.29918581637E+02 -0.81669769196E+03  0.82195988536E+03  0.80419002446E+02 0. -1.
        -24    1    1    2    0    0 -0.35504867395E+02  0.29918581637E+02 -0.99144732628E+02  0.13584038832E+03  0.80419002446E+02 0.  1.
<mgrwt>
<rscale>  0 0.92859750E+02</rscale>
<asrwt>0</asrwt>
<pdfrwt beam="1">  1        2 0.14412637E+00 0.92859750E+02</pdfrwt>
<pdfrwt beam="2">  1       -2 0.32275266E-02 0.92859750E+02</pdfrwt>
<totfact> 0.10261495E+04</totfact>
</mgrwt>
</event>
<event>
 4    1  0.4938540E-001  0.9390215E+02  0.7546771E-02  0.1293668E+00
         -2   -1    0    0    0  501 -0.00000000000E+00  0.00000000000E+00  0.14973473985E+02  0.14973473985E+02  0.00000000000E+00 0.  1.
          2   -1    0    0  501    0  0.00000000000E+00 -0.00000000000E+00 -0.67197618853E+03  0.67197618853E+03  0.00000000000E+00 0. -1.
         24    1    1    2    0    0  0.80960236718E+01  0.47800135605E+02 -0.44928340629E+03  0.45899149631E+03  0.80419002446E+02 0. -1.
        -24    1    1    2    0    0 -0.80960236718E+01 -0.47800135605E+02 -0.20771930826E+03  0.22795816621E+03  0.80419002446E+02 0.  1.
<mgrwt>
<rscale>  0 0.93902154E+02</rscale>
<asrwt>0</asrwt>
<pdfrwt beam="1">  1        2 0.10338095E+00 0.93902154E+02</pdfrwt>
<pdfrwt beam="2">  1       -2 0.23036115E-02 0.93902154E+02</pdfrwt>
<totfact> 0.25152952E+04</totfact>
</mgrwt>
</event>
<event>
 4    1  0.4938540E-001  0.9058952E+02  0.7546771E-02  0.1301430E+00
          1   -1    0    0  501    0  0.00000000000E+00  0.00000000000E+00  0.34788895560E+03  0.34788895560E+03  0.00000000000E+00 0. -1.
         -1   -1    0    0    0  501 -0.00000000000E+00 -0.00000000000E+00 -0.23608447555E+02  0.23608447555E+02  0.00000000000E+00 0.  1.
         24    1    1    2    0    0  0.30426512452E+02 -0.28521366949E+02  0.16743015094E+03  0.19036625865E+03  0.80419002446E+02 0.  1.
        -24    1    1    2    0    0 -0.30426512452E+02  0.28521366949E+02  0.15685035710E+03  0.18113114451E+03  0.80419002446E+02 0. -1.
<mgrwt>
<rscale>  0 0.90589508E+02</rscale>
<asrwt>0</asrwt>
<pdfrwt beam="1">  1        1 0.53521374E-01 0.90589520E+02</pdfrwt>
<pdfrwt beam="2">  1       -1 0.36320691E-02 0.90589520E+02</pdfrwt>
<totfact> 0.18549564E+04</totfact>
</mgrwt>
</event>
<event>
 4    1  0.4938540E-001  0.8163092E+02  0.7546771E-02  0.1324486E+00
         -2   -1    0    0    0  501 -0.00000000000E+00  0.00000000000E+00  0.10377012529E+02  0.10377012529E+02  0.00000000000E+00 0.  1.
          2   -1    0    0  501    0  0.00000000000E+00 -0.00000000000E+00 -0.64301749378E+03  0.64301749378E+03  0.00000000000E+00 0. -1.
         24    1    1    2    0    0 -0.12716919915E+02 -0.58879190845E+01 -0.30432396097E+03  0.31508201602E+03  0.80419002446E+02 0. -1.
        -24    1    1    2    0    0  0.12716919915E+02  0.58879190845E+01 -0.32831652028E+03  0.33831249029E+03  0.80419002446E+02 0.  1.
<mgrwt>
<rscale>  0 0.81630909E+02</rscale>
<asrwt>0</asrwt>
<pdfrwt beam="1">  1        2 0.98925773E-01 0.81630919E+02</pdfrwt>
<pdfrwt beam="2">  1       -2 0.15964634E-02 0.81630919E+02</pdfrwt>
<totfact> 0.44056718E+04</totfact>
</mgrwt>
</event>
<event>
 4    1  0.4938540E-001  0.8412864E+02  0.7546771E-02  0.1317727E+00
         -1   -1    0    0    0  501 -0.00000000000E+00  0.00000000000E+00  0.12718451262E+04  0.12718451262E+04  0.00000000000E+00 0.  1.
          1   -1    0    0  501    0  0.00000000000E+00 -0.00000000000E+00 -0.10964991115E+02  0.10964991115E+02  0.00000000000E+00 0. -1.
         24    1    1    2    0    0  0.15236664244E+02 -0.19448805774E+02  0.10805626218E+04  0.10838326474E+04  0.80419002446E+02 0.  1.
        -24    1    1    2    0    0 -0.15236664244E+02  0.19448805774E+02  0.18031751331E+03  0.19897746994E+03  0.80419002446E+02 0. -1.
<mgrwt>
<rscale>  0 0.84128639E+02</rscale>
<asrwt>0</asrwt>
<pdfrwt beam="1">  1        1 0.16869227E-02 0.84128639E+02</pdfrwt>
<pdfrwt beam="2">  1       -1 0.19566836E+00 0.84128639E+02</pdfrwt>
<totfact> 0.13116487E+03</totfact>
</mgrwt>
</event>
<event>
 4    1  0.4938540E-001  0.9451764E+02  0.7546771E-02  0.1292266E+00
         -4   -1    0    0    0  501 -0.00000000000E+00  0.00000000000E+00  0.45467433971E+03  0.45467433971E+03  0.00000000000E+00 0.  1.
          4   -1    0    0  501    0  0.00000000000E+00 -0.00000000000E+00 -0.28143541634E+02  0.28143541634E+02  0.00000000000E+00 0. -1.
         24    1    1    2    0    0  0.21349037717E+02  0.44839575214E+02  0.80632443294E+02  0.12423838289E+03  0.80419002446E+02 0. -1.
        -24    1    1    2    0    0 -0.21349037717E+02 -0.44839575214E+02  0.34589835478E+03  0.35857949845E+03  0.80419002446E+02 0.  1.
<mgrwt>
<rscale>  0 0.94517643E+02</rscale>
<asrwt>0</asrwt>
<pdfrwt beam="1">  1        4 0.43297760E-02 0.94517643E+02</pdfrwt>
<pdfrwt beam="2">  1       -4 0.69949893E-01 0.94517643E+02</pdfrwt>
<totfact> 0.87723422E+02</totfact>
</mgrwt>
</event>
<event>
 4    1  0.4938540E-001  0.8475102E+02  0.7546771E-02  0.1316085E+00
          1   -1    0    0  501    0  0.00000000000E+00  0.00000000000E+00  0.12076115239E+04  0.12076115239E+04  0.00000000000E+00 0. -1.
         -1   -1    0    0    0  501 -0.00000000000E+00 -0.00000000000E+00 -0.84662852218E+01  0.84662852218E+01  0.00000000000E+00 0.  1.
         24    1    1    2    0    0 -0.82998618000E+01  0.25428964898E+02  0.26794767404E+03  0.28103147856E+03  0.80419002446E+02 0.  0.
        -24    1    1    2    0    0  0.82998618000E+01 -0.25428964898E+02  0.93119756462E+03  0.93504633055E+03  0.80419002446E+02 0.  0.
<mgrwt>
<rscale>  0 0.84751023E+02</rscale>
<asrwt>0</asrwt>
<pdfrwt beam="1">  1        1 0.18578625E+00 0.84751023E+02</pdfrwt>
<pdfrwt beam="2">  1       -1 0.13025064E-02 0.84751023E+02</pdfrwt>
<totfact> 0.13528102E+04</totfact>
</mgrwt>
</event>
<event>
 4    1  0.4938540E-001  0.9256257E+02  0.7546771E-02  0.1296762E+00
          2   -1    0    0  501    0  0.00000000000E+00  0.00000000000E+00  0.13031458011E+04  0.13031458011E+04  0.00000000000E+00 0. -1.
         -2   -1    0    0    0  501 -0.00000000000E+00 -0.00000000000E+00 -0.23549090725E+02  0.23549090725E+02  0.00000000000E+00 0.  1.
         24    1    1    2    0    0  0.38515740981E+02 -0.24842509935E+02  0.12029829091E+04  0.12065387305E+04  0.80419002446E+02 0. -1.
        -24    1    1    2    0    0 -0.38515740981E+02  0.24842509935E+02  0.76613801205E+02  0.12015616128E+03  0.80419002446E+02 0.  1.
<mgrwt>
<rscale>  0 0.92562566E+02</rscale>
<asrwt>0</asrwt>
<pdfrwt beam="1">  1        2 0.20048391E+00 0.92562566E+02</pdfrwt>
<pdfrwt beam="2">  1       -2 0.36229381E-02 0.92562566E+02</pdfrwt>
<totfact> 0.53972519E+03</totfact>
</mgrwt>
</event>
<event>
 4    1  0.4938540E-001  0.8208428E+02  0.7546771E-02  0.1323238E+00
         -2   -1    0    0    0  501 -0.00000000000E+00  0.00000000000E+00  0.15858807945E+01  0.15858807945E+01  0.00000000000E+00 0.  1.
          2   -1    0    0  501    0  0.00000000000E+00 -0.00000000000E+00 -0.50750383592E+04  0.50750383592E+04  0.00000000000E+00 0. -1.
         24    1    1    2    0    0 -0.40034490990E+01  0.15955719191E+02 -0.35610126593E+04  0.35619585887E+04  0.80419002446E+02 0.  0.
        -24    1    1    2    0    0  0.40034490990E+01 -0.15955719191E+02 -0.15124398192E+04  0.15146656513E+04  0.80419002446E+02 0.  0.
<mgrwt>
<rscale>  0 0.82084277E+02</rscale>
<asrwt>0</asrwt>
<pdfrwt beam="1">  1        2 0.78076222E+00 0.82084277E+02</pdfrwt>
<pdfrwt beam="2">  1       -2 0.24398569E-03 0.82084277E+02</pdfrwt>
<totfact> 0.73752855E+02</totfact>
</mgrwt>
</event>
<event>
 4    1  0.4938540E-001  0.1007873E+03  0.7546771E-02  0.1278649E+00
          1   -1    0    0  501    0  0.00000000000E+00  0.00000000000E+00  0.32798756813E+04  0.32798756813E+04  0.00000000000E+00 0. -1.
         -1   -1    0    0    0  501 -0.00000000000E+00 -0.00000000000E+00 -0.73430532548E+01  0.73430532548E+01  0.00000000000E+00 0.  1.
         24    1    1    2    0    0 -0.60562440918E+02 -0.48005734906E+01  0.38644370667E+03  0.39937051610E+03  0.80419002446E+02 0.  1.
        -24    1    1    2    0    0  0.60562440918E+02  0.48005734906E+01  0.28860889214E+04  0.28878482185E+04  0.80419002446E+02 0. -1.
<mgrwt>
<rscale>  0 0.10078725E+03</rscale>
<asrwt>0</asrwt>
<pdfrwt beam="1">  1        1 0.50459509E+00 0.10078725E+03</pdfrwt>
<pdfrwt beam="2">  1       -1 0.11297031E-02 0.10078725E+03</pdfrwt>
<totfact> 0.74718431E+02</totfact>
</mgrwt>
</event>
<event>
 4    1  0.4938540E-001  0.9972446E+02  0.7546771E-02  0.1280876E+00
         -2   -1    0    0    0  501 -0.00000000000E+00  0.00000000000E+00  0.93419035375E+02  0.93419035375E+02  0.00000000000E+00 0.  1.
          2   -1    0    0  501    0  0.00000000000E+00 -0.00000000000E+00 -0.44079206339E+03  0.44079206339E+03  0.00000000000E+00 0. -1.
         24    1    1    2    0    0  0.57619917713E+02 -0.12557721534E+02 -0.40631237038E+03  0.41837149707E+03  0.80419002446E+02 0. -1.
        -24    1    1    2    0    0 -0.57619917713E+02  0.12557721534E+02  0.58939342362E+02  0.11583960169E+03  0.80419002446E+02 0.  1.
<mgrwt>
<rscale>  0 0.99724457E+02</rscale>
<asrwt>0</asrwt>
<pdfrwt beam="1">  1        2 0.67814164E-01 0.99724457E+02</pdfrwt>
<pdfrwt beam="2">  1       -2 0.14372159E-01 0.99724457E+02</pdfrwt>
<totfact> 0.25389992E+03</totfact>
</mgrwt>
</event>
<event>
 4    1  0.4938540E-001  0.8468572E+02  0.7546771E-02  0.1316256E+00
          4   -1    0    0  501    0  0.00000000000E+00  0.00000000000E+00  0.10226745209E+03  0.10226745209E+03  0.00000000000E+00 0. -1.
         -4   -1    0    0    0  501 -0.00000000000E+00 -0.00000000000E+00 -0.70442461445E+02  0.70442461445E+02  0.00000000000E+00 0.  1.
         24    1    1    2    0    0  0.26500018422E+02 -0.14848835001E+01  0.21694753099E+02  0.87420444530E+02  0.80419002446E+02 0. -1.
        -24    1    1    2    0    0 -0.26500018422E+02  0.14848835001E+01  0.10130237541E+02  0.85289469000E+02  0.80419002446E+02 0.  1.
<mgrwt>
<rscale>  0 0.84685724E+02</rscale>
<asrwt>0</asrwt>
<pdfrwt beam="1">  1        4 0.15733454E-01 0.84685724E+02</pdfrwt>
<pdfrwt beam="2">  1       -4 0.10837302E-01 0.84685724E+02</pdfrwt>
<totfact> 0.33197824E+03</totfact>
</mgrwt>
</event>
<event>
 4    1  0.4938540E-001  0.8632168E+02  0.7546771E-02  0.1312012E+00
          1   -1    0    0  501    0  0.00000000000E+00  0.00000000000E+00  0.14938986442E+04  0.14938986442E+04  0.00000000000E+00 0. -1.
         -1   -1    0    0    0  501 -0.00000000000E+00 -0.00000000000E+00 -0.11734353132E+02  0.11734353132E+02  0.00000000000E+00 0.  1.
         24    1    1    2    0    0 -0.44611027052E+01  0.31053413201E+02  0.17026503051E+03  0.19089686346E+03  0.80419002446E+02 0.  1.
        -24    1    1    2    0    0  0.44611027052E+01 -0.31053413201E+02  0.13118992606E+04  0.13147361339E+04  0.80419002446E+02 0. -1.
<mgrwt>
<rscale>  0 0.86321677E+02</rscale>
<asrwt>0</asrwt>
<pdfrwt beam="1">  1        1 0.22983041E+00 0.86321677E+02</pdfrwt>
<pdfrwt beam="2">  1       -1 0.18052863E-02 0.86321677E+02</pdfrwt>
<totfact> 0.55508725E+03</totfact>
</mgrwt>
</event>
<event>
 4    1  0.4938540E-001  0.8280267E+02  0.7546771E-02  0.1321281E+00
         -2   -1    0    0    0  501 -0.00000000000E+00  0.00000000000E+00  0.23238204740E+01  0.23238204740E+01  0.00000000000E+00 0.  1.
          2   -1    0    0  501    0  0.00000000000E+00 -0.00000000000E+00 -0.39424986680E+04  0.39424986680E+04  0.00000000000E+00 0. -1.
         24    1    1    2    0    0 -0.16711899793E+02 -0.10477507539E+02 -0.29595091027E+04  0.29606672239E+04  0.80419002446E+02 0. -1.
        -24    1    1    2    0    0  0.16711899793E+02  0.10477507539E+02 -0.98066574487E+03  0.98415526461E+03  0.80419002446E+02 0.  1.
<mgrwt>
<rscale>  0 0.82802667E+02</rscale>
<asrwt>0</asrwt>
<pdfrwt beam="1">  1        2 0.60653522E+00 0.82802667E+02</pdfrwt>
<pdfrwt beam="2">  1       -2 0.35751263E-03 0.82802667E+02</pdfrwt>
<totfact> 0.47794200E+03</totfact>
</mgrwt>
</event>
<event>
 4    1  0.4938540E-001  0.8565800E+02  0.7546771E-02  0.1313721E+00
         -2   -1    0    0    0  501 -0.00000000000E+00  0.00000000000E+00  0.29319760655E+02  0.29319760655E+02  0.00000000000E+00 0.  1.
          2   -1    0    0  501    0  0.00000000000E+00 -0.00000000000E+00 -0.60422543491E+03  0.60422543491E+03  0.00000000000E+00 0. -1.
         24    1    1    2    0    0  0.20962653529E+02  0.20751968005E+02 -0.52990953622E+03  0.53678804900E+03  0.80419002446E+02 0. -1.
        -24    1    1    2    0    0 -0.20962653529E+02 -0.20751968005E+02 -0.44996138039E+02  0.96757146567E+02  0.80419002446E+02 0.  0.
<mgrwt>
<rscale>  0 0.85658000E+02</rscale>
<asrwt>0</asrwt>
<pdfrwt beam="1">  1        2 0.92957768E-01 0.85658000E+02</pdfrwt>
<pdfrwt beam="2">  1       -2 0.45107320E-02 0.85658000E+02</pdfrwt>
<totfact> 0.10565921E+04</totfact>
</mgrwt>
</event>
<event>
 4    1  0.4938540E-001  0.8747670E+02  0.7546771E-02  0.1309080E+00
         -1   -1    0    0    0  501 -0.00000000000E+00  0.00000000000E+00  0.32160028391E+02  0.32160028391E+02  0.00000000000E+00 0.  1.
          1   -1    0    0  501    0  0.00000000000E+00 -0.00000000000E+00 -0.50493630202E+03  0.50493630202E+03  0.00000000000E+00 0. -1.
         24    1    1    2    0    0 -0.32243903267E+02 -0.12053546902E+02 -0.41108882420E+02  0.96654609093E+02  0.80419002446E+02 0.  1.
        -24    1    1    2    0    0  0.32243903267E+02  0.12053546902E+02 -0.43166739120E+03  0.44044172131E+03  0.80419002446E+02 0. -1.
<mgrwt>
<rscale>  0 0.87476701E+02</rscale>
<asrwt>0</asrwt>
<pdfrwt beam="1">  1        1 0.77682511E-01 0.87476701E+02</pdfrwt>
<pdfrwt beam="2">  1       -1 0.49476965E-02 0.87476701E+02</pdfrwt>
<totfact> 0.74004137E+03</totfact>
</mgrwt>
</event>
<event>
 4    1  0.4938540E-001  0.8586189E+02  0.7546771E-02  0.1313194E+00
         -1   -1    0    0    0  501 -0.00000000000E+00  0.00000000000E+00  0.63155578337E+02  0.63155578337E+02  0.00000000000E+00 0.  1.
          1   -1    0    0  501    0  0.00000000000E+00 -0.00000000000E+00 -0.40486252798E+03  0.40486252798E+03  0.00000000000E+00 0. -1.
         24    1    1    2    0    0 -0.30045524876E+02 -0.15214959482E+01  0.26558573543E+02  0.89875593450E+02  0.80419002446E+02 0.  1.
        -24    1    1    2    0    0  0.30045524876E+02  0.15214959482E+01 -0.36826552318E+03  0.37814251286E+03  0.80419002446E+02 0. -1.
<mgrwt>
<rscale>  0 0.85861892E+02</rscale>
<asrwt>0</asrwt>
<pdfrwt beam="1">  1        1 0.62286543E-01 0.85861892E+02</pdfrwt>
<pdfrwt beam="2">  1       -1 0.97162428E-02 0.85861892E+02</pdfrwt>
<totfact> 0.35936508E+03</totfact>
</mgrwt>
</event>
<event>
 4    1  0.4938540E-001  0.9929145E+02  0.7546771E-02  0.1281793E+00
         -2   -1    0    0    0  501 -0.00000000000E+00  0.00000000000E+00  0.10799175943E+02  0.10799175943E+02  0.00000000000E+00 0.  1.
          2   -1    0    0  501    0  0.00000000000E+00 -0.00000000000E+00 -0.16181533667E+04  0.16181533667E+04  0.00000000000E+00 0. -1.
         24    1    1    2    0    0 -0.54850088110E+02  0.19571517235E+02 -0.13413705792E+04  0.13450404541E+04  0.80419002446E+02 0. -1.
        -24    1    1    2    0    0  0.54850088110E+02 -0.19571517235E+02 -0.26598361155E+03  0.28391208854E+03  0.80419002446E+02 0.  1.
<mgrwt>
<rscale>  0 0.99291452E+02</rscale>
<asrwt>0</asrwt>
<pdfrwt beam="1">  1        2 0.24894661E+00 0.99291452E+02</pdfrwt>
<pdfrwt beam="2">  1       -2 0.16614121E-02 0.99291452E+02</pdfrwt>
<totfact> 0.11510756E+04</totfact>
</mgrwt>
</event>
<event>
 4    1  0.4938540E-001  0.8128689E+02  0.7546771E-02  0.1325439E+00
         -4   -1    0    0    0  501 -0.00000000000E+00  0.00000000000E+00  0.32978590479E+01  0.32978590479E+01  0.00000000000E+00 0.  1.
          4   -1    0    0  501    0  0.00000000000E+00 -0.00000000000E+00 -0.22849691034E+04  0.22849691034E+04  0.00000000000E+00 0. -1.
         24    1    1    2    0    0  0.89665590140E+01 -0.77422911682E+01 -0.15423325835E+04  0.15444731647E+04  0.80419002446E+02 0. -1.
        -24    1    1    2    0    0 -0.89665590140E+01  0.77422911682E+01 -0.73933866083E+03  0.74379379777E+03  0.80419002446E+02 0. -1.
<mgrwt>
<rscale>  0 0.81286888E+02</rscale>
<asrwt>0</asrwt>
<pdfrwt beam="1">  1        4 0.35153399E+00 0.81286888E+02</pdfrwt>
<pdfrwt beam="2">  1       -4 0.50736252E-03 0.81286888E+02</pdfrwt>
<totfact> 0.23621764E+02</totfact>
</mgrwt>
</event>
<event>
 4    1  0.4938540E-001  0.8846738E+02  0.7546771E-02  0.1306606E+00
         -2   -1    0    0    0  501 -0.00000000000E+00  0.00000000000E+00  0.16735722674E+02  0.16735722674E+02  0.00000000000E+00 0.  1.
          2   -1    0    0  501    0  0.00000000000E+00 -0.00000000000E+00 -0.13608477622E+04  0.13608477622E+04  0.00000000000E+00 0. -1.
         24    1    1    2    0    0 -0.18012434183E+02 -0.32168523225E+02 -0.12300849663E+04  0.12332621384E+04  0.80419002446E+02 0. -1.
        -24    1    1    2    0    0  0.18012434183E+02  0.32168523225E+02 -0.11402707320E+03  0.14432134647E+03  0.80419002446E+02 0.  1.
<mgrwt>
<rscale>  0 0.88467382E+02</rscale>
<asrwt>0</asrwt>
<pdfrwt beam="1">  1        2 0.20936123E+00 0.88467382E+02</pdfrwt>
<pdfrwt beam="2">  1       -2 0.25747262E-02 0.88467382E+02</pdfrwt>
<totfact> 0.82563384E+03</totfact>
</mgrwt>
</event>
<event>
 4    1  0.4938540E-001  0.8078532E+02  0.7546771E-02  0.1326837E+00
         -3   -1    0    0    0  501 -0.00000000000E+00  0.00000000000E+00  0.11959024132E+03  0.11959024132E+03  0.00000000000E+00 0.  1.
          3   -1    0    0  501    0  0.00000000000E+00 -0.00000000000E+00 -0.54897536845E+02  0.54897536845E+02  0.00000000000E+00 0. -1.
         24    1    1    2    0    0 -0.46777076506E+01 -0.60967395095E+01  0.39065634270E+02  0.89735115294E+02  0.80419002446E+02 0.  0.
        -24    1    1    2    0    0  0.46777076506E+01  0.60967395095E+01  0.25627070201E+02  0.84752662867E+02  0.80419002446E+02 0.  1.
<mgrwt>
<rscale>  0 0.80785315E+02</rscale>
<asrwt>0</asrwt>
<pdfrwt beam="1">  1        3 0.84457749E-02 0.80785315E+02</pdfrwt>
<pdfrwt beam="2">  1       -3 0.18398499E-01 0.80785315E+02</pdfrwt>
<totfact> 0.51569101E+03</totfact>
</mgrwt>
</event>
<event>
 4    1  0.4938540E-001  0.1062849E+03  0.7546771E-02  0.1267608E+00
          2   -1    0    0  501    0  0.00000000000E+00  0.00000000000E+00  0.58407742775E+03  0.58407742775E+03  0.00000000000E+00 0. -1.
         -2   -1    0    0    0  501 -0.00000000000E+00 -0.00000000000E+00 -0.29079831111E+02  0.29079831111E+02  0.00000000000E+00 0.  1.
         24    1    1    2    0    0  0.41563431759E+02 -0.55693394850E+02  0.45491986121E+03  0.46717081370E+03  0.80419002446E+02 0. -1.
        -24    1    1    2    0    0 -0.41563431759E+02  0.55693394850E+02  0.10007773543E+03  0.14598644517E+03  0.80419002446E+02 0.  1.
<mgrwt>
<rscale>  0 0.10628494E+03</rscale>
<asrwt>0</asrwt>
<pdfrwt beam="1">  1        2 0.89858057E-01 0.10628494E+03</pdfrwt>
<pdfrwt beam="2">  1       -2 0.44738206E-02 0.10628494E+03</pdfrwt>
<totfact> 0.11297978E+04</totfact>
</mgrwt>
</event>
<event>
 4    1  0.4938540E-001  0.1046803E+03  0.7546771E-02  0.1270751E+00
          2   -1    0    0  501    0  0.00000000000E+00  0.00000000000E+00  0.80227994365E+02  0.80227994365E+02  0.00000000000E+00 0. -1.
         -2   -1    0    0    0  501 -0.00000000000E+00 -0.00000000000E+00 -0.14050683626E+03  0.14050683626E+03  0.00000000000E+00 0.  1.
         24    1    1    2    0    0 -0.22253209656E+02  0.63210389065E+02 -0.11701437197E+02  0.10533232273E+03  0.80419002446E+02 0.  0.
        -24    1    1    2    0    0  0.22253209656E+02 -0.63210389065E+02 -0.48577404699E+02  0.11540250789E+03  0.80419002446E+02 0. -1.
<mgrwt>
<rscale>  0 0.10468034E+03</rscale>
<asrwt>0</asrwt>
<pdfrwt beam="1">  1        2 0.12342768E-01 0.10468034E+03</pdfrwt>
<pdfrwt beam="2">  1       -2 0.21616436E-01 0.10468034E+03</pdfrwt>
<totfact> 0.83548453E+03</totfact>
</mgrwt>
</event>
<event>
 4    1  0.4938540E-001  0.8446182E+02  0.7546771E-02  0.1316846E+00
         -4   -1    0    0    0  501 -0.00000000000E+00  0.00000000000E+00  0.66128771152E+02  0.66128771152E+02  0.00000000000E+00 0.  1.
          4   -1    0    0  501    0  0.00000000000E+00 -0.00000000000E+00 -0.41582558347E+03  0.41582558347E+03  0.00000000000E+00 0. -1.
         24    1    1    2    0    0  0.24287922339E+02  0.87567438265E+01 -0.38222471291E+03  0.39144543790E+03  0.80419002446E+02 0. -1.
        -24    1    1    2    0    0 -0.24287922339E+02 -0.87567438265E+01  0.32527900600E+02  0.90508916720E+02  0.80419002446E+02 0.  1.
<mgrwt>
<rscale>  0 0.84461824E+02</rscale>
<asrwt>0</asrwt>
<pdfrwt beam="1">  1        4 0.63973165E-01 0.84461824E+02</pdfrwt>
<pdfrwt beam="2">  1       -4 0.10173657E-01 0.84461824E+02</pdfrwt>
<totfact> 0.25826190E+02</totfact>
</mgrwt>
</event>
<event>
 4    1  0.4938540E-001  0.9403083E+02  0.7546771E-02  0.1293374E+00
          2   -1    0    0  501    0  0.00000000000E+00  0.00000000000E+00  0.68903638701E+03  0.68903638701E+03  0.00000000000E+00 0. -1.
         -2   -1    0    0    0  501 -0.00000000000E+00 -0.00000000000E+00 -0.12850267697E+02  0.12850267697E+02  0.00000000000E+00 0.  1.
         24    1    1    2    0    0 -0.69166838187E+01 -0.48236260997E+02  0.32490242785E+03  0.33823568849E+03  0.80419002446E+02 0.  1.
        -24    1    1    2    0    0  0.69166838187E+01  0.48236260997E+02  0.35128369146E+03  0.36365096622E+03  0.80419002446E+02 0.  1.
<mgrwt>
<rscale>  0 0.94030822E+02</rscale>
<asrwt>0</asrwt>
<pdfrwt beam="1">  1        2 0.10600557E+00 0.94030834E+02</pdfrwt>
<pdfrwt beam="2">  1       -2 0.19769648E-02 0.94030834E+02</pdfrwt>
<totfact> 0.30456567E+04</totfact>
</mgrwt>
</event>
<event>
 4    1  0.4938540E-001  0.1093020E+03  0.7546771E-02  0.1261868E+00
          4   -1    0    0  501    0  0.00000000000E+00  0.00000000000E+00  0.24313242696E+03  0.24313242696E+03  0.00000000000E+00 0. -1.
         -4   -1    0    0    0  501 -0.00000000000E+00 -0.00000000000E+00 -0.50519268728E+02  0.50519268728E+02  0.00000000000E+00 0.  1.
         24    1    1    2    0    0 -0.72985588636E+02  0.12362236141E+02  0.12058835528E+03  0.16275284457E+03  0.80419002446E+02 0. -1.
        -24    1    1    2    0    0  0.72985588636E+02 -0.12362236141E+02  0.72024802954E+02  0.13089885112E+03  0.80419002446E+02 0.  0.
<mgrwt>
<rscale>  0 0.10930204E+03</rscale>
<asrwt>0</asrwt>
<pdfrwt beam="1">  1        4 0.37404988E-01 0.10930204E+03</pdfrwt>
<pdfrwt beam="2">  1       -4 0.77721953E-02 0.10930204E+03</pdfrwt>
<totfact> 0.12632204E+03</totfact>
</mgrwt>
</event>
<event>
 4    1  0.4938540E-001  0.9144324E+02  0.7546771E-02  0.1299394E+00
          2   -1    0    0  501    0  0.00000000000E+00  0.00000000000E+00  0.35009699876E+03  0.35009699876E+03  0.00000000000E+00 0. -1.
         -2   -1    0    0    0  501 -0.00000000000E+00 -0.00000000000E+00 -0.25223129275E+02  0.25223129275E+02  0.00000000000E+00 0.  1.
         24    1    1    2    0    0  0.12823869447E+02 -0.41595665248E+02  0.20566980159E+03  0.22508206112E+03  0.80419002446E+02 0. -1.
        -24    1    1    2    0    0 -0.12823869447E+02  0.41595665248E+02  0.11920406790E+03  0.15023806692E+03  0.80419002446E+02 0.  1.
<mgrwt>
<rscale>  0 0.91443244E+02</rscale>
<asrwt>0</asrwt>
<pdfrwt beam="1">  1        2 0.53861073E-01 0.91443244E+02</pdfrwt>
<pdfrwt beam="2">  1       -2 0.38804817E-02 0.91443244E+02</pdfrwt>
<totfact> 0.23817399E+04</totfact>
</mgrwt>
</event>
<event>
 4    1  0.4938540E-001  0.8688636E+02  0.7546771E-02  0.1310572E+00
          1   -1    0    0  501    0  0.00000000000E+00  0.00000000000E+00  0.73059276303E+03  0.73059276303E+03  0.00000000000E+00 0. -1.
         -1   -1    0    0    0  501 -0.00000000000E+00 -0.00000000000E+00 -0.41987371658E+02  0.41987371658E+02  0.00000000000E+00 0.  1.
         24    1    1    2    0    0 -0.30960152025E+02 -0.11112754822E+02  0.88967106517E+01  0.87340664916E+02  0.80419002446E+02 0.  1.
        -24    1    1    2    0    0  0.30960152025E+02  0.11112754822E+02  0.67970868072E+03  0.68523946977E+03  0.80419002446E+02 0. -1.
<mgrwt>
<rscale>  0 0.86886364E+02</rscale>
<asrwt>0</asrwt>
<pdfrwt beam="1">  1        1 0.11239888E+00 0.86886364E+02</pdfrwt>
<pdfrwt beam="2">  1       -1 0.64595962E-02 0.86886364E+02</pdfrwt>
<totfact> 0.30407192E+03</totfact>
</mgrwt>
</event>
<event>
 4    1  0.4938540E-001  0.8815328E+02  0.7546771E-02  0.1307386E+00
          2   -1    0    0  501    0  0.00000000000E+00  0.00000000000E+00  0.75994647224E+03  0.75994647224E+03  0.00000000000E+00 0. -1.
         -2   -1    0    0    0  501 -0.00000000000E+00 -0.00000000000E+00 -0.44577651422E+02  0.44577651422E+02  0.00000000000E+00 0.  1.
         24    1    1    2    0    0  0.30801141100E+02  0.18843433327E+02  0.71080744815E+03  0.71625290895E+03  0.80419002446E+02 0. -1.
        -24    1    1    2    0    0 -0.30801141100E+02 -0.18843433327E+02  0.45613726685E+01  0.88271214717E+02  0.80419002446E+02 0.  1.
<mgrwt>
<rscale>  0 0.88153283E+02</rscale>
<asrwt>0</asrwt>
<pdfrwt beam="1">  1        2 0.11691483E+00 0.88153283E+02</pdfrwt>
<pdfrwt beam="2">  1       -2 0.68581007E-02 0.88153283E+02</pdfrwt>
<totfact> 0.43468935E+03</totfact>
</mgrwt>
</event>
<event>
 4    1  0.4938540E-001  0.8887906E+02  0.7546771E-02  0.1305589E+00
          2   -1    0    0  501    0  0.00000000000E+00  0.00000000000E+00  0.67477078641E+03  0.67477078641E+03  0.00000000000E+00 0. -1.
         -2   -1    0    0    0  501 -0.00000000000E+00 -0.00000000000E+00 -0.14260047102E+02  0.14260047102E+02  0.00000000000E+00 0.  1.
         24    1    1    2    0    0 -0.25951136650E+02  0.27546490688E+02  0.47603086544E+03  0.48425703035E+03  0.80419002446E+02 0. -1.
        -24    1    1    2    0    0  0.25951136650E+02 -0.27546490688E+02  0.18447987388E+03  0.20477380316E+03  0.80419002446E+02 0.  1.
<mgrwt>
<rscale>  0 0.88879056E+02</rscale>
<asrwt>0</asrwt>
<pdfrwt beam="1">  1        2 0.10381087E+00 0.88879056E+02</pdfrwt>
<pdfrwt beam="2">  1       -2 0.21938539E-02 0.88879056E+02</pdfrwt>
<totfact> 0.26708570E+04</totfact>
</mgrwt>
</event>
<event>
 4    1  0.4938540E-001  0.8716136E+02  0.7546771E-02  0.1309875E+00
         -1   -1    0    0    0  501 -0.00000000000E+00  0.00000000000E+00  0.12183895049E+02  0.12183895049E+02  0.00000000000E+00 0.  1.
          1   -1    0    0  501    0  0.00000000000E+00 -0.00000000000E+00 -0.64285920964E+03  0.64285920964E+03  0.00000000000E+00 0. -1.
         24    1    1    2    0    0 -0.20730897853E+02  0.26459730169E+02 -0.25855498244E+03  0.27285120917E+03  0.80419002446E+02 0. -1.
        -24    1    1    2    0    0  0.20730897853E+02 -0.26459730169E+02 -0.37212033216E+03  0.38219189553E+03  0.80419002446E+02 0.  1.
<mgrwt>
<rscale>  0 0.87161364E+02</rscale>
<asrwt>0</asrwt>
<pdfrwt beam="1">  1        1 0.98901456E-01 0.87161364E+02</pdfrwt>
<pdfrwt beam="2">  1       -1 0.18744446E-02 0.87161364E+02</pdfrwt>
<totfact> 0.21758118E+04</totfact>
</mgrwt>
</event>
<event>
 4    1  0.4938540E-001  0.8456398E+02  0.7546771E-02  0.1316577E+00
         -3   -1    0    0    0  501 -0.00000000000E+00  0.00000000000E+00  0.73480847045E+02  0.73480847045E+02  0.00000000000E+00 0.  1.
          3   -1    0    0  501    0  0.00000000000E+00 -0.00000000000E+00 -0.98991783826E+02  0.98991783826E+02  0.00000000000E+00 0. -1.
         24    1    1    2    0    0  0.25967988913E+02  0.30846614169E+01 -0.15446568605E+01  0.84578091155E+02  0.80419002446E+02 0.  0.
        -24    1    1    2    0    0 -0.25967988913E+02 -0.30846614169E+01 -0.23966279921E+02  0.87894539716E+02  0.80419002446E+02 0.  1.
<mgrwt>
<rscale>  0 0.84563985E+02</rscale>
<asrwt>0</asrwt>
<pdfrwt beam="1">  1        3 0.15229505E-01 0.84563985E+02</pdfrwt>
<pdfrwt beam="2">  1       -3 0.11304746E-01 0.84563985E+02</pdfrwt>
<totfact> 0.44745661E+03</totfact>
</mgrwt>
</event>
<event>
 4    1  0.4938540E-001  0.1238844E+03  0.7546771E-02  0.1236823E+00
          2   -1    0    0  501    0  0.00000000000E+00  0.00000000000E+00  0.87075314073E+03  0.87075314073E+03  0.00000000000E+00 0. -1.
         -2   -1    0    0    0  501 -0.00000000000E+00 -0.00000000000E+00 -0.20038278243E+02  0.20038278243E+02  0.00000000000E+00 0.  1.
         24    1    1    2    0    0 -0.86168203629E+02  0.38146701652E+02  0.57991356615E+03  0.59299838981E+03  0.80419002446E+02 0. -1.
        -24    1    1    2    0    0  0.86168203629E+02 -0.38146701652E+02  0.27080129634E+03  0.29779302916E+03  0.80419002446E+02 0.  1.
<mgrwt>
<rscale>  0 0.12388441E+03</rscale>
<asrwt>0</asrwt>
<pdfrwt beam="1">  1        2 0.13396199E+00 0.12388441E+03</pdfrwt>
<pdfrwt beam="2">  1       -2 0.30828127E-02 0.12388441E+03</pdfrwt>
<totfact> 0.12298331E+04</totfact>
</mgrwt>
</event>
<event>
 4    1  0.4938540E-001  0.1036726E+03  0.7546771E-02  0.1272757E+00
          2   -1    0    0  501    0  0.00000000000E+00  0.00000000000E+00  0.18457534246E+04  0.18457534246E+04  0.00000000000E+00 0. -1.
         -2   -1    0    0    0  501 -0.00000000000E+00 -0.00000000000E+00 -0.10378525073E+02  0.10378525073E+02  0.00000000000E+00 0.  1.
         24    1    1    2    0    0 -0.36762226490E+02  0.54123212456E+02  0.15325466502E+04  0.15360492291E+04  0.80419002446E+02 0. -1.
        -24    1    1    2    0    0  0.36762226490E+02 -0.54123212456E+02  0.30282824932E+03  0.32008272050E+03  0.80419002446E+02 0.  1.
<mgrwt>
<rscale>  0 0.10367256E+03</rscale>
<asrwt>0</asrwt>
<pdfrwt beam="1">  1        2 0.28396180E+00 0.10367256E+03</pdfrwt>
<pdfrwt beam="2">  1       -2 0.15966976E-02 0.10367256E+03</pdfrwt>
<totfact> 0.93693766E+03</totfact>
</mgrwt>
</event>
<event>
 4    1  0.4938540E-001  0.8781506E+02  0.7546771E-02  0.1308231E+00
         -4   -1    0    0    0  501 -0.00000000000E+00  0.00000000000E+00  0.99182612981E+02  0.99182612981E+02  0.00000000000E+00 0.  1.
          4   -1    0    0  501    0  0.00000000000E+00 -0.00000000000E+00 -0.84213490097E+02  0.84213490097E+02  0.00000000000E+00 0. -1.
         24    1    1    2    0    0  0.18291159441E+02 -0.30161271771E+02 -0.17918754668E+02  0.89624586759E+02  0.80419002446E+02 0. -1.
        -24    1    1    2    0    0 -0.18291159441E+02  0.30161271771E+02  0.32887877553E+02  0.93771516319E+02  0.80419002446E+02 0.  1.
<mgrwt>
<rscale>  0 0.87815060E+02</rscale>
<asrwt>0</asrwt>
<pdfrwt beam="1">  1        4 0.12955922E-01 0.87815060E+02</pdfrwt>
<pdfrwt beam="2">  1       -4 0.15258864E-01 0.87815060E+02</pdfrwt>
<totfact> 0.26146631E+03</totfact>
</mgrwt>
</event>
<event>
 4    1  0.4938540E-001  0.8274199E+02  0.7546771E-02  0.1321445E+00
          2   -1    0    0  501    0  0.00000000000E+00  0.00000000000E+00  0.16232638859E+03  0.16232638859E+03  0.00000000000E+00 0. -1.
         -2   -1    0    0    0  501 -0.00000000000E+00 -0.00000000000E+00 -0.47030439450E+02  0.47030439450E+02  0.00000000000E+00 0.  1.
         24    1    1    2    0    0  0.88417611558E+01  0.17344857042E+02  0.91279646595E+02  0.12319988086E+03  0.80419002446E+02 0. -1.
        -24    1    1    2    0    0 -0.88417611558E+01 -0.17344857042E+02  0.24016302549E+02  0.86156947187E+02  0.80419002446E+02 0.  1.
<mgrwt>
<rscale>  0 0.82741989E+02</rscale>
<asrwt>0</asrwt>
<pdfrwt beam="1">  1        2 0.24973290E-01 0.82741989E+02</pdfrwt>
<pdfrwt beam="2">  1       -2 0.72354523E-02 0.82741989E+02</pdfrwt>
<totfact> 0.20978636E+04</totfact>
</mgrwt>
</event>
<event>
 4    1  0.4938540E-001  0.9402691E+02  0.7546771E-02  0.1293383E+00
          2   -1    0    0  501    0  0.00000000000E+00  0.00000000000E+00  0.14125258037E+04  0.14125258037E+04  0.00000000000E+00 0. -1.
         -2   -1    0    0    0  501 -0.00000000000E+00 -0.00000000000E+00 -0.73109724821E+01  0.73109724821E+01  0.00000000000E+00 0.  1.
         24    1    1    2    0    0 -0.31303984393E+01 -0.48621448213E+02  0.97189358146E+03  0.97643135666E+03  0.80419002446E+02 0. -1.
        -24    1    1    2    0    0  0.31303984393E+01  0.48621448213E+02  0.43332124978E+03  0.44340541955E+03  0.80419002446E+02 0.  1.
<mgrwt>
<rscale>  0 0.94026914E+02</rscale>
<asrwt>0</asrwt>
<pdfrwt beam="1">  1        2 0.21731145E+00 0.94026914E+02</pdfrwt>
<pdfrwt beam="2">  1       -2 0.11247661E-02 0.94026914E+02</pdfrwt>
<totfact> 0.25496293E+04</totfact>
</mgrwt>
</event>
<event>
 4    1  0.4938540E-001  0.8046671E+02  0.7546771E-02  0.1327732E+00
          2   -1    0    0  501    0  0.00000000000E+00  0.00000000000E+00  0.33538751294E+02  0.33538751294E+02  0.00000000000E+00 0. -1.
         -2   -1    0    0    0  501 -0.00000000000E+00 -0.00000000000E+00 -0.23022349874E+03  0.23022349874E+03  0.00000000000E+00 0.  1.
         24    1    1    2    0    0  0.11448873511E+01 -0.25228349849E+01 -0.45353642583E+02  0.92367983161E+02  0.80419002446E+02 0.  0.
        -24    1    1    2    0    0 -0.11448873511E+01  0.25228349849E+01 -0.15133110486E+03  0.17139426687E+03  0.80419002446E+02 0.  1.
<mgrwt>
<rscale>  0 0.80466710E+02</rscale>
<asrwt>0</asrwt>
<pdfrwt beam="1">  1        2 0.51598078E-02 0.80466710E+02</pdfrwt>
<pdfrwt beam="2">  1       -2 0.35419000E-01 0.80466710E+02</pdfrwt>
<totfact> 0.10055170E+04</totfact>
</mgrwt>
</event>
<event>
 4    1  0.4938540E-001  0.8345963E+02  0.7546771E-02  0.1319511E+00
         -2   -1    0    0    0  501 -0.00000000000E+00  0.00000000000E+00  0.82628642465E+01  0.82628642465E+01  0.00000000000E+00 0.  1.
          2   -1    0    0  501    0  0.00000000000E+00 -0.00000000000E+00 -0.89245950892E+03  0.89245950892E+03  0.00000000000E+00 0. -1.
         24    1    1    2    0    0  0.20424783215E+02  0.90068169659E+01 -0.54813015477E+03  0.55444763238E+03  0.80419002446E+02 0. -1.
        -24    1    1    2    0    0 -0.20424783215E+02 -0.90068169659E+01 -0.33606648990E+03  0.34627474079E+03  0.80419002446E+02 0.  1.
<mgrwt>
<rscale>  0 0.83459634E+02</rscale>
<asrwt>0</asrwt>
<pdfrwt beam="1">  1        2 0.13730146E+00 0.83459634E+02</pdfrwt>
<pdfrwt beam="2">  1       -2 0.12712100E-02 0.83459634E+02</pdfrwt>
<totfact> 0.41259580E+04</totfact>
</mgrwt>
</event>
<event>
 4    1  0.4938540E-001  0.9626446E+02  0.7546771E-02  0.1288353E+00
         -2   -1    0    0    0  501 -0.00000000000E+00  0.00000000000E+00  0.33931410843E+02  0.33931410843E+02  0.00000000000E+00 0.  1.
          2   -1    0    0  501    0  0.00000000000E+00 -0.00000000000E+00 -0.28404797514E+03  0.28404797514E+03  0.00000000000E+00 0. -1.
         24    1    1    2    0    0  0.40983129951E+02 -0.33466614723E+02 -0.15626408970E+03  0.18353559035E+03  0.80419002446E+02 0. -1.
        -24    1    1    2    0    0 -0.40983129951E+02  0.33466614723E+02 -0.93852474603E+02  0.13444379564E+03  0.80419002446E+02 0.  1.
<mgrwt>
<rscale>  0 0.96264465E+02</rscale>
<asrwt>0</asrwt>
<pdfrwt beam="1">  1        2 0.43699686E-01 0.96264465E+02</pdfrwt>
<pdfrwt beam="2">  1       -2 0.52202173E-02 0.96264465E+02</pdfrwt>
<totfact> 0.19215973E+04</totfact>
</mgrwt>
</event>
<event>
 4    1  0.4938540E-001  0.8205110E+02  0.7546771E-02  0.1323329E+00
         -4   -1    0    0    0  501 -0.00000000000E+00  0.00000000000E+00  0.65314566503E+02  0.65314566503E+02  0.00000000000E+00 0.  1.
          4   -1    0    0  501    0  0.00000000000E+00 -0.00000000000E+00 -0.10483440922E+03  0.10483440922E+03  0.00000000000E+00 0. -1.
         24    1    1    2    0    0  0.11933432794E+02  0.11079718294E+02 -0.30777142946E+02  0.87633415191E+02  0.80419002446E+02 0. -1.
        -24    1    1    2    0    0 -0.11933432794E+02 -0.11079718294E+02 -0.87426997673E+01  0.82515560528E+02  0.80419002446E+02 0.  1.
<mgrwt>
<rscale>  0 0.82051100E+02</rscale>
<asrwt>0</asrwt>
<pdfrwt beam="1">  1        4 0.16128371E-01 0.82051100E+02</pdfrwt>
<pdfrwt beam="2">  1       -4 0.10048395E-01 0.82051100E+02</pdfrwt>
<totfact> 0.35758789E+03</totfact>
</mgrwt>
</event>
<event>
 4    1  0.4938540E-001  0.8492101E+02  0.7546771E-02  0.1315639E+00
          3   -1    0    0  501    0  0.00000000000E+00  0.00000000000E+00  0.21023564041E+03  0.21023564041E+03  0.00000000000E+00 0. -1.
         -3   -1    0    0    0  501 -0.00000000000E+00 -0.00000000000E+00 -0.75041432457E+02  0.75041432457E+02  0.00000000000E+00 0.  1.
         24    1    1    2    0    0 -0.12070609634E+02 -0.24467594878E+02 -0.37500273927E+02  0.92832372129E+02  0.80419002446E+02 0. -1.
        -24    1    1    2    0    0  0.12070609634E+02  0.24467594878E+02  0.17269448187E+03  0.19244470073E+03  0.80419002446E+02 0. -1.
<mgrwt>
<rscale>  0 0.84921015E+02</rscale>
<asrwt>0</asrwt>
<pdfrwt beam="1">  1        3 0.32343944E-01 0.84921015E+02</pdfrwt>
<pdfrwt beam="2">  1       -3 0.11544836E-01 0.84921015E+02</pdfrwt>
<totfact> 0.11451911E+03</totfact>
</mgrwt>
</event>
<event>
 4    1  0.4938540E-001  0.8488314E+02  0.7546771E-02  0.1315738E+00
          1   -1    0    0  501    0  0.00000000000E+00  0.00000000000E+00  0.94345523640E+02  0.94345523640E+02  0.00000000000E+00 0. -1.
         -1   -1    0    0    0  501 -0.00000000000E+00 -0.00000000000E+00 -0.76800380699E+02  0.76800380699E+02  0.00000000000E+00 0.  1.
         24    1    1    2    0    0  0.18525906440E+02  0.19867621168E+02  0.23650699501E+01  0.84916082638E+02  0.80419002446E+02 0.  1.
        -24    1    1    2    0    0 -0.18525906440E+02 -0.19867621168E+02  0.15180072991E+02  0.86229821701E+02  0.80419002446E+02 0. -1.
<mgrwt>
<rscale>  0 0.84883140E+02</rscale>
<asrwt>0</asrwt>
<pdfrwt beam="1">  1        1 0.14514696E-01 0.84883140E+02</pdfrwt>
<pdfrwt beam="2">  1       -1 0.11815443E-01 0.84883140E+02</pdfrwt>
<totfact> 0.16174479E+04</totfact>
</mgrwt>
</event>
<event>
 4    1  0.4938540E-001  0.8092263E+02  0.7546771E-02  0.1326453E+00
          2   -1    0    0  501    0  0.00000000000E+00  0.00000000000E+00  0.43984352563E+03  0.43984352563E+03  0.00000000000E+00 0. -1.
         -2   -1    0    0    0  501 -0.00000000000E+00 -0.00000000000E+00 -0.29627656026E+02  0.29627656026E+02  0.00000000000E+00 0.  1.
         24    1    1    2    0    0 -0.81288615967E+01  0.38958728739E+01  0.37067396340E+03  0.37940434804E+03  0.80419002446E+02 0. -1.
        -24    1    1    2    0    0  0.81288615967E+01 -0.38958728739E+01  0.39541906202E+02  0.90066833611E+02  0.80419002446E+02 0.  0.
<mgrwt>
<rscale>  0 0.80922631E+02</rscale>
<asrwt>0</asrwt>
<pdfrwt beam="1">  1        2 0.67668230E-01 0.80922631E+02</pdfrwt>
<pdfrwt beam="2">  1       -2 0.45581013E-02 0.80922631E+02</pdfrwt>
<totfact> 0.14604375E+04</totfact>
</mgrwt>
</event>
<event>
 4    1  0.4938540E-001  0.8271056E+02  0.7546771E-02  0.1321531E+00
         -1   -1    0    0    0  501 -0.00000000000E+00  0.00000000000E+00  0.22631475738E+02  0.22631475738E+02  0.00000000000E+00 0.  1.
          1   -1    0    0  501    0  0.00000000000E+00 -0.00000000000E+00 -0.38712640276E+03  0.38712640276E+03  0.00000000000E+00 0. -1.
         24    1    1    2    0    0  0.51665416624E+01  0.18631344659E+02 -0.86332059830E+02  0.11955860766E+03  0.80419002446E+02 0.  1.
        -24    1    1    2    0    0 -0.51665416624E+01 -0.18631344659E+02 -0.27816286719E+03  0.29019927083E+03  0.80419002446E+02 0. -1.
<mgrwt>
<rscale>  0 0.82710556E+02</rscale>
<asrwt>0</asrwt>
<pdfrwt beam="1">  1        1 0.59557908E-01 0.82710556E+02</pdfrwt>
<pdfrwt beam="2">  1       -1 0.34817655E-02 0.82710556E+02</pdfrwt>
<totfact> 0.17122752E+04</totfact>
</mgrwt>
</event>
<event>
 4    1  0.4938540E-001  0.9874426E+02  0.7546771E-02  0.1282959E+00
          1   -1    0    0  501    0  0.00000000000E+00  0.00000000000E+00  0.10002823527E+04  0.10002823527E+04  0.00000000000E+00 0. -1.
         -1   -1    0    0    0  501 -0.00000000000E+00 -0.00000000000E+00 -0.27893459141E+02  0.27893459141E+02  0.00000000000E+00 0.  1.
         24    1    1    2    0    0 -0.27208473168E+02 -0.50427296637E+02  0.71551725284E+02  0.12194293175E+03  0.80419002446E+02 0.  1.
        -24    1    1    2    0    0  0.27208473168E+02  0.50427296637E+02  0.90083716830E+03  0.90623288012E+03  0.80419002446E+02 0. -1.
<mgrwt>
<rscale>  0 0.98744262E+02</rscale>
<asrwt>0</asrwt>
<pdfrwt beam="1">  1        1 0.15388956E+00 0.98744262E+02</pdfrwt>
<pdfrwt beam="2">  1       -1 0.42913022E-02 0.98744262E+02</pdfrwt>
<totfact> 0.34389603E+03</totfact>
</mgrwt>
</event>
<event>
 4    1  0.4938540E-001  0.1281459E+03  0.7546771E-02  0.1230233E+00
         -3   -1    0    0    0  501 -0.00000000000E+00  0.00000000000E+00  0.60524798745E+02  0.60524798745E+02  0.00000000000E+00 0.  1.
          3   -1    0    0  501    0  0.00000000000E+00 -0.00000000000E+00 -0.37839804070E+03  0.37839804070E+03  0.00000000000E+00 0. -1.
         24    1    1    2    0    0  0.39554445161E+02 -0.91594708547E+02 -0.42190736130E+02  0.13491263445E+03  0.80419002446E+02 0. -1.
        -24    1    1    2    0    0 -0.39554445161E+02  0.91594708547E+02 -0.27568250582E+03  0.30401020499E+03  0.80419002446E+02 0.  0.
<mgrwt>
<rscale>  0 0.12814586E+03</rscale>
<asrwt>0</asrwt>
<pdfrwt beam="1">  1        3 0.58215082E-01 0.12814586E+03</pdfrwt>
<pdfrwt beam="2">  1       -3 0.93115076E-02 0.12814586E+03</pdfrwt>
<totfact> 0.55961461E+02</totfact>
</mgrwt>
</event>
<event>
 4    1  0.4938540E-001  0.8762813E+02  0.7546771E-02  0.1308699E+00
         -2   -1    0    0    0  501 -0.00000000000E+00  0.00000000000E+00  0.16763465339E+02  0.16763465339E+02  0.00000000000E+00 0.  1.
          2   -1    0    0  501    0  0.00000000000E+00 -0.00000000000E+00 -0.69916527881E+03  0.69916527881E+03  0.00000000000E+00 0. -1.
         24    1    1    2    0    0  0.24873783722E+02 -0.24346842428E+02 -0.55141040246E+03  0.55832976076E+03  0.80419002446E+02 0. -1.
        -24    1    1    2    0    0 -0.24873783722E+02  0.24346842428E+02 -0.13099141101E+03  0.15759898339E+03  0.80419002446E+02 0.  1.
<mgrwt>
<rscale>  0 0.87628134E+02</rscale>
<asrwt>0</asrwt>
<pdfrwt beam="1">  1        2 0.10756388E+00 0.87628134E+02</pdfrwt>
<pdfrwt beam="2">  1       -2 0.25789949E-02 0.87628134E+02</pdfrwt>
<totfact> 0.20270717E+04</totfact>
</mgrwt>
</event>
<event>
 4    1  0.4938540E-001  0.9479873E+02  0.7546771E-02  0.1291630E+00
         -4   -1    0    0    0  501 -0.00000000000E+00  0.00000000000E+00  0.16683424927E+04  0.16683424927E+04  0.00000000000E+00 0.  1.
          4   -1    0    0  501    0  0.00000000000E+00 -0.00000000000E+00 -0.63228159147E+01  0.63228159147E+01  0.00000000000E+00 0. -1.
         24    1    1    2    0    0  0.50190602103E+02  0.69824947408E+00  0.50881692814E+03  0.51757266776E+03  0.80419002446E+02 0.  1.
        -24    1    1    2    0    0 -0.50190602103E+02 -0.69824947408E+00  0.11532027486E+04  0.11570926408E+04  0.80419002446E+02 0.  0.
<mgrwt>
<rscale>  0 0.94798734E+02</rscale>
<asrwt>0</asrwt>
<pdfrwt beam="1">  1        4 0.97274224E-03 0.94798734E+02</pdfrwt>
<pdfrwt beam="2">  1       -4 0.25666773E+00 0.94798734E+02</pdfrwt>
<totfact> 0.32398538E+02</totfact>
</mgrwt>
</event>
<event>
 4    1  0.4938540E-001  0.8682827E+02  0.7546771E-02  0.1310719E+00
          1   -1    0    0  501    0  0.00000000000E+00  0.00000000000E+00  0.16890898003E+03  0.16890898003E+03  0.00000000000E+00 0. -1.
         -1   -1    0    0    0  501 -0.00000000000E+00 -0.00000000000E+00 -0.52059909550E+02  0.52059909550E+02  0.00000000000E+00 0.  1.
         24    1    1    2    0    0 -0.31623304560E+02  0.84793351126E+01  0.16697935318E+02  0.88419282476E+02  0.80419002446E+02 0.  1.
        -24    1    1    2    0    0  0.31623304560E+02 -0.84793351126E+01  0.10015113516E+03  0.13254960711E+03  0.80419002446E+02 0. -1.
<mgrwt>
<rscale>  0 0.86828270E+02</rscale>
<asrwt>0</asrwt>
<pdfrwt beam="1">  1        1 0.25985997E-01 0.86828270E+02</pdfrwt>
<pdfrwt beam="2">  1       -1 0.80092169E-02 0.86828270E+02</pdfrwt>
<totfact> 0.14009308E+04</totfact>
</mgrwt>
</event>
<event>
 4    1  0.4938540E-001  0.8178595E+02  0.7546771E-02  0.1324058E+00
          2   -1    0    0  501    0  0.00000000000E+00  0.00000000000E+00  0.19584342137E+04  0.19584342137E+04  0.00000000000E+00 0. -1.
         -2   -1    0    0    0  501 -0.00000000000E+00 -0.00000000000E+00 -0.11680152275E+02  0.11680152275E+02  0.00000000000E+00 0.  1.
         24    1    1    2    0    0  0.26265816749E+01 -0.14656945675E+02  0.18019880513E+04  0.18038430858E+04  0.80419002446E+02 0. -1.
        -24    1    1    2    0    0 -0.26265816749E+01  0.14656945675E+02  0.14476601008E+03  0.16627128020E+03  0.80419002446E+02 0.  1.
<mgrwt>
<rscale>  0 0.81785946E+02</rscale>
<asrwt>0</asrwt>
<pdfrwt beam="1">  1        2 0.30129731E+00 0.81785946E+02</pdfrwt>
<pdfrwt beam="2">  1       -2 0.17969481E-02 0.81785946E+02</pdfrwt>
<totfact> 0.68870135E+03</totfact>
</mgrwt>
</event>
<event>
 4    1  0.4938540E-001  0.8958800E+02  0.7546771E-02  0.1303852E+00
         -3   -1    0    0    0  501 -0.00000000000E+00  0.00000000000E+00  0.10350949435E+04  0.10350949435E+04  0.00000000000E+00 0.  1.
          3   -1    0    0  501    0  0.00000000000E+00 -0.00000000000E+00 -0.13082289908E+02  0.13082289908E+02  0.00000000000E+00 0. -1.
         24    1    1    2    0    0 -0.25685760597E+02 -0.29983913698E+02  0.84547955862E+03  0.85021273419E+03  0.80419002446E+02 0.  1.
        -24    1    1    2    0    0  0.25685760597E+02  0.29983913698E+02  0.17653309501E+03  0.19796449926E+03  0.80419002446E+02 0. -1.
<mgrwt>
<rscale>  0 0.89587998E+02</rscale>
<asrwt>0</asrwt>
<pdfrwt beam="1">  1        3 0.20126608E-02 0.89587998E+02</pdfrwt>
<pdfrwt beam="2">  1       -3 0.15924531E+00 0.89587998E+02</pdfrwt>
<totfact> 0.60455296E+02</totfact>
</mgrwt>
</event>
<event>
 4    1  0.4938540E-001  0.1296732E+03  0.7546771E-02  0.1227941E+00
          1   -1    0    0  501    0  0.00000000000E+00  0.00000000000E+00  0.26925210785E+03  0.26925210785E+03  0.00000000000E+00 0. -1.
         -1   -1    0    0    0  501 -0.00000000000E+00 -0.00000000000E+00 -0.97793317164E+02  0.97793317164E+02  0.00000000000E+00 0.  1.
         24    1    1    2    0    0 -0.28940917448E+02 -0.97521064709E+02 -0.24597335071E+02  0.13198552804E+03  0.80419002446E+02 0.  1.
        -24    1    1    2    0    0  0.28940917448E+02  0.97521064709E+02  0.19605612575E+03  0.23505989697E+03  0.80419002446E+02 0. -1.
<mgrwt>
<rscale>  0 0.12967325E+03</rscale>
<asrwt>0</asrwt>
<pdfrwt beam="1">  1        1 0.41423401E-01 0.12967325E+03</pdfrwt>
<pdfrwt beam="2">  1       -1 0.15045126E-01 0.12967325E+03</pdfrwt>
<totfact> 0.31054755E+03</totfact>
</mgrwt>
</event>
<event>
 4    1  0.4938540E-001  0.1239124E+03  0.7546771E-02  0.1236779E+00
         -1   -1    0    0    0  501 -0.00000000000E+00  0.00000000000E+00  0.15518328947E+02  0.15518328947E+02  0.00000000000E+00 0.  1.
          1   -1    0    0  501    0  0.00000000000E+00 -0.00000000000E+00 -0.22454334938E+04  0.22454334938E+04  0.00000000000E+00 0. -1.
         24    1    1    2    0    0 -0.60829218152E+02  0.72019968328E+02 -0.26947084166E+03  0.29659538108E+03  0.80419002446E+02 0.  1.
        -24    1    1    2    0    0  0.60829218152E+02 -0.72019968328E+02 -0.19604443232E+04  0.19643564417E+04  0.80419002446E+02 0. -1.
<mgrwt>
<rscale>  0 0.12391241E+03</rscale>
<asrwt>0</asrwt>
<pdfrwt beam="1">  1        1 0.34545106E+00 0.12391241E+03</pdfrwt>
<pdfrwt beam="2">  1       -1 0.23874369E-02 0.12391241E+03</pdfrwt>
<totfact> 0.12512630E+03</totfact>
</mgrwt>
</event>
<event>
 4    1  0.4938540E-001  0.8218229E+02  0.7546771E-02  0.1322970E+00
         -2   -1    0    0    0  501 -0.00000000000E+00  0.00000000000E+00  0.16299785434E+02  0.16299785434E+02  0.00000000000E+00 0.  1.
          2   -1    0    0  501    0  0.00000000000E+00 -0.00000000000E+00 -0.48040855369E+03  0.48040855369E+03  0.00000000000E+00 0. -1.
         24    1    1    2    0    0  0.16383162828E+01 -0.16853040684E+02 -0.13996519408E+03  0.16230890477E+03  0.80419002446E+02 0.  1.
        -24    1    1    2    0    0 -0.16383162828E+01  0.16853040684E+02 -0.32414357417E+03  0.33439943435E+03  0.80419002446E+02 0. -1.
<mgrwt>
<rscale>  0 0.82182277E+02</rscale>
<asrwt>0</asrwt>
<pdfrwt beam="1">  1        2 0.73909003E-01 0.82182288E+02</pdfrwt>
<pdfrwt beam="2">  1       -2 0.25076595E-02 0.82182288E+02</pdfrwt>
<totfact> 0.31801026E+04</totfact>
</mgrwt>
</event>
<event>
 4    1  0.4938540E-001  0.1136019E+03  0.7546771E-02  0.1254041E+00
         -1   -1    0    0    0  501 -0.00000000000E+00  0.00000000000E+00  0.25020403769E+03  0.25020403769E+03  0.00000000000E+00 0.  1.
          1   -1    0    0  501    0  0.00000000000E+00 -0.00000000000E+00 -0.19741405871E+03  0.19741405871E+03  0.00000000000E+00 0. -1.
         24    1    1    2    0    0 -0.41573569429E+01  0.80130539654E+02  0.21875677737E+03  0.24649529529E+03  0.80419002446E+02 0.  1.
        -24    1    1    2    0    0  0.41573569429E+01 -0.80130539654E+02 -0.16596679839E+03  0.20112280111E+03  0.80419002446E+02 0. -1.
<mgrwt>
<rscale>  0 0.11360195E+03</rscale>
<asrwt>0</asrwt>
<pdfrwt beam="1">  1        1 0.30371394E-01 0.11360195E+03</pdfrwt>
<pdfrwt beam="2">  1       -1 0.38492929E-01 0.11360195E+03</pdfrwt>
<totfact> 0.97388999E+02</totfact>
</mgrwt>
</event>
<event>
 4    1  0.4938540E-001  0.8323946E+02  0.7546771E-02  0.1320102E+00
         -2   -1    0    0    0  501 -0.00000000000E+00  0.00000000000E+00  0.68498245984E+02  0.68498245984E+02  0.00000000000E+00 0.  1.
          2   -1    0    0  501    0  0.00000000000E+00 -0.00000000000E+00 -0.12270157694E+03  0.12270157694E+03  0.00000000000E+00 0. -1.
         24    1    1    2    0    0  0.33424780200E+01 -0.21223084670E+02 -0.67164444706E+02  0.10695732826E+03  0.80419002446E+02 0. -1.
        -24    1    1    2    0    0 -0.33424780200E+01  0.21223084670E+02  0.12961113752E+02  0.84242494658E+02  0.80419002446E+02 0. -1.
<mgrwt>
<rscale>  0 0.83239458E+02</rscale>
<asrwt>0</asrwt>
<pdfrwt beam="1">  1        2 0.18877165E-01 0.83239458E+02</pdfrwt>
<pdfrwt beam="2">  1       -2 0.10538192E-01 0.83239458E+02</pdfrwt>
<totfact> 0.16049426E+04</totfact>
</mgrwt>
</event>
<event>
 4    1  0.4938540E-001  0.1385546E+03  0.7546771E-02  0.1215287E+00
          2   -1    0    0  501    0  0.00000000000E+00  0.00000000000E+00  0.97699278546E+02  0.97699278546E+02  0.00000000000E+00 0. -1.
         -2   -1    0    0    0  501 -0.00000000000E+00 -0.00000000000E+00 -0.19676164766E+03  0.19676164766E+03  0.00000000000E+00 0.  1.
         24    1    1    2    0    0 -0.11059047035E+03 -0.22358632030E+02 -0.44106726548E+02  0.14540557018E+03  0.80419002446E+02 0. -1.
        -24    1    1    2    0    0  0.11059047035E+03  0.22358632030E+02 -0.54955642569E+02  0.14905535603E+03  0.80419002446E+02 0.  1.
<mgrwt>
<rscale>  0 0.13855460E+03</rscale>
<asrwt>0</asrwt>
<pdfrwt beam="1">  1        2 0.15030659E-01 0.13855460E+03</pdfrwt>
<pdfrwt beam="2">  1       -2 0.30271022E-01 0.13855460E+03</pdfrwt>
<totfact> 0.37510291E+03</totfact>
</mgrwt>
</event>
<event>
 4    1  0.4938540E-001  0.9234637E+02  0.7546771E-02  0.1297267E+00
          1   -1    0    0  501    0  0.00000000000E+00  0.00000000000E+00  0.19479829978E+04  0.19479829978E+04  0.00000000000E+00 0. -1.
         -1   -1    0    0    0  501 -0.00000000000E+00 -0.00000000000E+00 -0.52261285300E+01  0.52261285300E+01  0.00000000000E+00 0.  1.
         24    1    1    2    0    0 -0.44259392667E+01  0.45177959421E+02  0.57790601333E+03  0.58523774071E+03  0.80419002446E+02 0.  0.
        -24    1    1    2    0    0  0.44259392667E+01 -0.45177959421E+02  0.13648508559E+04  0.13679713856E+04  0.80419002446E+02 0.  0.
<mgrwt>
<rscale>  0 0.92346375E+02</rscale>
<asrwt>0</asrwt>
<pdfrwt beam="1">  1        1 0.29968911E+00 0.92346375E+02</pdfrwt>
<pdfrwt beam="2">  1       -1 0.80402133E-03 0.92346375E+02</pdfrwt>
<totfact> 0.90499988E+03</totfact>
</mgrwt>
</event>
<event>
 4    1  0.4938540E-001  0.8405887E+02  0.7546771E-02  0.1317912E+00
         -3   -1    0    0    0  501 -0.00000000000E+00  0.00000000000E+00  0.18399125033E+04  0.18399125033E+04  0.00000000000E+00 0.  1.
          3   -1    0    0  501    0  0.00000000000E+00 -0.00000000000E+00 -0.26216250671E+02  0.26216250671E+02  0.00000000000E+00 0. -1.
         24    1    1    2    0    0 -0.24443533751E+02 -0.10911507666E+01  0.17688667739E+04  0.17708629412E+04  0.80419002446E+02 0.  1.
        -24    1    1    2    0    0  0.24443533751E+02  0.10911507666E+01  0.44829478705E+02  0.95265812690E+02  0.80419002446E+02 0. -1.
<mgrwt>
<rscale>  0 0.84058866E+02</rscale>
<asrwt>0</asrwt>
<pdfrwt beam="1">  1        3 0.40332708E-02 0.84058866E+02</pdfrwt>
<pdfrwt beam="2">  1       -3 0.28306336E+00 0.84058866E+02</pdfrwt>
<totfact> 0.40534760E+01</totfact>
</mgrwt>
</event>
<event>
 4    1  0.4938540E-001  0.8444398E+02  0.7546771E-02  0.1316893E+00
         -3   -1    0    0    0  501 -0.00000000000E+00  0.00000000000E+00  0.85605816924E+02  0.85605816924E+02  0.00000000000E+00 0.  1.
          3   -1    0    0  501    0  0.00000000000E+00 -0.00000000000E+00 -0.17039189262E+04  0.17039189262E+04  0.00000000000E+00 0. -1.
         24    1    1    2    0    0  0.23831949390E+01  0.25649371415E+02  0.63461072221E+02  0.10563187736E+03  0.80419002446E+02 0.  1.
        -24    1    1    2    0    0 -0.23831949390E+01 -0.25649371415E+02 -0.16817741815E+04  0.16838928658E+04  0.80419002446E+02 0. -1.
<mgrwt>
<rscale>  0 0.84443980E+02</rscale>
<asrwt>0</asrwt>
<pdfrwt beam="1">  1        3 0.26214140E+00 0.84443980E+02</pdfrwt>
<pdfrwt beam="2">  1       -3 0.13170124E-01 0.84443980E+02</pdfrwt>
<totfact> 0.79095572E+00</totfact>
</mgrwt>
</event>
<event>
 4    1  0.4938540E-001  0.8347042E+02  0.7546771E-02  0.1319482E+00
         -1   -1    0    0    0  501 -0.00000000000E+00  0.00000000000E+00  0.15925702166E+02  0.15925702166E+02  0.00000000000E+00 0.  1.
          1   -1    0    0  501    0  0.00000000000E+00 -0.00000000000E+00 -0.10843977171E+04  0.10843977171E+04  0.00000000000E+00 0. -1.
         24    1    1    2    0    0 -0.13084699670E+01  0.22324474330E+02 -0.10930564717E+03  0.13753194068E+03  0.80419002446E+02 0.  1.
        -24    1    1    2    0    0  0.13084699670E+01 -0.22324474330E+02 -0.95916636777E+03  0.96279147860E+03  0.80419002446E+02 0. -1.
<mgrwt>
<rscale>  0 0.83470415E+02</rscale>
<asrwt>0</asrwt>
<pdfrwt beam="1">  1        1 0.16683048E+00 0.83470415E+02</pdfrwt>
<pdfrwt beam="2">  1       -1 0.24501072E-02 0.83470415E+02</pdfrwt>
<totfact> 0.66812889E+03</totfact>
</mgrwt>
</event>
<event>
 4    1  0.4938540E-001  0.1613430E+03  0.7546771E-02  0.1187189E+00
          2   -1    0    0  501    0  0.00000000000E+00  0.00000000000E+00  0.32116480447E+03  0.32116480447E+03  0.00000000000E+00 0. -1.
         -2   -1    0    0    0  501 -0.00000000000E+00 -0.00000000000E+00 -0.15959753946E+03  0.15959753946E+03  0.00000000000E+00 0.  1.
         24    1    1    2    0    0  0.19993116792E+02  0.13843629724E+03  0.24941711839E+03  0.29705293806E+03  0.80419002446E+02 0. -1.
        -24    1    1    2    0    0 -0.19993116792E+02 -0.13843629724E+03 -0.87849853374E+02  0.18370940587E+03  0.80419002446E+02 0.  1.
<mgrwt>
<rscale>  0 0.16134295E+03</rscale>
<asrwt>0</asrwt>
<pdfrwt beam="1">  1        2 0.49409970E-01 0.16134295E+03</pdfrwt>
<pdfrwt beam="2">  1       -2 0.24553468E-01 0.16134295E+03</pdfrwt>
<totfact> 0.14720878E+03</totfact>
</mgrwt>
</event>
<event>
 4    1  0.4938540E-001  0.8892509E+02  0.7546771E-02  0.1305476E+00
         -1   -1    0    0    0  501 -0.00000000000E+00  0.00000000000E+00  0.12203981881E+02  0.12203981881E+02  0.00000000000E+00 0.  1.
          1   -1    0    0  501    0  0.00000000000E+00 -0.00000000000E+00 -0.92257853434E+03  0.92257853434E+03  0.00000000000E+00 0. -1.
         24    1    1    2    0    0  0.28878452970E+02  0.24627016924E+02 -0.20018432633E+03  0.21904665136E+03  0.80419002446E+02 0.  1.
        -24    1    1    2    0    0 -0.28878452970E+02 -0.24627016924E+02 -0.71019022613E+03  0.71573586487E+03  0.80419002446E+02 0. -1.
<mgrwt>
<rscale>  0 0.88925086E+02</rscale>
<asrwt>0</asrwt>
<pdfrwt beam="1">  1        1 0.14193510E+00 0.88925086E+02</pdfrwt>
<pdfrwt beam="2">  1       -1 0.18775364E-02 0.88925086E+02</pdfrwt>
<totfact> 0.12820013E+04</totfact>
</mgrwt>
</event>
<event>
 4    1  0.4938540E-001  0.8713162E+02  0.7546771E-02  0.1309950E+00
          2   -1    0    0  501    0  0.00000000000E+00  0.00000000000E+00  0.22254095887E+03  0.22254095887E+03  0.00000000000E+00 0. -1.
         -2   -1    0    0    0  501 -0.00000000000E+00 -0.00000000000E+00 -0.39581496196E+02  0.39581496196E+02  0.00000000000E+00 0.  1.
         24    1    1    2    0    0 -0.15260413198E+02 -0.29863405415E+02  0.14018706697E+03  0.16505857413E+03  0.80419002446E+02 0. -1.
        -24    1    1    2    0    0  0.15260413198E+02  0.29863405415E+02  0.42772395708E+02  0.97063880939E+02  0.80419002446E+02 0.  1.
<mgrwt>
<rscale>  0 0.87131620E+02</rscale>
<asrwt>0</asrwt>
<pdfrwt beam="1">  1        2 0.34237070E-01 0.87131620E+02</pdfrwt>
<pdfrwt beam="2">  1       -2 0.60894611E-02 0.87131620E+02</pdfrwt>
<totfact> 0.19521228E+04</totfact>
</mgrwt>
</event>
<event>
 4    1  0.4938540E-001  0.8075090E+02  0.7546771E-02  0.1326934E+00
          2   -1    0    0  501    0  0.00000000000E+00  0.00000000000E+00  0.15848094591E+03  0.15848094591E+03  0.00000000000E+00 0. -1.
         -2   -1    0    0    0  501 -0.00000000000E+00 -0.00000000000E+00 -0.59816484915E+02  0.59816484915E+02  0.00000000000E+00 0.  1.
         24    1    1    2    0    0  0.67254525910E+01 -0.28740756698E+01  0.11031356436E+03  0.13671060844E+03  0.80419002446E+02 0.  0.
        -24    1    1    2    0    0 -0.67254525910E+01  0.28740756698E+01 -0.11649103365E+02  0.81586822386E+02  0.80419002446E+02 0.  1.
<mgrwt>
<rscale>  0 0.80750901E+02</rscale>
<asrwt>0</asrwt>
<pdfrwt beam="1">  1        2 0.24381684E-01 0.80750901E+02</pdfrwt>
<pdfrwt beam="2">  1       -2 0.92025362E-02 0.80750901E+02</pdfrwt>
<totfact> 0.14877444E+04</totfact>
</mgrwt>
</event>
<event>
 4    1  0.4938540E-001  0.1031556E+03  0.7546771E-02  0.1273797E+00
          2   -1    0    0  501    0  0.00000000000E+00  0.00000000000E+00  0.83153101185E+02  0.83153101185E+02  0.00000000000E+00 0. -1.
         -2   -1    0    0    0  501 -0.00000000000E+00 -0.00000000000E+00 -0.12832310792E+03  0.12832310792E+03  0.00000000000E+00 0.  1.
         24    1    1    2    0    0  0.27457449337E+02  0.58480428421E+02 -0.17036969822E+02  0.10455307900E+03  0.80419002446E+02 0. -1.
        -24    1    1    2    0    0 -0.27457449337E+02 -0.58480428421E+02 -0.28133036916E+02  0.10692313011E+03  0.80419002446E+02 0.  0.
<mgrwt>
<rscale>  0 0.10315565E+03</rscale>
<asrwt>0</asrwt>
<pdfrwt beam="1">  1        2 0.12792785E-01 0.10315565E+03</pdfrwt>
<pdfrwt beam="2">  1       -2 0.19742017E-01 0.10315565E+03</pdfrwt>
<totfact> 0.93208323E+03</totfact>
</mgrwt>
</event>
<event>
 4    1  0.4938540E-001  0.8142029E+02  0.7546771E-02  0.1325069E+00
          1   -1    0    0  501    0  0.00000000000E+00  0.00000000000E+00  0.34271026698E+02  0.34271026698E+02  0.00000000000E+00 0. -1.
         -1   -1    0    0    0  501 -0.00000000000E+00 -0.00000000000E+00 -0.35961584479E+03  0.35961584479E+03  0.00000000000E+00 0.  1.
         24    1    1    2    0    0  0.11053845440E+02 -0.63134622386E+01 -0.29655089182E+03  0.30752511231E+03  0.80419002446E+02 0.  0.
        -24    1    1    2    0    0 -0.11053845440E+02  0.63134622386E+01 -0.28793926271E+02  0.86361759182E+02  0.80419002446E+02 0. -1.
<mgrwt>
<rscale>  0 0.81420288E+02</rscale>
<asrwt>0</asrwt>
<pdfrwt beam="1">  1        1 0.52724655E-02 0.81420288E+02</pdfrwt>
<pdfrwt beam="2">  1       -1 0.55325516E-01 0.81420288E+02</pdfrwt>
<totfact> 0.48193106E+03</totfact>
</mgrwt>
</event>
<event>
 4    1  0.4938540E-001  0.8938831E+02  0.7546771E-02  0.1304340E+00
          3   -1    0    0  501    0  0.00000000000E+00  0.00000000000E+00  0.84616218708E+02  0.84616218708E+02  0.00000000000E+00 0. -1.
         -3   -1    0    0    0  501 -0.00000000000E+00 -0.00000000000E+00 -0.13300857102E+03  0.13300857102E+03  0.00000000000E+00 0.  1.
         24    1    1    2    0    0 -0.54405776020E+01  0.38645244082E+02 -0.82798414541E+02  0.12184353975E+03  0.80419002446E+02 0.  1.
        -24    1    1    2    0    0  0.54405776020E+01 -0.38645244082E+02  0.34406062227E+02  0.95781249977E+02  0.80419002446E+02 0. -1.
<mgrwt>
<rscale>  0 0.89388314E+02</rscale>
<asrwt>0</asrwt>
<pdfrwt beam="1">  1        3 0.13017880E-01 0.89388314E+02</pdfrwt>
<pdfrwt beam="2">  1       -3 0.20462857E-01 0.89388314E+02</pdfrwt>
<totfact> 0.21559719E+03</totfact>
</mgrwt>
</event>
<event>
 4    1  0.4938540E-001  0.1103715E+03  0.7546771E-02  0.1259883E+00
         -2   -1    0    0    0  501 -0.00000000000E+00  0.00000000000E+00  0.18602937526E+03  0.18602937526E+03  0.00000000000E+00 0.  1.
          2   -1    0    0  501    0  0.00000000000E+00 -0.00000000000E+00 -0.73972034076E+02  0.73972034076E+02  0.00000000000E+00 0. -1.
         24    1    1    2    0    0  0.63325970003E+01 -0.75329584653E+02  0.10006660823E+03  0.14898050257E+03  0.80419002446E+02 0.  1.
        -24    1    1    2    0    0 -0.63325970003E+01  0.75329584653E+02  0.11990732957E+02  0.11102090677E+03  0.80419002446E+02 0. -1.
<mgrwt>
<rscale>  0 0.11037150E+03</rscale>
<asrwt>0</asrwt>
<pdfrwt beam="1">  1        2 0.11380313E-01 0.11037151E+03</pdfrwt>
<pdfrwt beam="2">  1       -2 0.28619904E-01 0.11037151E+03</pdfrwt>
<totfact> 0.56802291E+03</totfact>
</mgrwt>
</event>
<event>
 4    1  0.4938540E-001  0.9658882E+02  0.7546771E-02  0.1287637E+00
         -2   -1    0    0    0  501 -0.00000000000E+00  0.00000000000E+00  0.69385877179E+02  0.69385877179E+02  0.00000000000E+00 0.  1.
          2   -1    0    0  501    0  0.00000000000E+00 -0.00000000000E+00 -0.13912702781E+03  0.13912702781E+03  0.00000000000E+00 0. -1.
         24    1    1    2    0    0 -0.10486382029E+02 -0.52461565809E+02 -0.15768925139E+02  0.97867538283E+02  0.80419002446E+02 0. -1.
        -24    1    1    2    0    0  0.10486382029E+02  0.52461565809E+02 -0.53972225496E+02  0.11064536671E+03  0.80419002446E+02 0.  1.
<mgrwt>
<rscale>  0 0.96588811E+02</rscale>
<asrwt>0</asrwt>
<pdfrwt beam="1">  1        2 0.21404158E-01 0.96588823E+02</pdfrwt>
<pdfrwt beam="2">  1       -2 0.10674750E-01 0.96588823E+02</pdfrwt>
<totfact> 0.13885366E+04</totfact>
</mgrwt>
</event>
<event>
 4    1  0.4938540E-001  0.9076676E+02  0.7546771E-02  0.1301005E+00
          1   -1    0    0  501    0  0.00000000000E+00  0.00000000000E+00  0.13213873044E+02  0.13213873044E+02  0.00000000000E+00 0. -1.
         -1   -1    0    0    0  501 -0.00000000000E+00 -0.00000000000E+00 -0.80421197655E+03  0.80421197655E+03  0.00000000000E+00 0.  1.
         24    1    1    2    0    0  0.38917613631E+02 -0.16025222544E+02 -0.58925225597E+03  0.59620200061E+03  0.80419002446E+02 0.  1.
        -24    1    1    2    0    0 -0.38917613631E+02  0.16025222544E+02 -0.20174584753E+03  0.22122384899E+03  0.80419002446E+02 0. -1.
<mgrwt>
<rscale>  0 0.90766758E+02</rscale>
<asrwt>0</asrwt>
<pdfrwt beam="1">  1        1 0.20329037E-02 0.90766758E+02</pdfrwt>
<pdfrwt beam="2">  1       -1 0.12372491E+00 0.90766758E+02</pdfrwt>
<totfact> 0.33909613E+03</totfact>
</mgrwt>
</event>
<event>
 4    1  0.4938540E-001  0.8551499E+02  0.7546771E-02  0.1314091E+00
         -1   -1    0    0    0  501 -0.00000000000E+00  0.00000000000E+00  0.76269513120E+02  0.76269513120E+02  0.00000000000E+00 0.  1.
          1   -1    0    0  501    0  0.00000000000E+00 -0.00000000000E+00 -0.11805532887E+03  0.11805532887E+03  0.00000000000E+00 0. -1.
         24    1    1    2    0    0  0.20083391723E+02  0.21029839008E+02  0.21216465567E+02  0.88107611007E+02  0.80419002446E+02 0.  0.
        -24    1    1    2    0    0 -0.20083391723E+02 -0.21029839008E+02 -0.63002281315E+02  0.10621723098E+03  0.80419002446E+02 0.  0.
<mgrwt>
<rscale>  0 0.85514985E+02</rscale>
<asrwt>0</asrwt>
<pdfrwt beam="1">  1        1 0.18162358E-01 0.85514985E+02</pdfrwt>
<pdfrwt beam="2">  1       -1 0.11733771E-01 0.85514985E+02</pdfrwt>
<totfact> 0.12306564E+04</totfact>
</mgrwt>
</event>
<event>
 4    1  0.4938540E-001  0.8763833E+02  0.7546771E-02  0.1308674E+00
          2   -1    0    0  501    0  0.00000000000E+00  0.00000000000E+00  0.15041630158E+04  0.15041630158E+04  0.00000000000E+00 0. -1.
         -2   -1    0    0    0  501 -0.00000000000E+00 -0.00000000000E+00 -0.61973401657E+01  0.61973401657E+01  0.00000000000E+00 0.  1.
         24    1    1    2    0    0 -0.11795460303E+02  0.32773884643E+02  0.10658657942E+04  0.10694626537E+04  0.80419002446E+02 0. -1.
        -24    1    1    2    0    0  0.11795460303E+02 -0.32773884643E+02  0.43209988143E+03  0.44089770229E+03  0.80419002446E+02 0.  1.
<mgrwt>
<rscale>  0 0.87638327E+02</rscale>
<asrwt>0</asrwt>
<pdfrwt beam="1">  1        2 0.23140940E+00 0.87638327E+02</pdfrwt>
<pdfrwt beam="2">  1       -2 0.95343815E-03 0.87638327E+02</pdfrwt>
<totfact> 0.28744679E+04</totfact>
</mgrwt>
</event>
<event>
 4    1  0.4938540E-001  0.1078451E+03  0.7546771E-02  0.1264613E+00
          2   -1    0    0  501    0  0.00000000000E+00  0.00000000000E+00  0.10861990417E+03  0.10861990417E+03  0.00000000000E+00 0. -1.
         -2   -1    0    0    0  501 -0.00000000000E+00 -0.00000000000E+00 -0.11115163561E+03  0.11115163561E+03  0.00000000000E+00 0.  1.
         24    1    1    2    0    0 -0.58790354505E+02  0.41316228582E+02 -0.22308353399E+02  0.11012817584E+03  0.80419002446E+02 0.  0.
        -24    1    1    2    0    0  0.58790354505E+02 -0.41316228582E+02  0.19776621958E+02  0.10964336395E+03  0.80419002446E+02 0.  0.
<mgrwt>
<rscale>  0 0.10784505E+03</rscale>
<asrwt>0</asrwt>
<pdfrwt beam="1">  1        2 0.16710755E-01 0.10784507E+03</pdfrwt>
<pdfrwt beam="2">  1       -2 0.17100252E-01 0.10784507E+03</pdfrwt>
<totfact> 0.87043234E+03</totfact>
</mgrwt>
</event>
<event>
 4    1  0.4938540E-001  0.8577732E+02  0.7546771E-02  0.1313412E+00
         -1   -1    0    0    0  501 -0.00000000000E+00  0.00000000000E+00  0.25535639392E+02  0.25535639392E+02  0.00000000000E+00 0.  1.
          1   -1    0    0  501    0  0.00000000000E+00 -0.00000000000E+00 -0.31997213976E+04  0.31997213976E+04  0.00000000000E+00 0. -1.
         24    1    1    2    0    0 -0.28153144862E+02  0.98961284032E+01 -0.48785991333E+02  0.98680402450E+02  0.80419002446E+02 0.  1.
        -24    1    1    2    0    0  0.28153144862E+02 -0.98961284032E+01 -0.31253997669E+04  0.31265766345E+04  0.80419002446E+02 0. -1.
<mgrwt>
<rscale>  0 0.85777321E+02</rscale>
<asrwt>0</asrwt>
<pdfrwt beam="1">  1        1 0.49226504E+00 0.85777321E+02</pdfrwt>
<pdfrwt beam="2">  1       -1 0.39285583E-02 0.85777321E+02</pdfrwt>
<totfact> 0.14431062E+02</totfact>
</mgrwt>
</event>
<event>
 4    1  0.4938540E-001  0.9720781E+02  0.7546771E-02  0.1286280E+00
          2   -1    0    0  501    0  0.00000000000E+00  0.00000000000E+00  0.14191761932E+03  0.14191761932E+03  0.00000000000E+00 0. -1.
         -2   -1    0    0    0  501 -0.00000000000E+00 -0.00000000000E+00 -0.71416018148E+02  0.71416018148E+02  0.00000000000E+00 0.  1.
         24    1    1    2    0    0  0.16269012822E+02  0.52129274075E+02  0.62998223994E+02  0.11583667025E+03  0.80419002446E+02 0.  1.
        -24    1    1    2    0    0 -0.16269012822E+02 -0.52129274075E+02  0.75033771795E+01  0.97496967221E+02  0.80419002446E+02 0.  0.
<mgrwt>
<rscale>  0 0.97207808E+02</rscale>
<asrwt>0</asrwt>
<pdfrwt beam="1">  1        2 0.21833480E-01 0.97207808E+02</pdfrwt>
<pdfrwt beam="2">  1       -2 0.10987080E-01 0.97207808E+02</pdfrwt>
<totfact> 0.12990229E+04</totfact>
</mgrwt>
</event>
<event>
 4    1  0.4938540E-001  0.1227888E+03  0.7546771E-02  0.1238566E+00
          1   -1    0    0  501    0  0.00000000000E+00  0.00000000000E+00  0.15367784031E+02  0.15367784031E+02  0.00000000000E+00 0. -1.
         -1   -1    0    0    0  501 -0.00000000000E+00 -0.00000000000E+00 -0.11099118666E+04  0.11099118666E+04  0.00000000000E+00 0.  1.
         24    1    1    2    0    0 -0.53971388646E+02  0.75478192883E+02 -0.73895849537E+03  0.74909061016E+03  0.80419002446E+02 0.  1.
        -24    1    1    2    0    0  0.53971388646E+02 -0.75478192883E+02 -0.35558558720E+03  0.37618904047E+03  0.80419002446E+02 0.  0.
<mgrwt>
<rscale>  0 0.12278878E+03</rscale>
<asrwt>0</asrwt>
<pdfrwt beam="1">  1        1 0.23642738E-02 0.12278878E+03</pdfrwt>
<pdfrwt beam="2">  1       -1 0.17075572E+00 0.12278878E+03</pdfrwt>
<totfact> 0.12349939E+03</totfact>
</mgrwt>
</event>
<event>
 4    1  0.4938540E-001  0.8074581E+02  0.7546771E-02  0.1326948E+00
          1   -1    0    0  501    0  0.00000000000E+00  0.00000000000E+00  0.14721141355E+03  0.14721141355E+03  0.00000000000E+00 0. -1.
         -1   -1    0    0    0  501 -0.00000000000E+00 -0.00000000000E+00 -0.62730781218E+02  0.62730781218E+02  0.00000000000E+00 0.  1.
         24    1    1    2    0    0  0.67194792384E+01 -0.27418543309E+01 -0.14674811794E+02  0.82068478857E+02  0.80419002446E+02 0.  1.
        -24    1    1    2    0    0 -0.67194792384E+01  0.27418543309E+01  0.99155444121E+02  0.12787371591E+03  0.80419002446E+02 0.  0.
<mgrwt>
<rscale>  0 0.80745806E+02</rscale>
<asrwt>0</asrwt>
<pdfrwt beam="1">  1        1 0.22647910E-01 0.80745806E+02</pdfrwt>
<pdfrwt beam="2">  1       -1 0.96508895E-02 0.80745806E+02</pdfrwt>
<totfact> 0.12473340E+04</totfact>
</mgrwt>
</event>
<event>
 4    1  0.4938540E-001  0.8568299E+02  0.7546771E-02  0.1313656E+00
         -2   -1    0    0    0  501 -0.00000000000E+00  0.00000000000E+00  0.38404116105E+01  0.38404116105E+01  0.00000000000E+00 0.  1.
          2   -1    0    0  501    0  0.00000000000E+00 -0.00000000000E+00 -0.25350750485E+04  0.25350750485E+04  0.00000000000E+00 0. -1.
         24    1    1    2    0    0  0.14691894308E+02  0.25661400386E+02 -0.18951383037E+04  0.18970742646E+04  0.80419002446E+02 0. -1.
        -24    1    1    2    0    0 -0.14691894308E+02 -0.25661400386E+02 -0.63609633321E+03  0.64184119555E+03  0.80419002446E+02 0.  1.
<mgrwt>
<rscale>  0 0.85682992E+02</rscale>
<asrwt>0</asrwt>
<pdfrwt beam="1">  1        2 0.39001264E+00 0.85682992E+02</pdfrwt>
<pdfrwt beam="2">  1       -2 0.59083091E-03 0.85682992E+02</pdfrwt>
<totfact> 0.16888609E+04</totfact>
</mgrwt>
</event>
<event>
 4    1  0.4938540E-001  0.1457350E+03  0.7546771E-02  0.1205814E+00
         -1   -1    0    0    0  501 -0.00000000000E+00  0.00000000000E+00  0.21469881890E+04  0.21469881890E+04  0.00000000000E+00 0.  1.
          1   -1    0    0  501    0  0.00000000000E+00 -0.00000000000E+00 -0.11872695065E+02  0.11872695065E+02  0.00000000000E+00 0. -1.
         24    1    1    2    0    0  0.11421906915E+03  0.41538898084E+02  0.15084108014E+04  0.15154345375E+04  0.80419002446E+02 0.  0.
        -24    1    1    2    0    0 -0.11421906915E+03 -0.41538898084E+02  0.62670469253E+03  0.64342634653E+03  0.80419002446E+02 0. -1.
<mgrwt>
<rscale>  0 0.14573501E+03</rscale>
<asrwt>0</asrwt>
<pdfrwt beam="1">  1        1 0.18265702E-02 0.14573501E+03</pdfrwt>
<pdfrwt beam="2">  1       -1 0.33030557E+00 0.14573501E+03</pdfrwt>
<totfact> 0.17317799E+02</totfact>
</mgrwt>
</event>
<event>
 4    1  0.4938540E-001  0.1446668E+03  0.7546771E-02  0.1207184E+00
          1   -1    0    0  501    0  0.00000000000E+00  0.00000000000E+00  0.45703558010E+03  0.45703558010E+03  0.00000000000E+00 0. -1.
         -1   -1    0    0    0  501 -0.00000000000E+00 -0.00000000000E+00 -0.12628914639E+03  0.12628914639E+03  0.00000000000E+00 0.  1.
         24    1    1    2    0    0  0.10983222981E+03  0.48970800178E+02 -0.67483197372E+02  0.15963225193E+03  0.80419002446E+02 0. -1.
        -24    1    1    2    0    0 -0.10983222981E+03 -0.48970800178E+02  0.39822963109E+03  0.42369247456E+03  0.80419002446E+02 0.  1.
<mgrwt>
<rscale>  0 0.14466677E+03</rscale>
<asrwt>0</asrwt>
<pdfrwt beam="1">  1        1 0.70313165E-01 0.14466677E+03</pdfrwt>
<pdfrwt beam="2">  1       -1 0.19429100E-01 0.14466677E+03</pdfrwt>
<totfact> 0.10716113E+03</totfact>
</mgrwt>
</event>
<event>
 4    1  0.4938540E-001  0.1180367E+03  0.7546771E-02  0.1246371E+00
          2   -1    0    0  501    0  0.00000000000E+00  0.00000000000E+00  0.28831374541E+03  0.28831374541E+03  0.00000000000E+00 0. -1.
         -2   -1    0    0    0  501 -0.00000000000E+00 -0.00000000000E+00 -0.22427033840E+03  0.22427033840E+03  0.00000000000E+00 0.  1.
         24    1    1    2    0    0  0.22597510812E+02  0.83395412542E+02  0.25902832611E+03  0.28465475933E+03  0.80419002446E+02 0. -1.
        -24    1    1    2    0    0 -0.22597510812E+02 -0.83395412542E+02 -0.19498491910E+03  0.22792932448E+03  0.80419002446E+02 0.  1.
<mgrwt>
<rscale>  0 0.11803668E+03</rscale>
<asrwt>0</asrwt>
<pdfrwt beam="1">  1        2 0.44355961E-01 0.11803668E+03</pdfrwt>
<pdfrwt beam="2">  1       -2 0.34503129E-01 0.11803668E+03</pdfrwt>
<totfact> 0.89101114E+02</totfact>
</mgrwt>
</event>
<event>
 4    1  0.4938540E-001  0.8066097E+02  0.7546771E-02  0.1327186E+00
          1   -1    0    0  501    0  0.00000000000E+00  0.00000000000E+00  0.14946288567E+03  0.14946288567E+03  0.00000000000E+00 0. -1.
         -1   -1    0    0    0  501 -0.00000000000E+00 -0.00000000000E+00 -0.85004147174E+02  0.85004147174E+02  0.00000000000E+00 0.  1.
         24    1    1    2    0    0  0.18803575367E+01 -0.59531516653E+01 -0.49658191402E+02  0.94721315906E+02  0.80419002446E+02 0.  0.
        -24    1    1    2    0    0 -0.18803575367E+01  0.59531516653E+01  0.11411692990E+03  0.13974571694E+03  0.80419002446E+02 0. -1.
<mgrwt>
<rscale>  0 0.80660968E+02</rscale>
<asrwt>0</asrwt>
<pdfrwt beam="1">  1        1 0.22994290E-01 0.80660968E+02</pdfrwt>
<pdfrwt beam="2">  1       -1 0.13077561E-01 0.80660968E+02</pdfrwt>
<totfact> 0.77234050E+03</totfact>
</mgrwt>
</event>
<event>
 4    1  0.4938540E-001  0.8880008E+02  0.7546771E-02  0.1305784E+00
          1   -1    0    0  501    0  0.00000000000E+00  0.00000000000E+00  0.17144713099E+04  0.17144713099E+04  0.00000000000E+00 0. -1.
         -1   -1    0    0    0  501 -0.00000000000E+00 -0.00000000000E+00 -0.47284592355E+01  0.47284592355E+01  0.00000000000E+00 0.  1.
         24    1    1    2    0    0  0.20917795255E+02  0.31315867921E+02  0.71282997336E+03  0.71833976962E+03  0.80419002446E+02 0. -1.
        -24    1    1    2    0    0 -0.20917795255E+02 -0.31315867921E+02  0.99691287734E+03  0.10008599995E+04  0.80419002446E+02 0.  1.
<mgrwt>
<rscale>  0 0.88800077E+02</rscale>
<asrwt>0</asrwt>
<pdfrwt beam="1">  1        1 0.26376432E+00 0.88800077E+02</pdfrwt>
<pdfrwt beam="2">  1       -1 0.72745663E-03 0.88800077E+02</pdfrwt>
<totfact> 0.14557927E+04</totfact>
</mgrwt>
</event>
<event>
 4    1  0.4938540E-001  0.1027421E+03  0.7546771E-02  0.1274633E+00
         -2   -1    0    0    0  501 -0.00000000000E+00  0.00000000000E+00  0.25363375578E+03  0.25363375578E+03  0.00000000000E+00 0.  1.
          2   -1    0    0  501    0  0.00000000000E+00 -0.00000000000E+00 -0.15417537183E+03  0.15417537183E+03  0.00000000000E+00 0. -1.
         24    1    1    2    0    0 -0.32642920567E+02 -0.54983227065E+02 -0.12449356456E+03  0.16141430883E+03  0.80419002446E+02 0. -1.
        -24    1    1    2    0    0  0.32642920567E+02  0.54983227065E+02  0.22395194852E+03  0.24639481878E+03  0.80419002446E+02 0.  1.
<mgrwt>
<rscale>  0 0.10274206E+03</rscale>
<asrwt>0</asrwt>
<pdfrwt beam="1">  1        2 0.23719288E-01 0.10274206E+03</pdfrwt>
<pdfrwt beam="2">  1       -2 0.39020578E-01 0.10274206E+03</pdfrwt>
<totfact> 0.13815824E+03</totfact>
</mgrwt>
</event>
<event>
 4    1  0.4938540E-001  0.8957902E+02  0.7546771E-02  0.1303874E+00
          2   -1    0    0  501    0  0.00000000000E+00  0.00000000000E+00  0.37053321770E+02  0.37053321770E+02  0.00000000000E+00 0. -1.
         -2   -1    0    0    0  501 -0.00000000000E+00 -0.00000000000E+00 -0.21677580239E+03  0.21677580239E+03  0.00000000000E+00 0.  1.
         24    1    1    2    0    0 -0.18409437461E+02  0.34903841655E+02 -0.85890600595E+02  0.12410316988E+03  0.80419002446E+02 0.  1.
        -24    1    1    2    0    0  0.18409437461E+02 -0.34903841655E+02 -0.93831880023E+02  0.12972595428E+03  0.80419002446E+02 0. -1.
<mgrwt>
<rscale>  0 0.89579024E+02</rscale>
<asrwt>0</asrwt>
<pdfrwt beam="1">  1        2 0.57005111E-02 0.89579024E+02</pdfrwt>
<pdfrwt beam="2">  1       -2 0.33350123E-01 0.89579024E+02</pdfrwt>
<totfact> 0.99922601E+03</totfact>
</mgrwt>
</event>
<event>
 4    1  0.4938540E-001  0.8271512E+02  0.7546771E-02  0.1321518E+00
          1   -1    0    0  501    0  0.00000000000E+00  0.00000000000E+00  0.17440356263E+03  0.17440356263E+03  0.00000000000E+00 0. -1.
         -1   -1    0    0    0  501 -0.00000000000E+00 -0.00000000000E+00 -0.15572577997E+03  0.15572577997E+03  0.00000000000E+00 0.  1.
         24    1    1    2    0    0 -0.11568595676E+01  0.19319333449E+02 -0.13342869621E+03  0.15698728578E+03  0.80419002446E+02 0.  1.
        -24    1    1    2    0    0  0.11568595676E+01 -0.19319333449E+02  0.15210647887E+03  0.17314205682E+03  0.80419002446E+02 0. -1.
<mgrwt>
<rscale>  0 0.82715119E+02</rscale>
<asrwt>0</asrwt>
<pdfrwt beam="1">  1        1 0.26831317E-01 0.82715119E+02</pdfrwt>
<pdfrwt beam="2">  1       -1 0.23957812E-01 0.82715119E+02</pdfrwt>
<totfact> 0.24744582E+03</totfact>
</mgrwt>
</event>
<event>
 4    1  0.4938540E-001  0.1206732E+03  0.7546771E-02  0.1241991E+00
          2   -1    0    0  501    0  0.00000000000E+00  0.00000000000E+00  0.40785741164E+04  0.40785741164E+04  0.00000000000E+00 0. -1.
         -2   -1    0    0    0  501 -0.00000000000E+00 -0.00000000000E+00 -0.54137731728E+01  0.54137731728E+01  0.00000000000E+00 0.  1.
         24    1    1    2    0    0  0.89911481925E+02  0.32751234558E+01  0.32281366616E+04  0.32303913576E+04  0.80419002446E+02 0. -1.
        -24    1    1    2    0    0 -0.89911481925E+02 -0.32751234558E+01  0.84502368163E+03  0.85359653202E+03  0.80419002446E+02 0.  1.
<mgrwt>
<rscale>  0 0.12067318E+03</rscale>
<asrwt>0</asrwt>
<pdfrwt beam="1">  1        2 0.62747049E+00 0.12067318E+03</pdfrwt>
<pdfrwt beam="2">  1       -2 0.83289144E-03 0.12067318E+03</pdfrwt>
<totfact> 0.11361410E+03</totfact>
</mgrwt>
</event>
<event>
 4    1  0.4938540E-001  0.9227419E+02  0.7546771E-02  0.1297436E+00
          1   -1    0    0  501    0  0.00000000000E+00  0.00000000000E+00  0.20005899891E+03  0.20005899891E+03  0.00000000000E+00 0. -1.
         -1   -1    0    0    0  501 -0.00000000000E+00 -0.00000000000E+00 -0.44792969586E+02  0.44792969586E+02  0.00000000000E+00 0.  1.
         24    1    1    2    0    0 -0.45202163891E+02 -0.20185303544E+01  0.50299041306E+02  0.10509290935E+03  0.80419002446E+02 0.  1.
        -24    1    1    2    0    0  0.45202163891E+02  0.20185303544E+01  0.10496698802E+03  0.13975905915E+03  0.80419002446E+02 0. -1.
<mgrwt>
<rscale>  0 0.92274189E+02</rscale>
<asrwt>0</asrwt>
<pdfrwt beam="1">  1        1 0.30778307E-01 0.92274189E+02</pdfrwt>
<pdfrwt beam="2">  1       -1 0.68912262E-02 0.92274189E+02</pdfrwt>
<totfact> 0.14311782E+04</totfact>
</mgrwt>
</event>
<event>
 4    1  0.4938540E-001  0.1023529E+03  0.7546771E-02  0.1275425E+00
         -1   -1    0    0    0  501 -0.00000000000E+00  0.00000000000E+00  0.39022526179E+02  0.39022526179E+02  0.00000000000E+00 0.  1.
          1   -1    0    0  501    0  0.00000000000E+00 -0.00000000000E+00 -0.99847862146E+03  0.99847862146E+03  0.00000000000E+00 0. -1.
         24    1    1    2    0    0  0.63305570926E+02 -0.11386204293E+01 -0.36165104288E+02  0.10855423755E+03  0.80419002446E+02 0.  1.
        -24    1    1    2    0    0 -0.63305570926E+02  0.11386204293E+01 -0.92329099099E+03  0.92894691009E+03  0.80419002446E+02 0. -1.
<mgrwt>
<rscale>  0 0.10235286E+03</rscale>
<asrwt>0</asrwt>
<pdfrwt beam="1">  1        1 0.15361209E+00 0.10235286E+03</pdfrwt>
<pdfrwt beam="2">  1       -1 0.60034658E-02 0.10235286E+03</pdfrwt>
<totfact> 0.21089883E+03</totfact>
</mgrwt>
</event>
<event>
 4    1  0.4938540E-001  0.8490193E+02  0.7546771E-02  0.1315689E+00
          2   -1    0    0  501    0  0.00000000000E+00  0.00000000000E+00  0.65187219909E+03  0.65187219909E+03  0.00000000000E+00 0. -1.
         -2   -1    0    0    0  501 -0.00000000000E+00 -0.00000000000E+00 -0.11025104462E+03  0.11025104462E+03  0.00000000000E+00 0.  1.
         24    1    1    2    0    0 -0.17997253376E+02 -0.20425996719E+02  0.63225762466E+03  0.63793263153E+03  0.80419002446E+02 0. -1.
        -24    1    1    2    0    0  0.17997253376E+02  0.20425996719E+02 -0.90636470186E+02  0.12419061218E+03  0.80419002446E+02 0.  1.
<mgrwt>
<rscale>  0 0.84901934E+02</rscale>
<asrwt>0</asrwt>
<pdfrwt beam="1">  1        2 0.10028803E+00 0.84901934E+02</pdfrwt>
<pdfrwt beam="2">  1       -2 0.16961700E-01 0.84901934E+02</pdfrwt>
<totfact> 0.12561843E+03</totfact>
</mgrwt>
</event>
<event>
 4    1  0.4938540E-001  0.1005447E+03  0.7546771E-02  0.1279155E+00
         -1   -1    0    0    0  501 -0.00000000000E+00  0.00000000000E+00  0.50320290192E+01  0.50320290192E+01  0.00000000000E+00 0.  1.
          1   -1    0    0  501    0  0.00000000000E+00 -0.00000000000E+00 -0.23356705731E+04  0.23356705731E+04  0.00000000000E+00 0. -1.
         24    1    1    2    0    0 -0.55987450031E+02 -0.22526301462E+02 -0.72761693431E+03  0.73453090327E+03  0.80419002446E+02 0.  1.
        -24    1    1    2    0    0  0.55987450031E+02  0.22526301462E+02 -0.16030216098E+04  0.16061716989E+04  0.80419002446E+02 0.  0.
<mgrwt>
<rscale>  0 0.10054474E+03</rscale>
<asrwt>0</asrwt>
<pdfrwt beam="1">  1        1 0.35933447E+00 0.10054474E+03</pdfrwt>
<pdfrwt beam="2">  1       -1 0.77415715E-03 0.10054474E+03</pdfrwt>
<totfact> 0.54509064E+03</totfact>
</mgrwt>
</event>
<event>
 4    1  0.4938540E-001  0.1336122E+03  0.7546771E-02  0.1222192E+00
          2   -1    0    0  501    0  0.00000000000E+00  0.00000000000E+00  0.77713871218E+03  0.77713871218E+03  0.00000000000E+00 0. -1.
         -2   -1    0    0    0  501 -0.00000000000E+00 -0.00000000000E+00 -0.32217841072E+02  0.32217841072E+02  0.00000000000E+00 0.  1.
         24    1    1    2    0    0 -0.42481242949E+02  0.97879308107E+02  0.58925127047E+03  0.60420964132E+03  0.80419002446E+02 0.  1.
        -24    1    1    2    0    0  0.42481242949E+02 -0.97879308107E+02  0.15566960064E+03  0.20514691193E+03  0.80419002446E+02 0. -1.
<mgrwt>
<rscale>  0 0.13361224E+03</rscale>
<asrwt>0</asrwt>
<pdfrwt beam="1">  1        2 0.11955979E+00 0.13361224E+03</pdfrwt>
<pdfrwt beam="2">  1       -2 0.49565915E-02 0.13361224E+03</pdfrwt>
<totfact> 0.70461082E+03</totfact>
</mgrwt>
</event>
<event>
 4    1  0.4938540E-001  0.1092624E+03  0.7546771E-02  0.1261942E+00
          2   -1    0    0  501    0  0.00000000000E+00  0.00000000000E+00  0.10756582374E+04  0.10756582374E+04  0.00000000000E+00 0. -1.
         -2   -1    0    0    0  501 -0.00000000000E+00 -0.00000000000E+00 -0.11115183470E+02  0.11115183470E+02  0.00000000000E+00 0.  1.
         24    1    1    2    0    0  0.53828014882E+02  0.50730680737E+02  0.55327648150E+03  0.56396200058E+03  0.80419002446E+02 0.  0.
        -24    1    1    2    0    0 -0.53828014882E+02 -0.50730680737E+02  0.51126657240E+03  0.52281142027E+03  0.80419002446E+02 0.  1.
<mgrwt>
<rscale>  0 0.10926240E+03</rscale>
<asrwt>0</asrwt>
<pdfrwt beam="1">  1        2 0.16548580E+00 0.10926240E+03</pdfrwt>
<pdfrwt beam="2">  1       -2 0.17100291E-02 0.10926240E+03</pdfrwt>
<totfact> 0.21578640E+04</totfact>
</mgrwt>
</event>
<event>
 4    1  0.4938540E-001  0.8519784E+02  0.7546771E-02  0.1314916E+00
          2   -1    0    0  501    0  0.00000000000E+00  0.00000000000E+00  0.13913273198E+03  0.13913273198E+03  0.00000000000E+00 0. -1.
         -2   -1    0    0    0  501 -0.00000000000E+00 -0.00000000000E+00 -0.27054905710E+03  0.27054905710E+03  0.00000000000E+00 0.  1.
         24    1    1    2    0    0  0.15401873205E+02  0.23542263059E+02  0.11832593980E+03  0.14580706372E+03  0.80419002446E+02 0. -1.
        -24    1    1    2    0    0 -0.15401873205E+02 -0.23542263059E+02 -0.24974226491E+03  0.26387472536E+03  0.80419002446E+02 0.  1.
<mgrwt>
<rscale>  0 0.85197839E+02</rscale>
<asrwt>0</asrwt>
<pdfrwt beam="1">  1        2 0.21405036E-01 0.85197839E+02</pdfrwt>
<pdfrwt beam="2">  1       -2 0.41622931E-01 0.85197839E+02</pdfrwt>
<totfact> 0.13592868E+03</totfact>
</mgrwt>
</event>
<event>
 4    1  0.4938540E-001  0.9053170E+02  0.7546771E-02  0.1301569E+00
         -2   -1    0    0    0  501 -0.00000000000E+00  0.00000000000E+00  0.17980064233E+02  0.17980064233E+02  0.00000000000E+00 0.  1.
          2   -1    0    0  501    0  0.00000000000E+00 -0.00000000000E+00 -0.63313396738E+03  0.63313396738E+03  0.00000000000E+00 0. -1.
         24    1    1    2    0    0 -0.24963153052E+01 -0.41503504955E+02 -0.47985471671E+03  0.48832011797E+03  0.80419002446E+02 0. -1.
        -24    1    1    2    0    0  0.24963153052E+01  0.41503504955E+02 -0.13529918644E+03  0.16279391364E+03  0.80419002446E+02 0.  1.
<mgrwt>
<rscale>  0 0.90531699E+02</rscale>
<asrwt>0</asrwt>
<pdfrwt beam="1">  1        2 0.97405226E-01 0.90531699E+02</pdfrwt>
<pdfrwt beam="2">  1       -2 0.27661637E-02 0.90531699E+02</pdfrwt>
<totfact> 0.20591086E+04</totfact>
</mgrwt>
</event>
<event>
 4    1  0.4938540E-001  0.8827395E+02  0.7546771E-02  0.1307086E+00
          2   -1    0    0  501    0  0.00000000000E+00  0.00000000000E+00  0.32823642748E+04  0.32823642748E+04  0.00000000000E+00 0. -1.
         -2   -1    0    0    0  501 -0.00000000000E+00 -0.00000000000E+00 -0.24459667801E+01  0.24459667801E+01  0.00000000000E+00 0.  1.
         24    1    1    2    0    0  0.22149598059E+02 -0.28887125851E+02  0.13582094797E+04  0.13610750447E+04  0.80419002446E+02 0. -1.
        -24    1    1    2    0    0 -0.22149598059E+02  0.28887125851E+02  0.19217088283E+04  0.19237351969E+04  0.80419002446E+02 0.  1.
<mgrwt>
<rscale>  0 0.88273941E+02</rscale>
<asrwt>0</asrwt>
<pdfrwt beam="1">  1        2 0.50497560E+00 0.88273952E+02</pdfrwt>
<pdfrwt beam="2">  1       -2 0.37630521E-03 0.88273952E+02</pdfrwt>
<totfact> 0.12106476E+04</totfact>
</mgrwt>
</event>
<event>
 4    1  0.4938540E-001  0.8342623E+02  0.7546771E-02  0.1319600E+00
         -2   -1    0    0    0  501 -0.00000000000E+00  0.00000000000E+00  0.83256509440E+02  0.83256509440E+02  0.00000000000E+00 0.  1.
          2   -1    0    0  501    0  0.00000000000E+00 -0.00000000000E+00 -0.19626844129E+03  0.19626844129E+03  0.00000000000E+00 0. -1.
         24    1    1    2    0    0 -0.23442416861E+00 -0.22196050655E+02 -0.16240052206E+03  0.18257564224E+03  0.80419002446E+02 0. -1.
        -24    1    1    2    0    0  0.23442416861E+00  0.22196050655E+02  0.49388590210E+02  0.96949308490E+02  0.80419002446E+02 0.  0.
<mgrwt>
<rscale>  0 0.83426228E+02</rscale>
<asrwt>0</asrwt>
<pdfrwt beam="1">  1        2 0.30195145E-01 0.83426228E+02</pdfrwt>
<pdfrwt beam="2">  1       -2 0.12808694E-01 0.83426228E+02</pdfrwt>
<totfact> 0.70721142E+03</totfact>
</mgrwt>
</event>
<event>
 4    1  0.4938540E-001  0.8158425E+02  0.7546771E-02  0.1324615E+00
         -2   -1    0    0    0  501 -0.00000000000E+00  0.00000000000E+00  0.13490203885E+03  0.13490203885E+03  0.00000000000E+00 0.  1.
          2   -1    0    0  501    0  0.00000000000E+00 -0.00000000000E+00 -0.19139828836E+04  0.19139828836E+04  0.00000000000E+00 0. -1.
         24    1    1    2    0    0 -0.13615665820E+02  0.18406637223E+01 -0.19006924239E+04  0.19024425565E+04  0.80419002446E+02 0. -1.
        -24    1    1    2    0    0  0.13615665820E+02 -0.18406637223E+01  0.12161157918E+03  0.14644236595E+03  0.80419002446E+02 0.  1.
<mgrwt>
<rscale>  0 0.81584253E+02</rscale>
<asrwt>0</asrwt>
<pdfrwt beam="1">  1        2 0.29445889E+00 0.81584253E+02</pdfrwt>
<pdfrwt beam="2">  1       -2 0.20754161E-01 0.81584253E+02</pdfrwt>
<totfact> 0.17767603E+02</totfact>
</mgrwt>
</event>
<event>
 4    1  0.4938540E-001  0.8727867E+02  0.7546771E-02  0.1309579E+00
         -2   -1    0    0    0  501 -0.00000000000E+00  0.00000000000E+00  0.75113230897E+01  0.75113230897E+01  0.00000000000E+00 0.  1.
          2   -1    0    0  501    0  0.00000000000E+00 -0.00000000000E+00 -0.10735583500E+04  0.10735583500E+04  0.00000000000E+00 0. -1.
         24    1    1    2    0    0  0.17094942886E+02 -0.29293572131E+02 -0.66018482638E+03  0.66592910386E+03  0.80419002446E+02 0. -1.
        -24    1    1    2    0    0 -0.17094942886E+02  0.29293572131E+02 -0.40586220051E+03  0.41514056920E+03  0.80419002446E+02 0.  1.
<mgrwt>
<rscale>  0 0.87278671E+02</rscale>
<asrwt>0</asrwt>
<pdfrwt beam="1">  1        2 0.16516281E+00 0.87278671E+02</pdfrwt>
<pdfrwt beam="2">  1       -2 0.11555882E-02 0.87278671E+02</pdfrwt>
<totfact> 0.37099884E+04</totfact>
</mgrwt>
</event>
<event>
 4    1  0.4938540E-001  0.8767388E+02  0.7546771E-02  0.1308585E+00
         -2   -1    0    0    0  501 -0.00000000000E+00  0.00000000000E+00  0.55372875550E+01  0.55372875550E+01  0.00000000000E+00 0.  1.
          2   -1    0    0  501    0  0.00000000000E+00 -0.00000000000E+00 -0.14870503008E+04  0.14870503008E+04  0.00000000000E+00 0. -1.
         24    1    1    2    0    0 -0.26068677052E+02  0.23236106328E+02 -0.93319728778E+03  0.93730671951E+03  0.80419002446E+02 0.  0.
        -24    1    1    2    0    0  0.26068677052E+02 -0.23236106328E+02 -0.54831572543E+03  0.55528086881E+03  0.80419002446E+02 0. -1.
<mgrwt>
<rscale>  0 0.87673876E+02</rscale>
<asrwt>0</asrwt>
<pdfrwt beam="1">  1        2 0.22877683E+00 0.87673876E+02</pdfrwt>
<pdfrwt beam="2">  1       -2 0.85189091E-03 0.87673876E+02</pdfrwt>
<totfact> 0.34382953E+04</totfact>
</mgrwt>
</event>
<event>
 4    1  0.4938540E-001  0.8381387E+02  0.7546771E-02  0.1318564E+00
         -1   -1    0    0    0  501 -0.00000000000E+00  0.00000000000E+00  0.34991156622E+02  0.34991156622E+02  0.00000000000E+00 0.  1.
          1   -1    0    0  501    0  0.00000000000E+00 -0.00000000000E+00 -0.20801525669E+03  0.20801525669E+03  0.00000000000E+00 0. -1.
         24    1    1    2    0    0  0.93160857941E+01  0.21697002520E+02 -0.63817727008E+02  0.10534451864E+03  0.80419002446E+02 0.  1.
        -24    1    1    2    0    0 -0.93160857941E+01 -0.21697002520E+02 -0.10920637306E+03  0.13766189467E+03  0.80419002446E+02 0. -1.
<mgrwt>
<rscale>  0 0.83813873E+02</rscale>
<asrwt>0</asrwt>
<pdfrwt beam="1">  1        1 0.32002348E-01 0.83813873E+02</pdfrwt>
<pdfrwt beam="2">  1       -1 0.53832548E-02 0.83813873E+02</pdfrwt>
<totfact> 0.19431199E+04</totfact>
</mgrwt>
</event>
<event>
 4    1  0.4938540E-001  0.8119120E+02  0.7546771E-02  0.1325705E+00
          3   -1    0    0  501    0  0.00000000000E+00  0.00000000000E+00  0.84051427125E+02  0.84051427125E+02  0.00000000000E+00 0. -1.
         -3   -1    0    0    0  501 -0.00000000000E+00 -0.00000000000E+00 -0.97690105524E+02  0.97690105524E+02  0.00000000000E+00 0.  1.
         24    1    1    2    0    0 -0.63775397203E+01  0.91718226538E+01 -0.47169688313E+02  0.93898832760E+02  0.80419002446E+02 0.  0.
        -24    1    1    2    0    0  0.63775397203E+01 -0.91718226538E+01  0.33531009914E+02  0.87842699890E+02  0.80419002446E+02 0.  0.
<mgrwt>
<rscale>  0 0.81191202E+02</rscale>
<asrwt>0</asrwt>
<pdfrwt beam="1">  1        3 0.12930989E-01 0.81191202E+02</pdfrwt>
<pdfrwt beam="2">  1       -3 0.15029247E-01 0.81191202E+02</pdfrwt>
<totfact> 0.36280817E+03</totfact>
</mgrwt>
</event>
<event>
 4    1  0.4938540E-001  0.9183265E+02  0.7546771E-02  0.1298473E+00
         -2   -1    0    0    0  501 -0.00000000000E+00  0.00000000000E+00  0.56173402293E+02  0.56173402293E+02  0.00000000000E+00 0.  1.
          2   -1    0    0  501    0  0.00000000000E+00 -0.00000000000E+00 -0.28694148665E+03  0.28694148665E+03  0.00000000000E+00 0. -1.
         24    1    1    2    0    0 -0.26687185805E+02  0.35409241948E+02 -0.23384530080E+03  0.25123069272E+03  0.80419002446E+02 0. -1.
        -24    1    1    2    0    0  0.26687185805E+02 -0.35409241948E+02  0.30772164409E+01  0.91884196230E+02  0.80419002446E+02 0.  1.
<mgrwt>
<rscale>  0 0.91832654E+02</rscale>
<asrwt>0</asrwt>
<pdfrwt beam="1">  1        2 0.44144844E-01 0.91832654E+02</pdfrwt>
<pdfrwt beam="2">  1       -2 0.86420620E-02 0.91832654E+02</pdfrwt>
<totfact> 0.88309897E+03</totfact>
</mgrwt>
</event>
<event>
 4    1  0.4938540E-001  0.8227338E+02  0.7546771E-02  0.1322721E+00
         -2   -1    0    0    0  501 -0.00000000000E+00  0.00000000000E+00  0.32373904368E+01  0.32373904368E+01  0.00000000000E+00 0.  1.
          2   -1    0    0  501    0  0.00000000000E+00 -0.00000000000E+00 -0.35827536214E+04  0.35827536214E+04  0.00000000000E+00 0. -1.
         24    1    1    2    0    0 -0.16950041736E+02 -0.37933221413E+01 -0.29467774123E+04  0.29479257160E+04  0.80419002446E+02 0. -1.
        -24    1    1    2    0    0  0.16950041736E+02  0.37933221413E+01 -0.63273881864E+03  0.63806529585E+03  0.80419002446E+02 0.  1.
<mgrwt>
<rscale>  0 0.82273381E+02</rscale>
<asrwt>0</asrwt>
<pdfrwt beam="1">  1        2 0.55119564E+00 0.82273381E+02</pdfrwt>
<pdfrwt beam="2">  1       -2 0.49805756E-03 0.82273381E+02</pdfrwt>
<totfact> 0.53066523E+03</totfact>
</mgrwt>
</event>
<event>
 4    1  0.4938540E-001  0.9197623E+02  0.7546771E-02  0.1298135E+00
          2   -1    0    0  501    0  0.00000000000E+00  0.00000000000E+00  0.16756991171E+03  0.16756991171E+03  0.00000000000E+00 0. -1.
         -2   -1    0    0    0  501 -0.00000000000E+00 -0.00000000000E+00 -0.52795196652E+02  0.52795196652E+02  0.00000000000E+00 0.  1.
         24    1    1    2    0    0  0.33100549942E+02  0.29946033902E+02  0.80439879487E+02  0.12218920378E+03  0.80419002446E+02 0.  0.
        -24    1    1    2    0    0 -0.33100549942E+02 -0.29946033902E+02  0.34334835566E+02  0.98175904583E+02  0.80419002446E+02 0. -1.
<mgrwt>
<rscale>  0 0.91976232E+02</rscale>
<asrwt>0</asrwt>
<pdfrwt beam="1">  1        2 0.25779986E-01 0.91976232E+02</pdfrwt>
<pdfrwt beam="2">  1       -2 0.81223380E-02 0.91976232E+02</pdfrwt>
<totfact> 0.17195801E+04</totfact>
</mgrwt>
</event>
<event>
 4    1  0.4938540E-001  0.8672173E+02  0.7546771E-02  0.1310990E+00
         -3   -1    0    0    0  501 -0.00000000000E+00  0.00000000000E+00  0.97620067895E+02  0.97620067895E+02  0.00000000000E+00 0.  1.
          3   -1    0    0  501    0  0.00000000000E+00 -0.00000000000E+00 -0.17511243986E+03  0.17511243986E+03  0.00000000000E+00 0. -1.
         24    1    1    2    0    0 -0.28670485129E+02  0.15213328214E+02  0.63305860723E+02  0.10736987487E+03  0.80419002446E+02 0.  1.
        -24    1    1    2    0    0  0.28670485129E+02 -0.15213328214E+02 -0.14079823269E+03  0.16536263289E+03  0.80419002446E+02 0. -1.
<mgrwt>
<rscale>  0 0.86721728E+02</rscale>
<asrwt>0</asrwt>
<pdfrwt beam="1">  1        3 0.26940375E-01 0.86721728E+02</pdfrwt>
<pdfrwt beam="2">  1       -3 0.15018472E-01 0.86721728E+02</pdfrwt>
<totfact> 0.10340943E+03</totfact>
</mgrwt>
</event>
<event>
 4    1  0.4938540E-001  0.8892637E+02  0.7546771E-02  0.1305473E+00
          1   -1    0    0  501    0  0.00000000000E+00  0.00000000000E+00  0.48615130391E+03  0.48615130391E+03  0.00000000000E+00 0. -1.
         -1   -1    0    0    0  501 -0.00000000000E+00 -0.00000000000E+00 -0.18425023143E+02  0.18425023143E+02  0.00000000000E+00 0.  1.
         24    1    1    2    0    0  0.12419529815E+02  0.35866966288E+02  0.14750807597E+03  0.17223975273E+03  0.80419002446E+02 0.  1.
        -24    1    1    2    0    0 -0.12419529815E+02 -0.35866966288E+02  0.32021820480E+03  0.33233657432E+03  0.80419002446E+02 0. -1.
<mgrwt>
<rscale>  0 0.88926374E+02</rscale>
<asrwt>0</asrwt>
<pdfrwt beam="1">  1        1 0.74792499E-01 0.88926374E+02</pdfrwt>
<pdfrwt beam="2">  1       -1 0.28346193E-02 0.88926374E+02</pdfrwt>
<totfact> 0.17433162E+04</totfact>
</mgrwt>
</event>
<event>
 4    1  0.4938540E-001  0.1133761E+03  0.7546771E-02  0.1254443E+00
          2   -1    0    0  501    0  0.00000000000E+00  0.00000000000E+00  0.42475420468E+03  0.42475420468E+03  0.00000000000E+00 0. -1.
         -2   -1    0    0    0  501 -0.00000000000E+00 -0.00000000000E+00 -0.40752540984E+02  0.40752540984E+02  0.00000000000E+00 0.  1.
         24    1    1    2    0    0  0.35526249714E+01  0.79839224744E+02  0.31008903340E+03  0.33016563652E+03  0.80419002446E+02 0. -1.
        -24    1    1    2    0    0 -0.35526249714E+01 -0.79839224744E+02  0.73912630300E+02  0.13534110914E+03  0.80419002446E+02 0.  1.
<mgrwt>
<rscale>  0 0.11337609E+03</rscale>
<asrwt>0</asrwt>
<pdfrwt beam="1">  1        2 0.65346798E-01 0.11337609E+03</pdfrwt>
<pdfrwt beam="2">  1       -2 0.62696220E-02 0.11337609E+03</pdfrwt>
<totfact> 0.96909979E+03</totfact>
</mgrwt>
</event>
<event>
 4    1  0.4938540E-001  0.9105761E+02  0.7546771E-02  0.1300311E+00
         -1   -1    0    0    0  501 -0.00000000000E+00  0.00000000000E+00  0.56520101557E+02  0.56520101557E+02  0.00000000000E+00 0.  1.
          1   -1    0    0  501    0  0.00000000000E+00 -0.00000000000E+00 -0.15555867675E+03  0.15555867675E+03  0.00000000000E+00 0. -1.
         24    1    1    2    0    0 -0.21142049677E+02 -0.37111796909E+02 -0.24214110209E+02  0.94222135520E+02  0.80419002446E+02 0.  0.
        -24    1    1    2    0    0  0.21142049677E+02  0.37111796909E+02 -0.74824464984E+02  0.11785664279E+03  0.80419002446E+02 0. -1.
<mgrwt>
<rscale>  0 0.91057606E+02</rscale>
<asrwt>0</asrwt>
<pdfrwt beam="1">  1        1 0.23932104E-01 0.91057606E+02</pdfrwt>
<pdfrwt beam="2">  1       -1 0.86954001E-02 0.91057606E+02</pdfrwt>
<totfact> 0.13787851E+04</totfact>
</mgrwt>
</event>
<event>
 4    1  0.4938540E-001  0.9304126E+02  0.7546771E-02  0.1295650E+00
          2   -1    0    0  501    0  0.00000000000E+00  0.00000000000E+00  0.31995899683E+04  0.31995899683E+04  0.00000000000E+00 0. -1.
         -2   -1    0    0    0  501 -0.00000000000E+00 -0.00000000000E+00 -0.41565949504E+01  0.41565949504E+01  0.00000000000E+00 0.  1.
         24    1    1    2    0    0 -0.20403359992E+01 -0.46747166039E+02  0.25441685494E+04  0.25458692591E+04  0.80419002446E+02 0. -1.
        -24    1    1    2    0    0  0.20403359992E+01  0.46747166039E+02  0.65126482394E+03  0.65787730419E+03  0.80419002446E+02 0.  1.
<mgrwt>
<rscale>  0 0.93041262E+02</rscale>
<asrwt>0</asrwt>
<pdfrwt beam="1">  1        2 0.49224264E+00 0.93041262E+02</pdfrwt>
<pdfrwt beam="2">  1       -2 0.63947870E-03 0.93041262E+02</pdfrwt>
<totfact> 0.64606956E+03</totfact>
</mgrwt>
</event>
<event>
 4    1  0.4938540E-001  0.8823311E+02  0.7546771E-02  0.1307188E+00
          1   -1    0    0  501    0  0.00000000000E+00  0.00000000000E+00  0.44568134656E+03  0.44568134656E+03  0.00000000000E+00 0. -1.
         -1   -1    0    0    0  501 -0.00000000000E+00 -0.00000000000E+00 -0.21041593333E+02  0.21041593333E+02  0.00000000000E+00 0.  1.
         24    1    1    2    0    0 -0.33396162998E+02  0.14232407242E+02  0.11614682297E+03  0.14586008899E+03  0.80419002446E+02 0.  1.
        -24    1    1    2    0    0  0.33396162998E+02 -0.14232407242E+02  0.30849293025E+03  0.32086285090E+03  0.80419002446E+02 0. -1.
<mgrwt>
<rscale>  0 0.88233106E+02</rscale>
<asrwt>0</asrwt>
<pdfrwt beam="1">  1        1 0.68566354E-01 0.88233106E+02</pdfrwt>
<pdfrwt beam="2">  1       -1 0.32371685E-02 0.88233106E+02</pdfrwt>
<totfact> 0.16063700E+04</totfact>
</mgrwt>
</event>
<event>
 4    1  0.4938540E-001  0.8757314E+02  0.7546771E-02  0.1308837E+00
         -2   -1    0    0    0  501 -0.00000000000E+00  0.00000000000E+00  0.71467295802E+01  0.71467295802E+01  0.00000000000E+00 0.  1.
          2   -1    0    0  501    0  0.00000000000E+00 -0.00000000000E+00 -0.11405299604E+04  0.11405299604E+04  0.00000000000E+00 0. -1.
         24    1    1    2    0    0 -0.34526221909E+02  0.31270083159E+01 -0.70623470836E+03  0.71164353256E+03  0.80419002446E+02 0. -1.
        -24    1    1    2    0    0  0.34526221909E+02 -0.31270083159E+01 -0.42714852245E+03  0.43603315742E+03  0.80419002446E+02 0.  1.
<mgrwt>
<rscale>  0 0.87573136E+02</rscale>
<asrwt>0</asrwt>
<pdfrwt beam="1">  1        2 0.17546608E+00 0.87573136E+02</pdfrwt>
<pdfrwt beam="2">  1       -2 0.10994973E-02 0.87573136E+02</pdfrwt>
<totfact> 0.36533290E+04</totfact>
</mgrwt>
</event>
<event>
 4    1  0.4938540E-001  0.9372779E+02  0.7546771E-02  0.1294067E+00
         -2   -1    0    0    0  501 -0.00000000000E+00  0.00000000000E+00  0.48911305711E+01  0.48911305711E+01  0.00000000000E+00 0.  1.
          2   -1    0    0  501    0  0.00000000000E+00 -0.00000000000E+00 -0.35867580445E+04  0.35867580445E+04  0.00000000000E+00 0. -1.
         24    1    1    2    0    0  0.39121416108E+02  0.28057028996E+02 -0.30598139737E+04  0.30612491652E+04  0.80419002446E+02 0. -1.
        -24    1    1    2    0    0 -0.39121416108E+02 -0.28057028996E+02 -0.52205294027E+03  0.53040000988E+03  0.80419002446E+02 0.  1.
<mgrwt>
<rscale>  0 0.93727787E+02</rscale>
<asrwt>0</asrwt>
<pdfrwt beam="1">  1        2 0.55180919E+00 0.93727787E+02</pdfrwt>
<pdfrwt beam="2">  1       -2 0.75248127E-03 0.93727787E+02</pdfrwt>
<totfact> 0.29499495E+03</totfact>
</mgrwt>
</event>
<event>
 4    1  0.4938540E-001  0.9352999E+02  0.7546771E-02  0.1294522E+00
         -3   -1    0    0    0  501 -0.00000000000E+00  0.00000000000E+00  0.48078879594E+02  0.48078879594E+02  0.00000000000E+00 0.  1.
          3   -1    0    0  501    0  0.00000000000E+00 -0.00000000000E+00 -0.18309670545E+03  0.18309670545E+03  0.00000000000E+00 0. -1.
         24    1    1    2    0    0  0.38901427363E+02 -0.27700501869E+02 -0.76664383421E+02  0.12093503419E+03  0.80419002446E+02 0. -1.
        -24    1    1    2    0    0 -0.38901427363E+02  0.27700501869E+02 -0.58353442438E+02  0.11024055086E+03  0.80419002446E+02 0.  1.
<mgrwt>
<rscale>  0 0.93529979E+02</rscale>
<asrwt>0</asrwt>
<pdfrwt beam="1">  1        3 0.28168724E-01 0.93529991E+02</pdfrwt>
<pdfrwt beam="2">  1       -3 0.73967506E-02 0.93529991E+02</pdfrwt>
<totfact> 0.31049014E+03</totfact>
</mgrwt>
</event>
<event>
 4    1  0.4938540E-001  0.1196458E+03  0.7546771E-02  0.1243683E+00
         -2   -1    0    0    0  501 -0.00000000000E+00  0.00000000000E+00  0.56062032866E+01  0.56062032866E+01  0.00000000000E+00 0.  1.
          2   -1    0    0  501    0  0.00000000000E+00 -0.00000000000E+00 -0.38846590734E+04  0.38846590734E+04  0.00000000000E+00 0. -1.
         24    1    1    2    0    0 -0.24719284432E+02  0.85069708087E+02 -0.30781947254E+04  0.30805190929E+04  0.80419002446E+02 0. -1.
        -24    1    1    2    0    0  0.24719284432E+02 -0.85069708087E+02 -0.80085814472E+03  0.80974618380E+03  0.80419002446E+02 0.  1.
<mgrwt>
<rscale>  0 0.11964579E+03</rscale>
<asrwt>0</asrwt>
<pdfrwt beam="1">  1        2 0.59763942E+00 0.11964579E+03</pdfrwt>
<pdfrwt beam="2">  1       -2 0.86249344E-03 0.11964579E+03</pdfrwt>
<totfact> 0.15068314E+03</totfact>
</mgrwt>
</event>
<event>
 4    1  0.4938540E-001  0.8483002E+02  0.7546771E-02  0.1315878E+00
          2   -1    0    0  501    0  0.00000000000E+00  0.00000000000E+00  0.86019640363E+03  0.86019640363E+03  0.00000000000E+00 0. -1.
         -2   -1    0    0    0  501 -0.00000000000E+00 -0.00000000000E+00 -0.99772026635E+01  0.99772026635E+01  0.00000000000E+00 0.  1.
         24    1    1    2    0    0 -0.26381296505E+02 -0.57396181260E+01  0.59996903764E+03  0.60593644724E+03  0.80419002446E+02 0.  1.
        -24    1    1    2    0    0  0.26381296505E+02  0.57396181260E+01  0.25025016333E+03  0.26423715905E+03  0.80419002446E+02 0.  1.
<mgrwt>
<rscale>  0 0.84830018E+02</rscale>
<asrwt>0</asrwt>
<pdfrwt beam="1">  1        2 0.13233785E+00 0.84830018E+02</pdfrwt>
<pdfrwt beam="2">  1       -2 0.15349549E-02 0.84830018E+02</pdfrwt>
<totfact> 0.33121911E+04</totfact>
</mgrwt>
</event>
<event>
 4    1  0.4938540E-001  0.9131355E+02  0.7546771E-02  0.1299702E+00
         -2   -1    0    0    0  501 -0.00000000000E+00  0.00000000000E+00  0.99781932905E+02  0.99781932905E+02  0.00000000000E+00 0.  1.
          2   -1    0    0  501    0  0.00000000000E+00 -0.00000000000E+00 -0.10170312076E+03  0.10170312076E+03  0.00000000000E+00 0. -1.
         24    1    1    2    0    0  0.26170219289E+02  0.34439350955E+02 -0.43506255529E+02  0.10114820560E+03  0.80419002446E+02 0. -1.
        -24    1    1    2    0    0 -0.26170219289E+02 -0.34439350955E+02  0.41585067673E+02  0.10033684806E+03  0.80419002446E+02 0.  1.
<mgrwt>
<rscale>  0 0.91313554E+02</rscale>
<asrwt>0</asrwt>
<pdfrwt beam="1">  1        2 0.15646634E-01 0.91313554E+02</pdfrwt>
<pdfrwt beam="2">  1       -2 0.15351067E-01 0.91313554E+02</pdfrwt>
<totfact> 0.11032785E+04</totfact>
</mgrwt>
</event>
<event>
 4    1  0.4938540E-001  0.8217343E+02  0.7546771E-02  0.1322994E+00
         -2   -1    0    0    0  501 -0.00000000000E+00  0.00000000000E+00  0.37231093383E+02  0.37231093383E+02  0.00000000000E+00 0.  1.
          2   -1    0    0  501    0  0.00000000000E+00 -0.00000000000E+00 -0.18024612293E+04  0.18024612293E+04  0.00000000000E+00 0. -1.
         24    1    1    2    0    0 -0.71341413780E+01 -0.15308845991E+02 -0.17549563651E+04  0.17568791410E+04  0.80419002446E+02 0. -1.
        -24    1    1    2    0    0  0.71341413780E+01  0.15308845991E+02 -0.10273770819E+02  0.82813181680E+02  0.80419002446E+02 0.  1.
<mgrwt>
<rscale>  0 0.82173431E+02</rscale>
<asrwt>0</asrwt>
<pdfrwt beam="1">  1        2 0.27730172E+00 0.82173431E+02</pdfrwt>
<pdfrwt beam="2">  1       -2 0.57278607E-02 0.82173431E+02</pdfrwt>
<totfact> 0.15242806E+03</totfact>
</mgrwt>
</event>
<event>
 4    1  0.4938540E-001  0.1195021E+03  0.7546771E-02  0.1243921E+00
         -2   -1    0    0    0  501 -0.00000000000E+00  0.00000000000E+00  0.40971844556E+03  0.40971844556E+03  0.00000000000E+00 0.  1.
          2   -1    0    0  501    0  0.00000000000E+00 -0.00000000000E+00 -0.98494710813E+02  0.98494710813E+02  0.00000000000E+00 0. -1.
         24    1    1    2    0    0  0.83893626438E+02 -0.27845938532E+02 -0.48643470817E+02  0.12902302142E+03  0.80419002446E+02 0. -1.
        -24    1    1    2    0    0 -0.83893626438E+02  0.27845938532E+02  0.35986720556E+03  0.37919013495E+03  0.80419002446E+02 0.  1.
<mgrwt>
<rscale>  0 0.11950210E+03</rscale>
<asrwt>0</asrwt>
<pdfrwt beam="1">  1        2 0.15153033E-01 0.11950210E+03</pdfrwt>
<pdfrwt beam="2">  1       -2 0.63033606E-01 0.11950210E+03</pdfrwt>
<totfact> 0.89761842E+02</totfact>
</mgrwt>
</event>
<event>
 4    1  0.4938540E-001  0.1423819E+03  0.7546771E-02  0.1210159E+00
          2   -1    0    0  501    0  0.00000000000E+00  0.00000000000E+00  0.38762353131E+03  0.38762353131E+03  0.00000000000E+00 0. -1.
         -2   -1    0    0    0  501 -0.00000000000E+00 -0.00000000000E+00 -0.52361892983E+02  0.52361892983E+02  0.00000000000E+00 0.  1.
         24    1    1    2    0    0 -0.95760009816E+02 -0.68083828159E+02  0.16005040343E+03  0.21421656035E+03  0.80419002446E+02 0. -1.
        -24    1    1    2    0    0  0.95760009816E+02  0.68083828159E+02  0.17521123489E+03  0.22576886394E+03  0.80419002446E+02 0.  1.
<mgrwt>
<rscale>  0 0.14238191E+03</rscale>
<asrwt>0</asrwt>
<pdfrwt beam="1">  1        2 0.59634388E-01 0.14238193E+03</pdfrwt>
<pdfrwt beam="2">  1       -2 0.80556761E-02 0.14238193E+03</pdfrwt>
<totfact> 0.73974015E+03</totfact>
</mgrwt>
</event>
<event>
 4    1  0.4938540E-001  0.8308735E+02  0.7546771E-02  0.1320511E+00
         -2   -1    0    0    0  501 -0.00000000000E+00  0.00000000000E+00  0.48137003083E+01  0.48137003083E+01  0.00000000000E+00 0.  1.
          2   -1    0    0  501    0  0.00000000000E+00 -0.00000000000E+00 -0.28336617289E+04  0.28336617289E+04  0.00000000000E+00 0. -1.
         24    1    1    2    0    0  0.15394532162E+02  0.14117343963E+02 -0.24118286652E+04  0.24132594177E+04  0.80419002446E+02 0. -1.
        -24    1    1    2    0    0 -0.15394532162E+02 -0.14117343963E+02 -0.41701936342E+03  0.42521601150E+03  0.80419002446E+02 0.  1.
<mgrwt>
<rscale>  0 0.83087345E+02</rscale>
<asrwt>0</asrwt>
<pdfrwt beam="1">  1        2 0.43594892E+00 0.83087345E+02</pdfrwt>
<pdfrwt beam="2">  1       -2 0.74056764E-03 0.83087345E+02</pdfrwt>
<totfact> 0.84918598E+03</totfact>
</mgrwt>
</event>
<event>
 4    1  0.4938540E-001  0.1029845E+03  0.7546771E-02  0.1274142E+00
         -1   -1    0    0    0  501 -0.00000000000E+00  0.00000000000E+00  0.26107498915E+02  0.26107498915E+02  0.00000000000E+00 0.  1.
          1   -1    0    0  501    0  0.00000000000E+00 -0.00000000000E+00 -0.69910938302E+03  0.69910938302E+03  0.00000000000E+00 0. -1.
         24    1    1    2    0    0  0.49797560985E+02  0.40728276760E+02 -0.10180514817E+03  0.14481054436E+03  0.80419002446E+02 0.  1.
        -24    1    1    2    0    0 -0.49797560985E+02 -0.40728276760E+02 -0.57119673593E+03  0.58040633758E+03  0.80419002446E+02 0. -1.
<mgrwt>
<rscale>  0 0.10298449E+03</rscale>
<asrwt>0</asrwt>
<pdfrwt beam="1">  1        1 0.10755527E+00 0.10298449E+03</pdfrwt>
<pdfrwt beam="2">  1       -1 0.40165392E-02 0.10298449E+03</pdfrwt>
<totfact> 0.65538274E+03</totfact>
</mgrwt>
</event>
<event>
 4    1  0.4938540E-001  0.8225592E+02  0.7546771E-02  0.1322769E+00
         -2   -1    0    0    0  501 -0.00000000000E+00  0.00000000000E+00  0.13661891390E+03  0.13661891390E+03  0.00000000000E+00 0.  1.
          2   -1    0    0  501    0  0.00000000000E+00 -0.00000000000E+00 -0.16651281355E+03  0.16651281355E+03  0.00000000000E+00 0. -1.
         24    1    1    2    0    0  0.15863140426E+02  0.68688715669E+01 -0.14198917356E+03  0.16409436914E+03  0.80419002446E+02 0. -1.
        -24    1    1    2    0    0 -0.15863140426E+02 -0.68688715669E+01  0.11209527391E+03  0.13903735832E+03  0.80419002446E+02 0.  1.
<mgrwt>
<rscale>  0 0.82255921E+02</rscale>
<asrwt>0</asrwt>
<pdfrwt beam="1">  1        2 0.25617356E-01 0.82255921E+02</pdfrwt>
<pdfrwt beam="2">  1       -2 0.21018295E-01 0.82255921E+02</pdfrwt>
<totfact> 0.37556939E+03</totfact>
</mgrwt>
</event>
<event>
 4    1  0.4938540E-001  0.8459394E+02  0.7546771E-02  0.1316498E+00
         -2   -1    0    0    0  501 -0.00000000000E+00  0.00000000000E+00  0.16995844691E+02  0.16995844691E+02  0.00000000000E+00 0.  1.
          2   -1    0    0  501    0  0.00000000000E+00 -0.00000000000E+00 -0.43330694204E+03  0.43330694204E+03  0.00000000000E+00 0. -1.
         24    1    1    2    0    0 -0.60366712874E+01 -0.25543641050E+02 -0.24602001752E+03  0.26015761372E+03  0.80419002446E+02 0. -1.
        -24    1    1    2    0    0  0.60366712874E+01  0.25543641050E+02 -0.17029107983E+03  0.19014517302E+03  0.80419002446E+02 0.  1.
<mgrwt>
<rscale>  0 0.84593942E+02</rscale>
<asrwt>0</asrwt>
<pdfrwt beam="1">  1        2 0.66662611E-01 0.84593942E+02</pdfrwt>
<pdfrwt beam="2">  1       -2 0.26147452E-02 0.84593942E+02</pdfrwt>
<totfact> 0.33524955E+04</totfact>
</mgrwt>
</event>
<event>
 4    1  0.4938540E-001  0.8819526E+02  0.7546771E-02  0.1307282E+00
         -1   -1    0    0    0  501 -0.00000000000E+00  0.00000000000E+00  0.17546698021E+03  0.17546698021E+03  0.00000000000E+00 0.  1.
          1   -1    0    0  501    0  0.00000000000E+00 -0.00000000000E+00 -0.83448704185E+02  0.83448704185E+02  0.00000000000E+00 0. -1.
         24    1    1    2    0    0 -0.25985607220E+02  0.25217776982E+02  0.13464557486E+03  0.16095910922E+03  0.80419002446E+02 0.  1.
        -24    1    1    2    0    0  0.25985607220E+02 -0.25217776982E+02 -0.42627298836E+02  0.97956575170E+02  0.80419002446E+02 0. -1.
<mgrwt>
<rscale>  0 0.88195261E+02</rscale>
<asrwt>0</asrwt>
<pdfrwt beam="1">  1        1 0.12838262E-01 0.88195261E+02</pdfrwt>
<pdfrwt beam="2">  1       -1 0.26994920E-01 0.88195261E+02</pdfrwt>
<totfact> 0.51791101E+03</totfact>
</mgrwt>
</event>
<event>
 4    1  0.4938540E-001  0.9503271E+02  0.7546771E-02  0.1291102E+00
         -2   -1    0    0    0  501 -0.00000000000E+00  0.00000000000E+00  0.14643420560E+02  0.14643420560E+02  0.00000000000E+00 0.  1.
          2   -1    0    0  501    0  0.00000000000E+00 -0.00000000000E+00 -0.12220741417E+04  0.12220741417E+04  0.00000000000E+00 0. -1.
         24    1    1    2    0    0 -0.43723518387E+02  0.25539246560E+02 -0.10389150307E+04  0.10432524412E+04  0.80419002446E+02 0. -1.
        -24    1    1    2    0    0  0.43723518387E+02 -0.25539246560E+02 -0.16851569045E+03  0.19346512104E+03  0.80419002446E+02 0.  1.
<mgrwt>
<rscale>  0 0.95032706E+02</rscale>
<asrwt>0</asrwt>
<pdfrwt beam="1">  1        2 0.18801141E+00 0.95032706E+02</pdfrwt>
<pdfrwt beam="2">  1       -2 0.22528338E-02 0.95032706E+02</pdfrwt>
<totfact> 0.11910985E+04</totfact>
</mgrwt>
</event>
<event>
 4    1  0.4938540E-001  0.8139840E+02  0.7546771E-02  0.1325129E+00
         -1   -1    0    0    0  501 -0.00000000000E+00  0.00000000000E+00  0.33352200899E+02  0.33352200899E+02  0.00000000000E+00 0.  1.
          1   -1    0    0  501    0  0.00000000000E+00 -0.00000000000E+00 -0.20002162566E+03  0.20002162566E+03  0.00000000000E+00 0. -1.
         24    1    1    2    0    0  0.74751946069E+01 -0.10129266234E+02 -0.92967669805E+02  0.12356651712E+03  0.80419002446E+02 0.  0.
        -24    1    1    2    0    0 -0.74751946069E+01  0.10129266234E+02 -0.73701754954E+02  0.10980730944E+03  0.80419002446E+02 0.  0.
<mgrwt>
<rscale>  0 0.81398392E+02</rscale>
<asrwt>0</asrwt>
<pdfrwt beam="1">  1        1 0.30772558E-01 0.81398402E+02</pdfrwt>
<pdfrwt beam="2">  1       -1 0.51311077E-02 0.81398402E+02</pdfrwt>
<totfact> 0.21792609E+04</totfact>
</mgrwt>
</event>
<event>
 4    1  0.4938540E-001  0.1270801E+03  0.7546771E-02  0.1231854E+00
         -2   -1    0    0    0  501 -0.00000000000E+00  0.00000000000E+00  0.49257347649E+03  0.49257347649E+03  0.00000000000E+00 0.  1.
          2   -1    0    0  501    0  0.00000000000E+00 -0.00000000000E+00 -0.84722554514E+02  0.84722554514E+02  0.00000000000E+00 0. -1.
         24    1    1    2    0    0  0.30491169799E+01 -0.98350534957E+02 -0.22073838357E+02  0.12898292575E+03  0.80419002446E+02 0. -1.
        -24    1    1    2    0    0 -0.30491169799E+01  0.98350534957E+02  0.42992476034E+03  0.44831310526E+03  0.80419002446E+02 0.  1.
<mgrwt>
<rscale>  0 0.12708006E+03</rscale>
<asrwt>0</asrwt>
<pdfrwt beam="1">  1        2 0.13034239E-01 0.12708006E+03</pdfrwt>
<pdfrwt beam="2">  1       -2 0.75780533E-01 0.12708006E+03</pdfrwt>
<totfact> 0.72744529E+02</totfact>
</mgrwt>
</event>
<event>
 4    1  0.4938540E-001  0.1449136E+03  0.7546771E-02  0.1206866E+00
         -2   -1    0    0    0  501 -0.00000000000E+00  0.00000000000E+00  0.16823151350E+02  0.16823151350E+02  0.00000000000E+00 0.  1.
          2   -1    0    0  501    0  0.00000000000E+00 -0.00000000000E+00 -0.30302450597E+04  0.30302450597E+04  0.00000000000E+00 0. -1.
         24    1    1    2    0    0  0.47438753620E+02  0.11082552012E+03 -0.26750349690E+04  0.26789572659E+04  0.80419002446E+02 0. -1.
        -24    1    1    2    0    0 -0.47438753620E+02 -0.11082552012E+03 -0.33838693939E+03  0.36811094518E+03  0.80419002446E+02 0.  1.
<mgrwt>
<rscale>  0 0.14491359E+03</rscale>
<asrwt>0</asrwt>
<pdfrwt beam="1">  1        2 0.46619174E+00 0.14491359E+03</pdfrwt>
<pdfrwt beam="2">  1       -2 0.25881760E-02 0.14491359E+03</pdfrwt>
<totfact> 0.10863479E+03</totfact>
</mgrwt>
</event>
<event>
 4    1  0.4938540E-001  0.8193824E+02  0.7546771E-02  0.1323639E+00
          2   -1    0    0  501    0  0.00000000000E+00  0.00000000000E+00  0.52776235958E+03  0.52776235958E+03  0.00000000000E+00 0. -1.
         -2   -1    0    0    0  501 -0.00000000000E+00 -0.00000000000E+00 -0.42970757807E+02  0.42970757807E+02  0.00000000000E+00 0.  1.
         24    1    1    2    0    0 -0.39564155833E+01 -0.15198872396E+02  0.48182365173E+03  0.48874114444E+03  0.80419002446E+02 0.  0.
        -24    1    1    2    0    0  0.39564155833E+01  0.15198872396E+02  0.29679500438E+01  0.81991972950E+02  0.80419002446E+02 0.  1.
<mgrwt>
<rscale>  0 0.81938238E+02</rscale>
<asrwt>0</asrwt>
<pdfrwt beam="1">  1        2 0.81194205E-01 0.81938238E+02</pdfrwt>
<pdfrwt beam="2">  1       -2 0.66108862E-02 0.81938238E+02</pdfrwt>
<totfact> 0.69157207E+03</totfact>
</mgrwt>
</event>
<event>
 4    1  0.4938540E-001  0.1131763E+03  0.7546771E-02  0.1254798E+00
          2   -1    0    0  501    0  0.00000000000E+00  0.00000000000E+00  0.19926973277E+04  0.19926973277E+04  0.00000000000E+00 0. -1.
         -2   -1    0    0    0  501 -0.00000000000E+00 -0.00000000000E+00 -0.37661667896E+02  0.37661667896E+02  0.00000000000E+00 0.  1.
         24    1    1    2    0    0 -0.79601110396E+02 -0.23061599792E+01  0.19020142020E+04  0.19053784128E+04  0.80419002446E+02 0. -1.
        -24    1    1    2    0    0  0.79601110396E+02  0.23061599792E+01  0.53021457801E+02  0.12498058286E+03  0.80419002446E+02 0.  1.
<mgrwt>
<rscale>  0 0.11317628E+03</rscale>
<asrwt>0</asrwt>
<pdfrwt beam="1">  1        2 0.30656874E+00 0.11317628E+03</pdfrwt>
<pdfrwt beam="2">  1       -2 0.57941043E-02 0.11317628E+03</pdfrwt>
<totfact> 0.11967119E+03</totfact>
</mgrwt>
</event>
<event>
 4    1  0.4938540E-001  0.9552882E+02  0.7546771E-02  0.1289989E+00
          1   -1    0    0  501    0  0.00000000000E+00  0.00000000000E+00  0.59972462362E+02  0.59972462362E+02  0.00000000000E+00 0. -1.
         -1   -1    0    0    0  501 -0.00000000000E+00 -0.00000000000E+00 -0.29421090809E+03  0.29421090809E+03  0.00000000000E+00 0.  1.
         24    1    1    2    0    0  0.51155314966E+02 -0.64554661882E+01 -0.24016932802E+03  0.25847061993E+03  0.80419002446E+02 0.  1.
        -24    1    1    2    0    0 -0.51155314966E+02  0.64554661882E+01  0.59308822901E+01  0.95712750520E+02  0.80419002446E+02 0. -1.
<mgrwt>
<rscale>  0 0.95528819E+02</rscale>
<asrwt>0</asrwt>
<pdfrwt beam="1">  1        1 0.92265327E-02 0.95528819E+02</pdfrwt>
<pdfrwt beam="2">  1       -1 0.45263217E-01 0.95528819E+02</pdfrwt>
<totfact> 0.33262834E+03</totfact>
</mgrwt>
</event>
<event>
 4    1  0.4938540E-001  0.8336603E+02  0.7546771E-02  0.1319762E+00
          2   -1    0    0  501    0  0.00000000000E+00  0.00000000000E+00  0.81577992661E+03  0.81577992661E+03  0.00000000000E+00 0. -1.
         -2   -1    0    0    0  501 -0.00000000000E+00 -0.00000000000E+00 -0.54739122988E+02  0.54739122988E+02  0.00000000000E+00 0.  1.
         24    1    1    2    0    0 -0.17778913899E+02  0.12906913916E+02  0.78047748132E+03  0.78491718863E+03  0.80419002446E+02 0. -1.
        -24    1    1    2    0    0  0.17778913899E+02 -0.12906913916E+02 -0.19436677700E+02  0.85601860965E+02  0.80419002446E+02 0.  1.
<mgrwt>
<rscale>  0 0.83366025E+02</rscale>
<asrwt>0</asrwt>
<pdfrwt beam="1">  1        2 0.12550460E+00 0.83366025E+02</pdfrwt>
<pdfrwt beam="2">  1       -2 0.84214041E-02 0.83366025E+02</pdfrwt>
<totfact> 0.29120440E+03</totfact>
</mgrwt>
</event>
<event>
 4    1  0.4938540E-001  0.8687327E+02  0.7546771E-02  0.1310605E+00
         -2   -1    0    0    0  501 -0.00000000000E+00  0.00000000000E+00  0.34391163698E+02  0.34391163698E+02  0.00000000000E+00 0.  1.
          2   -1    0    0  501    0  0.00000000000E+00 -0.00000000000E+00 -0.46810138710E+03  0.46810138710E+03  0.00000000000E+00 0. -1.
         24    1    1    2    0    0  0.76400668511E+01  0.31959012333E+02 -0.39997249602E+03  0.40929813415E+03  0.80419002446E+02 0. -1.
        -24    1    1    2    0    0 -0.76400668511E+01 -0.31959012333E+02 -0.33737727377E+02  0.93194416645E+02  0.80419002446E+02 0.  1.
<mgrwt>
<rscale>  0 0.86873270E+02</rscale>
<asrwt>0</asrwt>
<pdfrwt beam="1">  1        2 0.72015594E-01 0.86873270E+02</pdfrwt>
<pdfrwt beam="2">  1       -2 0.52909486E-02 0.86873270E+02</pdfrwt>
<totfact> 0.11031808E+04</totfact>
</mgrwt>
</event>
<event>
 4    1  0.4938540E-001  0.1028572E+03  0.7546771E-02  0.1274400E+00
          4   -1    0    0  501    0  0.00000000000E+00  0.00000000000E+00  0.20425408753E+02  0.20425408753E+02  0.00000000000E+00 0. -1.
         -4   -1    0    0    0  501 -0.00000000000E+00 -0.00000000000E+00 -0.58482730997E+03  0.58482730997E+03  0.00000000000E+00 0.  1.
         24    1    1    2    0    0 -0.46997242771E+02  0.43630680287E+02 -0.38452840569E+03  0.39804734370E+03  0.80419002446E+02 0.  1.
        -24    1    1    2    0    0  0.46997242771E+02 -0.43630680287E+02 -0.17987349552E+03  0.20720537502E+03  0.80419002446E+02 0. -1.
<mgrwt>
<rscale>  0 0.10285716E+03</rscale>
<asrwt>0</asrwt>
<pdfrwt beam="1">  1        4 0.31423710E-02 0.10285717E+03</pdfrwt>
<pdfrwt beam="2">  1       -4 0.89973421E-01 0.10285717E+03</pdfrwt>
<totfact> 0.85281345E+02</totfact>
</mgrwt>
</event>
<event>
 4    1  0.4938540E-001  0.8140890E+02  0.7546771E-02  0.1325100E+00
          1   -1    0    0  501    0  0.00000000000E+00  0.00000000000E+00  0.19082550702E+03  0.19082550702E+03  0.00000000000E+00 0. -1.
         -1   -1    0    0    0  501 -0.00000000000E+00 -0.00000000000E+00 -0.39939925486E+02  0.39939925486E+02  0.00000000000E+00 0.  1.
         24    1    1    2    0    0 -0.34483056416E+01  0.12177795699E+02  0.11711486425E+03  0.14262992990E+03  0.80419002446E+02 0. -1.
        -24    1    1    2    0    0  0.34483056416E+01 -0.12177795699E+02  0.33770717283E+02  0.88135502609E+02  0.80419002446E+02 0.  0.
<mgrwt>
<rscale>  0 0.81408889E+02</rscale>
<asrwt>0</asrwt>
<pdfrwt beam="1">  1        1 0.29357770E-01 0.81408899E+02</pdfrwt>
<pdfrwt beam="2">  1       -1 0.61446040E-02 0.81408899E+02</pdfrwt>
<totfact> 0.17727080E+04</totfact>
</mgrwt>
</event>
<event>
 4    1  0.4938540E-001  0.9940830E+02  0.7546771E-02  0.1281545E+00
         -1   -1    0    0    0  501 -0.00000000000E+00  0.00000000000E+00  0.37032846462E+02  0.37032846462E+02  0.00000000000E+00 0.  1.
          1   -1    0    0  501    0  0.00000000000E+00 -0.00000000000E+00 -0.91164485759E+03  0.91164485759E+03  0.00000000000E+00 0. -1.
         24    1    1    2    0    0  0.56670478834E+02 -0.14256627724E+02 -0.38383537425E+02  0.10656128051E+03  0.80419002446E+02 0.  1.
        -24    1    1    2    0    0 -0.56670478834E+02  0.14256627724E+02 -0.83622847371E+03  0.84211642354E+03  0.80419002446E+02 0. -1.
<mgrwt>
<rscale>  0 0.99408302E+02</rscale>
<asrwt>0</asrwt>
<pdfrwt beam="1">  1        1 0.14025304E+00 0.99408302E+02</pdfrwt>
<pdfrwt beam="2">  1       -1 0.56973615E-02 0.99408302E+02</pdfrwt>
<totfact> 0.26387909E+03</totfact>
</mgrwt>
</event>
<event>
 4    1  0.4938540E-001  0.1035618E+03  0.7546771E-02  0.1272979E+00
          2   -1    0    0  501    0  0.00000000000E+00  0.00000000000E+00  0.28051588627E+04  0.28051588627E+04  0.00000000000E+00 0. -1.
         -2   -1    0    0    0  501 -0.00000000000E+00 -0.00000000000E+00 -0.43367010856E+01  0.43367010856E+01  0.00000000000E+00 0.  1.
         24    1    1    2    0    0  0.22258855530E+02 -0.61338132634E+02  0.18837320717E+04  0.18865766767E+04  0.80419002446E+02 0. -1.
        -24    1    1    2    0    0 -0.22258855530E+02  0.61338132634E+02  0.91709008987E+03  0.92291888704E+03  0.80419002446E+02 0.  1.
<mgrwt>
<rscale>  0 0.10356176E+03</rscale>
<asrwt>0</asrwt>
<pdfrwt beam="1">  1        2 0.43156145E+00 0.10356176E+03</pdfrwt>
<pdfrwt beam="2">  1       -2 0.66718702E-03 0.10356176E+03</pdfrwt>
<totfact> 0.10246958E+04</totfact>
</mgrwt>
</event>
<event>
 4    1  0.4938540E-001  0.8113371E+02  0.7546771E-02  0.1325865E+00
          2   -1    0    0  501    0  0.00000000000E+00  0.00000000000E+00  0.42515394540E+03  0.42515394540E+03  0.00000000000E+00 0. -1.
         -2   -1    0    0    0  501 -0.00000000000E+00 -0.00000000000E+00 -0.26251991400E+02  0.26251991400E+02  0.00000000000E+00 0.  1.
         24    1    1    2    0    0  0.89886986340E+01  0.58878237041E+01  0.34400916066E+03  0.35344728284E+03  0.80419002446E+02 0.  0.
        -24    1    1    2    0    0 -0.89886986340E+01 -0.58878237041E+01  0.54892793335E+02  0.97958653960E+02  0.80419002446E+02 0.  1.
<mgrwt>
<rscale>  0 0.81133711E+02</rscale>
<asrwt>0</asrwt>
<pdfrwt beam="1">  1        2 0.65408294E-01 0.81133711E+02</pdfrwt>
<pdfrwt beam="2">  1       -2 0.40387682E-02 0.81133711E+02</pdfrwt>
<totfact> 0.18088281E+04</totfact>
</mgrwt>
</event>
<event>
 4    1  0.4938540E-001  0.8372285E+02  0.7546771E-02  0.1318807E+00
         -2   -1    0    0    0  501 -0.00000000000E+00  0.00000000000E+00  0.20926982532E+02  0.20926982532E+02  0.00000000000E+00 0.  1.
          2   -1    0    0  501    0  0.00000000000E+00 -0.00000000000E+00 -0.45833573224E+03  0.45833573224E+03  0.00000000000E+00 0. -1.
         24    1    1    2    0    0  0.10902971002E+02  0.20577299071E+02 -0.34303620100E+03  0.35310529755E+03  0.80419002446E+02 0. -1.
        -24    1    1    2    0    0 -0.10902971002E+02 -0.20577299071E+02 -0.94372548710E+02  0.12615741721E+03  0.80419002446E+02 0.  1.
<mgrwt>
<rscale>  0 0.83722852E+02</rscale>
<asrwt>0</asrwt>
<pdfrwt beam="1">  1        2 0.70513189E-01 0.83722852E+02</pdfrwt>
<pdfrwt beam="2">  1       -2 0.32195358E-02 0.83722852E+02</pdfrwt>
<totfact> 0.23336108E+04</totfact>
</mgrwt>
</event>
<event>
 4    1  0.4938540E-001  0.8314047E+02  0.7546771E-02  0.1320368E+00
          4   -1    0    0  501    0  0.00000000000E+00  0.00000000000E+00  0.61085573389E+02  0.61085573389E+02  0.00000000000E+00 0. -1.
         -4   -1    0    0    0  501 -0.00000000000E+00 -0.00000000000E+00 -0.14787511787E+03  0.14787511787E+03  0.00000000000E+00 0.  1.
         24    1    1    2    0    0 -0.10327260780E+02 -0.18397532090E+02  0.72293175448E+01  0.83454181973E+02  0.80419002446E+02 0. -1.
        -24    1    1    2    0    0  0.10327260780E+02  0.18397532090E+02 -0.94018862024E+02  0.12550650929E+03  0.80419002446E+02 0.  1.
<mgrwt>
<rscale>  0 0.83140468E+02</rscale>
<asrwt>0</asrwt>
<pdfrwt beam="1">  1        4 0.93977806E-02 0.83140468E+02</pdfrwt>
<pdfrwt beam="2">  1       -4 0.22750018E-01 0.83140468E+02</pdfrwt>
<totfact> 0.21813732E+03</totfact>
</mgrwt>
</event>
<event>
 4    1  0.4938540E-001  0.1045410E+03  0.7546771E-02  0.1271027E+00
          1   -1    0    0  501    0  0.00000000000E+00  0.00000000000E+00  0.43708090006E+02  0.43708090006E+02  0.00000000000E+00 0. -1.
         -1   -1    0    0    0  501 -0.00000000000E+00 -0.00000000000E+00 -0.25316338537E+03  0.25316338537E+03  0.00000000000E+00 0.  1.
         24    1    1    2    0    0 -0.32024240113E+02  0.58617878775E+02 -0.12121180759E+03  0.16006600488E+03  0.80419002446E+02 0.  1.
        -24    1    1    2    0    0  0.32024240113E+02 -0.58617878775E+02 -0.88243487779E+02  0.13680547049E+03  0.80419002446E+02 0. -1.
<mgrwt>
<rscale>  0 0.10454101E+03</rscale>
<asrwt>0</asrwt>
<pdfrwt beam="1">  1        1 0.67243214E-02 0.10454101E+03</pdfrwt>
<pdfrwt beam="2">  1       -1 0.38948214E-01 0.10454101E+03</pdfrwt>
<totfact> 0.66368003E+03</totfact>
</mgrwt>
</event>
<event>
 4    1  0.4938540E-001  0.1608878E+03  0.7546771E-02  0.1187698E+00
          2   -1    0    0  501    0  0.00000000000E+00  0.00000000000E+00  0.33281897172E+03  0.33281897172E+03  0.00000000000E+00 0. -1.
         -2   -1    0    0    0  501 -0.00000000000E+00 -0.00000000000E+00 -0.16149895696E+03  0.16149895696E+03  0.00000000000E+00 0.  1.
         24    1    1    2    0    0  0.70106305433E+01  0.13917078996E+03  0.26361793038E+03  0.30883537182E+03  0.80419002446E+02 0. -1.
        -24    1    1    2    0    0 -0.70106305433E+01 -0.13917078996E+03 -0.92297915616E+02  0.18548255686E+03  0.80419002446E+02 0.  1.
<mgrwt>
<rscale>  0 0.16088777E+03</rscale>
<asrwt>0</asrwt>
<pdfrwt beam="1">  1        2 0.51202919E-01 0.16088777E+03</pdfrwt>
<pdfrwt beam="2">  1       -2 0.24845993E-01 0.16088777E+03</pdfrwt>
<totfact> 0.13880286E+03</totfact>
</mgrwt>
</event>
<event>
 4    1  0.4938540E-001  0.8619311E+02  0.7546771E-02  0.1312342E+00
         -2   -1    0    0    0  501 -0.00000000000E+00  0.00000000000E+00  0.25755043461E+02  0.25755043461E+02  0.00000000000E+00 0.  1.
          2   -1    0    0  501    0  0.00000000000E+00 -0.00000000000E+00 -0.75461916050E+03  0.75461916050E+03  0.00000000000E+00 0. -1.
         24    1    1    2    0    0  0.45067649916E+01 -0.30687552205E+02 -0.67110605893E+03  0.67661850040E+03  0.80419002446E+02 0. -1.
        -24    1    1    2    0    0 -0.45067649916E+01  0.30687552205E+02 -0.57758058104E+02  0.10375570356E+03  0.80419002446E+02 0.  1.
<mgrwt>
<rscale>  0 0.86193113E+02</rscale>
<asrwt>0</asrwt>
<pdfrwt beam="1">  1        2 0.11609527E+00 0.86193113E+02</pdfrwt>
<pdfrwt beam="2">  1       -2 0.39623139E-02 0.86193113E+02</pdfrwt>
<totfact> 0.99015393E+03</totfact>
</mgrwt>
</event>
<event>
 4    1  0.4938540E-001  0.9969481E+02  0.7546771E-02  0.1280939E+00
         -2   -1    0    0    0  501 -0.00000000000E+00  0.00000000000E+00  0.18841146349E+02  0.18841146349E+02  0.00000000000E+00 0. -1.
          2   -1    0    0  501    0  0.00000000000E+00 -0.00000000000E+00 -0.52903293189E+03  0.52903293189E+03  0.00000000000E+00 0.  1.
         24    1    1    2    0    0 -0.25620039928E+02  0.53060789491E+02 -0.24043836417E+03  0.26028764232E+03  0.80419002446E+02 0.  0.
        -24    1    1    2    0    0  0.25620039928E+02 -0.53060789491E+02 -0.26975342138E+03  0.28758643592E+03  0.80419002446E+02 0.  1.
<mgrwt>
<rscale>  0 0.99694796E+02</rscale>
<asrwt>0</asrwt>
<pdfrwt beam="1">  1        2 0.81389690E-01 0.99694808E+02</pdfrwt>
<pdfrwt beam="2">  1       -2 0.28986376E-02 0.99694808E+02</pdfrwt>
<totfact> 0.23716349E+04</totfact>
</mgrwt>
</event>
<event>
 4    1  0.4938540E-001  0.8397318E+02  0.7546771E-02  0.1318140E+00
          1   -1    0    0  501    0  0.00000000000E+00  0.00000000000E+00  0.70465516757E+02  0.70465516757E+02  0.00000000000E+00 0. -1.
         -1   -1    0    0    0  501 -0.00000000000E+00 -0.00000000000E+00 -0.26327753202E+03  0.26327753202E+03  0.00000000000E+00 0.  1.
         24    1    1    2    0    0  0.20658260919E+02  0.12550510393E+02 -0.22779083962E+03  0.24277594943E+03  0.80419002446E+02 0.  1.
        -24    1    1    2    0    0 -0.20658260919E+02 -0.12550510393E+02  0.34978824354E+02  0.90967099343E+02  0.80419002446E+02 0. -1.
<mgrwt>
<rscale>  0 0.83973180E+02</rscale>
<asrwt>0</asrwt>
<pdfrwt beam="1">  1        1 0.10840849E-01 0.83973180E+02</pdfrwt>
<pdfrwt beam="2">  1       -1 0.40504235E-01 0.83973180E+02</pdfrwt>
<totfact> 0.32451733E+03</totfact>
</mgrwt>
</event>
<event>
 4    1  0.4938540E-001  0.1186065E+03  0.7546771E-02  0.1245414E+00
          1   -1    0    0  501    0  0.00000000000E+00  0.00000000000E+00  0.11963121586E+03  0.11963121586E+03  0.00000000000E+00 0. -1.
         -1   -1    0    0    0  501 -0.00000000000E+00 -0.00000000000E+00 -0.30032025704E+03  0.30032025704E+03  0.00000000000E+00 0.  1.
         24    1    1    2    0    0  0.77815427909E+02  0.39306965320E+02 -0.25413227927E+03  0.28044733848E+03  0.80419002446E+02 0.  1.
        -24    1    1    2    0    0 -0.77815427909E+02 -0.39306965320E+02  0.73443238089E+02  0.13950413441E+03  0.80419002446E+02 0. -1.
<mgrwt>
<rscale>  0 0.11860647E+03</rscale>
<asrwt>0</asrwt>
<pdfrwt beam="1">  1        1 0.18404802E-01 0.11860647E+03</pdfrwt>
<pdfrwt beam="2">  1       -1 0.46203117E-01 0.11860647E+03</pdfrwt>
<totfact> 0.13241078E+03</totfact>
</mgrwt>
</event>
<event>
 4    1  0.4938540E-001  0.8177438E+02  0.7546771E-02  0.1324090E+00
         -3   -1    0    0    0  501 -0.00000000000E+00  0.00000000000E+00  0.88508547261E+01  0.88508547261E+01  0.00000000000E+00 0.  1.
          3   -1    0    0  501    0  0.00000000000E+00 -0.00000000000E+00 -0.10471034129E+04  0.10471034129E+04  0.00000000000E+00 0. -1.
         24    1    1    2    0    0 -0.14316361722E+02  0.38568378959E+01 -0.24051583533E+03  0.25403723430E+03  0.80419002446E+02 0.  0.
        -24    1    1    2    0    0  0.14316361722E+02 -0.38568378959E+01 -0.79773672283E+03  0.80191703331E+03  0.80419002446E+02 0. -1.
<mgrwt>
<rscale>  0 0.81774381E+02</rscale>
<asrwt>0</asrwt>
<pdfrwt beam="1">  1        3 0.16109270E+00 0.81774381E+02</pdfrwt>
<pdfrwt beam="2">  1       -3 0.13616710E-02 0.81774381E+02</pdfrwt>
<totfact> 0.10420670E+03</totfact>
</mgrwt>
</event>
<event>
 4    1  0.4938540E-001  0.8619480E+02  0.7546771E-02  0.1312337E+00
          1   -1    0    0  501    0  0.00000000000E+00  0.00000000000E+00  0.44313787170E+02  0.44313787170E+02  0.00000000000E+00 0. -1.
         -1   -1    0    0    0  501 -0.00000000000E+00 -0.00000000000E+00 -0.24843336373E+03  0.24843336373E+03  0.00000000000E+00 0.  1.
         24    1    1    2    0    0  0.28044245511E+02  0.13260784701E+02 -0.18552359822E+03  0.20456918040E+03  0.80419002446E+02 0.  1.
        -24    1    1    2    0    0 -0.28044245511E+02 -0.13260784701E+02 -0.18595978338E+02  0.88177970502E+02  0.80419002446E+02 0. -1.
<mgrwt>
<rscale>  0 0.86194803E+02</rscale>
<asrwt>0</asrwt>
<pdfrwt beam="1">  1        1 0.68175058E-02 0.86194803E+02</pdfrwt>
<pdfrwt beam="2">  1       -1 0.38220517E-01 0.86194803E+02</pdfrwt>
<totfact> 0.66213079E+03</totfact>
</mgrwt>
</event>
<event>
 4    1  0.4938540E-001  0.8759982E+02  0.7546771E-02  0.1308770E+00
          1   -1    0    0  501    0  0.00000000000E+00  0.00000000000E+00  0.63140527849E+03  0.63140527849E+03  0.00000000000E+00 0. -1.
         -1   -1    0    0    0  501 -0.00000000000E+00 -0.00000000000E+00 -0.15569007202E+02  0.15569007202E+02  0.00000000000E+00 0.  1.
         24    1    1    2    0    0 -0.18997526292E+02 -0.29079325012E+02  0.15640171581E+03  0.17926300737E+03  0.80419002446E+02 0.  1.
        -24    1    1    2    0    0  0.18997526292E+02  0.29079325012E+02  0.45943455548E+03  0.46771127832E+03  0.80419002446E+02 0. -1.
<mgrwt>
<rscale>  0 0.87599824E+02</rscale>
<asrwt>0</asrwt>
<pdfrwt beam="1">  1        1 0.97139254E-01 0.87599824E+02</pdfrwt>
<pdfrwt beam="2">  1       -1 0.23952324E-02 0.87599824E+02</pdfrwt>
<totfact> 0.15722467E+04</totfact>
</mgrwt>
</event>
<event>
 4    1  0.4938540E-001  0.8240649E+02  0.7546771E-02  0.1322358E+00
          2   -1    0    0  501    0  0.00000000000E+00  0.00000000000E+00  0.27319753461E+03  0.27319753461E+03  0.00000000000E+00 0. -1.
         -2   -1    0    0    0  501 -0.00000000000E+00 -0.00000000000E+00 -0.62384031067E+02  0.62384031067E+02  0.00000000000E+00 0.  1.
         24    1    1    2    0    0 -0.17942003248E+02 -0.13029144464E+01  0.23554482673E+03  0.24954397292E+03  0.80419002446E+02 0. -1.
        -24    1    1    2    0    0  0.17942003248E+02  0.13029144464E+01 -0.24731323188E+02  0.86037592758E+02  0.80419002446E+02 0.  1.
<mgrwt>
<rscale>  0 0.82406487E+02</rscale>
<asrwt>0</asrwt>
<pdfrwt beam="1">  1        2 0.42030389E-01 0.82406487E+02</pdfrwt>
<pdfrwt beam="2">  1       -2 0.95975434E-02 0.82406487E+02</pdfrwt>
<totfact> 0.78362715E+03</totfact>
</mgrwt>
</event>
<event>
 4    1  0.4938540E-001  0.9337074E+02  0.7546771E-02  0.1294888E+00
          2   -1    0    0  501    0  0.00000000000E+00  0.00000000000E+00  0.49105334983E+04  0.49105334983E+04  0.00000000000E+00 0. -1.
         -2   -1    0    0    0  501 -0.00000000000E+00 -0.00000000000E+00 -0.51247010293E+01  0.51247010293E+01  0.00000000000E+00 0.  1.
         24    1    1    2    0    0 -0.36408486504E+02  0.30418765607E+02  0.44396930102E+04  0.44406747370E+04  0.80419002446E+02 0. -1.
        -24    1    1    2    0    0  0.36408486504E+02 -0.30418765607E+02  0.46571578706E+03  0.47498346230E+03  0.80419002446E+02 0.  1.
<mgrwt>
<rscale>  0 0.93370740E+02</rscale>
<asrwt>0</asrwt>
<pdfrwt beam="1">  1        2 0.75546293E+00 0.93370740E+02</pdfrwt>
<pdfrwt beam="2">  1       -2 0.78841947E-03 0.93370740E+02</pdfrwt>
<totfact> 0.21892230E+02</totfact>
</mgrwt>
</event>
<event>
 4    1  0.4938540E-001  0.8424599E+02  0.7546771E-02  0.1317416E+00
          1   -1    0    0  501    0  0.00000000000E+00  0.00000000000E+00  0.36221574618E+03  0.36221574618E+03  0.00000000000E+00 0. -1.
         -1   -1    0    0    0  501 -0.00000000000E+00 -0.00000000000E+00 -0.20882945574E+02  0.20882945574E+02  0.00000000000E+00 0.  1.
         24    1    1    2    0    0  0.40549263088E+01  0.24773553091E+02  0.12308461977E+03  0.14915498966E+03  0.80419002446E+02 0.  1.
        -24    1    1    2    0    0 -0.40549263088E+01 -0.24773553091E+02  0.21824818083E+03  0.23394370210E+03  0.80419002446E+02 0. -1.
<mgrwt>
<rscale>  0 0.84245993E+02</rscale>
<asrwt>0</asrwt>
<pdfrwt beam="1">  1        1 0.55725495E-01 0.84245993E+02</pdfrwt>
<pdfrwt beam="2">  1       -1 0.32127611E-02 0.84245993E+02</pdfrwt>
<totfact> 0.20908511E+04</totfact>
</mgrwt>
</event>
<event>
 4    1  0.4938540E-001  0.8550309E+02  0.7546771E-02  0.1314122E+00
         -2   -1    0    0    0  501 -0.00000000000E+00  0.00000000000E+00  0.25850176175E+02  0.25850176175E+02  0.00000000000E+00 0.  1.
          2   -1    0    0  501    0  0.00000000000E+00 -0.00000000000E+00 -0.28336040435E+03  0.28336040435E+03  0.00000000000E+00 0. -1.
         24    1    1    2    0    0 -0.27573614159E+02  0.91245991037E+01 -0.13554739536E+03  0.16026189456E+03  0.80419002446E+02 0.  0.
        -24    1    1    2    0    0  0.27573614159E+02 -0.91245991037E+01 -0.12196283282E+03  0.14894868596E+03  0.80419002446E+02 0. -1.
<mgrwt>
<rscale>  0 0.85503090E+02</rscale>
<asrwt>0</asrwt>
<pdfrwt beam="1">  1        2 0.43593908E-01 0.85503090E+02</pdfrwt>
<pdfrwt beam="2">  1       -2 0.39769502E-02 0.85503090E+02</pdfrwt>
<totfact> 0.28433017E+04</totfact>
</mgrwt>
</event>
<event>
 4    1  0.4938540E-001  0.8402104E+02  0.7546771E-02  0.1318013E+00
          4   -1    0    0  501    0  0.00000000000E+00  0.00000000000E+00  0.49545456996E+02  0.49545456996E+02  0.00000000000E+00 0. -1.
         -4   -1    0    0    0  501 -0.00000000000E+00 -0.00000000000E+00 -0.15016941264E+03  0.15016941264E+03  0.00000000000E+00 0.  1.
         24    1    1    2    0    0  0.15053109850E+02 -0.19123878063E+02 -0.27724575448E+02  0.88477041465E+02  0.80419002446E+02 0.  1.
        -24    1    1    2    0    0 -0.15053109850E+02  0.19123878063E+02 -0.72899380192E+02  0.11123782817E+03  0.80419002446E+02 0.  0.
<mgrwt>
<rscale>  0 0.84021038E+02</rscale>
<asrwt>0</asrwt>
<pdfrwt beam="1">  1        4 0.76223781E-02 0.84021038E+02</pdfrwt>
<pdfrwt beam="2">  1       -4 0.23102986E-01 0.84021038E+02</pdfrwt>
<totfact> 0.30030634E+03</totfact>
</mgrwt>
</event>
<event>
 4    1  0.4938540E-001  0.8141656E+02  0.7546771E-02  0.1325079E+00
          2   -1    0    0  501    0  0.00000000000E+00  0.00000000000E+00  0.36765466400E+02  0.36765466400E+02  0.00000000000E+00 0. -1.
         -2   -1    0    0    0  501 -0.00000000000E+00 -0.00000000000E+00 -0.27113188029E+03  0.27113188029E+03  0.00000000000E+00 0.  1.
         24    1    1    2    0    0 -0.12566391403E+02 -0.18776109295E+01 -0.28075537516E+02  0.86121375842E+02  0.80419002446E+02 0.  0.
        -24    1    1    2    0    0  0.12566391403E+02  0.18776109295E+01 -0.20629087637E+03  0.22177597084E+03  0.80419002446E+02 0.  0.
<mgrwt>
<rscale>  0 0.81416556E+02</rscale>
<asrwt>0</asrwt>
<pdfrwt beam="1">  1        2 0.56562256E-02 0.81416556E+02</pdfrwt>
<pdfrwt beam="2">  1       -2 0.41712597E-01 0.81416556E+02</pdfrwt>
<totfact> 0.66068680E+03</totfact>
</mgrwt>
</event>
<event>
 4    1  0.4938540E-001  0.1314162E+03  0.7546771E-02  0.1225369E+00
         -2   -1    0    0    0  501 -0.00000000000E+00  0.00000000000E+00  0.12878900662E+02  0.12878900662E+02  0.00000000000E+00 0.  1.
          2   -1    0    0  501    0  0.00000000000E+00 -0.00000000000E+00 -0.14589812501E+04  0.14589812501E+04  0.00000000000E+00 0. -1.
         24    1    1    2    0    0  0.10389207546E+03  0.30708081378E+01 -0.93235389251E+03  0.94156996025E+03  0.80419002446E+02 0. -1.
        -24    1    1    2    0    0 -0.10389207546E+03 -0.30708081378E+01 -0.51374845692E+03  0.53029019051E+03  0.80419002446E+02 0.  1.
<mgrwt>
<rscale>  0 0.13141617E+03</rscale>
<asrwt>0</asrwt>
<pdfrwt beam="1">  1        2 0.22445850E+00 0.13141617E+03</pdfrwt>
<pdfrwt beam="2">  1       -2 0.19813707E-02 0.13141617E+03</pdfrwt>
<totfact> 0.10931222E+04</totfact>
</mgrwt>
</event>
<event>
 4    1  0.4938540E-001  0.8129032E+02  0.7546771E-02  0.1325429E+00
          1   -1    0    0  501    0  0.00000000000E+00  0.00000000000E+00  0.15824752048E+02  0.15824752048E+02  0.00000000000E+00 0. -1.
         -1   -1    0    0    0  501 -0.00000000000E+00 -0.00000000000E+00 -0.42002512637E+03  0.42002512637E+03  0.00000000000E+00 0.  1.
         24    1    1    2    0    0 -0.57051014990E+00 -0.11856436380E+02 -0.21872386063E+03  0.23334147451E+03  0.80419002446E+02 0.  1.
        -24    1    1    2    0    0  0.57051014990E+00  0.11856436380E+02 -0.18547651370E+03  0.20250840391E+03  0.80419002446E+02 0. -1.
<mgrwt>
<rscale>  0 0.81290322E+02</rscale>
<asrwt>0</asrwt>
<pdfrwt beam="1">  1        1 0.24345769E-02 0.81290322E+02</pdfrwt>
<pdfrwt beam="2">  1       -1 0.64619258E-01 0.81290322E+02</pdfrwt>
<totfact> 0.10289000E+04</totfact>
</mgrwt>
</event>
<event>
 4    1  0.4938540E-001  0.9072429E+02  0.7546771E-02  0.1301107E+00
          2   -1    0    0  501    0  0.00000000000E+00  0.00000000000E+00  0.45929766267E+03  0.45929766267E+03  0.00000000000E+00 0. -1.
         -2   -1    0    0    0  501 -0.00000000000E+00 -0.00000000000E+00 -0.41132200289E+02  0.41132200289E+02  0.00000000000E+00 0.  1.
         24    1    1    2    0    0 -0.41921905499E+02  0.24968242938E+01  0.39704672305E+03  0.40727999770E+03  0.80419002446E+02 0. -1.
        -24    1    1    2    0    0  0.41921905499E+02 -0.24968242938E+01  0.21118739337E+02  0.93149865259E+02  0.80419002446E+02 0.  1.
<mgrwt>
<rscale>  0 0.90724287E+02</rscale>
<asrwt>0</asrwt>
<pdfrwt beam="1">  1        2 0.70661175E-01 0.90724287E+02</pdfrwt>
<pdfrwt beam="2">  1       -2 0.63280311E-02 0.90724287E+02</pdfrwt>
<totfact> 0.86436094E+03</totfact>
</mgrwt>
</event>
<event>
 4    1  0.4938540E-001  0.8343747E+02  0.7546771E-02  0.1319570E+00
          1   -1    0    0  501    0  0.00000000000E+00  0.00000000000E+00  0.75082467138E+03  0.75082467138E+03  0.00000000000E+00 0. -1.
         -1   -1    0    0    0  501 -0.00000000000E+00 -0.00000000000E+00 -0.10727875734E+02  0.10727875734E+02  0.00000000000E+00 0.  1.
         24    1    1    2    0    0 -0.20758972682E+02  0.79785625848E+01  0.51031135156E+03  0.51708750120E+03  0.80419002446E+02 0. -1.
        -24    1    1    2    0    0  0.20758972682E+02 -0.79785625848E+01  0.22978544408E+03  0.24446504591E+03  0.80419002446E+02 0.  1.
<mgrwt>
<rscale>  0 0.83437462E+02</rscale>
<asrwt>0</asrwt>
<pdfrwt beam="1">  1        1 0.11551145E+00 0.83437473E+02</pdfrwt>
<pdfrwt beam="2">  1       -1 0.16504430E-02 0.83437473E+02</pdfrwt>
<totfact> 0.20886145E+04</totfact>
</mgrwt>
</event>
<event>
 4    1  0.4938540E-001  0.1302931E+03  0.7546771E-02  0.1227022E+00
         -2   -1    0    0    0  501 -0.00000000000E+00  0.00000000000E+00  0.10618940365E+04  0.10618940365E+04  0.00000000000E+00 0.  1.
          2   -1    0    0  501    0  0.00000000000E+00 -0.00000000000E+00 -0.20012013966E+02  0.20012013966E+02  0.00000000000E+00 0. -1.
         24    1    1    2    0    0  0.45730035636E+02 -0.91748752076E+02  0.27833098754E+03  0.30731811571E+03  0.80419002446E+02 0.  0.
        -24    1    1    2    0    0 -0.45730035636E+02  0.91748752076E+02  0.76355103499E+03  0.77458793475E+03  0.80419002446E+02 0. -1.
<mgrwt>
<rscale>  0 0.13029308E+03</rscale>
<asrwt>0</asrwt>
<pdfrwt beam="1">  1        2 0.30787722E-02 0.13029308E+03</pdfrwt>
<pdfrwt beam="2">  1       -2 0.16336827E+00 0.13029308E+03</pdfrwt>
<totfact> 0.74338573E+02</totfact>
</mgrwt>
</event>
<event>
 4    1  0.4938540E-001  0.8486396E+02  0.7546771E-02  0.1315789E+00
         -1   -1    0    0    0  501 -0.00000000000E+00  0.00000000000E+00  0.38266332727E+03  0.38266332727E+03  0.00000000000E+00 0.  1.
          1   -1    0    0  501    0  0.00000000000E+00 -0.00000000000E+00 -0.20187792826E+02  0.20187792826E+02  0.00000000000E+00 0. -1.
         24    1    1    2    0    0  0.27102210486E+02  0.38285249095E+00  0.23365938182E+03  0.24859324016E+03  0.80419002446E+02 0.  1.
        -24    1    1    2    0    0 -0.27102210486E+02 -0.38285249095E+00  0.12881615262E+03  0.15425787993E+03  0.80419002446E+02 0. -1.
<mgrwt>
<rscale>  0 0.84863964E+02</rscale>
<asrwt>0</asrwt>
<pdfrwt beam="1">  1        1 0.31058146E-02 0.84863964E+02</pdfrwt>
<pdfrwt beam="2">  1       -1 0.58871276E-01 0.84863964E+02</pdfrwt>
<totfact> 0.88327052E+03</totfact>
</mgrwt>
</event>
<event>
 4    1  0.4938540E-001  0.8623073E+02  0.7546771E-02  0.1312245E+00
         -1   -1    0    0    0  501 -0.00000000000E+00  0.00000000000E+00  0.13166484567E+04  0.13166484567E+04  0.00000000000E+00 0.  1.
          1   -1    0    0  501    0  0.00000000000E+00 -0.00000000000E+00 -0.27066043631E+02  0.27066043631E+02  0.00000000000E+00 0. -1.
         24    1    1    2    0    0  0.30821605693E+02 -0.43070460908E+01  0.12424589966E+04  0.12454477493E+04  0.80419002446E+02 0.  1.
        -24    1    1    2    0    0 -0.30821605693E+02  0.43070460908E+01  0.47123416444E+02  0.98266751016E+02  0.80419002446E+02 0. -1.
<mgrwt>
<rscale>  0 0.86230725E+02</rscale>
<asrwt>0</asrwt>
<pdfrwt beam="1">  1        1 0.41640077E-02 0.86230725E+02</pdfrwt>
<pdfrwt beam="2">  1       -1 0.20256125E+00 0.86230725E+02</pdfrwt>
<totfact> 0.34372694E+02</totfact>
</mgrwt>
</event>
<event>
 4    1  0.4938540E-001  0.8348626E+02  0.7546771E-02  0.1319439E+00
          2   -1    0    0  501    0  0.00000000000E+00  0.00000000000E+00  0.27469862351E+03  0.27469862351E+03  0.00000000000E+00 0. -1.
         -2   -1    0    0    0  501 -0.00000000000E+00 -0.00000000000E+00 -0.30945608348E+02  0.30945608348E+02  0.00000000000E+00 0.  1.
         24    1    1    2    0    0 -0.21090256364E+02  0.76118436249E+01  0.18672683109E+03  0.20454061817E+03  0.80419002446E+02 0. -1.
        -24    1    1    2    0    0  0.21090256364E+02 -0.76118436249E+01  0.57026184066E+02  0.10110361369E+03  0.80419002446E+02 0.  1.
<mgrwt>
<rscale>  0 0.83486257E+02</rscale>
<asrwt>0</asrwt>
<pdfrwt beam="1">  1        2 0.42261325E-01 0.83486257E+02</pdfrwt>
<pdfrwt beam="2">  1       -2 0.47608630E-02 0.83486257E+02</pdfrwt>
<totfact> 0.22470238E+04</totfact>
</mgrwt>
</event>
<event>
 4    1  0.4938540E-001  0.8427601E+02  0.7546771E-02  0.1317337E+00
         -2   -1    0    0    0  501 -0.00000000000E+00  0.00000000000E+00  0.21316838902E+02  0.21316838902E+02  0.00000000000E+00 0.  1.
          2   -1    0    0  501    0  0.00000000000E+00 -0.00000000000E+00 -0.67020610114E+03  0.67020610114E+03  0.00000000000E+00 0. -1.
         24    1    1    2    0    0  0.10501090361E+02  0.22911938454E+02 -0.56963370373E+03  0.57583417943E+03  0.80419002446E+02 0. -1.
        -24    1    1    2    0    0 -0.10501090361E+02 -0.22911938454E+02 -0.79255558506E+02  0.11568876061E+03  0.80419002446E+02 0.  0.
<mgrwt>
<rscale>  0 0.84276009E+02</rscale>
<asrwt>0</asrwt>
<pdfrwt beam="1">  1        2 0.10310862E+00 0.84276009E+02</pdfrwt>
<pdfrwt beam="2">  1       -2 0.32795141E-02 0.84276009E+02</pdfrwt>
<totfact> 0.14968897E+04</totfact>
</mgrwt>
</event>
<event>
 4    1  0.4938540E-001  0.1217490E+03  0.7546771E-02  0.1240239E+00
         -2   -1    0    0    0  501 -0.00000000000E+00  0.00000000000E+00  0.16933328056E+03  0.16933328056E+03  0.00000000000E+00 0.  1.
          2   -1    0    0  501    0  0.00000000000E+00 -0.00000000000E+00 -0.13818957631E+03  0.13818957631E+03  0.00000000000E+00 0. -1.
         24    1    1    2    0    0 -0.63188471461E+02  0.66051664527E+02 -0.77520331707E+02  0.14433372127E+03  0.80419002446E+02 0. -1.
        -24    1    1    2    0    0  0.63188471461E+02 -0.66051664527E+02  0.10866403596E+03  0.16318913560E+03  0.80419002446E+02 0.  1.
<mgrwt>
<rscale>  0 0.12174901E+03</rscale>
<asrwt>0</asrwt>
<pdfrwt beam="1">  1        2 0.21259935E-01 0.12174901E+03</pdfrwt>
<pdfrwt beam="2">  1       -2 0.26051274E-01 0.12174901E+03</pdfrwt>
<totfact> 0.32684931E+03</totfact>
</mgrwt>
</event>
<event>
 4    1  0.4938540E-001  0.8145522E+02  0.7546771E-02  0.1324972E+00
         -1   -1    0    0    0  501 -0.00000000000E+00  0.00000000000E+00  0.52258167460E+02  0.52258167460E+02  0.00000000000E+00 0.  1.
          1   -1    0    0  501    0  0.00000000000E+00 -0.00000000000E+00 -0.13602253996E+03  0.13602253996E+03  0.00000000000E+00 0. -1.
         24    1    1    2    0    0  0.55302380128E+01  0.11711235298E+02 -0.17589354867E+02  0.83332694206E+02  0.80419002446E+02 0.  0.
        -24    1    1    2    0    0 -0.55302380128E+01 -0.11711235298E+02 -0.66175017635E+02  0.10494801322E+03  0.80419002446E+02 0.  1.
<mgrwt>
<rscale>  0 0.81455218E+02</rscale>
<asrwt>0</asrwt>
<pdfrwt beam="1">  1        1 0.20926544E-01 0.81455218E+02</pdfrwt>
<pdfrwt beam="2">  1       -1 0.80397182E-02 0.81455218E+02</pdfrwt>
<totfact> 0.18100147E+04</totfact>
</mgrwt>
</event>
<event>
 4    1  0.4938540E-001  0.9771488E+02  0.7546771E-02  0.1285176E+00
          1   -1    0    0  501    0  0.00000000000E+00  0.00000000000E+00  0.24319309895E+03  0.24319309895E+03  0.00000000000E+00 0. -1.
         -1   -1    0    0    0  501 -0.00000000000E+00 -0.00000000000E+00 -0.70357500648E+02  0.70357500648E+02  0.00000000000E+00 0.  1.
         24    1    1    2    0    0 -0.14437513945E+02  0.53596073540E+02 -0.17807384163E+02  0.99324215542E+02  0.80419002446E+02 0.  1.
        -24    1    1    2    0    0  0.14437513945E+02 -0.53596073540E+02  0.19064298246E+03  0.21422638405E+03  0.80419002446E+02 0. -1.
<mgrwt>
<rscale>  0 0.97714875E+02</rscale>
<asrwt>0</asrwt>
<pdfrwt beam="1">  1        1 0.37414323E-01 0.97714875E+02</pdfrwt>
<pdfrwt beam="2">  1       -1 0.10824231E-01 0.97714875E+02</pdfrwt>
<totfact> 0.57501556E+03</totfact>
</mgrwt>
</event>
<event>
 4    1  0.4938540E-001  0.9150496E+02  0.7546771E-02  0.1299248E+00
          4   -1    0    0  501    0  0.00000000000E+00  0.00000000000E+00  0.33694242026E+02  0.33694242026E+02  0.00000000000E+00 0. -1.
         -4   -1    0    0    0  501 -0.00000000000E+00 -0.00000000000E+00 -0.26592527315E+03  0.26592527315E+03  0.00000000000E+00 0.  1.
         24    1    1    2    0    0 -0.20732638796E+02  0.38420029424E+02 -0.77771364477E+02  0.12008972504E+03  0.80419002446E+02 0.  0.
        -24    1    1    2    0    0  0.20732638796E+02 -0.38420029424E+02 -0.15445966664E+03  0.17952979014E+03  0.80419002446E+02 0. -1.
<mgrwt>
<rscale>  0 0.91504956E+02</rscale>
<asrwt>0</asrwt>
<pdfrwt beam="1">  1        4 0.51837296E-02 0.91504956E+02</pdfrwt>
<pdfrwt beam="2">  1       -4 0.40911580E-01 0.91504956E+02</pdfrwt>
<totfact> 0.19571229E+03</totfact>
</mgrwt>
</event>
<event>
 4    1  0.4938540E-001  0.9042786E+02  0.7546771E-02  0.1301819E+00
          1   -1    0    0  501    0  0.00000000000E+00  0.00000000000E+00  0.21588679128E+04  0.21588679128E+04  0.00000000000E+00 0. -1.
         -1   -1    0    0    0  501 -0.00000000000E+00 -0.00000000000E+00 -0.81028538296E+01  0.81028538296E+01  0.00000000000E+00 0.  1.
         24    1    1    2    0    0 -0.20678388110E+02  0.35810425931E+02  0.28470220826E+03  0.29871817100E+03  0.80419002446E+02 0.  1.
        -24    1    1    2    0    0  0.20678388110E+02 -0.35810425931E+02  0.18660628507E+04  0.18682525956E+04  0.80419002446E+02 0. -1.
<mgrwt>
<rscale>  0 0.90427862E+02</rscale>
<asrwt>0</asrwt>
<pdfrwt beam="1">  1        1 0.33213307E+00 0.90427862E+02</pdfrwt>
<pdfrwt beam="2">  1       -1 0.12465946E-02 0.90427862E+02</pdfrwt>
<totfact> 0.35910980E+03</totfact>
</mgrwt>
</event>
<event>
 4    1  0.4938540E-001  0.9790600E+02  0.7546771E-02  0.1284762E+00
         -1   -1    0    0    0  501 -0.00000000000E+00  0.00000000000E+00  0.71192250110E+02  0.71192250110E+02  0.00000000000E+00 0.  1.
          1   -1    0    0  501    0  0.00000000000E+00 -0.00000000000E+00 -0.17094803041E+03  0.17094803041E+03  0.00000000000E+00 0. -1.
         24    1    1    2    0    0  0.55756760876E+02  0.30908649167E+01  0.59157110348E+01  0.98084562602E+02  0.80419002446E+02 0.  1.
        -24    1    1    2    0    0 -0.55756760876E+02 -0.30908649167E+01 -0.10567149133E+03  0.14405571791E+03  0.80419002446E+02 0. -1.
<mgrwt>
<rscale>  0 0.97906005E+02</rscale>
<asrwt>0</asrwt>
<pdfrwt beam="1">  1        1 0.26299697E-01 0.97906005E+02</pdfrwt>
<pdfrwt beam="2">  1       -1 0.10952654E-01 0.97906005E+02</pdfrwt>
<totfact> 0.87142629E+03</totfact>
</mgrwt>
</event>
<event>
 4    1  0.4938540E-001  0.1197511E+03  0.7546771E-02  0.1243508E+00
          2   -1    0    0  501    0  0.00000000000E+00  0.00000000000E+00  0.60575493877E+03  0.60575493877E+03  0.00000000000E+00 0. -1.
         -2   -1    0    0    0  501 -0.00000000000E+00 -0.00000000000E+00 -0.38811794838E+02  0.38811794838E+02  0.00000000000E+00 0.  1.
         24    1    1    2    0    0 -0.34821602366E+01 -0.88662233320E+02  0.48474880930E+03  0.49932128047E+03  0.80419002446E+02 0.  0.
        -24    1    1    2    0    0  0.34821602366E+01  0.88662233320E+02  0.82194334628E+02  0.14524545314E+03  0.80419002446E+02 0. -1.
<mgrwt>
<rscale>  0 0.11975113E+03</rscale>
<asrwt>0</asrwt>
<pdfrwt beam="1">  1        2 0.93193061E-01 0.11975113E+03</pdfrwt>
<pdfrwt beam="2">  1       -2 0.59710458E-02 0.11975113E+03</pdfrwt>
<totfact> 0.70957503E+03</totfact>
</mgrwt>
</event>
<event>
 4    1  0.4938540E-001  0.8924605E+02  0.7546771E-02  0.1304688E+00
          2   -1    0    0  501    0  0.00000000000E+00  0.00000000000E+00  0.25119146369E+03  0.25119146369E+03  0.00000000000E+00 0. -1.
         -2   -1    0    0    0  501 -0.00000000000E+00 -0.00000000000E+00 -0.36858874008E+02  0.36858874008E+02  0.00000000000E+00 0.  1.
         24    1    1    2    0    0 -0.37129761235E+02  0.10909720260E+02  0.16100501182E+03  0.18408549903E+03  0.80419002446E+02 0. -1.
        -24    1    1    2    0    0  0.37129761235E+02 -0.10909720260E+02  0.53327577862E+02  0.10396483867E+03  0.80419002446E+02 0.  1.
<mgrwt>
<rscale>  0 0.89246048E+02</rscale>
<asrwt>0</asrwt>
<pdfrwt beam="1">  1        2 0.38644839E-01 0.89246048E+02</pdfrwt>
<pdfrwt beam="2">  1       -2 0.56705962E-02 0.89246048E+02</pdfrwt>
<totfact> 0.19167065E+04</totfact>
</mgrwt>
</event>
<event>
 4    1  0.4938540E-001  0.8736794E+02  0.7546771E-02  0.1309354E+00
         -2   -1    0    0    0  501 -0.00000000000E+00  0.00000000000E+00  0.19956291091E+02  0.19956291091E+02  0.00000000000E+00 0.  1.
          2   -1    0    0  501    0  0.00000000000E+00 -0.00000000000E+00 -0.38254370144E+03  0.38254370144E+03  0.00000000000E+00 0. -1.
         24    1    1    2    0    0  0.22605315636E+02 -0.25591749294E+02 -0.17899086314E+03  0.19917550795E+03  0.80419002446E+02 0. -1.
        -24    1    1    2    0    0 -0.22605315636E+02  0.25591749294E+02 -0.18359654721E+03  0.20332448458E+03  0.80419002446E+02 0.  1.
<mgrwt>
<rscale>  0 0.87367933E+02</rscale>
<asrwt>0</asrwt>
<pdfrwt beam="1">  1        2 0.58852878E-01 0.87367944E+02</pdfrwt>
<pdfrwt beam="2">  1       -2 0.30701986E-02 0.87367944E+02</pdfrwt>
<totfact> 0.30403055E+04</totfact>
</mgrwt>
</event>
<event>
 4    1  0.4938540E-001  0.1153776E+03  0.7546771E-02  0.1250923E+00
          1   -1    0    0  501    0  0.00000000000E+00  0.00000000000E+00  0.22776757650E+02  0.22776757650E+02  0.00000000000E+00 0. -1.
         -1   -1    0    0    0  501 -0.00000000000E+00 -0.00000000000E+00 -0.20760536871E+04  0.20760536871E+04  0.00000000000E+00 0.  1.
         24    1    1    2    0    0  0.40359449322E+02  0.72221144963E+02 -0.19161550167E+04  0.19196254955E+04  0.80419002446E+02 0.  1.
        -24    1    1    2    0    0 -0.40359449322E+02 -0.72221144963E+02 -0.13712191273E+03  0.17920494925E+03  0.80419002446E+02 0. -1.
<mgrwt>
<rscale>  0 0.11537762E+03</rscale>
<asrwt>0</asrwt>
<pdfrwt beam="1">  1        1 0.35041147E-02 0.11537762E+03</pdfrwt>
<pdfrwt beam="2">  1       -1 0.31939304E+00 0.11537762E+03</pdfrwt>
<totfact> 0.82382436E+01</totfact>
</mgrwt>
</event>
<event>
 4    1  0.4938540E-001  0.8541721E+02  0.7546771E-02  0.1314345E+00
          1   -1    0    0  501    0  0.00000000000E+00  0.00000000000E+00  0.94244144158E+03  0.94244144158E+03  0.00000000000E+00 0. -1.
         -1   -1    0    0    0  501 -0.00000000000E+00 -0.00000000000E+00 -0.77799621598E+01  0.77799621598E+01  0.00000000000E+00 0.  1.
         24    1    1    2    0    0 -0.26383510027E+02  0.11523505914E+02  0.50065065146E+03  0.50788499835E+03  0.80419002446E+02 0. -1.
        -24    1    1    2    0    0  0.26383510027E+02 -0.11523505914E+02  0.43401082796E+03  0.44233640539E+03  0.80419002446E+02 0.  1.
<mgrwt>
<rscale>  0 0.85417203E+02</rscale>
<asrwt>0</asrwt>
<pdfrwt beam="1">  1        1 0.14499090E+00 0.85417214E+02</pdfrwt>
<pdfrwt beam="2">  1       -1 0.11969180E-02 0.85417214E+02</pdfrwt>
<totfact> 0.23378277E+04</totfact>
</mgrwt>
</event>
<event>
 4    1  0.4938540E-001  0.8048185E+02  0.7546771E-02  0.1327690E+00
          2   -1    0    0  501    0  0.00000000000E+00  0.00000000000E+00  0.16378917623E+03  0.16378917623E+03  0.00000000000E+00 0. -1.
         -2   -1    0    0    0  501 -0.00000000000E+00 -0.00000000000E+00 -0.44409399391E+02  0.44409399391E+02  0.00000000000E+00 0.  1.
         24    1    1    2    0    0  0.21516846033E+01 -0.23413212851E+01  0.94136567953E+02  0.12385080102E+03  0.80419002446E+02 0.  0.
        -24    1    1    2    0    0 -0.21516846033E+01  0.23413212851E+01  0.25243208888E+02  0.84347774608E+02  0.80419002446E+02 0.  1.
<mgrwt>
<rscale>  0 0.80481846E+02</rscale>
<asrwt>0</asrwt>
<pdfrwt beam="1">  1        2 0.25198334E-01 0.80481846E+02</pdfrwt>
<pdfrwt beam="2">  1       -2 0.68322154E-02 0.80481846E+02</pdfrwt>
<totfact> 0.22582880E+04</totfact>
</mgrwt>
</event>
<event>
 4    1  0.4938540E-001  0.9675114E+02  0.7546771E-02  0.1287280E+00
         -1   -1    0    0    0  501 -0.00000000000E+00  0.00000000000E+00  0.49214133878E+01  0.49214133878E+01  0.00000000000E+00 0.  1.
          1   -1    0    0  501    0  0.00000000000E+00 -0.00000000000E+00 -0.20135044687E+04  0.20135044687E+04  0.00000000000E+00 0. -1.
         24    1    1    2    0    0 -0.18713602371E+02  0.50431776323E+02 -0.12417312824E+04  0.12454948240E+04  0.80419002446E+02 0. -1.
        -24    1    1    2    0    0  0.18713602371E+02 -0.50431776323E+02 -0.76685177289E+03  0.77293105806E+03  0.80419002446E+02 0.  1.
<mgrwt>
<rscale>  0 0.96751131E+02</rscale>
<asrwt>0</asrwt>
<pdfrwt beam="1">  1        1 0.30977001E+00 0.96751143E+02</pdfrwt>
<pdfrwt beam="2">  1       -1 0.75714029E-03 0.96751143E+02</pdfrwt>
<totfact> 0.89789839E+03</totfact>
</mgrwt>
</event>
<event>
 4    1  0.4938540E-001  0.8106515E+02  0.7546771E-02  0.1326056E+00
         -2   -1    0    0    0  501 -0.00000000000E+00  0.00000000000E+00  0.19943755363E+02  0.19943755363E+02  0.00000000000E+00 0.  1.
          2   -1    0    0  501    0  0.00000000000E+00 -0.00000000000E+00 -0.33178719199E+03  0.33178719199E+03  0.00000000000E+00 0. -1.
         24    1    1    2    0    0 -0.46206612190E+01  0.91097931622E+01 -0.14133405901E+03  0.16293210559E+03  0.80419002446E+02 0.  1.
        -24    1    1    2    0    0  0.46206612190E+01 -0.91097931622E+01 -0.17050937762E+03  0.18879884176E+03  0.80419002446E+02 0. -1.
<mgrwt>
<rscale>  0 0.81065137E+02</rscale>
<asrwt>0</asrwt>
<pdfrwt beam="1">  1        2 0.51044179E-01 0.81065147E+02</pdfrwt>
<pdfrwt beam="2">  1       -2 0.30682703E-02 0.81065147E+02</pdfrwt>
<totfact> 0.34993329E+04</totfact>
</mgrwt>
</event>
<event>
 4    1  0.4938540E-001  0.8604080E+02  0.7546771E-02  0.1312733E+00
          1   -1    0    0  501    0  0.00000000000E+00  0.00000000000E+00  0.83506023018E+03  0.83506023018E+03  0.00000000000E+00 0. -1.
         -1   -1    0    0    0  501 -0.00000000000E+00 -0.00000000000E+00 -0.56688747757E+02  0.56688747757E+02  0.00000000000E+00 0.  1.
         24    1    1    2    0    0 -0.30561989510E+02  0.13294748805E+01 -0.20343442721E+02  0.88413089090E+02  0.80419002446E+02 0.  1.
        -24    1    1    2    0    0  0.30561989510E+02 -0.13294748805E+01  0.79871492515E+03  0.80333588885E+03  0.80419002446E+02 0. -1.
<mgrwt>
<rscale>  0 0.86040796E+02</rscale>
<asrwt>0</asrwt>
<pdfrwt beam="1">  1        1 0.12847080E+00 0.86040796E+02</pdfrwt>
<pdfrwt beam="2">  1       -1 0.87213464E-02 0.86040796E+02</pdfrwt>
<totfact> 0.15998572E+03</totfact>
</mgrwt>
</event>
<event>
 4    1  0.4938540E-001  0.9078924E+02  0.7546771E-02  0.1300952E+00
          1   -1    0    0  501    0  0.00000000000E+00  0.00000000000E+00  0.37637139531E+03  0.37637139531E+03  0.00000000000E+00 0. -1.
         -1   -1    0    0    0  501 -0.00000000000E+00 -0.00000000000E+00 -0.24318015494E+02  0.24318015494E+02  0.00000000000E+00 0.  1.
         24    1    1    2    0    0 -0.32943101434E+02 -0.26272069841E+02  0.11285724261E+03  0.14484282084E+03  0.80419002446E+02 0.  1.
        -24    1    1    2    0    0  0.32943101434E+02  0.26272069841E+02  0.23919613721E+03  0.25584658996E+03  0.80419002446E+02 0. -1.
<mgrwt>
<rscale>  0 0.90789237E+02</rscale>
<asrwt>0</asrwt>
<pdfrwt beam="1">  1        1 0.57903287E-01 0.90789237E+02</pdfrwt>
<pdfrwt beam="2">  1       -1 0.37412334E-02 0.90789237E+02</pdfrwt>
<totfact> 0.16131290E+04</totfact>
</mgrwt>
</event>
<event>
 4    1  0.4938540E-001  0.8044239E+02  0.7546771E-02  0.1327801E+00
          1   -1    0    0  501    0  0.00000000000E+00  0.00000000000E+00  0.12562099383E+04  0.12562099383E+04  0.00000000000E+00 0. -1.
         -1   -1    0    0    0  501 -0.00000000000E+00 -0.00000000000E+00 -0.58820530895E+01  0.58820530895E+01  0.00000000000E+00 0.  1.
         24    1    1    2    0    0  0.74919652313E+00 -0.17892212736E+01  0.40272338713E+03  0.41067883450E+03  0.80419002446E+02 0.  1.
        -24    1    1    2    0    0 -0.74919652313E+00  0.17892212736E+01  0.84760449805E+03  0.85141315687E+03  0.80419002446E+02 0.  0.
<mgrwt>
<rscale>  0 0.80442393E+02</rscale>
<asrwt>0</asrwt>
<pdfrwt beam="1">  1        1 0.19326285E+00 0.80442393E+02</pdfrwt>
<pdfrwt beam="2">  1       -1 0.90493225E-03 0.80442393E+02</pdfrwt>
<totfact> 0.20884829E+04</totfact>
</mgrwt>
</event>
<event>
 4    1  0.4938540E-001  0.1011167E+03  0.7546771E-02  0.1277965E+00
          1   -1    0    0  501    0  0.00000000000E+00  0.00000000000E+00  0.34329844736E+04  0.34329844736E+04  0.00000000000E+00 0. -1.
         -1   -1    0    0    0  501 -0.00000000000E+00 -0.00000000000E+00 -0.31604219025E+01  0.31604219025E+01  0.00000000000E+00 0.  1.
         24    1    1    2    0    0 -0.25725894049E+02 -0.55637656211E+02  0.13025246863E+04  0.13064437014E+04  0.80419002446E+02 0. -1.
        -24    1    1    2    0    0  0.25725894049E+02  0.55637656211E+02  0.21272993653E+04  0.21297011941E+04  0.80419002446E+02 0.  1.
<mgrwt>
<rscale>  0 0.10111670E+03</rscale>
<asrwt>0</asrwt>
<pdfrwt beam="1">  1        1 0.52814847E+00 0.10111670E+03</pdfrwt>
<pdfrwt beam="2">  1       -1 0.48622150E-03 0.10111670E+03</pdfrwt>
<totfact> 0.19029276E+03</totfact>
</mgrwt>
</event>
<event>
 4    1  0.4938540E-001  0.8795851E+02  0.7546771E-02  0.1307872E+00
         -2   -1    0    0    0  501 -0.00000000000E+00  0.00000000000E+00  0.10854982947E+03  0.10854982947E+03  0.00000000000E+00 0.  1.
          2   -1    0    0  501    0  0.00000000000E+00 -0.00000000000E+00 -0.77119044364E+02  0.77119044364E+02  0.00000000000E+00 0. -1.
         24    1    1    2    0    0  0.31444515945E+02  0.16754868285E+02 -0.98439718486E+01  0.88507643344E+02  0.80419002446E+02 0. -1.
        -24    1    1    2    0    0 -0.31444515945E+02 -0.16754868285E+02  0.41274756955E+02  0.97161230490E+02  0.80419002446E+02 0.  1.
<mgrwt>
<rscale>  0 0.87958508E+02</rscale>
<asrwt>0</asrwt>
<pdfrwt beam="1">  1        2 0.11864468E-01 0.87958508E+02</pdfrwt>
<pdfrwt beam="2">  1       -2 0.16699974E-01 0.87958508E+02</pdfrwt>
<totfact> 0.13241653E+04</totfact>
</mgrwt>
</event>
<event>
 4    1  0.4938540E-001  0.8484777E+02  0.7546771E-02  0.1315831E+00
         -1   -1    0    0    0  501 -0.00000000000E+00  0.00000000000E+00  0.10065806894E+03  0.10065806894E+03  0.00000000000E+00 0.  1.
          1   -1    0    0  501    0  0.00000000000E+00 -0.00000000000E+00 -0.75598878284E+02  0.75598878284E+02  0.00000000000E+00 0. -1.
         24    1    1    2    0    0  0.87863226356E+01 -0.25587656654E+02  0.32998161558E+02  0.91038575665E+02  0.80419002446E+02 0.  1.
        -24    1    1    2    0    0 -0.87863226356E+01  0.25587656654E+02 -0.79389708991E+01  0.85218371563E+02  0.80419002446E+02 0. -1.
<mgrwt>
<rscale>  0 0.84847767E+02</rscale>
<asrwt>0</asrwt>
<pdfrwt beam="1">  1        1 0.11630597E-01 0.84847767E+02</pdfrwt>
<pdfrwt beam="2">  1       -1 0.15485857E-01 0.84847767E+02</pdfrwt>
<totfact> 0.14196699E+04</totfact>
</mgrwt>
</event>
<event>
 4    1  0.4938540E-001  0.1024758E+03  0.7546771E-02  0.1275174E+00
          2   -1    0    0  501    0  0.00000000000E+00  0.00000000000E+00  0.25677778794E+03  0.25677778794E+03  0.00000000000E+00 0. -1.
         -2   -1    0    0    0  501 -0.00000000000E+00 -0.00000000000E+00 -0.19993051676E+03  0.19993051676E+03  0.00000000000E+00 0.  1.
         24    1    1    2    0    0  0.49848579938E+02  0.39359699643E+02  0.23208776371E+03  0.25370457800E+03  0.80419002446E+02 0. -1.
        -24    1    1    2    0    0 -0.49848579938E+02 -0.39359699643E+02 -0.17524049253E+03  0.20300372670E+03  0.80419002446E+02 0.  1.
<mgrwt>
<rscale>  0 0.10247577E+03</rscale>
<asrwt>0</asrwt>
<pdfrwt beam="1">  1        2 0.39504275E-01 0.10247577E+03</pdfrwt>
<pdfrwt beam="2">  1       -2 0.30758541E-01 0.10247577E+03</pdfrwt>
<totfact> 0.12354099E+03</totfact>
</mgrwt>
</event>
<event>
 4    1  0.4938540E-001  0.8151112E+02  0.7546771E-02  0.1324817E+00
          2   -1    0    0  501    0  0.00000000000E+00  0.00000000000E+00  0.61455504036E+03  0.61455504036E+03  0.00000000000E+00 0. -1.
         -2   -1    0    0    0  501 -0.00000000000E+00 -0.00000000000E+00 -0.83614498319E+02  0.83614498319E+02  0.00000000000E+00 0.  1.
         24    1    1    2    0    0  0.34729108086E+01  0.12836877378E+02  0.59120623197E+03  0.59679885322E+03  0.80419002446E+02 0. -1.
        -24    1    1    2    0    0 -0.34729108086E+01 -0.12836877378E+02 -0.60265689938E+02  0.10137068545E+03  0.80419002446E+02 0.  1.
<mgrwt>
<rscale>  0 0.81511119E+02</rscale>
<asrwt>0</asrwt>
<pdfrwt beam="1">  1        2 0.94546927E-01 0.81511119E+02</pdfrwt>
<pdfrwt beam="2">  1       -2 0.12863769E-01 0.81511119E+02</pdfrwt>
<totfact> 0.20942681E+03</totfact>
</mgrwt>
</event>
<event>
 4    1  0.4938540E-001  0.1265831E+03  0.7546771E-02  0.1232616E+00
          2   -1    0    0  501    0  0.00000000000E+00  0.00000000000E+00  0.29946935617E+03  0.29946935617E+03  0.00000000000E+00 0. -1.
         -2   -1    0    0    0  501 -0.00000000000E+00 -0.00000000000E+00 -0.59243593516E+02  0.59243593516E+02  0.00000000000E+00 0.  1.
         24    1    1    2    0    0  0.97689314523E+02 -0.35877916432E+01  0.17593110820E+03  0.21673727231E+03  0.80419002446E+02 0.  1.
        -24    1    1    2    0    0 -0.97689314523E+02  0.35877916432E+01  0.64294654451E+02  0.14197567738E+03  0.80419002446E+02 0. -1.
<mgrwt>
<rscale>  0 0.12658314E+03</rscale>
<asrwt>0</asrwt>
<pdfrwt beam="1">  1        2 0.46072208E-01 0.12658314E+03</pdfrwt>
<pdfrwt beam="2">  1       -2 0.91143992E-02 0.12658314E+03</pdfrwt>
<totfact> 0.79689924E+03</totfact>
</mgrwt>
</event>
<event>
 4    1  0.4938540E-001  0.8126903E+02  0.7546771E-02  0.1325488E+00
         -2   -1    0    0    0  501 -0.00000000000E+00  0.00000000000E+00  0.39673366365E+01  0.39673366365E+01  0.00000000000E+00 0.  1.
          2   -1    0    0  501    0  0.00000000000E+00 -0.00000000000E+00 -0.18387885397E+04  0.18387885397E+04  0.00000000000E+00 0. -1.
         24    1    1    2    0    0 -0.10425885122E+02  0.53609532794E+01 -0.12008660578E+04  0.12036128712E+04  0.80419002446E+02 0.  0.
        -24    1    1    2    0    0  0.10425885122E+02 -0.53609532794E+01 -0.63395514524E+03  0.63914300515E+03  0.80419002446E+02 0.  1.
<mgrwt>
<rscale>  0 0.81269028E+02</rscale>
<asrwt>0</asrwt>
<pdfrwt beam="1">  1        2 0.28289029E+00 0.81269028E+02</pdfrwt>
<pdfrwt beam="2">  1       -2 0.61036003E-03 0.81269028E+02</pdfrwt>
<totfact> 0.36321102E+04</totfact>
</mgrwt>
</event>
<event>
 4    1  0.4938540E-001  0.8860367E+02  0.7546771E-02  0.1306269E+00
          2   -1    0    0  501    0  0.00000000000E+00  0.00000000000E+00  0.87665790368E+03  0.87665790368E+03  0.00000000000E+00 0. -1.
         -2   -1    0    0    0  501 -0.00000000000E+00 -0.00000000000E+00 -0.24876054018E+02  0.24876054018E+02  0.00000000000E+00 0.  1.
         24    1    1    2    0    0 -0.62380158781E+01  0.36667178068E+02  0.78650700675E+03  0.79148207966E+03  0.80419002446E+02 0. -1.
        -24    1    1    2    0    0  0.62380158781E+01 -0.36667178068E+02  0.65274842908E+02  0.11005187804E+03  0.80419002446E+02 0.  1.
<mgrwt>
<rscale>  0 0.88603672E+02</rscale>
<asrwt>0</asrwt>
<pdfrwt beam="1">  1        2 0.13487042E+00 0.88603672E+02</pdfrwt>
<pdfrwt beam="2">  1       -2 0.38270859E-02 0.88603672E+02</pdfrwt>
<totfact> 0.86841486E+03</totfact>
</mgrwt>
</event>
<event>
 4    1  0.4938540E-001  0.1372150E+03  0.7546771E-02  0.1217126E+00
          2   -1    0    0  501    0  0.00000000000E+00  0.00000000000E+00  0.18389804358E+04  0.18389804358E+04  0.00000000000E+00 0. -1.
         -2   -1    0    0    0  501 -0.00000000000E+00 -0.00000000000E+00 -0.10933706964E+02  0.10933706964E+02  0.00000000000E+00 0.  1.
         24    1    1    2    0    0  0.10898353419E+03 -0.21984911874E+02  0.11472989711E+04  0.11554751802E+04  0.80419002446E+02 0.  0.
        -24    1    1    2    0    0 -0.10898353419E+03  0.21984911874E+02  0.68074775774E+03  0.69443896254E+03  0.80419002446E+02 0.  1.
<mgrwt>
<rscale>  0 0.13721502E+03</rscale>
<asrwt>0</asrwt>
<pdfrwt beam="1">  1        2 0.28291982E+00 0.13721502E+03</pdfrwt>
<pdfrwt beam="2">  1       -2 0.16821102E-02 0.13721502E+03</pdfrwt>
<totfact> 0.88476518E+03</totfact>
</mgrwt>
</event>
<event>
 4    1  0.4938540E-001  0.1246915E+03  0.7546771E-02  0.1235552E+00
         -2   -1    0    0    0  501 -0.00000000000E+00  0.00000000000E+00  0.19936793031E+02  0.19936793031E+02  0.00000000000E+00 0.  1.
          2   -1    0    0  501    0  0.00000000000E+00 -0.00000000000E+00 -0.80108453874E+03  0.80108453874E+03  0.00000000000E+00 0. -1.
         24    1    1    2    0    0  0.73595745216E+02  0.60534491837E+02 -0.32375947822E+03  0.34694116808E+03  0.80419002446E+02 0. -1.
        -24    1    1    2    0    0 -0.73595745216E+02 -0.60534491837E+02 -0.45738826748E+03  0.47408016369E+03  0.80419002446E+02 0.  0.
<mgrwt>
<rscale>  0 0.12469153E+03</rscale>
<asrwt>0</asrwt>
<pdfrwt beam="1">  1        2 0.12324376E+00 0.12469155E+03</pdfrwt>
<pdfrwt beam="2">  1       -2 0.30671992E-02 0.12469155E+03</pdfrwt>
<totfact> 0.13769855E+04</totfact>
</mgrwt>
</event>
<event>
 4    1  0.4938540E-001  0.8465348E+02  0.7546771E-02  0.1316341E+00
          1   -1    0    0  501    0  0.00000000000E+00  0.00000000000E+00  0.22626639800E+02  0.22626639800E+02  0.00000000000E+00 0. -1.
         -1   -1    0    0    0  501 -0.00000000000E+00 -0.00000000000E+00 -0.35581971644E+03  0.35581971644E+03  0.00000000000E+00 0.  1.
         24    1    1    2    0    0  0.18920577383E+02  0.18466368043E+02 -0.22932581561E+03  0.24445150983E+03  0.80419002446E+02 0.  0.
        -24    1    1    2    0    0 -0.18920577383E+02 -0.18466368043E+02 -0.10386726103E+03  0.13399484641E+03  0.80419002446E+02 0.  1.
<mgrwt>
<rscale>  0 0.84653476E+02</rscale>
<asrwt>0</asrwt>
<pdfrwt beam="1">  1        1 0.34810216E-02 0.84653476E+02</pdfrwt>
<pdfrwt beam="2">  1       -1 0.54741493E-01 0.84653476E+02</pdfrwt>
<totfact> 0.86487672E+03</totfact>
</mgrwt>
</event>
<event>
 4    1  0.4938540E-001  0.9906579E+02  0.7546771E-02  0.1282273E+00
         -2   -1    0    0    0  501 -0.00000000000E+00  0.00000000000E+00  0.13379098815E+04  0.13379098815E+04  0.00000000000E+00 0.  1.
          2   -1    0    0  501    0  0.00000000000E+00 -0.00000000000E+00 -0.76108970789E+01  0.76108970789E+01  0.00000000000E+00 0. -1.
         24    1    1    2    0    0  0.54711535166E+02  0.18800603774E+02  0.53713939418E+03  0.54619846166E+03  0.80419002446E+02 0. -1.
        -24    1    1    2    0    0 -0.54711535166E+02 -0.18800603774E+02  0.79315959020E+03  0.79932231688E+03  0.80419002446E+02 0.  1.
<mgrwt>
<rscale>  0 0.99065790E+02</rscale>
<asrwt>0</asrwt>
<pdfrwt beam="1">  1        2 0.11709083E-02 0.99065790E+02</pdfrwt>
<pdfrwt beam="2">  1       -2 0.20583210E+00 0.99065790E+02</pdfrwt>
<totfact> 0.14407628E+03</totfact>
</mgrwt>
</event>
<event>
 4    1  0.4938540E-001  0.8331291E+02  0.7546771E-02  0.1319904E+00
         -2   -1    0    0    0  501 -0.00000000000E+00  0.00000000000E+00  0.15895255007E+03  0.15895255007E+03  0.00000000000E+00 0.  1.
          2   -1    0    0  501    0  0.00000000000E+00 -0.00000000000E+00 -0.45807928962E+02  0.45807928962E+02  0.00000000000E+00 0. -1.
         24    1    1    2    0    0  0.21698257642E+02 -0.17352634458E+01  0.34440937973E+02  0.90151093653E+02  0.80419002446E+02 0. -1.
        -24    1    1    2    0    0 -0.21698257642E+02  0.17352634458E+01  0.78703683138E+02  0.11460938538E+03  0.80419002446E+02 0.  1.
<mgrwt>
<rscale>  0 0.83312913E+02</rscale>
<asrwt>0</asrwt>
<pdfrwt beam="1">  1        2 0.70473737E-02 0.83312913E+02</pdfrwt>
<pdfrwt beam="2">  1       -2 0.24454238E-01 0.83312913E+02</pdfrwt>
<totfact> 0.13114869E+04</totfact>
</mgrwt>
</event>
<event>
 4    1  0.4938540E-001  0.9503817E+02  0.7546771E-02  0.1291090E+00
         -3   -1    0    0    0  501 -0.00000000000E+00  0.00000000000E+00  0.77355397545E+02  0.77355397545E+02  0.00000000000E+00 0.  1.
          3   -1    0    0  501    0  0.00000000000E+00 -0.00000000000E+00 -0.39472669576E+03  0.39472669576E+03  0.00000000000E+00 0. -1.
         24    1    1    2    0    0 -0.87592011502E+01 -0.49883004300E+02  0.39390993600E+02  0.10287810289E+03  0.80419002446E+02 0.  1.
        -24    1    1    2    0    0  0.87592011502E+01  0.49883004300E+02 -0.35676229182E+03  0.36920399042E+03  0.80419002446E+02 0. -1.
<mgrwt>
<rscale>  0 0.95038170E+02</rscale>
<asrwt>0</asrwt>
<pdfrwt beam="1">  1        3 0.60727185E-01 0.95038170E+02</pdfrwt>
<pdfrwt beam="2">  1       -3 0.11900830E-01 0.95038170E+02</pdfrwt>
<totfact> 0.32706610E+02</totfact>
</mgrwt>
</event>
<event>
 4    1  0.4938540E-001  0.8290021E+02  0.7546771E-02  0.1321017E+00
          2   -1    0    0  501    0  0.00000000000E+00  0.00000000000E+00  0.71823222599E+03  0.71823222599E+03  0.00000000000E+00 0. -1.
         -2   -1    0    0    0  501 -0.00000000000E+00 -0.00000000000E+00 -0.10228825405E+02  0.10228825405E+02  0.00000000000E+00 0.  1.
         24    1    1    2    0    0  0.16224629968E+02  0.11915961910E+02  0.44654059310E+03  0.45417061332E+03  0.80419002446E+02 0.  0.
        -24    1    1    2    0    0 -0.16224629968E+02 -0.11915961910E+02  0.26146280748E+03  0.27429043807E+03  0.80419002446E+02 0.  0.
<mgrwt>
<rscale>  0 0.82900209E+02</rscale>
<asrwt>0</asrwt>
<pdfrwt beam="1">  1        2 0.11049723E+00 0.82900209E+02</pdfrwt>
<pdfrwt beam="2">  1       -2 0.15736660E-02 0.82900209E+02</pdfrwt>
<totfact> 0.39662936E+04</totfact>
</mgrwt>
</event>
<event>
 4    1  0.4938540E-001  0.8729547E+02  0.7546771E-02  0.1309536E+00
          2   -1    0    0  501    0  0.00000000000E+00  0.00000000000E+00  0.73938988221E+02  0.73938988221E+02  0.00000000000E+00 0. -1.
         -2   -1    0    0    0  501 -0.00000000000E+00 -0.00000000000E+00 -0.10352927710E+03  0.10352927710E+03  0.00000000000E+00 0.  1.
         24    1    1    2    0    0  0.31419123273E+02  0.12888854915E+02 -0.88510358769E+01  0.87743037779E+02  0.80419002446E+02 0.  1.
        -24    1    1    2    0    0 -0.31419123273E+02 -0.12888854915E+02 -0.20739253006E+02  0.89725227544E+02  0.80419002446E+02 0. -1.
<mgrwt>
<rscale>  0 0.87295474E+02</rscale>
<asrwt>0</asrwt>
<pdfrwt beam="1">  1        2 0.11375229E-01 0.87295474E+02</pdfrwt>
<pdfrwt beam="2">  1       -2 0.15927581E-01 0.87295474E+02</pdfrwt>
<totfact> 0.15028524E+04</totfact>
</mgrwt>
</event>
<event>
 4    1  0.4938540E-001  0.1691427E+03  0.7546771E-02  0.1178745E+00
         -2   -1    0    0    0  501 -0.00000000000E+00  0.00000000000E+00  0.40968921077E+02  0.40968921077E+02  0.00000000000E+00 0.  1.
          2   -1    0    0  501    0  0.00000000000E+00 -0.00000000000E+00 -0.71582753477E+03  0.71582753477E+03  0.00000000000E+00 0. -1.
         24    1    1    2    0    0  0.72630942096E+02  0.12987209035E+03 -0.27824397016E+03  0.32562084775E+03  0.80419002446E+02 0.  0.
        -24    1    1    2    0    0 -0.72630942096E+02 -0.12987209035E+03 -0.39661464353E+03  0.43117560810E+03  0.80419002446E+02 0.  0.
<mgrwt>
<rscale>  0 0.16914265E+03</rscale>
<asrwt>0</asrwt>
<pdfrwt beam="1">  1        2 0.11012731E+00 0.16914267E+03</pdfrwt>
<pdfrwt beam="2">  1       -2 0.63029110E-02 0.16914267E+03</pdfrwt>
<totfact> 0.54734151E+03</totfact>
</mgrwt>
</event>
<event>
 4    1  0.4938540E-001  0.8581362E+02  0.7546771E-02  0.1313318E+00
         -1   -1    0    0    0  501 -0.00000000000E+00  0.00000000000E+00  0.94337818174E+01  0.94337818174E+01  0.00000000000E+00 0.  1.
          1   -1    0    0  501    0  0.00000000000E+00 -0.00000000000E+00 -0.78138144937E+03  0.78138144937E+03  0.00000000000E+00 0. -1.
         24    1    1    2    0    0 -0.52854582909E+01  0.29475833633E+02 -0.37344119831E+03  0.38317398840E+03  0.80419002446E+02 0.  1.
        -24    1    1    2    0    0  0.52854582909E+01 -0.29475833633E+02 -0.39850646924E+03  0.40764124279E+03  0.80419002446E+02 0. -1.
<mgrwt>
<rscale>  0 0.85813617E+02</rscale>
<asrwt>0</asrwt>
<pdfrwt beam="1">  1        1 0.12021253E+00 0.85813617E+02</pdfrwt>
<pdfrwt beam="2">  1       -1 0.14513511E-02 0.85813617E+02</pdfrwt>
<totfact> 0.23716729E+04</totfact>
</mgrwt>
</event>
<event>
 4    1  0.4938540E-001  0.8486029E+02  0.7546771E-02  0.1315798E+00
         -1   -1    0    0    0  501 -0.00000000000E+00  0.00000000000E+00  0.24017105865E+03  0.24017105865E+03  0.00000000000E+00 0.  1.
          1   -1    0    0  501    0  0.00000000000E+00 -0.00000000000E+00 -0.15340965493E+03  0.15340965493E+03  0.00000000000E+00 0. -1.
         24    1    1    2    0    0  0.26693656723E+02  0.46369748859E+01  0.21989518076E+03  0.23570141985E+03  0.80419002446E+02 0.  1.
        -24    1    1    2    0    0 -0.26693656723E+02 -0.46369748859E+01 -0.13313377703E+03  0.15787929372E+03  0.80419002446E+02 0. -1.
<mgrwt>
<rscale>  0 0.84860290E+02</rscale>
<asrwt>0</asrwt>
<pdfrwt beam="1">  1        1 0.23601485E-01 0.84860290E+02</pdfrwt>
<pdfrwt beam="2">  1       -1 0.36949394E-01 0.84860290E+02</pdfrwt>
<totfact> 0.14154652E+03</totfact>
</mgrwt>
</event>
<event>
 4    1  0.4938540E-001  0.1156606E+03  0.7546771E-02  0.1250432E+00
          2   -1    0    0  501    0  0.00000000000E+00  0.00000000000E+00  0.27113558438E+03  0.27113558438E+03  0.00000000000E+00 0. -1.
         -2   -1    0    0    0  501 -0.00000000000E+00 -0.00000000000E+00 -0.51083662253E+02  0.51083662253E+02  0.00000000000E+00 0.  1.
         24    1    1    2    0    0 -0.50628815509E+02 -0.65930909596E+02  0.80246341049E+02  0.14077234461E+03  0.80419002446E+02 0.  1.
        -24    1    1    2    0    0  0.50628815509E+02  0.65930909596E+02  0.13980558108E+03  0.18144690203E+03  0.80419002446E+02 0. -1.
<mgrwt>
<rscale>  0 0.11566063E+03</rscale>
<asrwt>0</asrwt>
<pdfrwt beam="1">  1        2 0.41713166E-01 0.11566064E+03</pdfrwt>
<pdfrwt beam="2">  1       -2 0.78590251E-02 0.11566064E+03</pdfrwt>
<totfact> 0.11053209E+04</totfact>
</mgrwt>
</event>
<event>
 4    1  0.4938540E-001  0.1088396E+03  0.7546771E-02  0.1262734E+00
         -1   -1    0    0    0  501 -0.00000000000E+00  0.00000000000E+00  0.23678239283E+03  0.23678239283E+03  0.00000000000E+00 0.  1.
          1   -1    0    0  501    0  0.00000000000E+00 -0.00000000000E+00 -0.92088484255E+02  0.92088484255E+02  0.00000000000E+00 0. -1.
         24    1    1    2    0    0 -0.46882661781E+02 -0.56399119626E+02  0.18347485495E+03  0.21332857995E+03  0.80419002446E+02 0.  1.
        -24    1    1    2    0    0  0.46882661781E+02  0.56399119626E+02 -0.38780946378E+02  0.11554229713E+03  0.80419002446E+02 0. -1.
<mgrwt>
<rscale>  0 0.10883961E+03</rscale>
<asrwt>0</asrwt>
<pdfrwt beam="1">  1        1 0.14167459E-01 0.10883961E+03</pdfrwt>
<pdfrwt beam="2">  1       -1 0.36428060E-01 0.10883961E+03</pdfrwt>
<totfact> 0.27986463E+03</totfact>
</mgrwt>
</event>
<event>
 4    1  0.4938540E-001  0.8272936E+02  0.7546771E-02  0.1321480E+00
         -2   -1    0    0    0  501 -0.00000000000E+00  0.00000000000E+00  0.26489386670E+01  0.26489386670E+01  0.00000000000E+00 0.  1.
          2   -1    0    0  501    0  0.00000000000E+00 -0.00000000000E+00 -0.27137348860E+04  0.27137348860E+04  0.00000000000E+00 0. -1.
         24    1    1    2    0    0  0.14665321611E+02 -0.12722240819E+02 -0.10582690512E+04  0.10614977757E+04  0.80419002446E+02 0.  1.
        -24    1    1    2    0    0 -0.14665321611E+02  0.12722240819E+02 -0.16528168961E+04  0.16548860490E+04  0.80419002446E+02 0.  1.
<mgrwt>
<rscale>  0 0.82729346E+02</rscale>
<asrwt>0</asrwt>
<pdfrwt beam="1">  1        2 0.41749785E+00 0.82729357E+02</pdfrwt>
<pdfrwt beam="2">  1       -2 0.40752886E-03 0.82729357E+02</pdfrwt>
<totfact> 0.22765233E+04</totfact>
</mgrwt>
</event>
<event>
 4    1  0.4938540E-001  0.8409862E+02  0.7546771E-02  0.1317807E+00
         -3   -1    0    0    0  501 -0.00000000000E+00  0.00000000000E+00  0.66946612731E+02  0.66946612731E+02  0.00000000000E+00 0.  1.
          3   -1    0    0  501    0  0.00000000000E+00 -0.00000000000E+00 -0.10710868491E+03  0.10710868491E+03  0.00000000000E+00 0. -1.
         24    1    1    2    0    0  0.80886400565E+01 -0.23236501827E+02 -0.99076880658E+01  0.84680218188E+02  0.80419002446E+02 0. -1.
        -24    1    1    2    0    0 -0.80886400565E+01  0.23236501827E+02 -0.30254384116E+02  0.89375079456E+02  0.80419002446E+02 0.  0.
<mgrwt>
<rscale>  0 0.84098615E+02</rscale>
<asrwt>0</asrwt>
<pdfrwt beam="1">  1        3 0.16478259E-01 0.84098615E+02</pdfrwt>
<pdfrwt beam="2">  1       -3 0.10299479E-01 0.84098615E+02</pdfrwt>
<totfact> 0.45551706E+03</totfact>
</mgrwt>
</event>
<event>
 4    1  0.4938540E-001  0.9107468E+02  0.7546771E-02  0.1300270E+00
         -2   -1    0    0    0  501 -0.00000000000E+00  0.00000000000E+00  0.85141654833E+01  0.85141654833E+01  0.00000000000E+00 0.  1.
          2   -1    0    0  501    0  0.00000000000E+00 -0.00000000000E+00 -0.13950235744E+04  0.13950235744E+04  0.00000000000E+00 0. -1.
         24    1    1    2    0    0  0.27978987061E+02 -0.32319606802E+02 -0.10786864654E+04  0.10825244049E+04  0.80419002446E+02 0. -1.
        -24    1    1    2    0    0 -0.27978987061E+02  0.32319606802E+02 -0.30782294350E+03  0.32101333493E+03  0.80419002446E+02 0.  1.
<mgrwt>
<rscale>  0 0.91074676E+02</rscale>
<asrwt>0</asrwt>
<pdfrwt beam="1">  1        2 0.21461916E+00 0.91074676E+02</pdfrwt>
<pdfrwt beam="2">  1       -2 0.13098707E-02 0.91074676E+02</pdfrwt>
<totfact> 0.20914679E+04</totfact>
</mgrwt>
</event>
<event>
 4    1  0.4938540E-001  0.8606113E+02  0.7546771E-02  0.1312681E+00
         -1   -1    0    0    0  501 -0.00000000000E+00  0.00000000000E+00  0.37286308690E+02  0.37286308690E+02  0.00000000000E+00 0.  1.
          1   -1    0    0  501    0  0.00000000000E+00 -0.00000000000E+00 -0.15246995151E+04  0.15246995151E+04  0.00000000000E+00 0. -1.
         24    1    1    2    0    0  0.29339625079E+02 -0.88594117616E+01 -0.15362485651E+02  0.87421534511E+02  0.80419002446E+02 0.  1.
        -24    1    1    2    0    0 -0.29339625079E+02  0.88594117616E+01 -0.14720507208E+04  0.14745642893E+04  0.80419002446E+02 0. -1.
<mgrwt>
<rscale>  0 0.86061134E+02</rscale>
<asrwt>0</asrwt>
<pdfrwt beam="1">  1        1 0.23456911E+00 0.86061134E+02</pdfrwt>
<pdfrwt beam="2">  1       -1 0.57363563E-02 0.86061134E+02</pdfrwt>
<totfact> 0.10013214E+03</totfact>
</mgrwt>
</event>
<event>
 4    1  0.4938540E-001  0.1341154E+03  0.7546771E-02  0.1221474E+00
         -3   -1    0    0    0  501 -0.00000000000E+00  0.00000000000E+00  0.89336310245E+03  0.89336310245E+03  0.00000000000E+00 0.  1.
          3   -1    0    0  501    0  0.00000000000E+00 -0.00000000000E+00 -0.30604413282E+02  0.30604413282E+02  0.00000000000E+00 0. -1.
         24    1    1    2    0    0  0.77791205295E+02  0.73947635858E+02  0.70159925125E+03  0.71430277179E+03  0.80419002446E+02 0.  1.
        -24    1    1    2    0    0 -0.77791205295E+02 -0.73947635858E+02  0.16115943792E+03  0.20966474395E+03  0.80419002446E+02 0. -1.
<mgrwt>
<rscale>  0 0.13411540E+03</rscale>
<asrwt>0</asrwt>
<pdfrwt beam="1">  1        3 0.47083719E-02 0.13411540E+03</pdfrwt>
<pdfrwt beam="2">  1       -3 0.13744046E+00 0.13411540E+03</pdfrwt>
<totfact> 0.24920359E+02</totfact>
</mgrwt>
</event>
<event>
 4    1  0.4938540E-001  0.8403058E+02  0.7546771E-02  0.1317987E+00
         -4   -1    0    0    0  501 -0.00000000000E+00  0.00000000000E+00  0.48885431003E+02  0.48885431003E+02  0.00000000000E+00 0.  1.
          4   -1    0    0  501    0  0.00000000000E+00 -0.00000000000E+00 -0.82540608810E+03  0.82540608810E+03  0.00000000000E+00 0. -1.
         24    1    1    2    0    0  0.15191732031E+02  0.19056084648E+02 -0.78531869129E+03  0.78980161175E+03  0.80419002446E+02 0.  0.
        -24    1    1    2    0    0 -0.15191732031E+02 -0.19056084648E+02  0.87980341915E+01  0.84489907351E+02  0.80419002446E+02 0.  1.
<mgrwt>
<rscale>  0 0.84030584E+02</rscale>
<asrwt>0</asrwt>
<pdfrwt beam="1">  1        4 0.12698554E+00 0.84030584E+02</pdfrwt>
<pdfrwt beam="2">  1       -4 0.75208363E-02 0.84030584E+02</pdfrwt>
<totfact> 0.91385222E+01</totfact>
</mgrwt>
</event>
<event>
 4    1  0.4938540E-001  0.1052150E+03  0.7546771E-02  0.1269697E+00
         -2   -1    0    0    0  501 -0.00000000000E+00  0.00000000000E+00  0.68057233192E+01  0.68057233192E+01  0.00000000000E+00 0.  1.
          2   -1    0    0  501    0  0.00000000000E+00 -0.00000000000E+00 -0.16497471289E+04  0.16497471289E+04  0.00000000000E+00 0. -1.
         24    1    1    2    0    0 -0.21214893610E+02 -0.64442995789E+02 -0.91958181075E+03  0.92558138164E+03  0.80419002446E+02 0. -1.
        -24    1    1    2    0    0  0.21214893610E+02  0.64442995789E+02 -0.72335959487E+03  0.73097147062E+03  0.80419002446E+02 0.  0.
<mgrwt>
<rscale>  0 0.10521496E+03</rscale>
<asrwt>0</asrwt>
<pdfrwt beam="1">  1        2 0.25380732E+00 0.10521496E+03</pdfrwt>
<pdfrwt beam="2">  1       -2 0.10470341E-02 0.10521496E+03</pdfrwt>
<totfact> 0.21516252E+04</totfact>
</mgrwt>
</event>
<event>
 4    1  0.4938540E-001  0.1482679E+03  0.7546771E-02  0.1202618E+00
          1   -1    0    0  501    0  0.00000000000E+00  0.00000000000E+00  0.76469525795E+03  0.76469525795E+03  0.00000000000E+00 0. -1.
         -1   -1    0    0    0  501 -0.00000000000E+00 -0.00000000000E+00 -0.42453473569E+03  0.42453473569E+03  0.00000000000E+00 0.  1.
         24    1    1    2    0    0  0.20568837522E+02  0.12285384913E+03 -0.40404932977E+03  0.43039426363E+03  0.80419002446E+02 0.  1.
        -24    1    1    2    0    0 -0.20568837522E+02 -0.12285384913E+03  0.74420985203E+03  0.75883573001E+03  0.80419002446E+02 0. -1.
<mgrwt>
<rscale>  0 0.14826787E+03</rscale>
<asrwt>0</asrwt>
<pdfrwt beam="1">  1        1 0.11764542E+00 0.14826787E+03</pdfrwt>
<pdfrwt beam="2">  1       -1 0.65313036E-01 0.14826787E+03</pdfrwt>
<totfact> 0.64230316E+01</totfact>
</mgrwt>
</event>
<event>
 4    1  0.4938540E-001  0.9013878E+02  0.7546771E-02  0.1302516E+00
          1   -1    0    0  501    0  0.00000000000E+00  0.00000000000E+00  0.72771304735E+03  0.72771304735E+03  0.00000000000E+00 0. -1.
         -1   -1    0    0    0  501 -0.00000000000E+00 -0.00000000000E+00 -0.12600812245E+03  0.12600812245E+03  0.00000000000E+00 0.  1.
         24    1    1    2    0    0 -0.40004804015E+02  0.75762105935E+01 -0.10665828302E+03  0.13964594016E+03  0.80419002446E+02 0.  1.
        -24    1    1    2    0    0  0.40004804015E+02 -0.75762105935E+01  0.70836320792E+03  0.71407522965E+03  0.80419002446E+02 0. -1.
<mgrwt>
<rscale>  0 0.90138778E+02</rscale>
<asrwt>0</asrwt>
<pdfrwt beam="1">  1        1 0.11195585E+00 0.90138778E+02</pdfrwt>
<pdfrwt beam="2">  1       -1 0.19385865E-01 0.90138778E+02</pdfrwt>
<totfact> 0.57434981E+02</totfact>
</mgrwt>
</event>
<event>
 4    1  0.4938540E-001  0.9654892E+02  0.7546771E-02  0.1287725E+00
          2   -1    0    0  501    0  0.00000000000E+00  0.00000000000E+00  0.66243652908E+03  0.66243652908E+03  0.00000000000E+00 0. -1.
         -2   -1    0    0    0  501 -0.00000000000E+00 -0.00000000000E+00 -0.27336903901E+02  0.27336903901E+02  0.00000000000E+00 0.  1.
         24    1    1    2    0    0 -0.53425995951E+02  0.37437339561E+00  0.55779609047E+03  0.56609025049E+03  0.80419002446E+02 0. -1.
        -24    1    1    2    0    0  0.53425995951E+02 -0.37437339561E+00  0.77303534709E+02  0.12368318249E+03  0.80419002446E+02 0.  1.
<mgrwt>
<rscale>  0 0.96548916E+02</rscale>
<asrwt>0</asrwt>
<pdfrwt beam="1">  1        2 0.10191330E+00 0.96548916E+02</pdfrwt>
<pdfrwt beam="2">  1       -2 0.42056780E-02 0.96548916E+02</pdfrwt>
<totfact> 0.10654476E+04</totfact>
</mgrwt>
</event>
<event>
 4    1  0.4938540E-001  0.9000290E+02  0.7546771E-02  0.1302845E+00
         -2   -1    0    0    0  501 -0.00000000000E+00  0.00000000000E+00  0.48899751726E+02  0.48899751726E+02  0.00000000000E+00 0.  1.
          2   -1    0    0  501    0  0.00000000000E+00 -0.00000000000E+00 -0.32374902712E+03  0.32374902712E+03  0.00000000000E+00 0. -1.
         24    1    1    2    0    0  0.26361245946E+02 -0.30633152229E+02 -0.26762802363E+03  0.28235665441E+03  0.80419002446E+02 0. -1.
        -24    1    1    2    0    0 -0.26361245946E+02  0.30633152229E+02 -0.72212517609E+01  0.90292124433E+02  0.80419002446E+02 0.  1.
<mgrwt>
<rscale>  0 0.90002896E+02</rscale>
<asrwt>0</asrwt>
<pdfrwt beam="1">  1        2 0.49807543E-01 0.90002896E+02</pdfrwt>
<pdfrwt beam="2">  1       -2 0.75230387E-02 0.90002896E+02</pdfrwt>
<totfact> 0.96074085E+03</totfact>
</mgrwt>
</event>
<event>
 4    1  0.4938540E-001  0.1360266E+03  0.7546771E-02  0.1218778E+00
         -2   -1    0    0    0  501 -0.00000000000E+00  0.00000000000E+00  0.70671680968E+01  0.70671680968E+01  0.00000000000E+00 0. -1.
          2   -1    0    0  501    0  0.00000000000E+00 -0.00000000000E+00 -0.26471700990E+04  0.26471700990E+04  0.00000000000E+00 0.  1.
         24    1    1    2    0    0  0.10950231661E+03 -0.67271756203E+01 -0.14588954376E+04  0.14652232342E+04  0.80419002446E+02 0.  0.
        -24    1    1    2    0    0 -0.10950231661E+03  0.67271756203E+01 -0.11812074933E+04  0.11890140329E+04  0.80419002446E+02 0.  0.
<mgrwt>
<rscale>  0 0.13602657E+03</rscale>
<asrwt>0</asrwt>
<pdfrwt beam="1">  1        2 0.40725782E+00 0.13602657E+03</pdfrwt>
<pdfrwt beam="2">  1       -2 0.10872543E-02 0.13602657E+03</pdfrwt>
<totfact> 0.62705862E+03</totfact>
</mgrwt>
</event>
<event>
 4    1  0.4938540E-001  0.1090779E+03  0.7546771E-02  0.1262287E+00
          2   -1    0    0  501    0  0.00000000000E+00  0.00000000000E+00  0.16849244012E+03  0.16849244012E+03  0.00000000000E+00 0. -1.
         -2   -1    0    0    0  501 -0.00000000000E+00 -0.00000000000E+00 -0.71721415308E+02  0.71721415308E+02  0.00000000000E+00 0.  1.
         24    1    1    2    0    0  0.64861906780E+02 -0.34981653191E+02  0.63307029906E+02  0.12611811528E+03  0.80419002446E+02 0. -1.
        -24    1    1    2    0    0 -0.64861906780E+02  0.34981653191E+02  0.33463994905E+02  0.11409574015E+03  0.80419002446E+02 0.  1.
<mgrwt>
<rscale>  0 0.10907795E+03</rscale>
<asrwt>0</asrwt>
<pdfrwt beam="1">  1        2 0.25921914E-01 0.10907795E+03</pdfrwt>
<pdfrwt beam="2">  1       -2 0.11034064E-01 0.10907795E+03</pdfrwt>
<totfact> 0.10798380E+04</totfact>
</mgrwt>
</event>
<event>
 4    1  0.4938540E-001  0.8235433E+02  0.7546771E-02  0.1322500E+00
          1   -1    0    0  501    0  0.00000000000E+00  0.00000000000E+00  0.15005795836E+04  0.15005795836E+04  0.00000000000E+00 0. -1.
         -1   -1    0    0    0  501 -0.00000000000E+00 -0.00000000000E+00 -0.45227500381E+01  0.45227500381E+01  0.00000000000E+00 0.  1.
         24    1    1    2    0    0  0.15420832774E+02  0.87873448325E+01  0.72862684499E+03  0.73326619635E+03  0.80419002446E+02 0. -1.
        -24    1    1    2    0    0 -0.15420832774E+02 -0.87873448325E+01  0.76742998858E+03  0.77183613730E+03  0.80419002446E+02 0.  0.
<mgrwt>
<rscale>  0 0.82354329E+02</rscale>
<asrwt>0</asrwt>
<pdfrwt beam="1">  1        1 0.23085800E+00 0.82354329E+02</pdfrwt>
<pdfrwt beam="2">  1       -1 0.69580889E-03 0.82354329E+02</pdfrwt>
<totfact> 0.21024931E+04</totfact>
</mgrwt>
</event>
<event>
 4    1  0.4938540E-001  0.9088948E+02  0.7546771E-02  0.1300712E+00
          1   -1    0    0  501    0  0.00000000000E+00  0.00000000000E+00  0.72010605481E+02  0.72010605481E+02  0.00000000000E+00 0. -1.
         -1   -1    0    0    0  501 -0.00000000000E+00 -0.00000000000E+00 -0.16770514367E+03  0.16770514367E+03  0.00000000000E+00 0.  1.
         24    1    1    2    0    0  0.16913505618E+02  0.38828011514E+02 -0.11521928138E+03  0.14675278501E+03  0.80419002446E+02 0.  1.
        -24    1    1    2    0    0 -0.16913505618E+02 -0.38828011514E+02  0.19524743199E+02  0.92962964140E+02  0.80419002446E+02 0. -1.
<mgrwt>
<rscale>  0 0.90889477E+02</rscale>
<asrwt>0</asrwt>
<pdfrwt beam="1">  1        1 0.11078555E-01 0.90889477E+02</pdfrwt>
<pdfrwt beam="2">  1       -1 0.25800791E-01 0.90889477E+02</pdfrwt>
<totfact> 0.67677054E+03</totfact>
</mgrwt>
</event>
<event>
 4    1  0.4938540E-001  0.8239056E+02  0.7546771E-02  0.1322401E+00
         -2   -1    0    0    0  501 -0.00000000000E+00  0.00000000000E+00  0.56569533191E+01  0.56569533191E+01  0.00000000000E+00 0.  1.
          2   -1    0    0  501    0  0.00000000000E+00 -0.00000000000E+00 -0.21734830794E+04  0.21734830794E+04  0.00000000000E+00 0. -1.
         24    1    1    2    0    0 -0.91277899861E+01  0.15416585995E+02 -0.18131132136E+04  0.18149842227E+04  0.80419002446E+02 0. -1.
        -24    1    1    2    0    0  0.91277899861E+01 -0.15416585995E+02 -0.35471291249E+03  0.36415580994E+03  0.80419002446E+02 0.  1.
<mgrwt>
<rscale>  0 0.82390555E+02</rscale>
<asrwt>0</asrwt>
<pdfrwt beam="1">  1        2 0.33438206E+00 0.82390555E+02</pdfrwt>
<pdfrwt beam="2">  1       -2 0.87030039E-03 0.82390555E+02</pdfrwt>
<totfact> 0.15015775E+04</totfact>
</mgrwt>
</event>
<event>
 4    1  0.4938540E-001  0.1009648E+03  0.7546771E-02  0.1278280E+00
         -1   -1    0    0    0  501 -0.00000000000E+00  0.00000000000E+00  0.24291747700E+03  0.24291747700E+03  0.00000000000E+00 0.  1.
          1   -1    0    0  501    0  0.00000000000E+00 -0.00000000000E+00 -0.59037672244E+02  0.59037672244E+02  0.00000000000E+00 0. -1.
         24    1    1    2    0    0  0.51039283620E+02 -0.33491139472E+02  0.17313064110E+03  0.20041980875E+03  0.80419002446E+02 0. -1.
        -24    1    1    2    0    0 -0.51039283620E+02  0.33491139472E+02  0.10749163652E+02  0.10153534049E+03  0.80419002446E+02 0.  1.
<mgrwt>
<rscale>  0 0.10096475E+03</rscale>
<asrwt>0</asrwt>
<pdfrwt beam="1">  1        1 0.90827189E-02 0.10096475E+03</pdfrwt>
<pdfrwt beam="2">  1       -1 0.37371919E-01 0.10096475E+03</pdfrwt>
<totfact> 0.47634786E+03</totfact>
</mgrwt>
</event>
<event>
 4    1  0.4938540E-001  0.1093762E+03  0.7546771E-02  0.1261729E+00
         -2   -1    0    0    0  501 -0.00000000000E+00  0.00000000000E+00  0.16502114219E+02  0.16502114219E+02  0.00000000000E+00 0.  1.
          2   -1    0    0  501    0  0.00000000000E+00 -0.00000000000E+00 -0.72552977776E+03  0.72552977776E+03  0.00000000000E+00 0. -1.
         24    1    1    2    0    0  0.19719679510E+02 -0.71463766690E+02 -0.34399508744E+03  0.36096505627E+03  0.80419002446E+02 0.  1.
        -24    1    1    2    0    0 -0.19719679510E+02  0.71463766690E+02 -0.36503257610E+03  0.38106683571E+03  0.80419002446E+02 0. -1.
<mgrwt>
<rscale>  0 0.10937621E+03</rscale>
<asrwt>0</asrwt>
<pdfrwt beam="1">  1        2 0.11162000E+00 0.10937622E+03</pdfrwt>
<pdfrwt beam="2">  1       -2 0.25387860E-02 0.10937622E+03</pdfrwt>
<totfact> 0.20258761E+04</totfact>
</mgrwt>
</event>
<event>
 4    1  0.4938540E-001  0.9960969E+02  0.7546771E-02  0.1281119E+00
         -1   -1    0    0    0  501 -0.00000000000E+00  0.00000000000E+00  0.60886632935E+01  0.60886632935E+01  0.00000000000E+00 0.  1.
          1   -1    0    0  501    0  0.00000000000E+00 -0.00000000000E+00 -0.17570099445E+04  0.17570099445E+04  0.00000000000E+00 0. -1.
         24    1    1    2    0    0  0.42194166270E+02  0.40920991839E+02 -0.63807216964E+03  0.64580042185E+03  0.80419002446E+02 0.  0.
        -24    1    1    2    0    0 -0.42194166270E+02 -0.40920991839E+02 -0.11128491116E+04  0.11172981859E+04  0.80419002446E+02 0.  1.
<mgrwt>
<rscale>  0 0.99609694E+02</rscale>
<asrwt>0</asrwt>
<pdfrwt beam="1">  1        1 0.27030943E+00 0.99609694E+02</pdfrwt>
<pdfrwt beam="2">  1       -1 0.93671670E-03 0.99609694E+02</pdfrwt>
<totfact> 0.96521776E+03</totfact>
</mgrwt>
</event>
<event>
 4    1  0.4938540E-001  0.8525777E+02  0.7546771E-02  0.1314760E+00
         -2   -1    0    0    0  501 -0.00000000000E+00  0.00000000000E+00  0.70522531456E+01  0.70522531456E+01  0.00000000000E+00 0.  1.
          2   -1    0    0  501    0  0.00000000000E+00 -0.00000000000E+00 -0.14219213624E+04  0.14219213624E+04  0.00000000000E+00 0. -1.
         24    1    1    2    0    0 -0.18534911232E+02 -0.21403925525E+02 -0.10821982435E+04  0.10855514383E+04  0.80419002446E+02 0. -1.
        -24    1    1    2    0    0  0.18534911232E+02  0.21403925525E+02 -0.33267086577E+03  0.34342217728E+03  0.80419002446E+02 0.  1.
<mgrwt>
<rscale>  0 0.85257767E+02</rscale>
<asrwt>0</asrwt>
<pdfrwt beam="1">  1        2 0.21875730E+00 0.85257767E+02</pdfrwt>
<pdfrwt beam="2">  1       -2 0.10849612E-02 0.85257767E+02</pdfrwt>
<totfact> 0.26323215E+04</totfact>
</mgrwt>
</event>
<event>
 4    1  0.4938540E-001  0.8353688E+02  0.7546771E-02  0.1319304E+00
         -2   -1    0    0    0  501 -0.00000000000E+00  0.00000000000E+00  0.12300771084E+02  0.12300771084E+02  0.00000000000E+00 0.  1.
          2   -1    0    0  501    0  0.00000000000E+00 -0.00000000000E+00 -0.69602038670E+03  0.69602038670E+03  0.00000000000E+00 0. -1.
         24    1    1    2    0    0  0.17561561230E+02 -0.14240277225E+02 -0.49415559279E+03  0.50116679835E+03  0.80419002446E+02 0.  0.
        -24    1    1    2    0    0 -0.17561561230E+02  0.14240277225E+02 -0.18956402282E+03  0.20715435943E+03  0.80419002446E+02 0.  1.
<mgrwt>
<rscale>  0 0.83536877E+02</rscale>
<asrwt>0</asrwt>
<pdfrwt beam="1">  1        2 0.10708009E+00 0.83536877E+02</pdfrwt>
<pdfrwt beam="2">  1       -2 0.18924257E-02 0.83536877E+02</pdfrwt>
<totfact> 0.31645172E+04</totfact>
</mgrwt>
</event>
<event>
 4    1  0.4938540E-001  0.9436483E+02  0.7546771E-02  0.1292613E+00
         -2   -1    0    0    0  501 -0.00000000000E+00  0.00000000000E+00  0.31539599742E+02  0.31539599742E+02  0.00000000000E+00 0.  1.
          2   -1    0    0  501    0  0.00000000000E+00 -0.00000000000E+00 -0.39192161839E+03  0.39192161839E+03  0.00000000000E+00 0. -1.
         24    1    1    2    0    0  0.28659047514E+02 -0.40201538770E+02 -0.29215118396E+03  0.30701308599E+03  0.80419002446E+02 0. -1.
        -24    1    1    2    0    0 -0.28659047514E+02  0.40201538770E+02 -0.68230834692E+02  0.11644813215E+03  0.80419002446E+02 0.  1.
<mgrwt>
<rscale>  0 0.94364828E+02</rscale>
<asrwt>0</asrwt>
<pdfrwt beam="1">  1        2 0.60295639E-01 0.94364828E+02</pdfrwt>
<pdfrwt beam="2">  1       -2 0.48522457E-02 0.94364828E+02</pdfrwt>
<totfact> 0.15257514E+04</totfact>
</mgrwt>
</event>
<event>
 4    1  0.4938540E-001  0.1619406E+03  0.7546771E-02  0.1186523E+00
         -1   -1    0    0    0  501 -0.00000000000E+00  0.00000000000E+00  0.15006523734E+03  0.15006523734E+03  0.00000000000E+00 0.  1.
          1   -1    0    0  501    0  0.00000000000E+00 -0.00000000000E+00 -0.24989651241E+03  0.24989651241E+03  0.00000000000E+00 0. -1.
         24    1    1    2    0    0 -0.10063123577E+03  0.98137198249E+02  0.59743798543E+02  0.17260965417E+03  0.80419002446E+02 0.  1.
        -24    1    1    2    0    0  0.10063123577E+03 -0.98137198249E+02 -0.15957507361E+03  0.22735209558E+03  0.80419002446E+02 0. -1.
<mgrwt>
<rscale>  0 0.16194064E+03</rscale>
<asrwt>0</asrwt>
<pdfrwt beam="1">  1        1 0.38445617E-01 0.16194064E+03</pdfrwt>
<pdfrwt beam="2">  1       -1 0.23086960E-01 0.16194064E+03</pdfrwt>
<totfact> 0.17320818E+03</totfact>
</mgrwt>
</event>
<event>
 4    1  0.4938540E-001  0.9405868E+02  0.7546771E-02  0.1293310E+00
          2   -1    0    0  501    0  0.00000000000E+00  0.00000000000E+00  0.18685209185E+04  0.18685209185E+04  0.00000000000E+00 0. -1.
         -2   -1    0    0    0  501 -0.00000000000E+00 -0.00000000000E+00 -0.26368537101E+02  0.26368537101E+02  0.00000000000E+00 0.  1.
         24    1    1    2    0    0 -0.29306818192E+02  0.38999092741E+02  0.17792531370E+04  0.17817375677E+04  0.80419002446E+02 0. -1.
        -24    1    1    2    0    0  0.29306818192E+02 -0.38999092741E+02  0.62899244414E+02  0.11315188787E+03  0.80419002446E+02 0.  1.
<mgrwt>
<rscale>  0 0.94058677E+02</rscale>
<asrwt>0</asrwt>
<pdfrwt beam="1">  1        2 0.28746465E+00 0.94058677E+02</pdfrwt>
<pdfrwt beam="2">  1       -2 0.40566995E-02 0.94058677E+02</pdfrwt>
<totfact> 0.23545131E+03</totfact>
</mgrwt>
</event>
<event>
 4    1  0.4938540E-001  0.8228680E+02  0.7546771E-02  0.1322684E+00
         -2   -1    0    0    0  501 -0.00000000000E+00  0.00000000000E+00  0.19700556878E+04  0.19700556878E+04  0.00000000000E+00 0.  1.
          2   -1    0    0  501    0  0.00000000000E+00 -0.00000000000E+00 -0.34716506164E+01  0.34716506164E+01  0.00000000000E+00 0. -1.
         24    1    1    2    0    0 -0.57587056098E+01  0.16454039749E+02  0.10818511073E+04  0.10849760054E+04  0.80419002446E+02 0.  0.
        -24    1    1    2    0    0  0.57587056098E+01 -0.16454039749E+02  0.88473292986E+03  0.88855133293E+03  0.80419002446E+02 0.  1.
<mgrwt>
<rscale>  0 0.82286790E+02</rscale>
<asrwt>0</asrwt>
<pdfrwt beam="1">  1        2 0.53410167E-03 0.82286800E+02</pdfrwt>
<pdfrwt beam="2">  1       -2 0.30308460E+00 0.82286800E+02</pdfrwt>
<totfact> 0.11562853E+03</totfact>
</mgrwt>
</event>
<event>
 4    1  0.4938540E-001  0.8774487E+02  0.7546771E-02  0.1308407E+00
          2   -1    0    0  501    0  0.00000000000E+00  0.00000000000E+00  0.23636024745E+03  0.23636024745E+03  0.00000000000E+00 0. -1.
         -2   -1    0    0    0  501 -0.00000000000E+00 -0.00000000000E+00 -0.15559329633E+03  0.15559329633E+03  0.00000000000E+00 0.  1.
         24    1    1    2    0    0  0.31926897514E+02 -0.14581498961E+02  0.21464280796E+03  0.23188509625E+03  0.80419002446E+02 0. -1.
        -24    1    1    2    0    0 -0.31926897514E+02  0.14581498961E+02 -0.13387585685E+03  0.16006844754E+03  0.80419002446E+02 0.  1.
<mgrwt>
<rscale>  0 0.87744874E+02</rscale>
<asrwt>0</asrwt>
<pdfrwt beam="1">  1        2 0.36363115E-01 0.87744874E+02</pdfrwt>
<pdfrwt beam="2">  1       -2 0.23937430E-01 0.87744874E+02</pdfrwt>
<totfact> 0.20802902E+03</totfact>
</mgrwt>
</event>
<event>
 4    1  0.4938540E-001  0.8367407E+02  0.7546771E-02  0.1318937E+00
          1   -1    0    0  501    0  0.00000000000E+00  0.00000000000E+00  0.27129948030E+03  0.27129948030E+03  0.00000000000E+00 0. -1.
         -1   -1    0    0    0  501 -0.00000000000E+00 -0.00000000000E+00 -0.30057020303E+02  0.30057020303E+02  0.00000000000E+00 0.  1.
         24    1    1    2    0    0  0.22293261392E+02  0.60945686460E+01  0.63959802964E+02  0.10531954054E+03  0.80419002446E+02 0.  1.
        -24    1    1    2    0    0 -0.22293261392E+02 -0.60945686460E+01  0.17728265703E+03  0.19603696006E+03  0.80419002446E+02 0. -1.
<mgrwt>
<rscale>  0 0.83674065E+02</rscale>
<asrwt>0</asrwt>
<pdfrwt beam="1">  1        1 0.41738380E-01 0.83674065E+02</pdfrwt>
<pdfrwt beam="2">  1       -1 0.46241571E-02 0.83674065E+02</pdfrwt>
<totfact> 0.17549619E+04</totfact>
</mgrwt>
</event>
<event>
 4    1  0.4938540E-001  0.8072307E+02  0.7546771E-02  0.1327012E+00
         -4   -1    0    0    0  501 -0.00000000000E+00  0.00000000000E+00  0.10393578615E+04  0.10393578615E+04  0.00000000000E+00 0.  1.
          4   -1    0    0  501    0  0.00000000000E+00 -0.00000000000E+00 -0.17065408719E+02  0.17065408719E+02  0.00000000000E+00 0. -1.
         24    1    1    2    0    0 -0.21587052422E+01 -0.66586569169E+01  0.91019799234E+02  0.12165861058E+03  0.80419002446E+02 0.  0.
        -24    1    1    2    0    0  0.21587052422E+01  0.66586569169E+01  0.93127265353E+03  0.93476465963E+03  0.80419002446E+02 0.  1.
<mgrwt>
<rscale>  0 0.80723068E+02</rscale>
<asrwt>0</asrwt>
<pdfrwt beam="1">  1        4 0.26254483E-02 0.80723068E+02</pdfrwt>
<pdfrwt beam="2">  1       -4 0.15990116E+00 0.80723068E+02</pdfrwt>
<totfact> 0.27082570E+02</totfact>
</mgrwt>
</event>
<event>
 4    1  0.4938540E-001  0.9382453E+02  0.7546771E-02  0.1293846E+00
          1   -1    0    0  501    0  0.00000000000E+00  0.00000000000E+00  0.19023197884E+03  0.19023197884E+03  0.00000000000E+00 0. -1.
         -1   -1    0    0    0  501 -0.00000000000E+00 -0.00000000000E+00 -0.21204952504E+03  0.21204952504E+03  0.00000000000E+00 0.  1.
         24    1    1    2    0    0  0.11193758008E+02  0.47016226496E+02 -0.18875306133E+03  0.21078605240E+03  0.80419002446E+02 0.  1.
        -24    1    1    2    0    0 -0.11193758008E+02 -0.47016226496E+02  0.16693551512E+03  0.19149545148E+03  0.80419002446E+02 0. -1.
<mgrwt>
<rscale>  0 0.93824526E+02</rscale>
<asrwt>0</asrwt>
<pdfrwt beam="1">  1        1 0.29266458E-01 0.93824526E+02</pdfrwt>
<pdfrwt beam="2">  1       -1 0.32623004E-01 0.93824526E+02</pdfrwt>
<totfact> 0.13450756E+03</totfact>
</mgrwt>
</event>
<event>
 4    1  0.4938540E-001  0.8229497E+02  0.7546771E-02  0.1322662E+00
         -1   -1    0    0    0  501 -0.00000000000E+00  0.00000000000E+00  0.80253483043E+01  0.80253483043E+01  0.00000000000E+00 0.  1.
          1   -1    0    0  501    0  0.00000000000E+00 -0.00000000000E+00 -0.12248511027E+04  0.12248511027E+04  0.00000000000E+00 0. -1.
         24    1    1    2    0    0 -0.38946982998E+01  0.17031680740E+02 -0.26462412146E+03  0.27712522158E+03  0.80419002446E+02 0.  1.
        -24    1    1    2    0    0  0.38946982998E+01 -0.17031680740E+02 -0.95220163295E+03  0.95575122944E+03  0.80419002446E+02 0.  0.
<mgrwt>
<rscale>  0 0.82294974E+02</rscale>
<asrwt>0</asrwt>
<pdfrwt beam="1">  1        1 0.18843866E+00 0.82294974E+02</pdfrwt>
<pdfrwt beam="2">  1       -1 0.12346688E-02 0.82294974E+02</pdfrwt>
<totfact> 0.14176117E+04</totfact>
</mgrwt>
</event>
<event>
 4    1  0.4938540E-001  0.9968280E+02  0.7546771E-02  0.1280964E+00
          2   -1    0    0  501    0  0.00000000000E+00  0.00000000000E+00  0.24551654225E+03  0.24551654225E+03  0.00000000000E+00 0. -1.
         -2   -1    0    0    0  501 -0.00000000000E+00 -0.00000000000E+00 -0.56387475453E+02  0.56387475453E+02  0.00000000000E+00 0.  1.
         24    1    1    2    0    0 -0.29828918186E+02 -0.50790562506E+02  0.17476020531E+03  0.20119093149E+03  0.80419002446E+02 0. -1.
        -24    1    1    2    0    0  0.29828918186E+02  0.50790562506E+02  0.14368861489E+02  0.10071308621E+03  0.80419002446E+02 0.  1.
<mgrwt>
<rscale>  0 0.99682805E+02</rscale>
<asrwt>0</asrwt>
<pdfrwt beam="1">  1        2 0.37771775E-01 0.99682805E+02</pdfrwt>
<pdfrwt beam="2">  1       -2 0.86749963E-02 0.99682805E+02</pdfrwt>
<totfact> 0.10411789E+04</totfact>
</mgrwt>
</event>
<event>
 4    1  0.4938540E-001  0.8706922E+02  0.7546771E-02  0.1310108E+00
         -2   -1    0    0    0  501 -0.00000000000E+00  0.00000000000E+00  0.30530729266E+01  0.30530729266E+01  0.00000000000E+00 0.  1.
          2   -1    0    0  501    0  0.00000000000E+00 -0.00000000000E+00 -0.47015660826E+04  0.47015660826E+04  0.00000000000E+00 0. -1.
         24    1    1    2    0    0  0.98030981201E+01 -0.31901907541E+02 -0.39651055545E+04  0.39660614098E+04  0.80419002446E+02 0. -1.
        -24    1    1    2    0    0 -0.98030981201E+01  0.31901907541E+02 -0.73340745520E+03  0.73855774570E+03  0.80419002446E+02 0.  1.
<mgrwt>
<rscale>  0 0.87069216E+02</rscale>
<asrwt>0</asrwt>
<pdfrwt beam="1">  1        2 0.72331739E+00 0.87069216E+02</pdfrwt>
<pdfrwt beam="2">  1       -2 0.46970383E-03 0.87069216E+02</pdfrwt>
<totfact> 0.75306771E+02</totfact>
</mgrwt>
</event>
<event>
 4    1  0.4938540E-001  0.8055881E+02  0.7546771E-02  0.1327473E+00
         -1   -1    0    0    0  501 -0.00000000000E+00  0.00000000000E+00  0.21204283755E+02  0.21204283755E+02  0.00000000000E+00 0.  1.
          1   -1    0    0  501    0  0.00000000000E+00 -0.00000000000E+00 -0.31121101415E+03  0.31121101415E+03  0.00000000000E+00 0. -1.
         24    1    1    2    0    0  0.37361719942E+01 -0.29236432298E+01 -0.12361438556E+03  0.14754741252E+03  0.80419002446E+02 0.  0.
        -24    1    1    2    0    0 -0.37361719942E+01  0.29236432298E+01 -0.16639234483E+03  0.18486788538E+03  0.80419002446E+02 0. -1.
<mgrwt>
<rscale>  0 0.80558815E+02</rscale>
<asrwt>0</asrwt>
<pdfrwt beam="1">  1        1 0.47878616E-01 0.80558815E+02</pdfrwt>
<pdfrwt beam="2">  1       -1 0.32621976E-02 0.80558815E+02</pdfrwt>
<totfact> 0.24501343E+04</totfact>
</mgrwt>
</event>
<event>
 4    1  0.4938540E-001  0.8097006E+02  0.7546771E-02  0.1326321E+00
          2   -1    0    0  501    0  0.00000000000E+00  0.00000000000E+00  0.34819116083E+03  0.34819116083E+03  0.00000000000E+00 0. -1.
         -2   -1    0    0    0  501 -0.00000000000E+00 -0.00000000000E+00 -0.23357357637E+02  0.23357357637E+02  0.00000000000E+00 0.  1.
         24    1    1    2    0    0  0.87006617408E+01 -0.36377951680E+01  0.24421360983E+03  0.25728668494E+03  0.80419002446E+02 0. -1.
        -24    1    1    2    0    0 -0.87006617408E+01  0.36377951680E+01  0.80620193369E+02  0.11426183353E+03  0.80419002446E+02 0.  0.
<mgrwt>
<rscale>  0 0.80970063E+02</rscale>
<asrwt>0</asrwt>
<pdfrwt beam="1">  1        2 0.53567867E-01 0.80970063E+02</pdfrwt>
<pdfrwt beam="2">  1       -2 0.35934399E-02 0.80970063E+02</pdfrwt>
<totfact> 0.26440762E+04</totfact>
</mgrwt>
</event>
<event>
 4    1  0.4938540E-001  0.9789099E+02  0.7546771E-02  0.1284794E+00
         -2   -1    0    0    0  501 -0.00000000000E+00  0.00000000000E+00  0.11809422485E+03  0.11809422485E+03  0.00000000000E+00 0.  1.
          2   -1    0    0  501    0  0.00000000000E+00 -0.00000000000E+00 -0.10091172301E+03  0.10091172301E+03  0.00000000000E+00 0. -1.
         24    1    1    2    0    0 -0.25375236653E+02  0.49714464131E+02 -0.39874239614E+02  0.10570052752E+03  0.80419002446E+02 0.  0.
        -24    1    1    2    0    0  0.25375236653E+02 -0.49714464131E+02  0.57056741459E+02  0.11330542034E+03  0.80419002446E+02 0. -1.
<mgrwt>
<rscale>  0 0.97890993E+02</rscale>
<asrwt>0</asrwt>
<pdfrwt beam="1">  1        2 0.15524881E-01 0.97890993E+02</pdfrwt>
<pdfrwt beam="2">  1       -2 0.18168342E-01 0.97890993E+02</pdfrwt>
<totfact> 0.84988738E+03</totfact>
</mgrwt>
</event>
<event>
 4    1  0.4938540E-001  0.8569762E+02  0.7546771E-02  0.1313618E+00
          4   -1    0    0  501    0  0.00000000000E+00  0.00000000000E+00  0.30170490718E+03  0.30170490718E+03  0.00000000000E+00 0. -1.
         -4   -1    0    0    0  501 -0.00000000000E+00 -0.00000000000E+00 -0.66112824457E+02  0.66112824457E+02  0.00000000000E+00 0.  1.
         24    1    1    2    0    0  0.24898343498E+02  0.16029302562E+02  0.26397897015E+03  0.27754094957E+03  0.80419002446E+02 0. -1.
        -24    1    1    2    0    0 -0.24898343498E+02 -0.16029302562E+02 -0.28386887425E+02  0.90276782074E+02  0.80419002446E+02 0.  1.
<mgrwt>
<rscale>  0 0.85697620E+02</rscale>
<asrwt>0</asrwt>
<pdfrwt beam="1">  1        4 0.46416139E-01 0.85697620E+02</pdfrwt>
<pdfrwt beam="2">  1       -4 0.10171204E-01 0.85697620E+02</pdfrwt>
<totfact> 0.49963250E+02</totfact>
</mgrwt>
</event>
<event>
 4    1  0.4938540E-001  0.8641599E+02  0.7546771E-02  0.1311771E+00
         -1   -1    0    0    0  501 -0.00000000000E+00  0.00000000000E+00  0.14755580682E+02  0.14755580682E+02  0.00000000000E+00 0.  1.
          1   -1    0    0  501    0  0.00000000000E+00 -0.00000000000E+00 -0.60692417371E+03  0.60692417371E+03  0.00000000000E+00 0. -1.
         24    1    1    2    0    0 -0.15935241051E+02  0.27323526811E+02 -0.16938826895E+03  0.19015811483E+03  0.80419002446E+02 0.  0.
        -24    1    1    2    0    0  0.15935241051E+02 -0.27323526811E+02 -0.42278032408E+03  0.43152163956E+03  0.80419002446E+02 0.  0.
<mgrwt>
<rscale>  0 0.86415988E+02</rscale>
<asrwt>0</asrwt>
<pdfrwt beam="1">  1        1 0.93372937E-01 0.86415988E+02</pdfrwt>
<pdfrwt beam="2">  1       -1 0.22700897E-02 0.86415988E+02</pdfrwt>
<totfact> 0.17883580E+04</totfact>
</mgrwt>
</event>
<event>
 4    1  0.4938540E-001  0.9880147E+02  0.7546771E-02  0.1282837E+00
         -2   -1    0    0    0  501 -0.00000000000E+00  0.00000000000E+00  0.11456183179E+02  0.11456183179E+02  0.00000000000E+00 0.  1.
          2   -1    0    0  501    0  0.00000000000E+00 -0.00000000000E+00 -0.17762193504E+04  0.17762193504E+04  0.00000000000E+00 0. -1.
         24    1    1    2    0    0 -0.51187514992E+02  0.25968295436E+02 -0.15271090178E+04  0.15303018271E+04  0.80419002446E+02 0. -1.
        -24    1    1    2    0    0  0.51187514992E+02 -0.25968295436E+02 -0.23765414949E+03  0.25737370648E+03  0.80419002446E+02 0.  1.
<mgrwt>
<rscale>  0 0.98801468E+02</rscale>
<asrwt>0</asrwt>
<pdfrwt beam="1">  1        2 0.27326446E+00 0.98801468E+02</pdfrwt>
<pdfrwt beam="2">  1       -2 0.17624901E-02 0.98801468E+02</pdfrwt>
<totfact> 0.87980033E+03</totfact>
</mgrwt>
</event>
<event>
 4    1  0.4938540E-001  0.8887550E+02  0.7546771E-02  0.1305598E+00
         -2   -1    0    0    0  501 -0.00000000000E+00  0.00000000000E+00  0.85371749440E+01  0.85371749440E+01  0.00000000000E+00 0.  1.
          2   -1    0    0  501    0  0.00000000000E+00 -0.00000000000E+00 -0.14416596474E+04  0.14416596474E+04  0.00000000000E+00 0. -1.
         24    1    1    2    0    0 -0.36720852681E+02 -0.91223594489E+01 -0.11505424861E+04  0.11539700459E+04  0.80419002446E+02 0. -1.
        -24    1    1    2    0    0  0.36720852681E+02  0.91223594489E+01 -0.28257998636E+03  0.29622677649E+03  0.80419002446E+02 0.  1.
<mgrwt>
<rscale>  0 0.88875500E+02</rscale>
<asrwt>0</asrwt>
<pdfrwt beam="1">  1        2 0.22179393E+00 0.88875500E+02</pdfrwt>
<pdfrwt beam="2">  1       -2 0.13134107E-02 0.88875500E+02</pdfrwt>
<totfact> 0.19674217E+04</totfact>
</mgrwt>
</event>
<event>
 4    1  0.4938540E-001  0.8397257E+02  0.7546771E-02  0.1318141E+00
         -1   -1    0    0    0  501 -0.00000000000E+00  0.00000000000E+00  0.12184256141E+03  0.12184256141E+03  0.00000000000E+00 0.  1.
          1   -1    0    0  501    0  0.00000000000E+00 -0.00000000000E+00 -0.47552175497E+03  0.47552175497E+03  0.00000000000E+00 0. -1.
         24    1    1    2    0    0 -0.16339457117E+02 -0.17810093037E+02  0.10307766859E+03  0.13295261934E+03  0.80419002446E+02 0.  1.
        -24    1    1    2    0    0  0.16339457117E+02  0.17810093037E+02 -0.45675686215E+03  0.46441169704E+03  0.80419002446E+02 0. -1.
<mgrwt>
<rscale>  0 0.83972574E+02</rscale>
<asrwt>0</asrwt>
<pdfrwt beam="1">  1        1 0.73157194E-01 0.83972574E+02</pdfrwt>
<pdfrwt beam="2">  1       -1 0.18745009E-01 0.83972574E+02</pdfrwt>
<totfact> 0.10687829E+03</totfact>
</mgrwt>
</event>
<event>
 4    1  0.4938540E-001  0.8351307E+02  0.7546771E-02  0.1319367E+00
         -3   -1    0    0    0  501 -0.00000000000E+00  0.00000000000E+00  0.53913175361E+03  0.53913175361E+03  0.00000000000E+00 0.  1.
          3   -1    0    0  501    0  0.00000000000E+00 -0.00000000000E+00 -0.29273800170E+02  0.29273800170E+02  0.00000000000E+00 0. -1.
         24    1    1    2    0    0  0.21101721023E+02 -0.78697847497E+01  0.46724366446E+03  0.47464836887E+03  0.80419002446E+02 0.  1.
        -24    1    1    2    0    0 -0.21101721023E+02  0.78697847497E+01  0.42614288982E+02  0.93757184909E+02  0.80419002446E+02 0. -1.
<mgrwt>
<rscale>  0 0.83513065E+02</rscale>
<asrwt>0</asrwt>
<pdfrwt beam="1">  1        3 0.45036620E-02 0.83513065E+02</pdfrwt>
<pdfrwt beam="2">  1       -3 0.82943339E-01 0.83513065E+02</pdfrwt>
<totfact> 0.78820134E+02</totfact>
</mgrwt>
</event>
<event>
 4    1  0.4938540E-001  0.1034746E+03  0.7546771E-02  0.1273154E+00
         -2   -1    0    0    0  501 -0.00000000000E+00  0.00000000000E+00  0.48913209642E+02  0.48913209642E+02  0.00000000000E+00 0.  1.
          2   -1    0    0  501    0  0.00000000000E+00 -0.00000000000E+00 -0.10388287313E+04  0.10388287313E+04  0.00000000000E+00 0. -1.
         24    1    1    2    0    0 -0.49289943412E+02  0.42547474537E+02 -0.97814170402E+03  0.98359961122E+03  0.80419002446E+02 0. -1.
        -24    1    1    2    0    0  0.49289943412E+02 -0.42547474537E+02 -0.11773817687E+02  0.10414232976E+03  0.80419002446E+02 0.  1.
<mgrwt>
<rscale>  0 0.10347464E+03</rscale>
<asrwt>0</asrwt>
<pdfrwt beam="1">  1        2 0.15981981E+00 0.10347464E+03</pdfrwt>
<pdfrwt beam="2">  1       -2 0.75251089E-02 0.10347464E+03</pdfrwt>
<totfact> 0.25431411E+03</totfact>
</mgrwt>
</event>
<event>
 4    1  0.4938540E-001  0.8345547E+02  0.7546771E-02  0.1319522E+00
         -1   -1    0    0    0  501 -0.00000000000E+00  0.00000000000E+00  0.33135184770E+03  0.33135184770E+03  0.00000000000E+00 0.  1.
          1   -1    0    0  501    0  0.00000000000E+00 -0.00000000000E+00 -0.49475357898E+02  0.49475357898E+02  0.00000000000E+00 0. -1.
         24    1    1    2    0    0 -0.56068645770E+01  0.21590801834E+02  0.28534587328E+03  0.29729965188E+03  0.80419002446E+02 0.  0.
        -24    1    1    2    0    0  0.56068645770E+01 -0.21590801834E+02 -0.34693834793E+01  0.83527553719E+02  0.80419002446E+02 0. -1.
<mgrwt>
<rscale>  0 0.83455471E+02</rscale>
<asrwt>0</asrwt>
<pdfrwt beam="1">  1        1 0.76115937E-02 0.83455471E+02</pdfrwt>
<pdfrwt beam="2">  1       -1 0.50977206E-01 0.83455471E+02</pdfrwt>
<totfact> 0.34345604E+03</totfact>
</mgrwt>
</event>
<event>
 4    1  0.4938540E-001  0.1005992E+03  0.7546771E-02  0.1279041E+00
          1   -1    0    0  501    0  0.00000000000E+00  0.00000000000E+00  0.12995257292E+04  0.12995257292E+04  0.00000000000E+00 0. -1.
         -1   -1    0    0    0  501 -0.00000000000E+00 -0.00000000000E+00 -0.84734802807E+01  0.84734802807E+01  0.00000000000E+00 0.  1.
         24    1    1    2    0    0  0.53388360452E+02 -0.28331498543E+02  0.45946064565E+03  0.47034486464E+03  0.80419002446E+02 0. -1.
        -24    1    1    2    0    0 -0.53388360452E+02  0.28331498543E+02  0.83159160328E+03  0.83765434485E+03  0.80419002446E+02 0.  1.
<mgrwt>
<rscale>  0 0.10059924E+03</rscale>
<asrwt>0</asrwt>
<pdfrwt beam="1">  1        1 0.19992688E+00 0.10059924E+03</pdfrwt>
<pdfrwt beam="2">  1       -1 0.13036134E-02 0.10059924E+03</pdfrwt>
<totfact> 0.11878293E+04</totfact>
</mgrwt>
</event>
<event>
 4    1  0.4938540E-001  0.8732122E+02  0.7546771E-02  0.1309472E+00
         -1   -1    0    0    0  501 -0.00000000000E+00  0.00000000000E+00  0.16728314882E+03  0.16728314882E+03  0.00000000000E+00 0.  1.
          1   -1    0    0  501    0  0.00000000000E+00 -0.00000000000E+00 -0.46389369563E+02  0.46389369563E+02  0.00000000000E+00 0. -1.
         24    1    1    2    0    0  0.11958232955E+02  0.31855614694E+02  0.74546736501E+02  0.11481381189E+03  0.80419002446E+02 0.  1.
        -24    1    1    2    0    0 -0.11958232955E+02 -0.31855614694E+02  0.46347042753E+02  0.98858706492E+02  0.80419002446E+02 0. -1.
<mgrwt>
<rscale>  0 0.87321220E+02</rscale>
<asrwt>0</asrwt>
<pdfrwt beam="1">  1        1 0.71368262E-02 0.87321220E+02</pdfrwt>
<pdfrwt beam="2">  1       -1 0.25735869E-01 0.87321220E+02</pdfrwt>
<totfact> 0.12078899E+04</totfact>
</mgrwt>
</event>
<event>
 4    1  0.4938540E-001  0.1416297E+03  0.7546771E-02  0.1211153E+00
         -3   -1    0    0    0  501 -0.00000000000E+00  0.00000000000E+00  0.13070801764E+03  0.13070801764E+03  0.00000000000E+00 0.  1.
          3   -1    0    0  501    0  0.00000000000E+00 -0.00000000000E+00 -0.18198390409E+03  0.18198390409E+03  0.00000000000E+00 0. -1.
         24    1    1    2    0    0  0.72688741502E+02  0.91148720323E+02 -0.87531464608E+02  0.16649539215E+03  0.80419002446E+02 0. -1.
        -24    1    1    2    0    0 -0.72688741502E+02 -0.91148720323E+02  0.36255578152E+02  0.14619652957E+03  0.80419002446E+02 0.  1.
<mgrwt>
<rscale>  0 0.14162967E+03</rscale>
<asrwt>0</asrwt>
<pdfrwt beam="1">  1        3 0.27997523E-01 0.14162969E+03</pdfrwt>
<pdfrwt beam="2">  1       -3 0.20108926E-01 0.14162969E+03</pdfrwt>
<totfact> 0.63191136E+02</totfact>
</mgrwt>
</event>
<event>
 4    1  0.4938540E-001  0.8847367E+02  0.7546771E-02  0.1306591E+00
          3   -1    0    0  501    0  0.00000000000E+00  0.00000000000E+00  0.15759620442E+02  0.15759620442E+02  0.00000000000E+00 0. -1.
         -3   -1    0    0    0  501 -0.00000000000E+00 -0.00000000000E+00 -0.71372887997E+03  0.71372887997E+03  0.00000000000E+00 0.  1.
         24    1    1    2    0    0  0.33867539378E+02  0.14606992259E+02 -0.55012262217E+03  0.55719160961E+03  0.80419002446E+02 0.  1.
        -24    1    1    2    0    0 -0.33867539378E+02 -0.14606992259E+02 -0.14784663736E+03  0.17229689080E+03  0.80419002446E+02 0. -1.
<mgrwt>
<rscale>  0 0.88473671E+02</rscale>
<asrwt>0</asrwt>
<pdfrwt beam="1">  1        3 0.24245577E-02 0.88473671E+02</pdfrwt>
<pdfrwt beam="2">  1       -3 0.10980441E+00 0.88473671E+02</pdfrwt>
<totfact> 0.11053129E+03</totfact>
</mgrwt>
</event>
<event>
 4    1  0.4938540E-001  0.9834916E+02  0.7546771E-02  0.1283806E+00
          2   -1    0    0  501    0  0.00000000000E+00  0.00000000000E+00  0.18850081787E+02  0.18850081787E+02  0.00000000000E+00 0. -1.
         -2   -1    0    0    0  501 -0.00000000000E+00 -0.00000000000E+00 -0.54462291224E+03  0.54462291224E+03  0.00000000000E+00 0.  1.
         24    1    1    2    0    0 -0.56598172672E+02  0.14097824980E+01 -0.19513842728E+03  0.21852130878E+03  0.80419002446E+02 0.  1.
        -24    1    1    2    0    0  0.56598172672E+02 -0.14097824980E+01 -0.33063440318E+03  0.34495168525E+03  0.80419002446E+02 0. -1.
<mgrwt>
<rscale>  0 0.98349157E+02</rscale>
<asrwt>0</asrwt>
<pdfrwt beam="1">  1        2 0.29000127E-02 0.98349157E+02</pdfrwt>
<pdfrwt beam="2">  1       -2 0.83788136E-01 0.98349157E+02</pdfrwt>
<totfact> 0.38915109E+03</totfact>
</mgrwt>
</event>
<event>
 4    1  0.4938540E-001  0.8359371E+02  0.7546771E-02  0.1319152E+00
         -1   -1    0    0    0  501 -0.00000000000E+00  0.00000000000E+00  0.44920505269E+02  0.44920505269E+02  0.00000000000E+00 0.  1.
          1   -1    0    0  501    0  0.00000000000E+00 -0.00000000000E+00 -0.18044902187E+03  0.18044902187E+03  0.00000000000E+00 0. -1.
         24    1    1    2    0    0 -0.10045688092E+02  0.20488464019E+02 -0.25916013493E+02  0.87518847781E+02  0.80419002446E+02 0.  0.
        -24    1    1    2    0    0  0.10045688092E+02 -0.20488464019E+02 -0.10961250310E+03  0.13785067935E+03  0.80419002446E+02 0.  0.
<mgrwt>
<rscale>  0 0.83593714E+02</rscale>
<asrwt>0</asrwt>
<pdfrwt beam="1">  1        1 0.27761388E-01 0.83593714E+02</pdfrwt>
<pdfrwt beam="2">  1       -1 0.69108469E-02 0.83593714E+02</pdfrwt>
<totfact> 0.16010817E+04</totfact>
</mgrwt>
</event>
<event>
 4    1  0.4938540E-001  0.8393008E+02  0.7546771E-02  0.1318254E+00
          1   -1    0    0  501    0  0.00000000000E+00  0.00000000000E+00  0.77810619258E+01  0.77810619258E+01  0.00000000000E+00 0. -1.
         -1   -1    0    0    0  501 -0.00000000000E+00 -0.00000000000E+00 -0.90763268822E+03  0.90763268822E+03  0.00000000000E+00 0.  1.
         24    1    1    2    0    0  0.24014859326E+02 -0.57105175273E+00 -0.42676041432E+03  0.43493529030E+03  0.80419002446E+02 0. -1.
        -24    1    1    2    0    0 -0.24014859326E+02  0.57105175273E+00 -0.47309121198E+03  0.48047845985E+03  0.80419002446E+02 0.  1.
<mgrwt>
<rscale>  0 0.83930074E+02</rscale>
<asrwt>0</asrwt>
<pdfrwt beam="1">  1        1 0.11970871E-02 0.83930084E+02</pdfrwt>
<pdfrwt beam="2">  1       -1 0.13963573E+00 0.83930084E+02</pdfrwt>
<totfact> 0.52237878E+03</totfact>
</mgrwt>
</event>
<event>
 4    1  0.4938540E-001  0.8474017E+02  0.7546771E-02  0.1316113E+00
         -2   -1    0    0    0  501 -0.00000000000E+00  0.00000000000E+00  0.28077900365E+02  0.28077900365E+02  0.00000000000E+00 0.  1.
          2   -1    0    0  501    0  0.00000000000E+00 -0.00000000000E+00 -0.25870131935E+03  0.25870131935E+03  0.00000000000E+00 0. -1.
         24    1    1    2    0    0 -0.17548632808E+02  0.20142623236E+02 -0.13062956389E+03  0.15570799177E+03  0.80419002446E+02 0.  0.
        -24    1    1    2    0    0  0.17548632808E+02 -0.20142623236E+02 -0.99993855093E+02  0.13107122795E+03  0.80419002446E+02 0. -1.
<mgrwt>
<rscale>  0 0.84740166E+02</rscale>
<asrwt>0</asrwt>
<pdfrwt beam="1">  1        2 0.39800204E-01 0.84740166E+02</pdfrwt>
<pdfrwt beam="2">  1       -2 0.43196769E-02 0.84740166E+02</pdfrwt>
<totfact> 0.27661626E+04</totfact>
</mgrwt>
</event>
<event>
 4    1  0.4938540E-001  0.1014166E+03  0.7546771E-02  0.1277345E+00
         -2   -1    0    0    0  501 -0.00000000000E+00  0.00000000000E+00  0.10001811428E+03  0.10001811428E+03  0.00000000000E+00 0.  1.
          2   -1    0    0  501    0  0.00000000000E+00 -0.00000000000E+00 -0.11248271781E+03  0.11248271781E+03  0.00000000000E+00 0. -1.
         24    1    1    2    0    0 -0.57904549702E+02  0.21567929065E+02 -0.37350022071E+02  0.10807567970E+03  0.80419002446E+02 0. -1.
        -24    1    1    2    0    0  0.57904549702E+02 -0.21567929065E+02  0.24885418534E+02  0.10442515238E+03  0.80419002446E+02 0.  1.
<mgrwt>
<rscale>  0 0.10141661E+03</rscale>
<asrwt>0</asrwt>
<pdfrwt beam="1">  1        2 0.17305034E-01 0.10141661E+03</pdfrwt>
<pdfrwt beam="2">  1       -2 0.15387402E-01 0.10141661E+03</pdfrwt>
<totfact> 0.98875926E+03</totfact>
</mgrwt>
</event>
<event>
 4    1  0.4938540E-001  0.8896023E+02  0.7546771E-02  0.1305389E+00
         -2   -1    0    0    0  501 -0.00000000000E+00  0.00000000000E+00  0.48298499406E+02  0.48298499406E+02  0.00000000000E+00 0.  1.
          2   -1    0    0  501    0  0.00000000000E+00 -0.00000000000E+00 -0.45872187395E+03  0.45872187395E+03  0.00000000000E+00 0. -1.
         24    1    1    2    0    0 -0.40196740142E+00  0.38033465658E+02 -0.40846335545E+03  0.41803855658E+03  0.80419002446E+02 0. -1.
        -24    1    1    2    0    0  0.40196740142E+00 -0.38033465658E+02 -0.19600190949E+01  0.88981816777E+02  0.80419002446E+02 0.  1.
<mgrwt>
<rscale>  0 0.88960227E+02</rscale>
<asrwt>0</asrwt>
<pdfrwt beam="1">  1        2 0.70572597E-01 0.88960227E+02</pdfrwt>
<pdfrwt beam="2">  1       -2 0.74305383E-02 0.88960227E+02</pdfrwt>
<totfact> 0.67787712E+03</totfact>
</mgrwt>
</event>
<event>
 4    1  0.4938540E-001  0.9080249E+02  0.7546771E-02  0.1300920E+00
         -2   -1    0    0    0  501 -0.00000000000E+00  0.00000000000E+00  0.24072894072E+02  0.24072894072E+02  0.00000000000E+00 0.  1.
          2   -1    0    0  501    0  0.00000000000E+00 -0.00000000000E+00 -0.37896769870E+03  0.37896769870E+03  0.00000000000E+00 0. -1.
         24    1    1    2    0    0 -0.27420167844E+02 -0.32031396378E+02 -0.23995614769E+03  0.25656197054E+03  0.80419002446E+02 0.  0.
        -24    1    1    2    0    0  0.27420167844E+02  0.32031396378E+02 -0.11493865695E+03  0.14647862224E+03  0.80419002446E+02 0.  1.
<mgrwt>
<rscale>  0 0.90802488E+02</rscale>
<asrwt>0</asrwt>
<pdfrwt beam="1">  1        2 0.58302725E-01 0.90802488E+02</pdfrwt>
<pdfrwt beam="2">  1       -2 0.37035221E-02 0.90802488E+02</pdfrwt>
<totfact> 0.23453928E+04</totfact>
</mgrwt>
</event>
<event>
 4    1  0.4938540E-001  0.8456995E+02  0.7546771E-02  0.1316561E+00
          2   -1    0    0  501    0  0.00000000000E+00  0.00000000000E+00  0.30037583015E+03  0.30037583015E+03  0.00000000000E+00 0. -1.
         -2   -1    0    0    0  501 -0.00000000000E+00 -0.00000000000E+00 -0.20556198917E+03  0.20556198917E+03  0.00000000000E+00 0.  1.
         24    1    1    2    0    0 -0.16527960836E+02  0.20290062125E+02  0.28527426382E+03  0.29754576398E+03  0.80419002446E+02 0. -1.
        -24    1    1    2    0    0  0.16527960836E+02 -0.20290062125E+02 -0.19046042283E+03  0.20839205535E+03  0.80419002446E+02 0.  1.
<mgrwt>
<rscale>  0 0.84569948E+02</rscale>
<asrwt>0</asrwt>
<pdfrwt beam="1">  1        2 0.46211666E-01 0.84569948E+02</pdfrwt>
<pdfrwt beam="2">  1       -2 0.31624921E-01 0.84569948E+02</pdfrwt>
<totfact> 0.99153238E+02</totfact>
</mgrwt>
</event>
<event>
 4    1  0.4938540E-001  0.9520620E+02  0.7546771E-02  0.1290712E+00
         -1   -1    0    0    0  501 -0.00000000000E+00  0.00000000000E+00  0.11420885286E+03  0.11420885286E+03  0.00000000000E+00 0.  1.
          1   -1    0    0  501    0  0.00000000000E+00 -0.00000000000E+00 -0.84271101332E+02  0.84271101332E+02  0.00000000000E+00 0. -1.
         24    1    1    2    0    0  0.48445908870E+02  0.15811360115E+02  0.38913156909E+02  0.10285161608E+03  0.80419002446E+02 0.  1.
        -24    1    1    2    0    0 -0.48445908870E+02 -0.15811360115E+02 -0.89754053786E+01  0.95628338117E+02  0.80419002446E+02 0. -1.
<mgrwt>
<rscale>  0 0.95206203E+02</rscale>
<asrwt>0</asrwt>
<pdfrwt beam="1">  1        1 0.12964785E-01 0.95206203E+02</pdfrwt>
<pdfrwt beam="2">  1       -1 0.17570593E-01 0.95206203E+02</pdfrwt>
<totfact> 0.10246254E+04</totfact>
</mgrwt>
</event>
<event>
 4    1  0.4938540E-001  0.8085546E+02  0.7546771E-02  0.1326641E+00
          3   -1    0    0  501    0  0.00000000000E+00  0.00000000000E+00  0.24617772211E+03  0.24617772211E+03  0.00000000000E+00 0. -1.
         -3   -1    0    0    0  501 -0.00000000000E+00 -0.00000000000E+00 -0.26618458693E+02  0.26618458693E+02  0.00000000000E+00 0.  1.
         24    1    1    2    0    0 -0.57414357098E+00  0.83701274847E+01  0.10319596463E+03  0.13109924388E+03  0.80419002446E+02 0.  1.
        -24    1    1    2    0    0  0.57414357098E+00 -0.83701274847E+01  0.11636329879E+03  0.14169693692E+03  0.80419002446E+02 0. -1.
<mgrwt>
<rscale>  0 0.80855455E+02</rscale>
<asrwt>0</asrwt>
<pdfrwt beam="1">  1        3 0.37873494E-01 0.80855455E+02</pdfrwt>
<pdfrwt beam="2">  1       -3 0.40951477E-02 0.80855455E+02</pdfrwt>
<totfact> 0.44075903E+03</totfact>
</mgrwt>
</event>
<event>
 4    1  0.4938540E-001  0.8291771E+02  0.7546771E-02  0.1320970E+00
          3   -1    0    0  501    0  0.00000000000E+00  0.00000000000E+00  0.93950582341E+03  0.93950582341E+03  0.00000000000E+00 0. -1.
         -3   -1    0    0    0  501 -0.00000000000E+00 -0.00000000000E+00 -0.75530737861E+01  0.75530737861E+01  0.00000000000E+00 0.  1.
         24    1    1    2    0    0  0.57684074511E+00 -0.20194010643E+02  0.38244592880E+03  0.39133136243E+03  0.80419002446E+02 0.  1.
        -24    1    1    2    0    0 -0.57684074511E+00  0.20194010643E+02  0.54950682083E+03  0.55572753477E+03  0.80419002446E+02 0. -1.
<mgrwt>
<rscale>  0 0.82917711E+02</rscale>
<asrwt>0</asrwt>
<pdfrwt beam="1">  1        3 0.14453926E+00 0.82917711E+02</pdfrwt>
<pdfrwt beam="2">  1       -3 0.11620121E-02 0.82917711E+02</pdfrwt>
<totfact> 0.17268120E+03</totfact>
</mgrwt>
</event>
<event>
 4    1  0.4938540E-001  0.9491668E+02  0.7546771E-02  0.1291364E+00
         -2   -1    0    0    0  501 -0.00000000000E+00  0.00000000000E+00  0.44722869655E+01  0.44722869655E+01  0.00000000000E+00 0.  1.
          2   -1    0    0  501    0  0.00000000000E+00 -0.00000000000E+00 -0.40973540363E+04  0.40973540363E+04  0.00000000000E+00 0. -1.
         24    1    1    2    0    0 -0.34073515687E+02  0.37161220958E+02 -0.35087212897E+04  0.35100048812E+04  0.80419002446E+02 0. -1.
        -24    1    1    2    0    0  0.34073515687E+02 -0.37161220958E+02 -0.58416045955E+03  0.59182144205E+03  0.80419002446E+02 0.  1.
<mgrwt>
<rscale>  0 0.94916683E+02</rscale>
<asrwt>0</asrwt>
<pdfrwt beam="1">  1        2 0.63036194E+00 0.94916683E+02</pdfrwt>
<pdfrwt beam="2">  1       -2 0.68804439E-03 0.94916683E+02</pdfrwt>
<totfact> 0.14590277E+03</totfact>
</mgrwt>
</event>
<event>
 4    1  0.4938540E-001  0.8977697E+02  0.7546771E-02  0.1303393E+00
          1   -1    0    0  501    0  0.00000000000E+00  0.00000000000E+00  0.29471989894E+03  0.29471989894E+03  0.00000000000E+00 0. -1.
         -1   -1    0    0    0  501 -0.00000000000E+00 -0.00000000000E+00 -0.75037589252E+02  0.75037589252E+02  0.00000000000E+00 0.  1.
         24    1    1    2    0    0  0.21278870800E+02  0.33762381908E+02 -0.37546397125E+02  0.97312058174E+02  0.80419002446E+02 0.  1.
        -24    1    1    2    0    0 -0.21278870800E+02 -0.33762381908E+02  0.25722870681E+03  0.27244543002E+03  0.80419002446E+02 0. -1.
<mgrwt>
<rscale>  0 0.89776972E+02</rscale>
<asrwt>0</asrwt>
<pdfrwt beam="1">  1        1 0.45341522E-01 0.89776972E+02</pdfrwt>
<pdfrwt beam="2">  1       -1 0.11544245E-01 0.89776972E+02</pdfrwt>
<totfact> 0.41002534E+03</totfact>
</mgrwt>
</event>
<event>
 4    1  0.4938540E-001  0.1604622E+03  0.7546771E-02  0.1188176E+00
          1   -1    0    0  501    0  0.00000000000E+00  0.00000000000E+00  0.21602737195E+02  0.21602737195E+02  0.00000000000E+00 0. -1.
         -1   -1    0    0    0  501 -0.00000000000E+00 -0.00000000000E+00 -0.12010429661E+04  0.12010429661E+04  0.00000000000E+00 0.  1.
         24    1    1    2    0    0 -0.95341574570E+02  0.10094997424E+03 -0.64308129503E+03  0.66279837139E+03  0.80419002446E+02 0. -1.
        -24    1    1    2    0    0  0.95341574570E+02 -0.10094997424E+03 -0.53635893385E+03  0.55984733188E+03  0.80419002446E+02 0.  1.
<mgrwt>
<rscale>  0 0.16046224E+03</rscale>
<asrwt>0</asrwt>
<pdfrwt beam="1">  1        1 0.33234980E-02 0.16046224E+03</pdfrwt>
<pdfrwt beam="2">  1       -1 0.18477584E+00 0.16046224E+03</pdfrwt>
<totfact> 0.62063044E+02</totfact>
</mgrwt>
</event>
<event>
 4    1  0.4938540E-001  0.8559768E+02  0.7546771E-02  0.1313877E+00
          2   -1    0    0  501    0  0.00000000000E+00  0.00000000000E+00  0.15294218782E+04  0.15294218782E+04  0.00000000000E+00 0. -1.
         -2   -1    0    0    0  501 -0.00000000000E+00 -0.00000000000E+00 -0.17646616453E+02  0.17646616453E+02  0.00000000000E+00 0.  1.
         24    1    1    2    0    0 -0.21370044544E+02 -0.20076535715E+02  0.14161260290E+04  0.14187106442E+04  0.80419002446E+02 0. -1.
        -24    1    1    2    0    0  0.21370044544E+02  0.20076535715E+02  0.95649232817E+02  0.12835785049E+03  0.80419002446E+02 0.  1.
<mgrwt>
<rscale>  0 0.85597675E+02</rscale>
<asrwt>0</asrwt>
<pdfrwt beam="1">  1        2 0.23529557E+00 0.85597675E+02</pdfrwt>
<pdfrwt beam="2">  1       -2 0.27148653E-02 0.85597675E+02</pdfrwt>
<totfact> 0.62546812E+03</totfact>
</mgrwt>
</event>
<event>
 4    1  0.4938540E-001  0.1004637E+03  0.7546771E-02  0.1279324E+00
         -2   -1    0    0    0  501 -0.00000000000E+00  0.00000000000E+00  0.15486399536E+03  0.15486399536E+03  0.00000000000E+00 0.  1.
          2   -1    0    0  501    0  0.00000000000E+00 -0.00000000000E+00 -0.89983507253E+02  0.89983507253E+02  0.00000000000E+00 0. -1.
         24    1    1    2    0    0 -0.51091107721E+02 -0.31866068793E+02 -0.31843526898E+02  0.10538962847E+03  0.80419002446E+02 0. -1.
        -24    1    1    2    0    0  0.51091107721E+02  0.31866068793E+02  0.96724015005E+02  0.13945787415E+03  0.80419002446E+02 0.  1.
<mgrwt>
<rscale>  0 0.10046374E+03</rscale>
<asrwt>0</asrwt>
<pdfrwt beam="1">  1        2 0.13843617E-01 0.10046374E+03</pdfrwt>
<pdfrwt beam="2">  1       -2 0.23825230E-01 0.10046374E+03</pdfrwt>
<totfact> 0.61566108E+03</totfact>
</mgrwt>
</event>
<event>
 4    1  0.4938540E-001  0.9122495E+02  0.7546771E-02  0.1299912E+00
         -2   -1    0    0    0  501 -0.00000000000E+00  0.00000000000E+00  0.66536900914E+01  0.66536900914E+01  0.00000000000E+00 0.  1.
          2   -1    0    0  501    0  0.00000000000E+00 -0.00000000000E+00 -0.12829339377E+04  0.12829339377E+04  0.00000000000E+00 0. -1.
         24    1    1    2    0    0 -0.42829730201E+02  0.45154164582E+01 -0.74029332997E+03  0.74589289119E+03  0.80419002446E+02 0. -1.
        -24    1    1    2    0    0  0.42829730201E+02 -0.45154164582E+01 -0.53598691767E+03  0.54369473663E+03  0.80419002446E+02 0.  0.
<mgrwt>
<rscale>  0 0.91224946E+02</rscale>
<asrwt>0</asrwt>
<pdfrwt beam="1">  1        2 0.19737436E+00 0.91224946E+02</pdfrwt>
<pdfrwt beam="2">  1       -2 0.10236451E-02 0.91224946E+02</pdfrwt>
<totfact> 0.33986558E+04</totfact>
</mgrwt>
</event>
<event>
 4    1  0.4938540E-001  0.9237320E+02  0.7546771E-02  0.1297204E+00
          2   -1    0    0  501    0  0.00000000000E+00  0.00000000000E+00  0.22160035689E+04  0.22160035689E+04  0.00000000000E+00 0. -1.
         -2   -1    0    0    0  501 -0.00000000000E+00 -0.00000000000E+00 -0.38986941121E+01  0.38986941121E+01  0.00000000000E+00 0.  1.
         24    1    1    2    0    0 -0.44951384689E+02 -0.67056639427E+01  0.12294095079E+04  0.12328749113E+04  0.80419002446E+02 0. -1.
        -24    1    1    2    0    0  0.44951384689E+02  0.67056639427E+01  0.98269536698E+03  0.98702735178E+03  0.80419002446E+02 0.  1.
<mgrwt>
<rscale>  0 0.92373204E+02</rscale>
<asrwt>0</asrwt>
<pdfrwt beam="1">  1        2 0.34092262E+00 0.92373204E+02</pdfrwt>
<pdfrwt beam="2">  1       -2 0.59980086E-03 0.92373204E+02</pdfrwt>
<totfact> 0.24271528E+04</totfact>
</mgrwt>
</event>
<event>
 4    1  0.4938540E-001  0.8179916E+02  0.7546771E-02  0.1324022E+00
         -1   -1    0    0    0  501 -0.00000000000E+00  0.00000000000E+00  0.13873993122E+02  0.13873993122E+02  0.00000000000E+00 0.  1.
          1   -1    0    0  501    0  0.00000000000E+00 -0.00000000000E+00 -0.93807419318E+03  0.93807419318E+03  0.00000000000E+00 0. -1.
         24    1    1    2    0    0  0.18543891404E+01  0.14847460080E+02 -0.13031968201E+03  0.15386462005E+03  0.80419002446E+02 0.  0.
        -24    1    1    2    0    0 -0.18543891404E+01 -0.14847460080E+02 -0.79388051804E+03  0.79808356625E+03  0.80419002446E+02 0. -1.
<mgrwt>
<rscale>  0 0.81799155E+02</rscale>
<asrwt>0</asrwt>
<pdfrwt beam="1">  1        1 0.14431912E+00 0.81799155E+02</pdfrwt>
<pdfrwt beam="2">  1       -1 0.21344603E-02 0.81799155E+02</pdfrwt>
<totfact> 0.10334625E+04</totfact>
</mgrwt>
</event>
<event>
 4    1  0.4938540E-001  0.1097457E+03  0.7546771E-02  0.1261042E+00
         -2   -1    0    0    0  501 -0.00000000000E+00  0.00000000000E+00  0.53451407049E+03  0.53451407049E+03  0.00000000000E+00 0.  1.
          2   -1    0    0  501    0  0.00000000000E+00 -0.00000000000E+00 -0.43434724824E+02  0.43434724824E+02  0.00000000000E+00 0. -1.
         24    1    1    2    0    0 -0.37814752936E+02  0.64396769538E+02  0.45076940922E+02  0.11864251356E+03  0.80419002446E+02 0. -1.
        -24    1    1    2    0    0  0.37814752936E+02 -0.64396769538E+02  0.44600240474E+03  0.45930628175E+03  0.80419002446E+02 0.  1.
<mgrwt>
<rscale>  0 0.10974569E+03</rscale>
<asrwt>0</asrwt>
<pdfrwt beam="1">  1        2 0.66822657E-02 0.10974569E+03</pdfrwt>
<pdfrwt beam="2">  1       -2 0.82232929E-01 0.10974569E+03</pdfrwt>
<totfact> 0.13762681E+03</totfact>
</mgrwt>
</event>
<event>
 4    1  0.4938540E-001  0.8440804E+02  0.7546771E-02  0.1316988E+00
         -2   -1    0    0    0  501 -0.00000000000E+00  0.00000000000E+00  0.79023445277E+01  0.79023445277E+01  0.00000000000E+00 0.  1.
          2   -1    0    0  501    0  0.00000000000E+00 -0.00000000000E+00 -0.15060274410E+04  0.15060274410E+04  0.00000000000E+00 0. -1.
         24    1    1    2    0    0 -0.23113527528E+02 -0.11102550611E+02 -0.12286115844E+04  0.12315076708E+04  0.80419002446E+02 0. -1.
        -24    1    1    2    0    0  0.23113527528E+02  0.11102550611E+02 -0.26951351209E+03  0.28242211482E+03  0.80419002446E+02 0.  1.
<mgrwt>
<rscale>  0 0.84408043E+02</rscale>
<asrwt>0</asrwt>
<pdfrwt beam="1">  1        2 0.23169667E+00 0.84408043E+02</pdfrwt>
<pdfrwt beam="2">  1       -2 0.12157446E-02 0.84408043E+02</pdfrwt>
<totfact> 0.20274872E+04</totfact>
</mgrwt>
</event>
<event>
 4    1  0.4938540E-001  0.1008464E+03  0.7546771E-02  0.1278526E+00
         -1   -1    0    0    0  501 -0.00000000000E+00  0.00000000000E+00  0.22375328817E+02  0.22375328817E+02  0.00000000000E+00 0.  1.
          1   -1    0    0  501    0  0.00000000000E+00 -0.00000000000E+00 -0.47422727141E+03  0.47422727141E+03  0.00000000000E+00 0. -1.
         24    1    1    2    0    0  0.75217332533E+01 -0.60383809518E+02 -0.17530651415E+03  0.20224334545E+03  0.80419002446E+02 0.  1.
        -24    1    1    2    0    0 -0.75217332533E+01  0.60383809518E+02 -0.27654542845E+03  0.29435925478E+03  0.80419002446E+02 0. -1.
<mgrwt>
<rscale>  0 0.10084640E+03</rscale>
<asrwt>0</asrwt>
<pdfrwt beam="1">  1        1 0.72958041E-01 0.10084640E+03</pdfrwt>
<pdfrwt beam="2">  1       -1 0.34423583E-02 0.10084640E+03</pdfrwt>
<totfact> 0.13753952E+04</totfact>
</mgrwt>
</event>
<event>
 4    1  0.4938540E-001  0.9398570E+02  0.7546771E-02  0.1293477E+00
          1   -1    0    0  501    0  0.00000000000E+00  0.00000000000E+00  0.36355378776E+02  0.36355378776E+02  0.00000000000E+00 0. -1.
         -1   -1    0    0    0  501 -0.00000000000E+00 -0.00000000000E+00 -0.24312060793E+03  0.24312060793E+03  0.00000000000E+00 0.  1.
         24    1    1    2    0    0 -0.48582149948E+02 -0.24229838437E+01 -0.10684604794E+03  0.14230035158E+03  0.80419002446E+02 0.  1.
        -24    1    1    2    0    0  0.48582149948E+02  0.24229838437E+01 -0.99919181219E+02  0.13717563513E+03  0.80419002446E+02 0. -1.
<mgrwt>
<rscale>  0 0.93985702E+02</rscale>
<asrwt>0</asrwt>
<pdfrwt beam="1">  1        1 0.55931352E-02 0.93985702E+02</pdfrwt>
<pdfrwt beam="2">  1       -1 0.37403171E-01 0.93985702E+02</pdfrwt>
<totfact> 0.90301145E+03</totfact>
</mgrwt>
</event>
<event>
 4    1  0.4938540E-001  0.8128796E+02  0.7546771E-02  0.1325436E+00
         -1   -1    0    0    0  501 -0.00000000000E+00  0.00000000000E+00  0.63428460054E+01  0.63428460054E+01  0.00000000000E+00 0.  1.
          1   -1    0    0  501    0  0.00000000000E+00 -0.00000000000E+00 -0.13512591552E+04  0.13512591552E+04  0.00000000000E+00 0. -1.
         24    1    1    2    0    0 -0.11566134978E+02  0.25963327861E+01 -0.34759394019E+03  0.35697237937E+03  0.80419002446E+02 0.  0.
        -24    1    1    2    0    0  0.11566134978E+02 -0.25963327861E+01 -0.99732236898E+03  0.10006296218E+04  0.80419002446E+02 0.  0.
<mgrwt>
<rscale>  0 0.81287960E+02</rscale>
<asrwt>0</asrwt>
<pdfrwt beam="1">  1        1 0.20788629E+00 0.81287960E+02</pdfrwt>
<pdfrwt beam="2">  1       -1 0.97582120E-03 0.81287960E+02</pdfrwt>
<totfact> 0.16293624E+04</totfact>
</mgrwt>
</event>
<event>
 4    1  0.4938540E-001  0.2060108E+03  0.7546771E-02  0.1144765E+00
         -2   -1    0    0    0  501 -0.00000000000E+00  0.00000000000E+00  0.21807856971E+02  0.21807856971E+02  0.00000000000E+00 0.  1.
          2   -1    0    0  501    0  0.00000000000E+00 -0.00000000000E+00 -0.20078724307E+04  0.20078724307E+04  0.00000000000E+00 0. -1.
         24    1    1    2    0    0 -0.15549809142E+03 -0.10859819216E+03 -0.11710239401E+04  0.11890069419E+04  0.80419002446E+02 0.  1.
        -24    1    1    2    0    0  0.15549809142E+03  0.10859819216E+03 -0.81504063365E+03  0.84067334574E+03  0.80419002446E+02 0. -1.
<mgrwt>
<rscale>  0 0.20601078E+03</rscale>
<asrwt>0</asrwt>
<pdfrwt beam="1">  1        2 0.30890358E+00 0.20601078E+03</pdfrwt>
<pdfrwt beam="2">  1       -2 0.33550535E-02 0.20601078E+03</pdfrwt>
<totfact> 0.26411515E+03</totfact>
</mgrwt>
</event>
<event>
 4    1  0.4938540E-001  0.8745526E+02  0.7546771E-02  0.1309134E+00
          2   -1    0    0  501    0  0.00000000000E+00  0.00000000000E+00  0.17971936686E+04  0.17971936686E+04  0.00000000000E+00 0. -1.
         -2   -1    0    0    0  501 -0.00000000000E+00 -0.00000000000E+00 -0.80669432560E+01  0.80669432560E+01  0.00000000000E+00 0.  1.
         24    1    1    2    0    0  0.12822268209E+02 -0.31887232518E+02  0.15149828278E+04  0.15175049886E+04  0.80419002446E+02 0. -1.
        -24    1    1    2    0    0 -0.12822268209E+02  0.31887232518E+02  0.27414389756E+03  0.28775562320E+03  0.80419002446E+02 0.  1.
<mgrwt>
<rscale>  0 0.87455258E+02</rscale>
<asrwt>0</asrwt>
<pdfrwt beam="1">  1        2 0.27649101E+00 0.87455258E+02</pdfrwt>
<pdfrwt beam="2">  1       -2 0.12410696E-02 0.87455258E+02</pdfrwt>
<totfact> 0.14083623E+04</totfact>
</mgrwt>
</event>
<event>
 4    1  0.4938540E-001  0.1083868E+03  0.7546771E-02  0.1263587E+00
          2   -1    0    0  501    0  0.00000000000E+00  0.00000000000E+00  0.44671625331E+03  0.44671625331E+03  0.00000000000E+00 0. -1.
         -2   -1    0    0    0  501 -0.00000000000E+00 -0.00000000000E+00 -0.26890090578E+02  0.26890090578E+02  0.00000000000E+00 0.  1.
         24    1    1    2    0    0  0.45800604485E+02 -0.56416107789E+02  0.24505544807E+03  0.26795496109E+03  0.80419002446E+02 0.  1.
        -24    1    1    2    0    0 -0.45800604485E+02  0.56416107789E+02  0.17477071466E+03  0.20565138280E+03  0.80419002446E+02 0. -1.
<mgrwt>
<rscale>  0 0.10838675E+03</rscale>
<asrwt>0</asrwt>
<pdfrwt beam="1">  1        2 0.68725572E-01 0.10838675E+03</pdfrwt>
<pdfrwt beam="2">  1       -2 0.41369373E-02 0.10838675E+03</pdfrwt>
<totfact> 0.17035852E+04</totfact>
</mgrwt>
</event>
<event>
 4    1  0.4938540E-001  0.8123533E+02  0.7546771E-02  0.1325582E+00
         -2   -1    0    0    0  501 -0.00000000000E+00  0.00000000000E+00  0.17263375362E+02  0.17263375362E+02  0.00000000000E+00 0.  1.
          2   -1    0    0  501    0  0.00000000000E+00 -0.00000000000E+00 -0.75406638579E+03  0.75406638579E+03  0.00000000000E+00 0. -1.
         24    1    1    2    0    0  0.17521317962E+01  0.11353132777E+02 -0.63920917558E+03  0.64435048668E+03  0.80419002446E+02 0. -1.
        -24    1    1    2    0    0 -0.17521317962E+01 -0.11353132777E+02 -0.97593834850E+02  0.12697927447E+03  0.80419002446E+02 0.  0.
<mgrwt>
<rscale>  0 0.81235334E+02</rscale>
<asrwt>0</asrwt>
<pdfrwt beam="1">  1        2 0.11601021E+00 0.81235334E+02</pdfrwt>
<pdfrwt beam="2">  1       -2 0.26559040E-02 0.81235334E+02</pdfrwt>
<totfact> 0.17649290E+04</totfact>
</mgrwt>
</event>
<event>
 4    1  0.4938540E-001  0.8229280E+02  0.7546771E-02  0.1322668E+00
          2   -1    0    0  501    0  0.00000000000E+00  0.00000000000E+00  0.15973314480E+04  0.15973314480E+04  0.00000000000E+00 0. -1.
         -2   -1    0    0    0  501 -0.00000000000E+00 -0.00000000000E+00 -0.13575805834E+02  0.13575805834E+02  0.00000000000E+00 0.  1.
         24    1    1    2    0    0 -0.16401609870E+02  0.59896707370E+01  0.14598249533E+04  0.14621426056E+04  0.80419002446E+02 0.  0.
        -24    1    1    2    0    0  0.16401609870E+02 -0.59896707370E+01  0.12393068894E+03  0.14876464828E+03  0.80419002446E+02 0.  1.
<mgrwt>
<rscale>  0 0.82292800E+02</rscale>
<asrwt>0</asrwt>
<pdfrwt beam="1">  1        2 0.24574315E+00 0.82292800E+02</pdfrwt>
<pdfrwt beam="2">  1       -2 0.20885868E-02 0.82292800E+02</pdfrwt>
<totfact> 0.84169861E+03</totfact>
</mgrwt>
</event>
<event>
 4    1  0.4938540E-001  0.8455214E+02  0.7546771E-02  0.1316608E+00
          1   -1    0    0  501    0  0.00000000000E+00  0.00000000000E+00  0.24431941357E+03  0.24431941357E+03  0.00000000000E+00 0. -1.
         -1   -1    0    0    0  501 -0.00000000000E+00 -0.00000000000E+00 -0.42346256474E+02  0.42346256474E+02  0.00000000000E+00 0.  1.
         24    1    1    2    0    0  0.22970955373E+02 -0.12417052842E+02  0.21310671251E+02  0.87196379831E+02  0.80419002446E+02 0.  0.
        -24    1    1    2    0    0 -0.22970955373E+02  0.12417052842E+02  0.18066248584E+03  0.19946929021E+03  0.80419002446E+02 0.  0.
<mgrwt>
<rscale>  0 0.84552137E+02</rscale>
<asrwt>0</asrwt>
<pdfrwt beam="1">  1        1 0.37587601E-01 0.84552137E+02</pdfrwt>
<pdfrwt beam="2">  1       -1 0.65148088E-02 0.84552137E+02</pdfrwt>
<totfact> 0.12076209E+04</totfact>
</mgrwt>
</event>
<event>
 4    1  0.4938540E-001  0.8286855E+02  0.7546771E-02  0.1321103E+00
          2   -1    0    0  501    0  0.00000000000E+00  0.00000000000E+00  0.13619209561E+04  0.13619209561E+04  0.00000000000E+00 0. -1.
         -2   -1    0    0    0  501 -0.00000000000E+00 -0.00000000000E+00 -0.14879099744E+02  0.14879099744E+02  0.00000000000E+00 0.  1.
         24    1    1    2    0    0 -0.62722106034E+01  0.18990514904E+02  0.12332524371E+04  0.12360334825E+04  0.80419002446E+02 0. -1.
        -24    1    1    2    0    0  0.62722106034E+01 -0.18990514904E+02  0.11378941923E+03  0.14076657333E+03  0.80419002446E+02 0.  1.
<mgrwt>
<rscale>  0 0.82868548E+02</rscale>
<asrwt>0</asrwt>
<pdfrwt beam="1">  1        2 0.20952620E+00 0.82868548E+02</pdfrwt>
<pdfrwt beam="2">  1       -2 0.22890933E-02 0.82868548E+02</pdfrwt>
<totfact> 0.97344057E+03</totfact>
</mgrwt>
</event>
<event>
 4    1  0.4938540E-001  0.9670529E+02  0.7546771E-02  0.1287381E+00
          2   -1    0    0  501    0  0.00000000000E+00  0.00000000000E+00  0.21822763894E+04  0.21822763894E+04  0.00000000000E+00 0. -1.
         -2   -1    0    0    0  501 -0.00000000000E+00 -0.00000000000E+00 -0.42864157927E+01  0.42864157927E+01  0.00000000000E+00 0.  1.
         24    1    1    2    0    0 -0.15813216078E+02 -0.51328739962E+02  0.11058779320E+04  0.11100981550E+04  0.80419002446E+02 0.  0.
        -24    1    1    2    0    0  0.15813216078E+02  0.51328739962E+02  0.10721120416E+04  0.10764646501E+04  0.80419002446E+02 0.  0.
<mgrwt>
<rscale>  0 0.96705291E+02</rscale>
<asrwt>0</asrwt>
<pdfrwt beam="1">  1        2 0.33573394E+00 0.96705291E+02</pdfrwt>
<pdfrwt beam="2">  1       -2 0.65945033E-03 0.96705291E+02</pdfrwt>
<totfact> 0.22157926E+04</totfact>
</mgrwt>
</event>
<event>
 4    1  0.4938540E-001  0.8348032E+02  0.7546771E-02  0.1319455E+00
         -2   -1    0    0    0  501 -0.00000000000E+00  0.00000000000E+00  0.61895725255E+03  0.61895725255E+03  0.00000000000E+00 0.  1.
          2   -1    0    0  501    0  0.00000000000E+00 -0.00000000000E+00 -0.11493418965E+02  0.11493418965E+02  0.00000000000E+00 0. -1.
         24    1    1    2    0    0  0.12217147103E+02 -0.18774705525E+02  0.25873254345E+03  0.27186668285E+03  0.80419002446E+02 0.  1.
        -24    1    1    2    0    0 -0.12217147103E+02  0.18774705525E+02  0.34873129013E+03  0.35858398866E+03  0.80419002446E+02 0. -1.
<mgrwt>
<rscale>  0 0.83480322E+02</rscale>
<asrwt>0</asrwt>
<pdfrwt beam="1">  1        2 0.17682188E-02 0.83480322E+02</pdfrwt>
<pdfrwt beam="2">  1       -2 0.95224167E-01 0.83480322E+02</pdfrwt>
<totfact> 0.55930456E+03</totfact>
</mgrwt>
</event>
<event>
 4    1  0.4938540E-001  0.8042457E+02  0.7546771E-02  0.1327851E+00
          2   -1    0    0  501    0  0.00000000000E+00  0.00000000000E+00  0.48746557506E+02  0.48746557506E+02  0.00000000000E+00 0. -1.
         -2   -1    0    0    0  501 -0.00000000000E+00 -0.00000000000E+00 -0.14481783535E+03  0.14481783535E+03  0.00000000000E+00 0.  1.
         24    1    1    2    0    0 -0.81142455130E+00 -0.48645304385E+00 -0.20026374768E+02  0.82880436094E+02  0.80419002446E+02 0. -1.
        -24    1    1    2    0    0  0.81142455130E+00  0.48645304385E+00 -0.76044903075E+02  0.11068395676E+03  0.80419002446E+02 0.  0.
<mgrwt>
<rscale>  0 0.80424567E+02</rscale>
<asrwt>0</asrwt>
<pdfrwt beam="1">  1        2 0.74994705E-02 0.80424567E+02</pdfrwt>
<pdfrwt beam="2">  1       -2 0.22279667E-01 0.80424567E+02</pdfrwt>
<totfact> 0.14173168E+04</totfact>
</mgrwt>
</event>
<event>
 4    1  0.4938540E-001  0.1015679E+03  0.7546771E-02  0.1277033E+00
         -2   -1    0    0    0  501 -0.00000000000E+00  0.00000000000E+00  0.21614957277E+02  0.21614957277E+02  0.00000000000E+00 0.  1.
          2   -1    0    0  501    0  0.00000000000E+00 -0.00000000000E+00 -0.67745874730E+03  0.67745874730E+03  0.00000000000E+00 0. -1.
         24    1    1    2    0    0 -0.38864547599E+02  0.48356736718E+02 -0.13791131625E+03  0.17127630936E+03  0.80419002446E+02 0.  1.
        -24    1    1    2    0    0  0.38864547599E+02 -0.48356736718E+02 -0.51793247378E+03  0.52779739521E+03  0.80419002446E+02 0. -1.
<mgrwt>
<rscale>  0 0.10156794E+03</rscale>
<asrwt>0</asrwt>
<pdfrwt beam="1">  1        2 0.10422443E+00 0.10156795E+03</pdfrwt>
<pdfrwt beam="2">  1       -2 0.33253777E-02 0.10156795E+03</pdfrwt>
<totfact> 0.14719761E+04</totfact>
</mgrwt>
</event>
<event>
 4    1  0.4938540E-001  0.1184945E+03  0.7546771E-02  0.1245602E+00
         -2   -1    0    0    0  501 -0.00000000000E+00  0.00000000000E+00  0.15533656286E+02  0.15533656286E+02  0.00000000000E+00 0.  1.
          2   -1    0    0  501    0  0.00000000000E+00 -0.00000000000E+00 -0.15129422554E+04  0.15129422554E+04  0.00000000000E+00 0. -1.
         24    1    1    2    0    0  0.84081266608E+02 -0.22451553578E+02 -0.12335900283E+04  0.12392680523E+04  0.80419002446E+02 0. -1.
        -24    1    1    2    0    0 -0.84081266608E+02  0.22451553578E+02 -0.26381857082E+03  0.28920785936E+03  0.80419002446E+02 0.  1.
<mgrwt>
<rscale>  0 0.11849450E+03</rscale>
<asrwt>0</asrwt>
<pdfrwt beam="1">  1        2 0.23276046E+00 0.11849450E+03</pdfrwt>
<pdfrwt beam="2">  1       -2 0.23897921E-02 0.11849450E+03</pdfrwt>
<totfact> 0.77716780E+03</totfact>
</mgrwt>
</event>
<event>
 4    1  0.4938540E-001  0.1299334E+03  0.7546771E-02  0.1227555E+00
          1   -1    0    0  501    0  0.00000000000E+00  0.00000000000E+00  0.90988007425E+03  0.90988007425E+03  0.00000000000E+00 0. -1.
         -1   -1    0    0    0  501 -0.00000000000E+00 -0.00000000000E+00 -0.26415911207E+02  0.26415911207E+02  0.00000000000E+00 0.  1.
         24    1    1    2    0    0  0.99458015994E+02 -0.22881593742E+02  0.69711462102E+03  0.70912021200E+03  0.80419002446E+02 0.  0.
        -24    1    1    2    0    0 -0.99458015994E+02  0.22881593742E+02  0.18634954203E+03  0.22717577346E+03  0.80419002446E+02 0.  0.
<mgrwt>
<rscale>  0 0.12993338E+03</rscale>
<asrwt>0</asrwt>
<pdfrwt beam="1">  1        1 0.13998153E+00 0.12993340E+03</pdfrwt>
<pdfrwt beam="2">  1       -1 0.40639870E-02 0.12993340E+03</pdfrwt>
<totfact> 0.43912580E+03</totfact>
</mgrwt>
</event>
<event>
 4    1  0.4938540E-001  0.8464610E+02  0.7546771E-02  0.1316361E+00
          1   -1    0    0  501    0  0.00000000000E+00  0.00000000000E+00  0.52920563256E+02  0.52920563256E+02  0.00000000000E+00 0. -1.
         -1   -1    0    0    0  501 -0.00000000000E+00 -0.00000000000E+00 -0.16942573375E+03  0.16942573375E+03  0.00000000000E+00 0.  1.
         24    1    1    2    0    0 -0.10777313300E+02 -0.24116312181E+02 -0.10808041856E+03  0.13728197196E+03  0.80419002446E+02 0.  1.
        -24    1    1    2    0    0  0.10777313300E+02  0.24116312181E+02 -0.84247519304E+01  0.85064325041E+02  0.80419002446E+02 0. -1.
<mgrwt>
<rscale>  0 0.84646104E+02</rscale>
<asrwt>0</asrwt>
<pdfrwt beam="1">  1        1 0.81416251E-02 0.84646104E+02</pdfrwt>
<pdfrwt beam="2">  1       -1 0.26065498E-01 0.84646104E+02</pdfrwt>
<totfact> 0.99038245E+03</totfact>
</mgrwt>
</event>
<event>
 4    1  0.4938540E-001  0.8256076E+02  0.7546771E-02  0.1321938E+00
         -2   -1    0    0    0  501 -0.00000000000E+00  0.00000000000E+00  0.29737612375E+01  0.29737612375E+01  0.00000000000E+00 0.  1.
          2   -1    0    0  501    0  0.00000000000E+00 -0.00000000000E+00 -0.26301985303E+04  0.26301985303E+04  0.00000000000E+00 0. -1.
         24    1    1    2    0    0 -0.12453698531E+02 -0.13927242529E+02 -0.17856217625E+04  0.17875294004E+04  0.80419002446E+02 0. -1.
        -24    1    1    2    0    0  0.12453698531E+02  0.13927242529E+02 -0.84160300659E+03  0.84564289115E+03  0.80419002446E+02 0.  1.
<mgrwt>
<rscale>  0 0.82560757E+02</rscale>
<asrwt>0</asrwt>
<pdfrwt beam="1">  1        2 0.40464771E+00 0.82560757E+02</pdfrwt>
<pdfrwt beam="2">  1       -2 0.45749971E-03 0.82560757E+02</pdfrwt>
<totfact> 0.21472774E+04</totfact>
</mgrwt>
</event>
<event>
 4    1  0.4938540E-001  0.8323990E+02  0.7546771E-02  0.1320101E+00
          1   -1    0    0  501    0  0.00000000000E+00  0.00000000000E+00  0.46110492943E+03  0.46110492943E+03  0.00000000000E+00 0. -1.
         -1   -1    0    0    0  501 -0.00000000000E+00 -0.00000000000E+00 -0.20957679831E+03  0.20957679831E+03  0.00000000000E+00 0.  1.
         24    1    1    2    0    0  0.20002374174E+02 -0.78466149981E+01 -0.19733121762E+03  0.21416930158E+03  0.80419002446E+02 0.  1.
        -24    1    1    2    0    0 -0.20002374174E+02  0.78466149981E+01  0.44885934873E+03  0.45651242616E+03  0.80419002446E+02 0. -1.
<mgrwt>
<rscale>  0 0.83239896E+02</rscale>
<asrwt>0</asrwt>
<pdfrwt beam="1">  1        1 0.70939220E-01 0.83239896E+02</pdfrwt>
<pdfrwt beam="2">  1       -1 0.32242584E-01 0.83239896E+02</pdfrwt>
<totfact> 0.46136557E+02</totfact>
</mgrwt>
</event>
<event>
 4    1  0.4938540E-001  0.8661381E+02  0.7546771E-02  0.1311265E+00
         -4   -1    0    0    0  501 -0.00000000000E+00  0.00000000000E+00  0.74408651661E+02  0.74408651661E+02  0.00000000000E+00 0.  1.
          4   -1    0    0  501    0  0.00000000000E+00 -0.00000000000E+00 -0.12360427109E+03  0.12360427109E+03  0.00000000000E+00 0. -1.
         24    1    1    2    0    0 -0.96454543115E+01  0.30687149631E+02 -0.67104294761E+02  0.10956704920E+03  0.80419002446E+02 0.  0.
        -24    1    1    2    0    0  0.96454543115E+01 -0.30687149631E+02  0.17908675331E+02  0.88445873549E+02  0.80419002446E+02 0. -1.
<mgrwt>
<rscale>  0 0.86613809E+02</rscale>
<asrwt>0</asrwt>
<pdfrwt beam="1">  1        4 0.19016042E-01 0.86613809E+02</pdfrwt>
<pdfrwt beam="2">  1       -4 0.11447485E-01 0.86613809E+02</pdfrwt>
<totfact> 0.21854489E+03</totfact>
</mgrwt>
</event>
<event>
 4    1  0.4938540E-001  0.8574744E+02  0.7546771E-02  0.1313489E+00
          2   -1    0    0  501    0  0.00000000000E+00  0.00000000000E+00  0.11395985476E+04  0.11395985476E+04  0.00000000000E+00 0. -1.
         -2   -1    0    0    0  501 -0.00000000000E+00 -0.00000000000E+00 -0.13203146600E+02  0.13203146600E+02  0.00000000000E+00 0.  1.
         24    1    1    2    0    0  0.89141172804E+01 -0.28389185751E+02  0.97536784876E+03  0.97912974814E+03  0.80419002446E+02 0.  0.
        -24    1    1    2    0    0 -0.89141172804E+01  0.28389185751E+02  0.15102755220E+03  0.17367194602E+03  0.80419002446E+02 0.  0.
<mgrwt>
<rscale>  0 0.85747439E+02</rscale>
<asrwt>0</asrwt>
<pdfrwt beam="1">  1        2 0.17532278E+00 0.85747439E+02</pdfrwt>
<pdfrwt beam="2">  1       -2 0.20312542E-02 0.85747439E+02</pdfrwt>
<totfact> 0.15226224E+04</totfact>
</mgrwt>
</event>
<event>
 4    1  0.4938540E-001  0.9678830E+02  0.7546771E-02  0.1287198E+00
         -2   -1    0    0    0  501 -0.00000000000E+00  0.00000000000E+00  0.26926479585E+02  0.26926479585E+02  0.00000000000E+00 0.  1.
          2   -1    0    0  501    0  0.00000000000E+00 -0.00000000000E+00 -0.59557876956E+03  0.59557876956E+03  0.00000000000E+00 0. -1.
         24    1    1    2    0    0  0.85129273312E+01  0.53181667263E+02 -0.48504101981E+03  0.49460364588E+03  0.80419002446E+02 0. -1.
        -24    1    1    2    0    0 -0.85129273312E+01 -0.53181667263E+02 -0.83611270163E+02  0.12790160326E+03  0.80419002446E+02 0.  1.
<mgrwt>
<rscale>  0 0.96788303E+02</rscale>
<asrwt>0</asrwt>
<pdfrwt beam="1">  1        2 0.91627495E-01 0.96788303E+02</pdfrwt>
<pdfrwt beam="2">  1       -2 0.41425357E-02 0.96788303E+02</pdfrwt>
<totfact> 0.12295599E+04</totfact>
</mgrwt>
</event>
<event>
 4    1  0.4938540E-001  0.1324696E+03  0.7546771E-02  0.1223837E+00
          2   -1    0    0  501    0  0.00000000000E+00  0.00000000000E+00  0.12767810336E+04  0.12767810336E+04  0.00000000000E+00 0. -1.
         -2   -1    0    0    0  501 -0.00000000000E+00 -0.00000000000E+00 -0.21485698186E+02  0.21485698186E+02  0.00000000000E+00 0.  1.
         24    1    1    2    0    0 -0.43923884052E+01 -0.10517453934E+03  0.10172977801E+04  0.10258864295E+04  0.80419002446E+02 0. -1.
        -24    1    1    2    0    0  0.43923884052E+01  0.10517453934E+03  0.23799755526E+03  0.27238030227E+03  0.80419002446E+02 0.  1.
<mgrwt>
<rscale>  0 0.13246959E+03</rscale>
<asrwt>0</asrwt>
<pdfrwt beam="1">  1        2 0.19642779E+00 0.13246959E+03</pdfrwt>
<pdfrwt beam="2">  1       -2 0.33054930E-02 0.13246959E+03</pdfrwt>
<totfact> 0.64684512E+03</totfact>
</mgrwt>
</event>
<event>
 4    1  0.4938540E-001  0.8833259E+02  0.7546771E-02  0.1306941E+00
          1   -1    0    0  501    0  0.00000000000E+00  0.00000000000E+00  0.28525726180E+03  0.28525726180E+03  0.00000000000E+00 0. -1.
         -1   -1    0    0    0  501 -0.00000000000E+00 -0.00000000000E+00 -0.28257594454E+02  0.28257594454E+02  0.00000000000E+00 0.  1.
         24    1    1    2    0    0 -0.35108235413E+02  0.10141140710E+02  0.10045303561E+03  0.13376643543E+03  0.80419002446E+02 0.  1.
        -24    1    1    2    0    0  0.35108235413E+02 -0.10141140710E+02  0.15654663174E+03  0.17974842083E+03  0.80419002446E+02 0.  0.
<mgrwt>
<rscale>  0 0.88332592E+02</rscale>
<asrwt>0</asrwt>
<pdfrwt beam="1">  1        1 0.43885731E-01 0.88332592E+02</pdfrwt>
<pdfrwt beam="2">  1       -1 0.43473224E-02 0.88332592E+02</pdfrwt>
<totfact> 0.18167531E+04</totfact>
</mgrwt>
</event>
<event>
 4    1  0.4938540E-001  0.8928292E+02  0.7546771E-02  0.1304598E+00
         -2   -1    0    0    0  501 -0.00000000000E+00  0.00000000000E+00  0.17888699449E+03  0.17888699449E+03  0.00000000000E+00 0.  1.
          2   -1    0    0  501    0  0.00000000000E+00 -0.00000000000E+00 -0.39564164629E+03  0.39564164629E+03  0.00000000000E+00 0. -1.
         24    1    1    2    0    0  0.38784049619E+02 -0.14397775867E+00 -0.37898115600E+03  0.38935607841E+03  0.80419002446E+02 0. -1.
        -24    1    1    2    0    0 -0.38784049619E+02  0.14397775867E+00  0.16222650420E+03  0.18517256237E+03  0.80419002446E+02 0.  1.
<mgrwt>
<rscale>  0 0.89282917E+02</rscale>
<asrwt>0</asrwt>
<pdfrwt beam="1">  1        2 0.60867944E-01 0.89282917E+02</pdfrwt>
<pdfrwt beam="2">  1       -2 0.27521077E-01 0.89282917E+02</pdfrwt>
<totfact> 0.95290354E+02</totfact>
</mgrwt>
</event>
<event>
 4    1  0.4938540E-001  0.1087322E+03  0.7546771E-02  0.1262936E+00
         -1   -1    0    0    0  501 -0.00000000000E+00  0.00000000000E+00  0.21886564707E+02  0.21886564707E+02  0.00000000000E+00 0.  1.
          1   -1    0    0  501    0  0.00000000000E+00 -0.00000000000E+00 -0.76579104381E+03  0.76579104381E+03  0.00000000000E+00 0. -1.
         24    1    1    2    0    0 -0.72618828783E+02 -0.90539771761E+01 -0.15818382796E+03  0.19195001480E+03  0.80419002446E+02 0.  1.
        -24    1    1    2    0    0  0.72618828783E+02  0.90539771761E+01 -0.58572065114E+03  0.59572759372E+03  0.80419002446E+02 0. -1.
<mgrwt>
<rscale>  0 0.10873217E+03</rscale>
<asrwt>0</asrwt>
<pdfrwt beam="1">  1        1 0.11781400E+00 0.10873217E+03</pdfrwt>
<pdfrwt beam="2">  1       -1 0.33671639E-02 0.10873217E+03</pdfrwt>
<totfact> 0.74549790E+03</totfact>
</mgrwt>
</event>
<event>
 4    1  0.4938540E-001  0.8126879E+02  0.7546771E-02  0.1325489E+00
          1   -1    0    0  501    0  0.00000000000E+00  0.00000000000E+00  0.20757780428E+04  0.20757780428E+04  0.00000000000E+00 0. -1.
         -1   -1    0    0    0  501 -0.00000000000E+00 -0.00000000000E+00 -0.22304010197E+02  0.22304010197E+02  0.00000000000E+00 0.  1.
         24    1    1    2    0    0  0.38459468619E+01 -0.11072922644E+02  0.55398629537E+02  0.98354588261E+02  0.80419002446E+02 0.  1.
        -24    1    1    2    0    0 -0.38459468619E+01  0.11072922644E+02  0.19980754031E+04  0.19997274647E+04  0.80419002446E+02 0. -1.
<mgrwt>
<rscale>  0 0.81268794E+02</rscale>
<asrwt>0</asrwt>
<pdfrwt beam="1">  1        1 0.31935032E+00 0.81268794E+02</pdfrwt>
<pdfrwt beam="2">  1       -1 0.34313878E-02 0.81268794E+02</pdfrwt>
<totfact> 0.95519637E+02</totfact>
</mgrwt>
</event>
<event>
 4    1  0.4938540E-001  0.9789106E+02  0.7546771E-02  0.1284794E+00
          1   -1    0    0  501    0  0.00000000000E+00  0.00000000000E+00  0.33091698094E+02  0.33091698094E+02  0.00000000000E+00 0. -1.
         -1   -1    0    0    0  501 -0.00000000000E+00 -0.00000000000E+00 -0.42584295093E+03  0.42584295093E+03  0.00000000000E+00 0.  1.
         24    1    1    2    0    0 -0.43958020042E+02 -0.34396760386E+02 -0.32617919149E+03  0.34055179572E+03  0.80419002446E+02 0.  1.
        -24    1    1    2    0    0  0.43958020042E+02  0.34396760386E+02 -0.66572061347E+02  0.11838285331E+03  0.80419002446E+02 0. -1.
<mgrwt>
<rscale>  0 0.97891065E+02</rscale>
<asrwt>0</asrwt>
<pdfrwt beam="1">  1        1 0.50910308E-02 0.97891065E+02</pdfrwt>
<pdfrwt beam="2">  1       -1 0.65514296E-01 0.97891065E+02</pdfrwt>
<totfact> 0.37286348E+03</totfact>
</mgrwt>
</event>
<event>
 4    1  0.4938540E-001  0.1221294E+03  0.7546771E-02  0.1239625E+00
         -2   -1    0    0    0  501 -0.00000000000E+00  0.00000000000E+00  0.42414274525E+02  0.42414274525E+02  0.00000000000E+00 0.  1.
          2   -1    0    0  501    0  0.00000000000E+00 -0.00000000000E+00 -0.57788278805E+03  0.57788278805E+03  0.00000000000E+00 0. -1.
         24    1    1    2    0    0  0.47329219989E+02  0.78792825140E+02 -0.46178442752E+03  0.47766142592E+03  0.80419002446E+02 0. -1.
        -24    1    1    2    0    0 -0.47329219989E+02 -0.78792825140E+02 -0.73684085998E+02  0.14263563665E+03  0.80419002446E+02 0.  1.
<mgrwt>
<rscale>  0 0.12212936E+03</rscale>
<asrwt>0</asrwt>
<pdfrwt beam="1">  1        2 0.88905045E-01 0.12212936E+03</pdfrwt>
<pdfrwt beam="2">  1       -2 0.65252730E-02 0.12212936E+03</pdfrwt>
<totfact> 0.65491437E+03</totfact>
</mgrwt>
</event>
<event>
 4    1  0.4938540E-001  0.9331629E+02  0.7546771E-02  0.1295014E+00
          1   -1    0    0  501    0  0.00000000000E+00  0.00000000000E+00  0.29562454805E+03  0.29562454805E+03  0.00000000000E+00 0. -1.
         -1   -1    0    0    0  501 -0.00000000000E+00 -0.00000000000E+00 -0.30072239275E+02  0.30072239275E+02  0.00000000000E+00 0.  1.
         24    1    1    2    0    0 -0.46261102729E+02 -0.10031186248E+02  0.10946525220E+03  0.14384217641E+03  0.80419002446E+02 0.  0.
        -24    1    1    2    0    0  0.46261102729E+02  0.10031186248E+02  0.15608705658E+03  0.18185461091E+03  0.80419002446E+02 0. -1.
<mgrwt>
<rscale>  0 0.93316292E+02</rscale>
<asrwt>0</asrwt>
<pdfrwt beam="1">  1        1 0.45480698E-01 0.93316292E+02</pdfrwt>
<pdfrwt beam="2">  1       -1 0.46264985E-02 0.93316292E+02</pdfrwt>
<totfact> 0.15974287E+04</totfact>
</mgrwt>
</event>
<event>
 4    1  0.4938540E-001  0.1095518E+03  0.7546771E-02  0.1261402E+00
          2   -1    0    0  501    0  0.00000000000E+00  0.00000000000E+00  0.34240775916E+02  0.34240775916E+02  0.00000000000E+00 0. -1.
         -2   -1    0    0    0  501 -0.00000000000E+00 -0.00000000000E+00 -0.90166558424E+03  0.90166558424E+03  0.00000000000E+00 0.  1.
         24    1    1    2    0    0 -0.70977210419E+02  0.22284814396E+02 -0.67849493307E+02  0.12886096014E+03  0.80419002446E+02 0. -1.
        -24    1    1    2    0    0  0.70977210419E+02 -0.22284814396E+02 -0.79957531501E+03  0.80704540001E+03  0.80419002446E+02 0.  1.
<mgrwt>
<rscale>  0 0.10955178E+03</rscale>
<asrwt>0</asrwt>
<pdfrwt beam="1">  1        2 0.52678124E-02 0.10955178E+03</pdfrwt>
<pdfrwt beam="2">  1       -2 0.13871776E+00 0.10955178E+03</pdfrwt>
<totfact> 0.55172559E+02</totfact>
</mgrwt>
</event>
<event>
 4    1  0.4938540E-001  0.1392010E+03  0.7546771E-02  0.1214408E+00
          1   -1    0    0  501    0  0.00000000000E+00  0.00000000000E+00  0.60884911224E+03  0.60884911224E+03  0.00000000000E+00 0. -1.
         -1   -1    0    0    0  501 -0.00000000000E+00 -0.00000000000E+00 -0.47801614450E+02  0.47801614450E+02  0.00000000000E+00 0.  1.
         24    1    1    2    0    0  0.11344577940E+03 -0.63047071859E+01  0.90713736173E+02  0.16615020939E+03  0.80419002446E+02 0.  1.
        -24    1    1    2    0    0 -0.11344577940E+03  0.63047071859E+01  0.47033376162E+03  0.49050051730E+03  0.80419002446E+02 0. -1.
<mgrwt>
<rscale>  0 0.13920097E+03</rscale>
<asrwt>0</asrwt>
<pdfrwt beam="1">  1        1 0.93669089E-01 0.13920097E+03</pdfrwt>
<pdfrwt beam="2">  1       -1 0.73540949E-02 0.13920097E+03</pdfrwt>
<totfact> 0.32938873E+03</totfact>
</mgrwt>
</event>
<event>
 4    1  0.4938540E-001  0.8250881E+02  0.7546771E-02  0.1322079E+00
         -1   -1    0    0    0  501 -0.00000000000E+00  0.00000000000E+00  0.15240229623E+02  0.15240229623E+02  0.00000000000E+00 0.  1.
          1   -1    0    0  501    0  0.00000000000E+00 -0.00000000000E+00 -0.60939317364E+03  0.60939317364E+03  0.00000000000E+00 0. -1.
         24    1    1    2    0    0 -0.44659286170E+01  0.17903716605E+02 -0.13569991117E+03  0.15881489046E+03  0.80419002446E+02 0.  1.
        -24    1    1    2    0    0  0.44659286170E+01 -0.17903716605E+02 -0.45845303284E+03  0.46581851280E+03  0.80419002446E+02 0. -1.
<mgrwt>
<rscale>  0 0.82508809E+02</rscale>
<asrwt>0</asrwt>
<pdfrwt beam="1">  1        1 0.93752784E-01 0.82508809E+02</pdfrwt>
<pdfrwt beam="2">  1       -1 0.23446510E-02 0.82508809E+02</pdfrwt>
<totfact> 0.16908156E+04</totfact>
</mgrwt>
</event>
<event>
 4    1  0.4938540E-001  0.9604746E+02  0.7546771E-02  0.1288834E+00
          2   -1    0    0  501    0  0.00000000000E+00  0.00000000000E+00  0.22317769794E+04  0.22317769794E+04  0.00000000000E+00 0. -1.
         -2   -1    0    0    0  501 -0.00000000000E+00 -0.00000000000E+00 -0.46024082159E+01  0.46024082159E+01  0.00000000000E+00 0.  1.
         24    1    1    2    0    0 -0.48952932515E+02 -0.19013400423E+02  0.14704929085E+04  0.14736263125E+04  0.80419002446E+02 0. -1.
        -24    1    1    2    0    0  0.48952932515E+02  0.19013400423E+02  0.75668166264E+03  0.76275307507E+03  0.80419002446E+02 0.  1.
<mgrwt>
<rscale>  0 0.96047462E+02</rscale>
<asrwt>0</asrwt>
<pdfrwt beam="1">  1        2 0.34334944E+00 0.96047462E+02</pdfrwt>
<pdfrwt beam="2">  1       -2 0.70806459E-03 0.96047462E+02</pdfrwt>
<totfact> 0.18904529E+04</totfact>
</mgrwt>
</event>
<event>
 4    1  0.4938540E-001  0.8622152E+02  0.7546771E-02  0.1312269E+00
         -2   -1    0    0    0  501 -0.00000000000E+00  0.00000000000E+00  0.67604624854E+02  0.67604624854E+02  0.00000000000E+00 0.  1.
          2   -1    0    0  501    0  0.00000000000E+00 -0.00000000000E+00 -0.15149510835E+03  0.15149510835E+03  0.00000000000E+00 0. -1.
         24    1    1    2    0    0  0.19136758262E+00  0.31094978098E+02 -0.99303174063E+02  0.13151148474E+03  0.80419002446E+02 0. -1.
        -24    1    1    2    0    0 -0.19136758262E+00 -0.31094978098E+02  0.15412690567E+02  0.87588248466E+02  0.80419002446E+02 0.  1.
<mgrwt>
<rscale>  0 0.86221518E+02</rscale>
<asrwt>0</asrwt>
<pdfrwt beam="1">  1        2 0.23306940E-01 0.86221518E+02</pdfrwt>
<pdfrwt beam="2">  1       -2 0.10400712E-01 0.86221518E+02</pdfrwt>
<totfact> 0.13017024E+04</totfact>
</mgrwt>
</event>
<event>
 4    1  0.4938540E-001  0.8210009E+02  0.7546771E-02  0.1323195E+00
         -2   -1    0    0    0  501 -0.00000000000E+00  0.00000000000E+00  0.25168825505E+02  0.25168825505E+02  0.00000000000E+00 0.  1.
          2   -1    0    0  501    0  0.00000000000E+00 -0.00000000000E+00 -0.17863733596E+04  0.17863733596E+04  0.00000000000E+00 0. -1.
         24    1    1    2    0    0 -0.40442016333E+01  0.16026623325E+02 -0.17157225262E+04  0.17176857138E+04  0.80419002446E+02 0.  0.
        -24    1    1    2    0    0  0.40442016333E+01 -0.16026623325E+02 -0.45482007856E+02  0.93856471354E+02  0.80419002446E+02 0.  0.
<mgrwt>
<rscale>  0 0.82100086E+02</rscale>
<asrwt>0</asrwt>
<pdfrwt beam="1">  1        2 0.27482673E+00 0.82100086E+02</pdfrwt>
<pdfrwt beam="2">  1       -2 0.38721261E-02 0.82100086E+02</pdfrwt>
<totfact> 0.27689076E+03</totfact>
</mgrwt>
</event>
<event>
 4    1  0.4938540E-001  0.8179091E+02  0.7546771E-02  0.1324045E+00
          1   -1    0    0  501    0  0.00000000000E+00  0.00000000000E+00  0.43867012197E+02  0.43867012197E+02  0.00000000000E+00 0. -1.
         -1   -1    0    0    0  501 -0.00000000000E+00 -0.00000000000E+00 -0.32439849051E+04  0.32439849051E+04  0.00000000000E+00 0.  1.
         24    1    1    2    0    0 -0.11786281937E+02  0.91443905638E+01 -0.32048790400E+04  0.32059225526E+04  0.80419002446E+02 0.  1.
        -24    1    1    2    0    0  0.11786281937E+02 -0.91443905638E+01  0.47611471083E+01  0.81929364680E+02  0.80419002446E+02 0. -1.
<mgrwt>
<rscale>  0 0.81790906E+02</rscale>
<asrwt>0</asrwt>
<pdfrwt beam="1">  1        1 0.67487672E-02 0.81790906E+02</pdfrwt>
<pdfrwt beam="2">  1       -1 0.49907489E+00 0.81790906E+02</pdfrwt>
<totfact> 0.23091695E+00</totfact>
</mgrwt>
</event>
<event>
 4    1  0.4938540E-001  0.8728120E+02  0.7546771E-02  0.1309572E+00
         -1   -1    0    0    0  501 -0.00000000000E+00  0.00000000000E+00  0.12450987338E+02  0.12450987338E+02  0.00000000000E+00 0.  1.
          1   -1    0    0  501    0  0.00000000000E+00 -0.00000000000E+00 -0.63201091345E+03  0.63201091345E+03  0.00000000000E+00 0. -1.
         24    1    1    2    0    0 -0.33915845708E+02 -0.71256161175E+00 -0.25221330265E+03  0.26688866278E+03  0.80419002446E+02 0.  0.
        -24    1    1    2    0    0  0.33915845708E+02  0.71256161175E+00 -0.36734662346E+03  0.37757323801E+03  0.80419002446E+02 0.  1.
<mgrwt>
<rscale>  0 0.87281202E+02</rscale>
<asrwt>0</asrwt>
<pdfrwt beam="1">  1        1 0.97232411E-01 0.87281202E+02</pdfrwt>
<pdfrwt beam="2">  1       -1 0.19155372E-02 0.87281202E+02</pdfrwt>
<totfact> 0.21594207E+04</totfact>
</mgrwt>
</event>
<event>
 4    1  0.4938540E-001  0.9492815E+02  0.7546771E-02  0.1291338E+00
         -2   -1    0    0    0  501 -0.00000000000E+00  0.00000000000E+00  0.22631241357E+02  0.22631241357E+02  0.00000000000E+00 0.  1.
          2   -1    0    0  501    0  0.00000000000E+00 -0.00000000000E+00 -0.89544666224E+03  0.89544666224E+03  0.00000000000E+00 0. -1.
         24    1    1    2    0    0 -0.49845691079E+02  0.77164988441E+01 -0.77848439279E+03  0.78425079091E+03  0.80419002446E+02 0. -1.
        -24    1    1    2    0    0  0.49845691079E+02 -0.77164988441E+01 -0.94331028086E+02  0.13382711268E+03  0.80419002446E+02 0.  1.
<mgrwt>
<rscale>  0 0.94928148E+02</rscale>
<asrwt>0</asrwt>
<pdfrwt beam="1">  1        2 0.13776102E+00 0.94928148E+02</pdfrwt>
<pdfrwt beam="2">  1       -2 0.34817296E-02 0.94928148E+02</pdfrwt>
<totfact> 0.97530615E+03</totfact>
</mgrwt>
</event>
<event>
 4    1  0.4938540E-001  0.1121193E+03  0.7546771E-02  0.1256695E+00
          2   -1    0    0  501    0  0.00000000000E+00  0.00000000000E+00  0.62679384116E+03  0.62679384116E+03  0.00000000000E+00 0. -1.
         -2   -1    0    0    0  501 -0.00000000000E+00 -0.00000000000E+00 -0.20244806021E+02  0.20244806021E+02  0.00000000000E+00 0.  1.
         24    1    1    2    0    0  0.72328954568E+02  0.29530113584E+02  0.27199783737E+03  0.29419983815E+03  0.80419002446E+02 0. -1.
        -24    1    1    2    0    0 -0.72328954568E+02 -0.29530113584E+02  0.33455119777E+03  0.35283880903E+03  0.80419002446E+02 0.  0.
<mgrwt>
<rscale>  0 0.11211924E+03</rscale>
<asrwt>0</asrwt>
<pdfrwt beam="1">  1        2 0.96429807E-01 0.11211926E+03</pdfrwt>
<pdfrwt beam="2">  1       -2 0.31145860E-02 0.11211926E+03</pdfrwt>
<totfact> 0.17865362E+04</totfact>
</mgrwt>
</event>
<event>
 4    1  0.4938540E-001  0.1479356E+03  0.7546771E-02  0.1203033E+00
          2   -1    0    0  501    0  0.00000000000E+00  0.00000000000E+00  0.63198063070E+03  0.63198063070E+03  0.00000000000E+00 0. -1.
         -2   -1    0    0    0  501 -0.00000000000E+00 -0.00000000000E+00 -0.37384868282E+02  0.37384868282E+02  0.00000000000E+00 0.  1.
         24    1    1    2    0    0  0.12138442506E+03 -0.26144892345E+02  0.38816422768E+03  0.41539910646E+03  0.80419002446E+02 0. -1.
        -24    1    1    2    0    0 -0.12138442506E+03  0.26144892345E+02  0.20643153474E+03  0.25396639252E+03  0.80419002446E+02 0.  1.
<mgrwt>
<rscale>  0 0.14793563E+03</rscale>
<asrwt>0</asrwt>
<pdfrwt beam="1">  1        2 0.97227782E-01 0.14793563E+03</pdfrwt>
<pdfrwt beam="2">  1       -2 0.57515187E-02 0.14793563E+03</pdfrwt>
<totfact> 0.72412048E+03</totfact>
</mgrwt>
</event>
<event>
 4    1  0.4938540E-001  0.9434318E+02  0.7546771E-02  0.1292662E+00
          2   -1    0    0  501    0  0.00000000000E+00  0.00000000000E+00  0.24016161003E+04  0.24016161003E+04  0.00000000000E+00 0. -1.
         -2   -1    0    0    0  501 -0.00000000000E+00 -0.00000000000E+00 -0.25507023167E+02  0.25507023167E+02  0.00000000000E+00 0.  1.
         24    1    1    2    0    0  0.20052856182E+02 -0.45069965507E+02  0.23099937941E+04  0.23119195409E+04  0.80419002446E+02 0. -1.
        -24    1    1    2    0    0 -0.20052856182E+02  0.45069965507E+02  0.66115283026E+02  0.11520358257E+03  0.80419002446E+02 0.  1.
<mgrwt>
<rscale>  0 0.94343176E+02</rscale>
<asrwt>0</asrwt>
<pdfrwt beam="1">  1        2 0.36947922E+00 0.94343176E+02</pdfrwt>
<pdfrwt beam="2">  1       -2 0.39241593E-02 0.94343176E+02</pdfrwt>
<totfact> 0.13246952E+03</totfact>
</mgrwt>
</event>
<event>
 4    1  0.4938540E-001  0.1170334E+03  0.7546771E-02  0.1248073E+00
          2   -1    0    0  501    0  0.00000000000E+00  0.00000000000E+00  0.25691895218E+04  0.25691895218E+04  0.00000000000E+00 0. -1.
         -2   -1    0    0    0  501 -0.00000000000E+00 -0.00000000000E+00 -0.73876749418E+02  0.73876749418E+02  0.00000000000E+00 0.  1.
         24    1    1    2    0    0 -0.81998815605E+02 -0.22489716561E+02  0.25206137727E+04  0.25233292690E+04  0.80419002446E+02 0. -1.
        -24    1    1    2    0    0  0.81998815605E+02  0.22489716561E+02 -0.25301000312E+02  0.11973700215E+03  0.80419002446E+02 0.  1.
<mgrwt>
<rscale>  0 0.11703337E+03</rscale>
<asrwt>0</asrwt>
<pdfrwt beam="1">  1        2 0.39525986E+00 0.11703337E+03</pdfrwt>
<pdfrwt beam="2">  1       -2 0.11365656E-01 0.11703337E+03</pdfrwt>
<totfact> 0.21238980E+02</totfact>
</mgrwt>
</event>
<event>
 4    1  0.4938540E-001  0.1004292E+03  0.7546771E-02  0.1279396E+00
          1   -1    0    0  501    0  0.00000000000E+00  0.00000000000E+00  0.83055617858E+03  0.83055617858E+03  0.00000000000E+00 0. -1.
         -1   -1    0    0    0  501 -0.00000000000E+00 -0.00000000000E+00 -0.12570823111E+02  0.12570823111E+02  0.00000000000E+00 0.  1.
         24    1    1    2    0    0  0.51737439654E+02 -0.30692854185E+02  0.33128664933E+03  0.34617462925E+03  0.80419002446E+02 0.  1.
        -24    1    1    2    0    0 -0.51737439654E+02  0.30692854185E+02  0.48669870614E+03  0.49695237244E+03  0.80419002446E+02 0. -1.
<mgrwt>
<rscale>  0 0.10042923E+03</rscale>
<asrwt>0</asrwt>
<pdfrwt beam="1">  1        1 0.12777783E+00 0.10042923E+03</pdfrwt>
<pdfrwt beam="2">  1       -1 0.19339734E-02 0.10042923E+03</pdfrwt>
<totfact> 0.14600079E+04</totfact>
</mgrwt>
</event>
<event>
 4    1  0.4938540E-001  0.8045235E+02  0.7546771E-02  0.1327773E+00
         -2   -1    0    0    0  501 -0.00000000000E+00  0.00000000000E+00  0.74087745238E+01  0.74087745238E+01  0.00000000000E+00 0.  1.
          2   -1    0    0  501    0  0.00000000000E+00 -0.00000000000E+00 -0.10016209237E+04  0.10016209237E+04  0.00000000000E+00 0. -1.
         24    1    1    2    0    0  0.15636230676E+01  0.17075879944E+01 -0.31676252428E+03  0.32681963453E+03  0.80419002446E+02 0.  1.
        -24    1    1    2    0    0 -0.15636230676E+01 -0.17075879944E+01 -0.67744962487E+03  0.68221006366E+03  0.80419002446E+02 0.  0.
<mgrwt>
<rscale>  0 0.80452336E+02</rscale>
<asrwt>0</asrwt>
<pdfrwt beam="1">  1        2 0.15409541E+00 0.80452346E+02</pdfrwt>
<pdfrwt beam="2">  1       -2 0.11398124E-02 0.80452346E+02</pdfrwt>
<totfact> 0.41245738E+04</totfact>
</mgrwt>
</event>
<event>
 4    1  0.4938540E-001  0.1313923E+03  0.7546771E-02  0.1225404E+00
          1   -1    0    0  501    0  0.00000000000E+00  0.00000000000E+00  0.78853193830E+03  0.78853193830E+03  0.00000000000E+00 0. -1.
         -1   -1    0    0    0  501 -0.00000000000E+00 -0.00000000000E+00 -0.35617007457E+02  0.35617007457E+02  0.00000000000E+00 0.  1.
         24    1    1    2    0    0  0.45855249173E+02  0.93241688461E+02  0.12067228467E+03  0.17839768100E+03  0.80419002446E+02 0.  1.
        -24    1    1    2    0    0 -0.45855249173E+02 -0.93241688461E+02  0.63224264617E+03  0.64575126476E+03  0.80419002446E+02 0. -1.
<mgrwt>
<rscale>  0 0.13139228E+03</rscale>
<asrwt>0</asrwt>
<pdfrwt beam="1">  1        1 0.12131259E+00 0.13139228E+03</pdfrwt>
<pdfrwt beam="2">  1       -1 0.54795402E-02 0.13139228E+03</pdfrwt>
<totfact> 0.35267217E+03</totfact>
</mgrwt>
</event>
<event>
 4    1  0.4938540E-001  0.1906145E+03  0.7546771E-02  0.1157908E+00
          2   -1    0    0  501    0  0.00000000000E+00  0.00000000000E+00  0.89326682434E+03  0.89326682434E+03  0.00000000000E+00 0. -1.
         -2   -1    0    0    0  501 -0.00000000000E+00 -0.00000000000E+00 -0.54276205596E+02  0.54276205596E+02  0.00000000000E+00 0.  1.
         24    1    1    2    0    0 -0.12642424333E+03  0.11782853707E+03  0.65665921609E+03  0.68376545356E+03  0.80419002446E+02 0. -1.
        -24    1    1    2    0    0  0.12642424333E+03 -0.11782853707E+03  0.18233140265E+03  0.26377757637E+03  0.80419002446E+02 0.  1.
<mgrwt>
<rscale>  0 0.19061445E+03</rscale>
<asrwt>0</asrwt>
<pdfrwt beam="1">  1        2 0.13742565E+00 0.19061445E+03</pdfrwt>
<pdfrwt beam="2">  1       -2 0.83501862E-02 0.19061445E+03</pdfrwt>
<totfact> 0.26916069E+03</totfact>
</mgrwt>
</event>
<event>
 4    1  0.4938540E-001  0.8203529E+02  0.7546771E-02  0.1323373E+00
         -2   -1    0    0    0  501 -0.00000000000E+00  0.00000000000E+00  0.12952186473E+02  0.12952186473E+02  0.00000000000E+00 0.  1.
          2   -1    0    0  501    0  0.00000000000E+00 -0.00000000000E+00 -0.64867280510E+03  0.64867280510E+03  0.00000000000E+00 0. -1.
         24    1    1    2    0    0  0.14423008602E+02 -0.73857968856E+01 -0.46543372196E+03  0.47260801799E+03  0.80419002446E+02 0. -1.
        -24    1    1    2    0    0 -0.14423008602E+02  0.73857968856E+01 -0.17028689666E+03  0.18901697358E+03  0.80419002446E+02 0.  1.
<mgrwt>
<rscale>  0 0.82035292E+02</rscale>
<asrwt>0</asrwt>
<pdfrwt beam="1">  1        2 0.99795826E-01 0.82035292E+02</pdfrwt>
<pdfrwt beam="2">  1       -2 0.19926439E-02 0.82035292E+02</pdfrwt>
<totfact> 0.31803604E+04</totfact>
</mgrwt>
</event>
<event>
 4    1  0.4938540E-001  0.1353578E+03  0.7546771E-02  0.1219715E+00
          2   -1    0    0  501    0  0.00000000000E+00  0.00000000000E+00  0.46268988491E+03  0.46268988491E+03  0.00000000000E+00 0. -1.
         -2   -1    0    0    0  501 -0.00000000000E+00 -0.00000000000E+00 -0.48087916134E+02  0.48087916134E+02  0.00000000000E+00 0.  1.
         24    1    1    2    0    0 -0.98419824354E+02  0.46562389189E+02  0.31460797399E+03  0.34249074611E+03  0.80419002446E+02 0. -1.
        -24    1    1    2    0    0  0.98419824354E+02 -0.46562389189E+02  0.99993994778E+02  0.16828705494E+03  0.80419002446E+02 0.  1.
<mgrwt>
<rscale>  0 0.13535780E+03</rscale>
<asrwt>0</asrwt>
<pdfrwt beam="1">  1        2 0.71183056E-01 0.13535780E+03</pdfrwt>
<pdfrwt beam="2">  1       -2 0.73981412E-02 0.13535780E+03</pdfrwt>
<totfact> 0.69506797E+03</totfact>
</mgrwt>
</event>
<event>
 4    1  0.4938540E-001  0.8178283E+02  0.7546771E-02  0.1324067E+00
         -2   -1    0    0    0  501 -0.00000000000E+00  0.00000000000E+00  0.94485285777E+01  0.94485285777E+01  0.00000000000E+00 0.  1.
          2   -1    0    0  501    0  0.00000000000E+00 -0.00000000000E+00 -0.13372432359E+04  0.13372432359E+04  0.00000000000E+00 0. -1.
         24    1    1    2    0    0 -0.60931255837E+01 -0.13567968703E+02 -0.11258350613E+04  0.11288015845E+04  0.80419002446E+02 0.  0.
        -24    1    1    2    0    0  0.60931255837E+01  0.13567968703E+02 -0.20195964594E+03  0.21789017990E+03  0.80419002446E+02 0.  1.
<mgrwt>
<rscale>  0 0.81782834E+02</rscale>
<asrwt>0</asrwt>
<pdfrwt beam="1">  1        2 0.20572974E+00 0.81782834E+02</pdfrwt>
<pdfrwt beam="2">  1       -2 0.14536197E-02 0.81782834E+02</pdfrwt>
<totfact> 0.19170235E+04</totfact>
</mgrwt>
</event>
<event>
 4    1  0.4938540E-001  0.1029091E+03  0.7546771E-02  0.1274295E+00
          2   -1    0    0  501    0  0.00000000000E+00  0.00000000000E+00  0.10000078814E+04  0.10000078814E+04  0.00000000000E+00 0. -1.
         -2   -1    0    0    0  501 -0.00000000000E+00 -0.00000000000E+00 -0.17816979023E+02  0.17816979023E+02  0.00000000000E+00 0.  1.
         24    1    1    2    0    0 -0.57559116244E+02 -0.28460621758E+02  0.81521010901E+03  0.82167986262E+03  0.80419002446E+02 0. -1.
        -24    1    1    2    0    0  0.57559116244E+02  0.28460621758E+02  0.16698079335E+03  0.19614499779E+03  0.80419002446E+02 0.  1.
<mgrwt>
<rscale>  0 0.10290906E+03</rscale>
<asrwt>0</asrwt>
<pdfrwt beam="1">  1        2 0.15384732E+00 0.10290906E+03</pdfrwt>
<pdfrwt beam="2">  1       -2 0.27410745E-02 0.10290906E+03</pdfrwt>
<totfact> 0.12016233E+04</totfact>
</mgrwt>
</event>
<event>
 4    1  0.4938540E-001  0.9263612E+02  0.7546771E-02  0.1296591E+00
          2   -1    0    0  501    0  0.00000000000E+00  0.00000000000E+00  0.32152559838E+03  0.32152559838E+03  0.00000000000E+00 0. -1.
         -2   -1    0    0    0  501 -0.00000000000E+00 -0.00000000000E+00 -0.43588421363E+02  0.43588421363E+02  0.00000000000E+00 0.  1.
         24    1    1    2    0    0 -0.52570120612E+01  0.45679296198E+02  0.25263672191E+03  0.26908504880E+03  0.80419002446E+02 0. -1.
        -24    1    1    2    0    0  0.52570120612E+01 -0.45679296198E+02  0.25300455108E+02  0.96028970941E+02  0.80419002446E+02 0.  1.
<mgrwt>
<rscale>  0 0.92636117E+02</rscale>
<asrwt>0</asrwt>
<pdfrwt beam="1">  1        2 0.49465475E-01 0.92636117E+02</pdfrwt>
<pdfrwt beam="2">  1       -2 0.67059112E-02 0.92636117E+02</pdfrwt>
<totfact> 0.11548613E+04</totfact>
</mgrwt>
</event>
<event>
 4    1  0.4938540E-001  0.8326706E+02  0.7546771E-02  0.1320028E+00
         -3   -1    0    0    0  501 -0.00000000000E+00  0.00000000000E+00  0.42134026944E+01  0.42134026944E+01  0.00000000000E+00 0.  1.
          3   -1    0    0  501    0  0.00000000000E+00 -0.00000000000E+00 -0.18369538183E+04  0.18369538183E+04  0.00000000000E+00 0. -1.
         24    1    1    2    0    0  0.20001858286E+02  0.81309472940E+01 -0.61921780736E+03  0.62479124157E+03  0.80419002446E+02 0.  1.
        -24    1    1    2    0    0 -0.20001858286E+02 -0.81309472940E+01 -0.12135226083E+04  0.12163759795E+04  0.80419002446E+02 0. -1.
<mgrwt>
<rscale>  0 0.83267056E+02</rscale>
<asrwt>0</asrwt>
<pdfrwt beam="1">  1        3 0.28260792E+00 0.83267056E+02</pdfrwt>
<pdfrwt beam="2">  1       -3 0.64821663E-03 0.83267056E+02</pdfrwt>
<totfact> 0.63961128E+02</totfact>
</mgrwt>
</event>
<event>
 4    1  0.4938540E-001  0.8431981E+02  0.7546771E-02  0.1317221E+00
          1   -1    0    0  501    0  0.00000000000E+00  0.00000000000E+00  0.17802252138E+04  0.17802252138E+04  0.00000000000E+00 0. -1.
         -1   -1    0    0    0  501 -0.00000000000E+00 -0.00000000000E+00 -0.48321978031E+01  0.48321978031E+01  0.00000000000E+00 0.  1.
         24    1    1    2    0    0 -0.11700814700E+02  0.22487894042E+02  0.51592190632E+03  0.52276691155E+03  0.80419002446E+02 0.  1.
        -24    1    1    2    0    0  0.11700814700E+02 -0.22487894042E+02  0.12594711097E+04  0.12622905001E+04  0.80419002446E+02 0. -1.
<mgrwt>
<rscale>  0 0.84319810E+02</rscale>
<asrwt>0</asrwt>
<pdfrwt beam="1">  1        1 0.27388028E+00 0.84319810E+02</pdfrwt>
<pdfrwt beam="2">  1       -1 0.74341646E-03 0.84319810E+02</pdfrwt>
<totfact> 0.12801372E+04</totfact>
</mgrwt>
</event>
<event>
 4    1  0.4938540E-001  0.1160611E+03  0.7546771E-02  0.1249740E+00
         -2   -1    0    0    0  501 -0.00000000000E+00  0.00000000000E+00  0.23641878050E+02  0.23641878050E+02  0.00000000000E+00 0.  1.
          2   -1    0    0  501    0  0.00000000000E+00 -0.00000000000E+00 -0.11849671759E+04  0.11849671759E+04  0.00000000000E+00 0. -1.
         24    1    1    2    0    0  0.31454934091E+02  0.77547140687E+02 -0.10160878005E+04  0.10226947767E+04  0.80419002446E+02 0. -1.
        -24    1    1    2    0    0 -0.31454934091E+02 -0.77547140687E+02 -0.14523749728E+03  0.18591427723E+03  0.80419002446E+02 0.  1.
<mgrwt>
<rscale>  0 0.11606114E+03</rscale>
<asrwt>0</asrwt>
<pdfrwt beam="1">  1        2 0.18230262E+00 0.11606114E+03</pdfrwt>
<pdfrwt beam="2">  1       -2 0.36372124E-02 0.11606114E+03</pdfrwt>
<totfact> 0.62729231E+03</totfact>
</mgrwt>
</event>
<event>
 4    1  0.4938540E-001  0.8673521E+02  0.7546771E-02  0.1310956E+00
          3   -1    0    0  501    0  0.00000000000E+00  0.00000000000E+00  0.17820527074E+02  0.17820527074E+02  0.00000000000E+00 0. -1.
         -3   -1    0    0    0  501 -0.00000000000E+00 -0.00000000000E+00 -0.58461914050E+03  0.58461914050E+03  0.00000000000E+00 0.  1.
         24    1    1    2    0    0 -0.99764185901E+01 -0.30923312386E+02 -0.44219105996E+03  0.45061727624E+03  0.80419002446E+02 0.  1.
        -24    1    1    2    0    0  0.99764185901E+01  0.30923312386E+02 -0.12460755346E+03  0.15182239134E+03  0.80419002446E+02 0. -1.
<mgrwt>
<rscale>  0 0.86735207E+02</rscale>
<asrwt>0</asrwt>
<pdfrwt beam="1">  1        3 0.27416197E-02 0.86735207E+02</pdfrwt>
<pdfrwt beam="2">  1       -3 0.89941400E-01 0.86735207E+02</pdfrwt>
<totfact> 0.14290965E+03</totfact>
</mgrwt>
</event>
<event>
 4    1  0.4938540E-001  0.8143855E+02  0.7546771E-02  0.1325018E+00
         -1   -1    0    0    0  501 -0.00000000000E+00  0.00000000000E+00  0.12854904300E+02  0.12854904300E+02  0.00000000000E+00 0.  1.
          1   -1    0    0  501    0  0.00000000000E+00 -0.00000000000E+00 -0.32691809420E+04  0.32691809420E+04  0.00000000000E+00 0. -1.
         24    1    1    2    0    0 -0.15360888961E+01 -0.12753886613E+02 -0.12219168783E+03  0.14684360974E+03  0.80419002446E+02 0.  1.
        -24    1    1    2    0    0  0.15360888961E+01  0.12753886613E+02 -0.31341343498E+04  0.31351922365E+04  0.80419002446E+02 0. -1.
<mgrwt>
<rscale>  0 0.81438548E+02</rscale>
<asrwt>0</asrwt>
<pdfrwt beam="1">  1        1 0.50295058E+00 0.81438548E+02</pdfrwt>
<pdfrwt beam="2">  1       -1 0.19776789E-02 0.81438548E+02</pdfrwt>
<totfact> 0.34653453E+02</totfact>
</mgrwt>
</event>
<event>
 4    1  0.4938540E-001  0.8467593E+02  0.7546771E-02  0.1316282E+00
          4   -1    0    0  501    0  0.00000000000E+00  0.00000000000E+00  0.28092802077E+03  0.28092802077E+03  0.00000000000E+00 0. -1.
         -4   -1    0    0    0  501 -0.00000000000E+00 -0.00000000000E+00 -0.28011354436E+03  0.28011354436E+03  0.00000000000E+00 0.  1.
         24    1    1    2    0    0  0.22511050221E+02 -0.14001757153E+02  0.26784299086E+03  0.28090902494E+03  0.80419002446E+02 0. -1.
        -24    1    1    2    0    0 -0.22511050221E+02  0.14001757153E+02 -0.26702851445E+03  0.28013254019E+03  0.80419002446E+02 0.  1.
<mgrwt>
<rscale>  0 0.84675927E+02</rscale>
<asrwt>0</asrwt>
<pdfrwt beam="1">  1        4 0.43219696E-01 0.84675927E+02</pdfrwt>
<pdfrwt beam="2">  1       -4 0.43094391E-01 0.84675927E+02</pdfrwt>
<totfact> 0.42712568E+01</totfact>
</mgrwt>
</event>
<event>
 4    1  0.4938540E-001  0.8382636E+02  0.7546771E-02  0.1318531E+00
          1   -1    0    0  501    0  0.00000000000E+00  0.00000000000E+00  0.75381567115E+02  0.75381567115E+02  0.00000000000E+00 0. -1.
         -1   -1    0    0    0  501 -0.00000000000E+00 -0.00000000000E+00 -0.30879775638E+03  0.30879775638E+03  0.00000000000E+00 0.  1.
         24    1    1    2    0    0  0.15277378143E+02  0.18062255163E+02 -0.27720686475E+03  0.28960404894E+03  0.80419002446E+02 0.  1.
        -24    1    1    2    0    0 -0.15277378143E+02 -0.18062255163E+02  0.43790675479E+02  0.94575274558E+02  0.80419002446E+02 0. -1.
<mgrwt>
<rscale>  0 0.83826364E+02</rscale>
<asrwt>0</asrwt>
<pdfrwt beam="1">  1        1 0.11597164E-01 0.83826364E+02</pdfrwt>
<pdfrwt beam="2">  1       -1 0.47507348E-01 0.83826364E+02</pdfrwt>
<totfact> 0.22457105E+03</totfact>
</mgrwt>
</event>
<event>
 4    1  0.4938540E-001  0.1641348E+03  0.7546771E-02  0.1184106E+00
          2   -1    0    0  501    0  0.00000000000E+00  0.00000000000E+00  0.28558783016E+04  0.28558783016E+04  0.00000000000E+00 0. -1.
         -2   -1    0    0    0  501 -0.00000000000E+00 -0.00000000000E+00 -0.99989507928E+01  0.99989507928E+01  0.00000000000E+00 0.  1.
         24    1    1    2    0    0  0.98671193296E+02  0.10361952307E+03  0.17637730908E+04  0.17713937286E+04  0.80419002446E+02 0.  1.
        -24    1    1    2    0    0 -0.98671193296E+02 -0.10361952307E+03  0.10821062600E+04  0.10944835238E+04  0.80419002446E+02 0. -1.
<mgrwt>
<rscale>  0 0.16413478E+03</rscale>
<asrwt>0</asrwt>
<pdfrwt beam="1">  1        2 0.43936524E+00 0.16413478E+03</pdfrwt>
<pdfrwt beam="2">  1       -2 0.15383024E-02 0.16413478E+03</pdfrwt>
<totfact> 0.29084094E+03</totfact>
</mgrwt>
</event>
<event>
 4    1  0.4938540E-001  0.8432018E+02  0.7546771E-02  0.1317220E+00
          2   -1    0    0  501    0  0.00000000000E+00  0.00000000000E+00  0.55542865647E+03  0.55542865647E+03  0.00000000000E+00 0. -1.
         -2   -1    0    0    0  501 -0.00000000000E+00 -0.00000000000E+00 -0.25504556697E+02  0.25504556697E+02  0.00000000000E+00 0.  1.
         24    1    1    2    0    0  0.31604157054E+00  0.25349109678E+02  0.46996238593E+03  0.47746679193E+03  0.80419002446E+02 0. -1.
        -24    1    1    2    0    0 -0.31604157054E+00 -0.25349109678E+02  0.59961713838E+02  0.10346642124E+03  0.80419002446E+02 0.  1.
<mgrwt>
<rscale>  0 0.84320183E+02</rscale>
<asrwt>0</asrwt>
<pdfrwt beam="1">  1        2 0.85450554E-01 0.84320183E+02</pdfrwt>
<pdfrwt beam="2">  1       -2 0.39237784E-02 0.84320183E+02</pdfrwt>
<totfact> 0.14218212E+04</totfact>
</mgrwt>
</event>
<event>
 4    1  0.4938540E-001  0.8745579E+02  0.7546771E-02  0.1309132E+00
         -2   -1    0    0    0  501 -0.00000000000E+00  0.00000000000E+00  0.25305534533E+02  0.25305534533E+02  0.00000000000E+00 0.  1.
          2   -1    0    0  501    0  0.00000000000E+00 -0.00000000000E+00 -0.58611865085E+03  0.58611865085E+03  0.00000000000E+00 0. -1.
         24    1    1    2    0    0  0.22940217132E+02 -0.25593874125E+02 -0.49316217770E+03  0.50085671546E+03  0.80419002446E+02 0. -1.
        -24    1    1    2    0    0 -0.22940217132E+02  0.25593874125E+02 -0.67650938620E+02  0.11056746992E+03  0.80419002446E+02 0.  1.
<mgrwt>
<rscale>  0 0.87455794E+02</rscale>
<asrwt>0</asrwt>
<pdfrwt beam="1">  1        2 0.90172095E-01 0.87455794E+02</pdfrwt>
<pdfrwt beam="2">  1       -2 0.38931594E-02 0.87455794E+02</pdfrwt>
<totfact> 0.13598000E+04</totfact>
</mgrwt>
</event>
<event>
 4    1  0.4938540E-001  0.1091412E+03  0.7546771E-02  0.1262169E+00
          4   -1    0    0  501    0  0.00000000000E+00  0.00000000000E+00  0.21675807850E+03  0.21675807850E+03  0.00000000000E+00 0. -1.
         -4   -1    0    0    0  501 -0.00000000000E+00 -0.00000000000E+00 -0.19227774485E+03  0.19227774485E+03  0.00000000000E+00 0.  1.
         24    1    1    2    0    0  0.20548016940E+02 -0.70868624002E+02  0.18507811772E+03  0.21486206851E+03  0.80419002446E+02 0. -1.
        -24    1    1    2    0    0 -0.20548016940E+02  0.70868624002E+02 -0.16059778407E+03  0.19417375485E+03  0.80419002446E+02 0.  1.
<mgrwt>
<rscale>  0 0.10914119E+03</rscale>
<asrwt>0</asrwt>
<pdfrwt beam="1">  1        4 0.33347397E-01 0.10914119E+03</pdfrwt>
<pdfrwt beam="2">  1       -4 0.29581191E-01 0.10914119E+03</pdfrwt>
<totfact> 0.15249239E+02</totfact>
</mgrwt>
</event>
<event>
 4    1  0.4938540E-001  0.8151499E+02  0.7546771E-02  0.1324806E+00
          2   -1    0    0  501    0  0.00000000000E+00  0.00000000000E+00  0.30145206556E+03  0.30145206556E+03  0.00000000000E+00 0. -1.
         -2   -1    0    0    0  501 -0.00000000000E+00 -0.00000000000E+00 -0.27904323494E+02  0.27904323494E+02  0.00000000000E+00 0.  1.
         24    1    1    2    0    0  0.13318059052E+02 -0.32786174375E+00  0.21225257936E+03  0.22736721749E+03  0.80419002446E+02 0. -1.
        -24    1    1    2    0    0 -0.13318059052E+02  0.32786174375E+00  0.61295162700E+02  0.10198917156E+03  0.80419002446E+02 0. -1.
<mgrwt>
<rscale>  0 0.81514993E+02</rscale>
<asrwt>0</asrwt>
<pdfrwt beam="1">  1        2 0.46377239E-01 0.81514993E+02</pdfrwt>
<pdfrwt beam="2">  1       -2 0.42929731E-02 0.81514993E+02</pdfrwt>
<totfact> 0.23694318E+04</totfact>
</mgrwt>
</event>
<event>
 4    1  0.4938540E-001  0.8256464E+02  0.7546771E-02  0.1321927E+00
          2   -1    0    0  501    0  0.00000000000E+00  0.00000000000E+00  0.13531116952E+04  0.13531116952E+04  0.00000000000E+00 0. -1.
         -2   -1    0    0    0  501 -0.00000000000E+00 -0.00000000000E+00 -0.51190805987E+01  0.51190805987E+01  0.00000000000E+00 0.  1.
         24    1    1    2    0    0  0.13206977363E+02  0.13239183597E+02  0.58850423629E+03  0.59426774464E+03  0.80419002446E+02 0.  0.
        -24    1    1    2    0    0 -0.13206977363E+02 -0.13239183597E+02  0.75948837830E+03  0.76396303115E+03  0.80419002446E+02 0.  0.
<mgrwt>
<rscale>  0 0.82564629E+02</rscale>
<asrwt>0</asrwt>
<pdfrwt beam="1">  1        2 0.20817075E+00 0.82564639E+02</pdfrwt>
<pdfrwt beam="2">  1       -2 0.78755194E-03 0.82564639E+02</pdfrwt>
<totfact> 0.44763074E+04</totfact>
</mgrwt>
</event>
<event>
 4    1  0.4938540E-001  0.1119396E+03  0.7546771E-02  0.1257020E+00
         -1   -1    0    0    0  501 -0.00000000000E+00  0.00000000000E+00  0.18617454917E+02  0.18617454917E+02  0.00000000000E+00 0.  1.
          1   -1    0    0  501    0  0.00000000000E+00 -0.00000000000E+00 -0.74581387069E+03  0.74581387069E+03  0.00000000000E+00 0. -1.
         24    1    1    2    0    0  0.41519894624E+02  0.65873759631E+02 -0.24421246499E+03  0.26864511510E+03  0.80419002446E+02 0. -1.
        -24    1    1    2    0    0 -0.41519894624E+02 -0.65873759631E+02 -0.48298395079E+03  0.49578621051E+03  0.80419002446E+02 0.  1.
<mgrwt>
<rscale>  0 0.11193958E+03</rscale>
<asrwt>0</asrwt>
<pdfrwt beam="1">  1        1 0.11474060E+00 0.11193958E+03</pdfrwt>
<pdfrwt beam="2">  1       -1 0.28642236E-02 0.11193958E+03</pdfrwt>
<totfact> 0.98139819E+03</totfact>
</mgrwt>
</event>
<event>
 4    1  0.4938540E-001  0.8275871E+02  0.7546771E-02  0.1321400E+00
          2   -1    0    0  501    0  0.00000000000E+00  0.00000000000E+00  0.95126397200E+03  0.95126397200E+03  0.00000000000E+00 0. -1.
         -2   -1    0    0    0  501 -0.00000000000E+00 -0.00000000000E+00 -0.26056035483E+02  0.26056035483E+02  0.00000000000E+00 0.  1.
         24    1    1    2    0    0 -0.12197175678E+01  0.19501294753E+02  0.87830297453E+03  0.88219335706E+03  0.80419002446E+02 0. -1.
        -24    1    1    2    0    0  0.12197175678E+01 -0.19501294753E+02  0.46904961981E+02  0.95126650423E+02  0.80419002446E+02 0.  1.
<mgrwt>
<rscale>  0 0.82758710E+02</rscale>
<asrwt>0</asrwt>
<pdfrwt beam="1">  1        2 0.14634828E+00 0.82758710E+02</pdfrwt>
<pdfrwt beam="2">  1       -2 0.40086216E-02 0.82758710E+02</pdfrwt>
<totfact> 0.72718512E+03</totfact>
</mgrwt>
</event>
<event>
 4    1  0.4938540E-001  0.8183493E+02  0.7546771E-02  0.1323923E+00
          1   -1    0    0  501    0  0.00000000000E+00  0.00000000000E+00  0.72665055094E+03  0.72665055094E+03  0.00000000000E+00 0. -1.
         -1   -1    0    0    0  501 -0.00000000000E+00 -0.00000000000E+00 -0.14806802372E+02  0.14806802372E+02  0.00000000000E+00 0.  1.
         24    1    1    2    0    0 -0.14535739775E+02  0.42955404953E+01  0.12812124421E+03  0.15202634170E+03  0.80419002446E+02 0.  1.
        -24    1    1    2    0    0  0.14535739775E+02 -0.42955404953E+01  0.58372250437E+03  0.58943101162E+03  0.80419002446E+02 0. -1.
<mgrwt>
<rscale>  0 0.81834927E+02</rscale>
<asrwt>0</asrwt>
<pdfrwt beam="1">  1        1 0.11179236E+00 0.81834927E+02</pdfrwt>
<pdfrwt beam="2">  1       -1 0.22779702E-02 0.81834927E+02</pdfrwt>
<totfact> 0.13815033E+04</totfact>
</mgrwt>
</event>
<event>
 4    1  0.4938540E-001  0.8851303E+02  0.7546771E-02  0.1306493E+00
         -2   -1    0    0    0  501 -0.00000000000E+00  0.00000000000E+00  0.31906007899E+01  0.31906007899E+01  0.00000000000E+00 0.  1.
          2   -1    0    0  501    0  0.00000000000E+00 -0.00000000000E+00 -0.24588473689E+04  0.24588473689E+04  0.00000000000E+00 0. -1.
         24    1    1    2    0    0 -0.35363200310E+02 -0.10806655244E+02 -0.12731733229E+04  0.12762463970E+04  0.80419002446E+02 0.  1.
        -24    1    1    2    0    0  0.35363200310E+02  0.10806655244E+02 -0.11824834452E+04  0.11857915727E+04  0.80419002446E+02 0.  0.
<mgrwt>
<rscale>  0 0.88513026E+02</rscale>
<asrwt>0</asrwt>
<pdfrwt beam="1">  1        2 0.37828424E+00 0.88513026E+02</pdfrwt>
<pdfrwt beam="2">  1       -2 0.49086162E-03 0.88513026E+02</pdfrwt>
<totfact> 0.24043542E+04</totfact>
</mgrwt>
</event>
<event>
 4    1  0.4938540E-001  0.9785506E+02  0.7546771E-02  0.1284872E+00
          2   -1    0    0  501    0  0.00000000000E+00  0.00000000000E+00  0.82367628070E+03  0.82367628070E+03  0.00000000000E+00 0. -1.
         -2   -1    0    0    0  501 -0.00000000000E+00 -0.00000000000E+00 -0.15087447590E+02  0.15087447590E+02  0.00000000000E+00 0.  1.
         24    1    1    2    0    0  0.40280506614E+02 -0.38547088592E+02  0.60518736754E+03  0.61304760259E+03  0.80419002446E+02 0.  1.
        -24    1    1    2    0    0 -0.40280506614E+02  0.38547088592E+02  0.20340146557E+03  0.22571612570E+03  0.80419002446E+02 0.  0.
<mgrwt>
<rscale>  0 0.97855062E+02</rscale>
<asrwt>0</asrwt>
<pdfrwt beam="1">  1        2 0.12671939E+00 0.97855062E+02</pdfrwt>
<pdfrwt beam="2">  1       -2 0.23211464E-02 0.97855062E+02</pdfrwt>
<totfact> 0.19584885E+04</totfact>
</mgrwt>
</event>
<event>
 4    1  0.4938540E-001  0.8676928E+02  0.7546771E-02  0.1310869E+00
          1   -1    0    0  501    0  0.00000000000E+00  0.00000000000E+00  0.14842703182E+03  0.14842703182E+03  0.00000000000E+00 0. -1.
         -1   -1    0    0    0  501 -0.00000000000E+00 -0.00000000000E+00 -0.12001017417E+03  0.12001017417E+03  0.00000000000E+00 0.  1.
         24    1    1    2    0    0 -0.11847452841E+02 -0.30353421879E+02 -0.87773906829E+02  0.12342271684E+03  0.80419002446E+02 0.  1.
        -24    1    1    2    0    0  0.11847452841E+02  0.30353421879E+02  0.11619076447E+03  0.14501448914E+03  0.80419002446E+02 0. -1.
<mgrwt>
<rscale>  0 0.86769282E+02</rscale>
<asrwt>0</asrwt>
<pdfrwt beam="1">  1        1 0.22834928E-01 0.86769282E+02</pdfrwt>
<pdfrwt beam="2">  1       -1 0.18463104E-01 0.86769282E+02</pdfrwt>
<totfact> 0.45893077E+03</totfact>
</mgrwt>
</event>
<event>
 4    1  0.4938540E-001  0.1152614E+03  0.7546771E-02  0.1251125E+00
          2   -1    0    0  501    0  0.00000000000E+00  0.00000000000E+00  0.24896781725E+03  0.24896781725E+03  0.00000000000E+00 0. -1.
         -2   -1    0    0    0  501 -0.00000000000E+00 -0.00000000000E+00 -0.54926187649E+02  0.54926187649E+02  0.00000000000E+00 0.  1.
         24    1    1    2    0    0 -0.67788335289E+02  0.47145730067E+02  0.12266996991E+03  0.16832443595E+03  0.80419002446E+02 0. -1.
        -24    1    1    2    0    0  0.67788335289E+02 -0.47145730067E+02  0.71371659694E+02  0.13556956896E+03  0.80419002446E+02 0.  1.
<mgrwt>
<rscale>  0 0.11526142E+03</rscale>
<asrwt>0</asrwt>
<pdfrwt beam="1">  1        2 0.38302740E-01 0.11526142E+03</pdfrwt>
<pdfrwt beam="2">  1       -2 0.84501829E-02 0.11526142E+03</pdfrwt>
<totfact> 0.10815053E+04</totfact>
</mgrwt>
</event>
<event>
 4    1  0.4938540E-001  0.8041964E+02  0.7546771E-02  0.1327865E+00
         -2   -1    0    0    0  501 -0.00000000000E+00  0.00000000000E+00  0.90120788294E+02  0.90120788294E+02  0.00000000000E+00 0.  1.
          2   -1    0    0  501    0  0.00000000000E+00 -0.00000000000E+00 -0.12491692072E+03  0.12491692072E+03  0.00000000000E+00 0. -1.
         24    1    1    2    0    0 -0.29717171172E+00 -0.11678864981E+00 -0.87534319633E+02  0.11886788893E+03  0.80419002446E+02 0. -1.
        -24    1    1    2    0    0  0.29717171172E+00  0.11678864981E+00  0.52738187208E+02  0.96169820084E+02  0.80419002446E+02 0.  0.
<mgrwt>
<rscale>  0 0.80419636E+02</rscale>
<asrwt>0</asrwt>
<pdfrwt beam="1">  1        2 0.19217988E-01 0.80419636E+02</pdfrwt>
<pdfrwt beam="2">  1       -2 0.13864737E-01 0.80419636E+02</pdfrwt>
<totfact> 0.10168120E+04</totfact>
</mgrwt>
</event>
<event>
 4    1  0.4938540E-001  0.1123917E+03  0.7546771E-02  0.1256204E+00
         -1   -1    0    0    0  501 -0.00000000000E+00  0.00000000000E+00  0.56322348861E+03  0.56322348861E+03  0.00000000000E+00 0.  1.
          1   -1    0    0  501    0  0.00000000000E+00 -0.00000000000E+00 -0.45247896161E+02  0.45247896161E+02  0.00000000000E+00 0. -1.
         24    1    1    2    0    0 -0.16437165737E+01  0.78498290162E+02  0.47504517461E+03  0.48815962270E+03  0.80419002446E+02 0.  1.
        -24    1    1    2    0    0  0.16437165737E+01 -0.78498290162E+02  0.42930417844E+02  0.12031176207E+03  0.80419002446E+02 0. -1.
<mgrwt>
<rscale>  0 0.11239172E+03</rscale>
<asrwt>0</asrwt>
<pdfrwt beam="1">  1        1 0.69612152E-02 0.11239172E+03</pdfrwt>
<pdfrwt beam="2">  1       -1 0.86649763E-01 0.11239172E+03</pdfrwt>
<totfact> 0.14084384E+03</totfact>
</mgrwt>
</event>
<event>
 4    1  0.4938540E-001  0.8497274E+02  0.7546771E-02  0.1315504E+00
          2   -1    0    0  501    0  0.00000000000E+00  0.00000000000E+00  0.78205123895E+03  0.78205123895E+03  0.00000000000E+00 0. -1.
         -2   -1    0    0    0  501 -0.00000000000E+00 -0.00000000000E+00 -0.95438070376E+01  0.95438070376E+01  0.00000000000E+00 0.  1.
         24    1    1    2    0    0 -0.26187895651E+02  0.82063733433E+01  0.45772586450E+03  0.46554627421E+03  0.80419002446E+02 0.  1.
        -24    1    1    2    0    0  0.26187895651E+02 -0.82063733433E+01  0.31478156741E+03  0.32604877178E+03  0.80419002446E+02 0. -1.
<mgrwt>
<rscale>  0 0.84972739E+02</rscale>
<asrwt>0</asrwt>
<pdfrwt beam="1">  1        2 0.12031552E+00 0.84972739E+02</pdfrwt>
<pdfrwt beam="2">  1       -2 0.14682786E-02 0.84972739E+02</pdfrwt>
<totfact> 0.39675748E+04</totfact>
</mgrwt>
</event>
<event>
 4    1  0.4938540E-001  0.9367800E+02  0.7546771E-02  0.1294182E+00
          1   -1    0    0  501    0  0.00000000000E+00  0.00000000000E+00  0.62112267236E+03  0.62112267236E+03  0.00000000000E+00 0. -1.
         -1   -1    0    0    0  501 -0.00000000000E+00 -0.00000000000E+00 -0.40660489558E+02  0.40660489558E+02  0.00000000000E+00 0.  1.
         24    1    1    2    0    0 -0.41370782547E+02  0.24429698933E+02  0.22940391234E+02  0.96445991844E+02  0.80419002446E+02 0.  1.
        -24    1    1    2    0    0  0.41370782547E+02 -0.24429698933E+02  0.55752179157E+03  0.56533717007E+03  0.80419002446E+02 0. -1.
<mgrwt>
<rscale>  0 0.93678001E+02</rscale>
<asrwt>0</asrwt>
<pdfrwt beam="1">  1        1 0.95557327E-01 0.93678001E+02</pdfrwt>
<pdfrwt beam="2">  1       -1 0.62554604E-02 0.93678001E+02</pdfrwt>
<totfact> 0.40087134E+03</totfact>
</mgrwt>
</event>
<event>
 4    1  0.4938540E-001  0.8368196E+02  0.7546771E-02  0.1318916E+00
         -3   -1    0    0    0  501 -0.00000000000E+00  0.00000000000E+00  0.76091963389E+02  0.76091963389E+02  0.00000000000E+00 0.  1.
          3   -1    0    0  501    0  0.00000000000E+00 -0.00000000000E+00 -0.21135638111E+03  0.21135638111E+03  0.00000000000E+00 0. -1.
         24    1    1    2    0    0  0.12768201576E+02  0.19298362571E+02  0.40359926970E+02  0.92906369151E+02  0.80419002446E+02 0.  1.
        -24    1    1    2    0    0 -0.12768201576E+02 -0.19298362571E+02 -0.17562434469E+03  0.19454197535E+03  0.80419002446E+02 0. -1.
<mgrwt>
<rscale>  0 0.83681956E+02</rscale>
<asrwt>0</asrwt>
<pdfrwt beam="1">  1        3 0.32516366E-01 0.83681956E+02</pdfrwt>
<pdfrwt beam="2">  1       -3 0.11706456E-01 0.83681956E+02</pdfrwt>
<totfact> 0.11050559E+03</totfact>
</mgrwt>
</event>
<event>
 4    1  0.4938540E-001  0.8079799E+02  0.7546771E-02  0.1326802E+00
         -2   -1    0    0    0  501 -0.00000000000E+00  0.00000000000E+00  0.24702536196E+02  0.24702536196E+02  0.00000000000E+00 0.  1.
          2   -1    0    0  501    0  0.00000000000E+00 -0.00000000000E+00 -0.26653181586E+03  0.26653181586E+03  0.00000000000E+00 0. -1.
         24    1    1    2    0    0  0.27621573279E+00  0.78115031973E+01 -0.10752111496E+03  0.13449573225E+03  0.80419002446E+02 0.  1.
        -24    1    1    2    0    0 -0.27621573279E+00 -0.78115031973E+01 -0.13430816470E+03  0.15673861980E+03  0.80419002446E+02 0.  0.
<mgrwt>
<rscale>  0 0.80797979E+02</rscale>
<asrwt>0</asrwt>
<pdfrwt beam="1">  1        2 0.41004898E-01 0.80797989E+02</pdfrwt>
<pdfrwt beam="2">  1       -2 0.38003898E-02 0.80797989E+02</pdfrwt>
<totfact> 0.32171020E+04</totfact>
</mgrwt>
</event>
<event>
 4    1  0.4938540E-001  0.8385569E+02  0.7546771E-02  0.1318452E+00
         -2   -1    0    0    0  501 -0.00000000000E+00  0.00000000000E+00  0.29742507038E+01  0.29742507038E+01  0.00000000000E+00 0.  1.
          2   -1    0    0  501    0  0.00000000000E+00 -0.00000000000E+00 -0.26441778923E+04  0.26441778923E+04  0.00000000000E+00 0. -1.
         24    1    1    2    0    0  0.23743765217E+02  0.89142552860E+00 -0.17512786425E+04  0.17532851053E+04  0.80419002446E+02 0. -1.
        -24    1    1    2    0    0 -0.23743765217E+02 -0.89142552860E+00 -0.88992499916E+03  0.89386703771E+03  0.80419002446E+02 0.  1.
<mgrwt>
<rscale>  0 0.83855691E+02</rscale>
<asrwt>0</asrwt>
<pdfrwt beam="1">  1        2 0.40679598E+00 0.83855691E+02</pdfrwt>
<pdfrwt beam="2">  1       -2 0.45757773E-03 0.83855691E+02</pdfrwt>
<totfact> 0.21119496E+04</totfact>
</mgrwt>
</event>
<event>
 4    1  0.4938540E-001  0.1200379E+03  0.7546771E-02  0.1243034E+00
          2   -1    0    0  501    0  0.00000000000E+00  0.00000000000E+00  0.54850360784E+02  0.54850360784E+02  0.00000000000E+00 0. -1.
         -2   -1    0    0    0  501 -0.00000000000E+00 -0.00000000000E+00 -0.49005484190E+03  0.49005484190E+03  0.00000000000E+00 0.  1.
         24    1    1    2    0    0  0.82066334555E+02 -0.34742004051E+02 -0.32026083064E+02  0.12423677420E+03  0.80419002446E+02 0. -1.
        -24    1    1    2    0    0 -0.82066334555E+02  0.34742004051E+02 -0.40317839805E+03  0.42066842848E+03  0.80419002446E+02 0.  1.
<mgrwt>
<rscale>  0 0.12003794E+03</rscale>
<asrwt>0</asrwt>
<pdfrwt beam="1">  1        2 0.84385168E-02 0.12003794E+03</pdfrwt>
<pdfrwt beam="2">  1       -2 0.75393055E-01 0.12003794E+03</pdfrwt>
<totfact> 0.12455446E+03</totfact>
</mgrwt>
</event>
<event>
 4    1  0.4938540E-001  0.8288807E+02  0.7546771E-02  0.1321050E+00
          1   -1    0    0  501    0  0.00000000000E+00  0.00000000000E+00  0.73672519792E+03  0.73672519792E+03  0.00000000000E+00 0. -1.
         -1   -1    0    0    0  501 -0.00000000000E+00 -0.00000000000E+00 -0.10603855661E+02  0.10603855661E+02  0.00000000000E+00 0.  1.
         24    1    1    2    0    0 -0.13194366212E+02  0.15136856808E+02  0.23332704366E+03  0.24761248150E+03  0.80419002446E+02 0.  1.
        -24    1    1    2    0    0  0.13194366212E+02 -0.15136856808E+02  0.49279429860E+03  0.49971657209E+03  0.80419002446E+02 0. -1.
<mgrwt>
<rscale>  0 0.82888067E+02</rscale>
<asrwt>0</asrwt>
<pdfrwt beam="1">  1        1 0.11334230E+00 0.82888067E+02</pdfrwt>
<pdfrwt beam="2">  1       -1 0.16313630E-02 0.82888067E+02</pdfrwt>
<totfact> 0.21803565E+04</totfact>
</mgrwt>
</event>
<event>
 4    1  0.4938540E-001  0.8971938E+02  0.7546771E-02  0.1303533E+00
         -1   -1    0    0    0  501 -0.00000000000E+00  0.00000000000E+00  0.13055588082E+02  0.13055588082E+02  0.00000000000E+00 0.  1.
          1   -1    0    0  501    0  0.00000000000E+00 -0.00000000000E+00 -0.63341831849E+03  0.63341831849E+03  0.00000000000E+00 0. -1.
         24    1    1    2    0    0  0.37304403789E+02  0.13810575023E+02 -0.25744989179E+03  0.27263531184E+03  0.80419002446E+02 0.  0.
        -24    1    1    2    0    0 -0.37304403789E+02 -0.13810575023E+02 -0.36291283862E+03  0.37383859473E+03  0.80419002446E+02 0. -1.
<mgrwt>
<rscale>  0 0.89719376E+02</rscale>
<asrwt>0</asrwt>
<pdfrwt beam="1">  1        1 0.97448977E-01 0.89719376E+02</pdfrwt>
<pdfrwt beam="2">  1       -1 0.20085519E-02 0.89719376E+02</pdfrwt>
<totfact> 0.20178100E+04</totfact>
</mgrwt>
</event>
<event>
 4    1  0.4938540E-001  0.1205673E+03  0.7546771E-02  0.1242164E+00
          2   -1    0    0  501    0  0.00000000000E+00  0.00000000000E+00  0.55965185400E+03  0.55965185400E+03  0.00000000000E+00 0. -1.
         -2   -1    0    0    0  501 -0.00000000000E+00 -0.00000000000E+00 -0.80488636395E+02  0.80488636395E+02  0.00000000000E+00 0.  1.
         24    1    1    2    0    0 -0.43385864694E+02 -0.78656997546E+02  0.50299269074E+03  0.51724087175E+03  0.80419002446E+02 0. -1.
        -24    1    1    2    0    0  0.43385864694E+02  0.78656997546E+02 -0.23829473135E+02  0.12289961864E+03  0.80419002446E+02 0.  1.
<mgrwt>
<rscale>  0 0.12056729E+03</rscale>
<asrwt>0</asrwt>
<pdfrwt beam="1">  1        2 0.86100283E-01 0.12056729E+03</pdfrwt>
<pdfrwt beam="2">  1       -2 0.12382867E-01 0.12056729E+03</pdfrwt>
<totfact> 0.25052894E+03</totfact>
</mgrwt>
</event>
<event>
 4    1  0.4938540E-001  0.1752314E+03  0.7546771E-02  0.1172500E+00
          1   -1    0    0  501    0  0.00000000000E+00  0.00000000000E+00  0.11918012821E+03  0.11918012821E+03  0.00000000000E+00 0. -1.
         -1   -1    0    0    0  501 -0.00000000000E+00 -0.00000000000E+00 -0.44916623613E+03  0.44916623613E+03  0.00000000000E+00 0.  1.
         24    1    1    2    0    0  0.14540638816E+03 -0.55639941843E+02 -0.35055512822E+03  0.39191189663E+03  0.80419002446E+02 0.  1.
        -24    1    1    2    0    0 -0.14540638816E+03  0.55639941843E+02  0.20569020294E+02  0.17643446771E+03  0.80419002446E+02 0. -1.
<mgrwt>
<rscale>  0 0.17523138E+03</rscale>
<asrwt>0</asrwt>
<pdfrwt beam="1">  1        1 0.18335404E-01 0.17523138E+03</pdfrwt>
<pdfrwt beam="2">  1       -1 0.69102497E-01 0.17523138E+03</pdfrwt>
<totfact> 0.62918265E+02</totfact>
</mgrwt>
</event>
<event>
 4    1  0.4938540E-001  0.8533826E+02  0.7546771E-02  0.1314550E+00
          2   -1    0    0  501    0  0.00000000000E+00  0.00000000000E+00  0.69243202368E+03  0.69243202368E+03  0.00000000000E+00 0. -1.
         -2   -1    0    0    0  501 -0.00000000000E+00 -0.00000000000E+00 -0.19697126422E+02  0.19697126422E+02  0.00000000000E+00 0.  1.
         24    1    1    2    0    0 -0.24972437318E+02  0.13848492123E+02  0.57944285120E+03  0.58569329613E+03  0.80419002446E+02 0. -1.
        -24    1    1    2    0    0  0.24972437318E+02 -0.13848492123E+02  0.93292046055E+02  0.12643585398E+03  0.80419002446E+02 0.  1.
<mgrwt>
<rscale>  0 0.85338264E+02</rscale>
<asrwt>0</asrwt>
<pdfrwt beam="1">  1        2 0.10652798E+00 0.85338264E+02</pdfrwt>
<pdfrwt beam="2">  1       -2 0.30303277E-02 0.85338264E+02</pdfrwt>
<totfact> 0.16189289E+04</totfact>
</mgrwt>
</event>
<event>
 4    1  0.4938540E-001  0.9051175E+02  0.7546771E-02  0.1301617E+00
         -1   -1    0    0    0  501 -0.00000000000E+00  0.00000000000E+00  0.22348145492E+02  0.22348145492E+02  0.00000000000E+00 0.  1.
          1   -1    0    0  501    0  0.00000000000E+00 -0.00000000000E+00 -0.41360314762E+03  0.41360314762E+03  0.00000000000E+00 0. -1.
         24    1    1    2    0    0  0.10387607989E+02  0.40215153698E+02 -0.12212989508E+03  0.15201344747E+03  0.80419002446E+02 0.  1.
        -24    1    1    2    0    0 -0.10387607989E+02 -0.40215153698E+02 -0.26912510705E+03  0.28393784564E+03  0.80419002446E+02 0. -1.
<mgrwt>
<rscale>  0 0.90511750E+02</rscale>
<asrwt>0</asrwt>
<pdfrwt beam="1">  1        1 0.63631251E-01 0.90511750E+02</pdfrwt>
<pdfrwt beam="2">  1       -1 0.34381764E-02 0.90511750E+02</pdfrwt>
<totfact> 0.16210647E+04</totfact>
</mgrwt>
</event>
<event>
 4    1  0.4938540E-001  0.9581377E+02  0.7546771E-02  0.1289354E+00
         -3   -1    0    0    0  501 -0.00000000000E+00  0.00000000000E+00  0.18917041624E+03  0.18917041624E+03  0.00000000000E+00 0.  1.
          3   -1    0    0  501    0  0.00000000000E+00 -0.00000000000E+00 -0.10929129269E+03  0.10929129269E+03  0.00000000000E+00 0. -1.
         24    1    1    2    0    0 -0.32235670209E+02  0.40913626503E+02  0.15121066391E+03  0.17901101671E+03  0.80419002446E+02 0.  1.
        -24    1    1    2    0    0  0.32235670209E+02 -0.40913626503E+02 -0.71331540362E+02  0.11945069222E+03  0.80419002446E+02 0. -1.
<mgrwt>
<rscale>  0 0.95813774E+02</rscale>
<asrwt>0</asrwt>
<pdfrwt beam="1">  1        3 0.16814045E-01 0.95813774E+02</pdfrwt>
<pdfrwt beam="2">  1       -3 0.29103141E-01 0.95813774E+02</pdfrwt>
<totfact> 0.75499112E+02</totfact>
</mgrwt>
</event>
<event>
 4    1  0.4938540E-001  0.9177770E+02  0.7546771E-02  0.1298603E+00
         -4   -1    0    0    0  501 -0.00000000000E+00  0.00000000000E+00  0.86046380023E+02  0.86046380023E+02  0.00000000000E+00 0.  1.
          4   -1    0    0  501    0  0.00000000000E+00 -0.00000000000E+00 -0.99230472406E+02  0.99230472406E+02  0.00000000000E+00 0. -1.
         24    1    1    2    0    0 -0.29293439621E+02 -0.33133367746E+02  0.41721550682E+01  0.91872457763E+02  0.80419002446E+02 0. -1.
        -24    1    1    2    0    0  0.29293439621E+02  0.33133367746E+02 -0.17356247451E+02  0.93404394666E+02  0.80419002446E+02 0.  1.
<mgrwt>
<rscale>  0 0.91777686E+02</rscale>
<asrwt>0</asrwt>
<pdfrwt beam="1">  1        4 0.15266226E-01 0.91777698E+02</pdfrwt>
<pdfrwt beam="2">  1       -4 0.13237905E-01 0.91777698E+02</pdfrwt>
<totfact> 0.25486418E+03</totfact>
</mgrwt>
</event>
<event>
 4    1  0.4938540E-001  0.1107540E+03  0.7546771E-02  0.1259180E+00
         -1   -1    0    0    0  501 -0.00000000000E+00  0.00000000000E+00  0.29450281303E+02  0.29450281303E+02  0.00000000000E+00 0.  1.
          1   -1    0    0  501    0  0.00000000000E+00 -0.00000000000E+00 -0.45820361598E+03  0.45820361598E+03  0.00000000000E+00 0. -1.
         24    1    1    2    0    0 -0.50906499769E+02  0.56637169304E+02 -0.14082948923E+03  0.17916305885E+03  0.80419002446E+02 0. -1.
        -24    1    1    2    0    0  0.50906499769E+02 -0.56637169304E+02 -0.28792384544E+03  0.30849083843E+03  0.80419002446E+02 0.  1.
<mgrwt>
<rscale>  0 0.11075404E+03</rscale>
<asrwt>0</asrwt>
<pdfrwt beam="1">  1        1 0.70492864E-01 0.11075404E+03</pdfrwt>
<pdfrwt beam="2">  1       -1 0.45308125E-02 0.11075404E+03</pdfrwt>
<totfact> 0.97021733E+03</totfact>
</mgrwt>
</event>
<event>
 4    1  0.4938540E-001  0.1385355E+03  0.7546771E-02  0.1215313E+00
          2   -1    0    0  501    0  0.00000000000E+00  0.00000000000E+00  0.39878583875E+03  0.39878583875E+03  0.00000000000E+00 0. -1.
         -2   -1    0    0    0  501 -0.00000000000E+00 -0.00000000000E+00 -0.54327611260E+02  0.54327611260E+02  0.00000000000E+00 0.  1.
         24    1    1    2    0    0  0.51975470680E+01 -0.11268477025E+03  0.24877261642E+03  0.28474532933E+03  0.80419002446E+02 0. -1.
        -24    1    1    2    0    0 -0.51975470680E+01  0.11268477025E+03  0.95685611072E+02  0.16836812068E+03  0.80419002446E+02 0.  1.
<mgrwt>
<rscale>  0 0.13853551E+03</rscale>
<asrwt>0</asrwt>
<pdfrwt beam="1">  1        2 0.61351666E-01 0.13853551E+03</pdfrwt>
<pdfrwt beam="2">  1       -2 0.83580943E-02 0.13853551E+03</pdfrwt>
<totfact> 0.67668656E+03</totfact>
</mgrwt>
</event>
<event>
 4    1  0.4938540E-001  0.9548580E+02  0.7546771E-02  0.1290086E+00
          2   -1    0    0  501    0  0.00000000000E+00  0.00000000000E+00  0.11847436499E+03  0.11847436499E+03  0.00000000000E+00 0. -1.
         -2   -1    0    0    0  501 -0.00000000000E+00 -0.00000000000E+00 -0.16977306697E+03  0.16977306697E+03  0.00000000000E+00 0.  1.
         24    1    1    2    0    0 -0.34437036946E+01 -0.51365970788E+02  0.80914654342E+02  0.12515877633E+03  0.80419002446E+02 0. -1.
        -24    1    1    2    0    0  0.34437036946E+01  0.51365970788E+02 -0.13221335632E+03  0.16308865563E+03  0.80419002446E+02 0.  1.
<mgrwt>
<rscale>  0 0.95485800E+02</rscale>
<asrwt>0</asrwt>
<pdfrwt beam="1">  1        2 0.18226825E-01 0.95485800E+02</pdfrwt>
<pdfrwt beam="2">  1       -2 0.26118933E-01 0.95485800E+02</pdfrwt>
<totfact> 0.38108578E+03</totfact>
</mgrwt>
</event>
<event>
 4    1  0.4938540E-001  0.8061088E+02  0.7546771E-02  0.1327327E+00
          2   -1    0    0  501    0  0.00000000000E+00  0.00000000000E+00  0.16368484654E+04  0.16368484654E+04  0.00000000000E+00 0. -1.
         -2   -1    0    0    0  501 -0.00000000000E+00 -0.00000000000E+00 -0.43373831937E+01  0.43373831937E+01  0.00000000000E+00 0.  1.
         24    1    1    2    0    0  0.26935405508E+01 -0.48624584361E+01  0.10551115992E+04  0.10581864682E+04  0.80419002446E+02 0.  0.
        -24    1    1    2    0    0 -0.26935405508E+01  0.48624584361E+01  0.57739948296E+03  0.58299938039E+03  0.80419002446E+02 0.  1.
<mgrwt>
<rscale>  0 0.80610884E+02</rscale>
<asrwt>0</asrwt>
<pdfrwt beam="1">  1        2 0.25182235E+00 0.80610884E+02</pdfrwt>
<pdfrwt beam="2">  1       -2 0.66729103E-03 0.80610884E+02</pdfrwt>
<totfact> 0.40405250E+04</totfact>
</mgrwt>
</event>
<event>
 4    1  0.4938540E-001  0.8423300E+02  0.7546771E-02  0.1317451E+00
         -2   -1    0    0    0  501 -0.00000000000E+00  0.00000000000E+00  0.11868758024E+03  0.11868758024E+03  0.00000000000E+00 0.  1.
          2   -1    0    0  501    0  0.00000000000E+00 -0.00000000000E+00 -0.63929427410E+02  0.63929427410E+02  0.00000000000E+00 0. -1.
         24    1    1    2    0    0 -0.18721779650E+02  0.16657643157E+02  0.41179433254E+01  0.84333596629E+02  0.80419002446E+02 0. -1.
        -24    1    1    2    0    0  0.18721779650E+02 -0.16657643157E+02  0.50640209503E+02  0.98283411020E+02  0.80419002446E+02 0. -1.
<mgrwt>
<rscale>  0 0.84232999E+02</rscale>
<asrwt>0</asrwt>
<pdfrwt beam="1">  1        2 0.98352965E-02 0.84232999E+02</pdfrwt>
<pdfrwt beam="2">  1       -2 0.18259628E-01 0.84232999E+02</pdfrwt>
<totfact> 0.14251611E+04</totfact>
</mgrwt>
</event>
<event>
 4    1  0.4938540E-001  0.8403415E+02  0.7546771E-02  0.1317978E+00
         -2   -1    0    0    0  501 -0.00000000000E+00  0.00000000000E+00  0.56498898253E+02  0.56498898253E+02  0.00000000000E+00 0.  1.
          2   -1    0    0  501    0  0.00000000000E+00 -0.00000000000E+00 -0.31959289953E+03  0.31959289953E+03  0.00000000000E+00 0. -1.
         24    1    1    2    0    0  0.23818072888E+02  0.52174721803E+01 -0.27828450164E+03  0.29069572137E+03  0.80419002446E+02 0. -1.
        -24    1    1    2    0    0 -0.23818072888E+02 -0.52174721803E+01  0.15190500363E+02  0.85396076419E+02  0.80419002446E+02 0.  1.
<mgrwt>
<rscale>  0 0.84034151E+02</rscale>
<asrwt>0</asrwt>
<pdfrwt beam="1">  1        2 0.49168138E-01 0.84034151E+02</pdfrwt>
<pdfrwt beam="2">  1       -2 0.86921382E-02 0.84034151E+02</pdfrwt>
<totfact> 0.77647298E+03</totfact>
</mgrwt>
</event>
<event>
 4    1  0.4938540E-001  0.1191619E+03  0.7546771E-02  0.1244486E+00
         -1   -1    0    0    0  501 -0.00000000000E+00  0.00000000000E+00  0.11964795228E+02  0.11964795228E+02  0.00000000000E+00 0.  1.
          1   -1    0    0  501    0  0.00000000000E+00 -0.00000000000E+00 -0.12894031529E+04  0.12894031529E+04  0.00000000000E+00 0. -1.
         24    1    1    2    0    0 -0.87828635188E+02 -0.42987577827E+01 -0.45514942738E+03  0.47048970836E+03  0.80419002446E+02 0.  1.
        -24    1    1    2    0    0  0.87828635188E+02  0.42987577827E+01 -0.82228893028E+03  0.83087823975E+03  0.80419002446E+02 0. -1.
<mgrwt>
<rscale>  0 0.11916193E+03</rscale>
<asrwt>0</asrwt>
<pdfrwt beam="1">  1        1 0.19836965E+00 0.11916193E+03</pdfrwt>
<pdfrwt beam="2">  1       -1 0.18407383E-02 0.11916193E+03</pdfrwt>
<totfact> 0.74412887E+03</totfact>
</mgrwt>
</event>
<event>
 4    1  0.4938540E-001  0.8309223E+02  0.7546771E-02  0.1320498E+00
         -2   -1    0    0    0  501 -0.00000000000E+00  0.00000000000E+00  0.14118856026E+02  0.14118856026E+02  0.00000000000E+00 0.  1.
          2   -1    0    0  501    0  0.00000000000E+00 -0.00000000000E+00 -0.58393508917E+03  0.58393508917E+03  0.00000000000E+00 0. -1.
         24    1    1    2    0    0 -0.59228568411E+01  0.20050491305E+02 -0.40546983041E+03  0.41389624517E+03  0.80419002446E+02 0. -1.
        -24    1    1    2    0    0  0.59228568411E+01 -0.20050491305E+02 -0.16434640274E+03  0.18415770003E+03  0.80419002446E+02 0.  1.
<mgrwt>
<rscale>  0 0.83092228E+02</rscale>
<asrwt>0</asrwt>
<pdfrwt beam="1">  1        2 0.89836169E-01 0.83092228E+02</pdfrwt>
<pdfrwt beam="2">  1       -2 0.21721317E-02 0.83092228E+02</pdfrwt>
<totfact> 0.31665662E+04</totfact>
</mgrwt>
</event>
<event>
 4    1  0.4938540E-001  0.8314729E+02  0.7546771E-02  0.1320350E+00
          2   -1    0    0  501    0  0.00000000000E+00  0.00000000000E+00  0.14100235568E+04  0.14100235568E+04  0.00000000000E+00 0. -1.
         -2   -1    0    0    0  501 -0.00000000000E+00 -0.00000000000E+00 -0.19723590215E+02  0.19723590215E+02  0.00000000000E+00 0.  1.
         24    1    1    2    0    0  0.14095964099E+00 -0.21124282331E+02  0.13148303002E+04  0.13174567126E+04  0.80419002446E+02 0. -1.
        -24    1    1    2    0    0 -0.14095964099E+00  0.21124282331E+02  0.75469666397E+02  0.11229043447E+03  0.80419002446E+02 0.  1.
<mgrwt>
<rscale>  0 0.83147286E+02</rscale>
<asrwt>0</asrwt>
<pdfrwt beam="1">  1        2 0.21692662E+00 0.83147286E+02</pdfrwt>
<pdfrwt beam="2">  1       -2 0.30343996E-02 0.83147286E+02</pdfrwt>
<totfact> 0.61194406E+03</totfact>
</mgrwt>
</event>
<event>
 4    1  0.4938540E-001  0.8937725E+02  0.7546771E-02  0.1304367E+00
         -2   -1    0    0    0  501 -0.00000000000E+00  0.00000000000E+00  0.27358339983E+02  0.27358339983E+02  0.00000000000E+00 0.  1.
          2   -1    0    0  501    0  0.00000000000E+00 -0.00000000000E+00 -0.78809286880E+03  0.78809286880E+03  0.00000000000E+00 0. -1.
         24    1    1    2    0    0  0.36144918128E+02 -0.14649967609E+02 -0.70386128729E+03  0.70951321648E+03  0.80419002446E+02 0. -1.
        -24    1    1    2    0    0 -0.36144918128E+02  0.14649967609E+02 -0.56873241527E+02  0.10593799230E+03  0.80419002446E+02 0.  1.
<mgrwt>
<rscale>  0 0.89377249E+02</rscale>
<asrwt>0</asrwt>
<pdfrwt beam="1">  1        2 0.12124505E+00 0.89377249E+02</pdfrwt>
<pdfrwt beam="2">  1       -2 0.42089756E-02 0.89377249E+02</pdfrwt>
<totfact> 0.86217803E+03</totfact>
</mgrwt>
</event>
<event>
 4    1  0.4938540E-001  0.8238292E+02  0.7546771E-02  0.1322422E+00
          2   -1    0    0  501    0  0.00000000000E+00  0.00000000000E+00  0.11304123819E+04  0.11304123819E+04  0.00000000000E+00 0. -1.
         -2   -1    0    0    0  501 -0.00000000000E+00 -0.00000000000E+00 -0.98368907166E+01  0.98368907166E+01  0.00000000000E+00 0.  1.
         24    1    1    2    0    0  0.22398398015E+01 -0.17740151069E+02  0.91617023224E+03  0.91986675135E+03  0.80419002446E+02 0. -1.
        -24    1    1    2    0    0 -0.22398398015E+01  0.17740151069E+02  0.20440525896E+03  0.22038252129E+03  0.80419002446E+02 0.  0.
<mgrwt>
<rscale>  0 0.82382922E+02</rscale>
<asrwt>0</asrwt>
<pdfrwt beam="1">  1        2 0.17390949E+00 0.82382922E+02</pdfrwt>
<pdfrwt beam="2">  1       -2 0.15133687E-02 0.82382922E+02</pdfrwt>
<totfact> 0.23379150E+04</totfact>
</mgrwt>
</event>
<event>
 4    1  0.4938540E-001  0.9611469E+02  0.7546771E-02  0.1288685E+00
          2   -1    0    0  501    0  0.00000000000E+00  0.00000000000E+00  0.30014587066E+04  0.30014587066E+04  0.00000000000E+00 0. -1.
         -2   -1    0    0    0  501 -0.00000000000E+00 -0.00000000000E+00 -0.73863709578E+01  0.73863709578E+01  0.00000000000E+00 0.  1.
         24    1    1    2    0    0  0.11401802992E+02 -0.51388873511E+02  0.26460320821E+04  0.26477771456E+04  0.80419002446E+02 0. -1.
        -24    1    1    2    0    0 -0.11401802992E+02  0.51388873511E+02  0.34804025360E+03  0.36106793199E+03  0.80419002446E+02 0.  1.
<mgrwt>
<rscale>  0 0.96114689E+02</rscale>
<asrwt>0</asrwt>
<pdfrwt beam="1">  1        2 0.46176190E+00 0.96114689E+02</pdfrwt>
<pdfrwt beam="2">  1       -2 0.11363672E-02 0.96114689E+02</pdfrwt>
<totfact> 0.37383646E+03</totfact>
</mgrwt>
</event>
<event>
 4    1  0.4938540E-001  0.9767002E+02  0.7546771E-02  0.1285273E+00
          3   -1    0    0  501    0  0.00000000000E+00  0.00000000000E+00  0.12736772311E+02  0.12736772311E+02  0.00000000000E+00 0. -1.
         -3   -1    0    0    0  501 -0.00000000000E+00 -0.00000000000E+00 -0.78523160558E+03  0.78523160558E+03  0.00000000000E+00 0.  1.
         24    1    1    2    0    0  0.54673710318E+02 -0.91106092771E+01 -0.47198926110E+03  0.48198889650E+03  0.80419002446E+02 0.  1.
        -24    1    1    2    0    0 -0.54673710318E+02  0.91106092771E+01 -0.30050557216E+03  0.31597948138E+03  0.80419002446E+02 0. -1.
<mgrwt>
<rscale>  0 0.97670025E+02</rscale>
<asrwt>0</asrwt>
<pdfrwt beam="1">  1        3 0.19595031E-02 0.97670025E+02</pdfrwt>
<pdfrwt beam="2">  1       -3 0.12080489E+00 0.97670025E+02</pdfrwt>
<totfact> 0.12465770E+03</totfact>
</mgrwt>
</event>
<event>
 4    1  0.4938540E-001  0.8047981E+02  0.7546771E-02  0.1327695E+00
         -2   -1    0    0    0  501 -0.00000000000E+00  0.00000000000E+00  0.11996534815E+02  0.11996534815E+02  0.00000000000E+00 0.  1.
          2   -1    0    0  501    0  0.00000000000E+00 -0.00000000000E+00 -0.74757875443E+03  0.74757875443E+03  0.00000000000E+00 0. -1.
         24    1    1    2    0    0  0.23877976180E+01 -0.20204736929E+01 -0.56796260347E+03  0.57363622513E+03  0.80419002446E+02 0.  0.
        -24    1    1    2    0    0 -0.23877976180E+01  0.20204736929E+01 -0.16761961614E+03  0.18593906411E+03  0.80419002446E+02 0.  1.
<mgrwt>
<rscale>  0 0.80479810E+02</rscale>
<asrwt>0</asrwt>
<pdfrwt beam="1">  1        2 0.11501214E+00 0.80479810E+02</pdfrwt>
<pdfrwt beam="2">  1       -2 0.18456203E-02 0.80479810E+02</pdfrwt>
<totfact> 0.30041088E+04</totfact>
</mgrwt>
</event>
<event>
 4    1  0.4938540E-001  0.8708439E+02  0.7546771E-02  0.1310070E+00
         -2   -1    0    0    0  501 -0.00000000000E+00  0.00000000000E+00  0.14782466273E+03  0.14782466273E+03  0.00000000000E+00 0.  1.
          2   -1    0    0  501    0  0.00000000000E+00 -0.00000000000E+00 -0.73004345780E+02  0.73004345780E+02  0.00000000000E+00 0. -1.
         24    1    1    2    0    0 -0.33303523903E+02  0.27112672478E+01 -0.22791122657E+02  0.90017369995E+02  0.80419002446E+02 0. -1.
        -24    1    1    2    0    0  0.33303523903E+02 -0.27112672478E+01  0.97611439610E+02  0.13081163852E+03  0.80419002446E+02 0.  1.
<mgrwt>
<rscale>  0 0.87084394E+02</rscale>
<asrwt>0</asrwt>
<pdfrwt beam="1">  1        2 0.11231438E-01 0.87084394E+02</pdfrwt>
<pdfrwt beam="2">  1       -2 0.22742256E-01 0.87084394E+02</pdfrwt>
<totfact> 0.84334710E+03</totfact>
</mgrwt>
</event>
<event>
 4    1  0.4938540E-001  0.9057124E+02  0.7546771E-02  0.1301474E+00
         -1   -1    0    0    0  501 -0.00000000000E+00  0.00000000000E+00  0.88582557963E+01  0.88582557963E+01  0.00000000000E+00 0.  1.
          1   -1    0    0  501    0  0.00000000000E+00 -0.00000000000E+00 -0.12005474043E+04  0.12005474043E+04  0.00000000000E+00 0. -1.
         24    1    1    2    0    0 -0.39313806248E+01  0.41478645513E+02 -0.30669346509E+03  0.31978747829E+03  0.80419002446E+02 0.  1.
        -24    1    1    2    0    0  0.39313806248E+01 -0.41478645513E+02 -0.88499568344E+03  0.88961818183E+03  0.80419002446E+02 0. -1.
<mgrwt>
<rscale>  0 0.90571241E+02</rscale>
<asrwt>0</asrwt>
<pdfrwt beam="1">  1        1 0.18469974E+00 0.90571241E+02</pdfrwt>
<pdfrwt beam="2">  1       -1 0.13628076E-02 0.90571241E+02</pdfrwt>
<totfact> 0.12890504E+04</totfact>
</mgrwt>
</event>
<event>
 4    1  0.4938540E-001  0.1083149E+03  0.7546771E-02  0.1263723E+00
         -2   -1    0    0    0  501 -0.00000000000E+00  0.00000000000E+00  0.76825949017E+01  0.76825949017E+01  0.00000000000E+00 0.  1.
          2   -1    0    0  501    0  0.00000000000E+00 -0.00000000000E+00 -0.19568621874E+04  0.19568621874E+04  0.00000000000E+00 0. -1.
         24    1    1    2    0    0 -0.15202704981E+02 -0.70949089409E+02 -0.14349147827E+04  0.14389970622E+04  0.80419002446E+02 0. -1.
        -24    1    1    2    0    0  0.15202704981E+02  0.70949089409E+02 -0.51426480980E+03  0.52554772008E+03  0.80419002446E+02 0.  1.
<mgrwt>
<rscale>  0 0.10831487E+03</rscale>
<asrwt>0</asrwt>
<pdfrwt beam="1">  1        2 0.30105576E+00 0.10831487E+03</pdfrwt>
<pdfrwt beam="2">  1       -2 0.11819375E-02 0.10831487E+03</pdfrwt>
<totfact> 0.12681142E+04</totfact>
</mgrwt>
</event>
<event>
 4    1  0.4938540E-001  0.8100183E+02  0.7546771E-02  0.1326232E+00
          1   -1    0    0  501    0  0.00000000000E+00  0.00000000000E+00  0.28926257797E+04  0.28926257797E+04  0.00000000000E+00 0. -1.
         -1   -1    0    0    0  501 -0.00000000000E+00 -0.00000000000E+00 -0.23312378045E+01  0.23312378045E+01  0.00000000000E+00 0.  1.
         24    1    1    2    0    0  0.83655238830E+01  0.49090033246E+01  0.12072823267E+04  0.12099966581E+04  0.80419002446E+02 0.  1.
        -24    1    1    2    0    0 -0.83655238830E+01 -0.49090033246E+01  0.16830122152E+04  0.16849603594E+04  0.80419002446E+02 0. -1.
<mgrwt>
<rscale>  0 0.81001829E+02</rscale>
<asrwt>0</asrwt>
<pdfrwt beam="1">  1        1 0.44501648E+00 0.81001829E+02</pdfrwt>
<pdfrwt beam="2">  1       -1 0.35865428E-03 0.81001829E+02</pdfrwt>
<totfact> 0.68950209E+03</totfact>
</mgrwt>
</event>
<event>
 4    1  0.4938540E-001  0.8660942E+02  0.7546771E-02  0.1311277E+00
         -1   -1    0    0    0  501 -0.00000000000E+00  0.00000000000E+00  0.96805933221E+02  0.96805933221E+02  0.00000000000E+00 0.  1.
          1   -1    0    0  501    0  0.00000000000E+00 -0.00000000000E+00 -0.15559840801E+03  0.15559840801E+03  0.00000000000E+00 0. -1.
         24    1    1    2    0    0  0.11176739726E+02 -0.30150553901E+02  0.60021107453E+02  0.10537421272E+03  0.80419002446E+02 0.  1.
        -24    1    1    2    0    0 -0.11176739726E+02  0.30150553901E+02 -0.11881358224E+03  0.14703012851E+03  0.80419002446E+02 0. -1.
<mgrwt>
<rscale>  0 0.86609418E+02</rscale>
<asrwt>0</asrwt>
<pdfrwt beam="1">  1        1 0.23938217E-01 0.86609418E+02</pdfrwt>
<pdfrwt beam="2">  1       -1 0.14893221E-01 0.86609418E+02</pdfrwt>
<totfact> 0.60514436E+03</totfact>
</mgrwt>
</event>
<event>
 4    1  0.4938540E-001  0.8048831E+02  0.7546771E-02  0.1327671E+00
          1   -1    0    0  501    0  0.00000000000E+00  0.00000000000E+00  0.14587394660E+02  0.14587394660E+02  0.00000000000E+00 0. -1.
         -1   -1    0    0    0  501 -0.00000000000E+00 -0.00000000000E+00 -0.77407039612E+03  0.77407039612E+03  0.00000000000E+00 0.  1.
         24    1    1    2    0    0 -0.30537962885E+01 -0.13515918175E+01 -0.63719633992E+03  0.64225971697E+03  0.80419002446E+02 0.  1.
        -24    1    1    2    0    0  0.30537962885E+01  0.13515918175E+01 -0.12228666154E+03  0.14639807382E+03  0.80419002446E+02 0.  0.
<mgrwt>
<rscale>  0 0.80488312E+02</rscale>
<asrwt>0</asrwt>
<pdfrwt beam="1">  1        1 0.22442151E-02 0.80488312E+02</pdfrwt>
<pdfrwt beam="2">  1       -1 0.11908772E+00 0.80488312E+02</pdfrwt>
<totfact> 0.32064426E+03</totfact>
</mgrwt>
</event>
<event>
 4    1  0.4938540E-001  0.9628830E+02  0.7546771E-02  0.1288301E+00
          1   -1    0    0  501    0  0.00000000000E+00  0.00000000000E+00  0.31987106103E+04  0.31987106103E+04  0.00000000000E+00 0. -1.
         -1   -1    0    0    0  501 -0.00000000000E+00 -0.00000000000E+00 -0.65291795695E+01  0.65291795695E+01  0.00000000000E+00 0.  1.
         24    1    1    2    0    0 -0.21610842594E+02  0.48344519366E+02  0.40101433207E+03  0.41241233196E+03  0.80419002446E+02 0.  1.
        -24    1    1    2    0    0  0.21610842594E+02 -0.48344519366E+02  0.27911670986E+04  0.27928274579E+04  0.80419002446E+02 0. -1.
<mgrwt>
<rscale>  0 0.96288302E+02</rscale>
<asrwt>0</asrwt>
<pdfrwt beam="1">  1        1 0.49210807E+00 0.96288302E+02</pdfrwt>
<pdfrwt beam="2">  1       -1 0.10044917E-02 0.96288302E+02</pdfrwt>
<totfact> 0.10077010E+03</totfact>
</mgrwt>
</event>
<event>
 4    1  0.4938540E-001  0.8164707E+02  0.7546771E-02  0.1324441E+00
         -1   -1    0    0    0  501 -0.00000000000E+00  0.00000000000E+00  0.11923774202E+02  0.11923774202E+02  0.00000000000E+00 0.  1.
          1   -1    0    0  501    0  0.00000000000E+00 -0.00000000000E+00 -0.74469306571E+03  0.74469306571E+03  0.00000000000E+00 0. -1.
         24    1    1    2    0    0  0.40237022452E+01  0.13521766054E+02 -0.17751099463E+03  0.19538781310E+03  0.80419002446E+02 0.  0.
        -24    1    1    2    0    0 -0.40237022452E+01 -0.13521766054E+02 -0.55525829687E+03  0.56122902681E+03  0.80419002446E+02 0. -1.
<mgrwt>
<rscale>  0 0.81647072E+02</rscale>
<asrwt>0</asrwt>
<pdfrwt beam="1">  1        1 0.11456818E+00 0.81647072E+02</pdfrwt>
<pdfrwt beam="2">  1       -1 0.18344265E-02 0.81647072E+02</pdfrwt>
<totfact> 0.18151872E+04</totfact>
</mgrwt>
</event>
<event>
 4    1  0.4938540E-001  0.9539623E+02  0.7546771E-02  0.1290286E+00
         -1   -1    0    0    0  501 -0.00000000000E+00  0.00000000000E+00  0.87293907430E+02  0.87293907430E+02  0.00000000000E+00 0.  1.
          1   -1    0    0  501    0  0.00000000000E+00 -0.00000000000E+00 -0.11434344987E+03  0.11434344987E+03  0.00000000000E+00 0. -1.
         24    1    1    2    0    0  0.37283987962E+02  0.35258046585E+02  0.16428373575E+02  0.96800480474E+02  0.80419002446E+02 0.  1.
        -24    1    1    2    0    0 -0.37283987962E+02 -0.35258046585E+02 -0.43477916016E+02  0.10483687683E+03  0.80419002446E+02 0. -1.
<mgrwt>
<rscale>  0 0.95396235E+02</rscale>
<asrwt>0</asrwt>
<pdfrwt beam="1">  1        1 0.17591300E-01 0.95396235E+02</pdfrwt>
<pdfrwt beam="2">  1       -1 0.13429832E-01 0.95396235E+02</pdfrwt>
<totfact> 0.10532939E+04</totfact>
</mgrwt>
</event>
<event>
 4    1  0.4938540E-001  0.1046362E+03  0.7546771E-02  0.1270838E+00
          3   -1    0    0  501    0  0.00000000000E+00  0.00000000000E+00  0.37237797431E+02  0.37237797431E+02  0.00000000000E+00 0. -1.
         -3   -1    0    0    0  501 -0.00000000000E+00 -0.00000000000E+00 -0.30577482789E+03  0.30577482789E+03  0.00000000000E+00 0.  1.
         24    1    1    2    0    0  0.42773686880E+02 -0.51496987085E+02 -0.16789212654E+03  0.19782949749E+03  0.80419002446E+02 0.  1.
        -24    1    1    2    0    0 -0.42773686880E+02  0.51496987085E+02 -0.10064490392E+03  0.14518312784E+03  0.80419002446E+02 0. -1.
<mgrwt>
<rscale>  0 0.10463625E+03</rscale>
<asrwt>0</asrwt>
<pdfrwt beam="1">  1        3 0.57288920E-02 0.10463625E+03</pdfrwt>
<pdfrwt beam="2">  1       -3 0.47042280E-01 0.10463625E+03</pdfrwt>
<totfact> 0.18118922E+03</totfact>
</mgrwt>
</event>
<event>
 4    1  0.4938540E-001  0.9550601E+02  0.7546771E-02  0.1290040E+00
          2   -1    0    0  501    0  0.00000000000E+00  0.00000000000E+00  0.79481271075E+03  0.79481271075E+03  0.00000000000E+00 0. -1.
         -2   -1    0    0    0  501 -0.00000000000E+00 -0.00000000000E+00 -0.18279160664E+02  0.18279160664E+02  0.00000000000E+00 0.  1.
         24    1    1    2    0    0 -0.42945165854E+02 -0.28458663166E+02  0.63628392890E+03  0.64341171648E+03  0.80419002446E+02 0.  0.
        -24    1    1    2    0    0  0.42945165854E+02  0.28458663166E+02  0.14024962118E+03  0.16968015493E+03  0.80419002446E+02 0. -1.
<mgrwt>
<rscale>  0 0.95506014E+02</rscale>
<asrwt>0</asrwt>
<pdfrwt beam="1">  1        2 0.12227885E+00 0.95506014E+02</pdfrwt>
<pdfrwt beam="2">  1       -2 0.28121792E-02 0.95506014E+02</pdfrwt>
<totfact> 0.15464865E+04</totfact>
</mgrwt>
</event>
<event>
 4    1  0.4938540E-001  0.9393171E+02  0.7546771E-02  0.1293600E+00
          1   -1    0    0  501    0  0.00000000000E+00  0.00000000000E+00  0.25392995591E+03  0.25392995591E+03  0.00000000000E+00 0. -1.
         -1   -1    0    0    0  501 -0.00000000000E+00 -0.00000000000E+00 -0.35933542163E+02  0.35933542163E+02  0.00000000000E+00 0.  1.
         24    1    1    2    0    0 -0.20145998949E+02 -0.44159818898E+02  0.82655883999E+02  0.12512058980E+03  0.80419002446E+02 0.  1.
        -24    1    1    2    0    0  0.20145998949E+02  0.44159818898E+02  0.13534052975E+03  0.16474290827E+03  0.80419002446E+02 0. -1.
<mgrwt>
<rscale>  0 0.93931714E+02</rscale>
<asrwt>0</asrwt>
<pdfrwt beam="1">  1        1 0.39066146E-01 0.93931714E+02</pdfrwt>
<pdfrwt beam="2">  1       -1 0.55282374E-02 0.93931714E+02</pdfrwt>
<totfact> 0.14824711E+04</totfact>
</mgrwt>
</event>
<event>
 4    1  0.4938540E-001  0.1340461E+03  0.7546771E-02  0.1221573E+00
         -2   -1    0    0    0  501 -0.00000000000E+00  0.00000000000E+00  0.76382069884E+02  0.76382069884E+02  0.00000000000E+00 0.  1.
          2   -1    0    0  501    0  0.00000000000E+00 -0.00000000000E+00 -0.87184271018E+03  0.87184271018E+03  0.00000000000E+00 0. -1.
         24    1    1    2    0    0  0.26245804466E+02 -0.10398222242E+03 -0.80286124229E+03  0.81397452980E+03  0.80419002446E+02 0. -1.
        -24    1    1    2    0    0 -0.26245804466E+02  0.10398222242E+03  0.74006019988E+01  0.13425025026E+03  0.80419002446E+02 0.  1.
<mgrwt>
<rscale>  0 0.13404611E+03</rscale>
<asrwt>0</asrwt>
<pdfrwt beam="1">  1        2 0.13412963E+00 0.13404611E+03</pdfrwt>
<pdfrwt beam="2">  1       -2 0.11751089E-01 0.13404611E+03</pdfrwt>
<totfact> 0.16118881E+03</totfact>
</mgrwt>
</event>
<event>
 4    1  0.4938540E-001  0.8893833E+02  0.7546771E-02  0.1305443E+00
         -2   -1    0    0    0  501 -0.00000000000E+00  0.00000000000E+00  0.13722694478E+03  0.13722694478E+03  0.00000000000E+00 0.  1.
          2   -1    0    0  501    0  0.00000000000E+00 -0.00000000000E+00 -0.19435027100E+03  0.19435027100E+03  0.00000000000E+00 0. -1.
         24    1    1    2    0    0  0.34542390042E+02  0.15799792336E+02 -0.16760801991E+03  0.18974318022E+03  0.80419002446E+02 0. -1.
        -24    1    1    2    0    0 -0.34542390042E+02 -0.15799792336E+02  0.11048469369E+03  0.14183403556E+03  0.80419002446E+02 0.  1.
<mgrwt>
<rscale>  0 0.88938328E+02</rscale>
<asrwt>0</asrwt>
<pdfrwt beam="1">  1        2 0.29900042E-01 0.88938328E+02</pdfrwt>
<pdfrwt beam="2">  1       -2 0.21111838E-01 0.88938328E+02</pdfrwt>
<totfact> 0.31728718E+03</totfact>
</mgrwt>
</event>
<event>
 4    1  0.4938540E-001  0.8763851E+02  0.7546771E-02  0.1308673E+00
          2   -1    0    0  501    0  0.00000000000E+00  0.00000000000E+00  0.15649053023E+04  0.15649053023E+04  0.00000000000E+00 0. -1.
         -2   -1    0    0    0  501 -0.00000000000E+00 -0.00000000000E+00 -0.16861553071E+03  0.16861553071E+03  0.00000000000E+00 0.  1.
         24    1    1    2    0    0  0.34679506540E+02  0.32595740396E+01  0.15521975481E+04  0.15546696553E+04  0.80419002446E+02 0. -1.
        -24    1    1    2    0    0 -0.34679506540E+02 -0.32595740396E+01 -0.15590777654E+03  0.17885117762E+03  0.80419002446E+02 0.  1.
<mgrwt>
<rscale>  0 0.87638513E+02</rscale>
<asrwt>0</asrwt>
<pdfrwt beam="1">  1        2 0.24075465E+00 0.87638513E+02</pdfrwt>
<pdfrwt beam="2">  1       -2 0.25940852E-01 0.87638513E+02</pdfrwt>
<totfact> 0.18075590E+02</totfact>
</mgrwt>
</event>
<event>
 4    1  0.4938540E-001  0.8139127E+02  0.7546771E-02  0.1325149E+00
          4   -1    0    0  501    0  0.00000000000E+00  0.00000000000E+00  0.45084675719E+02  0.45084675719E+02  0.00000000000E+00 0. -1.
         -4   -1    0    0    0  501 -0.00000000000E+00 -0.00000000000E+00 -0.17772731557E+03  0.17772731557E+03  0.00000000000E+00 0.  1.
         24    1    1    2    0    0 -0.72902636830E+01  0.10206649241E+02 -0.19950039507E+02  0.83800618518E+02  0.80419002446E+02 0.  0.
        -24    1    1    2    0    0  0.72902636830E+01 -0.10206649241E+02 -0.11269260035E+03  0.13901137277E+03  0.80419002446E+02 0.  1.
<mgrwt>
<rscale>  0 0.81391275E+02</rscale>
<asrwt>0</asrwt>
<pdfrwt beam="1">  1        4 0.69361041E-02 0.81391275E+02</pdfrwt>
<pdfrwt beam="2">  1       -4 0.27342663E-01 0.81391275E+02</pdfrwt>
<totfact> 0.25507945E+03</totfact>
</mgrwt>
</event>
<event>
 4    1  0.4938540E-001  0.8220449E+02  0.7546771E-02  0.1322909E+00
         -2   -1    0    0    0  501 -0.00000000000E+00  0.00000000000E+00  0.55171321750E+01  0.55171321750E+01  0.00000000000E+00 0.  1.
          2   -1    0    0  501    0  0.00000000000E+00 -0.00000000000E+00 -0.14663396326E+04  0.14663396326E+04  0.00000000000E+00 0. -1.
         24    1    1    2    0    0 -0.12191977996E+02  0.11904528683E+02 -0.10290737908E+04  0.10323518998E+04  0.80419002446E+02 0. -1.
        -24    1    1    2    0    0  0.12191977996E+02 -0.11904528683E+02 -0.43174870968E+03  0.43950486505E+03  0.80419002446E+02 0.  1.
<mgrwt>
<rscale>  0 0.82204489E+02</rscale>
<asrwt>0</asrwt>
<pdfrwt beam="1">  1        2 0.22559095E+00 0.82204489E+02</pdfrwt>
<pdfrwt beam="2">  1       -2 0.84878869E-03 0.82204489E+02</pdfrwt>
<totfact> 0.35207717E+04</totfact>
</mgrwt>
</event>
<event>
 4    1  0.4938540E-001  0.1051661E+03  0.7546771E-02  0.1269793E+00
          3   -1    0    0  501    0  0.00000000000E+00  0.00000000000E+00  0.12202868846E+03  0.12202868846E+03  0.00000000000E+00 0. -1.
         -3   -1    0    0    0  501 -0.00000000000E+00 -0.00000000000E+00 -0.90729317233E+02  0.90729317233E+02  0.00000000000E+00 0.  1.
         24    1    1    2    0    0  0.52854982543E+02  0.42415070504E+02  0.12195045932E+02  0.10587078202E+03  0.80419002446E+02 0.  0.
        -24    1    1    2    0    0 -0.52854982543E+02 -0.42415070504E+02  0.19104325294E+02  0.10688722367E+03  0.80419002446E+02 0. -1.
<mgrwt>
<rscale>  0 0.10516608E+03</rscale>
<asrwt>0</asrwt>
<pdfrwt beam="1">  1        3 0.18773644E-01 0.10516608E+03</pdfrwt>
<pdfrwt beam="2">  1       -3 0.13958356E-01 0.10516608E+03</pdfrwt>
<totfact> 0.23016284E+03</totfact>
</mgrwt>
</event>
<event>
 4    1  0.4938540E-001  0.2358711E+03  0.7546771E-02  0.1122574E+00
          2   -1    0    0  501    0  0.00000000000E+00  0.00000000000E+00  0.13925114108E+04  0.13925114108E+04  0.00000000000E+00 0. -1.
         -2   -1    0    0    0  501 -0.00000000000E+00 -0.00000000000E+00 -0.40383991934E+02  0.40383991934E+02  0.00000000000E+00 0.  1.
         24    1    1    2    0    0 -0.10682997391E+03 -0.19430720333E+03  0.60205825549E+03  0.64661371123E+03  0.80419002446E+02 0.  1.
        -24    1    1    2    0    0  0.10682997391E+03  0.19430720333E+03  0.75006916339E+03  0.78628169152E+03  0.80419002446E+02 0. -1.
<mgrwt>
<rscale>  0 0.23587107E+03</rscale>
<asrwt>0</asrwt>
<pdfrwt beam="1">  1        2 0.21423249E+00 0.23587110E+03</pdfrwt>
<pdfrwt beam="2">  1       -2 0.62129229E-02 0.23587110E+03</pdfrwt>
<totfact> 0.21884241E+03</totfact>
</mgrwt>
</event>
<event>
 4    1  0.4938540E-001  0.8221935E+02  0.7546771E-02  0.1322869E+00
         -2   -1    0    0    0  501 -0.00000000000E+00  0.00000000000E+00  0.52114111256E+02  0.52114111256E+02  0.00000000000E+00 0.  1.
          2   -1    0    0  501    0  0.00000000000E+00 -0.00000000000E+00 -0.44784762537E+03  0.44784762537E+03  0.00000000000E+00 0. -1.
         24    1    1    2    0    0 -0.69341995244E+00  0.17097525862E+02 -0.40855738239E+03  0.41674831359E+03  0.80419002446E+02 0. -1.
        -24    1    1    2    0    0  0.69341995244E+00 -0.17097525862E+02  0.12823868273E+02  0.83213423038E+02  0.80419002446E+02 0.  1.
<mgrwt>
<rscale>  0 0.82219354E+02</rscale>
<asrwt>0</asrwt>
<pdfrwt beam="1">  1        2 0.68899636E-01 0.82219354E+02</pdfrwt>
<pdfrwt beam="2">  1       -2 0.80175554E-02 0.82219354E+02</pdfrwt>
<totfact> 0.61591144E+03</totfact>
</mgrwt>
</event>
<event>
 4    1  0.4938540E-001  0.1106209E+03  0.7546771E-02  0.1259424E+00
         -1   -1    0    0    0  501 -0.00000000000E+00  0.00000000000E+00  0.13587484249E+04  0.13587484249E+04  0.00000000000E+00 0.  1.
          1   -1    0    0  501    0  0.00000000000E+00 -0.00000000000E+00 -0.97271459309E+01  0.97271459309E+01  0.00000000000E+00 0. -1.
         24    1    1    2    0    0  0.64300502416E+02  0.40437785174E+02  0.48821423163E+03  0.50058977317E+03  0.80419002446E+02 0. -1.
        -24    1    1    2    0    0 -0.64300502416E+02 -0.40437785174E+02  0.86080704734E+03  0.86788579767E+03  0.80419002446E+02 0.  1.
<mgrwt>
<rscale>  0 0.11062092E+03</rscale>
<asrwt>0</asrwt>
<pdfrwt beam="1">  1        1 0.14964851E-02 0.11062093E+03</pdfrwt>
<pdfrwt beam="2">  1       -1 0.20903807E+00 0.11062093E+03</pdfrwt>
<totfact> 0.12854181E+03</totfact>
</mgrwt>
</event>
<event>
 4    1  0.4938540E-001  0.1403440E+03  0.7546771E-02  0.1212867E+00
          2   -1    0    0  501    0  0.00000000000E+00  0.00000000000E+00  0.23357636132E+04  0.23357636132E+04  0.00000000000E+00 0. -1.
         -2   -1    0    0    0  501 -0.00000000000E+00 -0.00000000000E+00 -0.16371833496E+02  0.16371833496E+02  0.00000000000E+00 0.  1.
         24    1    1    2    0    0  0.11172747955E+03  0.27316574714E+02  0.19786778896E+04  0.19836488176E+04  0.80419002446E+02 0.  0.
        -24    1    1    2    0    0 -0.11172747955E+03 -0.27316574714E+02  0.34071389020E+03  0.36848662916E+03  0.80419002446E+02 0. -1.
<mgrwt>
<rscale>  0 0.14034401E+03</rscale>
<asrwt>0</asrwt>
<pdfrwt beam="1">  1        2 0.35934799E+00 0.14034401E+03</pdfrwt>
<pdfrwt beam="2">  1       -2 0.25187455E-02 0.14034401E+03</pdfrwt>
<totfact> 0.27284419E+03</totfact>
</mgrwt>
</event>
<event>
 4    1  0.4938540E-001  0.9070113E+02  0.7546771E-02  0.1301163E+00
          2   -1    0    0  501    0  0.00000000000E+00  0.00000000000E+00  0.86978783330E+02  0.86978783330E+02  0.00000000000E+00 0. -1.
         -2   -1    0    0    0  501 -0.00000000000E+00 -0.00000000000E+00 -0.11719749268E+03  0.11719749268E+03  0.00000000000E+00 0.  1.
         24    1    1    2    0    0 -0.69379209412E+01 -0.41368392111E+02  0.29735407138E+02  0.95450976972E+02  0.80419002446E+02 0.  0.
        -24    1    1    2    0    0  0.69379209412E+01  0.41368392111E+02 -0.59954116489E+02  0.10872529904E+03  0.80419002446E+02 0.  0.
<mgrwt>
<rscale>  0 0.90701128E+02</rscale>
<asrwt>0</asrwt>
<pdfrwt beam="1">  1        2 0.13381351E-01 0.90701128E+02</pdfrwt>
<pdfrwt beam="2">  1       -2 0.18030384E-01 0.90701128E+02</pdfrwt>
<totfact> 0.10160146E+04</totfact>
</mgrwt>
</event>
<event>
 4    1  0.4938540E-001  0.1019573E+03  0.7546771E-02  0.1276233E+00
         -4   -1    0    0    0  501 -0.00000000000E+00  0.00000000000E+00  0.11727994169E+03  0.11727994169E+03  0.00000000000E+00 0.  1.
          4   -1    0    0  501    0  0.00000000000E+00 -0.00000000000E+00 -0.10374595612E+03  0.10374595612E+03  0.00000000000E+00 0. -1.
         24    1    1    2    0    0 -0.59304810154E+02  0.20273277766E+02 -0.35407721968E+02  0.10793048239E+03  0.80419002446E+02 0. -1.
        -24    1    1    2    0    0  0.59304810154E+02 -0.20273277766E+02  0.48941707537E+02  0.11309541542E+03  0.80419002446E+02 0.  1.
<mgrwt>
<rscale>  0 0.10195726E+03</rscale>
<asrwt>0</asrwt>
<pdfrwt beam="1">  1        4 0.15960916E-01 0.10195726E+03</pdfrwt>
<pdfrwt beam="2">  1       -4 0.18043068E-01 0.10195726E+03</pdfrwt>
<totfact> 0.14138982E+03</totfact>
</mgrwt>
</event>
<event>
 4    1  0.4938540E-001  0.8975690E+02  0.7546771E-02  0.1303441E+00
         -1   -1    0    0    0  501 -0.00000000000E+00  0.00000000000E+00  0.25664247819E+03  0.25664247819E+03  0.00000000000E+00 0.  1.
          1   -1    0    0  501    0  0.00000000000E+00 -0.00000000000E+00 -0.11319948099E+03  0.11319948099E+03  0.00000000000E+00 0. -1.
         24    1    1    2    0    0  0.19522077782E+02  0.34755924188E+02  0.22892519079E+03  0.24589234376E+03  0.80419002446E+02 0.  1.
        -24    1    1    2    0    0 -0.19522077782E+02 -0.34755924188E+02 -0.85482193595E+02  0.12394961542E+03  0.80419002446E+02 0. -1.
<mgrwt>
<rscale>  0 0.89756904E+02</rscale>
<asrwt>0</asrwt>
<pdfrwt beam="1">  1        1 0.17415305E-01 0.89756904E+02</pdfrwt>
<pdfrwt beam="2">  1       -1 0.39483458E-01 0.89756904E+02</pdfrwt>
<totfact> 0.18529166E+03</totfact>
</mgrwt>
</event>
<event>
 4    1  0.4938540E-001  0.8640176E+02  0.7546771E-02  0.1311807E+00
         -1   -1    0    0    0  501 -0.00000000000E+00  0.00000000000E+00  0.12997296914E+04  0.12997296914E+04  0.00000000000E+00 0.  1.
          1   -1    0    0  501    0  0.00000000000E+00 -0.00000000000E+00 -0.69538068054E+01  0.69538068054E+01  0.00000000000E+00 0. -1.
         24    1    1    2    0    0 -0.24758078117E+02  0.19623599681E+02  0.91893408377E+03  0.92298706078E+03  0.80419002446E+02 0.  1.
        -24    1    1    2    0    0  0.24758078117E+02 -0.19623599681E+02  0.37384180087E+03  0.38369643747E+03  0.80419002446E+02 0. -1.
<mgrwt>
<rscale>  0 0.86401760E+02</rscale>
<asrwt>0</asrwt>
<pdfrwt beam="1">  1        1 0.10698175E-02 0.86401760E+02</pdfrwt>
<pdfrwt beam="2">  1       -1 0.19995822E+00 0.86401760E+02</pdfrwt>
<totfact> 0.23099590E+03</totfact>
</mgrwt>
</event>
<event>
 4    1  0.4938540E-001  0.1138820E+03  0.7546771E-02  0.1253545E+00
         -2   -1    0    0    0  501 -0.00000000000E+00  0.00000000000E+00  0.18804761063E+02  0.18804761063E+02  0.00000000000E+00 0.  1.
          2   -1    0    0  501    0  0.00000000000E+00 -0.00000000000E+00 -0.11097041052E+04  0.11097041052E+04  0.00000000000E+00 0. -1.
         24    1    1    2    0    0  0.53106567906E+01 -0.80459315843E+02 -0.89259596713E+03  0.89983147371E+03  0.80419002446E+02 0. -1.
        -24    1    1    2    0    0 -0.53106567906E+01  0.80459315843E+02 -0.19830337703E+03  0.22867739258E+03  0.80419002446E+02 0.  1.
<mgrwt>
<rscale>  0 0.11388205E+03</rscale>
<asrwt>0</asrwt>
<pdfrwt beam="1">  1        2 0.17072375E+00 0.11388205E+03</pdfrwt>
<pdfrwt beam="2">  1       -2 0.28930395E-02 0.11388205E+03</pdfrwt>
<totfact> 0.96606865E+03</totfact>
</mgrwt>
</event>
<event>
 4    1  0.4938540E-001  0.8213422E+02  0.7546771E-02  0.1323102E+00
         -1   -1    0    0    0  501 -0.00000000000E+00  0.00000000000E+00  0.70072853415E+02  0.70072853415E+02  0.00000000000E+00 0.  1.
          1   -1    0    0  501    0  0.00000000000E+00 -0.00000000000E+00 -0.14426286360E+03  0.14426286360E+03  0.00000000000E+00 0. -1.
         24    1    1    2    0    0  0.70453489208E+01 -0.15138614424E+02  0.24716320702E+02  0.85772530868E+02  0.80419002446E+02 0.  0.
        -24    1    1    2    0    0 -0.70453489208E+01  0.15138614424E+02 -0.98906330884E+02  0.12856318614E+03  0.80419002446E+02 0. -1.
<mgrwt>
<rscale>  0 0.82134223E+02</rscale>
<asrwt>0</asrwt>
<pdfrwt beam="1">  1        1 0.22194286E-01 0.82134223E+02</pdfrwt>
<pdfrwt beam="2">  1       -1 0.10780439E-01 0.82134223E+02</pdfrwt>
<totfact> 0.10844380E+04</totfact>
</mgrwt>
</event>
<event>
 4    1  0.4938540E-001  0.1060720E+03  0.7546771E-02  0.1268022E+00
         -1   -1    0    0    0  501 -0.00000000000E+00  0.00000000000E+00  0.28974265556E+03  0.28974265556E+03  0.00000000000E+00 0.  1.
          1   -1    0    0  501    0  0.00000000000E+00 -0.00000000000E+00 -0.39013722179E+02  0.39013722179E+02  0.00000000000E+00 0. -1.
         24    1    1    2    0    0 -0.60050402014E+02 -0.34321816004E+02  0.11414232978E+03  0.15581952778E+03  0.80419002446E+02 0. -1.
        -24    1    1    2    0    0  0.60050402014E+02  0.34321816004E+02  0.13658660361E+03  0.17293684997E+03  0.80419002446E+02 0.  1.
<mgrwt>
<rscale>  0 0.10607194E+03</rscale>
<asrwt>0</asrwt>
<pdfrwt beam="1">  1        1 0.60021113E-02 0.10607195E+03</pdfrwt>
<pdfrwt beam="2">  1       -1 0.44575792E-01 0.10607195E+03</pdfrwt>
<totfact> 0.61099602E+03</totfact>
</mgrwt>
</event>
<event>
 4    1  0.4938540E-001  0.1026386E+03  0.7546771E-02  0.1274843E+00
          1   -1    0    0  501    0  0.00000000000E+00  0.00000000000E+00  0.62502692988E+02  0.62502692988E+02  0.00000000000E+00 0. -1.
         -1   -1    0    0    0  501 -0.00000000000E+00 -0.00000000000E+00 -0.16855017851E+03  0.16855017851E+03  0.00000000000E+00 0.  1.
         24    1    1    2    0    0  0.11100673112E+02 -0.62803162562E+02 -0.53476679145E+02  0.11573432221E+03  0.80419002446E+02 0. -1.
        -24    1    1    2    0    0 -0.11100673112E+02  0.62803162562E+02 -0.52570806374E+02  0.11531854928E+03  0.80419002446E+02 0.  1.
<mgrwt>
<rscale>  0 0.10263858E+03</rscale>
<asrwt>0</asrwt>
<pdfrwt beam="1">  1        1 0.96157990E-02 0.10263858E+03</pdfrwt>
<pdfrwt beam="2">  1       -1 0.25930796E-01 0.10263858E+03</pdfrwt>
<totfact> 0.81642719E+03</totfact>
</mgrwt>
</event>
<event>
 4    1  0.4938540E-001  0.8794678E+02  0.7546771E-02  0.1307901E+00
         -2   -1    0    0    0  501 -0.00000000000E+00  0.00000000000E+00  0.36608633852E+02  0.36608633852E+02  0.00000000000E+00 0.  1.
          2   -1    0    0  501    0  0.00000000000E+00 -0.00000000000E+00 -0.41589688415E+03  0.41589688415E+03  0.00000000000E+00 0. -1.
         24    1    1    2    0    0  0.35562074621E+02  0.16612521182E+01 -0.34834261979E+03  0.35927317967E+03  0.80419002446E+02 0. -1.
        -24    1    1    2    0    0 -0.35562074621E+02 -0.16612521182E+01 -0.30945630510E+02  0.93232338338E+02  0.80419002446E+02 0.  1.
<mgrwt>
<rscale>  0 0.87946784E+02</rscale>
<asrwt>0</asrwt>
<pdfrwt beam="1">  1        2 0.63984140E-01 0.87946784E+02</pdfrwt>
<pdfrwt beam="2">  1       -2 0.56320972E-02 0.87946784E+02</pdfrwt>
<totfact> 0.11406664E+04</totfact>
</mgrwt>
</event>
<event>
 4    1  0.4938540E-001  0.1100143E+03  0.7546771E-02  0.1260543E+00
         -3   -1    0    0    0  501 -0.00000000000E+00  0.00000000000E+00  0.17285556795E+04  0.17285556795E+04  0.00000000000E+00 0.  1.
          3   -1    0    0  501    0  0.00000000000E+00 -0.00000000000E+00 -0.73004787065E+01  0.73004787065E+01  0.00000000000E+00 0. -1.
         24    1    1    2    0    0  0.37278500521E+02 -0.65163154603E+02  0.10361579029E+04  0.10419819284E+04  0.80419002446E+02 0.  0.
        -24    1    1    2    0    0 -0.37278500521E+02  0.65163154603E+02  0.68509729789E+03  0.69387422985E+03  0.80419002446E+02 0.  1.
<mgrwt>
<rscale>  0 0.11001427E+03</rscale>
<asrwt>0</asrwt>
<pdfrwt beam="1">  1        3 0.11231519E-02 0.11001427E+03</pdfrwt>
<pdfrwt beam="2">  1       -3 0.26593132E+00 0.11001427E+03</pdfrwt>
<totfact> 0.35597463E+02</totfact>
</mgrwt>
</event>
<event>
 4    1  0.4938540E-001  0.9233677E+02  0.7546771E-02  0.1297290E+00
          1   -1    0    0  501    0  0.00000000000E+00  0.00000000000E+00  0.91771808861E+02  0.91771808861E+02  0.00000000000E+00 0. -1.
         -1   -1    0    0    0  501 -0.00000000000E+00 -0.00000000000E+00 -0.13098028175E+03  0.13098028175E+03  0.00000000000E+00 0.  1.
         24    1    1    2    0    0  0.43670377792E+02  0.12319140945E+02 -0.79653709916E+02  0.12194585925E+03  0.80419002446E+02 0.  1.
        -24    1    1    2    0    0 -0.43670377792E+02 -0.12319140945E+02  0.40445237023E+02  0.10080623137E+03  0.80419002446E+02 0. -1.
<mgrwt>
<rscale>  0 0.92336770E+02</rscale>
<asrwt>0</asrwt>
<pdfrwt beam="1">  1        1 0.14118740E-01 0.92336770E+02</pdfrwt>
<pdfrwt beam="2">  1       -1 0.20150813E-01 0.92336770E+02</pdfrwt>
<totfact> 0.73726368E+03</totfact>
</mgrwt>
</event>
<event>
 4    1  0.4938540E-001  0.8513538E+02  0.7546771E-02  0.1315079E+00
         -2   -1    0    0    0  501 -0.00000000000E+00  0.00000000000E+00  0.20916010618E+02  0.20916010618E+02  0.00000000000E+00 0.  1.
          2   -1    0    0  501    0  0.00000000000E+00 -0.00000000000E+00 -0.12094939412E+04  0.12094939412E+04  0.00000000000E+00 0. -1.
         24    1    1    2    0    0 -0.27833532129E+02 -0.24719989387E+01 -0.11139429122E+04  0.11171914983E+04  0.80419002446E+02 0. -1.
        -24    1    1    2    0    0  0.27833532129E+02  0.24719989387E+01 -0.74635018340E+02  0.11321845347E+03  0.80419002446E+02 0.  1.
<mgrwt>
<rscale>  0 0.85135376E+02</rscale>
<asrwt>0</asrwt>
<pdfrwt beam="1">  1        2 0.18607598E+00 0.85135376E+02</pdfrwt>
<pdfrwt beam="2">  1       -2 0.32178480E-02 0.85135376E+02</pdfrwt>
<totfact> 0.71729934E+03</totfact>
</mgrwt>
</event>
<event>
 4    1  0.4938540E-001  0.8234226E+02  0.7546771E-02  0.1322533E+00
          2   -1    0    0  501    0  0.00000000000E+00  0.00000000000E+00  0.13260174889E+03  0.13260174889E+03  0.00000000000E+00 0. -1.
         -2   -1    0    0    0  501 -0.00000000000E+00 -0.00000000000E+00 -0.51599539012E+02  0.51599539012E+02  0.00000000000E+00 0.  1.
         24    1    1    2    0    0  0.14632743815E+02 -0.99454074202E+01  0.31737804566E+02  0.88246997192E+02  0.80419002446E+02 0.  1.
        -24    1    1    2    0    0 -0.14632743815E+02  0.99454074202E+01  0.49264405307E+02  0.95954290706E+02  0.80419002446E+02 0.  1.
<mgrwt>
<rscale>  0 0.82342249E+02</rscale>
<asrwt>0</asrwt>
<pdfrwt beam="1">  1        2 0.20400269E-01 0.82342259E+02</pdfrwt>
<pdfrwt beam="2">  1       -2 0.79383907E-02 0.82342259E+02</pdfrwt>
<totfact> 0.22742238E+04</totfact>
</mgrwt>
</event>
<event>
 4    1  0.4938540E-001  0.9320093E+02  0.7546771E-02  0.1295280E+00
          2   -1    0    0  501    0  0.00000000000E+00  0.00000000000E+00  0.50433139572E+03  0.50433139572E+03  0.00000000000E+00 0. -1.
         -2   -1    0    0    0  501 -0.00000000000E+00 -0.00000000000E+00 -0.17223899375E+02  0.17223899375E+02  0.00000000000E+00 0.  1.
         24    1    1    2    0    0  0.43674731996E+02  0.17655338613E+02  0.24249176039E+03  0.25978580217E+03  0.80419002446E+02 0. -1.
        -24    1    1    2    0    0 -0.43674731996E+02 -0.17655338613E+02  0.24461573595E+03  0.26176949293E+03  0.80419002446E+02 0.  0.
<mgrwt>
<rscale>  0 0.93200919E+02</rscale>
<asrwt>0</asrwt>
<pdfrwt beam="1">  1        2 0.77589434E-01 0.93200931E+02</pdfrwt>
<pdfrwt beam="2">  1       -2 0.26498311E-02 0.93200931E+02</pdfrwt>
<totfact> 0.28265635E+04</totfact>
</mgrwt>
</event>
<event>
 4    1  0.4938540E-001  0.1132915E+03  0.7546771E-02  0.1254593E+00
          1   -1    0    0  501    0  0.00000000000E+00  0.00000000000E+00  0.41632094821E+03  0.41632094821E+03  0.00000000000E+00 0. -1.
         -1   -1    0    0    0  501 -0.00000000000E+00 -0.00000000000E+00 -0.39438675574E+02  0.39438675574E+02  0.00000000000E+00 0.  1.
         24    1    1    2    0    0 -0.77012523275E+02  0.20899997277E+02  0.81971393211E+02  0.13983656134E+03  0.80419002446E+02 0. -1.
        -24    1    1    2    0    0  0.77012523275E+02 -0.20899997277E+02  0.29491087942E+03  0.31592306244E+03  0.80419002446E+02 0.  1.
<mgrwt>
<rscale>  0 0.11329146E+03</rscale>
<asrwt>0</asrwt>
<pdfrwt beam="1">  1        1 0.64049374E-01 0.11329146E+03</pdfrwt>
<pdfrwt beam="2">  1       -1 0.60674888E-02 0.11329146E+03</pdfrwt>
<totfact> 0.71329279E+03</totfact>
</mgrwt>
</event>
<event>
 4    1  0.4938540E-001  0.8269823E+02  0.7546771E-02  0.1321564E+00
         -2   -1    0    0    0  501 -0.00000000000E+00  0.00000000000E+00  0.56417083699E+02  0.56417083699E+02  0.00000000000E+00 0.  1.
          2   -1    0    0  501    0  0.00000000000E+00 -0.00000000000E+00 -0.56133725517E+03  0.56133725517E+03  0.00000000000E+00 0. -1.
         24    1    1    2    0    0 -0.28548817704E+01 -0.19069114542E+02 -0.52595990051E+03  0.53242165093E+03  0.80419002446E+02 0. -1.
        -24    1    1    2    0    0  0.28548817704E+01  0.19069114542E+02  0.21039729035E+02  0.85332687943E+02  0.80419002446E+02 0.  1.
<mgrwt>
<rscale>  0 0.82698231E+02</rscale>
<asrwt>0</asrwt>
<pdfrwt beam="1">  1        2 0.86359579E-01 0.82698231E+02</pdfrwt>
<pdfrwt beam="2">  1       -2 0.86795512E-02 0.82698231E+02</pdfrwt>
<totfact> 0.42785941E+03</totfact>
</mgrwt>
</event>
<event>
 4    1  0.4938540E-001  0.8207081E+02  0.7546771E-02  0.1323275E+00
          2   -1    0    0  501    0  0.00000000000E+00  0.00000000000E+00  0.13503106455E+04  0.13503106455E+04  0.00000000000E+00 0. -1.
         -2   -1    0    0    0  501 -0.00000000000E+00 -0.00000000000E+00 -0.54016985920E+01  0.54016985920E+01  0.00000000000E+00 0.  1.
         24    1    1    2    0    0 -0.16318353545E+02 -0.14538708622E+01  0.86000136349E+03  0.86390853888E+03  0.80419002446E+02 0. -1.
        -24    1    1    2    0    0  0.16318353545E+02  0.14538708622E+01  0.48490758339E+03  0.49180380517E+03  0.80419002446E+02 0.  0.
<mgrwt>
<rscale>  0 0.82070813E+02</rscale>
<asrwt>0</asrwt>
<pdfrwt beam="1">  1        2 0.20773983E+00 0.82070813E+02</pdfrwt>
<pdfrwt beam="2">  1       -2 0.83103163E-03 0.82070813E+02</pdfrwt>
<totfact> 0.41618385E+04</totfact>
</mgrwt>
</event>
<event>
 4    1  0.4938540E-001  0.9898851E+02  0.7546771E-02  0.1282437E+00
          2   -1    0    0  501    0  0.00000000000E+00  0.00000000000E+00  0.30000716506E+03  0.30000716506E+03  0.00000000000E+00 0. -1.
         -2   -1    0    0    0  501 -0.00000000000E+00 -0.00000000000E+00 -0.34794064351E+02  0.34794064351E+02  0.00000000000E+00 0.  1.
         24    1    1    2    0    0 -0.56255177303E+02  0.12917604102E+02  0.17404862486E+03  0.20022899201E+03  0.80419002446E+02 0.  1.
        -24    1    1    2    0    0  0.56255177303E+02 -0.12917604102E+02  0.91164475847E+02  0.13457223740E+03  0.80419002446E+02 0. -1.
<mgrwt>
<rscale>  0 0.98988512E+02</rscale>
<asrwt>0</asrwt>
<pdfrwt beam="1">  1        2 0.46154947E-01 0.98988512E+02</pdfrwt>
<pdfrwt beam="2">  1       -2 0.53529332E-02 0.98988512E+02</pdfrwt>
<totfact> 0.17527841E+04</totfact>
</mgrwt>
</event>
<event>
 4    1  0.4938540E-001  0.1541083E+03  0.7546771E-02  0.1195514E+00
         -1   -1    0    0    0  501 -0.00000000000E+00  0.00000000000E+00  0.42259992530E+02  0.42259992530E+02  0.00000000000E+00 0.  1.
          1   -1    0    0  501    0  0.00000000000E+00 -0.00000000000E+00 -0.56455936191E+03  0.56455936191E+03  0.00000000000E+00 0. -1.
         24    1    1    2    0    0 -0.56030025266E+02  0.11892344248E+03 -0.24065020126E+03  0.28576543567E+03  0.80419002446E+02 0.  0.
        -24    1    1    2    0    0  0.56030025266E+02 -0.11892344248E+03 -0.28164916812E+03  0.32105391877E+03  0.80419002446E+02 0.  0.
<mgrwt>
<rscale>  0 0.15410829E+03</rscale>
<asrwt>0</asrwt>
<pdfrwt beam="1">  1        1 0.86855284E-01 0.15410829E+03</pdfrwt>
<pdfrwt beam="2">  1       -1 0.65015375E-02 0.15410829E+03</pdfrwt>
<totfact> 0.44093786E+03</totfact>
</mgrwt>
</event>
<event>
 4    1  0.4938540E-001  0.1044828E+03  0.7546771E-02  0.1271142E+00
         -2   -1    0    0    0  501 -0.00000000000E+00  0.00000000000E+00  0.10030299698E+02  0.10030299698E+02  0.00000000000E+00 0.  1.
          2   -1    0    0  501    0  0.00000000000E+00 -0.00000000000E+00 -0.13445591617E+04  0.13445591617E+04  0.00000000000E+00 0. -1.
         24    1    1    2    0    0  0.36996655122E+02 -0.55503868986E+02 -0.96290947040E+03  0.96856145706E+03  0.80419002446E+02 0. -1.
        -24    1    1    2    0    0 -0.36996655122E+02  0.55503868986E+02 -0.37161939158E+03  0.38602800431E+03  0.80419002446E+02 0.  1.
<mgrwt>
<rscale>  0 0.10448276E+03</rscale>
<asrwt>0</asrwt>
<pdfrwt beam="1">  1        2 0.20685521E+00 0.10448276E+03</pdfrwt>
<pdfrwt beam="2">  1       -2 0.15431234E-02 0.10448276E+03</pdfrwt>
<totfact> 0.17763113E+04</totfact>
</mgrwt>
</event>
<event>
 4    1  0.4938540E-001  0.8182110E+02  0.7546771E-02  0.1323961E+00
         -2   -1    0    0    0  501 -0.00000000000E+00  0.00000000000E+00  0.11063654183E+03  0.11063654183E+03  0.00000000000E+00 0.  1.
          2   -1    0    0  501    0  0.00000000000E+00 -0.00000000000E+00 -0.17524719275E+04  0.17524719275E+04  0.00000000000E+00 0. -1.
         24    1    1    2    0    0  0.14041806598E+02 -0.55049575250E+01 -0.17362479420E+04  0.17381747924E+04  0.80419002446E+02 0. -1.
        -24    1    1    2    0    0 -0.14041806598E+02  0.55049575250E+01  0.94412556311E+02  0.12493367694E+03  0.80419002446E+02 0.  1.
<mgrwt>
<rscale>  0 0.81821103E+02</rscale>
<asrwt>0</asrwt>
<pdfrwt beam="1">  1        2 0.26961107E+00 0.81821103E+02</pdfrwt>
<pdfrwt beam="2">  1       -2 0.17021006E-01 0.81821103E+02</pdfrwt>
<totfact> 0.29709268E+02</totfact>
</mgrwt>
</event>
<event>
 4    1  0.4938540E-001  0.8380992E+02  0.7546771E-02  0.1318574E+00
          2   -1    0    0  501    0  0.00000000000E+00  0.00000000000E+00  0.23241556889E+04  0.23241556889E+04  0.00000000000E+00 0. -1.
         -2   -1    0    0    0  501 -0.00000000000E+00 -0.00000000000E+00 -0.31297272435E+01  0.31297272435E+01  0.00000000000E+00 0.  1.
         24    1    1    2    0    0 -0.21151911789E+02  0.10463427325E+02  0.13761838556E+04  0.13787335156E+04  0.80419002446E+02 0.  1.
        -24    1    1    2    0    0  0.21151911789E+02 -0.10463427325E+02  0.94484210606E+03  0.94855190054E+03  0.80419002446E+02 0.  0.
<mgrwt>
<rscale>  0 0.83809920E+02</rscale>
<asrwt>0</asrwt>
<pdfrwt beam="1">  1        2 0.35756103E+00 0.83809920E+02</pdfrwt>
<pdfrwt beam="2">  1       -2 0.48149836E-03 0.83809920E+02</pdfrwt>
<totfact> 0.28901641E+04</totfact>
</mgrwt>
</event>
<event>
 4    1  0.4938540E-001  0.9082371E+02  0.7546771E-02  0.1300869E+00
         -2   -1    0    0    0  501 -0.00000000000E+00  0.00000000000E+00  0.17130697830E+02  0.17130697830E+02  0.00000000000E+00 0.  1.
          2   -1    0    0  501    0  0.00000000000E+00 -0.00000000000E+00 -0.48864749748E+03  0.48864749748E+03  0.00000000000E+00 0. -1.
         24    1    1    2    0    0 -0.29737778021E+02 -0.29956480134E+02 -0.20523724481E+03  0.22443544452E+03  0.80419002446E+02 0.  1.
        -24    1    1    2    0    0  0.29737778021E+02  0.29956480134E+02 -0.26627955484E+03  0.28134275080E+03  0.80419002446E+02 0. -1.
<mgrwt>
<rscale>  0 0.90823698E+02</rscale>
<asrwt>0</asrwt>
<pdfrwt beam="1">  1        2 0.75176536E-01 0.90823710E+02</pdfrwt>
<pdfrwt beam="2">  1       -2 0.26354921E-02 0.90823710E+02</pdfrwt>
<totfact> 0.29395551E+04</totfact>
</mgrwt>
</event>
<event>
 4    1  0.4938540E-001  0.1254737E+03  0.7546771E-02  0.1234331E+00
         -1   -1    0    0    0  501 -0.00000000000E+00  0.00000000000E+00  0.19222681992E+03  0.19222681992E+03  0.00000000000E+00 0.  1.
          1   -1    0    0  501    0  0.00000000000E+00 -0.00000000000E+00 -0.82907353769E+02  0.82907353769E+02  0.00000000000E+00 0. -1.
         24    1    1    2    0    0  0.81043057131E+02 -0.52042653519E+02  0.39505859247E+02  0.13154597586E+03  0.80419002446E+02 0.  1.
        -24    1    1    2    0    0 -0.81043057131E+02  0.52042653519E+02  0.69813606909E+02  0.14358819784E+03  0.80419002446E+02 0. -1.
<mgrwt>
<rscale>  0 0.12547364E+03</rscale>
<asrwt>0</asrwt>
<pdfrwt beam="1">  1        1 0.12754978E-01 0.12547366E+03</pdfrwt>
<pdfrwt beam="2">  1       -1 0.29573357E-01 0.12547366E+03</pdfrwt>
<totfact> 0.46041259E+03</totfact>
</mgrwt>
</event>
<event>
 4    1  0.4938540E-001  0.8512073E+02  0.7546771E-02  0.1315117E+00
          2   -1    0    0  501    0  0.00000000000E+00  0.00000000000E+00  0.66647926102E+03  0.66647926102E+03  0.00000000000E+00 0. -1.
         -2   -1    0    0    0  501 -0.00000000000E+00 -0.00000000000E+00 -0.11124892412E+02  0.11124892412E+02  0.00000000000E+00 0.  1.
         24    1    1    2    0    0 -0.24128388193E+02 -0.14004972071E+02  0.27653055269E+03  0.28933489400E+03  0.80419002446E+02 0.  1.
        -24    1    1    2    0    0  0.24128388193E+02  0.14004972071E+02  0.37882381592E+03  0.38826925943E+03  0.80419002446E+02 0.  1.
<mgrwt>
<rscale>  0 0.85120715E+02</rscale>
<asrwt>0</asrwt>
<pdfrwt beam="1">  1        2 0.10253524E+00 0.85120726E+02</pdfrwt>
<pdfrwt beam="2">  1       -2 0.17115224E-02 0.85120726E+02</pdfrwt>
<totfact> 0.38487811E+04</totfact>
</mgrwt>
</event>
<event>
 4    1  0.4938540E-001  0.8984898E+02  0.7546771E-02  0.1303218E+00
          1   -1    0    0  501    0  0.00000000000E+00  0.00000000000E+00  0.40989133464E+02  0.40989133464E+02  0.00000000000E+00 0. -1.
         -1   -1    0    0    0  501 -0.00000000000E+00 -0.00000000000E+00 -0.19810447898E+03  0.19810447898E+03  0.00000000000E+00 0.  1.
         24    1    1    2    0    0 -0.95664993612E-01 -0.40070065426E+02 -0.69434052591E+02  0.11355141086E+03  0.80419002446E+02 0.  0.
        -24    1    1    2    0    0  0.95664993612E-01  0.40070065426E+02 -0.87681292925E+02  0.12554220158E+03  0.80419002446E+02 0.  0.
<mgrwt>
<rscale>  0 0.89848969E+02</rscale>
<asrwt>0</asrwt>
<pdfrwt beam="1">  1        1 0.63060204E-02 0.89848980E+02</pdfrwt>
<pdfrwt beam="2">  1       -1 0.30477613E-01 0.89848980E+02</pdfrwt>
<totfact> 0.10817447E+04</totfact>
</mgrwt>
</event>
<event>
 4    1  0.4938540E-001  0.8419086E+02  0.7546771E-02  0.1317562E+00
         -2   -1    0    0    0  501 -0.00000000000E+00  0.00000000000E+00  0.19632708148E+03  0.19632708148E+03  0.00000000000E+00 0.  1.
          2   -1    0    0  501    0  0.00000000000E+00 -0.00000000000E+00 -0.94288114275E+02  0.94288114275E+02  0.00000000000E+00 0. -1.
         24    1    1    2    0    0  0.24328143639E+02  0.53875870060E+01 -0.63127336439E+02  0.10522908926E+03  0.80419002446E+02 0. -1.
        -24    1    1    2    0    0 -0.24328143639E+02 -0.53875870060E+01  0.16516630364E+03  0.18538610649E+03  0.80419002446E+02 0.  1.
<mgrwt>
<rscale>  0 0.84190858E+02</rscale>
<asrwt>0</asrwt>
<pdfrwt beam="1">  1        2 0.14505864E-01 0.84190858E+02</pdfrwt>
<pdfrwt beam="2">  1       -2 0.30204166E-01 0.84190858E+02</pdfrwt>
<totfact> 0.37971070E+03</totfact>
</mgrwt>
</event>
<event>
 4    1  0.4938540E-001  0.1044705E+03  0.7546771E-02  0.1271166E+00
         -3   -1    0    0    0  501 -0.00000000000E+00  0.00000000000E+00  0.29541912349E+03  0.29541912349E+03  0.00000000000E+00 0.  1.
          3   -1    0    0  501    0  0.00000000000E+00 -0.00000000000E+00 -0.77878184440E+02  0.77878184440E+02  0.00000000000E+00 0. -1.
         24    1    1    2    0    0  0.65524397731E+02  0.12386688019E+02  0.24408913778E+03  0.26550630854E+03  0.80419002446E+02 0.  1.
        -24    1    1    2    0    0 -0.65524397731E+02 -0.12386688019E+02 -0.26548198734E+02  0.10779099939E+03  0.80419002446E+02 0. -1.
<mgrwt>
<rscale>  0 0.10447054E+03</rscale>
<asrwt>0</asrwt>
<pdfrwt beam="1">  1        3 0.11981259E-01 0.10447054E+03</pdfrwt>
<pdfrwt beam="2">  1       -3 0.45449095E-01 0.10447054E+03</pdfrwt>
<totfact> 0.58552402E+02</totfact>
</mgrwt>
</event>
<event>
 4    1  0.4938540E-001  0.1736827E+03  0.7546771E-02  0.1174061E+00
          1   -1    0    0  501    0  0.00000000000E+00  0.00000000000E+00  0.60833447175E+03  0.60833447175E+03  0.00000000000E+00 0. -1.
         -1   -1    0    0    0  501 -0.00000000000E+00 -0.00000000000E+00 -0.94140413461E+02  0.94140413461E+02  0.00000000000E+00 0.  1.
         24    1    1    2    0    0  0.34725172521E+02  0.14997547008E+03  0.15466650307E+02  0.17437004462E+03  0.80419002446E+02 0.  1.
        -24    1    1    2    0    0 -0.34725172521E+02 -0.14997547008E+03  0.49872740798E+03  0.52810484060E+03  0.80419002446E+02 0. -1.
<mgrwt>
<rscale>  0 0.17368274E+03</rscale>
<asrwt>0</asrwt>
<pdfrwt beam="1">  1        1 0.93589916E-01 0.17368274E+03</pdfrwt>
<pdfrwt beam="2">  1       -1 0.14483141E-01 0.17368274E+03</pdfrwt>
<totfact> 0.11707987E+03</totfact>
</mgrwt>
</event>
<event>
 4    1  0.4938540E-001  0.4019119E+03  0.7546771E-02  0.1043120E+00
         -2   -1    0    0    0  501 -0.00000000000E+00  0.00000000000E+00  0.16871740147E+04  0.16871740147E+04  0.00000000000E+00 0.  1.
          2   -1    0    0  501    0  0.00000000000E+00 -0.00000000000E+00 -0.63848732036E+03  0.63848732036E+03  0.00000000000E+00 0. -1.
         24    1    1    2    0    0 -0.95370400996E+02  0.38206076736E+03 -0.54776442089E+03  0.67939607011E+03  0.80419002446E+02 0. -1.
        -24    1    1    2    0    0  0.95370400996E+02 -0.38206076736E+03  0.15964511152E+04  0.16462652649E+04  0.80419002446E+02 0.  1.
<mgrwt>
<rscale>  0 0.40191188E+03</rscale>
<asrwt>0</asrwt>
<pdfrwt beam="1">  1        2 0.98228819E-01 0.40191188E+03</pdfrwt>
<pdfrwt beam="2">  1       -2 0.25956523E+00 0.40191188E+03</pdfrwt>
<totfact> 0.28601210E+00</totfact>
</mgrwt>
</event>
<event>
 4    1  0.4938540E-001  0.9108922E+02  0.7546771E-02  0.1300235E+00
          4   -1    0    0  501    0  0.00000000000E+00  0.00000000000E+00  0.21128085355E+02  0.21128085355E+02  0.00000000000E+00 0. -1.
         -4   -1    0    0    0  501 -0.00000000000E+00 -0.00000000000E+00 -0.46644690764E+03  0.46644690764E+03  0.00000000000E+00 0.  1.
         24    1    1    2    0    0 -0.41565867165E+02 -0.10114798104E+02 -0.12573174416E+03  0.15526016198E+03  0.80419002446E+02 0.  0.
        -24    1    1    2    0    0  0.41565867165E+02  0.10114798104E+02 -0.31958707812E+03  0.33231483101E+03  0.80419002446E+02 0.  0.
<mgrwt>
<rscale>  0 0.91089222E+02</rscale>
<asrwt>0</asrwt>
<pdfrwt beam="1">  1        4 0.32504746E-02 0.91089222E+02</pdfrwt>
<pdfrwt beam="2">  1       -4 0.71761065E-01 0.91089222E+02</pdfrwt>
<totfact> 0.12911056E+03</totfact>
</mgrwt>
</event>
<event>
 4    1  0.4938540E-001  0.1123111E+03  0.7546771E-02  0.1256349E+00
          4   -1    0    0  501    0  0.00000000000E+00  0.00000000000E+00  0.22417027524E+03  0.22417027524E+03  0.00000000000E+00 0. -1.
         -4   -1    0    0    0  501 -0.00000000000E+00 -0.00000000000E+00 -0.80210910636E+02  0.80210910636E+02  0.00000000000E+00 0.  1.
         24    1    1    2    0    0  0.43054748119E+02  0.65519890996E+02  0.15512784659E+03  0.19151614082E+03  0.80419002446E+02 0. -1.
        -24    1    1    2    0    0 -0.43054748119E+02 -0.65519890996E+02 -0.11168481986E+02  0.11286504506E+03  0.80419002446E+02 0.  1.
<mgrwt>
<rscale>  0 0.11231110E+03</rscale>
<asrwt>0</asrwt>
<pdfrwt beam="1">  1        4 0.34487734E-01 0.11231110E+03</pdfrwt>
<pdfrwt beam="2">  1       -4 0.12340140E-01 0.11231110E+03</pdfrwt>
<totfact> 0.68510142E+02</totfact>
</mgrwt>
</event>
<event>
 4    1  0.4938540E-001  0.9992411E+02  0.7546771E-02  0.1280456E+00
          2   -1    0    0  501    0  0.00000000000E+00  0.00000000000E+00  0.44536550647E+02  0.44536550647E+02  0.00000000000E+00 0. -1.
         -2   -1    0    0    0  501 -0.00000000000E+00 -0.00000000000E+00 -0.22512339577E+03  0.22512339577E+03  0.00000000000E+00 0.  1.
         24    1    1    2    0    0  0.54387119506E+02  0.23656980486E+02 -0.81630261007E+02  0.12902839595E+03  0.80419002446E+02 0.  1.
        -24    1    1    2    0    0 -0.54387119506E+02 -0.23656980486E+02 -0.98956584118E+02  0.14063155047E+03  0.80419002446E+02 0. -1.
<mgrwt>
<rscale>  0 0.99924108E+02</rscale>
<asrwt>0</asrwt>
<pdfrwt beam="1">  1        2 0.68517768E-02 0.99924108E+02</pdfrwt>
<pdfrwt beam="2">  1       -2 0.34634370E-01 0.99924108E+02</pdfrwt>
<totfact> 0.74641562E+03</totfact>
</mgrwt>
</event>
<event>
 4    1  0.4938540E-001  0.1522917E+03  0.7546771E-02  0.1197685E+00
          3   -1    0    0  501    0  0.00000000000E+00  0.00000000000E+00  0.32998550914E+03  0.32998550914E+03  0.00000000000E+00 0. -1.
         -3   -1    0    0    0  501 -0.00000000000E+00 -0.00000000000E+00 -0.15487292644E+03  0.15487292644E+03  0.00000000000E+00 0.  1.
         24    1    1    2    0    0  0.70017988728E+02  0.10873370419E+03 -0.91608869164E+02  0.17772151822E+03  0.80419002446E+02 0.  1.
        -24    1    1    2    0    0 -0.70017988728E+02 -0.10873370419E+03  0.26672145186E+03  0.30713691737E+03  0.80419002446E+02 0. -1.
<mgrwt>
<rscale>  0 0.15229167E+03</rscale>
<asrwt>0</asrwt>
<pdfrwt beam="1">  1        3 0.50767001E-01 0.15229167E+03</pdfrwt>
<pdfrwt beam="2">  1       -3 0.23826604E-01 0.15229167E+03</pdfrwt>
<totfact> 0.15086935E+02</totfact>
</mgrwt>
</event>
<event>
 4    1  0.4938540E-001  0.8218701E+02  0.7546771E-02  0.1322957E+00
          2   -1    0    0  501    0  0.00000000000E+00  0.00000000000E+00  0.18319721832E+04  0.18319721832E+04  0.00000000000E+00 0. -1.
         -2   -1    0    0    0  501 -0.00000000000E+00 -0.00000000000E+00 -0.39017107947E+01  0.39017107947E+01  0.00000000000E+00 0.  1.
         24    1    1    2    0    0 -0.99092567006E+00  0.16926523813E+02  0.11293078316E+04  0.11322945216E+04  0.80419002446E+02 0. -1.
        -24    1    1    2    0    0  0.99092567006E+00 -0.16926523813E+02  0.69876264083E+03  0.70357937244E+03  0.80419002446E+02 0.  1.
<mgrwt>
<rscale>  0 0.82187013E+02</rscale>
<asrwt>0</asrwt>
<pdfrwt beam="1">  1        2 0.28184119E+00 0.82187013E+02</pdfrwt>
<pdfrwt beam="2">  1       -2 0.60026466E-03 0.82187013E+02</pdfrwt>
<totfact> 0.37507215E+04</totfact>
</mgrwt>
</event>
<event>
 4    1  0.4938540E-001  0.1788055E+03  0.7546771E-02  0.1168964E+00
         -2   -1    0    0    0  501 -0.00000000000E+00  0.00000000000E+00  0.21189312820E+02  0.21189312820E+02  0.00000000000E+00 0.  1.
          2   -1    0    0  501    0  0.00000000000E+00 -0.00000000000E+00 -0.16412961988E+04  0.16412961988E+04  0.00000000000E+00 0. -1.
         24    1    1    2    0    0 -0.93509531200E+02 -0.12946098758E+03 -0.10461892232E+04  0.10613591694E+04  0.80419002446E+02 0. -1.
        -24    1    1    2    0    0  0.93509531200E+02  0.12946098758E+03 -0.57391766277E+03  0.60112634223E+03  0.80419002446E+02 0.  1.
<mgrwt>
<rscale>  0 0.17880547E+03</rscale>
<asrwt>0</asrwt>
<pdfrwt beam="1">  1        2 0.25250712E+00 0.17880547E+03</pdfrwt>
<pdfrwt beam="2">  1       -2 0.32598941E-02 0.17880547E+03</pdfrwt>
<totfact> 0.42706890E+03</totfact>
</mgrwt>
</event>
<event>
 4    1  0.4938540E-001  0.8737176E+02  0.7546771E-02  0.1309344E+00
          1   -1    0    0  501    0  0.00000000000E+00  0.00000000000E+00  0.16633351199E+04  0.16633351199E+04  0.00000000000E+00 0. -1.
         -1   -1    0    0    0  501 -0.00000000000E+00 -0.00000000000E+00 -0.11690987214E+02  0.11690987214E+02  0.00000000000E+00 0.  1.
         24    1    1    2    0    0 -0.32324230978E+02 -0.11034159686E+02  0.17307999930E+03  0.19388272409E+03  0.80419002446E+02 0.  1.
        -24    1    1    2    0    0  0.32324230978E+02  0.11034159686E+02  0.14785641334E+04  0.14811433831E+04  0.80419002446E+02 0. -1.
<mgrwt>
<rscale>  0 0.87371761E+02</rscale>
<asrwt>0</asrwt>
<pdfrwt beam="1">  1        1 0.25589752E+00 0.87371761E+02</pdfrwt>
<pdfrwt beam="2">  1       -1 0.17986147E-02 0.87371761E+02</pdfrwt>
<totfact> 0.43617271E+03</totfact>
</mgrwt>
</event>
<event>
 4    1  0.4938540E-001  0.8114796E+02  0.7546771E-02  0.1325825E+00
         -2   -1    0    0    0  501 -0.00000000000E+00  0.00000000000E+00  0.44924522322E+02  0.44924522322E+02  0.00000000000E+00 0.  1.
          2   -1    0    0  501    0  0.00000000000E+00 -0.00000000000E+00 -0.25492516344E+03  0.25492516344E+03  0.00000000000E+00 0. -1.
         24    1    1    2    0    0  0.85051363990E+01  0.67408059687E+01 -0.20274069729E+03  0.21837761356E+03  0.80419002446E+02 0. -1.
        -24    1    1    2    0    0 -0.85051363990E+01 -0.67408059687E+01 -0.72599438236E+01  0.81472072202E+02  0.80419002446E+02 0.  0.
<mgrwt>
<rscale>  0 0.81147962E+02</rscale>
<asrwt>0</asrwt>
<pdfrwt beam="1">  1        2 0.39219257E-01 0.81147962E+02</pdfrwt>
<pdfrwt beam="2">  1       -2 0.69114648E-02 0.81147962E+02</pdfrwt>
<totfact> 0.13883780E+04</totfact>
</mgrwt>
</event>
<event>
 4    1  0.4938540E-001  0.8731829E+02  0.7546771E-02  0.1309479E+00
          1   -1    0    0  501    0  0.00000000000E+00  0.00000000000E+00  0.49085978394E+03  0.49085978394E+03  0.00000000000E+00 0. -1.
         -1   -1    0    0    0  501 -0.00000000000E+00 -0.00000000000E+00 -0.27157272818E+03  0.27157272818E+03  0.00000000000E+00 0.  1.
         24    1    1    2    0    0  0.19812415482E+02  0.27653863775E+02 -0.26051016279E+03  0.27475448834E+03  0.80419002446E+02 0.  1.
        -24    1    1    2    0    0 -0.19812415482E+02 -0.27653863775E+02  0.47979721856E+03  0.48767802378E+03  0.80419002446E+02 0. -1.
<mgrwt>
<rscale>  0 0.87318291E+02</rscale>
<asrwt>0</asrwt>
<pdfrwt beam="1">  1        1 0.75516890E-01 0.87318291E+02</pdfrwt>
<pdfrwt beam="2">  1       -1 0.41780420E-01 0.87318291E+02</pdfrwt>
<totfact> 0.27360620E+02</totfact>
</mgrwt>
</event>
<event>
 4    1  0.4938540E-001  0.8759451E+02  0.7546771E-02  0.1308784E+00
         -3   -1    0    0    0  501 -0.00000000000E+00  0.00000000000E+00  0.65852246861E+02  0.65852246861E+02  0.00000000000E+00 0.  1.
          3   -1    0    0  501    0  0.00000000000E+00 -0.00000000000E+00 -0.24681120523E+03  0.24681120523E+03  0.00000000000E+00 0. -1.
         24    1    1    2    0    0 -0.11034261249E+02 -0.32921539497E+02  0.23107868957E+02  0.90591237138E+02  0.80419002446E+02 0.  1.
        -24    1    1    2    0    0  0.11034261249E+02  0.32921539497E+02 -0.20406682732E+03  0.22207221495E+03  0.80419002446E+02 0. -1.
<mgrwt>
<rscale>  0 0.87594513E+02</rscale>
<asrwt>0</asrwt>
<pdfrwt beam="1">  1        3 0.37970955E-01 0.87594513E+02</pdfrwt>
<pdfrwt beam="2">  1       -3 0.10131115E-01 0.87594513E+02</pdfrwt>
<totfact> 0.10582931E+03</totfact>
</mgrwt>
</event>
<event>
 4    1  0.4938540E-001  0.8747835E+02  0.7546771E-02  0.1309076E+00
          2   -1    0    0  501    0  0.00000000000E+00  0.00000000000E+00  0.51844646470E+02  0.51844646470E+02  0.00000000000E+00 0. -1.
         -2   -1    0    0    0  501 -0.00000000000E+00 -0.00000000000E+00 -0.16939628712E+03  0.16939628712E+03  0.00000000000E+00 0.  1.
         24    1    1    2    0    0  0.33853052833E+02 -0.62623321335E+01 -0.19098906797E+02  0.89538986956E+02  0.80419002446E+02 0. -1.
        -24    1    1    2    0    0 -0.33853052833E+02  0.62623321335E+01 -0.98452733857E+02  0.13170194664E+03  0.80419002446E+02 0.  1.
<mgrwt>
<rscale>  0 0.87478351E+02</rscale>
<asrwt>0</asrwt>
<pdfrwt beam="1">  1        2 0.79760994E-02 0.87478351E+02</pdfrwt>
<pdfrwt beam="2">  1       -2 0.26060967E-01 0.87478351E+02</pdfrwt>
<totfact> 0.10122426E+04</totfact>
</mgrwt>
</event>
<event>
 4    1  0.4938540E-001  0.1100421E+03  0.7546771E-02  0.1260492E+00
         -2   -1    0    0    0  501 -0.00000000000E+00  0.00000000000E+00  0.72738604066E+02  0.72738604066E+02  0.00000000000E+00 0.  1.
          2   -1    0    0  501    0  0.00000000000E+00 -0.00000000000E+00 -0.18648119388E+03  0.18648119388E+03  0.00000000000E+00 0. -1.
         24    1    1    2    0    0 -0.33431315721E+02 -0.67263673275E+02 -0.99322131773E+02  0.14823682548E+03  0.80419002446E+02 0.  0.
        -24    1    1    2    0    0  0.33431315721E+02  0.67263673275E+02 -0.14420458039E+02  0.11098297247E+03  0.80419002446E+02 0.  1.
<mgrwt>
<rscale>  0 0.11004213E+03</rscale>
<asrwt>0</asrwt>
<pdfrwt beam="1">  1        2 0.28689415E-01 0.11004213E+03</pdfrwt>
<pdfrwt beam="2">  1       -2 0.11190554E-01 0.11004213E+03</pdfrwt>
<totfact> 0.94669200E+03</totfact>
</mgrwt>
</event>
<event>
 4    1  0.4938540E-001  0.1042665E+03  0.7546771E-02  0.1271572E+00
         -2   -1    0    0    0  501 -0.00000000000E+00  0.00000000000E+00  0.37592595226E+02  0.37592595226E+02  0.00000000000E+00 0.  1.
          2   -1    0    0  501    0  0.00000000000E+00 -0.00000000000E+00 -0.43767861728E+03  0.43767861728E+03  0.00000000000E+00 0. -1.
         24    1    1    2    0    0 -0.62253839426E+02  0.22994435796E+02 -0.33845592778E+03  0.35415239037E+03  0.80419002446E+02 0. -1.
        -24    1    1    2    0    0  0.62253839426E+02 -0.22994435796E+02 -0.61630094273E+02  0.12111882214E+03  0.80419002446E+02 0.  0.
<mgrwt>
<rscale>  0 0.10426649E+03</rscale>
<asrwt>0</asrwt>
<pdfrwt beam="1">  1        2 0.67335172E-01 0.10426649E+03</pdfrwt>
<pdfrwt beam="2">  1       -2 0.57834762E-02 0.10426649E+03</pdfrwt>
<totfact> 0.10532066E+04</totfact>
</mgrwt>
</event>
<event>
 4    1  0.4938540E-001  0.9424292E+02  0.7546771E-02  0.1292890E+00
          1   -1    0    0  501    0  0.00000000000E+00  0.00000000000E+00  0.62825058091E+03  0.62825058091E+03  0.00000000000E+00 0. -1.
         -1   -1    0    0    0  501 -0.00000000000E+00 -0.00000000000E+00 -0.14325813778E+02  0.14325813778E+02  0.00000000000E+00 0.  1.
         24    1    1    2    0    0  0.48549103083E+02 -0.75826435704E+01  0.27010043168E+03  0.28606987091E+03  0.80419002446E+02 0.  1.
        -24    1    1    2    0    0 -0.48549103083E+02  0.75826435704E+01  0.34382433545E+03  0.35650652378E+03  0.80419002446E+02 0. -1.
<mgrwt>
<rscale>  0 0.94242919E+02</rscale>
<asrwt>0</asrwt>
<pdfrwt beam="1">  1        1 0.96653914E-01 0.94242919E+02</pdfrwt>
<pdfrwt beam="2">  1       -1 0.22039718E-02 0.94242919E+02</pdfrwt>
<totfact> 0.17953079E+04</totfact>
</mgrwt>
</event>
<event>
 4    1  0.4938540E-001  0.8682594E+02  0.7546771E-02  0.1310725E+00
          2   -1    0    0  501    0  0.00000000000E+00  0.00000000000E+00  0.15211906180E+03  0.15211906180E+03  0.00000000000E+00 0. -1.
         -2   -1    0    0    0  501 -0.00000000000E+00 -0.00000000000E+00 -0.53547250613E+02  0.53547250613E+02  0.00000000000E+00 0.  1.
         24    1    1    2    0    0 -0.12694308197E+02 -0.30172558700E+02  0.77353172768E+02  0.11628524434E+03  0.80419002446E+02 0.  0.
        -24    1    1    2    0    0  0.12694308197E+02  0.30172558700E+02  0.21218638417E+02  0.89381068072E+02  0.80419002446E+02 0.  0.
<mgrwt>
<rscale>  0 0.86825945E+02</rscale>
<asrwt>0</asrwt>
<pdfrwt beam="1">  1        2 0.23402932E-01 0.86825945E+02</pdfrwt>
<pdfrwt beam="2">  1       -2 0.82380386E-02 0.86825945E+02</pdfrwt>
<totfact> 0.18584053E+04</totfact>
</mgrwt>
</event>
<event>
 4    1  0.4938540E-001  0.1198282E+03  0.7546771E-02  0.1243381E+00
          2   -1    0    0  501    0  0.00000000000E+00  0.00000000000E+00  0.11769538570E+03  0.11769538570E+03  0.00000000000E+00 0. -1.
         -2   -1    0    0    0  501 -0.00000000000E+00 -0.00000000000E+00 -0.22730353471E+03  0.22730353471E+03  0.00000000000E+00 0.  1.
         24    1    1    2    0    0  0.80900438888E+02  0.36697404042E+02  0.62606397010E+02  0.13519747548E+03  0.80419002446E+02 0. -1.
        -24    1    1    2    0    0 -0.80900438888E+02 -0.36697404042E+02 -0.17221454603E+03  0.20980144493E+03  0.80419002446E+02 0.  1.
<mgrwt>
<rscale>  0 0.11982820E+03</rscale>
<asrwt>0</asrwt>
<pdfrwt beam="1">  1        2 0.18106983E-01 0.11982820E+03</pdfrwt>
<pdfrwt beam="2">  1       -2 0.34969774E-01 0.11982820E+03</pdfrwt>
<totfact> 0.23070901E+03</totfact>
</mgrwt>
</event>
<event>
 4    1  0.4938540E-001  0.8544139E+02  0.7546771E-02  0.1314282E+00
          4   -1    0    0  501    0  0.00000000000E+00  0.00000000000E+00  0.99850584577E+03  0.99850584577E+03  0.00000000000E+00 0. -1.
         -4   -1    0    0    0  501 -0.00000000000E+00 -0.00000000000E+00 -0.93789863169E+01  0.93789863169E+01  0.00000000000E+00 0.  1.
         24    1    1    2    0    0  0.27328567532E+02 -0.92824698739E+01  0.73118838129E+03  0.73616348710E+03  0.80419002446E+02 0.  0.
        -24    1    1    2    0    0 -0.27328567532E+02  0.92824698739E+01  0.25793847816E+03  0.27172134498E+03  0.80419002446E+02 0.  0.
<mgrwt>
<rscale>  0 0.85441388E+02</rscale>
<asrwt>0</asrwt>
<pdfrwt beam="1">  1        4 0.15361620E+00 0.85441388E+02</pdfrwt>
<pdfrwt beam="2">  1       -4 0.14429218E-02 0.85441388E+02</pdfrwt>
<totfact> 0.75601386E+02</totfact>
</mgrwt>
</event>
<event>
 4    1  0.4938540E-001  0.8834933E+02  0.7546771E-02  0.1306899E+00
         -2   -1    0    0    0  501 -0.00000000000E+00  0.00000000000E+00  0.67260037228E+01  0.67260037228E+01  0.00000000000E+00 0.  1.
          2   -1    0    0  501    0  0.00000000000E+00 -0.00000000000E+00 -0.16158072750E+04  0.16158072750E+04  0.00000000000E+00 0. -1.
         24    1    1    2    0    0 -0.16362862314E+01 -0.36547381496E+02 -0.12351819192E+04  0.12383375864E+04  0.80419002446E+02 0. -1.
        -24    1    1    2    0    0  0.16362862314E+01  0.36547381496E+02 -0.37389935205E+03  0.38419569225E+03  0.80419002446E+02 0.  1.
<mgrwt>
<rscale>  0 0.88349332E+02</rscale>
<asrwt>0</asrwt>
<pdfrwt beam="1">  1        2 0.24858574E+00 0.88349332E+02</pdfrwt>
<pdfrwt beam="2">  1       -2 0.10347698E-02 0.88349332E+02</pdfrwt>
<totfact> 0.22488255E+04</totfact>
</mgrwt>
</event>
<event>
 4    1  0.4938540E-001  0.8814404E+02  0.7546771E-02  0.1307409E+00
          2   -1    0    0  501    0  0.00000000000E+00  0.00000000000E+00  0.16034957709E+03  0.16034957709E+03  0.00000000000E+00 0. -1.
         -2   -1    0    0    0  501 -0.00000000000E+00 -0.00000000000E+00 -0.64863545502E+02  0.64863545502E+02  0.00000000000E+00 0.  1.
         24    1    1    2    0    0 -0.11702419981E+02  0.34135164773E+02  0.10438372193E+03  0.13662113111E+03  0.80419002446E+02 0. -1.
        -24    1    1    2    0    0  0.11702419981E+02 -0.34135164773E+02 -0.88976903379E+01  0.88591991485E+02  0.80419002446E+02 0.  1.
<mgrwt>
<rscale>  0 0.88144042E+02</rscale>
<asrwt>0</asrwt>
<pdfrwt beam="1">  1        2 0.24669166E-01 0.88144042E+02</pdfrwt>
<pdfrwt beam="2">  1       -2 0.99790071E-02 0.88144042E+02</pdfrwt>
<totfact> 0.13076528E+04</totfact>
</mgrwt>
</event>
<event>
 4    1  0.4938540E-001  0.8153093E+02  0.7546771E-02  0.1324762E+00
         -1   -1    0    0    0  501 -0.00000000000E+00  0.00000000000E+00  0.46391361682E+02  0.46391361682E+02  0.00000000000E+00 0.  1.
          1   -1    0    0  501    0  0.00000000000E+00 -0.00000000000E+00 -0.26074271392E+03  0.26074271392E+03  0.00000000000E+00 0. -1.
         24    1    1    2    0    0 -0.11279957365E+02  0.72690558770E+01 -0.41065837023E+01  0.81634285662E+02  0.80419002446E+02 0.  1.
        -24    1    1    2    0    0  0.11279957365E+02 -0.72690558770E+01 -0.21024476853E+03  0.22549978994E+03  0.80419002446E+02 0.  0.
<mgrwt>
<rscale>  0 0.81530930E+02</rscale>
<asrwt>0</asrwt>
<pdfrwt beam="1">  1        1 0.40114262E-01 0.81530930E+02</pdfrwt>
<pdfrwt beam="2">  1       -1 0.71371328E-02 0.81530930E+02</pdfrwt>
<totfact> 0.97169758E+03</totfact>
</mgrwt>
</event>
<event>
 4    1  0.4938540E-001  0.8533354E+02  0.7546771E-02  0.1314563E+00
          1   -1    0    0  501    0  0.00000000000E+00  0.00000000000E+00  0.87808325402E+03  0.87808325402E+03  0.00000000000E+00 0. -1.
         -1   -1    0    0    0  501 -0.00000000000E+00 -0.00000000000E+00 -0.83308209808E+01  0.83308209808E+01  0.00000000000E+00 0.  1.
         24    1    1    2    0    0 -0.26753748187E+02 -0.99413258924E+01  0.46479976658E+03  0.47256812416E+03  0.80419002446E+02 0.  1.
        -24    1    1    2    0    0  0.26753748187E+02  0.99413258924E+01  0.40495266646E+03  0.41384595084E+03  0.80419002446E+02 0.  0.
<mgrwt>
<rscale>  0 0.85333527E+02</rscale>
<asrwt>0</asrwt>
<pdfrwt beam="1">  1        1 0.13508966E+00 0.85333537E+02</pdfrwt>
<pdfrwt beam="2">  1       -1 0.12816655E-02 0.85333537E+02</pdfrwt>
<totfact> 0.23717763E+04</totfact>
</mgrwt>
</event>
<event>
 4    1  0.4938540E-001  0.8346880E+02  0.7546771E-02  0.1319486E+00
          1   -1    0    0  501    0  0.00000000000E+00  0.00000000000E+00  0.27297033296E+02  0.27297033296E+02  0.00000000000E+00 0. -1.
         -1   -1    0    0    0  501 -0.00000000000E+00 -0.00000000000E+00 -0.77982817546E+03  0.77982817546E+03  0.00000000000E+00 0.  1.
         24    1    1    2    0    0 -0.12156054925E+02 -0.18763142423E+02 -0.70726294614E+03  0.71217126881E+03  0.80419002446E+02 0.  1.
        -24    1    1    2    0    0  0.12156054925E+02  0.18763142423E+02 -0.45268196020E+02  0.94953939941E+02  0.80419002446E+02 0. -1.
<mgrwt>
<rscale>  0 0.83468803E+02</rscale>
<asrwt>0</asrwt>
<pdfrwt beam="1">  1        1 0.41995438E-02 0.83468803E+02</pdfrwt>
<pdfrwt beam="2">  1       -1 0.11997356E+00 0.83468803E+02</pdfrwt>
<totfact> 0.13442711E+03</totfact>
</mgrwt>
</event>
<event>
 4    1  0.4938540E-001  0.8529208E+02  0.7546771E-02  0.1314670E+00
         -3   -1    0    0    0  501 -0.00000000000E+00  0.00000000000E+00  0.56554400515E+02  0.56554400515E+02  0.00000000000E+00 0.  1.
          3   -1    0    0  501    0  0.00000000000E+00 -0.00000000000E+00 -0.12878506771E+03  0.12878506771E+03  0.00000000000E+00 0. -1.
         24    1    1    2    0    0  0.91102419555E+01  0.26917019509E+02 -0.32926559538E+02  0.91427002166E+02  0.80419002446E+02 0.  0.
        -24    1    1    2    0    0 -0.91102419555E+01 -0.26917019509E+02 -0.39304107653E+02  0.93912466055E+02  0.80419002446E+02 0.  1.
<mgrwt>
<rscale>  0 0.85292077E+02</rscale>
<asrwt>0</asrwt>
<pdfrwt beam="1">  1        3 0.19813087E-01 0.85292077E+02</pdfrwt>
<pdfrwt beam="2">  1       -3 0.87006770E-02 0.85292077E+02</pdfrwt>
<totfact> 0.43780708E+03</totfact>
</mgrwt>
</event>
<event>
 4    1  0.4938540E-001  0.8170388E+02  0.7546771E-02  0.1324284E+00
         -3   -1    0    0    0  501 -0.00000000000E+00  0.00000000000E+00  0.29988586423E+03  0.29988586423E+03  0.00000000000E+00 0.  1.
          3   -1    0    0  501    0  0.00000000000E+00 -0.00000000000E+00 -0.35506139411E+03  0.35506139411E+03  0.00000000000E+00 0. -1.
         24    1    1    2    0    0 -0.13542422310E+02 -0.49910344175E+01  0.28945440699E+03  0.30076465435E+03  0.80419002446E+02 0.  1.
        -24    1    1    2    0    0  0.13542422310E+02  0.49910344175E+01 -0.34462993687E+03  0.35418260399E+03  0.80419002446E+02 0. -1.
<mgrwt>
<rscale>  0 0.81703877E+02</rscale>
<asrwt>0</asrwt>
<pdfrwt beam="1">  1        3 0.54624830E-01 0.81703877E+02</pdfrwt>
<pdfrwt beam="2">  1       -3 0.46136287E-01 0.81703877E+02</pdfrwt>
<totfact> 0.35374344E+01</totfact>
</mgrwt>
</event>
<event>
 4    1  0.4938540E-001  0.8508479E+02  0.7546771E-02  0.1315211E+00
         -2   -1    0    0    0  501 -0.00000000000E+00  0.00000000000E+00  0.51384026987E+02  0.51384026987E+02  0.00000000000E+00 0.  1.
          2   -1    0    0  501    0  0.00000000000E+00 -0.00000000000E+00 -0.14344795539E+03  0.14344795539E+03  0.00000000000E+00 0. -1.
         24    1    1    2    0    0  0.24322850359E+02 -0.13438917416E+02 -0.59044198366E+02  0.10356466031E+03  0.80419002446E+02 0.  0.
        -24    1    1    2    0    0 -0.24322850359E+02  0.13438917416E+02 -0.33019730041E+02  0.91267322067E+02  0.80419002446E+02 0.  0.
<mgrwt>
<rscale>  0 0.85084790E+02</rscale>
<asrwt>0</asrwt>
<pdfrwt beam="1">  1        2 0.22068917E-01 0.85084790E+02</pdfrwt>
<pdfrwt beam="2">  1       -2 0.79052348E-02 0.85084790E+02</pdfrwt>
<totfact> 0.21061680E+04</totfact>
</mgrwt>
</event>
<event>
 4    1  0.4938540E-001  0.1185939E+03  0.7546771E-02  0.1245435E+00
         -1   -1    0    0    0  501 -0.00000000000E+00  0.00000000000E+00  0.12253928797E+02  0.12253928797E+02  0.00000000000E+00 0.  1.
          1   -1    0    0  501    0  0.00000000000E+00 -0.00000000000E+00 -0.11479225765E+04  0.11479225765E+04  0.00000000000E+00 0. -1.
         24    1    1    2    0    0 -0.26138521377E+02  0.83150934784E+02 -0.57482918940E+03  0.58693535691E+03  0.80419002446E+02 0.  1.
        -24    1    1    2    0    0  0.26138521377E+02 -0.83150934784E+02 -0.56083945833E+03  0.57324114841E+03  0.80419002446E+02 0.  0.
<mgrwt>
<rscale>  0 0.11859393E+03</rscale>
<asrwt>0</asrwt>
<pdfrwt beam="1">  1        1 0.17660344E+00 0.11859394E+03</pdfrwt>
<pdfrwt beam="2">  1       -1 0.18852202E-02 0.11859394E+03</pdfrwt>
<totfact> 0.89643273E+03</totfact>
</mgrwt>
</event>
<event>
 4    1  0.4938540E-001  0.8079579E+02  0.7546771E-02  0.1326808E+00
         -2   -1    0    0    0  501 -0.00000000000E+00  0.00000000000E+00  0.55466712296E+01  0.55466712296E+01  0.00000000000E+00 0.  1.
          2   -1    0    0  501    0  0.00000000000E+00 -0.00000000000E+00 -0.14002916952E+04  0.14002916952E+04  0.00000000000E+00 0. -1.
         24    1    1    2    0    0 -0.71564956932E+01 -0.30867145063E+01 -0.97811963305E+03  0.98145095432E+03  0.80419002446E+02 0.  0.
        -24    1    1    2    0    0  0.71564956932E+01  0.30867145063E+01 -0.41662539090E+03  0.42438741209E+03  0.80419002446E+02 0.  1.
<mgrwt>
<rscale>  0 0.80795787E+02</rscale>
<asrwt>0</asrwt>
<pdfrwt beam="1">  1        2 0.21542950E+00 0.80795787E+02</pdfrwt>
<pdfrwt beam="2">  1       -2 0.85333402E-03 0.80795787E+02</pdfrwt>
<totfact> 0.37717893E+04</totfact>
</mgrwt>
</event>
<event>
 4    1  0.4938540E-001  0.8385483E+02  0.7546771E-02  0.1318455E+00
          2   -1    0    0  501    0  0.00000000000E+00  0.00000000000E+00  0.28576662803E+04  0.28576662803E+04  0.00000000000E+00 0. -1.
         -2   -1    0    0    0  501 -0.00000000000E+00 -0.00000000000E+00 -0.35565020441E+01  0.35565020441E+01  0.00000000000E+00 0.  1.
         24    1    1    2    0    0 -0.22294036511E+02 -0.82093105593E+01  0.22211854594E+04  0.22227677517E+04  0.80419002446E+02 0. -1.
        -24    1    1    2    0    0  0.22294036511E+02  0.82093105593E+01  0.63292431884E+03  0.63845503066E+03  0.80419002446E+02 0.  1.
<mgrwt>
<rscale>  0 0.83854832E+02</rscale>
<asrwt>0</asrwt>
<pdfrwt beam="1">  1        2 0.43963913E+00 0.83854832E+02</pdfrwt>
<pdfrwt beam="2">  1       -2 0.54715644E-03 0.83854832E+02</pdfrwt>
<totfact> 0.12596221E+04</totfact>
</mgrwt>
</event>
<event>
 4    1  0.4938540E-001  0.2156414E+03  0.7546771E-02  0.1137175E+00
         -1   -1    0    0    0  501 -0.00000000000E+00  0.00000000000E+00  0.87146926018E+02  0.87146926018E+02  0.00000000000E+00 0.  1.
          1   -1    0    0  501    0  0.00000000000E+00 -0.00000000000E+00 -0.58744431071E+03  0.58744431071E+03  0.00000000000E+00 0. -1.
         24    1    1    2    0    0 -0.12232441220E+03 -0.15833730504E+03 -0.35227007463E+03  0.41303194237E+03  0.80419002446E+02 0. -1.
        -24    1    1    2    0    0  0.12232441220E+03  0.15833730504E+03 -0.14802731006E+03  0.26155929435E+03  0.80419002446E+02 0.  1.
<mgrwt>
<rscale>  0 0.21564135E+03</rscale>
<asrwt>0</asrwt>
<pdfrwt beam="1">  1        1 0.90376051E-01 0.21564138E+03</pdfrwt>
<pdfrwt beam="2">  1       -1 0.13407219E-01 0.21564138E+03</pdfrwt>
<totfact> 0.13898946E+03</totfact>
</mgrwt>
</event>
<event>
 4    1  0.4938540E-001  0.8751624E+02  0.7546771E-02  0.1308980E+00
          2   -1    0    0  501    0  0.00000000000E+00  0.00000000000E+00  0.27191880898E+03  0.27191880898E+03  0.00000000000E+00 0. -1.
         -2   -1    0    0    0  501 -0.00000000000E+00 -0.00000000000E+00 -0.28389104185E+02  0.28389104185E+02  0.00000000000E+00 0.  1.
         24    1    1    2    0    0  0.26430776660E+01 -0.34422178429E+02  0.10847821466E+03  0.13937937881E+03  0.80419002446E+02 0.  1.
        -24    1    1    2    0    0 -0.26430776660E+01  0.34422178429E+02  0.13505149013E+03  0.16092853435E+03  0.80419002446E+02 0. -1.
<mgrwt>
<rscale>  0 0.87516228E+02</rscale>
<asrwt>0</asrwt>
<pdfrwt beam="1">  1        2 0.41833661E-01 0.87516239E+02</pdfrwt>
<pdfrwt beam="2">  1       -2 0.43675547E-02 0.87516239E+02</pdfrwt>
<totfact> 0.25932638E+04</totfact>
</mgrwt>
</event>
<event>
 4    1  0.4938540E-001  0.8865642E+02  0.7546771E-02  0.1306138E+00
         -1   -1    0    0    0  501 -0.00000000000E+00  0.00000000000E+00  0.78616888329E+03  0.78616888329E+03  0.00000000000E+00 0.  1.
          1   -1    0    0  501    0  0.00000000000E+00 -0.00000000000E+00 -0.14521194881E+02  0.14521194881E+02  0.00000000000E+00 0. -1.
         24    1    1    2    0    0 -0.23451224399E+02 -0.29030747882E+02  0.60926618271E+03  0.61568274427E+03  0.80419002446E+02 0.  0.
        -24    1    1    2    0    0  0.23451224399E+02  0.29030747882E+02  0.16238150570E+03  0.18500733390E+03  0.80419002446E+02 0.  0.
<mgrwt>
<rscale>  0 0.88656417E+02</rscale>
<asrwt>0</asrwt>
<pdfrwt beam="1">  1        1 0.22340306E-02 0.88656417E+02</pdfrwt>
<pdfrwt beam="2">  1       -1 0.12094903E+00 0.88656417E+02</pdfrwt>
<totfact> 0.31352756E+03</totfact>
</mgrwt>
</event>
<event>
 4    1  0.4938540E-001  0.1041202E+03  0.7546771E-02  0.1271863E+00
         -1   -1    0    0    0  501 -0.00000000000E+00  0.00000000000E+00  0.30154669219E+02  0.30154669219E+02  0.00000000000E+00 0.  1.
          1   -1    0    0  501    0  0.00000000000E+00 -0.00000000000E+00 -0.19368934195E+04  0.19368934195E+04  0.00000000000E+00 0. -1.
         24    1    1    2    0    0 -0.31449996874E+02 -0.58178117886E+02 -0.65804168351E+02  0.12317142619E+03  0.80419002446E+02 0.  1.
        -24    1    1    2    0    0  0.31449996874E+02  0.58178117886E+02 -0.18409345819E+04  0.18438766625E+04  0.80419002446E+02 0. -1.
<mgrwt>
<rscale>  0 0.10412018E+03</rscale>
<asrwt>0</asrwt>
<pdfrwt beam="1">  1        1 0.29798361E+00 0.10412018E+03</pdfrwt>
<pdfrwt beam="2">  1       -1 0.46391797E-02 0.10412018E+03</pdfrwt>
<totfact> 0.74957832E+02</totfact>
</mgrwt>
</event>
<event>
 4    1  0.4938540E-001  0.9017487E+02  0.7546771E-02  0.1302429E+00
         -2   -1    0    0    0  501 -0.00000000000E+00  0.00000000000E+00  0.70547916865E+01  0.70547916865E+01  0.00000000000E+00 0.  1.
          2   -1    0    0  501    0  0.00000000000E+00 -0.00000000000E+00 -0.12905355365E+04  0.12905355365E+04  0.00000000000E+00 0. -1.
         24    1    1    2    0    0  0.22663662186E+02 -0.33921216806E+02 -0.85383341795E+03  0.85858197751E+03  0.80419002446E+02 0. -1.
        -24    1    1    2    0    0 -0.22663662186E+02  0.33921216806E+02 -0.42964732687E+03  0.43900835069E+03  0.80419002446E+02 0.  1.
<mgrwt>
<rscale>  0 0.90174866E+02</rscale>
<asrwt>0</asrwt>
<pdfrwt beam="1">  1        2 0.19854377E+00 0.90174866E+02</pdfrwt>
<pdfrwt beam="2">  1       -2 0.10853534E-02 0.90174866E+02</pdfrwt>
<totfact> 0.30960165E+04</totfact>
</mgrwt>
</event>
<event>
 4    1  0.4938540E-001  0.9628426E+02  0.7546771E-02  0.1288310E+00
         -2   -1    0    0    0  501 -0.00000000000E+00  0.00000000000E+00  0.22815678917E+02  0.22815678917E+02  0.00000000000E+00 0.  1.
          2   -1    0    0  501    0  0.00000000000E+00 -0.00000000000E+00 -0.54666290966E+03  0.54666290966E+03  0.00000000000E+00 0. -1.
         24    1    1    2    0    0 -0.33086478109E+02  0.41336765167E+02 -0.40619154000E+03  0.41744727369E+03  0.80419002446E+02 0. -1.
        -24    1    1    2    0    0  0.33086478109E+02 -0.41336765167E+02 -0.11765569075E+03  0.15203131489E+03  0.80419002446E+02 0.  1.
<mgrwt>
<rscale>  0 0.96284262E+02</rscale>
<asrwt>0</asrwt>
<pdfrwt beam="1">  1        2 0.84101982E-01 0.96284262E+02</pdfrwt>
<pdfrwt beam="2">  1       -2 0.35101046E-02 0.96284262E+02</pdfrwt>
<totfact> 0.17242024E+04</totfact>
</mgrwt>
</event>
<event>
 4    1  0.4938540E-001  0.8327383E+02  0.7546771E-02  0.1320009E+00
         -2   -1    0    0    0  501 -0.00000000000E+00  0.00000000000E+00  0.64270691166E+02  0.64270691166E+02  0.00000000000E+00 0.  1.
          2   -1    0    0  501    0  0.00000000000E+00 -0.00000000000E+00 -0.23076388709E+03  0.23076388709E+03  0.00000000000E+00 0. -1.
         24    1    1    2    0    0 -0.92655473700E+01 -0.19531099079E+02 -0.19088785338E+03  0.20826114069E+03  0.80419002446E+02 0. -1.
        -24    1    1    2    0    0  0.92655473700E+01  0.19531099079E+02  0.24394657460E+02  0.86773437562E+02  0.80419002446E+02 0.  1.
<mgrwt>
<rscale>  0 0.83273826E+02</rscale>
<asrwt>0</asrwt>
<pdfrwt beam="1">  1        2 0.35502136E-01 0.83273826E+02</pdfrwt>
<pdfrwt beam="2">  1       -2 0.98877988E-02 0.83273826E+02</pdfrwt>
<totfact> 0.89384554E+03</totfact>
</mgrwt>
</event>
<event>
 4    1  0.4938540E-001  0.8196009E+02  0.7546771E-02  0.1323579E+00
         -2   -1    0    0    0  501 -0.00000000000E+00  0.00000000000E+00  0.29873004785E+01  0.29873004785E+01  0.00000000000E+00 0.  1.
          2   -1    0    0  501    0  0.00000000000E+00 -0.00000000000E+00 -0.28917057551E+04  0.28917057551E+04  0.00000000000E+00 0. -1.
         24    1    1    2    0    0  0.77110650478E+01 -0.13812315589E+02 -0.21268749036E+04  0.21284535025E+04  0.80419002446E+02 0.  0.
        -24    1    1    2    0    0 -0.77110650478E+01  0.13812315589E+02 -0.76184355094E+03  0.76623955304E+03  0.80419002446E+02 0.  0.
<mgrwt>
<rscale>  0 0.81960091E+02</rscale>
<asrwt>0</asrwt>
<pdfrwt beam="1">  1        2 0.44487846E+00 0.81960091E+02</pdfrwt>
<pdfrwt beam="2">  1       -2 0.45958401E-03 0.81960091E+02</pdfrwt>
<totfact> 0.15378334E+04</totfact>
</mgrwt>
</event>
<event>
 4    1  0.4938540E-001  0.8429014E+02  0.7546771E-02  0.1317299E+00
         -2   -1    0    0    0  501 -0.00000000000E+00  0.00000000000E+00  0.56120110993E+01  0.56120110993E+01  0.00000000000E+00 0.  1.
          2   -1    0    0  501    0  0.00000000000E+00 -0.00000000000E+00 -0.12813762337E+04  0.12813762337E+04  0.00000000000E+00 0. -1.
         24    1    1    2    0    0  0.16209019441E+02  0.19361710855E+02 -0.56739888360E+03  0.57362558976E+03  0.80419002446E+02 0. -1.
        -24    1    1    2    0    0 -0.16209019441E+02 -0.19361710855E+02 -0.70836533904E+03  0.71336265509E+03  0.80419002446E+02 0.  1.
<mgrwt>
<rscale>  0 0.84290129E+02</rscale>
<asrwt>0</asrwt>
<pdfrwt beam="1">  1        2 0.19713483E+00 0.84290140E+02</pdfrwt>
<pdfrwt beam="2">  1       -2 0.86338622E-03 0.84290140E+02</pdfrwt>
<totfact> 0.42980069E+04</totfact>
</mgrwt>
</event>
<event>
 4    1  0.4938540E-001  0.8473552E+02  0.7546771E-02  0.1316126E+00
         -1   -1    0    0    0  501 -0.00000000000E+00  0.00000000000E+00  0.39979240205E+02  0.39979240205E+02  0.00000000000E+00 0.  1.
          1   -1    0    0  501    0  0.00000000000E+00 -0.00000000000E+00 -0.47595580365E+03  0.47595580365E+03  0.00000000000E+00 0. -1.
         24    1    1    2    0    0 -0.25538584877E+02  0.77892657400E+01 -0.14428753712E+02  0.85955202672E+02  0.80419002446E+02 0.  1.
        -24    1    1    2    0    0  0.25538584877E+02 -0.77892657400E+01 -0.42154780974E+03  0.42997984119E+03  0.80419002446E+02 0. -1.
<mgrwt>
<rscale>  0 0.84735518E+02</rscale>
<asrwt>0</asrwt>
<pdfrwt beam="1">  1        1 0.73223975E-01 0.84735518E+02</pdfrwt>
<pdfrwt beam="2">  1       -1 0.61506519E-02 0.84735518E+02</pdfrwt>
<totfact> 0.57868790E+03</totfact>
</mgrwt>
</event>
<event>
 4    1  0.4938540E-001  0.1099524E+03  0.7546771E-02  0.1260658E+00
         -1   -1    0    0    0  501 -0.00000000000E+00  0.00000000000E+00  0.87058749906E+02  0.87058749906E+02  0.00000000000E+00 0.  1.
          1   -1    0    0  501    0  0.00000000000E+00 -0.00000000000E+00 -0.14221920685E+03  0.14221920685E+03  0.00000000000E+00 0. -1.
         24    1    1    2    0    0 -0.52453283211E+02  0.53581386040E+02 -0.99781909716E+01  0.11040422138E+03  0.80419002446E+02 0.  1.
        -24    1    1    2    0    0  0.52453283211E+02 -0.53581386040E+02 -0.45182265976E+02  0.11887373538E+03  0.80419002446E+02 0. -1.
<mgrwt>
<rscale>  0 0.10995239E+03</rscale>
<asrwt>0</asrwt>
<pdfrwt beam="1">  1        1 0.21879878E-01 0.10995239E+03</pdfrwt>
<pdfrwt beam="2">  1       -1 0.13393654E-01 0.10995239E+03</pdfrwt>
<totfact> 0.81316738E+03</totfact>
</mgrwt>
</event>
<event>
 4    1  0.4938540E-001  0.8330032E+02  0.7546771E-02  0.1319938E+00
          3   -1    0    0  501    0  0.00000000000E+00  0.00000000000E+00  0.24670449102E+03  0.24670449102E+03  0.00000000000E+00 0. -1.
         -3   -1    0    0    0  501 -0.00000000000E+00 -0.00000000000E+00 -0.55838900005E+02  0.55838900005E+02  0.00000000000E+00 0.  1.
         24    1    1    2    0    0  0.16742469652E+02  0.13835358127E+02 -0.11135008091E+02  0.84041250491E+02  0.80419002446E+02 0.  1.
        -24    1    1    2    0    0 -0.16742469652E+02 -0.13835358127E+02  0.20200059911E+03  0.21850214054E+03  0.80419002446E+02 0. -1.
<mgrwt>
<rscale>  0 0.83300320E+02</rscale>
<asrwt>0</asrwt>
<pdfrwt beam="1">  1        3 0.37954536E-01 0.83300320E+02</pdfrwt>
<pdfrwt beam="2">  1       -3 0.85906001E-02 0.83300320E+02</pdfrwt>
<totfact> 0.13714100E+03</totfact>
</mgrwt>
</event>
<event>
 4    1  0.4938540E-001  0.9468991E+02  0.7546771E-02  0.1291876E+00
          2   -1    0    0  501    0  0.00000000000E+00  0.00000000000E+00  0.54602312956E+03  0.54602312956E+03  0.00000000000E+00 0. -1.
         -2   -1    0    0    0  501 -0.00000000000E+00 -0.00000000000E+00 -0.45864113134E+02  0.45864113134E+02  0.00000000000E+00 0.  1.
         24    1    1    2    0    0  0.41675191692E+02 -0.27606926148E+02  0.48719789821E+03  0.49631438821E+03  0.80419002446E+02 0. -1.
        -24    1    1    2    0    0 -0.41675191692E+02  0.27606926148E+02  0.12961118217E+02  0.95572854481E+02  0.80419002446E+02 0.  1.
<mgrwt>
<rscale>  0 0.94689915E+02</rscale>
<asrwt>0</asrwt>
<pdfrwt beam="1">  1        2 0.84003554E-01 0.94689915E+02</pdfrwt>
<pdfrwt beam="2">  1       -2 0.70560178E-02 0.94689915E+02</pdfrwt>
<totfact> 0.60984917E+03</totfact>
</mgrwt>
</event>
<event>
 4    1  0.4938540E-001  0.1250038E+03  0.7546771E-02  0.1235063E+00
          2   -1    0    0  501    0  0.00000000000E+00  0.00000000000E+00  0.68361839208E+03  0.68361839208E+03  0.00000000000E+00 0. -1.
         -2   -1    0    0    0  501 -0.00000000000E+00 -0.00000000000E+00 -0.13615077135E+03  0.13615077135E+03  0.00000000000E+00 0.  1.
         24    1    1    2    0    0 -0.95696838405E+02  0.92460671282E+00  0.64763183593E+03  0.65958543848E+03  0.80419002446E+02 0. -1.
        -24    1    1    2    0    0  0.95696838405E+02 -0.92460671282E+00 -0.10016421520E+03  0.16018372495E+03  0.80419002446E+02 0.  1.
<mgrwt>
<rscale>  0 0.12500382E+03</rscale>
<asrwt>0</asrwt>
<pdfrwt beam="1">  1        2 0.10517206E+00 0.12500382E+03</pdfrwt>
<pdfrwt beam="2">  1       -2 0.20946273E-01 0.12500382E+03</pdfrwt>
<totfact> 0.84020802E+02</totfact>
</mgrwt>
</event>
<event>
 4    1  0.4938540E-001  0.9632865E+02  0.7546771E-02  0.1288211E+00
          1   -1    0    0  501    0  0.00000000000E+00  0.00000000000E+00  0.31107378783E+04  0.31107378783E+04  0.00000000000E+00 0. -1.
         -1   -1    0    0    0  501 -0.00000000000E+00 -0.00000000000E+00 -0.33552607355E+01  0.33552607355E+01  0.00000000000E+00 0.  1.
         24    1    1    2    0    0  0.41805126613E+02 -0.32623909704E+02  0.20723550656E+04  0.20745926641E+04  0.80419002446E+02 0. -1.
        -24    1    1    2    0    0 -0.41805126613E+02  0.32623909704E+02  0.10350275519E+04  0.10395004749E+04  0.80419002446E+02 0.  0.
<mgrwt>
<rscale>  0 0.96328637E+02</rscale>
<asrwt>0</asrwt>
<pdfrwt beam="1">  1        1 0.47857275E+00 0.96328649E+02</pdfrwt>
<pdfrwt beam="2">  1       -1 0.51619645E-03 0.96328649E+02</pdfrwt>
<totfact> 0.29600518E+03</totfact>
</mgrwt>
</event>
<event>
 4    1  0.4938540E-001  0.9848202E+02  0.7546771E-02  0.1283521E+00
         -2   -1    0    0    0  501 -0.00000000000E+00  0.00000000000E+00  0.66606191255E+01  0.66606191255E+01  0.00000000000E+00 0.  1.
          2   -1    0    0  501    0  0.00000000000E+00 -0.00000000000E+00 -0.20531663655E+04  0.20531663655E+04  0.00000000000E+00 0. -1.
         24    1    1    2    0    0 -0.49076003806E+02 -0.28688658620E+02 -0.15786326445E+04  0.15817015317E+04  0.80419002446E+02 0. -1.
        -24    1    1    2    0    0  0.49076003806E+02  0.28688658620E+02 -0.46787310193E+03  0.47812545294E+03  0.80419002446E+02 0.  1.
<mgrwt>
<rscale>  0 0.98482025E+02</rscale>
<asrwt>0</asrwt>
<pdfrwt beam="1">  1        2 0.31587189E+00 0.98482025E+02</pdfrwt>
<pdfrwt beam="2">  1       -2 0.10247102E-02 0.98482025E+02</pdfrwt>
<totfact> 0.13829794E+04</totfact>
</mgrwt>
</event>
<event>
 4    1  0.4938540E-001  0.8697431E+02  0.7546771E-02  0.1310349E+00
          2   -1    0    0  501    0  0.00000000000E+00  0.00000000000E+00  0.88775455576E+03  0.88775455576E+03  0.00000000000E+00 0. -1.
         -2   -1    0    0    0  501 -0.00000000000E+00 -0.00000000000E+00 -0.12079231569E+02  0.12079231569E+02  0.00000000000E+00 0.  1.
         24    1    1    2    0    0 -0.26959524412E+02 -0.19248324678E+02  0.68202974742E+03  0.68755298434E+03  0.80419002446E+02 0. -1.
        -24    1    1    2    0    0  0.26959524412E+02  0.19248324678E+02  0.19364557678E+03  0.21228080299E+03  0.80419002446E+02 0.  1.
<mgrwt>
<rscale>  0 0.86974306E+02</rscale>
<asrwt>0</asrwt>
<pdfrwt beam="1">  1        2 0.13657757E+00 0.86974306E+02</pdfrwt>
<pdfrwt beam="2">  1       -2 0.18583440E-02 0.86974306E+02</pdfrwt>
<totfact> 0.24284902E+04</totfact>
</mgrwt>
</event>
<event>
 4    1  0.4938540E-001  0.1021981E+03  0.7546771E-02  0.1275740E+00
          2   -1    0    0  501    0  0.00000000000E+00  0.00000000000E+00  0.14602808313E+04  0.14602808313E+04  0.00000000000E+00 0. -1.
         -2   -1    0    0    0  501 -0.00000000000E+00 -0.00000000000E+00 -0.72100059738E+01  0.72100059738E+01  0.00000000000E+00 0.  1.
         24    1    1    2    0    0  0.62448846682E+02  0.87966198582E+01  0.66092689568E+03  0.66878159092E+03  0.80419002446E+02 0.  0.
        -24    1    1    2    0    0 -0.62448846682E+02 -0.87966198582E+01  0.79214392963E+03  0.79870924633E+03  0.80419002446E+02 0.  1.
<mgrwt>
<rscale>  0 0.10219813E+03</rscale>
<asrwt>0</asrwt>
<pdfrwt beam="1">  1        2 0.22465835E+00 0.10219814E+03</pdfrwt>
<pdfrwt beam="2">  1       -2 0.11092328E-02 0.10219814E+03</pdfrwt>
<totfact> 0.24725451E+04</totfact>
</mgrwt>
</event>
<event>
 4    1  0.4938540E-001  0.9363017E+02  0.7546771E-02  0.1294291E+00
          2   -1    0    0  501    0  0.00000000000E+00  0.00000000000E+00  0.85944631193E+02  0.85944631193E+02  0.00000000000E+00 0. -1.
         -2   -1    0    0    0  501 -0.00000000000E+00 -0.00000000000E+00 -0.18896136198E+03  0.18896136198E+03  0.00000000000E+00 0.  1.
         24    1    1    2    0    0 -0.14045703764E+02  0.45848790105E+02  0.41736174158E+02  0.10251106055E+03  0.80419002446E+02 0. -1.
        -24    1    1    2    0    0  0.14045703764E+02 -0.45848790105E+02 -0.14475290494E+03  0.17239493261E+03  0.80419002446E+02 0.  1.
<mgrwt>
<rscale>  0 0.93630173E+02</rscale>
<asrwt>0</asrwt>
<pdfrwt beam="1">  1        2 0.13222251E-01 0.93630173E+02</pdfrwt>
<pdfrwt beam="2">  1       -2 0.29070979E-01 0.93630173E+02</pdfrwt>
<totfact> 0.45643611E+03</totfact>
</mgrwt>
</event>
<event>
 4    1  0.4938540E-001  0.8109595E+02  0.7546771E-02  0.1325970E+00
          2   -1    0    0  501    0  0.00000000000E+00  0.00000000000E+00  0.15845783925E+04  0.15845783925E+04  0.00000000000E+00 0. -1.
         -2   -1    0    0    0  501 -0.00000000000E+00 -0.00000000000E+00 -0.43948126539E+01  0.43948126539E+01  0.00000000000E+00 0.  1.
         24    1    1    2    0    0 -0.20362658137E+01  0.10256266485E+02  0.97747192631E+03  0.98083021979E+03  0.80419002446E+02 0. -1.
        -24    1    1    2    0    0  0.20362658137E+01 -0.10256266485E+02  0.60271165350E+03  0.60814298533E+03  0.80419002446E+02 0.  1.
<mgrwt>
<rscale>  0 0.81095951E+02</rscale>
<asrwt>0</asrwt>
<pdfrwt beam="1">  1        2 0.24378084E+00 0.81095951E+02</pdfrwt>
<pdfrwt beam="2">  1       -2 0.67612629E-03 0.81095951E+02</pdfrwt>
<totfact> 0.42163651E+04</totfact>
</mgrwt>
</event>
<event>
 4    1  0.4938540E-001  0.8169596E+02  0.7546771E-02  0.1324306E+00
         -2   -1    0    0    0  501 -0.00000000000E+00  0.00000000000E+00  0.60368743195E+02  0.60368743195E+02  0.00000000000E+00 0.  1.
          2   -1    0    0  501    0  0.00000000000E+00 -0.00000000000E+00 -0.20252687868E+04  0.20252687868E+04  0.00000000000E+00 0. -1.
         24    1    1    2    0    0  0.25454711041E+01 -0.14161003416E+02 -0.19964060669E+04  0.19980769287E+04  0.80419002446E+02 0. -1.
        -24    1    1    2    0    0 -0.25454711041E+01  0.14161003416E+02  0.31506023231E+02  0.87560601272E+02  0.80419002446E+02 0.  1.
<mgrwt>
<rscale>  0 0.81695957E+02</rscale>
<asrwt>0</asrwt>
<pdfrwt beam="1">  1        2 0.31157978E+00 0.81695957E+02</pdfrwt>
<pdfrwt beam="2">  1       -2 0.92874999E-02 0.81695957E+02</pdfrwt>
<totfact> 0.56736834E+02</totfact>
</mgrwt>
</event>
<event>
 4    1  0.4938540E-001  0.1315936E+03  0.7546771E-02  0.1225110E+00
         -4   -1    0    0    0  501 -0.00000000000E+00  0.00000000000E+00  0.12429523674E+03  0.12429523674E+03  0.00000000000E+00 0.  1.
          4   -1    0    0  501    0  0.00000000000E+00 -0.00000000000E+00 -0.28529680830E+03  0.28529680830E+03  0.00000000000E+00 0. -1.
         24    1    1    2    0    0 -0.98507367200E+02  0.33851923586E+02 -0.22699291876E+03  0.26237883917E+03  0.80419002446E+02 0. -1.
        -24    1    1    2    0    0  0.98507367200E+02 -0.33851923586E+02  0.65991347198E+02  0.14721320587E+03  0.80419002446E+02 0.  1.
<mgrwt>
<rscale>  0 0.13159358E+03</rscale>
<asrwt>0</asrwt>
<pdfrwt beam="1">  1        4 0.43891817E-01 0.13159358E+03</pdfrwt>
<pdfrwt beam="2">  1       -4 0.19122344E-01 0.13159358E+03</pdfrwt>
<totfact> 0.20529048E+02</totfact>
</mgrwt>
</event>
<event>
 4    1  0.4938540E-001  0.8059135E+02  0.7546771E-02  0.1327382E+00
         -2   -1    0    0    0  501 -0.00000000000E+00  0.00000000000E+00  0.14381661262E+03  0.14381661262E+03  0.00000000000E+00 0.  1.
          2   -1    0    0  501    0  0.00000000000E+00 -0.00000000000E+00 -0.49326050419E+02  0.49326050419E+02  0.00000000000E+00 0. -1.
         24    1    1    2    0    0  0.35129632158E+01 -0.39254825127E+01  0.19184685026E+02  0.82843336590E+02  0.80419002446E+02 0.  0.
        -24    1    1    2    0    0 -0.35129632158E+01  0.39254825127E+01  0.75305877173E+02  0.11029932645E+03  0.80419002446E+02 0.  1.
<mgrwt>
<rscale>  0 0.80591354E+02</rscale>
<asrwt>0</asrwt>
<pdfrwt beam="1">  1        2 0.75886232E-02 0.80591354E+02</pdfrwt>
<pdfrwt beam="2">  1       -2 0.22125633E-01 0.80591354E+02</pdfrwt>
<totfact> 0.14135197E+04</totfact>
</mgrwt>
</event>
<event>
 4    1  0.4938540E-001  0.8175108E+02  0.7546771E-02  0.1324154E+00
         -2   -1    0    0    0  501 -0.00000000000E+00  0.00000000000E+00  0.15922779541E+02  0.15922779541E+02  0.00000000000E+00 0.  1.
          2   -1    0    0  501    0  0.00000000000E+00 -0.00000000000E+00 -0.47136223909E+03  0.47136223909E+03  0.00000000000E+00 0. -1.
         24    1    1    2    0    0 -0.99365151961E+01  0.10830027587E+02 -0.30835845785E+03  0.31901125108E+03  0.80419002446E+02 0.  0.
        -24    1    1    2    0    0  0.99365151961E+01 -0.10830027587E+02 -0.14708100170E+03  0.16827376755E+03  0.80419002446E+02 0.  0.
<mgrwt>
<rscale>  0 0.81751084E+02</rscale>
<asrwt>0</asrwt>
<pdfrwt beam="1">  1        2 0.72517270E-01 0.81751084E+02</pdfrwt>
<pdfrwt beam="2">  1       -2 0.24496583E-02 0.81751084E+02</pdfrwt>
<totfact> 0.33545623E+04</totfact>
</mgrwt>
</event>
<event>
 4    1  0.4938540E-001  0.1086917E+03  0.7546771E-02  0.1263012E+00
         -1   -1    0    0    0  501 -0.00000000000E+00  0.00000000000E+00  0.28842533156E+02  0.28842533156E+02  0.00000000000E+00 0.  1.
          1   -1    0    0  501    0  0.00000000000E+00 -0.00000000000E+00 -0.45295899344E+03  0.45295899344E+03  0.00000000000E+00 0. -1.
         24    1    1    2    0    0 -0.72698996745E+02 -0.78435013749E+01 -0.13752465179E+03  0.17529093087E+03  0.80419002446E+02 0.  1.
        -24    1    1    2    0    0  0.72698996745E+02  0.78435013749E+01 -0.28659180849E+03  0.30651059572E+03  0.80419002446E+02 0. -1.
<mgrwt>
<rscale>  0 0.10869168E+03</rscale>
<asrwt>0</asrwt>
<pdfrwt beam="1">  1        1 0.69685995E-01 0.10869168E+03</pdfrwt>
<pdfrwt beam="2">  1       -1 0.44373130E-02 0.10869168E+03</pdfrwt>
<totfact> 0.10136234E+04</totfact>
</mgrwt>
</event>
<event>
 4    1  0.4938540E-001  0.8199764E+02  0.7546771E-02  0.1323476E+00
         -2   -1    0    0    0  501 -0.00000000000E+00  0.00000000000E+00  0.13421626965E+03  0.13421626965E+03  0.00000000000E+00 0.  1.
          2   -1    0    0  501    0  0.00000000000E+00 -0.00000000000E+00 -0.50247529298E+02  0.50247529298E+02  0.00000000000E+00 0. -1.
         24    1    1    2    0    0 -0.52207656758E+01 -0.15137407199E+02  0.36908907649E+02  0.89921526395E+02  0.80419002446E+02 0.  0.
        -24    1    1    2    0    0  0.52207656758E+01  0.15137407199E+02  0.47059832703E+02  0.94542272552E+02  0.80419002446E+02 0. -1.
<mgrwt>
<rscale>  0 0.81997643E+02</rscale>
<asrwt>0</asrwt>
<pdfrwt beam="1">  1        2 0.77303892E-02 0.81997643E+02</pdfrwt>
<pdfrwt beam="2">  1       -2 0.20648657E-01 0.81997643E+02</pdfrwt>
<totfact> 0.15552193E+04</totfact>
</mgrwt>
</event>
<event>
 4    1  0.4938540E-001  0.9527820E+02  0.7546771E-02  0.1290551E+00
         -1   -1    0    0    0  501 -0.00000000000E+00  0.00000000000E+00  0.44972530934E+02  0.44972530934E+02  0.00000000000E+00 0.  1.
          1   -1    0    0  501    0  0.00000000000E+00 -0.00000000000E+00 -0.27096745492E+03  0.27096745492E+03  0.00000000000E+00 0. -1.
         24    1    1    2    0    0 -0.27412997291E+02  0.43118940662E+02 -0.19277747624E+03  0.21503740782E+03  0.80419002446E+02 0. -1.
        -24    1    1    2    0    0  0.27412997291E+02 -0.43118940662E+02 -0.33217447750E+02  0.10090257803E+03  0.80419002446E+02 0.  1.
<mgrwt>
<rscale>  0 0.95278191E+02</rscale>
<asrwt>0</asrwt>
<pdfrwt beam="1">  1        1 0.41687301E-01 0.95278203E+02</pdfrwt>
<pdfrwt beam="2">  1       -1 0.69188510E-02 0.95278203E+02</pdfrwt>
<totfact> 0.98442735E+03</totfact>
</mgrwt>
</event>
<event>
 4    1  0.4938540E-001  0.8311305E+02  0.7546771E-02  0.1320442E+00
         -2   -1    0    0    0  501 -0.00000000000E+00  0.00000000000E+00  0.58744433445E+01  0.58744433445E+01  0.00000000000E+00 0.  1.
          2   -1    0    0  501    0  0.00000000000E+00 -0.00000000000E+00 -0.14209143381E+04  0.14209143381E+04  0.00000000000E+00 0. -1.
         24    1    1    2    0    0  0.74510798267E+01 -0.19622549420E+02 -0.10037562743E+04  0.10071913608E+04  0.80419002446E+02 0. -1.
        -24    1    1    2    0    0 -0.74510798267E+01  0.19622549420E+02 -0.41128362043E+03  0.41959742066E+03  0.80419002446E+02 0.  1.
<mgrwt>
<rscale>  0 0.83113049E+02</rscale>
<asrwt>0</asrwt>
<pdfrwt beam="1">  1        2 0.21860210E+00 0.83113049E+02</pdfrwt>
<pdfrwt beam="2">  1       -2 0.90376093E-03 0.83113049E+02</pdfrwt>
<totfact> 0.34038150E+04</totfact>
</mgrwt>
</event>
<event>
 4    1  0.4938540E-001  0.9224479E+02  0.7546771E-02  0.1297505E+00
         -1   -1    0    0    0  501 -0.00000000000E+00  0.00000000000E+00  0.11271499548E+02  0.11271499548E+02  0.00000000000E+00 0.  1.
          1   -1    0    0  501    0  0.00000000000E+00 -0.00000000000E+00 -0.75526097517E+03  0.75526097517E+03  0.00000000000E+00 0. -1.
         24    1    1    2    0    0 -0.44492027003E+02 -0.78956329188E+01 -0.38012024874E+03  0.39115278465E+03  0.80419002446E+02 0.  1.
        -24    1    1    2    0    0  0.44492027003E+02  0.78956329188E+01 -0.36386922688E+03  0.37537969007E+03  0.80419002446E+02 0. -1.
<mgrwt>
<rscale>  0 0.92244781E+02</rscale>
<asrwt>0</asrwt>
<pdfrwt beam="1">  1        1 0.11619402E+00 0.92244792E+02</pdfrwt>
<pdfrwt beam="2">  1       -1 0.17340765E-02 0.92244792E+02</pdfrwt>
<totfact> 0.19491831E+04</totfact>
</mgrwt>
</event>
<event>
 4    1  0.4938540E-001  0.9442557E+02  0.7546771E-02  0.1292475E+00
         -2   -1    0    0    0  501 -0.00000000000E+00  0.00000000000E+00  0.12635657054E+03  0.12635657054E+03  0.00000000000E+00 0.  1.
          2   -1    0    0  501    0  0.00000000000E+00 -0.00000000000E+00 -0.88660758121E+02  0.88660758121E+02  0.00000000000E+00 0. -1.
         24    1    1    2    0    0  0.40512630220E+02 -0.28419959807E+02  0.67419471911E+02  0.11602399954E+03  0.80419002446E+02 0.  1.
        -24    1    1    2    0    0 -0.40512630220E+02  0.28419959807E+02 -0.29723659488E+02  0.98993329121E+02  0.80419002446E+02 0. -1.
<mgrwt>
<rscale>  0 0.94425555E+02</rscale>
<asrwt>0</asrwt>
<pdfrwt beam="1">  1        2 0.13640117E-01 0.94425567E+02</pdfrwt>
<pdfrwt beam="2">  1       -2 0.19439472E-01 0.94425567E+02</pdfrwt>
<totfact> 0.87992072E+03</totfact>
</mgrwt>
</event>
<event>
 4    1  0.4938540E-001  0.1026780E+03  0.7546771E-02  0.1274763E+00
          2   -1    0    0  501    0  0.00000000000E+00  0.00000000000E+00  0.32801930108E+04  0.32801930108E+04  0.00000000000E+00 0. -1.
         -2   -1    0    0    0  501 -0.00000000000E+00 -0.00000000000E+00 -0.35209816577E+01  0.35209816577E+01  0.00000000000E+00 0.  1.
         24    1    1    2    0    0  0.52324492144E+02 -0.36574547130E+02  0.21230784116E+04  0.21255598575E+04  0.80419002446E+02 0. -1.
        -24    1    1    2    0    0 -0.52324492144E+02  0.36574547130E+02  0.11535936175E+04  0.11581541349E+04  0.80419002446E+02 0.  1.
<mgrwt>
<rscale>  0 0.10267797E+03</rscale>
<asrwt>0</asrwt>
<pdfrwt beam="1">  1        2 0.50464263E+00 0.10267797E+03</pdfrwt>
<pdfrwt beam="2">  1       -2 0.54169211E-03 0.10267797E+03</pdfrwt>
<totfact> 0.73034935E+03</totfact>
</mgrwt>
</event>
<event>
 4    1  0.4938540E-001  0.1201978E+03  0.7546771E-02  0.1242771E+00
          2   -1    0    0  501    0  0.00000000000E+00  0.00000000000E+00  0.22254195418E+03  0.22254195418E+03  0.00000000000E+00 0.  1.
         -2   -1    0    0    0  501 -0.00000000000E+00 -0.00000000000E+00 -0.76947723286E+02  0.76947723286E+02  0.00000000000E+00 0. -1.
         24    1    1    2    0    0  0.36700408263E+02 -0.81445512822E+02  0.13594773155E+02  0.12096414897E+03  0.80419002446E+02 0.  0.
        -24    1    1    2    0    0 -0.36700408263E+02  0.81445512822E+02  0.13199945774E+03  0.17852552849E+03  0.80419002446E+02 0.  1.
<mgrwt>
<rscale>  0 0.12019780E+03</rscale>
<asrwt>0</asrwt>
<pdfrwt beam="1">  1        2 0.34237223E-01 0.12019781E+03</pdfrwt>
<pdfrwt beam="2">  1       -2 0.11838111E-01 0.12019781E+03</pdfrwt>
<totfact> 0.72108729E+03</totfact>
</mgrwt>
</event>
<event>
 4    1  0.4938540E-001  0.1249085E+03  0.7546771E-02  0.1235212E+00
         -2   -1    0    0    0  501 -0.00000000000E+00  0.00000000000E+00  0.84845657874E+02  0.84845657874E+02  0.00000000000E+00 0.  1.
          2   -1    0    0  501    0  0.00000000000E+00 -0.00000000000E+00 -0.66978252809E+03  0.66978252809E+03  0.00000000000E+00 0. -1.
         24    1    1    2    0    0 -0.88414336698E+02  0.36301842998E+02 -0.61383961864E+03  0.62641935803E+03  0.80419002446E+02 0. -1.
        -24    1    1    2    0    0  0.88414336698E+02 -0.36301842998E+02  0.28902748432E+02  0.12820882793E+03  0.80419002446E+02 0.  1.
<mgrwt>
<rscale>  0 0.12490851E+03</rscale>
<asrwt>0</asrwt>
<pdfrwt beam="1">  1        2 0.10304347E+00 0.12490851E+03</pdfrwt>
<pdfrwt beam="2">  1       -2 0.13053178E-01 0.12490851E+03</pdfrwt>
<totfact> 0.18781740E+03</totfact>
</mgrwt>
</event>
<event>
 4    1  0.4938540E-001  0.1161291E+03  0.7546771E-02  0.1249623E+00
          2   -1    0    0  501    0  0.00000000000E+00  0.00000000000E+00  0.11643069816E+04  0.11643069816E+04  0.00000000000E+00 0. -1.
         -2   -1    0    0    0  501 -0.00000000000E+00 -0.00000000000E+00 -0.11630673026E+02  0.11630673026E+02  0.00000000000E+00 0.  1.
         24    1    1    2    0    0 -0.41518103721E+01 -0.83675044207E+02  0.53862662246E+03  0.55100327126E+03  0.80419002446E+02 0. -1.
        -24    1    1    2    0    0  0.41518103721E+01  0.83675044207E+02  0.61404968608E+03  0.62493438334E+03  0.80419002446E+02 0.  1.
<mgrwt>
<rscale>  0 0.11612911E+03</rscale>
<asrwt>0</asrwt>
<pdfrwt beam="1">  1        2 0.17912406E+00 0.11612912E+03</pdfrwt>
<pdfrwt beam="2">  1       -2 0.17893352E-02 0.11612912E+03</pdfrwt>
<totfact> 0.18100633E+04</totfact>
</mgrwt>
</event>
<event>
 4    1  0.4938540E-001  0.8860774E+02  0.7546771E-02  0.1306259E+00
         -2   -1    0    0    0  501 -0.00000000000E+00  0.00000000000E+00  0.22508844385E+03  0.22508844385E+03  0.00000000000E+00 0.  1.
          2   -1    0    0  501    0  0.00000000000E+00 -0.00000000000E+00 -0.43166047194E+02  0.43166047194E+02  0.00000000000E+00 0. -1.
         24    1    1    2    0    0 -0.32588122326E+01 -0.37060640513E+02  0.14972249808E+03  0.17397745060E+03  0.80419002446E+02 0.  1.
        -24    1    1    2    0    0  0.32588122326E+01  0.37060640513E+02  0.32199898580E+02  0.94277040446E+02  0.80419002446E+02 0. -1.
<mgrwt>
<rscale>  0 0.88607725E+02</rscale>
<asrwt>0</asrwt>
<pdfrwt beam="1">  1        2 0.66409305E-02 0.88607736E+02</pdfrwt>
<pdfrwt beam="2">  1       -2 0.34628991E-01 0.88607736E+02</pdfrwt>
<totfact> 0.76791750E+03</totfact>
</mgrwt>
</event>
<event>
 4    1  0.4938540E-001  0.8167784E+02  0.7546771E-02  0.1324356E+00
          1   -1    0    0  501    0  0.00000000000E+00  0.00000000000E+00  0.33311449020E+03  0.33311449020E+03  0.00000000000E+00 0. -1.
         -1   -1    0    0    0  501 -0.00000000000E+00 -0.00000000000E+00 -0.10343874312E+03  0.10343874312E+03  0.00000000000E+00 0.  1.
         24    1    1    2    0    0  0.14267870749E+02 -0.69377801259E+00 -0.81172613494E+02  0.11515321359E+03  0.80419002446E+02 0.  1.
        -24    1    1    2    0    0 -0.14267870749E+02  0.69377801259E+00  0.31084836057E+03  0.32140001974E+03  0.80419002446E+02 0. -1.
<mgrwt>
<rscale>  0 0.81677839E+02</rscale>
<asrwt>0</asrwt>
<pdfrwt beam="1">  1        1 0.51248383E-01 0.81677839E+02</pdfrwt>
<pdfrwt beam="2">  1       -1 0.15913653E-01 0.81677839E+02</pdfrwt>
<totfact> 0.21450410E+03</totfact>
</mgrwt>
</event>
<event>
 4    1  0.4938540E-001  0.8297019E+02  0.7546771E-02  0.1320828E+00
         -1   -1    0    0    0  501 -0.00000000000E+00  0.00000000000E+00  0.44598118815E+02  0.44598118815E+02  0.00000000000E+00 0.  1.
          1   -1    0    0  501    0  0.00000000000E+00 -0.00000000000E+00 -0.11947955454E+04  0.11947955454E+04  0.00000000000E+00 0. -1.
         24    1    1    2    0    0  0.18344505213E+02 -0.89618668663E+01  0.31845211302E+01  0.83031277591E+02  0.80419002446E+02 0.  1.
        -24    1    1    2    0    0 -0.18344505213E+02  0.89618668663E+01 -0.11533819477E+04  0.11563623866E+04  0.80419002446E+02 0. -1.
<mgrwt>
<rscale>  0 0.82970187E+02</rscale>
<asrwt>0</asrwt>
<pdfrwt beam="1">  1        1 0.18381466E+00 0.82970187E+02</pdfrwt>
<pdfrwt beam="2">  1       -1 0.68612505E-02 0.82970187E+02</pdfrwt>
<totfact> 0.12603638E+03</totfact>
</mgrwt>
</event>
<event>
 4    1  0.4938540E-001  0.9555365E+02  0.7546771E-02  0.1289934E+00
          2   -1    0    0  501    0  0.00000000000E+00  0.00000000000E+00  0.31689771175E+03  0.31689771175E+03  0.00000000000E+00 0. -1.
         -2   -1    0    0    0  501 -0.00000000000E+00 -0.00000000000E+00 -0.11669340427E+03  0.11669340427E+03  0.00000000000E+00 0.  1.
         24    1    1    2    0    0  0.25456204596E+02 -0.44891716458E+02  0.28823965794E+03  0.30366527777E+03  0.80419002446E+02 0. -1.
        -24    1    1    2    0    0 -0.25456204596E+02  0.44891716458E+02 -0.88035350464E+02  0.12992583825E+03  0.80419002446E+02 0.  1.
<mgrwt>
<rscale>  0 0.95553653E+02</rscale>
<asrwt>0</asrwt>
<pdfrwt beam="1">  1        2 0.48753494E-01 0.95553653E+02</pdfrwt>
<pdfrwt beam="2">  1       -2 0.17952832E-01 0.95553653E+02</pdfrwt>
<totfact> 0.24945892E+03</totfact>
</mgrwt>
</event>
<event>
 4    1  0.4938540E-001  0.1118902E+03  0.7546771E-02  0.1257109E+00
          1   -1    0    0  501    0  0.00000000000E+00  0.00000000000E+00  0.29982902239E+03  0.29982902239E+03  0.00000000000E+00 0. -1.
         -1   -1    0    0    0  501 -0.00000000000E+00 -0.00000000000E+00 -0.75206947296E+02  0.75206947296E+02  0.00000000000E+00 0.  1.
         24    1    1    2    0    0 -0.95234788969E+01 -0.77210813784E+02 -0.12750371202E+02  0.11261436114E+03  0.80419002446E+02 0.  1.
        -24    1    1    2    0    0  0.95234788969E+01  0.77210813784E+02  0.23737244629E+03  0.26242160854E+03  0.80419002446E+02 0. -1.
<mgrwt>
<rscale>  0 0.11189022E+03</rscale>
<asrwt>0</asrwt>
<pdfrwt beam="1">  1        1 0.46127541E-01 0.11189022E+03</pdfrwt>
<pdfrwt beam="2">  1       -1 0.11570300E-01 0.11189022E+03</pdfrwt>
<totfact> 0.40536926E+03</totfact>
</mgrwt>
</event>
<event>
 4    1  0.4938540E-001  0.9162489E+02  0.7546771E-02  0.1298964E+00
         -2   -1    0    0    0  501 -0.00000000000E+00  0.00000000000E+00  0.57397760846E+02  0.57397760846E+02  0.00000000000E+00 0.  1.
          2   -1    0    0  501    0  0.00000000000E+00 -0.00000000000E+00 -0.37586607142E+03  0.37586607142E+03  0.00000000000E+00 0. -1.
         24    1    1    2    0    0  0.27399007117E+02 -0.34310333157E+02 -0.32854918823E+03  0.34108604427E+03  0.80419002446E+02 0. -1.
        -24    1    1    2    0    0 -0.27399007117E+02  0.34310333157E+02  0.10080877654E+02  0.92177788002E+02  0.80419002446E+02 0.  1.
<mgrwt>
<rscale>  0 0.91624890E+02</rscale>
<asrwt>0</asrwt>
<pdfrwt beam="1">  1        2 0.57825551E-01 0.91624890E+02</pdfrwt>
<pdfrwt beam="2">  1       -2 0.88304246E-02 0.91624890E+02</pdfrwt>
<totfact> 0.64392397E+03</totfact>
</mgrwt>
</event>
<event>
 4    1  0.4938540E-001  0.8431183E+02  0.7546771E-02  0.1317242E+00
          1   -1    0    0  501    0  0.00000000000E+00  0.00000000000E+00  0.35870171584E+03  0.35870171584E+03  0.00000000000E+00 0. -1.
         -1   -1    0    0    0  501 -0.00000000000E+00 -0.00000000000E+00 -0.22567070282E+03  0.22567070282E+03  0.00000000000E+00 0.  1.
         24    1    1    2    0    0 -0.78544511148E+01 -0.24074389753E+02 -0.21254680839E+03  0.22865832667E+03  0.80419002446E+02 0.  1.
        -24    1    1    2    0    0  0.78544511148E+01  0.24074389753E+02  0.34557782141E+03  0.35571409200E+03  0.80419002446E+02 0. -1.
<mgrwt>
<rscale>  0 0.84311830E+02</rscale>
<asrwt>0</asrwt>
<pdfrwt beam="1">  1        1 0.55184879E-01 0.84311830E+02</pdfrwt>
<pdfrwt beam="2">  1       -1 0.34718570E-01 0.84311830E+02</pdfrwt>
<totfact> 0.55653016E+02</totfact>
</mgrwt>
</event>
<event>
 4    1  0.4938540E-001  0.9180178E+02  0.7546771E-02  0.1298546E+00
          2   -1    0    0  501    0  0.00000000000E+00  0.00000000000E+00  0.16691790657E+03  0.16691790657E+03  0.00000000000E+00 0. -1.
         -2   -1    0    0    0  501 -0.00000000000E+00 -0.00000000000E+00 -0.54771573329E+02  0.54771573329E+02  0.00000000000E+00 0.  1.
         24    1    1    2    0    0  0.39102571414E+02 -0.20768727094E+02  0.87066981441E+02  0.12652361964E+03  0.80419002446E+02 0.  1.
        -24    1    1    2    0    0 -0.39102571414E+02  0.20768727094E+02  0.25079351795E+02  0.95165860250E+02  0.80419002446E+02 0.  1.
<mgrwt>
<rscale>  0 0.91801781E+02</rscale>
<asrwt>0</asrwt>
<pdfrwt beam="1">  1        2 0.25679678E-01 0.91801781E+02</pdfrwt>
<pdfrwt beam="2">  1       -2 0.84263960E-02 0.91801781E+02</pdfrwt>
<totfact> 0.16319981E+04</totfact>
</mgrwt>
</event>
<event>
 4    1  0.4938540E-001  0.8440547E+02  0.7546771E-02  0.1316995E+00
          1   -1    0    0  501    0  0.00000000000E+00  0.00000000000E+00  0.25029890711E+04  0.25029890711E+04  0.00000000000E+00 0. -1.
         -1   -1    0    0    0  501 -0.00000000000E+00 -0.00000000000E+00 -0.57739590198E+01  0.57739590198E+01  0.00000000000E+00 0.  1.
         24    1    1    2    0    0 -0.16559561289E+02  0.19566524814E+02  0.35540024415E+03  0.36528566556E+03  0.80419002446E+02 0.  1.
        -24    1    1    2    0    0  0.16559561289E+02 -0.19566524814E+02  0.21418148680E+04  0.21434773646E+04  0.80419002446E+02 0.  1.
<mgrwt>
<rscale>  0 0.84405473E+02</rscale>
<asrwt>0</asrwt>
<pdfrwt beam="1">  1        1 0.38507438E+00 0.84405473E+02</pdfrwt>
<pdfrwt beam="2">  1       -1 0.88830339E-03 0.84405473E+02</pdfrwt>
<totfact> 0.34960538E+03</totfact>
</mgrwt>
</event>
<event>
 4    1  0.4938540E-001  0.8196130E+02  0.7546771E-02  0.1323576E+00
          2   -1    0    0  501    0  0.00000000000E+00  0.00000000000E+00  0.23906282480E+04  0.23906282480E+04  0.00000000000E+00 0. -1.
         -2   -1    0    0    0  501 -0.00000000000E+00 -0.00000000000E+00 -0.34395716046E+01  0.34395716046E+01  0.00000000000E+00 0.  1.
         24    1    1    2    0    0  0.15340147537E+02  0.38882159688E+01  0.17057222419E+04  0.17076902590E+04  0.80419002446E+02 0.  0.
        -24    1    1    2    0    0 -0.15340147537E+02 -0.38882159688E+01  0.68146643451E+03  0.68637756058E+03  0.80419002446E+02 0.  1.
<mgrwt>
<rscale>  0 0.81961298E+02</rscale>
<asrwt>0</asrwt>
<pdfrwt beam="1">  1        2 0.36778763E+00 0.81961298E+02</pdfrwt>
<pdfrwt beam="2">  1       -2 0.52916677E-03 0.81961298E+02</pdfrwt>
<totfact> 0.23379902E+04</totfact>
</mgrwt>
</event>
<event>
 4    1  0.4938540E-001  0.8758783E+02  0.7546771E-02  0.1308801E+00
         -1   -1    0    0    0  501 -0.00000000000E+00  0.00000000000E+00  0.39209321458E+02  0.39209321458E+02  0.00000000000E+00 0.  1.
          1   -1    0    0  501    0  0.00000000000E+00 -0.00000000000E+00 -0.55970612886E+03  0.55970612886E+03  0.00000000000E+00 0. -1.
         24    1    1    2    0    0  0.33431793384E+02  0.93127226279E+01 -0.18738615483E+02  0.89569879291E+02  0.80419002446E+02 0.  1.
        -24    1    1    2    0    0 -0.33431793384E+02 -0.93127226279E+01 -0.50175819192E+03  0.50934557103E+03  0.80419002446E+02 0. -1.
<mgrwt>
<rscale>  0 0.87587828E+02</rscale>
<asrwt>0</asrwt>
<pdfrwt beam="1">  1        1 0.86108631E-01 0.87587828E+02</pdfrwt>
<pdfrwt beam="2">  1       -1 0.60322036E-02 0.87587828E+02</pdfrwt>
<totfact> 0.48413021E+03</totfact>
</mgrwt>
</event>
<event>
 4    1  0.4938540E-001  0.8345246E+02  0.7546771E-02  0.1319530E+00
          2   -1    0    0  501    0  0.00000000000E+00  0.00000000000E+00  0.81451422295E+03  0.81451422295E+03  0.00000000000E+00 0. -1.
         -2   -1    0    0    0  501 -0.00000000000E+00 -0.00000000000E+00 -0.28416711136E+03  0.28416711136E+03  0.00000000000E+00 0.  1.
         24    1    1    2    0    0  0.44793899880E+01  0.21841057701E+02  0.80618658418E+03  0.81049436839E+03  0.80419002446E+02 0. -1.
        -24    1    1    2    0    0 -0.44793899880E+01 -0.21841057701E+02 -0.27583947259E+03  0.28818696592E+03  0.80419002446E+02 0.  1.
<mgrwt>
<rscale>  0 0.83452458E+02</rscale>
<asrwt>0</asrwt>
<pdfrwt beam="1">  1        2 0.12530988E+00 0.83452458E+02</pdfrwt>
<pdfrwt beam="2">  1       -2 0.43718017E-01 0.83452458E+02</pdfrwt>
<totfact> 0.18292517E+02</totfact>
</mgrwt>
</event>
<event>
 4    1  0.4938540E-001  0.9497900E+02  0.7546771E-02  0.1291223E+00
          2   -1    0    0  501    0  0.00000000000E+00  0.00000000000E+00  0.99141062043E+03  0.99141062043E+03  0.00000000000E+00 0. -1.
         -2   -1    0    0    0  501 -0.00000000000E+00 -0.00000000000E+00 -0.36555276299E+03  0.36555276299E+03  0.00000000000E+00 0.  1.
         24    1    1    2    0    0 -0.36092100251E+02  0.35371667175E+02  0.98291318581E+03  0.98749143861E+03  0.80419002446E+02 0. -1.
        -24    1    1    2    0    0  0.36092100251E+02 -0.35371667175E+02 -0.35705532836E+03  0.36947194481E+03  0.80419002446E+02 0.  1.
<mgrwt>
<rscale>  0 0.94979000E+02</rscale>
<asrwt>0</asrwt>
<pdfrwt beam="1">  1        2 0.15252471E+00 0.94979000E+02</pdfrwt>
<pdfrwt beam="2">  1       -2 0.56238887E-01 0.94979000E+02</pdfrwt>
<totfact> 0.86352964E+01</totfact>
</mgrwt>
</event>
<event>
 4    1  0.4938540E-001  0.8740031E+02  0.7546771E-02  0.1309272E+00
         -2   -1    0    0    0  501 -0.00000000000E+00  0.00000000000E+00  0.74812732109E+02  0.74812732109E+02  0.00000000000E+00 0.  1.
          2   -1    0    0  501    0  0.00000000000E+00 -0.00000000000E+00 -0.35168810491E+03  0.35168810491E+03  0.00000000000E+00 0. -1.
         24    1    1    2    0    0 -0.33752491225E+02  0.56892015982E+01 -0.31808385144E+03  0.32987293036E+03  0.80419002446E+02 0. -1.
        -24    1    1    2    0    0  0.33752491225E+02 -0.56892015982E+01  0.41208478646E+02  0.96627906659E+02  0.80419002446E+02 0.  1.
<mgrwt>
<rscale>  0 0.87400307E+02</rscale>
<asrwt>0</asrwt>
<pdfrwt beam="1">  1        2 0.54105862E-01 0.87400307E+02</pdfrwt>
<pdfrwt beam="2">  1       -2 0.11509651E-01 0.87400307E+02</pdfrwt>
<totfact> 0.45564752E+03</totfact>
</mgrwt>
</event>
<event>
 4    1  0.4938540E-001  0.8067029E+02  0.7546771E-02  0.1327160E+00
         -2   -1    0    0    0  501 -0.00000000000E+00  0.00000000000E+00  0.13821277389E+02  0.13821277389E+02  0.00000000000E+00 0.  1.
          2   -1    0    0  501    0  0.00000000000E+00 -0.00000000000E+00 -0.70816747446E+03  0.70816747446E+03  0.00000000000E+00 0. -1.
         24    1    1    2    0    0  0.32017672955E+01  0.54980824226E+01 -0.55615119448E+03  0.56197139367E+03  0.80419002446E+02 0. -1.
        -24    1    1    2    0    0 -0.32017672955E+01 -0.54980824226E+01 -0.13819500259E+03  0.16001735818E+03  0.80419002446E+02 0.  0.
<mgrwt>
<rscale>  0 0.80670293E+02</rscale>
<asrwt>0</asrwt>
<pdfrwt beam="1">  1        2 0.10894888E+00 0.80670293E+02</pdfrwt>
<pdfrwt beam="2">  1       -2 0.21263496E-02 0.80670293E+02</pdfrwt>
<totfact> 0.26148794E+04</totfact>
</mgrwt>
</event>
<event>
 4    1  0.4938540E-001  0.9938206E+02  0.7546771E-02  0.1281601E+00
         -1   -1    0    0    0  501 -0.00000000000E+00  0.00000000000E+00  0.18312365629E+02  0.18312365629E+02  0.00000000000E+00 0.  1.
          1   -1    0    0  501    0  0.00000000000E+00 -0.00000000000E+00 -0.59700622951E+03  0.59700622951E+03  0.00000000000E+00 0. -1.
         24    1    1    2    0    0 -0.50328109537E+02 -0.29608419700E+02 -0.19373768666E+03  0.21774086505E+03  0.80419002446E+02 0.  1.
        -24    1    1    2    0    0  0.50328109537E+02  0.29608419700E+02 -0.38495617723E+03  0.39757773010E+03  0.80419002446E+02 0.  0.
<mgrwt>
<rscale>  0 0.99382056E+02</rscale>
<asrwt>0</asrwt>
<pdfrwt beam="1">  1        1 0.91847088E-01 0.99382056E+02</pdfrwt>
<pdfrwt beam="2">  1       -1 0.28172878E-02 0.99382056E+02</pdfrwt>
<totfact> 0.13582191E+04</totfact>
</mgrwt>
</event>
<event>
 4    1  0.4938540E-001  0.8295768E+02  0.7546771E-02  0.1320861E+00
          4   -1    0    0  501    0  0.00000000000E+00  0.00000000000E+00  0.20256035539E+03  0.20256035539E+03  0.00000000000E+00 0. -1.
         -4   -1    0    0    0  501 -0.00000000000E+00 -0.00000000000E+00 -0.35902488180E+02  0.35902488180E+02  0.00000000000E+00 0.  1.
         24    1    1    2    0    0 -0.27226441640E+01  0.20182850305E+02  0.11095575494E+03  0.13853936533E+03  0.80419002446E+02 0. -1.
        -24    1    1    2    0    0  0.27226441640E+01 -0.20182850305E+02  0.55702112272E+02  0.99923478240E+02  0.80419002446E+02 0.  1.
<mgrwt>
<rscale>  0 0.82957677E+02</rscale>
<asrwt>0</asrwt>
<pdfrwt beam="1">  1        4 0.31163131E-01 0.82957677E+02</pdfrwt>
<pdfrwt beam="2">  1       -4 0.55234598E-02 0.82957677E+02</pdfrwt>
<totfact> 0.29006418E+03</totfact>
</mgrwt>
</event>
<event>
 4    1  0.4938540E-001  0.1006298E+03  0.7546771E-02  0.1278977E+00
         -3   -1    0    0    0  501 -0.00000000000E+00  0.00000000000E+00  0.49829405433E+03  0.49829405433E+03  0.00000000000E+00 0.  1.
          3   -1    0    0  501    0  0.00000000000E+00 -0.00000000000E+00 -0.20737834773E+02  0.20737834773E+02  0.00000000000E+00 0. -1.
         24    1    1    2    0    0  0.36979752125E+02  0.47871124938E+02  0.27552413830E+03  0.29332560987E+03  0.80419002446E+02 0. -1.
        -24    1    1    2    0    0 -0.36979752125E+02 -0.47871124938E+02  0.20203208126E+03  0.22570627923E+03  0.80419002446E+02 0.  0.
<mgrwt>
<rscale>  0 0.10062983E+03</rscale>
<asrwt>0</asrwt>
<pdfrwt beam="1">  1        3 0.31904365E-02 0.10062983E+03</pdfrwt>
<pdfrwt beam="2">  1       -3 0.76660615E-01 0.10062983E+03</pdfrwt>
<totfact> 0.16486796E+03</totfact>
</mgrwt>
</event>
<event>
 4    1  0.4938540E-001  0.8212969E+02  0.7546771E-02  0.1323114E+00
          2   -1    0    0  501    0  0.00000000000E+00  0.00000000000E+00  0.53846527581E+03  0.53846527581E+03  0.00000000000E+00 0. -1.
         -2   -1    0    0    0  501 -0.00000000000E+00 -0.00000000000E+00 -0.83475948617E+02  0.83475948617E+02  0.00000000000E+00 0.  1.
         24    1    1    2    0    0  0.78412585346E+00 -0.16657000278E+02  0.51418432778E+03  0.52070222719E+03  0.80419002446E+02 0. -1.
        -24    1    1    2    0    0 -0.78412585346E+00  0.16657000278E+02 -0.59195000590E+02  0.10123899723E+03  0.80419002446E+02 0.  1.
<mgrwt>
<rscale>  0 0.82129693E+02</rscale>
<asrwt>0</asrwt>
<pdfrwt beam="1">  1        2 0.82840809E-01 0.82129693E+02</pdfrwt>
<pdfrwt beam="2">  1       -2 0.12842454E-01 0.82129693E+02</pdfrwt>
<totfact> 0.24302685E+03</totfact>
</mgrwt>
</event>
<event>
 4    1  0.4938540E-001  0.1005865E+03  0.7546771E-02  0.1279068E+00
         -1   -1    0    0    0  501 -0.00000000000E+00  0.00000000000E+00  0.19218914422E+02  0.19218914422E+02  0.00000000000E+00 0.  1.
          1   -1    0    0  501    0  0.00000000000E+00 -0.00000000000E+00 -0.55674576225E+03  0.55674576225E+03  0.00000000000E+00 0. -1.
         24    1    1    2    0    0 -0.46011576790E+02  0.39158017054E+02 -0.33595119783E+03  0.35068623979E+03  0.80419002446E+02 0. -1.
        -24    1    1    2    0    0  0.46011576790E+02 -0.39158017054E+02 -0.20157565000E+03  0.22527843688E+03  0.80419002446E+02 0. -1.
<mgrwt>
<rscale>  0 0.10058645E+03</rscale>
<asrwt>0</asrwt>
<pdfrwt beam="1">  1        1 0.85653190E-01 0.10058646E+03</pdfrwt>
<pdfrwt beam="2">  1       -1 0.29567562E-02 0.10058646E+03</pdfrwt>
<totfact> 0.13915680E+04</totfact>
</mgrwt>
</event>
<event>
 4    1  0.4938540E-001  0.8143815E+02  0.7546771E-02  0.1325019E+00
         -2   -1    0    0    0  501 -0.00000000000E+00  0.00000000000E+00  0.92684364645E+03  0.92684364645E+03  0.00000000000E+00 0.  1.
          2   -1    0    0  501    0  0.00000000000E+00 -0.00000000000E+00 -0.83313764903E+02  0.83313764903E+02  0.00000000000E+00 0. -1.
         24    1    1    2    0    0 -0.35912594795E+01  0.12331198463E+02 -0.61136790953E+02  0.10183260167E+03  0.80419002446E+02 0. -1.
        -24    1    1    2    0    0  0.35912594795E+01 -0.12331198463E+02  0.90466667250E+03  0.90832480968E+03  0.80419002446E+02 0.  1.
<mgrwt>
<rscale>  0 0.81438146E+02</rscale>
<asrwt>0</asrwt>
<pdfrwt beam="1">  1        2 0.12817503E-01 0.81438146E+02</pdfrwt>
<pdfrwt beam="2">  1       -2 0.14259132E+00 0.81438146E+02</pdfrwt>
<totfact> 0.17019750E+02</totfact>
</mgrwt>
</event>
<event>
 4    1  0.4938540E-001  0.8218070E+02  0.7546771E-02  0.1322974E+00
         -2   -1    0    0    0  501 -0.00000000000E+00  0.00000000000E+00  0.99734603934E+01  0.99734603934E+01  0.00000000000E+00 0.  1.
          2   -1    0    0  501    0  0.00000000000E+00 -0.00000000000E+00 -0.10550081935E+04  0.10550081935E+04  0.00000000000E+00 0. -1.
         24    1    1    2    0    0  0.22221329581E-01 -0.16924869001E+02 -0.84118696329E+03  0.84519179767E+03  0.80419002446E+02 0.  0.
        -24    1    1    2    0    0 -0.22221329581E-01  0.16924869001E+02 -0.20384776979E+03  0.21978985620E+03  0.80419002446E+02 0.  1.
<mgrwt>
<rscale>  0 0.82180701E+02</rscale>
<asrwt>0</asrwt>
<pdfrwt beam="1">  1        2 0.16230907E+00 0.82180701E+02</pdfrwt>
<pdfrwt beam="2">  1       -2 0.15343774E-02 0.82180701E+02</pdfrwt>
<totfact> 0.25262705E+04</totfact>
</mgrwt>
</event>
<event>
 4    1  0.4938540E-001  0.8064368E+02  0.7546771E-02  0.1327235E+00
          1   -1    0    0  501    0  0.00000000000E+00  0.00000000000E+00  0.47432237704E+03  0.47432237704E+03  0.00000000000E+00 0. -1.
         -1   -1    0    0    0  501 -0.00000000000E+00 -0.00000000000E+00 -0.14848945640E+02  0.14848945640E+02  0.00000000000E+00 0.  1.
         24    1    1    2    0    0  0.21880094259E+01 -0.56034976810E+01  0.16202611768E+03  0.18098581529E+03  0.80419002446E+02 0.  1.
        -24    1    1    2    0    0 -0.21880094259E+01  0.56034976810E+01  0.29744731372E+03  0.30818550739E+03  0.80419002446E+02 0. -1.
<mgrwt>
<rscale>  0 0.80643676E+02</rscale>
<asrwt>0</asrwt>
<pdfrwt beam="1">  1        1 0.72972662E-01 0.80643676E+02</pdfrwt>
<pdfrwt beam="2">  1       -1 0.22844535E-02 0.80643676E+02</pdfrwt>
<totfact> 0.24246601E+04</totfact>
</mgrwt>
</event>
<event>
 4    1  0.4938540E-001  0.8258573E+02  0.7546771E-02  0.1321870E+00
         -2   -1    0    0    0  501 -0.00000000000E+00  0.00000000000E+00  0.43466172021E+02  0.43466172021E+02  0.00000000000E+00 0.  1.
          2   -1    0    0  501    0  0.00000000000E+00 -0.00000000000E+00 -0.54271808733E+03  0.54271808733E+03  0.00000000000E+00 0. -1.
         24    1    1    2    0    0  0.10610698701E+02 -0.15511305087E+02 -0.49674205429E+03  0.50356039555E+03  0.80419002446E+02 0. -1.
        -24    1    1    2    0    0 -0.10610698701E+02  0.15511305087E+02 -0.25098610177E+01  0.82623863799E+02  0.80419002446E+02 0.  1.
<mgrwt>
<rscale>  0 0.82585734E+02</rscale>
<asrwt>0</asrwt>
<pdfrwt beam="1">  1        2 0.83495089E-01 0.82585734E+02</pdfrwt>
<pdfrwt beam="2">  1       -2 0.66871035E-02 0.82585734E+02</pdfrwt>
<totfact> 0.65974321E+03</totfact>
</mgrwt>
</event>
<event>
 4    1  0.4938540E-001  0.9028686E+02  0.7546771E-02  0.1302159E+00
          4   -1    0    0  501    0  0.00000000000E+00  0.00000000000E+00  0.45813812825E+02  0.45813812825E+02  0.00000000000E+00 0. -1.
         -4   -1    0    0    0  501 -0.00000000000E+00 -0.00000000000E+00 -0.18109157079E+03  0.18109157079E+03  0.00000000000E+00 0.  1.
         24    1    1    2    0    0  0.22803924516E+02  0.34124504070E+02 -0.52651707092E+02  0.10451755338E+03  0.80419002446E+02 0. -1.
        -24    1    1    2    0    0 -0.22803924516E+02 -0.34124504070E+02 -0.82626050871E+02  0.12238783023E+03  0.80419002446E+02 0.  1.
<mgrwt>
<rscale>  0 0.90286858E+02</rscale>
<asrwt>0</asrwt>
<pdfrwt beam="1">  1        4 0.70482790E-02 0.90286858E+02</pdfrwt>
<pdfrwt beam="2">  1       -4 0.27860241E-01 0.90286858E+02</pdfrwt>
<totfact> 0.24702947E+03</totfact>
</mgrwt>
</event>
<event>
 4    1  0.4938540E-001  0.1057109E+03  0.7546771E-02  0.1268725E+00
         -2   -1    0    0    0  501 -0.00000000000E+00  0.00000000000E+00  0.11923945504E+02  0.11923945504E+02  0.00000000000E+00 0.  1.
          2   -1    0    0  501    0  0.00000000000E+00 -0.00000000000E+00 -0.12307621339E+04  0.12307621339E+04  0.00000000000E+00 0. -1.
         24    1    1    2    0    0  0.22109063825E+02  0.64952002061E+02 -0.91288857242E+03  0.91898875667E+03  0.80419002446E+02 0. -1.
        -24    1    1    2    0    0 -0.22109063825E+02 -0.64952002061E+02 -0.30594961596E+03  0.32369732272E+03  0.80419002446E+02 0.  1.
<mgrwt>
<rscale>  0 0.10571088E+03</rscale>
<asrwt>0</asrwt>
<pdfrwt beam="1">  1        2 0.18934805E+00 0.10571088E+03</pdfrwt>
<pdfrwt beam="2">  1       -2 0.18344528E-02 0.10571088E+03</pdfrwt>
<totfact> 0.15952632E+04</totfact>
</mgrwt>
</event>
<event>
 4    1  0.4938540E-001  0.8041929E+02  0.7546771E-02  0.1327866E+00
          2   -1    0    0  501    0  0.00000000000E+00  0.00000000000E+00  0.34884809234E+03  0.34884809234E+03  0.00000000000E+00 0. -1.
         -2   -1    0    0    0  501 -0.00000000000E+00 -0.00000000000E+00 -0.22089693401E+02  0.22089693401E+02  0.00000000000E+00 0.  1.
         24    1    1    2    0    0  0.19342798865E+00  0.95330951721E-01  0.23773904675E+03  0.25097234272E+03  0.80419002446E+02 0. -1.
        -24    1    1    2    0    0 -0.19342798865E+00 -0.95330951721E-01  0.89019352182E+02  0.11996544302E+03  0.80419002446E+02 0.  0.
<mgrwt>
<rscale>  0 0.80419292E+02</rscale>
<asrwt>0</asrwt>
<pdfrwt beam="1">  1        2 0.53668933E-01 0.80419292E+02</pdfrwt>
<pdfrwt beam="2">  1       -2 0.33984146E-02 0.80419292E+02</pdfrwt>
<totfact> 0.28601696E+04</totfact>
</mgrwt>
</event>
<event>
 4    1  0.4938540E-001  0.1109988E+03  0.7546771E-02  0.1258731E+00
         -2   -1    0    0    0  501 -0.00000000000E+00  0.00000000000E+00  0.17512067779E+02  0.17512067779E+02  0.00000000000E+00 0.  1.
          2   -1    0    0  501    0  0.00000000000E+00 -0.00000000000E+00 -0.15331509205E+04  0.15331509205E+04  0.00000000000E+00 0. -1.
         24    1    1    2    0    0 -0.71856797867E+02 -0.26269947139E+02 -0.13281516858E+04  0.13327819124E+04  0.80419002446E+02 0. -1.
        -24    1    1    2    0    0  0.71856797867E+02  0.26269947139E+02 -0.18748716696E+03  0.21788107593E+03  0.80419002446E+02 0.  1.
<mgrwt>
<rscale>  0 0.11099876E+03</rscale>
<asrwt>0</asrwt>
<pdfrwt beam="1">  1        2 0.23586938E+00 0.11099876E+03</pdfrwt>
<pdfrwt beam="2">  1       -2 0.26941642E-02 0.11099876E+03</pdfrwt>
<totfact> 0.63576790E+03</totfact>
</mgrwt>
</event>
<event>
 4    1  0.4938540E-001  0.9429313E+02  0.7546771E-02  0.1292776E+00
         -1   -1    0    0    0  501 -0.00000000000E+00  0.00000000000E+00  0.62613874005E+02  0.62613874005E+02  0.00000000000E+00 0.  1.
          1   -1    0    0  501    0  0.00000000000E+00 -0.00000000000E+00 -0.38970410390E+03  0.38970410390E+03  0.00000000000E+00 0. -1.
         24    1    1    2    0    0 -0.49233880401E+02 -0.65504290565E-01  0.16761895898E+02  0.95771375570E+02  0.80419002446E+02 0.  0.
        -24    1    1    2    0    0  0.49233880401E+02  0.65504290565E-01 -0.34385212580E+03  0.35654660234E+03  0.80419002446E+02 0.  0.
<mgrwt>
<rscale>  0 0.94293135E+02</rscale>
<asrwt>0</asrwt>
<pdfrwt beam="1">  1        1 0.59954476E-01 0.94293135E+02</pdfrwt>
<pdfrwt beam="2">  1       -1 0.96329039E-02 0.94293135E+02</pdfrwt>
<totfact> 0.38375675E+03</totfact>
</mgrwt>
</event>
<event>
 4    1  0.4938540E-001  0.9894741E+02  0.7546771E-02  0.1282525E+00
         -1   -1    0    0    0  501 -0.00000000000E+00  0.00000000000E+00  0.25231057818E+02  0.25231057818E+02  0.00000000000E+00 0.  1.
          1   -1    0    0  501    0  0.00000000000E+00 -0.00000000000E+00 -0.98122262984E+03  0.98122262984E+03  0.00000000000E+00 0. -1.
         24    1    1    2    0    0 -0.50270903938E+02  0.28217200108E+02 -0.86726963245E+02  0.13157566748E+03  0.80419002446E+02 0.  1.
        -24    1    1    2    0    0  0.50270903938E+02 -0.28217200108E+02 -0.86926460878E+03  0.87487802018E+03  0.80419002446E+02 0. -1.
<mgrwt>
<rscale>  0 0.98947411E+02</rscale>
<asrwt>0</asrwt>
<pdfrwt beam="1">  1        1 0.15095737E+00 0.98947411E+02</pdfrwt>
<pdfrwt beam="2">  1       -1 0.38817002E-02 0.98947411E+02</pdfrwt>
<totfact> 0.41091179E+03</totfact>
</mgrwt>
</event>
<event>
 4    1  0.4938540E-001  0.8405676E+02  0.7546771E-02  0.1317918E+00
         -1   -1    0    0    0  501 -0.00000000000E+00  0.00000000000E+00  0.22258836177E+02  0.22258836177E+02  0.00000000000E+00 0.  1.
          1   -1    0    0  501    0  0.00000000000E+00 -0.00000000000E+00 -0.45030411077E+03  0.45030411077E+03  0.00000000000E+00 0. -1.
         24    1    1    2    0    0 -0.17934219285E+02  0.16633905407E+02 -0.85670524461E+02  0.12002073882E+03  0.80419002446E+02 0.  1.
        -24    1    1    2    0    0  0.17934219285E+02 -0.16633905407E+02 -0.34237475014E+03  0.35254220813E+03  0.80419002446E+02 0. -1.
<mgrwt>
<rscale>  0 0.84056760E+02</rscale>
<asrwt>0</asrwt>
<pdfrwt beam="1">  1        1 0.69277552E-01 0.84056760E+02</pdfrwt>
<pdfrwt beam="2">  1       -1 0.34244365E-02 0.84056760E+02</pdfrwt>
<totfact> 0.14552219E+04</totfact>
</mgrwt>
</event>
<event>
 4    1  0.4938540E-001  0.1193833E+03  0.7546771E-02  0.1244118E+00
          2   -1    0    0  501    0  0.00000000000E+00  0.00000000000E+00  0.18145826336E+03  0.18145826336E+03  0.00000000000E+00 0. -1.
         -2   -1    0    0    0  501 -0.00000000000E+00 -0.00000000000E+00 -0.84913824697E+02  0.84913824697E+02  0.00000000000E+00 0.  1.
         24    1    1    2    0    0  0.17455474424E+02  0.86489634078E+02  0.11792587554E+02  0.11996429246E+03  0.80419002446E+02 0. -1.
        -24    1    1    2    0    0 -0.17455474424E+02 -0.86489634078E+02  0.84751851111E+02  0.14640779560E+03  0.80419002446E+02 0.  0.
<mgrwt>
<rscale>  0 0.11938329E+03</rscale>
<asrwt>0</asrwt>
<pdfrwt beam="1">  1        2 0.27916656E-01 0.11938330E+03</pdfrwt>
<pdfrwt beam="2">  1       -2 0.13063665E-01 0.11938330E+03</pdfrwt>
<totfact> 0.76709058E+03</totfact>
</mgrwt>
</event>
<event>
 4    1  0.4938540E-001  0.8466653E+02  0.7546771E-02  0.1316307E+00
          2   -1    0    0  501    0  0.00000000000E+00  0.00000000000E+00  0.23896424324E+04  0.23896424324E+04  0.00000000000E+00 0. -1.
         -2   -1    0    0    0  501 -0.00000000000E+00 -0.00000000000E+00 -0.30286937515E+01  0.30286937515E+01  0.00000000000E+00 0.  1.
         24    1    1    2    0    0 -0.84374248310E+01  0.25100094004E+02  0.13101806500E+04  0.13129134612E+04  0.80419002446E+02 0. -1.
        -24    1    1    2    0    0  0.84374248310E+01 -0.25100094004E+02  0.10764330886E+04  0.10797576649E+04  0.80419002446E+02 0.  1.
<mgrwt>
<rscale>  0 0.84666527E+02</rscale>
<asrwt>0</asrwt>
<pdfrwt beam="1">  1        2 0.36763579E+00 0.84666527E+02</pdfrwt>
<pdfrwt beam="2">  1       -2 0.46595480E-03 0.84666527E+02</pdfrwt>
<totfact> 0.28017596E+04</totfact>
</mgrwt>
</event>
<event>
 4    1  0.4938540E-001  0.1228175E+03  0.7546771E-02  0.1238520E+00
         -1   -1    0    0    0  501 -0.00000000000E+00  0.00000000000E+00  0.10746384056E+03  0.10746384056E+03  0.00000000000E+00 0.  1.
          1   -1    0    0  501    0  0.00000000000E+00 -0.00000000000E+00 -0.16697900192E+03  0.16697900192E+03  0.00000000000E+00 0. -1.
         24    1    1    2    0    0  0.26107202095E+02  0.89080567966E+02  0.25025571648E+02  0.12534124932E+03  0.80419002446E+02 0.  1.
        -24    1    1    2    0    0 -0.26107202095E+02 -0.89080567966E+02 -0.84540733004E+02  0.14910159316E+03  0.80419002446E+02 0. -1.
<mgrwt>
<rscale>  0 0.12281755E+03</rscale>
<asrwt>0</asrwt>
<pdfrwt beam="1">  1        1 0.25689077E-01 0.12281755E+03</pdfrwt>
<pdfrwt beam="2">  1       -1 0.16532899E-01 0.12281755E+03</pdfrwt>
<totfact> 0.48260715E+03</totfact>
</mgrwt>
</event>
<event>
 4    1  0.4938540E-001  0.8301226E+02  0.7546771E-02  0.1320714E+00
          1   -1    0    0  501    0  0.00000000000E+00  0.00000000000E+00  0.41182833963E+02  0.41182833963E+02  0.00000000000E+00 0. -1.
         -1   -1    0    0    0  501 -0.00000000000E+00 -0.00000000000E+00 -0.18301637302E+03  0.18301637302E+03  0.00000000000E+00 0.  1.
         24    1    1    2    0    0 -0.74085395488E+01  0.19207634097E+02 -0.10373762880E+03  0.13286282870E+03  0.80419002446E+02 0.  1.
        -24    1    1    2    0    0  0.74085395488E+01 -0.19207634097E+02 -0.38095910258E+02  0.91336378287E+02  0.80419002446E+02 0.  0.
<mgrwt>
<rscale>  0 0.83012262E+02</rscale>
<asrwt>0</asrwt>
<pdfrwt beam="1">  1        1 0.63358205E-02 0.83012262E+02</pdfrwt>
<pdfrwt beam="2">  1       -1 0.28156366E-01 0.83012262E+02</pdfrwt>
<totfact> 0.12153408E+04</totfact>
</mgrwt>
</event>
<event>
 4    1  0.4938540E-001  0.9038750E+02  0.7546771E-02  0.1301916E+00
         -3   -1    0    0    0  501 -0.00000000000E+00  0.00000000000E+00  0.31826148088E+03  0.31826148088E+03  0.00000000000E+00 0.  1.
          3   -1    0    0  501    0  0.00000000000E+00 -0.00000000000E+00 -0.25842255659E+02  0.25842255659E+02  0.00000000000E+00 0. -1.
         24    1    1    2    0    0 -0.35625307194E+02  0.20821190445E+02  0.16024009009E+03  0.18397496273E+03  0.80419002446E+02 0.  1.
        -24    1    1    2    0    0  0.35625307194E+02 -0.20821190445E+02  0.13217913513E+03  0.16012877381E+03  0.80419002446E+02 0. -1.
<mgrwt>
<rscale>  0 0.90387502E+02</rscale>
<asrwt>0</asrwt>
<pdfrwt beam="1">  1        3 0.39757319E-02 0.90387502E+02</pdfrwt>
<pdfrwt beam="2">  1       -3 0.48963302E-01 0.90387502E+02</pdfrwt>
<totfact> 0.28823330E+03</totfact>
</mgrwt>
</event>
<event>
 4    1  0.4938540E-001  0.1001258E+03  0.7546771E-02  0.1280032E+00
         -3   -1    0    0    0  501 -0.00000000000E+00  0.00000000000E+00  0.64147367537E+02  0.64147367537E+02  0.00000000000E+00 0.  1.
          3   -1    0    0  501    0  0.00000000000E+00 -0.00000000000E+00 -0.16139154291E+03  0.16139154291E+03  0.00000000000E+00 0. -1.
         24    1    1    2    0    0 -0.42722107377E+02  0.41626734665E+02 -0.28560029322E+02  0.10411942531E+03  0.80419002446E+02 0.  1.
        -24    1    1    2    0    0  0.42722107377E+02 -0.41626734665E+02 -0.68684146047E+02  0.12141948513E+03  0.80419002446E+02 0. -1.
<mgrwt>
<rscale>  0 0.10012582E+03</rscale>
<asrwt>0</asrwt>
<pdfrwt beam="1">  1        3 0.24829468E-01 0.10012582E+03</pdfrwt>
<pdfrwt beam="2">  1       -3 0.98688259E-02 0.10012582E+03</pdfrwt>
<totfact> 0.24772143E+03</totfact>
</mgrwt>
</event>
<event>
 4    1  0.4938540E-001  0.8192270E+02  0.7546771E-02  0.1323682E+00
         -2   -1    0    0    0  501 -0.00000000000E+00  0.00000000000E+00  0.10743458703E+02  0.10743458703E+02  0.00000000000E+00 0.  1.
          2   -1    0    0  501    0  0.00000000000E+00 -0.00000000000E+00 -0.72358812327E+03  0.72358812327E+03  0.00000000000E+00 0. -1.
         24    1    1    2    0    0 -0.81499754997E+00 -0.15602858557E+02 -0.49216328673E+03  0.49893489573E+03  0.80419002446E+02 0.  0.
        -24    1    1    2    0    0  0.81499754997E+00  0.15602858557E+02 -0.22068137783E+03  0.23539668624E+03  0.80419002446E+02 0.  1.
<mgrwt>
<rscale>  0 0.81922704E+02</rscale>
<asrwt>0</asrwt>
<pdfrwt beam="1">  1        2 0.11132126E+00 0.81922704E+02</pdfrwt>
<pdfrwt beam="2">  1       -2 0.16528396E-02 0.81922704E+02</pdfrwt>
<totfact> 0.36613095E+04</totfact>
</mgrwt>
</event>
<event>
 4    1  0.4938540E-001  0.9903186E+02  0.7546771E-02  0.1282345E+00
         -2   -1    0    0    0  501 -0.00000000000E+00  0.00000000000E+00  0.38586442712E+02  0.38586442712E+02  0.00000000000E+00 0.  1.
          2   -1    0    0  501    0  0.00000000000E+00 -0.00000000000E+00 -0.33329738012E+03  0.33329738012E+03  0.00000000000E+00 0. -1.
         24    1    1    2    0    0  0.32067409943E+02  0.48080924457E+02 -0.23795780417E+03  0.25774255876E+03  0.80419002446E+02 0. -1.
        -24    1    1    2    0    0 -0.32067409943E+02 -0.48080924457E+02 -0.56753133241E+02  0.11414126407E+03  0.80419002446E+02 0.  1.
<mgrwt>
<rscale>  0 0.99031864E+02</rscale>
<asrwt>0</asrwt>
<pdfrwt beam="1">  1        2 0.51276517E-01 0.99031864E+02</pdfrwt>
<pdfrwt beam="2">  1       -2 0.59363762E-02 0.99031864E+02</pdfrwt>
<totfact> 0.13443674E+04</totfact>
</mgrwt>
</event>
<event>
 4    1  0.4938540E-001  0.1086444E+03  0.7546771E-02  0.1263101E+00
         -2   -1    0    0    0  501 -0.00000000000E+00  0.00000000000E+00  0.17147569888E+03  0.17147569888E+03  0.00000000000E+00 0.  1.
          2   -1    0    0  501    0  0.00000000000E+00 -0.00000000000E+00 -0.78488223569E+02  0.78488223569E+02  0.00000000000E+00 0. -1.
         24    1    1    2    0    0 -0.10835011002E+02 -0.72242601522E+02  0.26637704818E+01  0.10867705630E+03  0.80419002446E+02 0.  0.
        -24    1    1    2    0    0  0.10835011002E+02  0.72242601522E+02  0.90323704829E+02  0.14128686615E+03  0.80419002446E+02 0. -1.
<mgrwt>
<rscale>  0 0.10864441E+03</rscale>
<asrwt>0</asrwt>
<pdfrwt beam="1">  1        2 0.12075111E-01 0.10864441E+03</pdfrwt>
<pdfrwt beam="2">  1       -2 0.26380877E-01 0.10864441E+03</pdfrwt>
<totfact> 0.61011148E+03</totfact>
</mgrwt>
</event>
<event>
 4    1  0.4938540E-001  0.8954978E+02  0.7546771E-02  0.1303946E+00
         -2   -1    0    0    0  501 -0.00000000000E+00  0.00000000000E+00  0.11461459129E+02  0.11461459129E+02  0.00000000000E+00 0.  1.
          2   -1    0    0  501    0  0.00000000000E+00 -0.00000000000E+00 -0.98163919947E+03  0.98163919947E+03  0.00000000000E+00 0. -1.
         24    1    1    2    0    0  0.37199479568E+02  0.12967104652E+02 -0.75121852756E+03  0.75653713669E+03  0.80419002446E+02 0. -1.
        -24    1    1    2    0    0 -0.37199479568E+02 -0.12967104652E+02 -0.21895921278E+03  0.23656352191E+03  0.80419002446E+02 0.  1.
<mgrwt>
<rscale>  0 0.89549780E+02</rscale>
<asrwt>0</asrwt>
<pdfrwt beam="1">  1        2 0.15102145E+00 0.89549780E+02</pdfrwt>
<pdfrwt beam="2">  1       -2 0.17633011E-02 0.89549780E+02</pdfrwt>
<totfact> 0.23027742E+04</totfact>
</mgrwt>
</event>
<event>
 4    1  0.4938540E-001  0.9738523E+02  0.7546771E-02  0.1285893E+00
          1   -1    0    0  501    0  0.00000000000E+00  0.00000000000E+00  0.19426862035E+03  0.19426862035E+03  0.00000000000E+00 0. -1.
         -1   -1    0    0    0  501 -0.00000000000E+00 -0.00000000000E+00 -0.11438047855E+03  0.11438047855E+03  0.00000000000E+00 0.  1.
         24    1    1    2    0    0 -0.11924882547E+02 -0.53614034199E+02 -0.76894279350E+02  0.12408309167E+03  0.80419002446E+02 0.  1.
        -24    1    1    2    0    0  0.11924882547E+02  0.53614034199E+02  0.15678242116E+03  0.18456600723E+03  0.80419002446E+02 0. -1.
<mgrwt>
<rscale>  0 0.97385232E+02</rscale>
<asrwt>0</asrwt>
<pdfrwt beam="1">  1        1 0.29887480E-01 0.97385232E+02</pdfrwt>
<pdfrwt beam="2">  1       -1 0.17596997E-01 0.97385232E+02</pdfrwt>
<totfact> 0.35749009E+03</totfact>
</mgrwt>
</event>
<event>
 4    1  0.4938540E-001  0.8526228E+02  0.7546771E-02  0.1314748E+00
         -2   -1    0    0    0  501 -0.00000000000E+00  0.00000000000E+00  0.19502221359E+03  0.19502221359E+03  0.00000000000E+00 0.  1.
          2   -1    0    0  501    0  0.00000000000E+00 -0.00000000000E+00 -0.38764167733E+02  0.38764167733E+02  0.00000000000E+00 0. -1.
         24    1    1    2    0    0 -0.27596248652E+02 -0.63942706459E+01  0.55225922969E+02  0.10158522609E+03  0.80419002446E+02 0.  0.
        -24    1    1    2    0    0  0.27596248652E+02  0.63942706459E+01  0.10103212289E+03  0.13220115524E+03  0.80419002446E+02 0. -1.
<mgrwt>
<rscale>  0 0.85262275E+02</rscale>
<asrwt>0</asrwt>
<pdfrwt beam="1">  1        2 0.59637182E-02 0.85262275E+02</pdfrwt>
<pdfrwt beam="2">  1       -2 0.30003417E-01 0.85262275E+02</pdfrwt>
<totfact> 0.11347667E+04</totfact>
</mgrwt>
</event>
<event>
 4    1  0.4938540E-001  0.9213798E+02  0.7546771E-02  0.1297755E+00
          2   -1    0    0  501    0  0.00000000000E+00  0.00000000000E+00  0.52982178098E+02  0.52982178098E+02  0.00000000000E+00 0. -1.
         -2   -1    0    0    0  501 -0.00000000000E+00 -0.00000000000E+00 -0.52493746243E+03  0.52493746243E+03  0.00000000000E+00 0.  1.
         24    1    1    2    0    0 -0.35457655858E+02  0.27657650868E+02  0.48770903250E+01  0.92266965783E+02  0.80419002446E+02 0. -1.
        -24    1    1    2    0    0  0.35457655858E+02 -0.27657650868E+02 -0.47683237466E+03  0.48565267475E+03  0.80419002446E+02 0.  1.
<mgrwt>
<rscale>  0 0.92137978E+02</rscale>
<asrwt>0</asrwt>
<pdfrwt beam="1">  1        2 0.81511047E-02 0.92137978E+02</pdfrwt>
<pdfrwt beam="2">  1       -2 0.80759606E-01 0.92137978E+02</pdfrwt>
<totfact> 0.11054730E+03</totfact>
</mgrwt>
</event>
<event>
 4    1  0.4938540E-001  0.1023695E+03  0.7546771E-02  0.1275391E+00
         -2   -1    0    0    0  501 -0.00000000000E+00  0.00000000000E+00  0.10340708324E+02  0.10340708324E+02  0.00000000000E+00 0.  1.
          2   -1    0    0  501    0  0.00000000000E+00 -0.00000000000E+00 -0.11313850501E+04  0.11313850501E+04  0.00000000000E+00 0. -1.
         24    1    1    2    0    0 -0.58752468406E+02 -0.23673680399E+02 -0.74485290103E+03  0.75185461082E+03  0.80419002446E+02 0. -1.
        -24    1    1    2    0    0  0.58752468406E+02  0.23673680399E+02 -0.37619144073E+03  0.38987114759E+03  0.80419002446E+02 0.  1.
<mgrwt>
<rscale>  0 0.10236949E+03</rscale>
<asrwt>0</asrwt>
<pdfrwt beam="1">  1        2 0.17405930E+00 0.10236949E+03</pdfrwt>
<pdfrwt beam="2">  1       -2 0.15908777E-02 0.10236949E+03</pdfrwt>
<totfact> 0.22145902E+04</totfact>
</mgrwt>
</event>
<event>
 4    1  0.4938540E-001  0.8180473E+02  0.7546771E-02  0.1324007E+00
          2   -1    0    0  501    0  0.00000000000E+00  0.00000000000E+00  0.52950115330E+03  0.52950115330E+03  0.00000000000E+00 0. -1.
         -2   -1    0    0    0  501 -0.00000000000E+00 -0.00000000000E+00 -0.12811233493E+02  0.12811233493E+02  0.00000000000E+00 0.  1.
         24    1    1    2    0    0 -0.25393080767E+01 -0.14776671924E+02  0.28984542856E+03  0.30116836907E+03  0.80419002446E+02 0. -1.
        -24    1    1    2    0    0  0.25393080767E+01  0.14776671924E+02  0.22684449124E+03  0.24114401772E+03  0.80419002446E+02 0.  1.
<mgrwt>
<rscale>  0 0.81804731E+02</rscale>
<asrwt>0</asrwt>
<pdfrwt beam="1">  1        2 0.81461699E-01 0.81804731E+02</pdfrwt>
<pdfrwt beam="2">  1       -2 0.19709594E-02 0.81804731E+02</pdfrwt>
<totfact> 0.40447393E+04</totfact>
</mgrwt>
</event>
<event>
 4    1  0.4938540E-001  0.1336860E+03  0.7546771E-02  0.1222087E+00
         -2   -1    0    0    0  501 -0.00000000000E+00  0.00000000000E+00  0.12908824373E+03  0.12908824373E+03  0.00000000000E+00 0.  1.
          2   -1    0    0  501    0  0.00000000000E+00 -0.00000000000E+00 -0.23930901480E+03  0.23930901480E+03  0.00000000000E+00 0. -1.
         24    1    1    2    0    0 -0.10329211669E+03  0.27119374383E+02 -0.17469346189E+03  0.21997668835E+03  0.80419002446E+02 0. -1.
        -24    1    1    2    0    0  0.10329211669E+03 -0.27119374383E+02  0.64472690815E+02  0.14842057018E+03  0.80419002446E+02 0.  1.
<mgrwt>
<rscale>  0 0.13368597E+03</rscale>
<asrwt>0</asrwt>
<pdfrwt beam="1">  1        2 0.36816772E-01 0.13368597E+03</pdfrwt>
<pdfrwt beam="2">  1       -2 0.19859730E-01 0.13368597E+03</pdfrwt>
<totfact> 0.28795293E+03</totfact>
</mgrwt>
</event>
<event>
 4    1  0.4938540E-001  0.1105232E+03  0.7546771E-02  0.1259604E+00
         -3   -1    0    0    0  501 -0.00000000000E+00  0.00000000000E+00  0.43421159124E+02  0.43421159124E+02  0.00000000000E+00 0.  1.
          3   -1    0    0  501    0  0.00000000000E+00 -0.00000000000E+00 -0.31255958978E+03  0.31255958978E+03  0.00000000000E+00 0. -1.
         24    1    1    2    0    0 -0.39513088752E+02 -0.64706118328E+02 -0.78301390531E+02  0.13544921427E+03  0.80419002446E+02 0.  1.
        -24    1    1    2    0    0  0.39513088752E+02  0.64706118328E+02 -0.19083704013E+03  0.22053153464E+03  0.80419002446E+02 0. -1.
<mgrwt>
<rscale>  0 0.11052322E+03</rscale>
<asrwt>0</asrwt>
<pdfrwt beam="1">  1        3 0.48086091E-01 0.11052322E+03</pdfrwt>
<pdfrwt beam="2">  1       -3 0.66801783E-02 0.11052322E+03</pdfrwt>
<totfact> 0.13733687E+03</totfact>
</mgrwt>
</event>
<event>
 4    1  0.4938540E-001  0.8486666E+02  0.7546771E-02  0.1315782E+00
          2   -1    0    0  501    0  0.00000000000E+00  0.00000000000E+00  0.14761274125E+04  0.14761274125E+04  0.00000000000E+00 0. -1.
         -2   -1    0    0    0  501 -0.00000000000E+00 -0.00000000000E+00 -0.49833244096E+01  0.49833244096E+01  0.00000000000E+00 0.  1.
         24    1    1    2    0    0  0.27111904060E+02 -0.28182123558E+00  0.84260858288E+03  0.84687164002E+03  0.80419002446E+02 0. -1.
        -24    1    1    2    0    0 -0.27111904060E+02  0.28182123558E+00  0.62853550523E+03  0.63423909691E+03  0.80419002446E+02 0.  1.
<mgrwt>
<rscale>  0 0.84866664E+02</rscale>
<asrwt>0</asrwt>
<pdfrwt beam="1">  1        2 0.22709618E+00 0.84866664E+02</pdfrwt>
<pdfrwt beam="2">  1       -2 0.76666647E-03 0.84866664E+02</pdfrwt>
<totfact> 0.40282638E+04</totfact>
</mgrwt>
</event>
<event>
 4    1  0.4938540E-001  0.8367038E+02  0.7546771E-02  0.1318947E+00
          2   -1    0    0  501    0  0.00000000000E+00  0.00000000000E+00  0.50266207372E+03  0.50266207372E+03  0.00000000000E+00 0. -1.
         -2   -1    0    0    0  501 -0.00000000000E+00 -0.00000000000E+00 -0.16973929017E+02  0.16973929017E+02  0.00000000000E+00 0.  1.
         24    1    1    2    0    0  0.19782478539E+02  0.11923536483E+02  0.35291857995E+03  0.36270133334E+03  0.80419002446E+02 0. -1.
        -24    1    1    2    0    0 -0.19782478539E+02 -0.11923536483E+02  0.13276956476E+03  0.15693466940E+03  0.80419002446E+02 0.  1.
<mgrwt>
<rscale>  0 0.83670384E+02</rscale>
<asrwt>0</asrwt>
<pdfrwt beam="1">  1        2 0.77332615E-01 0.83670384E+02</pdfrwt>
<pdfrwt beam="2">  1       -2 0.26113741E-02 0.83670384E+02</pdfrwt>
<totfact> 0.28630161E+04</totfact>
</mgrwt>
</event>
<event>
 4    1  0.4938540E-001  0.8045100E+02  0.7546771E-02  0.1327776E+00
         -1   -1    0    0    0  501 -0.00000000000E+00  0.00000000000E+00  0.24703002681E+02  0.24703002681E+02  0.00000000000E+00 0.  1.
          1   -1    0    0  501    0  0.00000000000E+00 -0.00000000000E+00 -0.43948422690E+03  0.43948422690E+03  0.00000000000E+00 0. -1.
         24    1    1    2    0    0  0.15908987346E+01 -0.16174343542E+01 -0.59900571335E+02  0.10030175200E+03  0.80419002446E+02 0.  0.
        -24    1    1    2    0    0 -0.15908987346E+01  0.16174343542E+01 -0.35488065288E+03  0.36388547758E+03  0.80419002446E+02 0. -1.
<mgrwt>
<rscale>  0 0.80450998E+02</rscale>
<asrwt>0</asrwt>
<pdfrwt beam="1">  1        1 0.67612953E-01 0.80450998E+02</pdfrwt>
<pdfrwt beam="2">  1       -1 0.38004623E-02 0.80450998E+02</pdfrwt>
<totfact> 0.12854394E+04</totfact>
</mgrwt>
</event>
<event>
 4    1  0.4938540E-001  0.9628410E+02  0.7546771E-02  0.1288310E+00
          2   -1    0    0  501    0  0.00000000000E+00  0.00000000000E+00  0.16674344520E+04  0.16674344520E+04  0.00000000000E+00 0. -1.
         -2   -1    0    0    0  501 -0.00000000000E+00 -0.00000000000E+00 -0.63914368883E+01  0.63914368883E+01  0.00000000000E+00 0.  1.
         24    1    1    2    0    0 -0.35045307481E+02  0.39689279277E+02  0.11324080672E+04  0.11364940207E+04  0.80419002446E+02 0. -1.
        -24    1    1    2    0    0  0.35045307481E+02 -0.39689279277E+02  0.52863494792E+03  0.53733186820E+03  0.80419002446E+02 0.  1.
<mgrwt>
<rscale>  0 0.96284103E+02</rscale>
<asrwt>0</asrwt>
<pdfrwt beam="1">  1        2 0.25652803E+00 0.96284103E+02</pdfrwt>
<pdfrwt beam="2">  1       -2 0.98329931E-03 0.96284103E+02</pdfrwt>
<totfact> 0.22905530E+04</totfact>
</mgrwt>
</event>
<event>
 4    1  0.4938540E-001  0.8430420E+02  0.7546771E-02  0.1317262E+00
          1   -1    0    0  501    0  0.00000000000E+00  0.00000000000E+00  0.14992954727E+04  0.14992954727E+04  0.00000000000E+00 0. -1.
         -1   -1    0    0    0  501 -0.00000000000E+00 -0.00000000000E+00 -0.49882472994E+01  0.49882472994E+01  0.00000000000E+00 0.  1.
         24    1    1    2    0    0  0.25233668489E+02  0.18011551867E+01  0.57948407600E+03  0.58558431714E+03  0.80419002446E+02 0.  1.
        -24    1    1    2    0    0 -0.25233668489E+02 -0.18011551867E+01  0.91482314942E+03  0.91869940288E+03  0.80419002446E+02 0. -1.
<mgrwt>
<rscale>  0 0.84304200E+02</rscale>
<asrwt>0</asrwt>
<pdfrwt beam="1">  1        1 0.23066048E+00 0.84304200E+02</pdfrwt>
<pdfrwt beam="2">  1       -1 0.76742386E-03 0.84304200E+02</pdfrwt>
<totfact> 0.18396526E+04</totfact>
</mgrwt>
</event>
<event>
 4    1  0.4938540E-001  0.9396639E+02  0.7546771E-02  0.1293521E+00
          2   -1    0    0  501    0  0.00000000000E+00  0.00000000000E+00  0.38744752451E+03  0.38744752451E+03  0.00000000000E+00 0. -1.
         -2   -1    0    0    0  501 -0.00000000000E+00 -0.00000000000E+00 -0.24071358330E+02  0.24071358330E+02  0.00000000000E+00 0.  1.
         24    1    1    2    0    0  0.47989879354E+02 -0.77095896424E+01  0.22917267491E+03  0.24768891209E+03  0.80419002446E+02 0. -1.
        -24    1    1    2    0    0 -0.47989879354E+02  0.77095896424E+01  0.13420349127E+03  0.16382997075E+03  0.80419002446E+02 0.  1.
<mgrwt>
<rscale>  0 0.93966389E+02</rscale>
<asrwt>0</asrwt>
<pdfrwt beam="1">  1        2 0.59607307E-01 0.93966389E+02</pdfrwt>
<pdfrwt beam="2">  1       -2 0.37032862E-02 0.93966389E+02</pdfrwt>
<totfact> 0.22999644E+04</totfact>
</mgrwt>
</event>
<event>
 4    1  0.4938540E-001  0.8275340E+02  0.7546771E-02  0.1321414E+00
         -1   -1    0    0    0  501 -0.00000000000E+00  0.00000000000E+00  0.12318436022E+02  0.12318436022E+02  0.00000000000E+00 0.  1.
          1   -1    0    0  501    0  0.00000000000E+00 -0.00000000000E+00 -0.66297535125E+03  0.66297535125E+03  0.00000000000E+00 0. -1.
         24    1    1    2    0    0  0.82240623531E+01 -0.17699560719E+02 -0.18965082081E+03  0.20691920993E+03  0.80419002446E+02 0.  1.
        -24    1    1    2    0    0 -0.82240623531E+01  0.17699560719E+02 -0.46100609442E+03  0.46837457734E+03  0.80419002446E+02 0. -1.
<mgrwt>
<rscale>  0 0.82753402E+02</rscale>
<asrwt>0</asrwt>
<pdfrwt beam="1">  1        1 0.10199622E+00 0.82753402E+02</pdfrwt>
<pdfrwt beam="2">  1       -1 0.18951437E-02 0.82753402E+02</pdfrwt>
<totfact> 0.20427755E+04</totfact>
</mgrwt>
</event>
<event>
 4    1  0.4938540E-001  0.8983986E+02  0.7546771E-02  0.1303240E+00
          1   -1    0    0  501    0  0.00000000000E+00  0.00000000000E+00  0.14296699275E+03  0.14296699275E+03  0.00000000000E+00 0. -1.
         -1   -1    0    0    0  501 -0.00000000000E+00 -0.00000000000E+00 -0.67015130242E+02  0.67015130242E+02  0.00000000000E+00 0.  1.
         24    1    1    2    0    0  0.37904992352E+02 -0.12930401257E+02 -0.37014865928E+01  0.89916075755E+02  0.80419002446E+02 0.  0.
        -24    1    1    2    0    0 -0.37904992352E+02  0.12930401257E+02  0.79653349102E+02  0.12006604724E+03  0.80419002446E+02 0.  1.
<mgrwt>
<rscale>  0 0.89839856E+02</rscale>
<asrwt>0</asrwt>
<pdfrwt beam="1">  1        1 0.21994922E-01 0.89839856E+02</pdfrwt>
<pdfrwt beam="2">  1       -1 0.10310020E-01 0.89839856E+02</pdfrwt>
<totfact> 0.11836284E+04</totfact>
</mgrwt>
</event>
<event>
 4    1  0.4938540E-001  0.1021707E+03  0.7546771E-02  0.1275796E+00
         -4   -1    0    0    0  501 -0.00000000000E+00  0.00000000000E+00  0.17372889123E+03  0.17372889123E+03  0.00000000000E+00 0.  1.
          4   -1    0    0  501    0  0.00000000000E+00 -0.00000000000E+00 -0.68358633603E+02  0.68358633603E+02  0.00000000000E+00 0. -1.
         24    1    1    2    0    0  0.60105388553E+01  0.62733589928E+02  0.10579352191E+02  0.10271693400E+03  0.80419002446E+02 0.  1.
        -24    1    1    2    0    0 -0.60105388553E+01 -0.62733589928E+02  0.94790905438E+02  0.13937059084E+03  0.80419002446E+02 0.  0.
<mgrwt>
<rscale>  0 0.10217067E+03</rscale>
<asrwt>0</asrwt>
<pdfrwt beam="1">  1        4 0.10516713E-01 0.10217067E+03</pdfrwt>
<pdfrwt beam="2">  1       -4 0.26727521E-01 0.10217067E+03</pdfrwt>
<totfact> 0.14203715E+03</totfact>
</mgrwt>
</event>
<event>
 4    1  0.4938540E-001  0.8278321E+02  0.7546771E-02  0.1321334E+00
          1   -1    0    0  501    0  0.00000000000E+00  0.00000000000E+00  0.23756567376E+02  0.23756567376E+02  0.00000000000E+00 0. -1.
         -1   -1    0    0    0  501 -0.00000000000E+00 -0.00000000000E+00 -0.32328326510E+03  0.32328326510E+03  0.00000000000E+00 0.  1.
         24    1    1    2    0    0 -0.18430412589E+02  0.67944509216E+01 -0.20670488009E+03  0.22266559698E+03  0.80419002446E+02 0.  1.
        -24    1    1    2    0    0  0.18430412589E+02 -0.67944509216E+01 -0.92821817636E+02  0.12437423550E+03  0.80419002446E+02 0.  0.
<mgrwt>
<rscale>  0 0.82783215E+02</rscale>
<asrwt>0</asrwt>
<pdfrwt beam="1">  1        1 0.36548566E-02 0.82783215E+02</pdfrwt>
<pdfrwt beam="2">  1       -1 0.49735886E-01 0.82783215E+02</pdfrwt>
<totfact> 0.96135735E+03</totfact>
</mgrwt>
</event>
<event>
 4    1  0.4938540E-001  0.8481322E+02  0.7546771E-02  0.1315922E+00
         -4   -1    0    0    0  501 -0.00000000000E+00  0.00000000000E+00  0.35942326929E+02  0.35942326929E+02  0.00000000000E+00 0.  1.
          4   -1    0    0  501    0  0.00000000000E+00 -0.00000000000E+00 -0.20193463602E+03  0.20193463602E+03  0.00000000000E+00 0. -1.
         24    1    1    2    0    0  0.86482887660E+01 -0.25520064798E+02 -0.94227374174E+02  0.12677570983E+03  0.80419002446E+02 0. -1.
        -24    1    1    2    0    0 -0.86482887660E+01  0.25520064798E+02 -0.71764934916E+02  0.11110125312E+03  0.80419002446E+02 0.  1.
<mgrwt>
<rscale>  0 0.84813222E+02</rscale>
<asrwt>0</asrwt>
<pdfrwt beam="1">  1        4 0.31066866E-01 0.84813222E+02</pdfrwt>
<pdfrwt beam="2">  1       -4 0.55295889E-02 0.84813222E+02</pdfrwt>
<totfact> 0.29305582E+03</totfact>
</mgrwt>
</event>
<event>
 4    1  0.4938540E-001  0.9024162E+02  0.7546771E-02  0.1302268E+00
          2   -1    0    0  501    0  0.00000000000E+00  0.00000000000E+00  0.24967515960E+03  0.24967515960E+03  0.00000000000E+00 0. -1.
         -2   -1    0    0    0  501 -0.00000000000E+00 -0.00000000000E+00 -0.51980562257E+02  0.51980562257E+02  0.00000000000E+00 0.  1.
         24    1    1    2    0    0 -0.28759754122E+01 -0.40841929008E+02  0.19090463391E+03  0.21115901497E+03  0.80419002446E+02 0.  1.
        -24    1    1    2    0    0  0.28759754122E+01  0.40841929008E+02  0.67899634318E+01  0.90496706887E+02  0.80419002446E+02 0.  1.
<mgrwt>
<rscale>  0 0.90241622E+02</rscale>
<asrwt>0</asrwt>
<pdfrwt beam="1">  1        2 0.38411562E-01 0.90241622E+02</pdfrwt>
<pdfrwt beam="2">  1       -2 0.79970097E-02 0.90241622E+02</pdfrwt>
<totfact> 0.11488575E+04</totfact>
</mgrwt>
</event>
<event>
 4    1  0.4938540E-001  0.8103536E+02  0.7546771E-02  0.1326139E+00
         -1   -1    0    0    0  501 -0.00000000000E+00  0.00000000000E+00  0.18072914425E+02  0.18072914425E+02  0.00000000000E+00 0.  1.
          1   -1    0    0  501    0  0.00000000000E+00 -0.00000000000E+00 -0.37522303762E+03  0.37522303762E+03  0.00000000000E+00 0. -1.
         24    1    1    2    0    0  0.65476225370E+01 -0.75261522125E+01 -0.14358944154E+03  0.16487770621E+03  0.80419002446E+02 0.  1.
        -24    1    1    2    0    0 -0.65476225370E+01  0.75261522125E+01 -0.21356068166E+03  0.22841824584E+03  0.80419002446E+02 0. -1.
<mgrwt>
<rscale>  0 0.81035364E+02</rscale>
<asrwt>0</asrwt>
<pdfrwt beam="1">  1        1 0.57726615E-01 0.81035364E+02</pdfrwt>
<pdfrwt beam="2">  1       -1 0.27804487E-02 0.81035364E+02</pdfrwt>
<totfact> 0.24532021E+04</totfact>
</mgrwt>
</event>
<event>
 4    1  0.4938540E-001  0.9334673E+02  0.7546771E-02  0.1294944E+00
          2   -1    0    0  501    0  0.00000000000E+00  0.00000000000E+00  0.19632076136E+04  0.19632076136E+04  0.00000000000E+00 0. -1.
         -2   -1    0    0    0  501 -0.00000000000E+00 -0.00000000000E+00 -0.95416740061E+01  0.95416740061E+01  0.00000000000E+00 0.  1.
         24    1    1    2    0    0 -0.29089760782E+02  0.37418994838E+02  0.16981923073E+04  0.17007559272E+04  0.80419002446E+02 0. -1.
        -24    1    1    2    0    0  0.29089760782E+02 -0.37418994838E+02  0.25547363231E+03  0.27199336042E+03  0.80419002446E+02 0.  1.
<mgrwt>
<rscale>  0 0.93346726E+02</rscale>
<asrwt>0</asrwt>
<pdfrwt beam="1">  1        2 0.30203162E+00 0.93346726E+02</pdfrwt>
<pdfrwt beam="2">  1       -2 0.14679514E-02 0.93346726E+02</pdfrwt>
<totfact> 0.91844014E+03</totfact>
</mgrwt>
</event>
<event>
 4    1  0.4938540E-001  0.9214120E+02  0.7546771E-02  0.1297748E+00
          2   -1    0    0  501    0  0.00000000000E+00  0.00000000000E+00  0.21207452648E+03  0.21207452648E+03  0.00000000000E+00 0. -1.
         -2   -1    0    0    0  501 -0.00000000000E+00 -0.00000000000E+00 -0.44173400340E+02  0.44173400340E+02  0.00000000000E+00 0.  1.
         24    1    1    2    0    0 -0.44906503558E+02 -0.24880391998E+01  0.12317583508E+03  0.15382550732E+03  0.80419002446E+02 0. -1.
        -24    1    1    2    0    0  0.44906503558E+02  0.24880391998E+01  0.44725291059E+02  0.10242241950E+03  0.80419002446E+02 0. -1.
<mgrwt>
<rscale>  0 0.92141198E+02</rscale>
<asrwt>0</asrwt>
<pdfrwt beam="1">  1        2 0.32626850E-01 0.92141198E+02</pdfrwt>
<pdfrwt beam="2">  1       -2 0.67959079E-02 0.92141198E+02</pdfrwt>
<totfact> 0.17517982E+04</totfact>
</mgrwt>
</event>
<event>
 4    1  0.4938540E-001  0.8817199E+02  0.7546771E-02  0.1307340E+00
         -1   -1    0    0    0  501 -0.00000000000E+00  0.00000000000E+00  0.11599415082E+02  0.11599415082E+02  0.00000000000E+00 0.  1.
          1   -1    0    0  501    0  0.00000000000E+00 -0.00000000000E+00 -0.69621457990E+03  0.69621457990E+03  0.00000000000E+00 0. -1.
         24    1    1    2    0    0 -0.29899714449E+02 -0.20324660156E+02 -0.27393883339E+03  0.28777905609E+03  0.80419002446E+02 0.  1.
        -24    1    1    2    0    0  0.29899714449E+02  0.20324660156E+02 -0.41067633143E+03  0.42003493889E+03  0.80419002446E+02 0. -1.
<mgrwt>
<rscale>  0 0.88171995E+02</rscale>
<asrwt>0</asrwt>
<pdfrwt beam="1">  1        1 0.10710993E+00 0.88171995E+02</pdfrwt>
<pdfrwt beam="2">  1       -1 0.17845255E-02 0.88171995E+02</pdfrwt>
<totfact> 0.20921989E+04</totfact>
</mgrwt>
</event>
<event>
 4    1  0.4938540E-001  0.1009772E+03  0.7546771E-02  0.1278254E+00
         -2   -1    0    0    0  501 -0.00000000000E+00  0.00000000000E+00  0.16592616134E+02  0.16592616134E+02  0.00000000000E+00 0.  1.
          2   -1    0    0  501    0  0.00000000000E+00 -0.00000000000E+00 -0.71001682025E+03  0.71001682025E+03  0.00000000000E+00 0. -1.
         24    1    1    2    0    0  0.16223692941E+02  0.58872542033E+02 -0.47995499988E+03  0.49046223329E+03  0.80419002446E+02 0.  0.
        -24    1    1    2    0    0 -0.16223692941E+02 -0.58872542033E+02 -0.21346920424E+03  0.23614720310E+03  0.80419002446E+02 0.  1.
<mgrwt>
<rscale>  0 0.10097723E+03</rscale>
<asrwt>0</asrwt>
<pdfrwt beam="1">  1        2 0.10923334E+00 0.10097723E+03</pdfrwt>
<pdfrwt beam="2">  1       -2 0.25527106E-02 0.10097723E+03</pdfrwt>
<totfact> 0.20472655E+04</totfact>
</mgrwt>
</event>
<event>
 4    1  0.4938540E-001  0.8667572E+02  0.7546771E-02  0.1311108E+00
          2   -1    0    0  501    0  0.00000000000E+00  0.00000000000E+00  0.14041396076E+03  0.14041396076E+03  0.00000000000E+00 0. -1.
         -2   -1    0    0    0  501 -0.00000000000E+00 -0.00000000000E+00 -0.38716945141E+03  0.38716945141E+03  0.00000000000E+00 0.  1.
         24    1    1    2    0    0  0.27909400279E+02  0.16325748331E+02  0.12150960097E+03  0.14925569927E+03  0.80419002446E+02 0. -1.
        -24    1    1    2    0    0 -0.27909400279E+02 -0.16325748331E+02 -0.36826509162E+03  0.37832771289E+03  0.80419002446E+02 0.  1.
<mgrwt>
<rscale>  0 0.86675721E+02</rscale>
<asrwt>0</asrwt>
<pdfrwt beam="1">  1        2 0.21602148E-01 0.86675721E+02</pdfrwt>
<pdfrwt beam="2">  1       -2 0.59564530E-01 0.86675721E+02</pdfrwt>
<totfact> 0.66726271E+02</totfact>
</mgrwt>
</event>
<event>
 4    1  0.4938540E-001  0.8071764E+02  0.7546771E-02  0.1327027E+00
          4   -1    0    0  501    0  0.00000000000E+00  0.00000000000E+00  0.54477669752E+02  0.54477669752E+02  0.00000000000E+00 0. -1.
         -4   -1    0    0    0  501 -0.00000000000E+00 -0.00000000000E+00 -0.12188906943E+03  0.12188906943E+03  0.00000000000E+00 0.  1.
         24    1    1    2    0    0  0.69075478894E+01 -0.63866785697E+00 -0.21611795361E+02  0.83560802818E+02  0.80419002446E+02 0.  0.
        -24    1    1    2    0    0 -0.69075478894E+01  0.63866785697E+00 -0.45799604315E+02  0.92805936363E+02  0.80419002446E+02 0.  1.
<mgrwt>
<rscale>  0 0.80717644E+02</rscale>
<asrwt>0</asrwt>
<pdfrwt beam="1">  1        4 0.83811801E-02 0.80717644E+02</pdfrwt>
<pdfrwt beam="2">  1       -4 0.18752164E-01 0.80717644E+02</pdfrwt>
<totfact> 0.36900504E+03</totfact>
</mgrwt>
</event>
<event>
 4    1  0.4938540E-001  0.9543717E+02  0.7546771E-02  0.1290195E+00
         -2   -1    0    0    0  501 -0.00000000000E+00  0.00000000000E+00  0.14391412791E+02  0.14391412791E+02  0.00000000000E+00 0.  1.
          2   -1    0    0  501    0  0.00000000000E+00 -0.00000000000E+00 -0.13005528911E+04  0.13005528911E+04  0.00000000000E+00 0. -1.
         24    1    1    2    0    0 -0.41185113084E+02  0.30737982861E+02 -0.11141560559E+04  0.11182360976E+04  0.80419002446E+02 0. -1.
        -24    1    1    2    0    0  0.41185113084E+02 -0.30737982861E+02 -0.17200542244E+03  0.19670820632E+03  0.80419002446E+02 0.  1.
<mgrwt>
<rscale>  0 0.95437168E+02</rscale>
<asrwt>0</asrwt>
<pdfrwt beam="1">  1        2 0.20008506E+00 0.95437168E+02</pdfrwt>
<pdfrwt beam="2">  1       -2 0.22140635E-02 0.95437168E+02</pdfrwt>
<totfact> 0.11090012E+04</totfact>
</mgrwt>
</event>
<event>
 4    1  0.4938540E-001  0.8578084E+02  0.7546771E-02  0.1313403E+00
          2   -1    0    0  501    0  0.00000000000E+00  0.00000000000E+00  0.20123314147E+03  0.20123314147E+03  0.00000000000E+00 0. -1.
         -2   -1    0    0    0  501 -0.00000000000E+00 -0.00000000000E+00 -0.52863728842E+02  0.52863728842E+02  0.00000000000E+00 0.  1.
         24    1    1    2    0    0  0.34064401127E+01  0.29656930635E+02  0.14472704345E+03  0.16823873047E+03  0.80419002446E+02 0.  0.
        -24    1    1    2    0    0 -0.34064401127E+01 -0.29656930635E+02  0.36423691713E+01  0.85858139838E+02  0.80419002446E+02 0. -1.
<mgrwt>
<rscale>  0 0.85780845E+02</rscale>
<asrwt>0</asrwt>
<pdfrwt beam="1">  1        2 0.30958945E-01 0.85780845E+02</pdfrwt>
<pdfrwt beam="2">  1       -2 0.81328814E-02 0.85780845E+02</pdfrwt>
<totfact> 0.13995232E+04</totfact>
</mgrwt>
</event>
<event>
 4    1  0.4938540E-001  0.8478679E+02  0.7546771E-02  0.1315991E+00
          2   -1    0    0  501    0  0.00000000000E+00  0.00000000000E+00  0.15362273785E+04  0.15362273785E+04  0.00000000000E+00 0. -1.
         -2   -1    0    0    0  501 -0.00000000000E+00 -0.00000000000E+00 -0.48425490896E+01  0.48425490896E+01  0.00000000000E+00 0.  1.
         24    1    1    2    0    0  0.37080583453E+01 -0.26605166999E+02  0.90707412920E+03  0.91102814250E+03  0.80419002446E+02 0. -1.
        -24    1    1    2    0    0 -0.37080583453E+01  0.26605166999E+02  0.62431070019E+03  0.63004178507E+03  0.80419002446E+02 0. -1.
<mgrwt>
<rscale>  0 0.84786795E+02</rscale>
<asrwt>0</asrwt>
<pdfrwt beam="1">  1        2 0.23634229E+00 0.84786795E+02</pdfrwt>
<pdfrwt beam="2">  1       -2 0.74500877E-03 0.84786795E+02</pdfrwt>
<totfact> 0.39084118E+04</totfact>
</mgrwt>
</event>
<event>
 4    1  0.4938540E-001  0.8529357E+02  0.7546771E-02  0.1314667E+00
          1   -1    0    0  501    0  0.00000000000E+00  0.00000000000E+00  0.17112261737E+03  0.17112261737E+03  0.00000000000E+00 0. -1.
         -1   -1    0    0    0  501 -0.00000000000E+00 -0.00000000000E+00 -0.47237187670E+02  0.47237187670E+02  0.00000000000E+00 0.  1.
         24    1    1    2    0    0  0.15775771393E+02 -0.23641097856E+02  0.27416493179E+02  0.89591609671E+02  0.80419002446E+02 0.  1.
        -24    1    1    2    0    0 -0.15775771393E+02  0.23641097856E+02  0.96468936523E+02  0.12876819537E+03  0.80419002446E+02 0. -1.
<mgrwt>
<rscale>  0 0.85293566E+02</rscale>
<asrwt>0</asrwt>
<pdfrwt beam="1">  1        1 0.26326556E-01 0.85293566E+02</pdfrwt>
<pdfrwt beam="2">  1       -1 0.72672597E-02 0.85293566E+02</pdfrwt>
<totfact> 0.15899608E+04</totfact>
</mgrwt>
</event>
<event>
 4    1  0.4938540E-001  0.8733482E+02  0.7546771E-02  0.1309437E+00
          2   -1    0    0  501    0  0.00000000000E+00  0.00000000000E+00  0.22360791945E+02  0.22360791945E+02  0.00000000000E+00 0. -1.
         -2   -1    0    0    0  501 -0.00000000000E+00 -0.00000000000E+00 -0.34267444462E+03  0.34267444462E+03  0.00000000000E+00 0.  1.
         24    1    1    2    0    0 -0.97485478164E+01 -0.32636125205E+02 -0.17251077478E+03  0.19335804669E+03  0.80419002446E+02 0. -1.
        -24    1    1    2    0    0  0.97485478164E+01  0.32636125205E+02 -0.14780287790E+03  0.17167718988E+03  0.80419002446E+02 0.  0.
<mgrwt>
<rscale>  0 0.87334808E+02</rscale>
<asrwt>0</asrwt>
<pdfrwt beam="1">  1        2 0.34401222E-02 0.87334819E+02</pdfrwt>
<pdfrwt beam="2">  1       -2 0.52719139E-01 0.87334819E+02</pdfrwt>
<totfact> 0.80631757E+03</totfact>
</mgrwt>
</event>
<event>
 4    1  0.4938540E-001  0.9499180E+02  0.7546771E-02  0.1291195E+00
         -2   -1    0    0    0  501 -0.00000000000E+00  0.00000000000E+00  0.13543619117E+02  0.13543619117E+02  0.00000000000E+00 0.  1.
          2   -1    0    0  501    0  0.00000000000E+00 -0.00000000000E+00 -0.66627437908E+03  0.66627437908E+03  0.00000000000E+00 0. -1.
         24    1    1    2    0    0 -0.35653161054E+02 -0.35847989961E+02 -0.32840273067E+03  0.34186517188E+03  0.80419002446E+02 0. -1.
        -24    1    1    2    0    0  0.35653161054E+02  0.35847989961E+02 -0.32432802930E+03  0.33795282633E+03  0.80419002446E+02 0.  0.
<mgrwt>
<rscale>  0 0.94991801E+02</rscale>
<asrwt>0</asrwt>
<pdfrwt beam="1">  1        2 0.10250372E+00 0.94991801E+02</pdfrwt>
<pdfrwt beam="2">  1       -2 0.20836343E-02 0.94991801E+02</pdfrwt>
<totfact> 0.29389452E+04</totfact>
</mgrwt>
</event>
<event>
 4    1  0.4938540E-001  0.1072867E+03  0.7546771E-02  0.1265679E+00
          2   -1    0    0  501    0  0.00000000000E+00  0.00000000000E+00  0.76712883783E+02  0.76712883783E+02  0.00000000000E+00 0. -1.
         -2   -1    0    0    0  501 -0.00000000000E+00 -0.00000000000E+00 -0.15248199296E+03  0.15248199296E+03  0.00000000000E+00 0.  1.
         24    1    1    2    0    0 -0.68668075678E+02 -0.18108200387E+02 -0.23398737560E+02  0.10980859899E+03  0.80419002446E+02 0. -1.
        -24    1    1    2    0    0  0.68668075678E+02  0.18108200387E+02 -0.52370371621E+02  0.11938627776E+03  0.80419002446E+02 0.  1.
<mgrwt>
<rscale>  0 0.10728666E+03</rscale>
<asrwt>0</asrwt>
<pdfrwt beam="1">  1        2 0.11801982E-01 0.10728666E+03</pdfrwt>
<pdfrwt beam="2">  1       -2 0.23458768E-01 0.10728666E+03</pdfrwt>
<totfact> 0.76794446E+03</totfact>
</mgrwt>
</event>
<event>
 4    1  0.4938540E-001  0.8184756E+02  0.7546771E-02  0.1323889E+00
         -1   -1    0    0    0  501 -0.00000000000E+00  0.00000000000E+00  0.18156882776E+02  0.18156882776E+02  0.00000000000E+00 0.  1.
          1   -1    0    0  501    0  0.00000000000E+00 -0.00000000000E+00 -0.37237970160E+03  0.37237970160E+03  0.00000000000E+00 0. -1.
         24    1    1    2    0    0 -0.10642293165E+02 -0.10888042457E+02 -0.15837783509E+03  0.17827664590E+03  0.80419002446E+02 0.  0.
        -24    1    1    2    0    0  0.10642293165E+02  0.10888042457E+02 -0.19584498374E+03  0.21225993848E+03  0.80419002446E+02 0.  1.
<mgrwt>
<rscale>  0 0.81847565E+02</rscale>
<asrwt>0</asrwt>
<pdfrwt beam="1">  1        1 0.57289180E-01 0.81847565E+02</pdfrwt>
<pdfrwt beam="2">  1       -1 0.27933668E-02 0.81847565E+02</pdfrwt>
<totfact> 0.24626669E+04</totfact>
</mgrwt>
</event>
<event>
 4    1  0.4938540E-001  0.1217405E+03  0.7546771E-02  0.1240253E+00
          2   -1    0    0  501    0  0.00000000000E+00  0.00000000000E+00  0.27494773413E+03  0.27494773413E+03  0.00000000000E+00 0. -1.
         -2   -1    0    0    0  501 -0.00000000000E+00 -0.00000000000E+00 -0.57568463507E+02  0.57568463507E+02  0.00000000000E+00 0.  1.
         24    1    1    2    0    0 -0.83300651042E+02  0.37610326990E+02  0.15063678830E+03  0.19368064721E+03  0.80419002446E+02 0. -1.
        -24    1    1    2    0    0  0.83300651042E+02 -0.37610326990E+02  0.66742482319E+02  0.13883555042E+03  0.80419002446E+02 0.  1.
<mgrwt>
<rscale>  0 0.12174051E+03</rscale>
<asrwt>0</asrwt>
<pdfrwt beam="1">  1        2 0.42299651E-01 0.12174051E+03</pdfrwt>
<pdfrwt beam="2">  1       -2 0.88566869E-02 0.12174051E+03</pdfrwt>
<totfact> 0.90931829E+03</totfact>
</mgrwt>
</event>
<event>
 4    1  0.4938540E-001  0.1088604E+03  0.7546771E-02  0.1262695E+00
          2   -1    0    0  501    0  0.00000000000E+00  0.00000000000E+00  0.26733145174E+03  0.26733145174E+03  0.00000000000E+00 0. -1.
         -2   -1    0    0    0  501 -0.00000000000E+00 -0.00000000000E+00 -0.44724956654E+02  0.44724956654E+02  0.00000000000E+00 0.  1.
         24    1    1    2    0    0  0.60706775954E+02 -0.41207565191E+02  0.12598023224E+03  0.16649808090E+03  0.80419002446E+02 0. -1.
        -24    1    1    2    0    0 -0.60706775954E+02  0.41207565191E+02  0.96626262854E+02  0.14555832750E+03  0.80419002446E+02 0.  1.
<mgrwt>
<rscale>  0 0.10886042E+03</rscale>
<asrwt>0</asrwt>
<pdfrwt beam="1">  1        2 0.41127915E-01 0.10886042E+03</pdfrwt>
<pdfrwt beam="2">  1       -2 0.68807627E-02 0.10886042E+03</pdfrwt>
<totfact> 0.13675288E+04</totfact>
</mgrwt>
</event>
<event>
 4    1  0.4938540E-001  0.9024741E+02  0.7546771E-02  0.1302254E+00
         -1   -1    0    0    0  501 -0.00000000000E+00  0.00000000000E+00  0.69262377587E+03  0.69262377587E+03  0.00000000000E+00 0.  1.
          1   -1    0    0  501    0  0.00000000000E+00 -0.00000000000E+00 -0.25479613813E+02  0.25479613813E+02  0.00000000000E+00 0. -1.
         24    1    1    2    0    0 -0.26808981540E+02 -0.30962187483E+02  0.59705144753E+03  0.60383360746E+03  0.80419002446E+02 0.  0.
        -24    1    1    2    0    0  0.26808981540E+02  0.30962187483E+02  0.70092714524E+02  0.11426978222E+03  0.80419002446E+02 0.  0.
<mgrwt>
<rscale>  0 0.90247407E+02</rscale>
<asrwt>0</asrwt>
<pdfrwt beam="1">  1        1 0.39199411E-02 0.90247407E+02</pdfrwt>
<pdfrwt beam="2">  1       -1 0.10655749E+00 0.90247407E+02</pdfrwt>
<totfact> 0.19404129E+03</totfact>
</mgrwt>
</event>
<event>
 4    1  0.4938540E-001  0.9212142E+02  0.7546771E-02  0.1297794E+00
          2   -1    0    0  501    0  0.00000000000E+00  0.00000000000E+00  0.28837436997E+04  0.28837436997E+04  0.00000000000E+00 0. -1.
         -2   -1    0    0    0  501 -0.00000000000E+00 -0.00000000000E+00 -0.30487555609E+01  0.30487555609E+01  0.00000000000E+00 0.  1.
         24    1    1    2    0    0 -0.28602133402E+02  0.34656212148E+02  0.11712954024E+04  0.11749124524E+04  0.80419002446E+02 0. -1.
        -24    1    1    2    0    0  0.28602133402E+02 -0.34656212148E+02  0.17093995417E+04  0.17118800029E+04  0.80419002446E+02 0.  1.
<mgrwt>
<rscale>  0 0.92121404E+02</rscale>
<asrwt>0</asrwt>
<pdfrwt beam="1">  1        2 0.44365070E+00 0.92121416E+02</pdfrwt>
<pdfrwt beam="2">  1       -2 0.46904162E-03 0.92121416E+02</pdfrwt>
<totfact> 0.15160690E+04</totfact>
</mgrwt>
</event>
<event>
 4    1  0.4938540E-001  0.8114307E+02  0.7546771E-02  0.1325839E+00
          1   -1    0    0  501    0  0.00000000000E+00  0.00000000000E+00  0.19283366242E+02  0.19283366242E+02  0.00000000000E+00 0. -1.
         -1   -1    0    0    0  501 -0.00000000000E+00 -0.00000000000E+00 -0.11300424549E+04  0.11300424549E+04  0.00000000000E+00 0.  1.
         24    1    1    2    0    0 -0.72584733099E+01  0.80185526012E+01 -0.10354374459E+04  0.10386120079E+04  0.80419002446E+02 0.  1.
        -24    1    1    2    0    0  0.72584733099E+01 -0.80185526012E+01 -0.75321642748E+02  0.11071381324E+03  0.80419002446E+02 0.  0.
<mgrwt>
<rscale>  0 0.81143075E+02</rscale>
<asrwt>0</asrwt>
<pdfrwt beam="1">  1        1 0.29666716E-02 0.81143075E+02</pdfrwt>
<pdfrwt beam="2">  1       -1 0.17385270E+00 0.81143075E+02</pdfrwt>
<totfact> 0.84547922E+02</totfact>
</mgrwt>
</event>
<event>
 4    1  0.4938540E-001  0.8944451E+02  0.7546771E-02  0.1304202E+00
         -3   -1    0    0    0  501 -0.00000000000E+00  0.00000000000E+00  0.37910645595E+03  0.37910645595E+03  0.00000000000E+00 0.  1.
          3   -1    0    0  501    0  0.00000000000E+00 -0.00000000000E+00 -0.81097556847E+02  0.81097556847E+02  0.00000000000E+00 0. -1.
         24    1    1    2    0    0 -0.33259923794E+02  0.20661137691E+02  0.34691643082E+03  0.35826154003E+03  0.80419002446E+02 0.  1.
        -24    1    1    2    0    0  0.33259923794E+02 -0.20661137691E+02 -0.48907531711E+02  0.10194247277E+03  0.80419002446E+02 0. -1.
<mgrwt>
<rscale>  0 0.89444514E+02</rscale>
<asrwt>0</asrwt>
<pdfrwt beam="1">  1        3 0.12476547E-01 0.89444514E+02</pdfrwt>
<pdfrwt beam="2">  1       -3 0.58324069E-01 0.89444514E+02</pdfrwt>
<totfact> 0.32491789E+02</totfact>
</mgrwt>
</event>
<event>
 4    1  0.4938540E-001  0.8345156E+02  0.7546771E-02  0.1319532E+00
          1   -1    0    0  501    0  0.00000000000E+00  0.00000000000E+00  0.19210786040E+04  0.19210786040E+04  0.00000000000E+00 0. -1.
         -1   -1    0    0    0  501 -0.00000000000E+00 -0.00000000000E+00 -0.42529822784E+02  0.42529822784E+02  0.00000000000E+00 0.  1.
         24    1    1    2    0    0 -0.58962884212E+01  0.21498387003E+02  0.24520419647E+00  0.83451919932E+02  0.80419002446E+02 0. -1.
        -24    1    1    2    0    0  0.58962884212E+01 -0.21498387003E+02  0.18783035771E+04  0.18801565069E+04  0.80419002446E+02 0.  0.
<mgrwt>
<rscale>  0 0.83451560E+02</rscale>
<asrwt>0</asrwt>
<pdfrwt beam="1">  1        1 0.29555049E+00 0.83451560E+02</pdfrwt>
<pdfrwt beam="2">  1       -1 0.65430511E-02 0.83451560E+02</pdfrwt>
<totfact> 0.46561057E+02</totfact>
</mgrwt>
</event>
<event>
 4    1  0.4938540E-001  0.8194961E+02  0.7546771E-02  0.1323608E+00
         -1   -1    0    0    0  501 -0.00000000000E+00  0.00000000000E+00  0.28088543143E+02  0.28088543143E+02  0.00000000000E+00 0.  1.
          1   -1    0    0  501    0  0.00000000000E+00 -0.00000000000E+00 -0.31518187425E+03  0.31518187425E+03  0.00000000000E+00 0. -1.
         24    1    1    2    0    0 -0.74258180713E+01 -0.13906089767E+02 -0.59215131413E+02  0.10110474692E+03  0.80419002446E+02 0.  0.
        -24    1    1    2    0    0  0.74258180713E+01  0.13906089767E+02 -0.22787819969E+03  0.24216567047E+03  0.80419002446E+02 0. -1.
<mgrwt>
<rscale>  0 0.81949607E+02</rscale>
<asrwt>0</asrwt>
<pdfrwt beam="1">  1        1 0.48489522E-01 0.81949607E+02</pdfrwt>
<pdfrwt beam="2">  1       -1 0.43213141E-02 0.81949607E+02</pdfrwt>
<totfact> 0.16101703E+04</totfact>
</mgrwt>
</event>
<event>
 4    1  0.4938540E-001  0.8127277E+02  0.7546771E-02  0.1325478E+00
          1   -1    0    0  501    0  0.00000000000E+00  0.00000000000E+00  0.56939632006E+03  0.56939632006E+03  0.00000000000E+00 0. -1.
         -1   -1    0    0    0  501 -0.00000000000E+00 -0.00000000000E+00 -0.14379974485E+02  0.14379974485E+02  0.00000000000E+00 0.  1.
         24    1    1    2    0    0  0.62720990007E+01 -0.99351695995E+01  0.14918018417E+03  0.16988228314E+03  0.80419002446E+02 0.  0.
        -24    1    1    2    0    0 -0.62720990007E+01  0.99351695995E+01  0.40583616140E+03  0.41389401141E+03  0.80419002446E+02 0. -1.
<mgrwt>
<rscale>  0 0.81272768E+02</rscale>
<asrwt>0</asrwt>
<pdfrwt beam="1">  1        1 0.87599416E-01 0.81272768E+02</pdfrwt>
<pdfrwt beam="2">  1       -1 0.22123042E-02 0.81272768E+02</pdfrwt>
<totfact> 0.20071688E+04</totfact>
</mgrwt>
</event>
<event>
 4    1  0.4938540E-001  0.8903740E+02  0.7546771E-02  0.1305200E+00
         -3   -1    0    0    0  501 -0.00000000000E+00  0.00000000000E+00  0.58146687258E+03  0.58146687258E+03  0.00000000000E+00 0.  1.
          3   -1    0    0  501    0  0.00000000000E+00 -0.00000000000E+00 -0.14440122845E+02  0.14440122845E+02  0.00000000000E+00 0. -1.
         24    1    1    2    0    0  0.63074819388E+00 -0.38210484500E+02  0.21310999665E+03  0.23096217352E+03  0.80419002446E+02 0. -1.
        -24    1    1    2    0    0 -0.63074819388E+00  0.38210484500E+02  0.35391675309E+03  0.36494482191E+03  0.80419002446E+02 0.  1.
<mgrwt>
<rscale>  0 0.89037390E+02</rscale>
<asrwt>0</asrwt>
<pdfrwt beam="1">  1        3 0.22215578E-02 0.89037402E+02</pdfrwt>
<pdfrwt beam="2">  1       -3 0.89456424E-01 0.89037402E+02</pdfrwt>
<totfact> 0.20013215E+03</totfact>
</mgrwt>
</event>
<event>
 4    1  0.4938540E-001  0.9280901E+02  0.7546771E-02  0.1296188E+00
         -1   -1    0    0    0  501 -0.00000000000E+00  0.00000000000E+00  0.32912537297E+02  0.32912537297E+02  0.00000000000E+00 0.  1.
          1   -1    0    0  501    0  0.00000000000E+00 -0.00000000000E+00 -0.27285474142E+03  0.27285474142E+03  0.00000000000E+00 0. -1.
         24    1    1    2    0    0  0.34581957963E+02  0.30828228554E+02 -0.15087047097E+03  0.17713104318E+03  0.80419002446E+02 0.  0.
        -24    1    1    2    0    0 -0.34581957963E+02 -0.30828228554E+02 -0.89071733152E+02  0.12863623554E+03  0.80419002446E+02 0.  0.
<mgrwt>
<rscale>  0 0.92808995E+02</rscale>
<asrwt>0</asrwt>
<pdfrwt beam="1">  1        1 0.41977651E-01 0.92809007E+02</pdfrwt>
<pdfrwt beam="2">  1       -1 0.50634675E-02 0.92809007E+02</pdfrwt>
<totfact> 0.15429494E+04</totfact>
</mgrwt>
</event>
<event>
 4    1  0.4938540E-001  0.1078949E+03  0.7546771E-02  0.1264519E+00
          2   -1    0    0  501    0  0.00000000000E+00  0.00000000000E+00  0.20806543092E+04  0.20806543092E+04  0.00000000000E+00 0. -1.
         -2   -1    0    0    0  501 -0.00000000000E+00 -0.00000000000E+00 -0.56285182827E+01  0.56285182827E+01  0.00000000000E+00 0.  1.
         24    1    1    2    0    0  0.60753618974E+02 -0.38510978227E+02  0.11179808008E+04  0.11231751353E+04  0.80419002446E+02 0. -1.
        -24    1    1    2    0    0 -0.60753618974E+02  0.38510978227E+02  0.95704499005E+03  0.96310769211E+03  0.80419002446E+02 0.  1.
<mgrwt>
<rscale>  0 0.10789492E+03</rscale>
<asrwt>0</asrwt>
<pdfrwt beam="1">  1        2 0.32010005E+00 0.10789492E+03</pdfrwt>
<pdfrwt beam="2">  1       -2 0.86592755E-03 0.10789492E+03</pdfrwt>
<totfact> 0.17080251E+04</totfact>
</mgrwt>
</event>
<event>
 4    1  0.4938540E-001  0.9132410E+02  0.7546771E-02  0.1299677E+00
         -2   -1    0    0    0  501 -0.00000000000E+00  0.00000000000E+00  0.14871799099E+02  0.14871799099E+02  0.00000000000E+00 0.  1.
          2   -1    0    0  501    0  0.00000000000E+00 -0.00000000000E+00 -0.86053423311E+03  0.86053423311E+03  0.00000000000E+00 0. -1.
         24    1    1    2    0    0 -0.17606456163E+02  0.39533386409E+02 -0.68115492873E+03  0.68724968449E+03  0.80419002446E+02 0. -1.
        -24    1    1    2    0    0  0.17606456163E+02 -0.39533386409E+02 -0.16450750528E+03  0.18815634772E+03  0.80419002446E+02 0.  1.
<mgrwt>
<rscale>  0 0.91324104E+02</rscale>
<asrwt>0</asrwt>
<pdfrwt beam="1">  1        2 0.13238989E+00 0.91324104E+02</pdfrwt>
<pdfrwt beam="2">  1       -2 0.22879690E-02 0.91324104E+02</pdfrwt>
<totfact> 0.18819891E+04</totfact>
</mgrwt>
</event>
<event>
 4    1  0.4938540E-001  0.9995625E+02  0.7546771E-02  0.1280388E+00
          1   -1    0    0  501    0  0.00000000000E+00  0.00000000000E+00  0.16529678175E+04  0.16529678175E+04  0.00000000000E+00 0. -1.
         -1   -1    0    0    0  501 -0.00000000000E+00 -0.00000000000E+00 -0.64139594294E+01  0.64139594294E+01  0.00000000000E+00 0.  1.
         24    1    1    2    0    0 -0.59020714777E+02  0.63711827527E+01  0.62412883388E+03  0.63208231582E+03  0.80419002446E+02 0.  1.
        -24    1    1    2    0    0  0.59020714777E+02 -0.63711827527E+01  0.10224250242E+04  0.10272994611E+04  0.80419002446E+02 0. -1.
<mgrwt>
<rscale>  0 0.99956254E+02</rscale>
<asrwt>0</asrwt>
<pdfrwt beam="1">  1        1 0.25430240E+00 0.99956254E+02</pdfrwt>
<pdfrwt beam="2">  1       -1 0.98676431E-03 0.99956254E+02</pdfrwt>
<totfact> 0.10432812E+04</totfact>
</mgrwt>
</event>
<event>
 4    1  0.4938540E-001  0.8309652E+02  0.7546771E-02  0.1320487E+00
         -2   -1    0    0    0  501 -0.00000000000E+00  0.00000000000E+00  0.15888108789E+02  0.15888108789E+02  0.00000000000E+00 0.  1.
          2   -1    0    0  501    0  0.00000000000E+00 -0.00000000000E+00 -0.72105551992E+03  0.72105551992E+03  0.00000000000E+00 0. -1.
         24    1    1    2    0    0  0.92173382035E+01 -0.18784449335E+02 -0.58482835388E+03  0.59070232294E+03  0.80419002446E+02 0. -1.
        -24    1    1    2    0    0 -0.92173382035E+01  0.18784449335E+02 -0.12033905724E+03  0.14624130577E+03  0.80419002446E+02 0.  1.
<mgrwt>
<rscale>  0 0.83096515E+02</rscale>
<asrwt>0</asrwt>
<pdfrwt beam="1">  1        2 0.11093160E+00 0.83096515E+02</pdfrwt>
<pdfrwt beam="2">  1       -2 0.24443248E-02 0.83096515E+02</pdfrwt>
<totfact> 0.21018774E+04</totfact>
</mgrwt>
</event>
<event>
 4    1  0.4938540E-001  0.8770959E+02  0.7546771E-02  0.1308495E+00
          1   -1    0    0  501    0  0.00000000000E+00  0.00000000000E+00  0.14481345729E+04  0.14481345729E+04  0.00000000000E+00 0. -1.
         -1   -1    0    0    0  501 -0.00000000000E+00 -0.00000000000E+00 -0.64119340319E+02  0.64119340319E+02  0.00000000000E+00 0.  1.
         24    1    1    2    0    0 -0.21211150257E+02  0.27853976947E+02 -0.32119379452E+02  0.93405714053E+02  0.80419002446E+02 0.  1.
        -24    1    1    2    0    0  0.21211150257E+02 -0.27853976947E+02  0.14161346120E+04  0.14188481991E+04  0.80419002446E+02 0. -1.
<mgrwt>
<rscale>  0 0.87709594E+02</rscale>
<asrwt>0</asrwt>
<pdfrwt beam="1">  1        1 0.22278991E+00 0.87709594E+02</pdfrwt>
<pdfrwt beam="2">  1       -1 0.98645150E-02 0.87709594E+02</pdfrwt>
<totfact> 0.50034532E+02</totfact>
</mgrwt>
</event>
<event>
 4    1  0.4938540E-001  0.8466595E+02  0.7546771E-02  0.1316308E+00
         -2   -1    0    0    0  501 -0.00000000000E+00  0.00000000000E+00  0.30420263250E+01  0.30420263250E+01  0.00000000000E+00 0.  1.
          2   -1    0    0  501    0  0.00000000000E+00 -0.00000000000E+00 -0.27443506890E+04  0.27443506890E+04  0.00000000000E+00 0. -1.
         24    1    1    2    0    0  0.22429252770E+02 -0.14072538945E+02 -0.18871207890E+04  0.18890191095E+04  0.80419002446E+02 0. -1.
        -24    1    1    2    0    0 -0.22429252770E+02  0.14072538945E+02 -0.85418787371E+03  0.85837360588E+03  0.80419002446E+02 0.  1.
<mgrwt>
<rscale>  0 0.84665954E+02</rscale>
<asrwt>0</asrwt>
<pdfrwt beam="1">  1        2 0.42220525E+00 0.84665954E+02</pdfrwt>
<pdfrwt beam="2">  1       -2 0.46800687E-03 0.84665954E+02</pdfrwt>
<totfact> 0.18085343E+04</totfact>
</mgrwt>
</event>
<event>
 4    1  0.4938540E-001  0.9121762E+02  0.7546771E-02  0.1299930E+00
         -1   -1    0    0    0  501 -0.00000000000E+00  0.00000000000E+00  0.59389774393E+02  0.59389774393E+02  0.00000000000E+00 0.  1.
          1   -1    0    0  501    0  0.00000000000E+00 -0.00000000000E+00 -0.15930129007E+03  0.15930129007E+03  0.00000000000E+00 0. -1.
         24    1    1    2    0    0 -0.24408349004E+02  0.35463664389E+02 -0.11995557008E+02  0.92002980035E+02  0.80419002446E+02 0.  1.
        -24    1    1    2    0    0  0.24408349004E+02 -0.35463664389E+02 -0.87915958671E+02  0.12668808443E+03  0.80419002446E+02 0. -1.
<mgrwt>
<rscale>  0 0.91217624E+02</rscale>
<asrwt>0</asrwt>
<pdfrwt beam="1">  1        1 0.24507891E-01 0.91217624E+02</pdfrwt>
<pdfrwt beam="2">  1       -1 0.91368884E-02 0.91217624E+02</pdfrwt>
<totfact> 0.12430073E+04</totfact>
</mgrwt>
</event>
<event>
 4    1  0.4938540E-001  0.1007144E+03  0.7546771E-02  0.1278801E+00
         -2   -1    0    0    0  501 -0.00000000000E+00  0.00000000000E+00  0.10364285529E+03  0.10364285529E+03  0.00000000000E+00 0.  1.
          2   -1    0    0  501    0  0.00000000000E+00 -0.00000000000E+00 -0.39003468881E+03  0.39003468881E+03  0.00000000000E+00 0. -1.
         24    1    1    2    0    0 -0.60364070582E+02 -0.56882755051E+01 -0.35683296826E+03  0.37077373247E+03  0.80419002446E+02 0. -1.
        -24    1    1    2    0    0  0.60364070582E+02  0.56882755051E+01  0.70441134739E+02  0.12290381163E+03  0.80419002446E+02 0.  1.
<mgrwt>
<rscale>  0 0.10071442E+03</rscale>
<asrwt>0</asrwt>
<pdfrwt beam="1">  1        2 0.60005338E-01 0.10071442E+03</pdfrwt>
<pdfrwt beam="2">  1       -2 0.15945054E-01 0.10071442E+03</pdfrwt>
<totfact> 0.24431774E+03</totfact>
</mgrwt>
</event>
<event>
 4    1  0.4938540E-001  0.1206708E+03  0.7546771E-02  0.1241994E+00
         -2   -1    0    0    0  501 -0.00000000000E+00  0.00000000000E+00  0.11538343641E+03  0.11538343641E+03  0.00000000000E+00 0.  1.
          2   -1    0    0  501    0  0.00000000000E+00 -0.00000000000E+00 -0.15267369037E+03  0.15267369037E+03  0.00000000000E+00 0. -1.
         24    1    1    2    0    0 -0.50376840022E+02 -0.74541306844E+02 -0.74455937469E+02  0.14179257743E+03  0.80419002446E+02 0. -1.
        -24    1    1    2    0    0  0.50376840022E+02  0.74541306844E+02  0.37165683509E+02  0.12626454935E+03  0.80419002446E+02 0.  1.
<mgrwt>
<rscale>  0 0.12067083E+03</rscale>
<asrwt>0</asrwt>
<pdfrwt beam="1">  1        2 0.23488260E-01 0.12067083E+03</pdfrwt>
<pdfrwt beam="2">  1       -2 0.17751298E-01 0.12067083E+03</pdfrwt>
<totfact> 0.56240322E+03</totfact>
</mgrwt>
</event>
<event>
 4    1  0.4938540E-001  0.8829578E+02  0.7546771E-02  0.1307032E+00
         -1   -1    0    0    0  501 -0.00000000000E+00  0.00000000000E+00  0.71983765920E+02  0.71983765920E+02  0.00000000000E+00 0.  1.
          1   -1    0    0  501    0  0.00000000000E+00 -0.00000000000E+00 -0.48449712931E+03  0.48449712931E+03  0.00000000000E+00 0. -1.
         24    1    1    2    0    0 -0.18237073588E+00 -0.36454013922E+02  0.38920456913E+02  0.96493244897E+02  0.80419002446E+02 0.  1.
        -24    1    1    2    0    0  0.18237073588E+00  0.36454013922E+02 -0.45143382030E+03  0.45998765033E+03  0.80419002446E+02 0. -1.
<mgrwt>
<rscale>  0 0.88295778E+02</rscale>
<asrwt>0</asrwt>
<pdfrwt beam="1">  1        1 0.74538019E-01 0.88295778E+02</pdfrwt>
<pdfrwt beam="2">  1       -1 0.11074426E-01 0.88295778E+02</pdfrwt>
<totfact> 0.23562938E+03</totfact>
</mgrwt>
</event>
<event>
 4    1  0.4938540E-001  0.1202125E+03  0.7546771E-02  0.1242747E+00
          2   -1    0    0  501    0  0.00000000000E+00  0.00000000000E+00  0.14647790690E+04  0.14647790690E+04  0.00000000000E+00 0. -1.
         -2   -1    0    0    0  501 -0.00000000000E+00 -0.00000000000E+00 -0.16964536065E+02  0.16964536065E+02  0.00000000000E+00 0.  1.
         24    1    1    2    0    0  0.83070557377E+02 -0.32910775635E+02  0.12031615761E+04  0.12091521124E+04  0.80419002446E+02 0. -1.
        -24    1    1    2    0    0 -0.83070557377E+02  0.32910775635E+02  0.24465295685E+03  0.27259149273E+03  0.80419002446E+02 0.  1.
<mgrwt>
<rscale>  0 0.12021253E+03</rscale>
<asrwt>0</asrwt>
<pdfrwt beam="1">  1        2 0.22535053E+00 0.12021253E+03</pdfrwt>
<pdfrwt beam="2">  1       -2 0.26099298E-02 0.12021253E+03</pdfrwt>
<totfact> 0.72443965E+03</totfact>
</mgrwt>
</event>
<event>
 4    1  0.4938540E-001  0.1313286E+03  0.7546771E-02  0.1225498E+00
          2   -1    0    0  501    0  0.00000000000E+00  0.00000000000E+00  0.59231641148E+02  0.59231641148E+02  0.00000000000E+00 0. -1.
         -2   -1    0    0    0  501 -0.00000000000E+00 -0.00000000000E+00 -0.59069779525E+03  0.59069779525E+03  0.00000000000E+00 0.  1.
         24    1    1    2    0    0  0.31900970018E+02  0.98804396387E+02 -0.34333109625E+02  0.13574225210E+03  0.80419002446E+02 0. -1.
        -24    1    1    2    0    0 -0.31900970018E+02 -0.98804396387E+02 -0.49713304448E+03  0.51418718430E+03  0.80419002446E+02 0.  1.
<mgrwt>
<rscale>  0 0.13132858E+03</rscale>
<asrwt>0</asrwt>
<pdfrwt beam="1">  1        2 0.91125601E-02 0.13132858E+03</pdfrwt>
<pdfrwt beam="2">  1       -2 0.90876585E-01 0.13132858E+03</pdfrwt>
<totfact> 0.75352274E+02</totfact>
</mgrwt>
</event>
<event>
 4    1  0.4938540E-001  0.8679666E+02  0.7546771E-02  0.1310800E+00
         -1   -1    0    0    0  501 -0.00000000000E+00  0.00000000000E+00  0.15113317824E+02  0.15113317824E+02  0.00000000000E+00 0.  1.
          1   -1    0    0  501    0  0.00000000000E+00 -0.00000000000E+00 -0.77959333670E+03  0.77959333670E+03  0.00000000000E+00 0. -1.
         24    1    1    2    0    0  0.52888553098E+01 -0.32225324286E+02 -0.14363205922E+03  0.16782082084E+03  0.80419002446E+02 0. -1.
        -24    1    1    2    0    0 -0.52888553098E+01  0.32225324286E+02 -0.62084795965E+03  0.62688583369E+03  0.80419002446E+02 0. -1.
<mgrwt>
<rscale>  0 0.86796656E+02</rscale>
<asrwt>0</asrwt>
<pdfrwt beam="1">  1        1 0.11993744E+00 0.86796656E+02</pdfrwt>
<pdfrwt beam="2">  1       -1 0.23251258E-02 0.86796656E+02</pdfrwt>
<totfact> 0.12184558E+04</totfact>
</mgrwt>
</event>
<event>
 4    1  0.4938540E-001  0.1331831E+03  0.7546771E-02  0.1222808E+00
          2   -1    0    0  501    0  0.00000000000E+00  0.00000000000E+00  0.11857241608E+04  0.11857241608E+04  0.00000000000E+00 0. -1.
         -2   -1    0    0    0  501 -0.00000000000E+00 -0.00000000000E+00 -0.20020463823E+02  0.20020463823E+02  0.00000000000E+00 0.  1.
         24    1    1    2    0    0 -0.34455029925E+01  0.10610679361E+03  0.27973605857E+03  0.30982253236E+03  0.80419002446E+02 0.  1.
        -24    1    1    2    0    0  0.34455029925E+01 -0.10610679361E+03  0.88596763838E+03  0.89592209223E+03  0.80419002446E+02 0. -1.
<mgrwt>
<rscale>  0 0.13318312E+03</rscale>
<asrwt>0</asrwt>
<pdfrwt beam="1">  1        2 0.18241905E+00 0.13318314E+03</pdfrwt>
<pdfrwt beam="2">  1       -2 0.30800723E-02 0.13318314E+03</pdfrwt>
<totfact> 0.80531496E+03</totfact>
</mgrwt>
</event>
<event>
 4    1  0.4938540E-001  0.8367845E+02  0.7546771E-02  0.1318925E+00
          2   -1    0    0  501    0  0.00000000000E+00  0.00000000000E+00  0.66506681113E+03  0.66506681113E+03  0.00000000000E+00 0. -1.
         -2   -1    0    0    0  501 -0.00000000000E+00 -0.00000000000E+00 -0.17795112330E+02  0.17795112330E+02  0.00000000000E+00 0.  1.
         24    1    1    2    0    0 -0.54946502692E+01  0.22464978035E+02  0.54181931451E+03  0.54824287679E+03  0.80419002446E+02 0. -1.
        -24    1    1    2    0    0  0.54946502692E+01 -0.22464978035E+02  0.10545238429E+03  0.13461904667E+03  0.80419002446E+02 0.  1.
<mgrwt>
<rscale>  0 0.83678446E+02</rscale>
<asrwt>0</asrwt>
<pdfrwt beam="1">  1        2 0.10231795E+00 0.83678446E+02</pdfrwt>
<pdfrwt beam="2">  1       -2 0.27377101E-02 0.83678446E+02</pdfrwt>
<totfact> 0.19611463E+04</totfact>
</mgrwt>
</event>
<event>
 4    1  0.4938540E-001  0.1022826E+03  0.7546771E-02  0.1275568E+00
         -2   -1    0    0    0  501 -0.00000000000E+00  0.00000000000E+00  0.97347541727E+01  0.97347541727E+01  0.00000000000E+00 0.  1.
          2   -1    0    0  501    0  0.00000000000E+00 -0.00000000000E+00 -0.12456070106E+04  0.12456070106E+04  0.00000000000E+00 0. -1.
         24    1    1    2    0    0  0.63096252769E+02  0.36563882296E+01 -0.85045053054E+03  0.85657914237E+03  0.80419002446E+02 0. -1.
        -24    1    1    2    0    0 -0.63096252769E+02 -0.36563882296E+01 -0.38542172593E+03  0.39876262245E+03  0.80419002446E+02 0.  1.
<mgrwt>
<rscale>  0 0.10228256E+03</rscale>
<asrwt>0</asrwt>
<pdfrwt beam="1">  1        2 0.19163184E+00 0.10228256E+03</pdfrwt>
<pdfrwt beam="2">  1       -2 0.14976546E-02 0.10228256E+03</pdfrwt>
<totfact> 0.20902425E+04</totfact>
</mgrwt>
</event>
<event>
 4    1  0.4938540E-001  0.8599925E+02  0.7546771E-02  0.1312840E+00
          1   -1    0    0  501    0  0.00000000000E+00  0.00000000000E+00  0.25521105298E+04  0.25521105298E+04  0.00000000000E+00 0. -1.
         -1   -1    0    0    0  501 -0.00000000000E+00 -0.00000000000E+00 -0.33778934733E+01  0.33778934733E+01  0.00000000000E+00 0.  1.
         24    1    1    2    0    0 -0.14979448888E+02 -0.26538121581E+02  0.79273025159E+03  0.79738141659E+03  0.80419002446E+02 0. -1.
        -24    1    1    2    0    0  0.14979448888E+02  0.26538121581E+02  0.17560023847E+04  0.17581070066E+04  0.80419002446E+02 0. -1.
<mgrwt>
<rscale>  0 0.85999254E+02</rscale>
<asrwt>0</asrwt>
<pdfrwt beam="1">  1        1 0.39263085E+00 0.85999254E+02</pdfrwt>
<pdfrwt beam="2">  1       -1 0.51967796E-03 0.85999254E+02</pdfrwt>
<totfact> 0.68928455E+03</totfact>
</mgrwt>
</event>
<event>
 4    1  0.4938540E-001  0.9147395E+02  0.7546771E-02  0.1299321E+00
         -2   -1    0    0    0  501 -0.00000000000E+00  0.00000000000E+00  0.41277596848E+01  0.41277596848E+01  0.00000000000E+00 0.  1.
          2   -1    0    0  501    0  0.00000000000E+00 -0.00000000000E+00 -0.22600782722E+04  0.22600782722E+04  0.00000000000E+00 0. -1.
         24    1    1    2    0    0 -0.39798656702E+02 -0.17785791901E+02 -0.14914371937E+04  0.14942397352E+04  0.80419002446E+02 0. -1.
        -24    1    1    2    0    0  0.39798656702E+02  0.17785791901E+02 -0.76451331876E+03  0.76996629665E+03  0.80419002446E+02 0.  1.
<mgrwt>
<rscale>  0 0.91473949E+02</rscale>
<asrwt>0</asrwt>
<pdfrwt beam="1">  1        2 0.34770290E+00 0.91473949E+02</pdfrwt>
<pdfrwt beam="2">  1       -2 0.63504261E-03 0.91473949E+02</pdfrwt>
<totfact> 0.21256512E+04</totfact>
</mgrwt>
</event>
<event>
 4    1  0.4938540E-001  0.9646338E+02  0.7546771E-02  0.1287914E+00
         -2   -1    0    0    0  501 -0.00000000000E+00  0.00000000000E+00  0.23490829230E+02  0.23490829230E+02  0.00000000000E+00 0.  1.
          2   -1    0    0  501    0  0.00000000000E+00 -0.00000000000E+00 -0.58269121407E+03  0.58269121407E+03  0.00000000000E+00 0. -1.
         24    1    1    2    0    0 -0.78957007006E+01 -0.52684200497E+02 -0.45110502664E+03  0.46130350973E+03  0.80419002446E+02 0. -1.
        -24    1    1    2    0    0  0.78957007006E+01  0.52684200497E+02 -0.10809535820E+03  0.14487853357E+03  0.80419002446E+02 0.  0.
<mgrwt>
<rscale>  0 0.96463377E+02</rscale>
<asrwt>0</asrwt>
<pdfrwt beam="1">  1        2 0.89644796E-01 0.96463377E+02</pdfrwt>
<pdfrwt beam="2">  1       -2 0.36139740E-02 0.96463377E+02</pdfrwt>
<totfact> 0.15396552E+04</totfact>
</mgrwt>
</event>
<event>
 4    1  0.4938540E-001  0.8102964E+02  0.7546771E-02  0.1326155E+00
         -1   -1    0    0    0  501 -0.00000000000E+00  0.00000000000E+00  0.12057008174E+03  0.12057008174E+03  0.00000000000E+00 0.  1.
          1   -1    0    0  501    0  0.00000000000E+00 -0.00000000000E+00 -0.28030943129E+03  0.28030943129E+03  0.00000000000E+00 0. -1.
         24    1    1    2    0    0  0.86761016612E+01 -0.48282628123E+01  0.10004974891E+03  0.12874686432E+03  0.80419002446E+02 0.  1.
        -24    1    1    2    0    0 -0.86761016612E+01  0.48282628123E+01 -0.25978909845E+03  0.27213264871E+03  0.80419002446E+02 0. -1.
<mgrwt>
<rscale>  0 0.81029642E+02</rscale>
<asrwt>0</asrwt>
<pdfrwt beam="1">  1        1 0.43124527E-01 0.81029642E+02</pdfrwt>
<pdfrwt beam="2">  1       -1 0.18549244E-01 0.81029642E+02</pdfrwt>
<totfact> 0.20823272E+03</totfact>
</mgrwt>
</event>
<event>
 4    1  0.4938540E-001  0.1056144E+03  0.7546771E-02  0.1268914E+00
          2   -1    0    0  501    0  0.00000000000E+00  0.00000000000E+00  0.18236481791E+04  0.18236481791E+04  0.00000000000E+00 0. -1.
         -2   -1    0    0    0  501 -0.00000000000E+00 -0.00000000000E+00 -0.81233138304E+01  0.81233138304E+01  0.00000000000E+00 0.  1.
         24    1    1    2    0    0  0.45311003522E+02  0.51323375257E+02  0.13629866874E+04  0.13670724567E+04  0.80419002446E+02 0. -1.
        -24    1    1    2    0    0 -0.45311003522E+02 -0.51323375257E+02  0.45253817787E+03  0.46469903623E+03  0.80419002446E+02 0.  1.
<mgrwt>
<rscale>  0 0.10561435E+03</rscale>
<asrwt>0</asrwt>
<pdfrwt beam="1">  1        2 0.28056093E+00 0.10561435E+03</pdfrwt>
<pdfrwt beam="2">  1       -2 0.12497420E-02 0.10561435E+03</pdfrwt>
<totfact> 0.13658451E+04</totfact>
</mgrwt>
</event>
<event>
 4    1  0.4938540E-001  0.1249499E+03  0.7546771E-02  0.1235148E+00
          2   -1    0    0  501    0  0.00000000000E+00  0.00000000000E+00  0.11772896947E+04  0.11772896947E+04  0.00000000000E+00 0. -1.
         -2   -1    0    0    0  501 -0.00000000000E+00 -0.00000000000E+00 -0.13263091865E+02  0.13263091865E+02  0.00000000000E+00 0.  1.
         24    1    1    2    0    0 -0.22416477142E+02 -0.92966425656E+02  0.57522479114E+03  0.58863913482E+03  0.80419002446E+02 0.  0.
        -24    1    1    2    0    0  0.22416477142E+02  0.92966425656E+02  0.58880181171E+03  0.60191365176E+03  0.80419002446E+02 0.  1.
<mgrwt>
<rscale>  0 0.12494989E+03</rscale>
<asrwt>0</asrwt>
<pdfrwt beam="1">  1        2 0.18112141E+00 0.12494990E+03</pdfrwt>
<pdfrwt beam="2">  1       -2 0.20404766E-02 0.12494990E+03</pdfrwt>
<totfact> 0.14795869E+04</totfact>
</mgrwt>
</event>
<event>
 4    1  0.4938540E-001  0.8781570E+02  0.7546771E-02  0.1308229E+00
          2   -1    0    0  501    0  0.00000000000E+00  0.00000000000E+00  0.19596159218E+03  0.19596159218E+03  0.00000000000E+00 0. -1.
         -2   -1    0    0    0  501 -0.00000000000E+00 -0.00000000000E+00 -0.45655062135E+02  0.45655062135E+02  0.00000000000E+00 0.  1.
         24    1    1    2    0    0 -0.31394421800E+02 -0.16086365583E+02  0.12003893957E+03  0.14873111257E+03  0.80419002446E+02 0. -1.
        -24    1    1    2    0    0  0.31394421800E+02  0.16086365583E+02  0.30267590470E+02  0.92885541744E+02  0.80419002446E+02 0.  1.
<mgrwt>
<rscale>  0 0.87815698E+02</rscale>
<asrwt>0</asrwt>
<pdfrwt beam="1">  1        2 0.30147937E-01 0.87815698E+02</pdfrwt>
<pdfrwt beam="2">  1       -2 0.70238558E-02 0.87815698E+02</pdfrwt>
<totfact> 0.18035940E+04</totfact>
</mgrwt>
</event>
<event>
 4    1  0.4938540E-001  0.1089840E+03  0.7546771E-02  0.1262463E+00
         -1   -1    0    0    0  501 -0.00000000000E+00  0.00000000000E+00  0.59522528162E+01  0.59522528162E+01  0.00000000000E+00 0.  1.
          1   -1    0    0  501    0  0.00000000000E+00 -0.00000000000E+00 -0.33914421707E+04  0.33914421707E+04  0.00000000000E+00 0. -1.
         24    1    1    2    0    0 -0.14499465881E+01  0.73540446302E+02 -0.60290472785E+03  0.61267579225E+03  0.80419002446E+02 0.  1.
        -24    1    1    2    0    0  0.14499465881E+01 -0.73540446302E+02 -0.27825851900E+04  0.27847186312E+04  0.80419002446E+02 0. -1.
<mgrwt>
<rscale>  0 0.10898402E+03</rscale>
<asrwt>0</asrwt>
<pdfrwt beam="1">  1        1 0.52176159E+00 0.10898402E+03</pdfrwt>
<pdfrwt beam="2">  1       -1 0.91572900E-03 0.10898402E+03</pdfrwt>
<totfact> 0.83462448E+02</totfact>
</mgrwt>
</event>
<event>
 4    1  0.4938540E-001  0.8099297E+02  0.7546771E-02  0.1326257E+00
         -1   -1    0    0    0  501 -0.00000000000E+00  0.00000000000E+00  0.10563475621E+02  0.10563475621E+02  0.00000000000E+00 0.  1.
          1   -1    0    0  501    0  0.00000000000E+00 -0.00000000000E+00 -0.63794818565E+03  0.63794818565E+03  0.00000000000E+00 0. -1.
         24    1    1    2    0    0 -0.62736774277E+01  0.72997558295E+01 -0.26083252627E+03  0.27311804806E+03  0.80419002446E+02 0.  1.
        -24    1    1    2    0    0  0.62736774277E+01 -0.72997558295E+01 -0.36655218376E+03  0.37539361320E+03  0.80419002446E+02 0.  1.
<mgrwt>
<rscale>  0 0.80992971E+02</rscale>
<asrwt>0</asrwt>
<pdfrwt beam="1">  1        1 0.98145883E-01 0.80992971E+02</pdfrwt>
<pdfrwt beam="2">  1       -1 0.16251500E-02 0.80992971E+02</pdfrwt>
<totfact> 0.26716998E+04</totfact>
</mgrwt>
</event>
<event>
 4    1  0.4938540E-001  0.8418509E+02  0.7546771E-02  0.1317577E+00
          2   -1    0    0  501    0  0.00000000000E+00  0.00000000000E+00  0.16552257447E+03  0.16552257447E+03  0.00000000000E+00 0. -1.
         -2   -1    0    0    0  501 -0.00000000000E+00 -0.00000000000E+00 -0.43051488804E+02  0.43051488804E+02  0.00000000000E+00 0.  1.
         24    1    1    2    0    0  0.22739616407E+02 -0.10140140492E+02  0.68937219491E+02  0.10880932308E+03  0.80419002446E+02 0. -1.
        -24    1    1    2    0    0 -0.22739616407E+02  0.10140140492E+02  0.53533866170E+02  0.99764740189E+02  0.80419002446E+02 0.  1.
<mgrwt>
<rscale>  0 0.84185085E+02</rscale>
<asrwt>0</asrwt>
<pdfrwt beam="1">  1        2 0.25465011E-01 0.84185085E+02</pdfrwt>
<pdfrwt beam="2">  1       -2 0.66233061E-02 0.84185085E+02</pdfrwt>
<totfact> 0.23519374E+04</totfact>
</mgrwt>
</event>
<event>
 4    1  0.4938540E-001  0.1068780E+03  0.7546771E-02  0.1266463E+00
          2   -1    0    0  501    0  0.00000000000E+00  0.00000000000E+00  0.62446651783E+02  0.62446651783E+02  0.00000000000E+00 0. -1.
         -2   -1    0    0    0  501 -0.00000000000E+00 -0.00000000000E+00 -0.19216506875E+03  0.19216506875E+03  0.00000000000E+00 0.  1.
         24    1    1    2    0    0  0.89785082034E+01  0.69821785276E+02 -0.92778371869E+02  0.14152998816E+03  0.80419002446E+02 0.  1.
        -24    1    1    2    0    0 -0.89785082034E+01 -0.69821785276E+02 -0.36940045094E+02  0.11308173236E+03  0.80419002446E+02 0. -1.
<mgrwt>
<rscale>  0 0.10687803E+03</rscale>
<asrwt>0</asrwt>
<pdfrwt beam="1">  1        2 0.96071774E-02 0.10687805E+03</pdfrwt>
<pdfrwt beam="2">  1       -2 0.29563856E-01 0.10687805E+03</pdfrwt>
<totfact> 0.65665934E+03</totfact>
</mgrwt>
</event>
<event>
 4    1  0.4938540E-001  0.8651508E+02  0.7546771E-02  0.1311517E+00
         -2   -1    0    0    0  501 -0.00000000000E+00  0.00000000000E+00  0.23417440285E+02  0.23417440285E+02  0.00000000000E+00 0.  1.
          2   -1    0    0  501    0  0.00000000000E+00 -0.00000000000E+00 -0.32191106098E+03  0.32191106098E+03  0.00000000000E+00 0. -1.
         24    1    1    2    0    0 -0.30305202337E+02  0.99617934314E+01 -0.16378927570E+03  0.18523440665E+03  0.80419002446E+02 0. -1.
        -24    1    1    2    0    0  0.30305202337E+02 -0.99617934314E+01 -0.13470434500E+03  0.16009409462E+03  0.80419002446E+02 0.  1.
<mgrwt>
<rscale>  0 0.86515077E+02</rscale>
<asrwt>0</asrwt>
<pdfrwt beam="1">  1        2 0.49524774E-01 0.86515077E+02</pdfrwt>
<pdfrwt beam="2">  1       -2 0.36026834E-02 0.86515077E+02</pdfrwt>
<totfact> 0.28809002E+04</totfact>
</mgrwt>
</event>
<event>
 4    1  0.4938540E-001  0.1005290E+03  0.7546771E-02  0.1279188E+00
          2   -1    0    0  501    0  0.00000000000E+00  0.00000000000E+00  0.41036845120E+02  0.41036845120E+02  0.00000000000E+00 0. -1.
         -2   -1    0    0    0  501 -0.00000000000E+00 -0.00000000000E+00 -0.34087105984E+03  0.34087105984E+03  0.00000000000E+00 0.  1.
         24    1    1    2    0    0  0.58346517972E+02 -0.15314735739E+02 -0.49319989839E+02  0.11197559842E+03  0.80419002446E+02 0. -1.
        -24    1    1    2    0    0 -0.58346517972E+02  0.15314735739E+02 -0.25051422488E+03  0.26993230653E+03  0.80419002446E+02 0.  1.
<mgrwt>
<rscale>  0 0.10052897E+03</rscale>
<asrwt>0</asrwt>
<pdfrwt beam="1">  1        2 0.63133606E-02 0.10052897E+03</pdfrwt>
<pdfrwt beam="2">  1       -2 0.52441703E-01 0.10052897E+03</pdfrwt>
<totfact> 0.37580564E+03</totfact>
</mgrwt>
</event>
<event>
 4    1  0.4938540E-001  0.9736258E+02  0.7546771E-02  0.1285942E+00
         -2   -1    0    0    0  501 -0.00000000000E+00  0.00000000000E+00  0.15828878641E+02  0.15828878641E+02  0.00000000000E+00 0.  1.
          2   -1    0    0  501    0  0.00000000000E+00 -0.00000000000E+00 -0.19685329393E+04  0.19685329393E+04  0.00000000000E+00 0. -1.
         24    1    1    2    0    0  0.48194800514E+02 -0.26258669970E+02 -0.18039626515E+04  0.18065881436E+04  0.80419002446E+02 0. -1.
        -24    1    1    2    0    0 -0.48194800514E+02  0.26258669970E+02 -0.14874140917E+03  0.17777367438E+03  0.80419002446E+02 0.  1.
<mgrwt>
<rscale>  0 0.97362583E+02</rscale>
<asrwt>0</asrwt>
<pdfrwt beam="1">  1        2 0.30285106E+00 0.97362583E+02</pdfrwt>
<pdfrwt beam="2">  1       -2 0.24352134E-02 0.97362583E+02</pdfrwt>
<totfact> 0.44168811E+03</totfact>
</mgrwt>
</event>
<event>
 4    1  0.4938540E-001  0.8557197E+02  0.7546771E-02  0.1313944E+00
          2   -1    0    0  501    0  0.00000000000E+00  0.00000000000E+00  0.82083326236E+03  0.82083326236E+03  0.00000000000E+00 0. -1.
         -2   -1    0    0    0  501 -0.00000000000E+00 -0.00000000000E+00 -0.13259642177E+02  0.13259642177E+02  0.00000000000E+00 0.  1.
         24    1    1    2    0    0  0.70217757829E+01 -0.28390858734E+02  0.64234867317E+03  0.64802344099E+03  0.80419002446E+02 0. -1.
        -24    1    1    2    0    0 -0.70217757829E+01  0.28390858734E+02  0.16522494702E+03  0.18606946355E+03  0.80419002446E+02 0.  1.
<mgrwt>
<rscale>  0 0.85571971E+02</rscale>
<asrwt>0</asrwt>
<pdfrwt beam="1">  1        2 0.12628200E+00 0.85571971E+02</pdfrwt>
<pdfrwt beam="2">  1       -2 0.20399456E-02 0.85571971E+02</pdfrwt>
<totfact> 0.23399070E+04</totfact>
</mgrwt>
</event>
<event>
 4    1  0.4938540E-001  0.8111265E+02  0.7546771E-02  0.1325923E+00
          1   -1    0    0  501    0  0.00000000000E+00  0.00000000000E+00  0.13219320428E+03  0.13219320428E+03  0.00000000000E+00 0. -1.
         -1   -1    0    0    0  501 -0.00000000000E+00 -0.00000000000E+00 -0.19203627391E+03  0.19203627391E+03  0.00000000000E+00 0.  1.
         24    1    1    2    0    0  0.97424565825E+01  0.41388944049E+01 -0.16945609075E+03  0.18786864708E+03  0.80419002446E+02 0.  1.
        -24    1    1    2    0    0 -0.97424565825E+01 -0.41388944049E+01  0.10961302112E+03  0.13636083111E+03  0.80419002446E+02 0. -1.
<mgrwt>
<rscale>  0 0.81112649E+02</rscale>
<asrwt>0</asrwt>
<pdfrwt beam="1">  1        1 0.20337416E-01 0.81112649E+02</pdfrwt>
<pdfrwt beam="2">  1       -1 0.29544042E-01 0.81112649E+02</pdfrwt>
<totfact> 0.24753308E+03</totfact>
</mgrwt>
</event>
<event>
 4    1  0.4938540E-001  0.9402566E+02  0.7546771E-02  0.1293386E+00
          1   -1    0    0  501    0  0.00000000000E+00  0.00000000000E+00  0.14976950498E+03  0.14976950498E+03  0.00000000000E+00 0. -1.
         -1   -1    0    0    0  501 -0.00000000000E+00 -0.00000000000E+00 -0.93271421903E+02  0.93271421903E+02  0.00000000000E+00 0.  1.
         24    1    1    2    0    0 -0.47437838970E+02 -0.11102283641E+02 -0.45380809329E+02  0.10440422921E+03  0.80419002446E+02 0.  1.
        -24    1    1    2    0    0  0.47437838970E+02  0.11102283641E+02  0.10187889241E+03  0.13863669767E+03  0.80419002446E+02 0. -1.
<mgrwt>
<rscale>  0 0.94025663E+02</rscale>
<asrwt>0</asrwt>
<pdfrwt beam="1">  1        1 0.23041462E-01 0.94025663E+02</pdfrwt>
<pdfrwt beam="2">  1       -1 0.14349449E-01 0.94025663E+02</pdfrwt>
<totfact> 0.67656639E+03</totfact>
</mgrwt>
</event>
<event>
 4    1  0.4938540E-001  0.8964631E+02  0.7546771E-02  0.1303710E+00
         -1   -1    0    0    0  501 -0.00000000000E+00  0.00000000000E+00  0.81018842917E+02  0.81018842917E+02  0.00000000000E+00 0.  1.
          1   -1    0    0  501    0  0.00000000000E+00 -0.00000000000E+00 -0.10011995283E+03  0.10011995283E+03  0.00000000000E+00 0. -1.
         24    1    1    2    0    0  0.46893418625E+01 -0.39335167781E+02 -0.83353865392E+00  0.89650187354E+02  0.80419002446E+02 0.  1.
        -24    1    1    2    0    0 -0.46893418625E+01  0.39335167781E+02 -0.18267571258E+02  0.91488608392E+02  0.80419002446E+02 0.  0.
<mgrwt>
<rscale>  0 0.89646312E+02</rscale>
<asrwt>0</asrwt>
<pdfrwt beam="1">  1        1 0.15403070E-01 0.89646312E+02</pdfrwt>
<pdfrwt beam="2">  1       -1 0.12464437E-01 0.89646312E+02</pdfrwt>
<totfact> 0.13900132E+04</totfact>
</mgrwt>
</event>
<event>
 4    1  0.4938540E-001  0.8487903E+02  0.7546771E-02  0.1315749E+00
          1   -1    0    0  501    0  0.00000000000E+00  0.00000000000E+00  0.32664732561E+03  0.32664732561E+03  0.00000000000E+00 0. -1.
         -1   -1    0    0    0  501 -0.00000000000E+00 -0.00000000000E+00 -0.22077664400E+02  0.22077664400E+02  0.00000000000E+00 0.  1.
         24    1    1    2    0    0  0.19410271022E+02 -0.18986090206E+02  0.15778036276E+03  0.17916218649E+03  0.80419002446E+02 0.  1.
        -24    1    1    2    0    0 -0.19410271022E+02  0.18986090206E+02  0.14678929845E+03  0.16956280352E+03  0.80419002446E+02 0.  0.
<mgrwt>
<rscale>  0 0.84879020E+02</rscale>
<asrwt>0</asrwt>
<pdfrwt beam="1">  1        1 0.50253431E-01 0.84879030E+02</pdfrwt>
<pdfrwt beam="2">  1       -1 0.33965640E-02 0.84879030E+02</pdfrwt>
<totfact> 0.21922002E+04</totfact>
</mgrwt>
</event>
<event>
 4    1  0.4938540E-001  0.9345326E+02  0.7546771E-02  0.1294698E+00
         -1   -1    0    0    0  501 -0.00000000000E+00  0.00000000000E+00  0.18748312356E+02  0.18748312356E+02  0.00000000000E+00 0.  1.
          1   -1    0    0  501    0  0.00000000000E+00 -0.00000000000E+00 -0.47816438466E+03  0.47816438466E+03  0.00000000000E+00 0. -1.
         24    1    1    2    0    0 -0.18856305804E+02  0.43711961538E+02 -0.18980243266E+03  0.21156198914E+03  0.80419002446E+02 0.  1.
        -24    1    1    2    0    0  0.18856305804E+02 -0.43711961538E+02 -0.26961363965E+03  0.28535070788E+03  0.80419002446E+02 0. -1.
<mgrwt>
<rscale>  0 0.93453260E+02</rscale>
<asrwt>0</asrwt>
<pdfrwt beam="1">  1        1 0.73563737E-01 0.93453260E+02</pdfrwt>
<pdfrwt beam="2">  1       -1 0.28843563E-02 0.93453260E+02</pdfrwt>
<totfact> 0.17449949E+04</totfact>
</mgrwt>
</event>
<event>
 4    1  0.4938540E-001  0.1312092E+03  0.7546771E-02  0.1225672E+00
          2   -1    0    0  501    0  0.00000000000E+00  0.00000000000E+00  0.15994566290E+04  0.15994566290E+04  0.00000000000E+00 0. -1.
         -2   -1    0    0    0  501 -0.00000000000E+00 -0.00000000000E+00 -0.25350494750E+02  0.25350494750E+02  0.00000000000E+00 0.  1.
         24    1    1    2    0    0 -0.34090098381E+02 -0.97910728403E+02  0.14033081124E+04  0.14094287921E+04  0.80419002446E+02 0. -1.
        -24    1    1    2    0    0  0.34090098381E+02  0.97910728403E+02  0.17079802179E+03  0.21537833165E+03  0.80419002446E+02 0.  1.
<mgrwt>
<rscale>  0 0.13120923E+03</rscale>
<asrwt>0</asrwt>
<pdfrwt beam="1">  1        2 0.24607017E+00 0.13120923E+03</pdfrwt>
<pdfrwt beam="2">  1       -2 0.39000774E-02 0.13120923E+03</pdfrwt>
<totfact> 0.34264393E+03</totfact>
</mgrwt>
</event>
<event>
 4    1  0.4938540E-001  0.8752757E+02  0.7546771E-02  0.1308952E+00
         -1   -1    0    0    0  501 -0.00000000000E+00  0.00000000000E+00  0.20376201469E+02  0.20376201469E+02  0.00000000000E+00 0.  1.
          1   -1    0    0  501    0  0.00000000000E+00 -0.00000000000E+00 -0.74463869400E+03  0.74463869400E+03  0.00000000000E+00 0. -1.
         24    1    1    2    0    0 -0.16685095323E+02  0.30256685529E+02 -0.92991130232E+02  0.12770444660E+03  0.80419002446E+02 0.  1.
        -24    1    1    2    0    0  0.16685095323E+02 -0.30256685529E+02 -0.63127136230E+03  0.63731044887E+03  0.80419002446E+02 0. -1.
<mgrwt>
<rscale>  0 0.87527569E+02</rscale>
<asrwt>0</asrwt>
<pdfrwt beam="1">  1        1 0.11455979E+00 0.87527569E+02</pdfrwt>
<pdfrwt beam="2">  1       -1 0.31348005E-02 0.87527569E+02</pdfrwt>
<totfact> 0.84875375E+03</totfact>
</mgrwt>
</event>
<event>
 4    1  0.4938540E-001  0.8376692E+02  0.7546771E-02  0.1318689E+00
          2   -1    0    0  501    0  0.00000000000E+00  0.00000000000E+00  0.18375870662E+04  0.18375870662E+04  0.00000000000E+00 0. -1.
         -2   -1    0    0    0  501 -0.00000000000E+00 -0.00000000000E+00 -0.18254989010E+02  0.18254989010E+02  0.00000000000E+00 0.  1.
         24    1    1    2    0    0  0.60387698929E+01 -0.22654219938E+02  0.17348493695E+04  0.17368705280E+04  0.80419002446E+02 0. -1.
        -24    1    1    2    0    0 -0.60387698929E+01  0.22654219938E+02  0.84482707726E+02  0.11897152719E+03  0.80419002446E+02 0.  1.
<mgrwt>
<rscale>  0 0.83766917E+02</rscale>
<asrwt>0</asrwt>
<pdfrwt beam="1">  1        2 0.28270556E+00 0.83766917E+02</pdfrwt>
<pdfrwt beam="2">  1       -2 0.28084613E-02 0.83766917E+02</pdfrwt>
<totfact> 0.41676788E+03</totfact>
</mgrwt>
</event>
<event>
 4    1  0.4938540E-001  0.1148851E+03  0.7546771E-02  0.1251782E+00
         -2   -1    0    0    0  501 -0.00000000000E+00  0.00000000000E+00  0.37189605997E+02  0.37189605997E+02  0.00000000000E+00 0.  1.
          2   -1    0    0  501    0  0.00000000000E+00 -0.00000000000E+00 -0.20677489391E+04  0.20677489391E+04  0.00000000000E+00 0. -1.
         24    1    1    2    0    0 -0.71464931922E+02  0.40300648111E+02 -0.19731793757E+04  0.19765210455E+04  0.80419002446E+02 0. -1.
        -24    1    1    2    0    0  0.71464931922E+02 -0.40300648111E+02 -0.57379957407E+02  0.12841749958E+03  0.80419002446E+02 0.  1.
<mgrwt>
<rscale>  0 0.11488514E+03</rscale>
<asrwt>0</asrwt>
<pdfrwt beam="1">  1        2 0.31811527E+00 0.11488514E+03</pdfrwt>
<pdfrwt beam="2">  1       -2 0.57214769E-02 0.11488514E+03</pdfrwt>
<totfact> 0.11166599E+03</totfact>
</mgrwt>
</event>
<event>
 4    1  0.4938540E-001  0.8148583E+02  0.7546771E-02  0.1324887E+00
         -2   -1    0    0    0  501 -0.00000000000E+00  0.00000000000E+00  0.15095208387E+02  0.15095208387E+02  0.00000000000E+00 0.  1.
          2   -1    0    0  501    0  0.00000000000E+00 -0.00000000000E+00 -0.44753465297E+03  0.44753465297E+03  0.00000000000E+00 0. -1.
         24    1    1    2    0    0  0.16297120792E+01 -0.13041047715E+02 -0.24648989804E+03  0.25960972763E+03  0.80419002446E+02 0. -1.
        -24    1    1    2    0    0 -0.16297120792E+01  0.13041047715E+02 -0.18594954654E+03  0.20302013373E+03  0.80419002446E+02 0.  1.
<mgrwt>
<rscale>  0 0.81485832E+02</rscale>
<asrwt>0</asrwt>
<pdfrwt beam="1">  1        2 0.68851479E-01 0.81485832E+02</pdfrwt>
<pdfrwt beam="2">  1       -2 0.23223399E-02 0.81485832E+02</pdfrwt>
<totfact> 0.38262455E+04</totfact>
</mgrwt>
</event>
<event>
 4    1  0.4938540E-001  0.8157700E+02  0.7546771E-02  0.1324635E+00
         -4   -1    0    0    0  501 -0.00000000000E+00  0.00000000000E+00  0.64188003787E+02  0.64188003787E+02  0.00000000000E+00 0.  1.
          4   -1    0    0  501    0  0.00000000000E+00 -0.00000000000E+00 -0.27982245914E+03  0.27982245914E+03  0.00000000000E+00 0. -1.
         24    1    1    2    0    0 -0.13627392642E+02  0.13730537001E+01 -0.24428695998E+03  0.25754790986E+03  0.80419002446E+02 0. -1.
        -24    1    1    2    0    0  0.13627392642E+02 -0.13730537001E+01  0.28652504623E+02  0.86462553063E+02  0.80419002446E+02 0.  1.
<mgrwt>
<rscale>  0 0.81577001E+02</rscale>
<asrwt>0</asrwt>
<pdfrwt beam="1">  1        4 0.43049608E-01 0.81577001E+02</pdfrwt>
<pdfrwt beam="2">  1       -4 0.98750778E-02 0.81577001E+02</pdfrwt>
<totfact> 0.60200565E+02</totfact>
</mgrwt>
</event>
<event>
 4    1  0.4938540E-001  0.1102203E+03  0.7546771E-02  0.1260162E+00
         -2   -1    0    0    0  501 -0.00000000000E+00  0.00000000000E+00  0.28106003655E+02  0.28106003655E+02  0.00000000000E+00 0.  1.
          2   -1    0    0  501    0  0.00000000000E+00 -0.00000000000E+00 -0.54400022235E+03  0.54400022235E+03  0.00000000000E+00 0. -1.
         24    1    1    2    0    0  0.41882281645E+02 -0.62667177846E+02 -0.38760301850E+03  0.40296974651E+03  0.80419002446E+02 0. -1.
        -24    1    1    2    0    0 -0.41882281645E+02  0.62667177846E+02 -0.12829120019E+03  0.16913647949E+03  0.80419002446E+02 0.  1.
<mgrwt>
<rscale>  0 0.11022031E+03</rscale>
<asrwt>0</asrwt>
<pdfrwt beam="1">  1        2 0.83692344E-01 0.11022031E+03</pdfrwt>
<pdfrwt beam="2">  1       -2 0.43240005E-02 0.11022031E+03</pdfrwt>
<totfact> 0.12897879E+04</totfact>
</mgrwt>
</event>
<event>
 4    1  0.4938540E-001  0.8097607E+02  0.7546771E-02  0.1326304E+00
         -1   -1    0    0    0  501 -0.00000000000E+00  0.00000000000E+00  0.21799834152E+03  0.21799834152E+03  0.00000000000E+00 0.  1.
          1   -1    0    0  501    0  0.00000000000E+00 -0.00000000000E+00 -0.38229939268E+02  0.38229939268E+02  0.00000000000E+00 0. -1.
         24    1    1    2    0    0  0.81101897967E+01 -0.49124395168E+01  0.14904105511E+03  0.16961827526E+03  0.80419002446E+02 0.  1.
        -24    1    1    2    0    0 -0.81101897967E+01  0.49124395168E+01  0.30727347146E+02  0.86610005528E+02  0.80419002446E+02 0.  0.
<mgrwt>
<rscale>  0 0.80976066E+02</rscale>
<asrwt>0</asrwt>
<pdfrwt beam="1">  1        1 0.58815293E-02 0.80976066E+02</pdfrwt>
<pdfrwt beam="2">  1       -1 0.33538205E-01 0.80976066E+02</pdfrwt>
<totfact> 0.10010142E+04</totfact>
</mgrwt>
</event>
<event>
 4    1  0.4938540E-001  0.9767571E+02  0.7546771E-02  0.1285261E+00
         -2   -1    0    0    0  501 -0.00000000000E+00  0.00000000000E+00  0.31653317162E+01  0.31653317162E+01  0.00000000000E+00 0.  1.
          2   -1    0    0  501    0  0.00000000000E+00 -0.00000000000E+00 -0.31024758681E+04  0.31024758681E+04  0.00000000000E+00 0. -1.
         24    1    1    2    0    0 -0.47637392006E+02 -0.28355008437E+02 -0.18117740556E+04  0.18144050739E+04  0.80419002446E+02 0.  1.
        -24    1    1    2    0    0  0.47637392006E+02  0.28355008437E+02 -0.12875364808E+04  0.12912361260E+04  0.80419002446E+02 0. -1.
<mgrwt>
<rscale>  0 0.97675706E+02</rscale>
<asrwt>0</asrwt>
<pdfrwt beam="1">  1        2 0.47730476E+00 0.97675706E+02</pdfrwt>
<pdfrwt beam="2">  1       -2 0.48697331E-03 0.97675706E+02</pdfrwt>
<totfact> 0.10813242E+04</totfact>
</mgrwt>
</event>
<event>
 4    1  0.4938540E-001  0.9516776E+02  0.7546771E-02  0.1290799E+00
         -2   -1    0    0    0  501 -0.00000000000E+00  0.00000000000E+00  0.12577541472E+02  0.12577541472E+02  0.00000000000E+00 0.  1.
          2   -1    0    0  501    0  0.00000000000E+00 -0.00000000000E+00 -0.99151137546E+03  0.99151137546E+03  0.00000000000E+00 0. -1.
         24    1    1    2    0    0 -0.49213133063E+02  0.12952025637E+02 -0.75214211513E+03  0.75813894818E+03  0.80419002446E+02 0. -1.
        -24    1    1    2    0    0  0.49213133063E+02 -0.12952025637E+02 -0.22679171885E+03  0.24594996875E+03  0.80419002446E+02 0.  1.
<mgrwt>
<rscale>  0 0.95167764E+02</rscale>
<asrwt>0</asrwt>
<pdfrwt beam="1">  1        2 0.15254025E+00 0.95167764E+02</pdfrwt>
<pdfrwt beam="2">  1       -2 0.19350059E-02 0.95167764E+02</pdfrwt>
<totfact> 0.19991038E+04</totfact>
</mgrwt>
</event>
<event>
 4    1  0.4938540E-001  0.2562144E+03  0.7546771E-02  0.1109439E+00
          1   -1    0    0  501    0  0.00000000000E+00  0.00000000000E+00  0.46226780392E+03  0.46226780392E+03  0.00000000000E+00 0. -1.
         -1   -1    0    0    0  501 -0.00000000000E+00 -0.00000000000E+00 -0.14216041859E+03  0.14216041859E+03  0.00000000000E+00 0.  1.
         24    1    1    2    0    0 -0.22159147900E+03  0.10037809788E+03  0.16994683215E+03  0.30745355391E+03  0.80419002446E+02 0.  1.
        -24    1    1    2    0    0  0.22159147900E+03 -0.10037809788E+03  0.15016055318E+03  0.29697466859E+03  0.80419002446E+02 0. -1.
<mgrwt>
<rscale>  0 0.25621432E+03</rscale>
<asrwt>0</asrwt>
<pdfrwt beam="1">  1        1 0.71118123E-01 0.25621435E+03</pdfrwt>
<pdfrwt beam="2">  1       -1 0.21870834E-01 0.25621435E+03</pdfrwt>
<totfact> 0.87443859E+02</totfact>
</mgrwt>
</event>
<event>
 4    1  0.4938540E-001  0.9440779E+02  0.7546771E-02  0.1292516E+00
          3   -1    0    0  501    0  0.00000000000E+00  0.00000000000E+00  0.35055749300E+02  0.35055749300E+02  0.00000000000E+00 0. -1.
         -3   -1    0    0    0  501 -0.00000000000E+00 -0.00000000000E+00 -0.31312919120E+03  0.31312919120E+03  0.00000000000E+00 0.  1.
         24    1    1    2    0    0 -0.49217052640E+02  0.48261519484E+01 -0.63543237043E+02  0.11380056653E+03  0.80419002446E+02 0.  0.
        -24    1    1    2    0    0  0.49217052640E+02 -0.48261519484E+01 -0.21453020486E+03  0.23438437397E+03  0.80419002446E+02 0.  1.
<mgrwt>
<rscale>  0 0.94407776E+02</rscale>
<asrwt>0</asrwt>
<pdfrwt beam="1">  1        3 0.53931922E-02 0.94407788E+02</pdfrwt>
<pdfrwt beam="2">  1       -3 0.48173722E-01 0.94407788E+02</pdfrwt>
<totfact> 0.18647427E+03</totfact>
</mgrwt>
</event>
<event>
 4    1  0.4938540E-001  0.8862827E+02  0.7546771E-02  0.1306208E+00
         -2   -1    0    0    0  501 -0.00000000000E+00  0.00000000000E+00  0.91655966359E+03  0.91655966359E+03  0.00000000000E+00 0.  1.
          2   -1    0    0  501    0  0.00000000000E+00 -0.00000000000E+00 -0.15540407034E+03  0.15540407034E+03  0.00000000000E+00 0. -1.
         24    1    1    2    0    0 -0.55705948514E+01 -0.36833727863E+02 -0.14041561706E+03  0.16604672988E+03  0.80419002446E+02 0. -1.
        -24    1    1    2    0    0  0.55705948514E+01  0.36833727863E+02  0.90157121030E+03  0.90591700405E+03  0.80419002446E+02 0.  1.
<mgrwt>
<rscale>  0 0.88628274E+02</rscale>
<asrwt>0</asrwt>
<pdfrwt beam="1">  1        2 0.23908319E-01 0.88628274E+02</pdfrwt>
<pdfrwt beam="2">  1       -2 0.14100918E+00 0.88628274E+02</pdfrwt>
<totfact> 0.86357280E+01</totfact>
</mgrwt>
</event>
<event>
 4    1  0.4938540E-001  0.8115493E+02  0.7546771E-02  0.1325805E+00
         -2   -1    0    0    0  501 -0.00000000000E+00  0.00000000000E+00  0.12608794753E+02  0.12608794753E+02  0.00000000000E+00 0.  1.
          2   -1    0    0  501    0  0.00000000000E+00 -0.00000000000E+00 -0.58478853485E+03  0.58478853485E+03  0.00000000000E+00 0. -1.
         24    1    1    2    0    0  0.89196143897E+01  0.62727667549E+01 -0.38369721747E+03  0.39218576946E+03  0.80419002446E+02 0. -1.
        -24    1    1    2    0    0 -0.89196143897E+01 -0.62727667549E+01 -0.18848252263E+03  0.20521156014E+03  0.80419002446E+02 0.  0.
<mgrwt>
<rscale>  0 0.81154933E+02</rscale>
<asrwt>0</asrwt>
<pdfrwt beam="1">  1        2 0.89967461E-01 0.81154933E+02</pdfrwt>
<pdfrwt beam="2">  1       -2 0.19398147E-02 0.81154933E+02</pdfrwt>
<totfact> 0.37077544E+04</totfact>
</mgrwt>
</event>
<event>
 4    1  0.4938540E-001  0.8495287E+02  0.7546771E-02  0.1315556E+00
         -4   -1    0    0    0  501 -0.00000000000E+00  0.00000000000E+00  0.84523938889E+03  0.84523938889E+03  0.00000000000E+00 0.  1.
          4   -1    0    0  501    0  0.00000000000E+00 -0.00000000000E+00 -0.35395019562E+02  0.35395019562E+02  0.00000000000E+00 0. -1.
         24    1    1    2    0    0 -0.23331930120E+02  0.14331617300E+02  0.21373703391E+02  0.87600373108E+02  0.80419002446E+02 0.  0.
        -24    1    1    2    0    0  0.23331930120E+02 -0.14331617300E+02  0.78847066593E+03  0.79303403534E+03  0.80419002446E+02 0.  1.
<mgrwt>
<rscale>  0 0.84952870E+02</rscale>
<asrwt>0</asrwt>
<pdfrwt beam="1">  1        4 0.54453883E-02 0.84952870E+02</pdfrwt>
<pdfrwt beam="2">  1       -4 0.13003681E+00 0.84952870E+02</pdfrwt>
<totfact> 0.14570708E+02</totfact>
</mgrwt>
</event>
<event>
 4    1  0.4938540E-001  0.9510098E+02  0.7546771E-02  0.1290949E+00
         -1   -1    0    0    0  501 -0.00000000000E+00  0.00000000000E+00  0.16186656729E+03  0.16186656729E+03  0.00000000000E+00 0.  1.
          1   -1    0    0  501    0  0.00000000000E+00 -0.00000000000E+00 -0.73189739015E+02  0.73189739015E+02  0.00000000000E+00 0. -1.
         24    1    1    2    0    0  0.81363194110E+01 -0.50107682461E+02  0.10150370983E+03  0.13909420764E+03  0.80419002446E+02 0.  1.
        -24    1    1    2    0    0 -0.81363194110E+01  0.50107682461E+02 -0.12826881555E+02  0.95962098664E+02  0.80419002446E+02 0. -1.
<mgrwt>
<rscale>  0 0.95100975E+02</rscale>
<asrwt>0</asrwt>
<pdfrwt beam="1">  1        1 0.11259960E-01 0.95100975E+02</pdfrwt>
<pdfrwt beam="2">  1       -1 0.24902549E-01 0.95100975E+02</pdfrwt>
<totfact> 0.70461002E+03</totfact>
</mgrwt>
</event>
<event>
 4    1  0.4938540E-001  0.1823411E+03  0.7546771E-02  0.1165556E+00
          2   -1    0    0  501    0  0.00000000000E+00  0.00000000000E+00  0.10879022171E+04  0.10879022171E+04  0.00000000000E+00 0. -1.
         -2   -1    0    0    0  501 -0.00000000000E+00 -0.00000000000E+00 -0.54371785009E+02  0.54371785009E+02  0.00000000000E+00 0.  1.
         24    1    1    2    0    0  0.10026166028E+03  0.12933927706E+03  0.89471398566E+03  0.91310535055E+03  0.80419002446E+02 0. -1.
        -24    1    1    2    0    0 -0.10026166028E+03 -0.12933927706E+03  0.13881644647E+03  0.22916865160E+03  0.80419002446E+02 0.  1.
<mgrwt>
<rscale>  0 0.18234107E+03</rscale>
<asrwt>0</asrwt>
<pdfrwt beam="1">  1        2 0.16736956E+00 0.18234107E+03</pdfrwt>
<pdfrwt beam="2">  1       -2 0.83648908E-02 0.18234107E+03</pdfrwt>
<totfact> 0.20411251E+03</totfact>
</mgrwt>
</event>
<event>
 4    1  0.4938540E-001  0.1059845E+03  0.7546771E-02  0.1268192E+00
          2   -1    0    0  501    0  0.00000000000E+00  0.00000000000E+00  0.94470730960E+03  0.94470730960E+03  0.00000000000E+00 0. -1.
         -2   -1    0    0    0  501 -0.00000000000E+00 -0.00000000000E+00 -0.35164592211E+02  0.35164592211E+02  0.00000000000E+00 0.  1.
         24    1    1    2    0    0 -0.48678446315E+02 -0.48948087232E+02  0.85336103943E+03  0.85991731344E+03  0.80419002446E+02 0. -1.
        -24    1    1    2    0    0  0.48678446315E+02  0.48948087232E+02  0.56181677961E+02  0.11995458837E+03  0.80419002446E+02 0.  1.
<mgrwt>
<rscale>  0 0.10598454E+03</rscale>
<asrwt>0</asrwt>
<pdfrwt beam="1">  1        2 0.14533957E+00 0.10598454E+03</pdfrwt>
<pdfrwt beam="2">  1       -2 0.54099380E-02 0.10598454E+03</pdfrwt>
<totfact> 0.47666678E+03</totfact>
</mgrwt>
</event>
<event>
 4    1  0.4938540E-001  0.8380050E+02  0.7546771E-02  0.1318599E+00
         -3   -1    0    0    0  501 -0.00000000000E+00  0.00000000000E+00  0.10311077231E+03  0.10311077231E+03  0.00000000000E+00 0.  1.
          3   -1    0    0  501    0  0.00000000000E+00 -0.00000000000E+00 -0.68110851305E+02  0.68110851305E+02  0.00000000000E+00 0. -1.
         24    1    1    2    0    0 -0.94174521042E+00  0.23546135944E+02  0.18176919515E+02  0.85749191013E+02  0.80419002446E+02 0.  1.
        -24    1    1    2    0    0  0.94174521042E+00 -0.23546135944E+02  0.16823001494E+02  0.85472432606E+02  0.80419002446E+02 0. -1.
<mgrwt>
<rscale>  0 0.83800497E+02</rscale>
<asrwt>0</asrwt>
<pdfrwt beam="1">  1        3 0.10478592E-01 0.83800497E+02</pdfrwt>
<pdfrwt beam="2">  1       -3 0.15863196E-01 0.83800497E+02</pdfrwt>
<totfact> 0.47207391E+03</totfact>
</mgrwt>
</event>
<event>
 4    1  0.4938540E-001  0.8595886E+02  0.7546771E-02  0.1312944E+00
         -2   -1    0    0    0  501 -0.00000000000E+00  0.00000000000E+00  0.18841223686E+03  0.18841223686E+03  0.00000000000E+00 0.  1.
          2   -1    0    0  501    0  0.00000000000E+00 -0.00000000000E+00 -0.33290798607E+03  0.33290798607E+03  0.00000000000E+00 0. -1.
         24    1    1    2    0    0 -0.20743007260E+02  0.22168394007E+02 -0.31707409194E+03  0.32851926241E+03  0.80419002446E+02 0. -1.
        -24    1    1    2    0    0  0.20743007260E+02 -0.22168394007E+02  0.17257834272E+03  0.19280096051E+03  0.80419002446E+02 0.  1.
<mgrwt>
<rscale>  0 0.85958862E+02</rscale>
<asrwt>0</asrwt>
<pdfrwt beam="1">  1        2 0.51216612E-01 0.85958862E+02</pdfrwt>
<pdfrwt beam="2">  1       -2 0.28986498E-01 0.85958862E+02</pdfrwt>
<totfact> 0.10408506E+03</totfact>
</mgrwt>
</event>
<event>
 4    1  0.4938540E-001  0.8716648E+02  0.7546771E-02  0.1309862E+00
         -4   -1    0    0    0  501 -0.00000000000E+00  0.00000000000E+00  0.55980570266E+03  0.55980570266E+03  0.00000000000E+00 0.  1.
          4   -1    0    0  501    0  0.00000000000E+00 -0.00000000000E+00 -0.39865665171E+02  0.39865665171E+02  0.00000000000E+00 0. -1.
         24    1    1    2    0    0 -0.15956850715E+02  0.29599983919E+02  0.16466772451E+02  0.88708233452E+02  0.80419002446E+02 0. -1.
        -24    1    1    2    0    0  0.15956850715E+02 -0.29599983919E+02  0.50347326503E+03  0.51096313437E+03  0.80419002446E+02 0.  1.
<mgrwt>
<rscale>  0 0.87166485E+02</rscale>
<asrwt>0</asrwt>
<pdfrwt beam="1">  1        4 0.61331797E-02 0.87166485E+02</pdfrwt>
<pdfrwt beam="2">  1       -4 0.86123949E-01 0.87166485E+02</pdfrwt>
<totfact> 0.31388566E+02</totfact>
</mgrwt>
</event>
<event>
 4    1  0.4938540E-001  0.8145540E+02  0.7546771E-02  0.1324971E+00
          1   -1    0    0  501    0  0.00000000000E+00  0.00000000000E+00  0.53924194209E+02  0.53924194209E+02  0.00000000000E+00 0. -1.
         -1   -1    0    0    0  501 -0.00000000000E+00 -0.00000000000E+00 -0.24548755296E+03  0.24548755296E+03  0.00000000000E+00 0.  1.
         24    1    1    2    0    0  0.11915314678E+02 -0.50785833056E+01 -0.20151070482E+03  0.21735120622E+03  0.80419002446E+02 0.  1.
        -24    1    1    2    0    0 -0.11915314678E+02  0.50785833056E+01  0.99473460749E+01  0.82060540947E+02  0.80419002446E+02 0. -1.
<mgrwt>
<rscale>  0 0.81455403E+02</rscale>
<asrwt>0</asrwt>
<pdfrwt beam="1">  1        1 0.82960299E-02 0.81455403E+02</pdfrwt>
<pdfrwt beam="2">  1       -1 0.37767316E-01 0.81455403E+02</pdfrwt>
<totfact> 0.51850946E+03</totfact>
</mgrwt>
</event>
<event>
 4    1  0.4938540E-001  0.8188476E+02  0.7546771E-02  0.1323786E+00
         -2   -1    0    0    0  501 -0.00000000000E+00  0.00000000000E+00  0.12530781916E+02  0.12530781916E+02  0.00000000000E+00 0.  1.
          2   -1    0    0  501    0  0.00000000000E+00 -0.00000000000E+00 -0.15919987878E+04  0.15919987878E+04  0.00000000000E+00 0. -1.
         24    1    1    2    0    0 -0.85385791365E+01 -0.12844893708E+02 -0.14434134263E+04  0.14457342196E+04  0.80419002446E+02 0. -1.
        -24    1    1    2    0    0  0.85385791365E+01  0.12844893708E+02 -0.13605457955E+03  0.15879535006E+03  0.80419002446E+02 0.  1.
<mgrwt>
<rscale>  0 0.81884764E+02</rscale>
<asrwt>0</asrwt>
<pdfrwt beam="1">  1        2 0.24492271E+00 0.81884764E+02</pdfrwt>
<pdfrwt beam="2">  1       -2 0.19278140E-02 0.81884764E+02</pdfrwt>
<totfact> 0.94964673E+03</totfact>
</mgrwt>
</event>
<event>
 4    1  0.4938540E-001  0.9385074E+02  0.7546771E-02  0.1293786E+00
         -1   -1    0    0    0  501 -0.00000000000E+00  0.00000000000E+00  0.22987521143E+02  0.22987521143E+02  0.00000000000E+00 0.  1.
          1   -1    0    0  501    0  0.00000000000E+00 -0.00000000000E+00 -0.55155867819E+03  0.55155867819E+03  0.00000000000E+00 0. -1.
         24    1    1    2    0    0  0.46820521719E+02 -0.12189549568E+02 -0.10555344130E+03  0.14124266812E+03  0.80419002446E+02 0.  1.
        -24    1    1    2    0    0 -0.46820521719E+02  0.12189549568E+02 -0.42301771575E+03  0.43330353122E+03  0.80419002446E+02 0. -1.
<mgrwt>
<rscale>  0 0.93850745E+02</rscale>
<asrwt>0</asrwt>
<pdfrwt beam="1">  1        1 0.84855185E-01 0.93850745E+02</pdfrwt>
<pdfrwt beam="2">  1       -1 0.35365415E-02 0.93850745E+02</pdfrwt>
<totfact> 0.10811921E+04</totfact>
</mgrwt>
</event>
<event>
 4    1  0.4938540E-001  0.8347987E+02  0.7546771E-02  0.1319456E+00
         -2   -1    0    0    0  501 -0.00000000000E+00  0.00000000000E+00  0.72959791670E+02  0.72959791670E+02  0.00000000000E+00 0.  1.
          2   -1    0    0  501    0  0.00000000000E+00 -0.00000000000E+00 -0.86756419601E+03  0.86756419601E+03  0.00000000000E+00 0. -1.
         24    1    1    2    0    0  0.72242292891E+00  0.22386399285E+02 -0.84092212371E+03  0.84505556437E+03  0.80419002446E+02 0. -1.
        -24    1    1    2    0    0 -0.72242292891E+00 -0.22386399285E+02  0.46317719370E+02  0.95468423313E+02  0.80419002446E+02 0.  1.
<mgrwt>
<rscale>  0 0.83479870E+02</rscale>
<asrwt>0</asrwt>
<pdfrwt beam="1">  1        2 0.13347142E+00 0.83479870E+02</pdfrwt>
<pdfrwt beam="2">  1       -2 0.11224583E-01 0.83479870E+02</pdfrwt>
<totfact> 0.17291884E+03</totfact>
</mgrwt>
</event>
<event>
 4    1  0.4938540E-001  0.9080783E+02  0.7546771E-02  0.1300907E+00
         -3   -1    0    0    0  501 -0.00000000000E+00  0.00000000000E+00  0.44754602061E+02  0.44754602061E+02  0.00000000000E+00 0.  1.
          3   -1    0    0  501    0  0.00000000000E+00 -0.00000000000E+00 -0.34221384492E+03  0.34221384492E+03  0.00000000000E+00 0. -1.
         24    1    1    2    0    0  0.33796820942E+02  0.25231335966E+02 -0.17275313788E+02  0.92436452990E+02  0.80419002446E+02 0.  1.
        -24    1    1    2    0    0 -0.33796820942E+02 -0.25231335966E+02 -0.28018392907E+03  0.29453199399E+03  0.80419002446E+02 0. -1.
<mgrwt>
<rscale>  0 0.90807827E+02</rscale>
<asrwt>0</asrwt>
<pdfrwt beam="1">  1        3 0.52648286E-01 0.90807827E+02</pdfrwt>
<pdfrwt beam="2">  1       -3 0.68853231E-02 0.90807827E+02</pdfrwt>
<totfact> 0.10546578E+03</totfact>
</mgrwt>
</event>
<event>
 4    1  0.4938540E-001  0.8495836E+02  0.7546771E-02  0.1315541E+00
         -2   -1    0    0    0  501 -0.00000000000E+00  0.00000000000E+00  0.83886593662E+01  0.83886593662E+01  0.00000000000E+00 0.  1.
          2   -1    0    0  501    0  0.00000000000E+00 -0.00000000000E+00 -0.18577083107E+04  0.18577083107E+04  0.00000000000E+00 0. -1.
         24    1    1    2    0    0  0.16527295187E+02 -0.21853037655E+02 -0.16082909996E+04  0.16105334092E+04  0.80419002446E+02 0. -1.
        -24    1    1    2    0    0 -0.16527295187E+02  0.21853037655E+02 -0.24102865173E+03  0.25556356088E+03  0.80419002446E+02 0.  1.
<mgrwt>
<rscale>  0 0.84958359E+02</rscale>
<asrwt>0</asrwt>
<pdfrwt beam="1">  1        2 0.28580107E+00 0.84958359E+02</pdfrwt>
<pdfrwt beam="2">  1       -2 0.12905639E-02 0.84958359E+02</pdfrwt>
<totfact> 0.12407504E+04</totfact>
</mgrwt>
</event>
<event>
 4    1  0.4938540E-001  0.9076044E+02  0.7546771E-02  0.1301021E+00
         -1   -1    0    0    0  501 -0.00000000000E+00  0.00000000000E+00  0.88716403155E+02  0.88716403155E+02  0.00000000000E+00 0.  1.
          1   -1    0    0  501    0  0.00000000000E+00 -0.00000000000E+00 -0.25974577292E+03  0.25974577292E+03  0.00000000000E+00 0. -1.
         24    1    1    2    0    0  0.57026634176E+01  0.41685972404E+02  0.54145316013E+02  0.10568430284E+03  0.80419002446E+02 0.  1.
        -24    1    1    2    0    0 -0.57026634176E+01 -0.41685972404E+02 -0.22517468578E+03  0.24277787324E+03  0.80419002446E+02 0. -1.
<mgrwt>
<rscale>  0 0.90760435E+02</rscale>
<asrwt>0</asrwt>
<pdfrwt beam="1">  1        1 0.39960888E-01 0.90760435E+02</pdfrwt>
<pdfrwt beam="2">  1       -1 0.13648678E-01 0.90760435E+02</pdfrwt>
<totfact> 0.37040010E+03</totfact>
</mgrwt>
</event>
<event>
 4    1  0.4938540E-001  0.1177691E+03  0.7546771E-02  0.1246823E+00
         -2   -1    0    0    0  501 -0.00000000000E+00  0.00000000000E+00  0.13727000301E+04  0.13727000301E+04  0.00000000000E+00 0.  1.
          2   -1    0    0  501    0  0.00000000000E+00 -0.00000000000E+00 -0.42911568715E+02  0.42911568715E+02  0.00000000000E+00 0. -1.
         24    1    1    2    0    0 -0.30292597616E+02 -0.80527587201E+02  0.46002095395E+02  0.12643473615E+03  0.80419002446E+02 0. -1.
        -24    1    1    2    0    0  0.30292597616E+02  0.80527587201E+02  0.12837863660E+04  0.12891768627E+04  0.80419002446E+02 0.  1.
<mgrwt>
<rscale>  0 0.11776905E+03</rscale>
<asrwt>0</asrwt>
<pdfrwt beam="1">  1        2 0.66017808E-02 0.11776905E+03</pdfrwt>
<pdfrwt beam="2">  1       -2 0.21118459E+00 0.11776905E+03</pdfrwt>
<totfact> 0.13419104E+02</totfact>
</mgrwt>
</event>
<event>
 4    1  0.4938540E-001  0.8679870E+02  0.7546771E-02  0.1310795E+00
         -2   -1    0    0    0  501 -0.00000000000E+00  0.00000000000E+00  0.25762608338E+02  0.25762608338E+02  0.00000000000E+00 0.  1.
          2   -1    0    0  501    0  0.00000000000E+00 -0.00000000000E+00 -0.71284195862E+03  0.71284195862E+03  0.00000000000E+00 0. -1.
         24    1    1    2    0    0 -0.31170269917E+02  0.97577077218E+01 -0.62714722237E+03  0.63312530597E+03  0.80419002446E+02 0. -1.
        -24    1    1    2    0    0  0.31170269917E+02 -0.97577077218E+01 -0.59932127911E+02  0.10547926098E+03  0.80419002446E+02 0.  1.
<mgrwt>
<rscale>  0 0.86798701E+02</rscale>
<asrwt>0</asrwt>
<pdfrwt beam="1">  1        2 0.10966798E+00 0.86798701E+02</pdfrwt>
<pdfrwt beam="2">  1       -2 0.39634788E-02 0.86798701E+02</pdfrwt>
<totfact> 0.10591863E+04</totfact>
</mgrwt>
</event>
<event>
 4    1  0.4938540E-001  0.8403116E+02  0.7546771E-02  0.1317986E+00
         -1   -1    0    0    0  501 -0.00000000000E+00  0.00000000000E+00  0.15734583529E+02  0.15734583529E+02  0.00000000000E+00 0.  1.
          1   -1    0    0  501    0  0.00000000000E+00 -0.00000000000E+00 -0.64851916451E+03  0.64851916451E+03  0.00000000000E+00 0. -1.
         24    1    1    2    0    0  0.85453351560E+01 -0.22825371479E+02 -0.13206772689E+03  0.15653472706E+03  0.80419002446E+02 0.  1.
        -24    1    1    2    0    0 -0.85453351560E+01  0.22825371479E+02 -0.50071685409E+03  0.50771902098E+03  0.80419002446E+02 0. -1.
<mgrwt>
<rscale>  0 0.84031163E+02</rscale>
<asrwt>0</asrwt>
<pdfrwt beam="1">  1        1 0.99772193E-01 0.84031163E+02</pdfrwt>
<pdfrwt beam="2">  1       -1 0.24207048E-02 0.84031163E+02</pdfrwt>
<totfact> 0.14875377E+04</totfact>
</mgrwt>
</event>
<event>
 4    1  0.4938540E-001  0.1540537E+03  0.7546771E-02  0.1195578E+00
         -2   -1    0    0    0  501 -0.00000000000E+00  0.00000000000E+00  0.94598852095E+01  0.94598852095E+01  0.00000000000E+00 0.  1.
          2   -1    0    0  501    0  0.00000000000E+00 -0.00000000000E+00 -0.30448838977E+04  0.30448838977E+04  0.00000000000E+00 0. -1.
         24    1    1    2    0    0  0.12659887858E+03  0.35186080996E+02 -0.21585324986E+04  0.21640228973E+04  0.80419002446E+02 0. -1.
        -24    1    1    2    0    0 -0.12659887858E+03 -0.35186080996E+02 -0.87689151388E+03  0.89032088565E+03  0.80419002446E+02 0.  1.
<mgrwt>
<rscale>  0 0.15405373E+03</rscale>
<asrwt>0</asrwt>
<pdfrwt beam="1">  1        2 0.46844431E+00 0.15405373E+03</pdfrwt>
<pdfrwt beam="2">  1       -2 0.14553650E-02 0.15405373E+03</pdfrwt>
<totfact> 0.24554709E+03</totfact>
</mgrwt>
</event>
<event>
 4    1  0.4938540E-001  0.9629438E+02  0.7546771E-02  0.1288287E+00
         -4   -1    0    0    0  501 -0.00000000000E+00  0.00000000000E+00  0.34395499489E+03  0.34395499489E+03  0.00000000000E+00 0.  1.
          4   -1    0    0  501    0  0.00000000000E+00 -0.00000000000E+00 -0.45376356137E+02  0.45376356137E+02  0.00000000000E+00 0. -1.
         24    1    1    2    0    0  0.18716958671E+02 -0.49548635688E+02  0.25269588882E+02  0.99554808609E+02  0.80419002446E+02 0. -1.
        -24    1    1    2    0    0 -0.18716958671E+02  0.49548635688E+02  0.27330904987E+03  0.28977654242E+03  0.80419002446E+02 0.  1.
<mgrwt>
<rscale>  0 0.96294381E+02</rscale>
<asrwt>0</asrwt>
<pdfrwt beam="1">  1        4 0.69809781E-02 0.96294381E+02</pdfrwt>
<pdfrwt beam="2">  1       -4 0.52916151E-01 0.96294381E+02</pdfrwt>
<totfact> 0.73331771E+02</totfact>
</mgrwt>
</event>
<event>
 4    1  0.4938540E-001  0.1024873E+03  0.7546771E-02  0.1275151E+00
         -1   -1    0    0    0  501 -0.00000000000E+00  0.00000000000E+00  0.38643137282E+02  0.38643137282E+02  0.00000000000E+00 0.  1.
          1   -1    0    0  501    0  0.00000000000E+00 -0.00000000000E+00 -0.11173639751E+04  0.11173639751E+04  0.00000000000E+00 0. -1.
         24    1    1    2    0    0  0.41540386945E+02 -0.48071105355E+02 -0.36550948856E+02  0.10881003049E+03  0.80419002446E+02 0.  1.
        -24    1    1    2    0    0 -0.41540386945E+02  0.48071105355E+02 -0.10421698890E+04  0.10471970819E+04  0.80419002446E+02 0. -1.
<mgrwt>
<rscale>  0 0.10248732E+03</rscale>
<asrwt>0</asrwt>
<pdfrwt beam="1">  1        1 0.17190211E+00 0.10248732E+03</pdfrwt>
<pdfrwt beam="2">  1       -1 0.59450993E-02 0.10248732E+03</pdfrwt>
<totfact> 0.17629652E+03</totfact>
</mgrwt>
</event>
<event>
 4    1  0.4938540E-001  0.1157100E+03  0.7546771E-02  0.1250347E+00
          1   -1    0    0  501    0  0.00000000000E+00  0.00000000000E+00  0.35803333238E+03  0.35803333238E+03  0.00000000000E+00 0. -1.
         -1   -1    0    0    0  501 -0.00000000000E+00 -0.00000000000E+00 -0.38585662308E+02  0.38585662308E+02  0.00000000000E+00 0.  1.
         24    1    1    2    0    0 -0.56464789242E+02  0.61100828305E+02  0.12489396008E+03  0.17025657363E+03  0.80419002446E+02 0.  1.
        -24    1    1    2    0    0  0.56464789242E+02 -0.61100828305E+02  0.19455370999E+03  0.22636242106E+03  0.80419002446E+02 0.  0.
<mgrwt>
<rscale>  0 0.11570998E+03</rscale>
<asrwt>0</asrwt>
<pdfrwt beam="1">  1        1 0.55082049E-01 0.11570998E+03</pdfrwt>
<pdfrwt beam="2">  1       -1 0.59362560E-02 0.11570998E+03</pdfrwt>
<totfact> 0.89092480E+03</totfact>
</mgrwt>
</event>
<event>
 4    1  0.4938540E-001  0.8111161E+02  0.7546771E-02  0.1325926E+00
         -1   -1    0    0    0  501 -0.00000000000E+00  0.00000000000E+00  0.46975947007E+01  0.46975947007E+01  0.00000000000E+00 0.  1.
          1   -1    0    0  501    0  0.00000000000E+00 -0.00000000000E+00 -0.17898294738E+04  0.17898294738E+04  0.00000000000E+00 0. -1.
         24    1    1    2    0    0  0.14810774581E+01 -0.10472985317E+02 -0.47410051326E+03  0.48098897039E+03  0.80419002446E+02 0.  1.
        -24    1    1    2    0    0 -0.14810774581E+01  0.10472985317E+02 -0.13110313659E+04  0.13135380981E+04  0.80419002446E+02 0.  0.
<mgrwt>
<rscale>  0 0.81111608E+02</rscale>
<asrwt>0</asrwt>
<pdfrwt beam="1">  1        1 0.27535827E+00 0.81111608E+02</pdfrwt>
<pdfrwt beam="2">  1       -1 0.72270717E-03 0.81111608E+02</pdfrwt>
<totfact> 0.13103229E+04</totfact>
</mgrwt>
</event>
<event>
 4    1  0.4938540E-001  0.1346743E+03  0.7546771E-02  0.1220680E+00
         -2   -1    0    0    0  501 -0.00000000000E+00  0.00000000000E+00  0.40434928008E+02  0.40434928008E+02  0.00000000000E+00 0.  1.
          2   -1    0    0  501    0  0.00000000000E+00 -0.00000000000E+00 -0.50997933433E+03  0.50997933433E+03  0.00000000000E+00 0. -1.
         24    1    1    2    0    0 -0.37933825639E+02  0.10114831770E+03 -0.33028548206E+03  0.35668707983E+03  0.80419002446E+02 0. -1.
        -24    1    1    2    0    0  0.37933825639E+02 -0.10114831770E+03 -0.13925892426E+03  0.19372718251E+03  0.80419002446E+02 0.  1.
<mgrwt>
<rscale>  0 0.13467432E+03</rscale>
<asrwt>0</asrwt>
<pdfrwt beam="1">  1        2 0.78458360E-01 0.13467432E+03</pdfrwt>
<pdfrwt beam="2">  1       -2 0.62207581E-02 0.13467432E+03</pdfrwt>
<totfact> 0.81410478E+03</totfact>
</mgrwt>
</event>
<event>
 4    1  0.4938540E-001  0.8300480E+02  0.7546771E-02  0.1320734E+00
          1   -1    0    0  501    0  0.00000000000E+00  0.00000000000E+00  0.91659894515E+03  0.91659894515E+03  0.00000000000E+00 0. -1.
         -1   -1    0    0    0  501 -0.00000000000E+00 -0.00000000000E+00 -0.14352304668E+02  0.14352304668E+02  0.00000000000E+00 0.  1.
         24    1    1    2    0    0  0.20022064997E+02  0.46581550969E+01  0.12988699155E+03  0.15414417934E+03  0.80419002446E+02 0.  1.
        -24    1    1    2    0    0 -0.20022064997E+02 -0.46581550969E+01  0.77235964893E+03  0.77680707048E+03  0.80419002446E+02 0. -1.
<mgrwt>
<rscale>  0 0.83004804E+02</rscale>
<asrwt>0</asrwt>
<pdfrwt beam="1">  1        1 0.14101518E+00 0.83004804E+02</pdfrwt>
<pdfrwt beam="2">  1       -1 0.22080476E-02 0.83004804E+02</pdfrwt>
<totfact> 0.10226240E+04</totfact>
</mgrwt>
</event>
<event>
 4    1  0.4938540E-001  0.8531664E+02  0.7546771E-02  0.1314607E+00
          2   -1    0    0  501    0  0.00000000000E+00  0.00000000000E+00  0.15153572676E+04  0.15153572676E+04  0.00000000000E+00 0. -1.
         -2   -1    0    0    0  501 -0.00000000000E+00 -0.00000000000E+00 -0.66333482825E+01  0.66333482825E+01  0.00000000000E+00 0.  1.
         24    1    1    2    0    0 -0.19710150060E+02  0.20572394263E+02  0.11540582432E+04  0.11572075691E+04  0.80419002446E+02 0.  1.
        -24    1    1    2    0    0  0.19710150060E+02 -0.20572394263E+02  0.35466567612E+03  0.36478304675E+03  0.80419002446E+02 0.  1.
<mgrwt>
<rscale>  0 0.85316642E+02</rscale>
<asrwt>0</asrwt>
<pdfrwt beam="1">  1        2 0.23313161E+00 0.85316642E+02</pdfrwt>
<pdfrwt beam="2">  1       -2 0.10205163E-02 0.85316642E+02</pdfrwt>
<totfact> 0.25714596E+04</totfact>
</mgrwt>
</event>
<event>
 4    1  0.4938540E-001  0.8281008E+02  0.7546771E-02  0.1321261E+00
         -2   -1    0    0    0  501 -0.00000000000E+00  0.00000000000E+00  0.13209112988E+02  0.13209112988E+02  0.00000000000E+00 0.  1.
          2   -1    0    0  501    0  0.00000000000E+00 -0.00000000000E+00 -0.70093753085E+03  0.70093753085E+03  0.00000000000E+00 0. -1.
         24    1    1    2    0    0 -0.83381691815E+01  0.17910029461E+02 -0.52570858221E+03  0.53219077744E+03  0.80419002446E+02 0. -1.
        -24    1    1    2    0    0  0.83381691815E+01 -0.17910029461E+02 -0.16201983565E+03  0.18195586641E+03  0.80419002446E+02 0.  1.
<mgrwt>
<rscale>  0 0.82810085E+02</rscale>
<asrwt>0</asrwt>
<pdfrwt beam="1">  1        2 0.10783656E+00 0.82810085E+02</pdfrwt>
<pdfrwt beam="2">  1       -2 0.20321709E-02 0.82810085E+02</pdfrwt>
<totfact> 0.28316575E+04</totfact>
</mgrwt>
</event>
<event>
 4    1  0.4938540E-001  0.8288240E+02  0.7546771E-02  0.1321065E+00
         -2   -1    0    0    0  501 -0.00000000000E+00  0.00000000000E+00  0.71407633773E+01  0.71407633773E+01  0.00000000000E+00 0.  1.
          2   -1    0    0  501    0  0.00000000000E+00 -0.00000000000E+00 -0.13758731392E+04  0.13758731392E+04  0.00000000000E+00 0. -1.
         24    1    1    2    0    0  0.18585626343E+02 -0.75399910520E+01 -0.10636245827E+04  0.10668489799E+04  0.80419002446E+02 0. -1.
        -24    1    1    2    0    0 -0.18585626343E+02  0.75399910520E+01 -0.30510779311E+03  0.31616492269E+03  0.80419002446E+02 0.  1.
<mgrwt>
<rscale>  0 0.82882404E+02</rscale>
<asrwt>0</asrwt>
<pdfrwt beam="1">  1        2 0.21167289E+00 0.82882404E+02</pdfrwt>
<pdfrwt beam="2">  1       -2 0.10985785E-02 0.82882404E+02</pdfrwt>
<totfact> 0.27253462E+04</totfact>
</mgrwt>
</event>
<event>
 4    1  0.4938540E-001  0.8501941E+02  0.7546771E-02  0.1315382E+00
         -2   -1    0    0    0  501 -0.00000000000E+00  0.00000000000E+00  0.36259861956E+02  0.36259861956E+02  0.00000000000E+00 0.  1.
          2   -1    0    0  501    0  0.00000000000E+00 -0.00000000000E+00 -0.21184322425E+03  0.21184322425E+03  0.00000000000E+00 0. -1.
         24    1    1    2    0    0  0.12894224090E+02 -0.24388936875E+02 -0.57662794448E+02  0.10272923184E+03  0.80419002446E+02 0.  1.
        -24    1    1    2    0    0 -0.12894224090E+02  0.24388936875E+02 -0.11792056784E+03  0.14537385436E+03  0.80419002446E+02 0. -1.
<mgrwt>
<rscale>  0 0.85019404E+02</rscale>
<asrwt>0</asrwt>
<pdfrwt beam="1">  1        2 0.32591266E-01 0.85019414E+02</pdfrwt>
<pdfrwt beam="2">  1       -2 0.55784402E-02 0.85019414E+02</pdfrwt>
<totfact> 0.23381934E+04</totfact>
</mgrwt>
</event>
<event>
 4    1  0.4938540E-001  0.9827890E+02  0.7546771E-02  0.1283957E+00
          2   -1    0    0  501    0  0.00000000000E+00  0.00000000000E+00  0.25363982247E+03  0.25363982247E+03  0.00000000000E+00 0. -1.
         -2   -1    0    0    0  501 -0.00000000000E+00 -0.00000000000E+00 -0.46759754902E+02  0.46759754902E+02  0.00000000000E+00 0.  1.
         24    1    1    2    0    0  0.83957453225E+01 -0.55866247594E+02  0.16815032580E+03  0.19476466358E+03  0.80419002446E+02 0. -1.
        -24    1    1    2    0    0 -0.83957453225E+01  0.55866247594E+02  0.38729741773E+02  0.10563491379E+03  0.80419002446E+02 0.  1.
<mgrwt>
<rscale>  0 0.98278900E+02</rscale>
<asrwt>0</asrwt>
<pdfrwt beam="1">  1        2 0.39021510E-01 0.98278900E+02</pdfrwt>
<pdfrwt beam="2">  1       -2 0.71938086E-02 0.98278900E+02</pdfrwt>
<totfact> 0.13381701E+04</totfact>
</mgrwt>
</event>
<event>
 4    1  0.4938540E-001  0.8949491E+02  0.7546771E-02  0.1304079E+00
         -1   -1    0    0    0  501 -0.00000000000E+00  0.00000000000E+00  0.31776071430E+01  0.31776071430E+01  0.00000000000E+00 0.  1.
          1   -1    0    0  501    0  0.00000000000E+00 -0.00000000000E+00 -0.25382617367E+04  0.25382617367E+04  0.00000000000E+00 0. -1.
         24    1    1    2    0    0 -0.21010743254E+02 -0.33176380210E+02 -0.11614145547E+04  0.11648575481E+04  0.80419002446E+02 0.  1.
        -24    1    1    2    0    0  0.21010743254E+02  0.33176380210E+02 -0.13736695748E+04  0.13765817957E+04  0.80419002446E+02 0.  0.
<mgrwt>
<rscale>  0 0.89494913E+02</rscale>
<asrwt>0</asrwt>
<pdfrwt beam="1">  1        1 0.39050113E+00 0.89494913E+02</pdfrwt>
<pdfrwt beam="2">  1       -1 0.48886349E-03 0.89494913E+02</pdfrwt>
<totfact> 0.76743151E+03</totfact>
</mgrwt>
</event>
<event>
 4    1  0.4938540E-001  0.8529717E+02  0.7546771E-02  0.1314657E+00
          3   -1    0    0  501    0  0.00000000000E+00  0.00000000000E+00  0.66199967833E+02  0.66199967833E+02  0.00000000000E+00 0. -1.
         -3   -1    0    0    0  501 -0.00000000000E+00 -0.00000000000E+00 -0.24603385858E+03  0.24603385858E+03  0.00000000000E+00 0.  1.
         24    1    1    2    0    0 -0.10677128176E+02 -0.26351283656E+02 -0.20604309728E+03  0.22300081863E+03  0.80419002446E+02 0.  1.
        -24    1    1    2    0    0  0.10677128176E+02  0.26351283656E+02  0.26209206537E+02  0.89233007783E+02  0.80419002446E+02 0. -1.
<mgrwt>
<rscale>  0 0.85297170E+02</rscale>
<asrwt>0</asrwt>
<pdfrwt beam="1">  1        3 0.10184611E-01 0.85297170E+02</pdfrwt>
<pdfrwt beam="2">  1       -3 0.37851362E-01 0.85297170E+02</pdfrwt>
<totfact> 0.10498024E+03</totfact>
</mgrwt>
</event>
<event>
 4    1  0.4938540E-001  0.8063033E+02  0.7546771E-02  0.1327272E+00
         -2   -1    0    0    0  501 -0.00000000000E+00  0.00000000000E+00  0.37284035248E+01  0.37284035248E+01  0.00000000000E+00 0.  1.
          2   -1    0    0  501    0  0.00000000000E+00 -0.00000000000E+00 -0.32187029274E+04  0.32187029274E+04  0.00000000000E+00 0. -1.
         24    1    1    2    0    0 -0.38252016264E+00  0.58213608245E+01 -0.26981949010E+04  0.26993993729E+04  0.80419002446E+02 0.  0.
        -24    1    1    2    0    0  0.38252016264E+00 -0.58213608245E+01 -0.51677962286E+03  0.52303195803E+03  0.80419002446E+02 0.  1.
<mgrwt>
<rscale>  0 0.80630332E+02</rscale>
<asrwt>0</asrwt>
<pdfrwt beam="1">  1        2 0.49518460E+00 0.80630332E+02</pdfrwt>
<pdfrwt beam="2">  1       -2 0.57360108E-03 0.80630332E+02</pdfrwt>
<totfact> 0.73237476E+03</totfact>
</mgrwt>
</event>
<event>
 4    1  0.4938540E-001  0.8211997E+02  0.7546771E-02  0.1323141E+00
          1   -1    0    0  501    0  0.00000000000E+00  0.00000000000E+00  0.14631279084E+04  0.14631279084E+04  0.00000000000E+00 0. -1.
         -1   -1    0    0    0  501 -0.00000000000E+00 -0.00000000000E+00 -0.46466976723E+01  0.46466976723E+01  0.00000000000E+00 0.  1.
         24    1    1    2    0    0 -0.10445209491E+02  0.12937042029E+02  0.79526530577E+03  0.79949395993E+03  0.80419002446E+02 0. -1.
        -24    1    1    2    0    0  0.10445209491E+02 -0.12937042029E+02  0.66321590497E+03  0.66828064615E+03  0.80419002446E+02 0.  1.
<mgrwt>
<rscale>  0 0.82119956E+02</rscale>
<asrwt>0</asrwt>
<pdfrwt beam="1">  1        1 0.22509624E+00 0.82119966E+02</pdfrwt>
<pdfrwt beam="2">  1       -1 0.71487773E-03 0.82119966E+02</pdfrwt>
<totfact> 0.21381647E+04</totfact>
</mgrwt>
</event>
<event>
 4    1  0.4938540E-001  0.8394860E+02  0.7546771E-02  0.1318205E+00
         -2   -1    0    0    0  501 -0.00000000000E+00  0.00000000000E+00  0.16482708141E+02  0.16482708141E+02  0.00000000000E+00 0.  1.
          2   -1    0    0  501    0  0.00000000000E+00 -0.00000000000E+00 -0.24216725772E+04  0.24216725772E+04  0.00000000000E+00 0. -1.
         24    1    1    2    0    0 -0.22979345354E+02 -0.72181197497E+01 -0.23088323758E+04  0.23103580474E+04  0.80419002446E+02 0. -1.
        -24    1    1    2    0    0  0.22979345354E+02  0.72181197497E+01 -0.96357493177E+02  0.12779723789E+03  0.80419002446E+02 0.  1.
<mgrwt>
<rscale>  0 0.83948600E+02</rscale>
<asrwt>0</asrwt>
<pdfrwt beam="1">  1        2 0.37256491E+00 0.83948600E+02</pdfrwt>
<pdfrwt beam="2">  1       -2 0.25358019E-02 0.83948600E+02</pdfrwt>
<totfact> 0.24470611E+03</totfact>
</mgrwt>
</event>
<event>
 4    1  0.4938540E-001  0.8098378E+02  0.7546771E-02  0.1326283E+00
         -2   -1    0    0    0  501 -0.00000000000E+00  0.00000000000E+00  0.10184233924E+03  0.10184233924E+03  0.00000000000E+00 0.  1.
          2   -1    0    0  501    0  0.00000000000E+00 -0.00000000000E+00 -0.83490321498E+02  0.83490321498E+02  0.00000000000E+00 0. -1.
         24    1    1    2    0    0 -0.92865899013E+01  0.22173648712E+01 -0.35137999439E+02  0.88278266963E+02  0.80419002446E+02 0.  0.
        -24    1    1    2    0    0  0.92865899013E+01 -0.22173648712E+01  0.53490017183E+02  0.97054393778E+02  0.80419002446E+02 0.  0.
<mgrwt>
<rscale>  0 0.80983785E+02</rscale>
<asrwt>0</asrwt>
<pdfrwt beam="1">  1        2 0.12844665E-01 0.80983785E+02</pdfrwt>
<pdfrwt beam="2">  1       -2 0.15668052E-01 0.80983785E+02</pdfrwt>
<totfact> 0.13259461E+04</totfact>
</mgrwt>
</event>
<event>
 4    1  0.4938540E-001  0.8088252E+02  0.7546771E-02  0.1326565E+00
          1   -1    0    0  501    0  0.00000000000E+00  0.00000000000E+00  0.22386864608E+03  0.22386864608E+03  0.00000000000E+00 0. -1.
         -1   -1    0    0    0  501 -0.00000000000E+00 -0.00000000000E+00 -0.39021667991E+02  0.39021667991E+02  0.00000000000E+00 0.  1.
         24    1    1    2    0    0 -0.50995611831E+01  0.69828270509E+01  0.26553396791E+02  0.85129690669E+02  0.80419002446E+02 0.  1.
        -24    1    1    2    0    0  0.50995611831E+01 -0.69828270509E+01  0.15829358130E+03  0.17776062340E+03  0.80419002446E+02 0. -1.
<mgrwt>
<rscale>  0 0.80882516E+02</rscale>
<asrwt>0</asrwt>
<pdfrwt beam="1">  1        1 0.34441329E-01 0.80882516E+02</pdfrwt>
<pdfrwt beam="2">  1       -1 0.60033337E-02 0.80882516E+02</pdfrwt>
<totfact> 0.15083318E+04</totfact>
</mgrwt>
</event>
<event>
 4    1  0.4938540E-001  0.1182160E+03  0.7546771E-02  0.1246069E+00
         -2   -1    0    0    0  501 -0.00000000000E+00  0.00000000000E+00  0.92630614821E+01  0.92630614821E+01  0.00000000000E+00 0.  1.
          2   -1    0    0  501    0  0.00000000000E+00 -0.00000000000E+00 -0.21751374163E+04  0.21751374163E+04  0.00000000000E+00 0. -1.
         24    1    1    2    0    0  0.78028709020E+02  0.37673871996E+02 -0.16875041275E+04  0.16916397951E+04  0.80419002446E+02 0. -1.
        -24    1    1    2    0    0 -0.78028709020E+02 -0.37673871996E+02 -0.47837022724E+03  0.49276068261E+03  0.80419002446E+02 0.  1.
<mgrwt>
<rscale>  0 0.11821597E+03</rscale>
<asrwt>0</asrwt>
<pdfrwt beam="1">  1        2 0.33463672E+00 0.11821597E+03</pdfrwt>
<pdfrwt beam="2">  1       -2 0.14250855E-02 0.11821597E+03</pdfrwt>
<totfact> 0.75332692E+03</totfact>
</mgrwt>
</event>
<event>
 4    1  0.4938540E-001  0.8220666E+02  0.7546771E-02  0.1322903E+00
          2   -1    0    0  501    0  0.00000000000E+00  0.00000000000E+00  0.16034426005E+03  0.16034426005E+03  0.00000000000E+00 0. -1.
         -2   -1    0    0    0  501 -0.00000000000E+00 -0.00000000000E+00 -0.81412487556E+02  0.81412487556E+02  0.00000000000E+00 0.  1.
         24    1    1    2    0    0  0.12818779781E+02 -0.11242676534E+02  0.12341417721E+03  0.14828686382E+03  0.80419002446E+02 0.  0.
        -24    1    1    2    0    0 -0.12818779781E+02  0.11242676534E+02 -0.44482404718E+02  0.93469883784E+02  0.80419002446E+02 0.  1.
<mgrwt>
<rscale>  0 0.82206659E+02</rscale>
<asrwt>0</asrwt>
<pdfrwt beam="1">  1        2 0.24668348E-01 0.82206659E+02</pdfrwt>
<pdfrwt beam="2">  1       -2 0.12524998E-01 0.82206659E+02</pdfrwt>
<totfact> 0.90964088E+03</totfact>
</mgrwt>
</event>
<event>
 4    1  0.4938540E-001  0.8835215E+02  0.7546771E-02  0.1306892E+00
         -1   -1    0    0    0  501 -0.00000000000E+00  0.00000000000E+00  0.21593387070E+02  0.21593387070E+02  0.00000000000E+00 0.  1.
          1   -1    0    0  501    0  0.00000000000E+00 -0.00000000000E+00 -0.98927984770E+03  0.98927984770E+03  0.00000000000E+00 0. -1.
         24    1    1    2    0    0  0.23559986819E+02  0.27996664466E+02 -0.81210273240E+02  0.12000504420E+03  0.80419002446E+02 0.  1.
        -24    1    1    2    0    0 -0.23559986819E+02 -0.27996664466E+02 -0.88647618739E+03  0.89086819057E+03  0.80419002446E+02 0. -1.
<mgrwt>
<rscale>  0 0.88352149E+02</rscale>
<asrwt>0</asrwt>
<pdfrwt beam="1">  1        1 0.15219690E+00 0.88352149E+02</pdfrwt>
<pdfrwt beam="2">  1       -1 0.33220595E-02 0.88352149E+02</pdfrwt>
<totfact> 0.50537615E+03</totfact>
</mgrwt>
</event>
<event>
 4    1  0.4938540E-001  0.8486683E+02  0.7546771E-02  0.1315781E+00
          1   -1    0    0  501    0  0.00000000000E+00  0.00000000000E+00  0.37504172879E+02  0.37504172879E+02  0.00000000000E+00 0. -1.
         -1   -1    0    0    0  501 -0.00000000000E+00 -0.00000000000E+00 -0.21931319304E+03  0.21931319304E+03  0.00000000000E+00 0.  1.
         24    1    1    2    0    0 -0.16235893582E+01 -0.27065224536E+02 -0.13618526461E+03  0.16046434082E+03  0.80419002446E+02 0.  1.
        -24    1    1    2    0    0  0.16235893582E+01  0.27065224536E+02 -0.45623755548E+02  0.96353025102E+02  0.80419002446E+02 0. -1.
<mgrwt>
<rscale>  0 0.84866827E+02</rscale>
<asrwt>0</asrwt>
<pdfrwt beam="1">  1        1 0.57698728E-02 0.84866827E+02</pdfrwt>
<pdfrwt beam="2">  1       -1 0.33740491E-01 0.84866827E+02</pdfrwt>
<totfact> 0.10215968E+04</totfact>
</mgrwt>
</event>
<event>
 4    1  0.4938540E-001  0.8679723E+02  0.7546771E-02  0.1310798E+00
          2   -1    0    0  501    0  0.00000000000E+00  0.00000000000E+00  0.29445587594E+03  0.29445587594E+03  0.00000000000E+00 0. -1.
         -2   -1    0    0    0  501 -0.00000000000E+00 -0.00000000000E+00 -0.55171405538E+02  0.55171405538E+02  0.00000000000E+00 0.  1.
         24    1    1    2    0    0 -0.32474437475E+02  0.34573848128E+01  0.24765750627E+03  0.26242713078E+03  0.80419002446E+02 0. -1.
        -24    1    1    2    0    0  0.32474437475E+02 -0.34573848128E+01 -0.83730358679E+01  0.87200150706E+02  0.80419002446E+02 0.  1.
<mgrwt>
<rscale>  0 0.86797227E+02</rscale>
<asrwt>0</asrwt>
<pdfrwt beam="1">  1        2 0.45300903E-01 0.86797227E+02</pdfrwt>
<pdfrwt beam="2">  1       -2 0.84879087E-02 0.86797227E+02</pdfrwt>
<totfact> 0.87945683E+03</totfact>
</mgrwt>
</event>
<event>
 4    1  0.4938540E-001  0.8225858E+02  0.7546771E-02  0.1322761E+00
         -2   -1    0    0    0  501 -0.00000000000E+00  0.00000000000E+00  0.12380496116E+03  0.12380496116E+03  0.00000000000E+00 0.  1.
          2   -1    0    0  501    0  0.00000000000E+00 -0.00000000000E+00 -0.64932643055E+02  0.64932643055E+02  0.00000000000E+00 0. -1.
         24    1    1    2    0    0 -0.14671565912E+02 -0.91653167963E+01 -0.81093846234E+01  0.82657340579E+02  0.80419002446E+02 0. -1.
        -24    1    1    2    0    0  0.14671565912E+02  0.91653167963E+01  0.66981702730E+02  0.10608026364E+03  0.80419002446E+02 0.  0.
<mgrwt>
<rscale>  0 0.82258579E+02</rscale>
<asrwt>0</asrwt>
<pdfrwt beam="1">  1        2 0.99896374E-02 0.82258579E+02</pdfrwt>
<pdfrwt beam="2">  1       -2 0.19046917E-01 0.82258579E+02</pdfrwt>
<totfact> 0.13007349E+04</totfact>
</mgrwt>
</event>
<event>
 4    1  0.4938540E-001  0.8430957E+02  0.7546771E-02  0.1317248E+00
         -1   -1    0    0    0  501 -0.00000000000E+00  0.00000000000E+00  0.47257309176E+02  0.47257309176E+02  0.00000000000E+00 0.  1.
          1   -1    0    0  501    0  0.00000000000E+00 -0.00000000000E+00 -0.67374759129E+03  0.67374759129E+03  0.00000000000E+00 0. -1.
         24    1    1    2    0    0 -0.22941003304E+02 -0.10705079423E+02  0.44784121900E+01  0.84428434121E+02  0.80419002446E+02 0.  0.
        -24    1    1    2    0    0  0.22941003304E+02  0.10705079423E+02 -0.63096869431E+03  0.63657646635E+03  0.80419002446E+02 0. -1.
<mgrwt>
<rscale>  0 0.84309574E+02</rscale>
<asrwt>0</asrwt>
<pdfrwt beam="1">  1        1 0.10365347E+00 0.84309574E+02</pdfrwt>
<pdfrwt beam="2">  1       -1 0.72703556E-02 0.84309574E+02</pdfrwt>
<totfact> 0.28566265E+03</totfact>
</mgrwt>
</event>
<event>
 4    1  0.4938540E-001  0.1078182E+03  0.7546771E-02  0.1264664E+00
         -1   -1    0    0    0  501 -0.00000000000E+00  0.00000000000E+00  0.88153714506E+02  0.88153714506E+02  0.00000000000E+00 0.  1.
          1   -1    0    0  501    0  0.00000000000E+00 -0.00000000000E+00 -0.55783771642E+03  0.55783771642E+03  0.00000000000E+00 0. -1.
         24    1    1    2    0    0  0.27863372542E+02 -0.66190436047E+02  0.47406464497E+02  0.11778000757E+03  0.80419002446E+02 0.  1.
        -24    1    1    2    0    0 -0.27863372542E+02  0.66190436047E+02 -0.51709046642E+03  0.52821142336E+03  0.80419002446E+02 0. -1.
<mgrwt>
<rscale>  0 0.10781817E+03</rscale>
<asrwt>0</asrwt>
<pdfrwt beam="1">  1        1 0.85821188E-01 0.10781817E+03</pdfrwt>
<pdfrwt beam="2">  1       -1 0.13562110E-01 0.10781817E+03</pdfrwt>
<totfact> 0.14477930E+03</totfact>
</mgrwt>
</event>
<event>
 4    1  0.4938540E-001  0.8503183E+02  0.7546771E-02  0.1315349E+00
          2   -1    0    0  501    0  0.00000000000E+00  0.00000000000E+00  0.18039481988E+04  0.18039481988E+04  0.00000000000E+00 0. -1.
         -2   -1    0    0    0  501 -0.00000000000E+00 -0.00000000000E+00 -0.20282332023E+02  0.20282332023E+02  0.00000000000E+00 0.  1.
         24    1    1    2    0    0  0.27299641141E+02  0.42338642944E+01  0.17088685311E+04  0.17109827786E+04  0.80419002446E+02 0. -1.
        -24    1    1    2    0    0 -0.27299641141E+02 -0.42338642944E+01  0.74797335687E+02  0.11324775227E+03  0.80419002446E+02 0.  1.
<mgrwt>
<rscale>  0 0.85031829E+02</rscale>
<asrwt>0</asrwt>
<pdfrwt beam="1">  1        2 0.27753037E+00 0.85031829E+02</pdfrwt>
<pdfrwt beam="2">  1       -2 0.31203602E-02 0.85031829E+02</pdfrwt>
<totfact> 0.37195342E+03</totfact>
</mgrwt>
</event>
<event>
 4    1  0.4938540E-001  0.9358654E+02  0.7546771E-02  0.1294392E+00
          2   -1    0    0  501    0  0.00000000000E+00  0.00000000000E+00  0.15481916070E+03  0.15481916070E+03  0.00000000000E+00 0. -1.
         -2   -1    0    0    0  501 -0.00000000000E+00 -0.00000000000E+00 -0.16668397644E+03  0.16668397644E+03  0.00000000000E+00 0.  1.
         24    1    1    2    0    0 -0.18264029388E+02 -0.44245326343E+02  0.12472241451E+03  0.15592985701E+03  0.80419002446E+02 0. -1.
        -24    1    1    2    0    0  0.18264029388E+02  0.44245326343E+02 -0.13658723024E+03  0.16557328013E+03  0.80419002446E+02 0.  1.
<mgrwt>
<rscale>  0 0.93586536E+02</rscale>
<asrwt>0</asrwt>
<pdfrwt beam="1">  1        2 0.23818333E-01 0.93586536E+02</pdfrwt>
<pdfrwt beam="2">  1       -2 0.25643689E-01 0.93586536E+02</pdfrwt>
<totfact> 0.29176211E+03</totfact>
</mgrwt>
</event>
<event>
 4    1  0.4938540E-001  0.1189529E+03  0.7546771E-02  0.1244834E+00
          2   -1    0    0  501    0  0.00000000000E+00  0.00000000000E+00  0.66823742261E+03  0.66823742261E+03  0.00000000000E+00 0. -1.
         -2   -1    0    0    0  501 -0.00000000000E+00 -0.00000000000E+00 -0.62060303959E+02  0.62060303959E+02  0.00000000000E+00 0.  1.
         24    1    1    2    0    0 -0.56051915363E+02  0.67385197261E+02  0.59946770926E+03  0.61115573500E+03  0.80419002446E+02 0. -1.
        -24    1    1    2    0    0  0.56051915363E+02 -0.67385197261E+02  0.67094093895E+01  0.11914199157E+03  0.80419002446E+02 0.  1.
<mgrwt>
<rscale>  0 0.11895292E+03</rscale>
<asrwt>0</asrwt>
<pdfrwt beam="1">  1        2 0.10280575E+00 0.11895292E+03</pdfrwt>
<pdfrwt beam="2">  1       -2 0.95477395E-02 0.11895292E+03</pdfrwt>
<totfact> 0.30844131E+03</totfact>
</mgrwt>
</event>
<event>
 4    1  0.4938540E-001  0.8535732E+02  0.7546771E-02  0.1314501E+00
         -2   -1    0    0    0  501 -0.00000000000E+00  0.00000000000E+00  0.50165108992E+02  0.50165108992E+02  0.00000000000E+00 0.  1.
          2   -1    0    0  501    0  0.00000000000E+00 -0.00000000000E+00 -0.10897796400E+04  0.10897796400E+04  0.00000000000E+00 0. -1.
         24    1    1    2    0    0  0.15654390394E+02  0.23949853382E+02 -0.10504412440E+04  0.10539035432E+04  0.80419002446E+02 0. -1.
        -24    1    1    2    0    0 -0.15654390394E+02 -0.23949853382E+02  0.10826713001E+02  0.86041205736E+02  0.80419002446E+02 0.  1.
<mgrwt>
<rscale>  0 0.85357316E+02</rscale>
<asrwt>0</asrwt>
<pdfrwt beam="1">  1        2 0.16765841E+00 0.85357316E+02</pdfrwt>
<pdfrwt beam="2">  1       -2 0.77177090E-02 0.85357316E+02</pdfrwt>
<totfact> 0.22781411E+03</totfact>
</mgrwt>
</event>
<event>
 4    1  0.4938540E-001  0.1132429E+03  0.7546771E-02  0.1254680E+00
         -1   -1    0    0    0  501 -0.00000000000E+00  0.00000000000E+00  0.26609739904E+03  0.26609739904E+03  0.00000000000E+00 0.  1.
          1   -1    0    0  501    0  0.00000000000E+00 -0.00000000000E+00 -0.16609336306E+03  0.16609336306E+03  0.00000000000E+00 0. -1.
         24    1    1    2    0    0  0.79445997902E+02 -0.67137292056E+01  0.23206742521E+03  0.25822324942E+03  0.80419002446E+02 0.  1.
        -24    1    1    2    0    0 -0.79445997902E+02  0.67137292056E+01 -0.13206338923E+03  0.17396751269E+03  0.80419002446E+02 0. -1.
<mgrwt>
<rscale>  0 0.11324291E+03</rscale>
<asrwt>0</asrwt>
<pdfrwt beam="1">  1        1 0.25552825E-01 0.11324291E+03</pdfrwt>
<pdfrwt beam="2">  1       -1 0.40938061E-01 0.11324291E+03</pdfrwt>
<totfact> 0.10839179E+03</totfact>
</mgrwt>
</event>
<event>
 4    1  0.4938540E-001  0.1091253E+03  0.7546771E-02  0.1262198E+00
          1   -1    0    0  501    0  0.00000000000E+00  0.00000000000E+00  0.22827851995E+03  0.22827851995E+03  0.00000000000E+00 0. -1.
         -1   -1    0    0    0  501 -0.00000000000E+00 -0.00000000000E+00 -0.67535742170E+02  0.67535742170E+02  0.00000000000E+00 0.  1.
         24    1    1    2    0    0 -0.40190585078E+02 -0.61853241382E+02  0.15093145068E+03  0.18624882646E+03  0.80419002446E+02 0.  1.
        -24    1    1    2    0    0  0.40190585078E+02  0.61853241382E+02  0.98113271020E+01  0.10956543566E+03  0.80419002446E+02 0.  0.
<mgrwt>
<rscale>  0 0.10912527E+03</rscale>
<asrwt>0</asrwt>
<pdfrwt beam="1">  1        1 0.35119772E-01 0.10912529E+03</pdfrwt>
<pdfrwt beam="2">  1       -1 0.10390114E-01 0.10912529E+03</pdfrwt>
<totfact> 0.66666328E+03</totfact>
</mgrwt>
</event>
<event>
 4    1  0.4938540E-001  0.1138261E+03  0.7546771E-02  0.1253644E+00
         -2   -1    0    0    0  501 -0.00000000000E+00  0.00000000000E+00  0.31217398306E+02  0.31217398306E+02  0.00000000000E+00 0.  1.
          2   -1    0    0  501    0  0.00000000000E+00 -0.00000000000E+00 -0.66035803611E+03  0.66035803611E+03  0.00000000000E+00 0. -1.
         24    1    1    2    0    0 -0.63726380808E+02 -0.49275973014E+02 -0.52532966110E+03  0.53751989909E+03  0.80419002446E+02 0. -1.
        -24    1    1    2    0    0  0.63726380808E+02  0.49275973014E+02 -0.10381097671E+03  0.15405553533E+03  0.80419002446E+02 0.  1.
<mgrwt>
<rscale>  0 0.11382614E+03</rscale>
<asrwt>0</asrwt>
<pdfrwt beam="1">  1        2 0.10159355E+00 0.11382614E+03</pdfrwt>
<pdfrwt beam="2">  1       -2 0.48026766E-02 0.11382614E+03</pdfrwt>
<totfact> 0.88840175E+03</totfact>
</mgrwt>
</event>
<event>
 4    1  0.4938540E-001  0.8238359E+02  0.7546771E-02  0.1322420E+00
         -2   -1    0    0    0  501 -0.00000000000E+00  0.00000000000E+00  0.65067113199E+02  0.65067113199E+02  0.00000000000E+00 0.  1.
          2   -1    0    0  501    0  0.00000000000E+00 -0.00000000000E+00 -0.12136086260E+03  0.12136086260E+03  0.00000000000E+00 0. -1.
         24    1    1    2    0    0  0.17793949144E+02 -0.17932662898E+01 -0.63087717292E+02  0.10376471682E+03  0.80419002446E+02 0.  0.
        -24    1    1    2    0    0 -0.17793949144E+02  0.17932662898E+01  0.67939678919E+01  0.82663258974E+02  0.80419002446E+02 0.  0.
<mgrwt>
<rscale>  0 0.82383593E+02</rscale>
<asrwt>0</asrwt>
<pdfrwt beam="1">  1        2 0.18670902E-01 0.82383593E+02</pdfrwt>
<pdfrwt beam="2">  1       -2 0.10010325E-01 0.82383593E+02</pdfrwt>
<totfact> 0.17579979E+04</totfact>
</mgrwt>
</event>
<event>
 4    1  0.4938540E-001  0.9584616E+02  0.7546771E-02  0.1289282E+00
         -2   -1    0    0    0  501 -0.00000000000E+00  0.00000000000E+00  0.14129184905E+02  0.14129184905E+02  0.00000000000E+00 0.  1.
          2   -1    0    0  501    0  0.00000000000E+00 -0.00000000000E+00 -0.96612974404E+03  0.96612974404E+03  0.00000000000E+00 0. -1.
         24    1    1    2    0    0 -0.51832861799E+02  0.57118682053E+01 -0.75628755185E+03  0.76233676812E+03  0.80419002446E+02 0. -1.
        -24    1    1    2    0    0  0.51832861799E+02 -0.57118682053E+01 -0.19571300729E+03  0.21792216082E+03  0.80419002446E+02 0.  1.
<mgrwt>
<rscale>  0 0.95846163E+02</rscale>
<asrwt>0</asrwt>
<pdfrwt beam="1">  1        2 0.14863536E+00 0.95846163E+02</pdfrwt>
<pdfrwt beam="2">  1       -2 0.21737206E-02 0.95846163E+02</pdfrwt>
<totfact> 0.17516419E+04</totfact>
</mgrwt>
</event>
<event>
 4    1  0.4938540E-001  0.8074313E+02  0.7546771E-02  0.1326956E+00
         -4   -1    0    0    0  501 -0.00000000000E+00  0.00000000000E+00  0.13877526245E+04  0.13877526245E+04  0.00000000000E+00 0.  1.
          4   -1    0    0  501    0  0.00000000000E+00 -0.00000000000E+00 -0.47035522054E+01  0.47035522054E+01  0.00000000000E+00 0. -1.
         24    1    1    2    0    0  0.23603675427E+01 -0.68312080225E+01  0.66728151584E+03  0.67214884815E+03  0.80419002446E+02 0. -1.
        -24    1    1    2    0    0 -0.23603675427E+01  0.68312080225E+01  0.71576755644E+03  0.72030732854E+03  0.80419002446E+02 0.  1.
<mgrwt>
<rscale>  0 0.80743128E+02</rscale>
<asrwt>0</asrwt>
<pdfrwt beam="1">  1        4 0.72362452E-03 0.80743128E+02</pdfrwt>
<pdfrwt beam="2">  1       -4 0.21350008E+00 0.80743128E+02</pdfrwt>
<totfact> 0.86116323E+02</totfact>
</mgrwt>
</event>
<event>
 4    1  0.4938540E-001  0.9710468E+02  0.7546771E-02  0.1286505E+00
          2   -1    0    0  501    0  0.00000000000E+00  0.00000000000E+00  0.17801858723E+04  0.17801858723E+04  0.00000000000E+00 0. -1.
         -2   -1    0    0    0  501 -0.00000000000E+00 -0.00000000000E+00 -0.58651740540E+01  0.58651740540E+01  0.00000000000E+00 0.  1.
         24    1    1    2    0    0 -0.54411846426E+02 -0.12058696762E+01  0.11651534248E+04  0.11691928081E+04  0.80419002446E+02 0. -1.
        -24    1    1    2    0    0  0.54411846426E+02  0.12058696762E+01  0.60916727345E+03  0.61685823829E+03  0.80419002446E+02 0.  1.
<mgrwt>
<rscale>  0 0.97104681E+02</rscale>
<asrwt>0</asrwt>
<pdfrwt beam="1">  1        2 0.27387432E+00 0.97104681E+02</pdfrwt>
<pdfrwt beam="2">  1       -2 0.90233589E-03 0.97104681E+02</pdfrwt>
<totfact> 0.22711118E+04</totfact>
</mgrwt>
</event>
<event>
 4    1  0.4938540E-001  0.9254836E+02  0.7546771E-02  0.1296795E+00
         -2   -1    0    0    0  501 -0.00000000000E+00  0.00000000000E+00  0.39045434928E+02  0.39045434928E+02  0.00000000000E+00 0.  1.
          2   -1    0    0  501    0  0.00000000000E+00 -0.00000000000E+00 -0.37790899901E+03  0.37790899901E+03  0.00000000000E+00 0. -1.
         24    1    1    2    0    0 -0.21104274099E+02 -0.40652102941E+02 -0.30446479530E+03  0.31822006755E+03  0.80419002446E+02 0. -1.
        -24    1    1    2    0    0  0.21104274099E+02  0.40652102941E+02 -0.34398768786E+02  0.98734366394E+02  0.80419002446E+02 0.  1.
<mgrwt>
<rscale>  0 0.92548365E+02</rscale>
<asrwt>0</asrwt>
<pdfrwt beam="1">  1        2 0.58139848E-01 0.92548365E+02</pdfrwt>
<pdfrwt beam="2">  1       -2 0.60069897E-02 0.92548365E+02</pdfrwt>
<totfact> 0.11506822E+04</totfact>
</mgrwt>
</event>
<event>
 4    1  0.4938540E-001  0.9849590E+02  0.7546771E-02  0.1283491E+00
          1   -1    0    0  501    0  0.00000000000E+00  0.00000000000E+00  0.35998500898E+02  0.35998500898E+02  0.00000000000E+00 0. -1.
         -1   -1    0    0    0  501 -0.00000000000E+00 -0.00000000000E+00 -0.83511826965E+03  0.83511826965E+03  0.00000000000E+00 0.  1.
         24    1    1    2    0    0  0.45999668572E+02  0.33440362288E+02 -0.75801578157E+03  0.76438823147E+03  0.80419002446E+02 0.  1.
        -24    1    1    2    0    0 -0.45999668572E+02 -0.33440362288E+02 -0.41103987185E+02  0.10672853909E+03  0.80419002446E+02 0. -1.
<mgrwt>
<rscale>  0 0.98495905E+02</rscale>
<asrwt>0</asrwt>
<pdfrwt beam="1">  1        1 0.55382310E-02 0.98495905E+02</pdfrwt>
<pdfrwt beam="2">  1       -1 0.12847973E+00 0.98495905E+02</pdfrwt>
<totfact> 0.79185325E+02</totfact>
</mgrwt>
</event>
<event>
 4    1  0.4938540E-001  0.1206595E+03  0.7546771E-02  0.1242013E+00
          1   -1    0    0  501    0  0.00000000000E+00  0.00000000000E+00  0.46727751017E+03  0.46727751017E+03  0.00000000000E+00 0. -1.
         -1   -1    0    0    0  501 -0.00000000000E+00 -0.00000000000E+00 -0.13195318609E+03  0.13195318609E+03  0.00000000000E+00 0.  1.
         24    1    1    2    0    0 -0.83352548824E+02  0.33820841796E+02 -0.94202762713E+02  0.15307799709E+03  0.80419002446E+02 0.  1.
        -24    1    1    2    0    0  0.83352548824E+02 -0.33820841796E+02  0.42952708680E+03  0.44615269918E+03  0.80419002446E+02 0. -1.
<mgrwt>
<rscale>  0 0.12065949E+03</rscale>
<asrwt>0</asrwt>
<pdfrwt beam="1">  1        1 0.71888847E-01 0.12065949E+03</pdfrwt>
<pdfrwt beam="2">  1       -1 0.20300490E-01 0.12065949E+03</pdfrwt>
<totfact> 0.96858214E+02</totfact>
</mgrwt>
</event>
<event>
 4    1  0.4938540E-001  0.3434404E+03  0.7546771E-02  0.1065340E+00
          2   -1    0    0  501    0  0.00000000000E+00  0.00000000000E+00  0.11496836425E+04  0.11496836425E+04  0.00000000000E+00 0. -1.
         -2   -1    0    0    0  501 -0.00000000000E+00 -0.00000000000E+00 -0.12844484482E+03  0.12844484482E+03  0.00000000000E+00 0.  1.
         24    1    1    2    0    0  0.26123111430E+03 -0.20794800935E+03  0.79731356735E+03  0.86813605519E+03  0.80419002446E+02 0. -1.
        -24    1    1    2    0    0 -0.26123111430E+03  0.20794800935E+03  0.22392523033E+03  0.40999243213E+03  0.80419002446E+02 0.  1.
<mgrwt>
<rscale>  0 0.34344037E+03</rscale>
<asrwt>0</asrwt>
<pdfrwt beam="1">  1        2 0.17687440E+00 0.34344037E+03</pdfrwt>
<pdfrwt beam="2">  1       -2 0.19760746E-01 0.34344037E+03</pdfrwt>
<totfact> 0.45768224E+02</totfact>
</mgrwt>
</event>
<event>
 4    1  0.4938540E-001  0.8639219E+02  0.7546771E-02  0.1311831E+00
         -2   -1    0    0    0  501 -0.00000000000E+00  0.00000000000E+00  0.89611906406E+02  0.89611906406E+02  0.00000000000E+00 0.  1.
          2   -1    0    0  501    0  0.00000000000E+00 -0.00000000000E+00 -0.14059345632E+03  0.14059345632E+03  0.00000000000E+00 0. -1.
         24    1    1    2    0    0 -0.17382478933E+02  0.26348509173E+02 -0.98976042967E+02  0.13137681510E+03  0.80419002446E+02 0. -1.
        -24    1    1    2    0    0  0.17382478933E+02 -0.26348509173E+02  0.47994493050E+02  0.98828547632E+02  0.80419002446E+02 0.  1.
<mgrwt>
<rscale>  0 0.86392190E+02</rscale>
<asrwt>0</asrwt>
<pdfrwt beam="1">  1        2 0.21629762E-01 0.86392190E+02</pdfrwt>
<pdfrwt beam="2">  1       -2 0.13786447E-01 0.86392190E+02</pdfrwt>
<totfact> 0.90587615E+03</totfact>
</mgrwt>
</event>
<event>
 4    1  0.4938540E-001  0.8863086E+02  0.7546771E-02  0.1306202E+00
         -2   -1    0    0    0  501 -0.00000000000E+00  0.00000000000E+00  0.18159992160E+02  0.18159992160E+02  0.00000000000E+00 0.  1.
          2   -1    0    0  501    0  0.00000000000E+00 -0.00000000000E+00 -0.15836858294E+04  0.15836858294E+04  0.00000000000E+00 0. -1.
         24    1    1    2    0    0  0.80576678703E+01  0.36377010044E+02 -0.14655984627E+04  0.14682759559E+04  0.80419002446E+02 0. -1.
        -24    1    1    2    0    0 -0.80576678703E+01 -0.36377010044E+02 -0.99927374502E+02  0.13356986562E+03  0.80419002446E+02 0.  1.
<mgrwt>
<rscale>  0 0.88630857E+02</rscale>
<asrwt>0</asrwt>
<pdfrwt beam="1">  1        2 0.24364398E+00 0.88630857E+02</pdfrwt>
<pdfrwt beam="2">  1       -2 0.27938448E-02 0.88630857E+02</pdfrwt>
<totfact> 0.56393962E+03</totfact>
</mgrwt>
</event>
<event>
 4    1  0.4938540E-001  0.8832582E+02  0.7546771E-02  0.1306957E+00
          1   -1    0    0  501    0  0.00000000000E+00  0.00000000000E+00  0.13131932803E+02  0.13131932803E+02  0.00000000000E+00 0. -1.
         -1   -1    0    0    0  501 -0.00000000000E+00 -0.00000000000E+00 -0.69434138763E+03  0.69434138763E+03  0.00000000000E+00 0.  1.
         24    1    1    2    0    0 -0.32980417224E+02 -0.15701172985E+02 -0.47502200993E+03  0.48316390658E+03  0.80419002446E+02 0.  1.
        -24    1    1    2    0    0  0.32980417224E+02  0.15701172985E+02 -0.20618744490E+03  0.22430941385E+03  0.80419002446E+02 0. -1.
<mgrwt>
<rscale>  0 0.88325821E+02</rscale>
<asrwt>0</asrwt>
<pdfrwt beam="1">  1        1 0.20202977E-02 0.88325821E+02</pdfrwt>
<pdfrwt beam="2">  1       -1 0.10682174E+00 0.88325821E+02</pdfrwt>
<totfact> 0.47760281E+03</totfact>
</mgrwt>
</event>
<event>
 4    1  0.4938540E-001  0.8709582E+02  0.7546771E-02  0.1310041E+00
          1   -1    0    0  501    0  0.00000000000E+00  0.00000000000E+00  0.55329557235E+02  0.55329557235E+02  0.00000000000E+00 0. -1.
         -1   -1    0    0    0  501 -0.00000000000E+00 -0.00000000000E+00 -0.44720978169E+03  0.44720978169E+03  0.00000000000E+00 0.  1.
         24    1    1    2    0    0 -0.30155164037E+02 -0.14461372562E+02 -0.40517888699E+03  0.41443408600E+03  0.80419002446E+02 0.  1.
        -24    1    1    2    0    0  0.30155164037E+02  0.14461372562E+02  0.13298662538E+02  0.88105252932E+02  0.80419002446E+02 0. -1.
<mgrwt>
<rscale>  0 0.87095816E+02</rscale>
<asrwt>0</asrwt>
<pdfrwt beam="1">  1        1 0.85122395E-02 0.87095816E+02</pdfrwt>
<pdfrwt beam="2">  1       -1 0.68801505E-01 0.87095816E+02</pdfrwt>
<totfact> 0.16943233E+03</totfact>
</mgrwt>
</event>
<event>
 4    1  0.4938540E-001  0.1013685E+03  0.7546771E-02  0.1277444E+00
         -1   -1    0    0    0  501 -0.00000000000E+00  0.00000000000E+00  0.10053608429E+03  0.10053608429E+03  0.00000000000E+00 0.  1.
          1   -1    0    0  501    0  0.00000000000E+00 -0.00000000000E+00 -0.16017051153E+03  0.16017051153E+03  0.00000000000E+00 0. -1.
         24    1    1    2    0    0 -0.12010081814E+02 -0.60531994813E+02  0.48598802609E+02  0.11241629789E+03  0.80419002446E+02 0.  1.
        -24    1    1    2    0    0  0.12010081814E+02  0.60531994813E+02 -0.10823322985E+03  0.14829029793E+03  0.80419002446E+02 0. -1.
<mgrwt>
<rscale>  0 0.10136854E+03</rscale>
<asrwt>0</asrwt>
<pdfrwt beam="1">  1        1 0.24641617E-01 0.10136854E+03</pdfrwt>
<pdfrwt beam="2">  1       -1 0.15467090E-01 0.10136854E+03</pdfrwt>
<totfact> 0.55702356E+03</totfact>
</mgrwt>
</event>
<event>
 4    1  0.4938540E-001  0.8082960E+02  0.7546771E-02  0.1326714E+00
         -2   -1    0    0    0  501 -0.00000000000E+00  0.00000000000E+00  0.75210310044E+02  0.75210310044E+02  0.00000000000E+00 0.  1.
          2   -1    0    0  501    0  0.00000000000E+00 -0.00000000000E+00 -0.88839847859E+02  0.88839847859E+02  0.00000000000E+00 0. -1.
         24    1    1    2    0    0  0.75961732116E+01  0.29164733392E+01 -0.19032759311E+02  0.83040168265E+02  0.80419002446E+02 0. -1.
        -24    1    1    2    0    0 -0.75961732116E+01 -0.29164733392E+01  0.54032214961E+01  0.81009989638E+02  0.80419002446E+02 0.  1.
<mgrwt>
<rscale>  0 0.80829596E+02</rscale>
<asrwt>0</asrwt>
<pdfrwt beam="1">  1        2 0.13667669E-01 0.80829596E+02</pdfrwt>
<pdfrwt beam="2">  1       -2 0.11570817E-01 0.80829596E+02</pdfrwt>
<totfact> 0.19991037E+04</totfact>
</mgrwt>
</event>
<event>
 4    1  0.4938540E-001  0.8848199E+02  0.7546771E-02  0.1306570E+00
         -1   -1    0    0    0  501 -0.00000000000E+00  0.00000000000E+00  0.71430851623E+01  0.71430851623E+01  0.00000000000E+00 0.  1.
          1   -1    0    0  501    0  0.00000000000E+00 -0.00000000000E+00 -0.20188836285E+04  0.20188836285E+04  0.00000000000E+00 0. -1.
         24    1    1    2    0    0  0.13089208027E+02 -0.34503893095E+02 -0.32097357228E+03  0.33294608582E+03  0.80419002446E+02 0.  1.
        -24    1    1    2    0    0 -0.13089208027E+02  0.34503893095E+02 -0.16907669710E+04  0.16930806278E+04  0.80419002446E+02 0. -1.
<mgrwt>
<rscale>  0 0.88481987E+02</rscale>
<asrwt>0</asrwt>
<pdfrwt beam="1">  1        1 0.31059781E+00 0.88481987E+02</pdfrwt>
<pdfrwt beam="2">  1       -1 0.10989350E-02 0.88481987E+02</pdfrwt>
<totfact> 0.52511850E+03</totfact>
</mgrwt>
</event>
<event>
 4    1  0.4938540E-001  0.8451929E+02  0.7546771E-02  0.1316694E+00
          2   -1    0    0  501    0  0.00000000000E+00  0.00000000000E+00  0.26757674218E+03  0.26757674218E+03  0.00000000000E+00 0. -1.
         -2   -1    0    0    0  501 -0.00000000000E+00 -0.00000000000E+00 -0.47220963307E+02  0.47220963307E+02  0.00000000000E+00 0.  1.
         24    1    1    2    0    0  0.75504303154E+01 -0.24885455305E+02  0.21394606490E+03  0.23003571359E+03  0.80419002446E+02 0. -1.
        -24    1    1    2    0    0 -0.75504303154E+01  0.24885455305E+02  0.64097139720E+01  0.84761991902E+02  0.80419002446E+02 0.  1.
<mgrwt>
<rscale>  0 0.84519293E+02</rscale>
<asrwt>0</asrwt>
<pdfrwt beam="1">  1        2 0.41165652E-01 0.84519293E+02</pdfrwt>
<pdfrwt beam="2">  1       -2 0.72647637E-02 0.84519293E+02</pdfrwt>
<totfact> 0.12289321E+04</totfact>
</mgrwt>
</event>
<event>
 4    1  0.4938540E-001  0.8163189E+02  0.7546771E-02  0.1324483E+00
          1   -1    0    0  501    0  0.00000000000E+00  0.00000000000E+00  0.26913019584E+02  0.26913019584E+02  0.00000000000E+00 0. -1.
         -1   -1    0    0    0  501 -0.00000000000E+00 -0.00000000000E+00 -0.25524189093E+03  0.25524189093E+03  0.00000000000E+00 0.  1.
         24    1    1    2    0    0  0.27453998495E+01 -0.13748165261E+02 -0.13856920952E+03  0.16082658688E+03  0.80419002446E+02 0.  1.
        -24    1    1    2    0    0 -0.27453998495E+01  0.13748165261E+02 -0.89759661828E+02  0.12132832363E+03  0.80419002446E+02 0. -1.
<mgrwt>
<rscale>  0 0.81631889E+02</rscale>
<asrwt>0</asrwt>
<pdfrwt beam="1">  1        1 0.41404646E-02 0.81631889E+02</pdfrwt>
<pdfrwt beam="2">  1       -1 0.39267982E-01 0.81631889E+02</pdfrwt>
<totfact> 0.12286679E+04</totfact>
</mgrwt>
</event>
<event>
 4    1  0.4938540E-001  0.8169397E+02  0.7546771E-02  0.1324312E+00
         -1   -1    0    0    0  501 -0.00000000000E+00  0.00000000000E+00  0.55431234690E+02  0.55431234690E+02  0.00000000000E+00 0.  1.
          1   -1    0    0  501    0  0.00000000000E+00 -0.00000000000E+00 -0.13158371911E+03  0.13158371911E+03  0.00000000000E+00 0. -1.
         24    1    1    2    0    0  0.93804325915E+01 -0.10894805558E+02 -0.10815116895E+02  0.82406747367E+02  0.80419002446E+02 0.  1.
        -24    1    1    2    0    0 -0.93804325915E+01  0.10894805558E+02 -0.65337367527E+02  0.10460820643E+03  0.80419002446E+02 0. -1.
<mgrwt>
<rscale>  0 0.81693973E+02</rscale>
<asrwt>0</asrwt>
<pdfrwt beam="1">  1        1 0.20243649E-01 0.81693973E+02</pdfrwt>
<pdfrwt beam="2">  1       -1 0.85278823E-02 0.81693973E+02</pdfrwt>
<totfact> 0.17284962E+04</totfact>
</mgrwt>
</event>
<event>
 4    1  0.4938540E-001  0.8109433E+02  0.7546771E-02  0.1325974E+00
          2   -1    0    0  501    0  0.00000000000E+00  0.00000000000E+00  0.20215597712E+04  0.20215597712E+04  0.00000000000E+00 0. -1.
         -2   -1    0    0    0  501 -0.00000000000E+00 -0.00000000000E+00 -0.26077284618E+02  0.26077284618E+02  0.00000000000E+00 0.  1.
         24    1    1    2    0    0  0.46127727444E+01 -0.93699975866E+01  0.19555739256E+04  0.19572546255E+04  0.80419002446E+02 0. -1.
        -24    1    1    2    0    0 -0.46127727444E+01  0.93699975866E+01  0.39908561058E+02  0.90382430412E+02  0.80419002446E+02 0.  1.
<mgrwt>
<rscale>  0 0.81094331E+02</rscale>
<asrwt>0</asrwt>
<pdfrwt beam="1">  1        2 0.31100907E+00 0.81094331E+02</pdfrwt>
<pdfrwt beam="2">  1       -2 0.40118915E-02 0.81094331E+02</pdfrwt>
<totfact> 0.20061121E+03</totfact>
</mgrwt>
</event>
<event>
 4    1  0.4938540E-001  0.1301446E+03  0.7546771E-02  0.1227241E+00
         -2   -1    0    0    0  501 -0.00000000000E+00  0.00000000000E+00  0.40104519088E+02  0.40104519088E+02  0.00000000000E+00 0.  1.
          2   -1    0    0  501    0  0.00000000000E+00 -0.00000000000E+00 -0.47216819057E+03  0.47216819057E+03  0.00000000000E+00 0. -1.
         24    1    1    2    0    0 -0.66678874158E+02 -0.77616541639E+02 -0.29924158300E+03  0.32631754588E+03  0.80419002446E+02 0.  1.
        -24    1    1    2    0    0  0.66678874158E+02  0.77616541639E+02 -0.13282208848E+03  0.18595516378E+03  0.80419002446E+02 0. -1.
<mgrwt>
<rscale>  0 0.13014460E+03</rscale>
<asrwt>0</asrwt>
<pdfrwt beam="1">  1        2 0.72641264E-01 0.13014460E+03</pdfrwt>
<pdfrwt beam="2">  1       -2 0.61699257E-02 0.13014460E+03</pdfrwt>
<totfact> 0.89476772E+03</totfact>
</mgrwt>
</event>
<event>
 4    1  0.4938540E-001  0.1942180E+03  0.7546771E-02  0.1154711E+00
          2   -1    0    0  501    0  0.00000000000E+00  0.00000000000E+00  0.97965695206E+03  0.97965695206E+03  0.00000000000E+00 0. -1.
         -2   -1    0    0    0  501 -0.00000000000E+00 -0.00000000000E+00 -0.48583710829E+02  0.48583710829E+02  0.00000000000E+00 0.  1.
         24    1    1    2    0    0  0.17095370346E+03  0.45036207827E+02  0.69971399807E+03  0.72616824758E+03  0.80419002446E+02 0. -1.
        -24    1    1    2    0    0 -0.17095370346E+03 -0.45036207827E+02  0.23135924316E+03  0.30207241531E+03  0.80419002446E+02 0.  0.
<mgrwt>
<rscale>  0 0.19421803E+03</rscale>
<asrwt>0</asrwt>
<pdfrwt beam="1">  1        2 0.15071644E+00 0.19421803E+03</pdfrwt>
<pdfrwt beam="2">  1       -2 0.74744178E-02 0.19421803E+03</pdfrwt>
<totfact> 0.28240753E+03</totfact>
</mgrwt>
</event>
<event>
 4    1  0.4938540E-001  0.1036683E+03  0.7546771E-02  0.1272766E+00
          1   -1    0    0  501    0  0.00000000000E+00  0.00000000000E+00  0.87638808315E+02  0.87638808315E+02  0.00000000000E+00 0. -1.
         -1   -1    0    0    0  501 -0.00000000000E+00 -0.00000000000E+00 -0.54660594523E+03  0.54660594523E+03  0.00000000000E+00 0.  1.
         24    1    1    2    0    0  0.63927996078E+02  0.13896670273E+02 -0.50877683586E+03  0.51923115352E+03  0.80419002446E+02 0.  1.
        -24    1    1    2    0    0 -0.63927996078E+02 -0.13896670273E+02  0.49809698943E+02  0.11501360002E+03  0.80419002446E+02 0. -1.
<mgrwt>
<rscale>  0 0.10366833E+03</rscale>
<asrwt>0</asrwt>
<pdfrwt beam="1">  1        1 0.13482893E-01 0.10366833E+03</pdfrwt>
<pdfrwt beam="2">  1       -1 0.84093224E-01 0.10366833E+03</pdfrwt>
<totfact> 0.62546082E+02</totfact>
</mgrwt>
</event>
<event>
 4    1  0.4938540E-001  0.9780038E+02  0.7546771E-02  0.1284991E+00
         -2   -1    0    0    0  501 -0.00000000000E+00  0.00000000000E+00  0.16524049746E+02  0.16524049746E+02  0.00000000000E+00 0.  1.
          2   -1    0    0  501    0  0.00000000000E+00 -0.00000000000E+00 -0.20570039676E+04  0.20570039676E+04  0.00000000000E+00 0. -1.
         24    1    1    2    0    0 -0.43278976506E+02 -0.34994700951E+02 -0.18991055528E+04  0.19016221537E+04  0.80419002446E+02 0. -1.
        -24    1    1    2    0    0  0.43278976506E+02  0.34994700951E+02 -0.14137436510E+03  0.17190586367E+03  0.80419002446E+02 0.  1.
<mgrwt>
<rscale>  0 0.97800383E+02</rscale>
<asrwt>0</asrwt>
<pdfrwt beam="1">  1        2 0.31646226E+00 0.97800383E+02</pdfrwt>
<pdfrwt beam="2">  1       -2 0.25421606E-02 0.97800383E+02</pdfrwt>
<totfact> 0.37451303E+03</totfact>
</mgrwt>
</event>
<event>
 4    1  0.4938540E-001  0.8751272E+02  0.7546771E-02  0.1308989E+00
          2   -1    0    0  501    0  0.00000000000E+00  0.00000000000E+00  0.46318263649E+03  0.46318263649E+03  0.00000000000E+00 0. -1.
         -2   -1    0    0    0  501 -0.00000000000E+00 -0.00000000000E+00 -0.99840207483E+02  0.99840207483E+02  0.00000000000E+00 0.  1.
         24    1    1    2    0    0  0.22471905906E+02 -0.26196836599E+02  0.43881779571E+03  0.44745897532E+03  0.80419002446E+02 0. -1.
        -24    1    1    2    0    0 -0.22471905906E+02  0.26196836599E+02 -0.75475366712E+02  0.11556386865E+03  0.80419002446E+02 0.  1.
<mgrwt>
<rscale>  0 0.87512723E+02</rscale>
<asrwt>0</asrwt>
<pdfrwt beam="1">  1        2 0.71258866E-01 0.87512723E+02</pdfrwt>
<pdfrwt beam="2">  1       -2 0.15360032E-01 0.87512723E+02</pdfrwt>
<totfact> 0.21510410E+03</totfact>
</mgrwt>
</event>
<event>
 4    1  0.4938540E-001  0.8888400E+02  0.7546771E-02  0.1305577E+00
          2   -1    0    0  501    0  0.00000000000E+00  0.00000000000E+00  0.17434743934E+04  0.17434743934E+04  0.00000000000E+00 0. -1.
         -2   -1    0    0    0  501 -0.00000000000E+00 -0.00000000000E+00 -0.49310578900E+01  0.49310578900E+01  0.00000000000E+00 0.  1.
         24    1    1    2    0    0  0.68644637736E+01 -0.37229400214E+02  0.11181521939E+04  0.11216794078E+04  0.80419002446E+02 0. -1.
        -24    1    1    2    0    0 -0.68644637736E+01  0.37229400214E+02  0.62039114163E+03  0.62672604355E+03  0.80419002446E+02 0.  1.
<mgrwt>
<rscale>  0 0.88883998E+02</rscale>
<asrwt>0</asrwt>
<pdfrwt beam="1">  1        2 0.26822634E+00 0.88883998E+02</pdfrwt>
<pdfrwt beam="2">  1       -2 0.75862568E-03 0.88883998E+02</pdfrwt>
<totfact> 0.30080604E+04</totfact>
</mgrwt>
</event>
<event>
 4    1  0.4938540E-001  0.8045901E+02  0.7546771E-02  0.1327754E+00
          1   -1    0    0  501    0  0.00000000000E+00  0.00000000000E+00  0.15073899295E+03  0.15073899295E+03  0.00000000000E+00 0. -1.
         -1   -1    0    0    0  501 -0.00000000000E+00 -0.00000000000E+00 -0.53680136215E+02  0.53680136215E+02  0.00000000000E+00 0.  1.
         24    1    1    2    0    0 -0.17274967583E+01 -0.18578400495E+01  0.28241588169E+01  0.80508556328E+02  0.80419002446E+02 0.  0.
        -24    1    1    2    0    0  0.17274967583E+01  0.18578400495E+01  0.94234697918E+02  0.12391057284E+03  0.80419002446E+02 0. -1.
<mgrwt>
<rscale>  0 0.80459007E+02</rscale>
<asrwt>0</asrwt>
<pdfrwt beam="1">  1        1 0.23190614E-01 0.80459007E+02</pdfrwt>
<pdfrwt beam="2">  1       -1 0.82584826E-02 0.80459007E+02</pdfrwt>
<totfact> 0.15284777E+04</totfact>
</mgrwt>
</event>
<event>
 4    1  0.4938540E-001  0.9556130E+02  0.7546771E-02  0.1289917E+00
          1   -1    0    0  501    0  0.00000000000E+00  0.00000000000E+00  0.64227885199E+03  0.64227885199E+03  0.00000000000E+00 0. -1.
         -1   -1    0    0    0  501 -0.00000000000E+00 -0.00000000000E+00 -0.38960343850E+02  0.38960343850E+02  0.00000000000E+00 0.  1.
         24    1    1    2    0    0  0.32477233151E+02  0.40124510738E+02  0.30216606394E+02  0.10022477883E+03  0.80419002446E+02 0.  1.
        -24    1    1    2    0    0 -0.32477233151E+02 -0.40124510738E+02  0.57310190175E+03  0.58101441701E+03  0.80419002446E+02 0. -1.
<mgrwt>
<rscale>  0 0.95561305E+02</rscale>
<asrwt>0</asrwt>
<pdfrwt beam="1">  1        1 0.98812124E-01 0.95561305E+02</pdfrwt>
<pdfrwt beam="2">  1       -1 0.59938995E-02 0.95561305E+02</pdfrwt>
<totfact> 0.40833106E+03</totfact>
</mgrwt>
</event>
<event>
 4    1  0.4938540E-001  0.8367628E+02  0.7546771E-02  0.1318931E+00
         -2   -1    0    0    0  501 -0.00000000000E+00  0.00000000000E+00  0.35515579669E+01  0.35515579669E+01  0.00000000000E+00 0.  1.
          2   -1    0    0  501    0  0.00000000000E+00 -0.00000000000E+00 -0.20979690028E+04  0.20979690028E+04  0.00000000000E+00 0. -1.
         24    1    1    2    0    0 -0.65440568347E+01  0.22173762821E+02 -0.78917098078E+03  0.79359470342E+03  0.80419002446E+02 0.  0.
        -24    1    1    2    0    0  0.65440568347E+01 -0.22173762821E+02 -0.13052464640E+04  0.13079258573E+04  0.80419002446E+02 0.  0.
<mgrwt>
<rscale>  0 0.83676270E+02</rscale>
<asrwt>0</asrwt>
<pdfrwt beam="1">  1        2 0.32276390E+00 0.83676280E+02</pdfrwt>
<pdfrwt beam="2">  1       -2 0.54639448E-03 0.83676280E+02</pdfrwt>
<totfact> 0.31538856E+04</totfact>
</mgrwt>
</event>
<event>
 4    1  0.4938540E-001  0.9550379E+02  0.7546771E-02  0.1290045E+00
          2   -1    0    0  501    0  0.00000000000E+00  0.00000000000E+00  0.30029258612E+04  0.30029258612E+04  0.00000000000E+00 0. -1.
         -2   -1    0    0    0  501 -0.00000000000E+00 -0.00000000000E+00 -0.31019521643E+01  0.31019521643E+01  0.00000000000E+00 0.  1.
         24    1    1    2    0    0 -0.29766691143E+02  0.42044004682E+02  0.12830258724E+04  0.12865754387E+04  0.80419002446E+02 0.  0.
        -24    1    1    2    0    0  0.29766691143E+02 -0.42044004682E+02  0.17167980366E+04  0.17194523747E+04  0.80419002446E+02 0.  0.
<mgrwt>
<rscale>  0 0.95503782E+02</rscale>
<asrwt>0</asrwt>
<pdfrwt beam="1">  1        2 0.46198627E+00 0.95503794E+02</pdfrwt>
<pdfrwt beam="2">  1       -2 0.47722581E-03 0.95503794E+02</pdfrwt>
<totfact> 0.12690327E+04</totfact>
</mgrwt>
</event>
<event>
 4    1  0.4938540E-001  0.1018019E+03  0.7546771E-02  0.1276552E+00
         -1   -1    0    0    0  501 -0.00000000000E+00  0.00000000000E+00  0.33832911229E+03  0.33832911229E+03  0.00000000000E+00 0.  1.
          1   -1    0    0  501    0  0.00000000000E+00 -0.00000000000E+00 -0.30875796613E+02  0.30875796613E+02  0.00000000000E+00 0. -1.
         24    1    1    2    0    0 -0.72590607750E+01 -0.61997676974E+02  0.17013787870E+03  0.19826880652E+03  0.80419002446E+02 0.  0.
        -24    1    1    2    0    0  0.72590607750E+01  0.61997676974E+02  0.13731543697E+03  0.17093610239E+03  0.80419002446E+02 0. -1.
<mgrwt>
<rscale>  0 0.10180188E+03</rscale>
<asrwt>0</asrwt>
<pdfrwt beam="1">  1        1 0.47501228E-02 0.10180188E+03</pdfrwt>
<pdfrwt beam="2">  1       -1 0.52050630E-01 0.10180188E+03</pdfrwt>
<totfact> 0.63215954E+03</totfact>
</mgrwt>
</event>
<event>
 4    1  0.4938540E-001  0.9677098E+02  0.7546771E-02  0.1287236E+00
         -1   -1    0    0    0  501 -0.00000000000E+00  0.00000000000E+00  0.20411682558E+03  0.20411682558E+03  0.00000000000E+00 0.  1.
          1   -1    0    0  501    0  0.00000000000E+00 -0.00000000000E+00 -0.71198827617E+02  0.71198827617E+02  0.00000000000E+00 0. -1.
         24    1    1    2    0    0 -0.34290951175E+02 -0.41491413001E+02  0.14855029172E+03  0.17729019096E+03  0.80419002446E+02 0. -1.
        -24    1    1    2    0    0  0.34290951175E+02  0.41491413001E+02 -0.15632293754E+02  0.98025462242E+02  0.80419002446E+02 0.  0.
<mgrwt>
<rscale>  0 0.96770980E+02</rscale>
<asrwt>0</asrwt>
<pdfrwt beam="1">  1        1 0.10953666E-01 0.96770980E+02</pdfrwt>
<pdfrwt beam="2">  1       -1 0.31402588E-01 0.96770980E+02</pdfrwt>
<totfact> 0.49885754E+03</totfact>
</mgrwt>
</event>
<event>
 4    1  0.4938540E-001  0.1354143E+03  0.7546771E-02  0.1219636E+00
         -2   -1    0    0    0  501 -0.00000000000E+00  0.00000000000E+00  0.14954171561E+02  0.14954171561E+02  0.00000000000E+00 0.  1.
          2   -1    0    0  501    0  0.00000000000E+00 -0.00000000000E+00 -0.25475337622E+04  0.25475337622E+04  0.00000000000E+00 0. -1.
         24    1    1    2    0    0 -0.10542868383E+03  0.27470271156E+02 -0.21890217361E+04  0.21932061463E+04  0.80419002446E+02 0. -1.
        -24    1    1    2    0    0  0.10542868383E+03 -0.27470271156E+02 -0.34355785458E+03  0.36928178749E+03  0.80419002446E+02 0.  1.
<mgrwt>
<rscale>  0 0.13541432E+03</rscale>
<asrwt>0</asrwt>
<pdfrwt beam="1">  1        2 0.39192800E+00 0.13541432E+03</pdfrwt>
<pdfrwt beam="2">  1       -2 0.23006434E-02 0.13541432E+03</pdfrwt>
<totfact> 0.24051757E+03</totfact>
</mgrwt>
</event>
<event>
 4    1  0.4938540E-001  0.9462627E+02  0.7546771E-02  0.1292020E+00
         -1   -1    0    0    0  501 -0.00000000000E+00  0.00000000000E+00  0.16372080127E+02  0.16372080127E+02  0.00000000000E+00 0.  1.
          1   -1    0    0  501    0  0.00000000000E+00 -0.00000000000E+00 -0.56847027107E+03  0.56847027107E+03  0.00000000000E+00 0. -1.
         24    1    1    2    0    0  0.94550658877E+00 -0.49860015150E+02 -0.21910681498E+03  0.23866698016E+03  0.80419002446E+02 0.  1.
        -24    1    1    2    0    0 -0.94550658877E+00  0.49860015150E+02 -0.33299137596E+03  0.34617537104E+03  0.80419002446E+02 0. -1.
<mgrwt>
<rscale>  0 0.94626270E+02</rscale>
<asrwt>0</asrwt>
<pdfrwt beam="1">  1        1 0.87456958E-01 0.94626270E+02</pdfrwt>
<pdfrwt beam="2">  1       -1 0.25187818E-02 0.94626270E+02</pdfrwt>
<totfact> 0.16959550E+04</totfact>
</mgrwt>
</event>
<event>
 4    1  0.4938540E-001  0.8380480E+02  0.7546771E-02  0.1318588E+00
          2   -1    0    0  501    0  0.00000000000E+00  0.00000000000E+00  0.29750258959E+02  0.29750258959E+02  0.00000000000E+00 0. -1.
         -2   -1    0    0    0  501 -0.00000000000E+00 -0.00000000000E+00 -0.25842616334E+03  0.25842616334E+03  0.00000000000E+00 0.  1.
         24    1    1    2    0    0 -0.22334243725E+02 -0.75637833201E+01 -0.71961394189E+02  0.11046124872E+03  0.80419002446E+02 0. -1.
        -24    1    1    2    0    0  0.22334243725E+02  0.75637833201E+01 -0.15671451020E+03  0.17771517358E+03  0.80419002446E+02 0.  1.
<mgrwt>
<rscale>  0 0.83804804E+02</rscale>
<asrwt>0</asrwt>
<pdfrwt beam="1">  1        2 0.45769631E-02 0.83804804E+02</pdfrwt>
<pdfrwt beam="2">  1       -2 0.39757869E-01 0.83804804E+02</pdfrwt>
<totfact> 0.95173671E+03</totfact>
</mgrwt>
</event>
<event>
 4    1  0.4938540E-001  0.8565574E+02  0.7546771E-02  0.1313727E+00
          1   -1    0    0  501    0  0.00000000000E+00  0.00000000000E+00  0.45725790737E+02  0.45725790737E+02  0.00000000000E+00 0. -1.
         -1   -1    0    0    0  501 -0.00000000000E+00 -0.00000000000E+00 -0.19766840905E+03  0.19766840905E+03  0.00000000000E+00 0.  1.
         24    1    1    2    0    0  0.43652152960E+01 -0.29165646372E+02 -0.12877504039E+03  0.15466065115E+03  0.80419002446E+02 0.  0.
        -24    1    1    2    0    0 -0.43652152960E+01  0.29165646372E+02 -0.23167577929E+02  0.88733548640E+02  0.80419002446E+02 0.  0.
<mgrwt>
<rscale>  0 0.85655741E+02</rscale>
<asrwt>0</asrwt>
<pdfrwt beam="1">  1        1 0.70347371E-02 0.85655741E+02</pdfrwt>
<pdfrwt beam="2">  1       -1 0.30410524E-01 0.85655741E+02</pdfrwt>
<totfact> 0.93378282E+03</totfact>
</mgrwt>
</event>
<event>
 4    1  0.4938540E-001  0.8120631E+02  0.7546771E-02  0.1325663E+00
          2   -1    0    0  501    0  0.00000000000E+00  0.00000000000E+00  0.67850325825E+03  0.67850325825E+03  0.00000000000E+00 0. -1.
         -2   -1    0    0    0  501 -0.00000000000E+00 -0.00000000000E+00 -0.19089444043E+02  0.19089444043E+02  0.00000000000E+00 0.  1.
         24    1    1    2    0    0 -0.13576808024E+01 -0.11198475202E+02  0.57407935477E+03  0.57979442104E+03  0.80419002446E+02 0. -1.
        -24    1    1    2    0    0  0.13576808024E+01  0.11198475202E+02  0.85334459436E+02  0.11779828125E+03  0.80419002446E+02 0.  0.
<mgrwt>
<rscale>  0 0.81206312E+02</rscale>
<asrwt>0</asrwt>
<pdfrwt beam="1">  1        2 0.10438510E+00 0.81206312E+02</pdfrwt>
<pdfrwt beam="2">  1       -2 0.29368381E-02 0.81206312E+02</pdfrwt>
<totfact> 0.17265381E+04</totfact>
</mgrwt>
</event>
<event>
 4    1  0.4938540E-001  0.8990941E+02  0.7546771E-02  0.1303071E+00
         -2   -1    0    0    0  501 -0.00000000000E+00  0.00000000000E+00  0.12823828624E+02  0.12823828624E+02  0.00000000000E+00 0.  1.
          2   -1    0    0  501    0  0.00000000000E+00 -0.00000000000E+00 -0.71077504942E+03  0.71077504942E+03  0.00000000000E+00 0. -1.
         24    1    1    2    0    0 -0.13582049877E+02 -0.37841970419E+02 -0.47066560023E+03  0.47917617846E+03  0.80419002446E+02 0.  1.
        -24    1    1    2    0    0  0.13582049877E+02  0.37841970419E+02 -0.22728562056E+03  0.24442269959E+03  0.80419002446E+02 0.  0.
<mgrwt>
<rscale>  0 0.89909414E+02</rscale>
<asrwt>0</asrwt>
<pdfrwt beam="1">  1        2 0.10935002E+00 0.89909414E+02</pdfrwt>
<pdfrwt beam="2">  1       -2 0.19728965E-02 0.89909414E+02</pdfrwt>
<totfact> 0.29322451E+04</totfact>
</mgrwt>
</event>
<event>
 4    1  0.4938540E-001  0.8218126E+02  0.7546771E-02  0.1322973E+00
          2   -1    0    0  501    0  0.00000000000E+00  0.00000000000E+00  0.15979346986E+03  0.15979346986E+03  0.00000000000E+00 0. -1.
         -2   -1    0    0    0  501 -0.00000000000E+00 -0.00000000000E+00 -0.54300971505E+02  0.54300971505E+02  0.00000000000E+00 0.  1.
         24    1    1    2    0    0  0.50887048238E+01 -0.16144636873E+02  0.10314294968E+03  0.13187959751E+03  0.80419002446E+02 0.  0.
        -24    1    1    2    0    0 -0.50887048238E+01  0.16144636873E+02  0.23495486747E+01  0.82214843854E+02  0.80419002446E+02 0.  1.
<mgrwt>
<rscale>  0 0.82181264E+02</rscale>
<asrwt>0</asrwt>
<pdfrwt beam="1">  1        2 0.24583611E-01 0.82181264E+02</pdfrwt>
<pdfrwt beam="2">  1       -2 0.83539957E-02 0.82181264E+02</pdfrwt>
<totfact> 0.17135758E+04</totfact>
</mgrwt>
</event>
<event>
 4    1  0.4938540E-001  0.8986346E+02  0.7546771E-02  0.1303183E+00
          2   -1    0    0  501    0  0.00000000000E+00  0.00000000000E+00  0.72152069746E+02  0.72152069746E+02  0.00000000000E+00 0. -1.
         -2   -1    0    0    0  501 -0.00000000000E+00 -0.00000000000E+00 -0.11279437486E+03  0.11279437486E+03  0.00000000000E+00 0.  1.
         24    1    1    2    0    0 -0.26458902320E+02  0.30135548490E+02 -0.12191034485E+02  0.90686614618E+02  0.80419002446E+02 0. -1.
        -24    1    1    2    0    0  0.26458902320E+02 -0.30135548490E+02 -0.28451270630E+02  0.94259829989E+02  0.80419002446E+02 0.  1.
<mgrwt>
<rscale>  0 0.89863456E+02</rscale>
<asrwt>0</asrwt>
<pdfrwt beam="1">  1        2 0.11100318E-01 0.89863456E+02</pdfrwt>
<pdfrwt beam="2">  1       -2 0.17352981E-01 0.89863456E+02</pdfrwt>
<totfact> 0.13492517E+04</totfact>
</mgrwt>
</event>
<event>
 4    1  0.4938540E-001  0.9713815E+02  0.7546771E-02  0.1286432E+00
         -1   -1    0    0    0  501 -0.00000000000E+00  0.00000000000E+00  0.79328537485E+02  0.79328537485E+02  0.00000000000E+00 0.  1.
          1   -1    0    0  501    0  0.00000000000E+00 -0.00000000000E+00 -0.15792148788E+03  0.15792148788E+03  0.00000000000E+00 0. -1.
         24    1    1    2    0    0 -0.19273532427E+02 -0.50962093552E+02  0.19635485831E+02  0.99102836940E+02  0.80419002446E+02 0.  1.
        -24    1    1    2    0    0  0.19273532427E+02  0.50962093552E+02 -0.98228436224E+02  0.13814718842E+03  0.80419002446E+02 0. -1.
<mgrwt>
<rscale>  0 0.97138149E+02</rscale>
<asrwt>0</asrwt>
<pdfrwt beam="1">  1        1 0.24295614E-01 0.97138149E+02</pdfrwt>
<pdfrwt beam="2">  1       -1 0.12204390E-01 0.97138149E+02</pdfrwt>
<totfact> 0.81466836E+03</totfact>
</mgrwt>
</event>
<event>
 4    1  0.4938540E-001  0.1497446E+03  0.7546771E-02  0.1200787E+00
         -1   -1    0    0    0  501 -0.00000000000E+00  0.00000000000E+00  0.95461483017E+02  0.95461483017E+02  0.00000000000E+00 0.  1.
          1   -1    0    0  501    0  0.00000000000E+00 -0.00000000000E+00 -0.43452197402E+03  0.43452197402E+03  0.00000000000E+00 0. -1.
         24    1    1    2    0    0 -0.12560408822E+03  0.13410321306E+02  0.10081979000E+02  0.15008359654E+03  0.80419002446E+02 0.  1.
        -24    1    1    2    0    0  0.12560408822E+03 -0.13410321306E+02 -0.34914247000E+03  0.37989986050E+03  0.80419002446E+02 0. -1.
<mgrwt>
<rscale>  0 0.14974458E+03</rscale>
<asrwt>0</asrwt>
<pdfrwt beam="1">  1        1 0.66849535E-01 0.14974458E+03</pdfrwt>
<pdfrwt beam="2">  1       -1 0.14686382E-01 0.14974458E+03</pdfrwt>
<totfact> 0.17829127E+03</totfact>
</mgrwt>
</event>
<event>
 4    1  0.4938540E-001  0.9066640E+02  0.7546771E-02  0.1301246E+00
         -2   -1    0    0    0  501 -0.00000000000E+00  0.00000000000E+00  0.18954060844E+04  0.18954060844E+04  0.00000000000E+00 0.  1.
          2   -1    0    0  501    0  0.00000000000E+00 -0.00000000000E+00 -0.47212843036E+01  0.47212843036E+01  0.00000000000E+00 0. -1.
         24    1    1    2    0    0  0.29608051607E+02 -0.29606414278E+02  0.12163890965E+04  0.12197634306E+04  0.80419002446E+02 0. -1.
        -24    1    1    2    0    0 -0.29608051607E+02  0.29606414278E+02  0.67429570352E+03  0.68036393807E+03  0.80419002446E+02 0.  0.
<mgrwt>
<rscale>  0 0.90666391E+02</rscale>
<asrwt>0</asrwt>
<pdfrwt beam="1">  1        2 0.72635295E-03 0.90666403E+02</pdfrwt>
<pdfrwt beam="2">  1       -2 0.29160033E+00 0.90666403E+02</pdfrwt>
<totfact> 0.88539801E+02</totfact>
</mgrwt>
</event>
<event>
 4    1  0.4938540E-001  0.8708016E+02  0.7546771E-02  0.1310081E+00
          2   -1    0    0  501    0  0.00000000000E+00  0.00000000000E+00  0.46884294147E+03  0.46884294147E+03  0.00000000000E+00 0. -1.
         -2   -1    0    0    0  501 -0.00000000000E+00 -0.00000000000E+00 -0.18451493514E+03  0.18451493514E+03  0.00000000000E+00 0.  1.
         24    1    1    2    0    0  0.25430345511E+02  0.21657222626E+02  0.45419701921E+03  0.46246933517E+03  0.80419002446E+02 0. -1.
        -24    1    1    2    0    0 -0.25430345511E+02 -0.21657222626E+02 -0.16986901287E+03  0.19088854144E+03  0.80419002446E+02 0.  1.
<mgrwt>
<rscale>  0 0.87080157E+02</rscale>
<asrwt>0</asrwt>
<pdfrwt beam="1">  1        2 0.72129683E-01 0.87080157E+02</pdfrwt>
<pdfrwt beam="2">  1       -2 0.28386913E-01 0.87080157E+02</pdfrwt>
<totfact> 0.75347695E+02</totfact>
</mgrwt>
</event>
<event>
 4    1  0.4938540E-001  0.8205934E+02  0.7546771E-02  0.1323307E+00
          2   -1    0    0  501    0  0.00000000000E+00  0.00000000000E+00  0.33507305505E+03  0.33507305505E+03  0.00000000000E+00 0. -1.
         -2   -1    0    0    0  501 -0.00000000000E+00 -0.00000000000E+00 -0.30855448692E+02  0.30855448692E+02  0.00000000000E+00 0.  1.
         24    1    1    2    0    0 -0.39583101692E+01 -0.15838266088E+02  0.26014987696E+03  0.27278506801E+03  0.80419002446E+02 0. -1.
        -24    1    1    2    0    0  0.39583101692E+01  0.15838266088E+02  0.44067729406E+02  0.93143435740E+02  0.80419002446E+02 0.  1.
<mgrwt>
<rscale>  0 0.82059337E+02</rscale>
<asrwt>0</asrwt>
<pdfrwt beam="1">  1        2 0.51549698E-01 0.82059337E+02</pdfrwt>
<pdfrwt beam="2">  1       -2 0.47469923E-02 0.82059337E+02</pdfrwt>
<totfact> 0.18314932E+04</totfact>
</mgrwt>
</event>
<event>
 4    1  0.4938540E-001  0.1027091E+03  0.7546771E-02  0.1274700E+00
         -1   -1    0    0    0  501 -0.00000000000E+00  0.00000000000E+00  0.94873503737E+02  0.94873503737E+02  0.00000000000E+00 0.  1.
          1   -1    0    0  501    0  0.00000000000E+00 -0.00000000000E+00 -0.11543776313E+03  0.11543776313E+03  0.00000000000E+00 0. -1.
         24    1    1    2    0    0  0.29444234150E+02  0.56700822044E+02  0.98849598530E+01  0.10318369314E+03  0.80419002446E+02 0.  0.
        -24    1    1    2    0    0 -0.29444234150E+02 -0.56700822044E+02 -0.30449219249E+02  0.10712757373E+03  0.80419002446E+02 0. -1.
<mgrwt>
<rscale>  0 0.10270911E+03</rscale>
<asrwt>0</asrwt>
<pdfrwt beam="1">  1        1 0.17759656E-01 0.10270911E+03</pdfrwt>
<pdfrwt beam="2">  1       -1 0.14595924E-01 0.10270911E+03</pdfrwt>
<totfact> 0.92101494E+03</totfact>
</mgrwt>
</event>
<event>
 4    1  0.4938540E-001  0.8393138E+02  0.7546771E-02  0.1318251E+00
         -1   -1    0    0    0  501 -0.00000000000E+00  0.00000000000E+00  0.20443976975E+01  0.20443976975E+01  0.00000000000E+00 0.  1.
          1   -1    0    0  501    0  0.00000000000E+00 -0.00000000000E+00 -0.43102064384E+04  0.43102064384E+04  0.00000000000E+00 0. -1.
         24    1    1    2    0    0 -0.26591453368E+01 -0.23878646594E+02 -0.11884808123E+04  0.11914407740E+04  0.80419002446E+02 0.  1.
        -24    1    1    2    0    0  0.26591453368E+01  0.23878646594E+02 -0.31196812284E+04  0.31208100621E+04  0.80419002446E+02 0. -1.
<mgrwt>
<rscale>  0 0.83931381E+02</rscale>
<asrwt>0</asrwt>
<pdfrwt beam="1">  1        1 0.66310063E+00 0.83931381E+02</pdfrwt>
<pdfrwt beam="2">  1       -1 0.31452654E-03 0.83931381E+02</pdfrwt>
<totfact> 0.69799678E+02</totfact>
</mgrwt>
</event>
<event>
 4    1  0.4938540E-001  0.1009296E+03  0.7546771E-02  0.1278353E+00
          1   -1    0    0  501    0  0.00000000000E+00  0.00000000000E+00  0.71014896358E+03  0.71014896358E+03  0.00000000000E+00 0. -1.
         -1   -1    0    0    0  501 -0.00000000000E+00 -0.00000000000E+00 -0.38238225764E+02  0.38238225764E+02  0.00000000000E+00 0.  1.
         24    1    1    2    0    0  0.46513750666E+02  0.39446562015E+02  0.40161715279E+02  0.10862660625E+03  0.80419002446E+02 0.  1.
        -24    1    1    2    0    0 -0.46513750666E+02 -0.39446562015E+02  0.63174902254E+03  0.63976058310E+03  0.80419002446E+02 0. -1.
<mgrwt>
<rscale>  0 0.10092956E+03</rscale>
<asrwt>0</asrwt>
<pdfrwt beam="1">  1        1 0.10925368E+00 0.10092956E+03</pdfrwt>
<pdfrwt beam="2">  1       -1 0.58828045E-02 0.10092956E+03</pdfrwt>
<totfact> 0.36585574E+03</totfact>
</mgrwt>
</event>
<event>
 4    1  0.4938540E-001  0.9347311E+02  0.7546771E-02  0.1294653E+00
          2   -1    0    0  501    0  0.00000000000E+00  0.00000000000E+00  0.86665356345E+03  0.86665356345E+03  0.00000000000E+00 0. -1.
         -2   -1    0    0    0  501 -0.00000000000E+00 -0.00000000000E+00 -0.10631504367E+02  0.10631504367E+02  0.00000000000E+00 0.  1.
         24    1    1    2    0    0  0.30886711822E+02 -0.36276883703E+02  0.32824699966E+03  0.34129651331E+03  0.80419002446E+02 0.  1.
        -24    1    1    2    0    0 -0.30886711822E+02  0.36276883703E+02  0.52777505942E+03  0.53598855451E+03  0.80419002446E+02 0.  1.
<mgrwt>
<rscale>  0 0.93473095E+02</rscale>
<asrwt>0</asrwt>
<pdfrwt beam="1">  1        2 0.13333126E+00 0.93473106E+02</pdfrwt>
<pdfrwt beam="2">  1       -2 0.16356167E-02 0.93473106E+02</pdfrwt>
<totfact> 0.30267193E+04</totfact>
</mgrwt>
</event>
<event>
 4    1  0.4938540E-001  0.8352319E+02  0.7546771E-02  0.1319340E+00
          2   -1    0    0  501    0  0.00000000000E+00  0.00000000000E+00  0.58324595933E+03  0.58324595933E+03  0.00000000000E+00 0. -1.
         -2   -1    0    0    0  501 -0.00000000000E+00 -0.00000000000E+00 -0.12159176068E+03  0.12159176068E+03  0.00000000000E+00 0.  1.
         24    1    1    2    0    0 -0.18782992379E+02  0.12494281620E+02  0.56546379063E+03  0.57159900485E+03  0.80419002446E+02 0.  0.
        -24    1    1    2    0    0  0.18782992379E+02 -0.12494281620E+02 -0.10380959198E+03  0.13323871516E+03  0.80419002446E+02 0.  1.
<mgrwt>
<rscale>  0 0.83523193E+02</rscale>
<asrwt>0</asrwt>
<pdfrwt beam="1">  1        2 0.89730146E-01 0.83523193E+02</pdfrwt>
<pdfrwt beam="2">  1       -2 0.18706425E-01 0.83523193E+02</pdfrwt>
<totfact> 0.12108529E+03</totfact>
</mgrwt>
</event>
<event>
 4    1  0.4938540E-001  0.9010028E+02  0.7546771E-02  0.1302609E+00
          1   -1    0    0  501    0  0.00000000000E+00  0.00000000000E+00  0.71541731976E+02  0.71541731976E+02  0.00000000000E+00 0. -1.
         -1   -1    0    0    0  501 -0.00000000000E+00 -0.00000000000E+00 -0.11485708276E+03  0.11485708276E+03  0.00000000000E+00 0.  1.
         24    1    1    2    0    0  0.39105974969E+02  0.11025608468E+02 -0.11426861190E+02  0.90821971083E+02  0.80419002446E+02 0.  1.
        -24    1    1    2    0    0 -0.39105974969E+02 -0.11025608468E+02 -0.31888489598E+02  0.95576843658E+02  0.80419002446E+02 0. -1.
<mgrwt>
<rscale>  0 0.90100274E+02</rscale>
<asrwt>0</asrwt>
<pdfrwt beam="1">  1        1 0.11006420E-01 0.90100285E+02</pdfrwt>
<pdfrwt beam="2">  1       -1 0.17670320E-01 0.90100285E+02</pdfrwt>
<totfact> 0.12492572E+04</totfact>
</mgrwt>
</event>
<event>
 4    1  0.4938540E-001  0.8579670E+02  0.7546771E-02  0.1313362E+00
          3   -1    0    0  501    0  0.00000000000E+00  0.00000000000E+00  0.43231220551E+02  0.43231220551E+02  0.00000000000E+00 0. -1.
         -3   -1    0    0    0  501 -0.00000000000E+00 -0.00000000000E+00 -0.25780045813E+03  0.25780045813E+03  0.00000000000E+00 0.  1.
         24    1    1    2    0    0  0.28095222390E+01  0.29765161139E+02 -0.19498763989E+03  0.21302876307E+03  0.80419002446E+02 0.  1.
        -24    1    1    2    0    0 -0.28095222390E+01 -0.29765161139E+02 -0.19581597690E+02  0.88002915607E+02  0.80419002446E+02 0. -1.
<mgrwt>
<rscale>  0 0.85796703E+02</rscale>
<asrwt>0</asrwt>
<pdfrwt beam="1">  1        3 0.66509571E-02 0.85796703E+02</pdfrwt>
<pdfrwt beam="2">  1       -3 0.39661608E-01 0.85796703E+02</pdfrwt>
<totfact> 0.19122245E+03</totfact>
</mgrwt>
</event>
<event>
 4    1  0.4938540E-001  0.8723041E+02  0.7546771E-02  0.1309701E+00
          1   -1    0    0  501    0  0.00000000000E+00  0.00000000000E+00  0.10959362443E+03  0.10959362443E+03  0.00000000000E+00 0. -1.
         -1   -1    0    0    0  501 -0.00000000000E+00 -0.00000000000E+00 -0.85050235514E+02  0.85050235514E+02  0.00000000000E+00 0.  1.
         24    1    1    2    0    0  0.10918423378E+02 -0.31979868845E+02  0.53978777479E+02  0.10258093562E+03  0.80419002446E+02 0.  0.
        -24    1    1    2    0    0 -0.10918423378E+02  0.31979868845E+02 -0.29435388564E+02  0.92062924322E+02  0.80419002446E+02 0.  1.
<mgrwt>
<rscale>  0 0.87230395E+02</rscale>
<asrwt>0</asrwt>
<pdfrwt beam="1">  1        1 0.16860558E-01 0.87230406E+02</pdfrwt>
<pdfrwt beam="2">  1       -1 0.13084652E-01 0.87230406E+02</pdfrwt>
<totfact> 0.11470028E+04</totfact>
</mgrwt>
</event>
<event>
 4    1  0.4938540E-001  0.8581878E+02  0.7546771E-02  0.1313305E+00
          2   -1    0    0  501    0  0.00000000000E+00  0.00000000000E+00  0.12066985362E+04  0.12066985362E+04  0.00000000000E+00 0. -1.
         -2   -1    0    0    0  501 -0.00000000000E+00 -0.00000000000E+00 -0.61431819730E+01  0.61431819730E+01  0.00000000000E+00 0.  1.
         24    1    1    2    0    0 -0.11034238365E+02  0.27854843827E+02  0.64912915062E+03  0.65477745600E+03  0.80419002446E+02 0. -1.
        -24    1    1    2    0    0  0.11034238365E+02 -0.27854843827E+02  0.55142620361E+03  0.55806426218E+03  0.80419002446E+02 0.  1.
<mgrwt>
<rscale>  0 0.85818778E+02</rscale>
<asrwt>0</asrwt>
<pdfrwt beam="1">  1        2 0.18564574E+00 0.85818778E+02</pdfrwt>
<pdfrwt beam="2">  1       -2 0.94510588E-03 0.85818778E+02</pdfrwt>
<totfact> 0.41551751E+04</totfact>
</mgrwt>
</event>
<event>
 4    1  0.4938540E-001  0.1074429E+03  0.7546771E-02  0.1265380E+00
          2   -1    0    0  501    0  0.00000000000E+00  0.00000000000E+00  0.21132794110E+04  0.21132794110E+04  0.00000000000E+00 0. -1.
         -2   -1    0    0    0  501 -0.00000000000E+00 -0.00000000000E+00 -0.82458981254E+01  0.82458981254E+01  0.00000000000E+00 0.  1.
         24    1    1    2    0    0 -0.51630371153E+02  0.49102515440E+02  0.16687998877E+04  0.16722550742E+04  0.80419002446E+02 0. -1.
        -24    1    1    2    0    0  0.51630371153E+02 -0.49102515440E+02  0.43623362516E+03  0.44927023485E+03  0.80419002446E+02 0.  1.
<mgrwt>
<rscale>  0 0.10744286E+03</rscale>
<asrwt>0</asrwt>
<pdfrwt beam="1">  1        2 0.32511948E+00 0.10744286E+03</pdfrwt>
<pdfrwt beam="2">  1       -2 0.12686014E-02 0.10744286E+03</pdfrwt>
<totfact> 0.95450661E+03</totfact>
</mgrwt>
</event>
<event>
 4    1  0.4938540E-001  0.8061626E+02  0.7546771E-02  0.1327312E+00
          1   -1    0    0  501    0  0.00000000000E+00  0.00000000000E+00  0.19408600217E+03  0.19408600217E+03  0.00000000000E+00 0. -1.
         -1   -1    0    0    0  501 -0.00000000000E+00 -0.00000000000E+00 -0.41320418226E+02  0.41320418226E+02  0.00000000000E+00 0.  1.
         24    1    1    2    0    0  0.44563961844E+01 -0.34503867131E+01  0.25127878865E+02  0.84441641896E+02  0.80419002446E+02 0.  1.
        -24    1    1    2    0    0 -0.44563961844E+01  0.34503867131E+01  0.12763770508E+03  0.15096477850E+03  0.80419002446E+02 0.  0.
<mgrwt>
<rscale>  0 0.80616255E+02</rscale>
<asrwt>0</asrwt>
<pdfrwt beam="1">  1        1 0.29859384E-01 0.80616255E+02</pdfrwt>
<pdfrwt beam="2">  1       -1 0.63569875E-02 0.80616255E+02</pdfrwt>
<totfact> 0.16499005E+04</totfact>
</mgrwt>
</event>
<event>
 4    1  0.4938540E-001  0.8462937E+02  0.7546771E-02  0.1316405E+00
         -4   -1    0    0    0  501 -0.00000000000E+00  0.00000000000E+00  0.13590275521E+04  0.13590275521E+04  0.00000000000E+00 0.  1.
          4   -1    0    0  501    0  0.00000000000E+00 -0.00000000000E+00 -0.79455045186E+01  0.79455045186E+01  0.00000000000E+00 0. -1.
         24    1    1    2    0    0 -0.52440683736E+01  0.25834370133E+02  0.27892638644E+03  0.29148252082E+03  0.80419002446E+02 0.  0.
        -24    1    1    2    0    0  0.52440683736E+01 -0.25834370133E+02  0.10721556611E+04  0.10754905358E+04  0.80419002446E+02 0. -1.
<mgrwt>
<rscale>  0 0.84629374E+02</rscale>
<asrwt>0</asrwt>
<pdfrwt beam="1">  1        4 0.12223864E-02 0.84629374E+02</pdfrwt>
<pdfrwt beam="2">  1       -4 0.20908098E+00 0.84629374E+02</pdfrwt>
<totfact> 0.42373649E+02</totfact>
</mgrwt>
</event>
<event>
 4    1  0.4938540E-001  0.9933857E+02  0.7546771E-02  0.1281693E+00
          1   -1    0    0  501    0  0.00000000000E+00  0.00000000000E+00  0.79248441931E+03  0.79248441931E+03  0.00000000000E+00 0. -1.
         -1   -1    0    0    0  501 -0.00000000000E+00 -0.00000000000E+00 -0.45515918919E+02  0.45515918919E+02  0.00000000000E+00 0.  1.
         24    1    1    2    0    0  0.57546521075E+02  0.94516202698E+01  0.16368845867E+02  0.10067815196E+03  0.80419002446E+02 0.  1.
        -24    1    1    2    0    0 -0.57546521075E+02 -0.94516202698E+01  0.73059965453E+03  0.73732218627E+03  0.80419002446E+02 0. -1.
<mgrwt>
<rscale>  0 0.99338568E+02</rscale>
<asrwt>0</asrwt>
<pdfrwt beam="1">  1        1 0.12192067E+00 0.99338568E+02</pdfrwt>
<pdfrwt beam="2">  1       -1 0.70024497E-02 0.99338568E+02</pdfrwt>
<totfact> 0.24092374E+03</totfact>
</mgrwt>
</event>
<event>
 4    1  0.4938540E-001  0.8704478E+02  0.7546771E-02  0.1310170E+00
          2   -1    0    0  501    0  0.00000000000E+00  0.00000000000E+00  0.13354190976E+04  0.13354190976E+04  0.00000000000E+00 0. -1.
         -2   -1    0    0    0  501 -0.00000000000E+00 -0.00000000000E+00 -0.11570499653E+02  0.11570499653E+02  0.00000000000E+00 0.  1.
         24    1    1    2    0    0 -0.15359559928E+02  0.29557776687E+02  0.11427256006E+04  0.11460360346E+04  0.80419002446E+02 0. -1.
        -24    1    1    2    0    0  0.15359559928E+02 -0.29557776687E+02  0.18112299733E+03  0.20095356270E+03  0.80419002446E+02 0.  1.
<mgrwt>
<rscale>  0 0.87044783E+02</rscale>
<asrwt>0</asrwt>
<pdfrwt beam="1">  1        2 0.20544897E+00 0.87044783E+02</pdfrwt>
<pdfrwt beam="2">  1       -2 0.17800779E-02 0.87044783E+02</pdfrwt>
<totfact> 0.14457959E+04</totfact>
</mgrwt>
</event>
<event>
 4    1  0.4938540E-001  0.8985432E+02  0.7546771E-02  0.1303205E+00
          1   -1    0    0  501    0  0.00000000000E+00  0.00000000000E+00  0.26864047930E+03  0.26864047930E+03  0.00000000000E+00 0. -1.
         -1   -1    0    0    0  501 -0.00000000000E+00 -0.00000000000E+00 -0.43739523478E+02  0.43739523478E+02  0.00000000000E+00 0.  1.
         24    1    1    2    0    0 -0.19178303942E+02  0.35196248763E+02  0.25084510583E+02  0.93290041776E+02  0.80419002446E+02 0.  1.
        -24    1    1    2    0    0  0.19178303942E+02 -0.35196248763E+02  0.19981644524E+03  0.21908996100E+03  0.80419002446E+02 0. -1.
<mgrwt>
<rscale>  0 0.89854322E+02</rscale>
<asrwt>0</asrwt>
<pdfrwt beam="1">  1        1 0.41329303E-01 0.89854322E+02</pdfrwt>
<pdfrwt beam="2">  1       -1 0.67291576E-02 0.89854322E+02</pdfrwt>
<totfact> 0.10314257E+04</totfact>
</mgrwt>
</event>
<event>
 4    1  0.4938540E-001  0.1508257E+03  0.7546771E-02  0.1199462E+00
         -2   -1    0    0    0  501 -0.00000000000E+00  0.00000000000E+00  0.41372847891E+02  0.41372847891E+02  0.00000000000E+00 0.  1.
          2   -1    0    0  501    0  0.00000000000E+00 -0.00000000000E+00 -0.22951411627E+04  0.22951411627E+04  0.00000000000E+00 0. -1.
         24    1    1    2    0    0  0.37455535809E+01 -0.12754277817E+03 -0.21456374047E+04  0.21509319557E+04  0.80419002446E+02 0. -1.
        -24    1    1    2    0    0 -0.37455535809E+01  0.12754277817E+03 -0.10813091008E+03  0.18558205491E+03  0.80419002446E+02 0.  1.
<mgrwt>
<rscale>  0 0.15082575E+03</rscale>
<asrwt>0</asrwt>
<pdfrwt beam="1">  1        2 0.35309871E+00 0.15082575E+03</pdfrwt>
<pdfrwt beam="2">  1       -2 0.63650523E-02 0.15082575E+03</pdfrwt>
<totfact> 0.71833392E+02</totfact>
</mgrwt>
</event>
<event>
 4    1  0.4938540E-001  0.9082167E+02  0.7546771E-02  0.1300874E+00
         -2   -1    0    0    0  501 -0.00000000000E+00  0.00000000000E+00  0.80897051875E+01  0.80897051875E+01  0.00000000000E+00 0.  1.
          2   -1    0    0  501    0  0.00000000000E+00 -0.00000000000E+00 -0.10547715687E+04  0.10547715687E+04  0.00000000000E+00 0. -1.
         24    1    1    2    0    0  0.35223508622E+02 -0.23252099276E+02 -0.42635072409E+03  0.43591686314E+03  0.80419002446E+02 0.  1.
        -24    1    1    2    0    0 -0.35223508622E+02  0.23252099276E+02 -0.62033113943E+03  0.62694441076E+03  0.80419002446E+02 0. -1.
<mgrwt>
<rscale>  0 0.90821659E+02</rscale>
<asrwt>0</asrwt>
<pdfrwt beam="1">  1        2 0.16227261E+00 0.90821670E+02</pdfrwt>
<pdfrwt beam="2">  1       -2 0.12445696E-02 0.90821670E+02</pdfrwt>
<totfact> 0.34362047E+04</totfact>
</mgrwt>
</event>
<event>
 4    1  0.4938540E-001  0.9331139E+02  0.7546771E-02  0.1295025E+00
          1   -1    0    0  501    0  0.00000000000E+00  0.00000000000E+00  0.25349479719E+03  0.25349479719E+03  0.00000000000E+00 0. -1.
         -1   -1    0    0    0  501 -0.00000000000E+00 -0.00000000000E+00 -0.11814791492E+03  0.11814791492E+03  0.00000000000E+00 0.  1.
         24    1    1    2    0    0  0.37502257177E+02 -0.28868334198E+02 -0.88823056143E+02  0.12882760290E+03  0.80419002446E+02 0.  1.
        -24    1    1    2    0    0 -0.37502257177E+02  0.28868334198E+02  0.22416993841E+03  0.24281510920E+03  0.80419002446E+02 0. -1.
<mgrwt>
<rscale>  0 0.93311392E+02</rscale>
<asrwt>0</asrwt>
<pdfrwt beam="1">  1        1 0.38999199E-01 0.93311392E+02</pdfrwt>
<pdfrwt beam="2">  1       -1 0.18176602E-01 0.93311392E+02</pdfrwt>
<totfact> 0.24462312E+03</totfact>
</mgrwt>
</event>
<event>
 4    1  0.4938540E-001  0.8173828E+02  0.7546771E-02  0.1324190E+00
         -1   -1    0    0    0  501 -0.00000000000E+00  0.00000000000E+00  0.14351305867E+02  0.14351305867E+02  0.00000000000E+00 0.  1.
          1   -1    0    0  501    0  0.00000000000E+00 -0.00000000000E+00 -0.51386118538E+03  0.51386118538E+03  0.00000000000E+00 0. -1.
         24    1    1    2    0    0 -0.94590149831E+01  0.11156043245E+02 -0.16876851032E+03  0.18752054899E+03  0.80419002446E+02 0.  0.
        -24    1    1    2    0    0  0.94590149831E+01 -0.11156043245E+02 -0.33074136920E+03  0.34069194226E+03  0.80419002446E+02 0. -1.
<mgrwt>
<rscale>  0 0.81738279E+02</rscale>
<asrwt>0</asrwt>
<pdfrwt beam="1">  1        1 0.79055550E-01 0.81738279E+02</pdfrwt>
<pdfrwt beam="2">  1       -1 0.22078937E-02 0.81738279E+02</pdfrwt>
<totfact> 0.23016291E+04</totfact>
</mgrwt>
</event>
<event>
 4    1  0.4938540E-001  0.9526144E+02  0.7546771E-02  0.1290588E+00
         -1   -1    0    0    0  501 -0.00000000000E+00  0.00000000000E+00  0.13360518070E+03  0.13360518070E+03  0.00000000000E+00 0.  1.
          1   -1    0    0  501    0  0.00000000000E+00 -0.00000000000E+00 -0.12893311214E+03  0.12893311214E+03  0.00000000000E+00 0. -1.
         24    1    1    2    0    0  0.42709689694E+02  0.27989447871E+02  0.92635376911E+02  0.13287609189E+03  0.80419002446E+02 0.  1.
        -24    1    1    2    0    0 -0.42709689694E+02 -0.27989447871E+02 -0.87963308347E+02  0.12966220095E+03  0.80419002446E+02 0. -1.
<mgrwt>
<rscale>  0 0.95261444E+02</rscale>
<asrwt>0</asrwt>
<pdfrwt beam="1">  1        1 0.19835863E-01 0.95261444E+02</pdfrwt>
<pdfrwt beam="2">  1       -1 0.20554643E-01 0.95261444E+02</pdfrwt>
<totfact> 0.46477444E+03</totfact>
</mgrwt>
</event>
<event>
 4    1  0.4938540E-001  0.8187762E+02  0.7546771E-02  0.1323806E+00
         -2   -1    0    0    0  501 -0.00000000000E+00  0.00000000000E+00  0.55991434880E+02  0.55991434880E+02  0.00000000000E+00 0.  1.
          2   -1    0    0  501    0  0.00000000000E+00 -0.00000000000E+00 -0.15563497684E+03  0.15563497684E+03  0.00000000000E+00 0. -1.
         24    1    1    2    0    0 -0.12559708507E+02  0.88869720062E+01  0.10005278406E+01  0.81883707534E+02  0.80419002446E+02 0.  0.
        -24    1    1    2    0    0  0.12559708507E+02 -0.88869720062E+01 -0.10064406980E+03  0.12974270419E+03  0.80419002446E+02 0. -1.
<mgrwt>
<rscale>  0 0.81877605E+02</rscale>
<asrwt>0</asrwt>
<pdfrwt beam="1">  1        2 0.23943843E-01 0.81877615E+02</pdfrwt>
<pdfrwt beam="2">  1       -2 0.86140669E-02 0.81877615E+02</pdfrwt>
<totfact> 0.16819918E+04</totfact>
</mgrwt>
</event>
<event>
 4    1  0.4938540E-001  0.1147421E+03  0.7546771E-02  0.1252032E+00
         -2   -1    0    0    0  501 -0.00000000000E+00  0.00000000000E+00  0.57220772931E+01  0.57220772931E+01  0.00000000000E+00 0.  1.
          2   -1    0    0  501    0  0.00000000000E+00 -0.00000000000E+00 -0.28746671027E+04  0.28746671027E+04  0.00000000000E+00 0. -1.
         24    1    1    2    0    0  0.67963712286E+02  0.45601055496E+02 -0.20779120356E+04  0.20810776454E+04  0.80419002446E+02 0. -1.
        -24    1    1    2    0    0 -0.67963712286E+02 -0.45601055496E+02 -0.79103298978E+03  0.79931153459E+03  0.80419002446E+02 0.  1.
<mgrwt>
<rscale>  0 0.11474205E+03</rscale>
<asrwt>0</asrwt>
<pdfrwt beam="1">  1        2 0.44225770E+00 0.11474205E+03</pdfrwt>
<pdfrwt beam="2">  1       -2 0.88031715E-03 0.11474205E+03</pdfrwt>
<totfact> 0.63379549E+03</totfact>
</mgrwt>
</event>
<event>
 4    1  0.4938540E-001  0.1158868E+03  0.7546771E-02  0.1250041E+00
         -1   -1    0    0    0  501 -0.00000000000E+00  0.00000000000E+00  0.23569155213E+02  0.23569155213E+02  0.00000000000E+00 0.  1.
          1   -1    0    0  501    0  0.00000000000E+00 -0.00000000000E+00 -0.59315230427E+03  0.59315230427E+03  0.00000000000E+00 0. -1.
         24    1    1    2    0    0 -0.83441395255E+02  0.26656142861E+00 -0.22360987092E+03  0.25185537084E+03  0.80419002446E+02 0.  1.
        -24    1    1    2    0    0  0.83441395255E+02 -0.26656142861E+00 -0.34597327814E+03  0.36486608864E+03  0.80419002446E+02 0. -1.
<mgrwt>
<rscale>  0 0.11588681E+03</rscale>
<asrwt>0</asrwt>
<pdfrwt beam="1">  1        1 0.91254186E-01 0.11588681E+03</pdfrwt>
<pdfrwt beam="2">  1       -1 0.36260244E-02 0.11588681E+03</pdfrwt>
<totfact> 0.96175264E+03</totfact>
</mgrwt>
</event>
<event>
 4    1  0.4938540E-001  0.9209316E+02  0.7546771E-02  0.1297861E+00
         -1   -1    0    0    0  501 -0.00000000000E+00  0.00000000000E+00  0.20351464244E+02  0.20351464244E+02  0.00000000000E+00 0.  1.
          1   -1    0    0  501    0  0.00000000000E+00 -0.00000000000E+00 -0.44179884997E+03  0.44179884997E+03  0.00000000000E+00 0. -1.
         24    1    1    2    0    0 -0.38903666568E+02  0.22370410123E+02 -0.26576310503E+03  0.28126708743E+03  0.80419002446E+02 0.  1.
        -24    1    1    2    0    0  0.38903666568E+02 -0.22370410123E+02 -0.15568428069E+03  0.18088322678E+03  0.80419002446E+02 0.  0.
<mgrwt>
<rscale>  0 0.92093152E+02</rscale>
<asrwt>0</asrwt>
<pdfrwt beam="1">  1        1 0.67969048E-01 0.92093163E+02</pdfrwt>
<pdfrwt beam="2">  1       -1 0.31309948E-02 0.92093163E+02</pdfrwt>
<totfact> 0.17113744E+04</totfact>
</mgrwt>
</event>
<event>
 4    1  0.4938540E-001  0.1004799E+03  0.7546771E-02  0.1279290E+00
         -3   -1    0    0    0  501 -0.00000000000E+00  0.00000000000E+00  0.15642739424E+03  0.15642739424E+03  0.00000000000E+00 0.  1.
          3   -1    0    0  501    0  0.00000000000E+00 -0.00000000000E+00 -0.73517966859E+02  0.73517966859E+02  0.00000000000E+00 0. -1.
         24    1    1    2    0    0 -0.47656076442E+02  0.36849641083E+02  0.81627010598E+02  0.12945726122E+03  0.80419002446E+02 0.  0.
        -24    1    1    2    0    0  0.47656076442E+02 -0.36849641083E+02  0.12824167844E+01  0.10048809988E+03  0.80419002446E+02 0.  1.
<mgrwt>
<rscale>  0 0.10047992E+03</rscale>
<asrwt>0</asrwt>
<pdfrwt beam="1">  1        3 0.11310457E-01 0.10047992E+03</pdfrwt>
<pdfrwt beam="2">  1       -3 0.24065753E-01 0.10047992E+03</pdfrwt>
<totfact> 0.20937390E+03</totfact>
</mgrwt>
</event>
<event>
 4    1  0.4938540E-001  0.8257643E+02  0.7546771E-02  0.1321895E+00
          3   -1    0    0  501    0  0.00000000000E+00  0.00000000000E+00  0.37497396703E+02  0.37497396703E+02  0.00000000000E+00 0. -1.
         -3   -1    0    0    0  501 -0.00000000000E+00 -0.00000000000E+00 -0.22255489812E+03  0.22255489812E+03  0.00000000000E+00 0.  1.
         24    1    1    2    0    0 -0.25021719600E+01 -0.18584673657E+02 -0.14813714895E+03  0.16959800062E+03  0.80419002446E+02 0.  1.
        -24    1    1    2    0    0  0.25021719600E+01  0.18584673657E+02 -0.36920352463E+02  0.90454294203E+02  0.80419002446E+02 0.  0.
<mgrwt>
<rscale>  0 0.82576431E+02</rscale>
<asrwt>0</asrwt>
<pdfrwt beam="1">  1        3 0.57688302E-02 0.82576431E+02</pdfrwt>
<pdfrwt beam="2">  1       -3 0.34239216E-01 0.82576431E+02</pdfrwt>
<totfact> 0.31329850E+03</totfact>
</mgrwt>
</event>
<event>
 4    1  0.4938540E-001  0.8446990E+02  0.7546771E-02  0.1316825E+00
          2   -1    0    0  501    0  0.00000000000E+00  0.00000000000E+00  0.12300338840E+04  0.12300338840E+04  0.00000000000E+00 0. -1.
         -2   -1    0    0    0  501 -0.00000000000E+00 -0.00000000000E+00 -0.78300766202E+01  0.78300766202E+01  0.00000000000E+00 0.  1.
         24    1    1    2    0    0  0.24442242500E+02  0.83977068305E+01  0.29601360543E+03  0.30782984789E+03  0.80419002446E+02 0.  1.
        -24    1    1    2    0    0 -0.24442242500E+02 -0.83977068305E+01  0.92619020195E+03  0.93003411273E+03  0.80419002446E+02 0.  0.
<mgrwt>
<rscale>  0 0.84469891E+02</rscale>
<asrwt>0</asrwt>
<pdfrwt beam="1">  1        2 0.18923583E+00 0.84469901E+02</pdfrwt>
<pdfrwt beam="2">  1       -2 0.12046281E-02 0.84469901E+02</pdfrwt>
<totfact> 0.28596291E+04</totfact>
</mgrwt>
</event>
<event>
 4    1  0.4938540E-001  0.8711740E+02  0.7546771E-02  0.1309986E+00
          2   -1    0    0  501    0  0.00000000000E+00  0.00000000000E+00  0.29614458290E+03  0.29614458290E+03  0.00000000000E+00 0. -1.
         -2   -1    0    0    0  501 -0.00000000000E+00 -0.00000000000E+00 -0.48805252833E+02  0.48805252833E+02  0.00000000000E+00 0.  1.
         24    1    1    2    0    0 -0.31444457496E+02 -0.11552976361E+02  0.24252767620E+03  0.25769966016E+03  0.80419002446E+02 0. -1.
        -24    1    1    2    0    0  0.31444457496E+02  0.11552976361E+02  0.48116538684E+01  0.87250175572E+02  0.80419002446E+02 0.  1.
<mgrwt>
<rscale>  0 0.87117399E+02</rscale>
<asrwt>0</asrwt>
<pdfrwt beam="1">  1        2 0.45560704E-01 0.87117399E+02</pdfrwt>
<pdfrwt beam="2">  1       -2 0.75085006E-02 0.87117399E+02</pdfrwt>
<totfact> 0.10544681E+04</totfact>
</mgrwt>
</event>
<event>
 4    1  0.4938540E-001  0.9950195E+02  0.7546771E-02  0.1281347E+00
          2   -1    0    0  501    0  0.00000000000E+00  0.00000000000E+00  0.34902012946E+03  0.34902012946E+03  0.00000000000E+00 0. -1.
         -2   -1    0    0    0  501 -0.00000000000E+00 -0.00000000000E+00 -0.35277062421E+02  0.35277062421E+02  0.00000000000E+00 0.  1.
         24    1    1    2    0    0 -0.58511553138E+02 -0.31336898842E+01  0.24191353092E+03  0.26157751099E+03  0.80419002446E+02 0. -1.
        -24    1    1    2    0    0  0.58511553138E+02  0.31336898842E+01  0.71829536121E+02  0.12271968089E+03  0.80419002446E+02 0.  1.
<mgrwt>
<rscale>  0 0.99501949E+02</rscale>
<asrwt>0</asrwt>
<pdfrwt beam="1">  1        2 0.53695402E-01 0.99501949E+02</pdfrwt>
<pdfrwt beam="2">  1       -2 0.54272406E-02 0.99501949E+02</pdfrwt>
<totfact> 0.14657811E+04</totfact>
</mgrwt>
</event>
<event>
 4    1  0.4938540E-001  0.8440826E+02  0.7546771E-02  0.1316987E+00
          2   -1    0    0  501    0  0.00000000000E+00  0.00000000000E+00  0.34590713155E+04  0.34590713155E+04  0.00000000000E+00 0. -1.
         -2   -1    0    0    0  501 -0.00000000000E+00 -0.00000000000E+00 -0.11607065984E+02  0.11607065984E+02  0.00000000000E+00 0.  1.
         24    1    1    2    0    0  0.68601842780E+01 -0.24707824245E+02  0.32975853930E+04  0.32986655148E+04  0.80419002446E+02 0. -1.
        -24    1    1    2    0    0 -0.68601842780E+01  0.24707824245E+02  0.14987885654E+03  0.17201286667E+03  0.80419002446E+02 0.  1.
<mgrwt>
<rscale>  0 0.84408262E+02</rscale>
<asrwt>0</asrwt>
<pdfrwt beam="1">  1        2 0.53216400E+00 0.84408262E+02</pdfrwt>
<pdfrwt beam="2">  1       -2 0.17857052E-02 0.84408262E+02</pdfrwt>
<totfact> 0.10492078E+03</totfact>
</mgrwt>
</event>
<event>
 4    1  0.4938540E-001  0.8228428E+02  0.7546771E-02  0.1322691E+00
         -2   -1    0    0    0  501 -0.00000000000E+00  0.00000000000E+00  0.49926845276E+02  0.49926845276E+02  0.00000000000E+00 0.  1.
          2   -1    0    0  501    0  0.00000000000E+00 -0.00000000000E+00 -0.21802642382E+03  0.21802642382E+03  0.00000000000E+00 0. -1.
         24    1    1    2    0    0 -0.13945520372E+02  0.10440772293E+02 -0.16642088665E+03  0.18565186434E+03  0.80419002446E+02 0. -1.
        -24    1    1    2    0    0  0.13945520372E+02 -0.10440772293E+02 -0.16786918961E+01  0.82301404759E+02  0.80419002446E+02 0.  1.
<mgrwt>
<rscale>  0 0.82284283E+02</rscale>
<asrwt>0</asrwt>
<pdfrwt beam="1">  1        2 0.33542527E-01 0.82284283E+02</pdfrwt>
<pdfrwt beam="2">  1       -2 0.76810531E-02 0.82284283E+02</pdfrwt>
<totfact> 0.13965844E+04</totfact>
</mgrwt>
</event>
<event>
 4    1  0.4938540E-001  0.1062273E+03  0.7546771E-02  0.1267720E+00
          2   -1    0    0  501    0  0.00000000000E+00  0.00000000000E+00  0.22201316919E+04  0.22201316919E+04  0.00000000000E+00 0. -1.
         -2   -1    0    0    0  501 -0.00000000000E+00 -0.00000000000E+00 -0.13087265376E+02  0.13087265376E+02  0.00000000000E+00 0.  1.
         24    1    1    2    0    0 -0.22092919615E+00  0.69404423840E+02  0.19767871717E+04  0.19796393008E+04  0.80419002446E+02 0. -1.
        -24    1    1    2    0    0  0.22092919615E+00 -0.69404423840E+02  0.23025725483E+03  0.25357965655E+03  0.80419002446E+02 0.  1.
<mgrwt>
<rscale>  0 0.10622730E+03</rscale>
<asrwt>0</asrwt>
<pdfrwt beam="1">  1        2 0.34155842E+00 0.10622730E+03</pdfrwt>
<pdfrwt beam="2">  1       -2 0.20134272E-02 0.10622730E+03</pdfrwt>
<totfact> 0.43368114E+03</totfact>
</mgrwt>
</event>
<event>
 4    1  0.4938540E-001  0.1603651E+03  0.7546771E-02  0.1188285E+00
          2   -1    0    0  501    0  0.00000000000E+00  0.00000000000E+00  0.59654394545E+03  0.59654394545E+03  0.00000000000E+00 0. -1.
         -2   -1    0    0    0  501 -0.00000000000E+00 -0.00000000000E+00 -0.45623486183E+02  0.45623486183E+02  0.00000000000E+00 0.  1.
         24    1    1    2    0    0 -0.12570476669E+03  0.58720127262E+02  0.35082524675E+03  0.38573995311E+03  0.80419002446E+02 0. -1.
        -24    1    1    2    0    0  0.12570476669E+03 -0.58720127262E+02  0.20009521251E+03  0.25642747852E+03  0.80419002446E+02 0.  1.
<mgrwt>
<rscale>  0 0.16036508E+03</rscale>
<asrwt>0</asrwt>
<pdfrwt beam="1">  1        2 0.91775986E-01 0.16036508E+03</pdfrwt>
<pdfrwt beam="2">  1       -2 0.70189983E-02 0.16036508E+03</pdfrwt>
<totfact> 0.57340830E+03</totfact>
</mgrwt>
</event>
<event>
 4    1  0.4938540E-001  0.8560385E+02  0.7546771E-02  0.1313861E+00
          2   -1    0    0  501    0  0.00000000000E+00  0.00000000000E+00  0.24367789019E+04  0.24367789019E+04  0.00000000000E+00 0. -1.
         -2   -1    0    0    0  501 -0.00000000000E+00 -0.00000000000E+00 -0.50737841284E+01  0.50737841284E+01  0.00000000000E+00 0.  1.
         24    1    1    2    0    0 -0.26753778641E+02 -0.12043166697E+02  0.19950438857E+04  0.19968795968E+04  0.80419002446E+02 0. -1.
        -24    1    1    2    0    0  0.26753778641E+02  0.12043166697E+02  0.43666123213E+03  0.44497308923E+03  0.80419002446E+02 0.  0.
<mgrwt>
<rscale>  0 0.85603846E+02</rscale>
<asrwt>0</asrwt>
<pdfrwt beam="1">  1        2 0.37488813E+00 0.85603846E+02</pdfrwt>
<pdfrwt beam="2">  1       -2 0.78058412E-03 0.85603846E+02</pdfrwt>
<totfact> 0.12854237E+04</totfact>
</mgrwt>
</event>
<event>
 4    1  0.4938540E-001  0.9287068E+02  0.7546771E-02  0.1296045E+00
          2   -1    0    0  501    0  0.00000000000E+00  0.00000000000E+00  0.67006151368E+02  0.67006151368E+02  0.00000000000E+00 0. -1.
         -2   -1    0    0    0  501 -0.00000000000E+00 -0.00000000000E+00 -0.19053989599E+03  0.19053989599E+03  0.00000000000E+00 0.  1.
         24    1    1    2    0    0  0.41418602951E+02  0.21029677598E+02  0.11583044004E+02  0.93590228513E+02  0.80419002446E+02 0. -1.
        -24    1    1    2    0    0 -0.41418602951E+02 -0.21029677598E+02 -0.13511678862E+03  0.16395581884E+03  0.80419002446E+02 0.  1.
<mgrwt>
<rscale>  0 0.92870684E+02</rscale>
<asrwt>0</asrwt>
<pdfrwt beam="1">  1        2 0.10308639E-01 0.92870684E+02</pdfrwt>
<pdfrwt beam="2">  1       -2 0.29313830E-01 0.92870684E+02</pdfrwt>
<totfact> 0.60473214E+03</totfact>
</mgrwt>
</event>
<event>
 4    1  0.4938540E-001  0.3277466E+03  0.7546771E-02  0.1072138E+00
          1   -1    0    0  501    0  0.00000000000E+00  0.00000000000E+00  0.12608978335E+04  0.12608978335E+04  0.00000000000E+00 0. -1.
         -1   -1    0    0    0  501 -0.00000000000E+00 -0.00000000000E+00 -0.95475895911E+02  0.95475895911E+02  0.00000000000E+00 0.  1.
         24    1    1    2    0    0  0.25968617502E+03  0.18306747574E+03  0.36012843248E+03  0.48693974371E+03  0.80419002446E+02 0. -1.
        -24    1    1    2    0    0 -0.25968617502E+03 -0.18306747574E+03  0.80529350515E+03  0.86943398575E+03  0.80419002446E+02 0.  1.
<mgrwt>
<rscale>  0 0.32774659E+03</rscale>
<asrwt>0</asrwt>
<pdfrwt beam="1">  1        1 0.19398427E+00 0.32774659E+03</pdfrwt>
<pdfrwt beam="2">  1       -1 0.14688600E-01 0.32774659E+03</pdfrwt>
<totfact> 0.34439243E+02</totfact>
</mgrwt>
</event>
<event>
 4    1  0.4938540E-001  0.8607962E+02  0.7546771E-02  0.1312633E+00
          2   -1    0    0  501    0  0.00000000000E+00  0.00000000000E+00  0.10091107103E+04  0.10091107103E+04  0.00000000000E+00 0. -1.
         -2   -1    0    0    0  501 -0.00000000000E+00 -0.00000000000E+00 -0.77484919735E+01  0.77484919735E+01  0.00000000000E+00 0.  1.
         24    1    1    2    0    0 -0.30521130626E+02  0.33083720748E+01  0.61701843517E+03  0.62299394060E+03  0.80419002446E+02 0.  0.
        -24    1    1    2    0    0  0.30521130626E+02 -0.33083720748E+01  0.38434378311E+03  0.39386526162E+03  0.80419002446E+02 0. -1.
<mgrwt>
<rscale>  0 0.86079618E+02</rscale>
<asrwt>0</asrwt>
<pdfrwt beam="1">  1        2 0.15524770E+00 0.86079618E+02</pdfrwt>
<pdfrwt beam="2">  1       -2 0.11920765E-02 0.86079618E+02</pdfrwt>
<totfact> 0.38601588E+04</totfact>
</mgrwt>
</event>
<event>
 4    1  0.4938540E-001  0.9893698E+02  0.7546771E-02  0.1282547E+00
         -1   -1    0    0    0  501 -0.00000000000E+00  0.00000000000E+00  0.37568995277E+03  0.37568995277E+03  0.00000000000E+00 0.  1.
          1   -1    0    0  501    0  0.00000000000E+00 -0.00000000000E+00 -0.71844099978E+02  0.71844099978E+02  0.00000000000E+00 0. -1.
         24    1    1    2    0    0  0.32352330925E+02 -0.47693142535E+02  0.33056450873E+03  0.34505277792E+03  0.80419002446E+02 0.  0.
        -24    1    1    2    0    0 -0.32352330925E+02  0.47693142535E+02 -0.26718655941E+02  0.10248127483E+03  0.80419002446E+02 0.  0.
<mgrwt>
<rscale>  0 0.98936975E+02</rscale>
<asrwt>0</asrwt>
<pdfrwt beam="1">  1        1 0.11052939E-01 0.98936975E+02</pdfrwt>
<pdfrwt beam="2">  1       -1 0.57798453E-01 0.98936975E+02</pdfrwt>
<totfact> 0.16857086E+03</totfact>
</mgrwt>
</event>
<event>
 4    1  0.4938540E-001  0.8861838E+02  0.7546771E-02  0.1306232E+00
          1   -1    0    0  501    0  0.00000000000E+00  0.00000000000E+00  0.89155481818E+03  0.89155481818E+03  0.00000000000E+00 0. -1.
         -1   -1    0    0    0  501 -0.00000000000E+00 -0.00000000000E+00 -0.93511087109E+01  0.93511087109E+01  0.00000000000E+00 0.  1.
         24    1    1    2    0    0  0.16933420926E+02 -0.33155087016E+02  0.33258902712E+03  0.34419279111E+03  0.80419002446E+02 0.  1.
        -24    1    1    2    0    0 -0.16933420926E+02  0.33155087016E+02  0.54961468235E+03  0.55671313578E+03  0.80419002446E+02 0. -1.
<mgrwt>
<rscale>  0 0.88618376E+02</rscale>
<asrwt>0</asrwt>
<pdfrwt beam="1">  1        1 0.13716221E+00 0.88618376E+02</pdfrwt>
<pdfrwt beam="2">  1       -1 0.14386328E-02 0.88618376E+02</pdfrwt>
<totfact> 0.19741414E+04</totfact>
</mgrwt>
</event>
<event>
 4    1  0.4938540E-001  0.1742856E+03  0.7546771E-02  0.1173451E+00
          2   -1    0    0  501    0  0.00000000000E+00  0.00000000000E+00  0.16068811103E+04  0.16068811103E+04  0.00000000000E+00 0. -1.
         -2   -1    0    0    0  501 -0.00000000000E+00 -0.00000000000E+00 -0.21955732634E+02  0.21955732634E+02  0.00000000000E+00 0.  1.
         24    1    1    2    0    0 -0.14349914191E+02  0.15395560300E+03  0.10961256933E+04  0.11098950397E+04  0.80419002446E+02 0. -1.
        -24    1    1    2    0    0  0.14349914191E+02 -0.15395560300E+03  0.48879968438E+03  0.51894180323E+03  0.80419002446E+02 0.  1.
<mgrwt>
<rscale>  0 0.17428558E+03</rscale>
<asrwt>0</asrwt>
<pdfrwt beam="1">  1        2 0.24721239E+00 0.17428558E+03</pdfrwt>
<pdfrwt beam="2">  1       -2 0.33778063E-02 0.17428558E+03</pdfrwt>
<totfact> 0.42203790E+03</totfact>
</mgrwt>
</event>
<event>
 4    1  0.4938540E-001  0.8733929E+02  0.7546771E-02  0.1309426E+00
          1   -1    0    0  501    0  0.00000000000E+00  0.00000000000E+00  0.35036540930E+02  0.35036540930E+02  0.00000000000E+00 0. -1.
         -1   -1    0    0    0  501 -0.00000000000E+00 -0.00000000000E+00 -0.43901595825E+03  0.43901595825E+03  0.00000000000E+00 0.  1.
         24    1    1    2    0    0  0.31665096152E+02 -0.12580041495E+02 -0.37027383162E+03  0.38043509578E+03  0.80419002446E+02 0.  1.
        -24    1    1    2    0    0 -0.31665096152E+02  0.12580041495E+02 -0.33705585694E+02  0.93617403402E+02  0.80419002446E+02 0. -1.
<mgrwt>
<rscale>  0 0.87339291E+02</rscale>
<asrwt>0</asrwt>
<pdfrwt beam="1">  1        1 0.53902368E-02 0.87339291E+02</pdfrwt>
<pdfrwt beam="2">  1       -1 0.67540919E-01 0.87339291E+02</pdfrwt>
<totfact> 0.32293266E+03</totfact>
</mgrwt>
</event>
<event>
 4    1  0.4938540E-001  0.1351780E+03  0.7546771E-02  0.1219969E+00
          2   -1    0    0  501    0  0.00000000000E+00  0.00000000000E+00  0.14295925785E+03  0.14295925785E+03  0.00000000000E+00 0. -1.
         -2   -1    0    0    0  501 -0.00000000000E+00 -0.00000000000E+00 -0.15367315450E+03  0.15367315450E+03  0.00000000000E+00 0.  1.
         24    1    1    2    0    0  0.63142527918E+02  0.88424539950E+02  0.55476708696E+02  0.14611899007E+03  0.80419002446E+02 0. -1.
        -24    1    1    2    0    0 -0.63142527918E+02 -0.88424539950E+02 -0.66190605345E+02  0.15051342228E+03  0.80419002446E+02 0.  1.
<mgrwt>
<rscale>  0 0.13517801E+03</rscale>
<asrwt>0</asrwt>
<pdfrwt beam="1">  1        2 0.21993732E-01 0.13517801E+03</pdfrwt>
<pdfrwt beam="2">  1       -2 0.23642024E-01 0.13517801E+03</pdfrwt>
<totfact> 0.37488454E+03</totfact>
</mgrwt>
</event>
<event>
 4    1  0.4938540E-001  0.8642212E+02  0.7546771E-02  0.1311755E+00
         -2   -1    0    0    0  501 -0.00000000000E+00  0.00000000000E+00  0.94181416950E+02  0.94181416950E+02  0.00000000000E+00 0.  1.
          2   -1    0    0  501    0  0.00000000000E+00 -0.00000000000E+00 -0.10803364781E+04  0.10803364781E+04  0.00000000000E+00 0. -1.
         24    1    1    2    0    0  0.31624505009E+02 -0.12075014234E+01 -0.10583718487E+04  0.10618944173E+04  0.80419002446E+02 0. -1.
        -24    1    1    2    0    0 -0.31624505009E+02  0.12075014234E+01  0.72216787576E+02  0.11262347774E+03  0.80419002446E+02 0.  1.
<mgrwt>
<rscale>  0 0.86422123E+02</rscale>
<asrwt>0</asrwt>
<pdfrwt beam="1">  1        2 0.16620560E+00 0.86422123E+02</pdfrwt>
<pdfrwt beam="2">  1       -2 0.14489450E-01 0.86422123E+02</pdfrwt>
<totfact> 0.86227904E+02</totfact>
</mgrwt>
</event>
<event>
 4    1  0.4938540E-001  0.8447986E+02  0.7546771E-02  0.1316798E+00
         -2   -1    0    0    0  501 -0.00000000000E+00  0.00000000000E+00  0.64714334453E+01  0.64714334453E+01  0.00000000000E+00 0.  1.
          2   -1    0    0  501    0  0.00000000000E+00 -0.00000000000E+00 -0.24656123432E+04  0.24656123432E+04  0.00000000000E+00 0. -1.
         24    1    1    2    0    0  0.20256666998E+02  0.16102760956E+02 -0.21485061292E+04  0.21501663737E+04  0.80419002446E+02 0. -1.
        -24    1    1    2    0    0 -0.20256666998E+02 -0.16102760956E+02 -0.31063478056E+03  0.32191740294E+03  0.80419002446E+02 0.  1.
<mgrwt>
<rscale>  0 0.84479864E+02</rscale>
<asrwt>0</asrwt>
<pdfrwt beam="1">  1        2 0.37932569E+00 0.84479864E+02</pdfrwt>
<pdfrwt beam="2">  1       -2 0.99560328E-03 0.84479864E+02</pdfrwt>
<totfact> 0.88077816E+03</totfact>
</mgrwt>
</event>
<event>
 4    1  0.4938540E-001  0.1125924E+03  0.7546771E-02  0.1255843E+00
         -2   -1    0    0    0  501 -0.00000000000E+00  0.00000000000E+00  0.65248369786E+02  0.65248369786E+02  0.00000000000E+00 0.  1.
          2   -1    0    0  501    0  0.00000000000E+00 -0.00000000000E+00 -0.19544541714E+03  0.19544541714E+03  0.00000000000E+00 0. -1.
         24    1    1    2    0    0  0.58216216434E+02  0.53110327275E+02 -0.75124252858E+02  0.13535399529E+03  0.80419002446E+02 0.  1.
        -24    1    1    2    0    0 -0.58216216434E+02 -0.53110327275E+02 -0.55072794493E+02  0.12533979163E+03  0.80419002446E+02 0. -1.
<mgrwt>
<rscale>  0 0.11259241E+03</rscale>
<asrwt>0</asrwt>
<pdfrwt beam="1">  1        2 0.30068525E-01 0.11259241E+03</pdfrwt>
<pdfrwt beam="2">  1       -2 0.10038211E-01 0.11259241E+03</pdfrwt>
<totfact> 0.10695244E+04</totfact>
</mgrwt>
</event>
<event>
 4    1  0.4938540E-001  0.1069967E+03  0.7546771E-02  0.1266235E+00
         -2   -1    0    0    0  501 -0.00000000000E+00  0.00000000000E+00  0.80652287569E+01  0.80652287569E+01  0.00000000000E+00 0.  1.
          2   -1    0    0  501    0  0.00000000000E+00 -0.00000000000E+00 -0.17598988256E+04  0.17598988256E+04  0.00000000000E+00 0. -1.
         24    1    1    2    0    0 -0.62009622325E+02  0.33702845712E+02 -0.12647088993E+04  0.12692268871E+04  0.80419002446E+02 0. -1.
        -24    1    1    2    0    0  0.62009622325E+02 -0.33702845712E+02 -0.48712469751E+03  0.49873716720E+03  0.80419002446E+02 0.  1.
<mgrwt>
<rscale>  0 0.10699669E+03</rscale>
<asrwt>0</asrwt>
<pdfrwt beam="1">  1        2 0.27075404E+00 0.10699669E+03</pdfrwt>
<pdfrwt beam="2">  1       -2 0.12408027E-02 0.10699669E+03</pdfrwt>
<totfact> 0.14870912E+04</totfact>
</mgrwt>
</event>
<event>
 4    1  0.4938540E-001  0.9165353E+02  0.7546771E-02  0.1298896E+00
         -1   -1    0    0    0  501 -0.00000000000E+00  0.00000000000E+00  0.36758110827E+02  0.36758110827E+02  0.00000000000E+00 0.  1.
          1   -1    0    0  501    0  0.00000000000E+00 -0.00000000000E+00 -0.41385038149E+03  0.41385038149E+03  0.00000000000E+00 0. -1.
         24    1    1    2    0    0  0.69548106599E+01 -0.43414093081E+02 -0.37778512983E+02  0.99134176080E+02  0.80419002446E+02 0.  1.
        -24    1    1    2    0    0 -0.69548106599E+01  0.43414093081E+02 -0.33931375768E+03  0.35147431624E+03  0.80419002446E+02 0. -1.
<mgrwt>
<rscale>  0 0.91653526E+02</rscale>
<asrwt>0</asrwt>
<pdfrwt beam="1">  1        1 0.63669294E-01 0.91653526E+02</pdfrwt>
<pdfrwt beam="2">  1       -1 0.56550935E-02 0.91653526E+02</pdfrwt>
<totfact> 0.78524500E+03</totfact>
</mgrwt>
</event>
<event>
 4    1  0.4938540E-001  0.9610652E+02  0.7546771E-02  0.1288703E+00
          2   -1    0    0  501    0  0.00000000000E+00  0.00000000000E+00  0.12748606366E+04  0.12748606366E+04  0.00000000000E+00 0. -1.
         -2   -1    0    0    0  501 -0.00000000000E+00 -0.00000000000E+00 -0.11299049779E+02  0.11299049779E+02  0.00000000000E+00 0.  1.
         24    1    1    2    0    0 -0.50941073982E+02 -0.13200542807E+02  0.10169790897E+04  0.10215101234E+04  0.80419002446E+02 0. -1.
        -24    1    1    2    0    0  0.50941073982E+02  0.13200542807E+02  0.24658249712E+03  0.26464956299E+03  0.80419002446E+02 0.  1.
<mgrwt>
<rscale>  0 0.96106521E+02</rscale>
<asrwt>0</asrwt>
<pdfrwt beam="1">  1        2 0.19613229E+00 0.96106521E+02</pdfrwt>
<pdfrwt beam="2">  1       -2 0.17383164E-02 0.96106521E+02</pdfrwt>
<totfact> 0.16212254E+04</totfact>
</mgrwt>
</event>
<event>
 4    1  0.4938540E-001  0.9384600E+02  0.7546771E-02  0.1293797E+00
         -1   -1    0    0    0  501 -0.00000000000E+00  0.00000000000E+00  0.19960670794E+02  0.19960670794E+02  0.00000000000E+00 0.  1.
          1   -1    0    0  501    0  0.00000000000E+00 -0.00000000000E+00 -0.58216060147E+03  0.58216060147E+03  0.00000000000E+00 0. -1.
         24    1    1    2    0    0  0.39488794695E+01  0.48210599637E+02 -0.13296801183E+03  0.16275000366E+03  0.80419002446E+02 0.  1.
        -24    1    1    2    0    0 -0.39488794695E+01 -0.48210599637E+02 -0.42923191884E+03  0.43937126860E+03  0.80419002446E+02 0. -1.
<mgrwt>
<rscale>  0 0.93845999E+02</rscale>
<asrwt>0</asrwt>
<pdfrwt beam="1">  1        1 0.89563172E-01 0.93845999E+02</pdfrwt>
<pdfrwt beam="2">  1       -1 0.30708723E-02 0.93845999E+02</pdfrwt>
<totfact> 0.12345982E+04</totfact>
</mgrwt>
</event>
<event>
 4    1  0.4938540E-001  0.8753051E+02  0.7546771E-02  0.1308945E+00
         -2   -1    0    0    0  501 -0.00000000000E+00  0.00000000000E+00  0.33551162284E+02  0.33551162284E+02  0.00000000000E+00 0.  1.
          2   -1    0    0  501    0  0.00000000000E+00 -0.00000000000E+00 -0.86640233695E+03  0.86640233695E+03  0.00000000000E+00 0. -1.
         24    1    1    2    0    0 -0.28383823068E+02  0.19716305861E+02 -0.80257605992E+03  0.80733507420E+03  0.80419002446E+02 0. -1.
        -24    1    1    2    0    0  0.28383823068E+02 -0.19716305861E+02 -0.30275114754E+02  0.92618425038E+02  0.80419002446E+02 0.  1.
<mgrwt>
<rscale>  0 0.87530509E+02</rscale>
<asrwt>0</asrwt>
<pdfrwt beam="1">  1        2 0.13329268E+00 0.87530509E+02</pdfrwt>
<pdfrwt beam="2">  1       -2 0.51617167E-02 0.87530509E+02</pdfrwt>
<totfact> 0.56633854E+03</totfact>
</mgrwt>
</event>
<event>
 4    1  0.4938540E-001  0.8994221E+02  0.7546771E-02  0.1302992E+00
         -3   -1    0    0    0  501 -0.00000000000E+00  0.00000000000E+00  0.31641093728E+03  0.31641093728E+03  0.00000000000E+00 0.  1.
          3   -1    0    0  501    0  0.00000000000E+00 -0.00000000000E+00 -0.58834971342E+02  0.58834971342E+02  0.00000000000E+00 0. -1.
         24    1    1    2    0    0 -0.33384811312E+02 -0.22535308796E+02  0.26987366396E+03  0.28446686314E+03  0.80419002446E+02 0.  1.
        -24    1    1    2    0    0  0.33384811312E+02  0.22535308796E+02 -0.12297698020E+02  0.90779045489E+02  0.80419002446E+02 0. -1.
<mgrwt>
<rscale>  0 0.89942213E+02</rscale>
<asrwt>0</asrwt>
<pdfrwt beam="1">  1        3 0.90515343E-02 0.89942213E+02</pdfrwt>
<pdfrwt beam="2">  1       -3 0.48678605E-01 0.89942213E+02</pdfrwt>
<totfact> 0.79122384E+02</totfact>
</mgrwt>
</event>
<event>
 4    1  0.4938540E-001  0.8100099E+02  0.7546771E-02  0.1326235E+00
          3   -1    0    0  501    0  0.00000000000E+00  0.00000000000E+00  0.31997933462E+02  0.31997933462E+02  0.00000000000E+00 0. -1.
         -3   -1    0    0    0  501 -0.00000000000E+00 -0.00000000000E+00 -0.22826621975E+03  0.22826621975E+03  0.00000000000E+00 0.  1.
         24    1    1    2    0    0 -0.95171822227E+01 -0.18350838585E+01 -0.13963566000E+03  0.16142886293E+03  0.80419002446E+02 0.  1.
        -24    1    1    2    0    0  0.95171822227E+01  0.18350838585E+01 -0.56632626294E+02  0.98835290284E+02  0.80419002446E+02 0.  0.
<mgrwt>
<rscale>  0 0.81000989E+02</rscale>
<asrwt>0</asrwt>
<pdfrwt beam="1">  1        3 0.49227589E-02 0.81000989E+02</pdfrwt>
<pdfrwt beam="2">  1       -3 0.35117881E-01 0.81000989E+02</pdfrwt>
<totfact> 0.38159568E+03</totfact>
</mgrwt>
</event>
<event>
 4    1  0.4938540E-001  0.8503939E+02  0.7546771E-02  0.1315330E+00
          1   -1    0    0  501    0  0.00000000000E+00  0.00000000000E+00  0.14076546605E+03  0.14076546605E+03  0.00000000000E+00 0. -1.
         -1   -1    0    0    0  501 -0.00000000000E+00 -0.00000000000E+00 -0.73939941314E+02  0.73939941314E+02  0.00000000000E+00 0.  1.
         24    1    1    2    0    0  0.21097045940E+02  0.17871684333E+02 -0.25893321914E+02  0.88894108480E+02  0.80419002446E+02 0.  1.
        -24    1    1    2    0    0 -0.21097045940E+02 -0.17871684333E+02  0.92718846652E+02  0.12581129888E+03  0.80419002446E+02 0. -1.
<mgrwt>
<rscale>  0 0.85039393E+02</rscale>
<asrwt>0</asrwt>
<pdfrwt beam="1">  1        1 0.21656226E-01 0.85039393E+02</pdfrwt>
<pdfrwt beam="2">  1       -1 0.11375376E-01 0.85039393E+02</pdfrwt>
<totfact> 0.10341612E+04</totfact>
</mgrwt>
</event>
<event>
 4    1  0.4938540E-001  0.8158461E+02  0.7546771E-02  0.1324614E+00
         -2   -1    0    0    0  501 -0.00000000000E+00  0.00000000000E+00  0.27881471770E+02  0.27881471770E+02  0.00000000000E+00 0.  1.
          2   -1    0    0  501    0  0.00000000000E+00 -0.00000000000E+00 -0.67613815202E+03  0.67613815202E+03  0.00000000000E+00 0. -1.
         24    1    1    2    0    0  0.14933202290E+01  0.13660263952E+02 -0.60725591930E+03  0.61271184116E+03  0.80419002446E+02 0. -1.
        -24    1    1    2    0    0 -0.14933202290E+01 -0.13660263952E+02 -0.41000760953E+02  0.91307782634E+02  0.80419002446E+02 0.  0.
<mgrwt>
<rscale>  0 0.81584611E+02</rscale>
<asrwt>0</asrwt>
<pdfrwt beam="1">  1        2 0.10402126E+00 0.81584611E+02</pdfrwt>
<pdfrwt beam="2">  1       -2 0.42894571E-02 0.81584611E+02</pdfrwt>
<totfact> 0.99789902E+03</totfact>
</mgrwt>
</event>
<event>
 4    1  0.4938540E-001  0.8833292E+02  0.7546771E-02  0.1306940E+00
         -1   -1    0    0    0  501 -0.00000000000E+00  0.00000000000E+00  0.23948436142E+03  0.23948436142E+03  0.00000000000E+00 0.  1.
          1   -1    0    0  501    0  0.00000000000E+00 -0.00000000000E+00 -0.32617060203E+02  0.32617060203E+02  0.00000000000E+00 0. -1.
         24    1    1    2    0    0 -0.51696439074E+01 -0.36176847263E+02  0.10794015671E+03  0.13947681844E+03  0.80419002446E+02 0.  1.
        -24    1    1    2    0    0  0.51696439074E+01  0.36176847263E+02  0.98927144502E+02  0.13262460318E+03  0.80419002446E+02 0. -1.
<mgrwt>
<rscale>  0 0.88332924E+02</rscale>
<asrwt>0</asrwt>
<pdfrwt beam="1">  1        1 0.50180094E-02 0.88332924E+02</pdfrwt>
<pdfrwt beam="2">  1       -1 0.36843747E-01 0.88332924E+02</pdfrwt>
<totfact> 0.10660138E+04</totfact>
</mgrwt>
</event>
<event>
 4    1  0.4938540E-001  0.1229626E+03  0.7546771E-02  0.1238288E+00
          2   -1    0    0  501    0  0.00000000000E+00  0.00000000000E+00  0.40137908943E+03  0.40137908943E+03  0.00000000000E+00 0. -1.
         -2   -1    0    0    0  501 -0.00000000000E+00 -0.00000000000E+00 -0.42662423981E+02  0.42662423981E+02  0.00000000000E+00 0.  1.
         24    1    1    2    0    0  0.71782185732E+02 -0.59160038899E+02  0.25531080719E+03  0.28337857473E+03  0.80419002446E+02 0.  1.
        -24    1    1    2    0    0 -0.71782185732E+02  0.59160038899E+02  0.10340585826E+03  0.16066293869E+03  0.80419002446E+02 0.  0.
<mgrwt>
<rscale>  0 0.12296263E+03</rscale>
<asrwt>0</asrwt>
<pdfrwt beam="1">  1        2 0.61750626E-01 0.12296263E+03</pdfrwt>
<pdfrwt beam="2">  1       -2 0.65634501E-02 0.12296263E+03</pdfrwt>
<totfact> 0.96606672E+03</totfact>
</mgrwt>
</event>
<event>
 4    1  0.4938540E-001  0.8131554E+02  0.7546771E-02  0.1325359E+00
          1   -1    0    0  501    0  0.00000000000E+00  0.00000000000E+00  0.51839581023E+02  0.51839581023E+02  0.00000000000E+00 0. -1.
         -1   -1    0    0    0  501 -0.00000000000E+00 -0.00000000000E+00 -0.15527410088E+03  0.15527410088E+03  0.00000000000E+00 0.  1.
         24    1    1    2    0    0 -0.11771484113E+02 -0.25363674904E+01 -0.95474122255E+02  0.12540942936E+03  0.80419002446E+02 0.  0.
        -24    1    1    2    0    0  0.11771484113E+02  0.25363674904E+01 -0.79603975982E+01  0.81704252537E+02  0.80419002446E+02 0. -1.
<mgrwt>
<rscale>  0 0.81315539E+02</rscale>
<asrwt>0</asrwt>
<pdfrwt beam="1">  1        1 0.79753204E-02 0.81315539E+02</pdfrwt>
<pdfrwt beam="2">  1       -1 0.23888323E-01 0.81315539E+02</pdfrwt>
<totfact> 0.11674736E+04</totfact>
</mgrwt>
</event>
<event>
 4    1  0.4938540E-001  0.9265897E+02  0.7546771E-02  0.1296537E+00
         -1   -1    0    0    0  501 -0.00000000000E+00  0.00000000000E+00  0.14085139952E+02  0.14085139952E+02  0.00000000000E+00 0.  1.
          1   -1    0    0  501    0  0.00000000000E+00 -0.00000000000E+00 -0.17960693406E+04  0.17960693406E+04  0.00000000000E+00 0. -1.
         24    1    1    2    0    0 -0.36017997053E+02 -0.28656110892E+02 -0.15536051902E+03  0.18089382418E+03  0.80419002446E+02 0.  1.
        -24    1    1    2    0    0  0.36017997053E+02  0.28656110892E+02 -0.16266236816E+04  0.16292606563E+04  0.80419002446E+02 0. -1.
<mgrwt>
<rscale>  0 0.92658970E+02</rscale>
<asrwt>0</asrwt>
<pdfrwt beam="1">  1        1 0.27631820E+00 0.92658970E+02</pdfrwt>
<pdfrwt beam="2">  1       -1 0.21669458E-02 0.92658970E+02</pdfrwt>
<totfact> 0.27641167E+03</totfact>
</mgrwt>
</event>
<event>
 4    1  0.4938540E-001  0.8862189E+02  0.7546771E-02  0.1306224E+00
          2   -1    0    0  501    0  0.00000000000E+00  0.00000000000E+00  0.99882981554E+03  0.99882981554E+03  0.00000000000E+00 0. -1.
         -2   -1    0    0    0  501 -0.00000000000E+00 -0.00000000000E+00 -0.20341081452E+02  0.20341081452E+02  0.00000000000E+00 0.  1.
         24    1    1    2    0    0 -0.19497539433E+02 -0.31724907781E+02  0.88836409371E+03  0.89277354506E+03  0.80419002446E+02 0. -1.
        -24    1    1    2    0    0  0.19497539433E+02  0.31724907781E+02  0.90124640387E+02  0.12639735194E+03  0.80419002446E+02 0.  1.
<mgrwt>
<rscale>  0 0.88621892E+02</rscale>
<asrwt>0</asrwt>
<pdfrwt beam="1">  1        2 0.15366609E+00 0.88621892E+02</pdfrwt>
<pdfrwt beam="2">  1       -2 0.31293979E-02 0.88621892E+02</pdfrwt>
<totfact> 0.98275269E+03</totfact>
</mgrwt>
</event>
<event>
 4    1  0.4938540E-001  0.8496312E+02  0.7546771E-02  0.1315529E+00
          1   -1    0    0  501    0  0.00000000000E+00  0.00000000000E+00  0.11120663841E+04  0.11120663841E+04  0.00000000000E+00 0. -1.
         -1   -1    0    0    0  501 -0.00000000000E+00 -0.00000000000E+00 -0.65234676463E+01  0.65234676463E+01  0.00000000000E+00 0.  1.
         24    1    1    2    0    0 -0.19674732032E+02 -0.19089729369E+02  0.59206122487E+03  0.59812642710E+03  0.80419002446E+02 0.  1.
        -24    1    1    2    0    0  0.19674732032E+02  0.19089729369E+02  0.51348169163E+03  0.52046342469E+03  0.80419002446E+02 0.  0.
<mgrwt>
<rscale>  0 0.84963113E+02</rscale>
<asrwt>0</asrwt>
<pdfrwt beam="1">  1        1 0.17108699E+00 0.84963124E+02</pdfrwt>
<pdfrwt beam="2">  1       -1 0.10036113E-02 0.84963124E+02</pdfrwt>
<totfact> 0.22690954E+04</totfact>
</mgrwt>
</event>
<event>
 4    1  0.4938540E-001  0.8145595E+02  0.7546771E-02  0.1324970E+00
         -2   -1    0    0    0  501 -0.00000000000E+00  0.00000000000E+00  0.61494474603E+02  0.61494474603E+02  0.00000000000E+00 0.  1.
          2   -1    0    0  501    0  0.00000000000E+00 -0.00000000000E+00 -0.18366127891E+03  0.18366127891E+03  0.00000000000E+00 0. -1.
         24    1    1    2    0    0 -0.12942574180E+02  0.58779393923E+00 -0.13981252804E+03  0.16181042822E+03  0.80419002446E+02 0. -1.
        -24    1    1    2    0    0  0.12942574180E+02 -0.58779393923E+00  0.17645723735E+02  0.83345325296E+02  0.80419002446E+02 0.  1.
<mgrwt>
<rscale>  0 0.81455949E+02</rscale>
<asrwt>0</asrwt>
<pdfrwt beam="1">  1        2 0.28255581E-01 0.81455949E+02</pdfrwt>
<pdfrwt beam="2">  1       -2 0.94606885E-02 0.81455949E+02</pdfrwt>
<totfact> 0.12168955E+04</totfact>
</mgrwt>
</event>
<event>
 4    1  0.4938540E-001  0.9667060E+02  0.7546771E-02  0.1287457E+00
          2   -1    0    0  501    0  0.00000000000E+00  0.00000000000E+00  0.13238523791E+04  0.13238523791E+04  0.00000000000E+00 0. -1.
         -2   -1    0    0    0  501 -0.00000000000E+00 -0.00000000000E+00 -0.81529542140E+01  0.81529542140E+01  0.00000000000E+00 0.  1.
         24    1    1    2    0    0 -0.31282833112E+02  0.43581802385E+02  0.90179833638E+03  0.90696496327E+03  0.80419002446E+02 0.  1.
        -24    1    1    2    0    0  0.31282833112E+02 -0.43581802385E+02  0.41390108851E+03  0.42504037005E+03  0.80419002446E+02 0. -1.
<mgrwt>
<rscale>  0 0.96670601E+02</rscale>
<asrwt>0</asrwt>
<pdfrwt beam="1">  1        2 0.20366943E+00 0.96670601E+02</pdfrwt>
<pdfrwt beam="2">  1       -2 0.12543017E-02 0.96670601E+02</pdfrwt>
<totfact> 0.24349537E+04</totfact>
</mgrwt>
</event>
<event>
 4    1  0.4938540E-001  0.1362834E+03  0.7546771E-02  0.1218419E+00
          2   -1    0    0  501    0  0.00000000000E+00  0.00000000000E+00  0.31680273840E+03  0.31680273840E+03  0.00000000000E+00 0. -1.
         -2   -1    0    0    0  501 -0.00000000000E+00 -0.00000000000E+00 -0.15461863047E+03  0.15461863047E+03  0.00000000000E+00 0.  1.
         24    1    1    2    0    0  0.62605398111E+02 -0.90479279979E+02  0.26681490567E+03  0.29960531674E+03  0.80419002446E+02 0. -1.
        -24    1    1    2    0    0 -0.62605398111E+02  0.90479279979E+02 -0.10463079774E+03  0.17181605213E+03  0.80419002446E+02 0.  1.
<mgrwt>
<rscale>  0 0.13628335E+03</rscale>
<asrwt>0</asrwt>
<pdfrwt beam="1">  1        2 0.48738883E-01 0.13628335E+03</pdfrwt>
<pdfrwt beam="2">  1       -2 0.23787482E-01 0.13628335E+03</pdfrwt>
<totfact> 0.15709806E+03</totfact>
</mgrwt>
</event>
<event>
 4    1  0.4938540E-001  0.9146337E+02  0.7546771E-02  0.1299346E+00
         -1   -1    0    0    0  501 -0.00000000000E+00  0.00000000000E+00  0.27161817038E+02  0.27161817038E+02  0.00000000000E+00 0.  1.
          1   -1    0    0  501    0  0.00000000000E+00 -0.00000000000E+00 -0.65062228629E+03  0.65062228629E+03  0.00000000000E+00 0. -1.
         24    1    1    2    0    0 -0.10144192246E+02 -0.42372485324E+02 -0.65800227497E+02  0.11267305819E+03  0.80419002446E+02 0.  1.
        -24    1    1    2    0    0  0.10144192246E+02  0.42372485324E+02 -0.55766024175E+03  0.56511104514E+03  0.80419002446E+02 0. -1.
<mgrwt>
<rscale>  0 0.91463370E+02</rscale>
<asrwt>0</asrwt>
<pdfrwt beam="1">  1        1 0.10009574E+00 0.91463370E+02</pdfrwt>
<pdfrwt beam="2">  1       -1 0.41787407E-02 0.91463370E+02</pdfrwt>
<totfact> 0.67873125E+03</totfact>
</mgrwt>
</event>
<event>
 4    1  0.4938540E-001  0.9082192E+02  0.7546771E-02  0.1300873E+00
         -1   -1    0    0    0  501 -0.00000000000E+00  0.00000000000E+00  0.17181153369E+02  0.17181153369E+02  0.00000000000E+00 0.  1.
          1   -1    0    0  501    0  0.00000000000E+00 -0.00000000000E+00 -0.88695601653E+03  0.88695601653E+03  0.00000000000E+00 0. -1.
         24    1    1    2    0    0 -0.40277917781E+02 -0.12613243420E+02 -0.12870853878E+03  0.15752621521E+03  0.80419002446E+02 0.  1.
        -24    1    1    2    0    0  0.40277917781E+02  0.12613243420E+02 -0.74106632439E+03  0.74661095469E+03  0.80419002446E+02 0. -1.
<mgrwt>
<rscale>  0 0.90821917E+02</rscale>
<asrwt>0</asrwt>
<pdfrwt beam="1">  1        1 0.13645476E+00 0.90821917E+02</pdfrwt>
<pdfrwt beam="2">  1       -1 0.26432546E-02 0.90821917E+02</pdfrwt>
<totfact> 0.83756389E+03</totfact>
</mgrwt>
</event>
<event>
 4    1  0.4938540E-001  0.8440241E+02  0.7546771E-02  0.1317003E+00
          2   -1    0    0  501    0  0.00000000000E+00  0.00000000000E+00  0.60729387967E+02  0.60729387967E+02  0.00000000000E+00 0. -1.
         -2   -1    0    0    0  501 -0.00000000000E+00 -0.00000000000E+00 -0.11840741135E+03  0.11840741135E+03  0.00000000000E+00 0.  1.
         24    1    1    2    0    0 -0.33607811472E+01 -0.25401829660E+02 -0.37487733480E+02  0.92353093699E+02  0.80419002446E+02 0.  1.
        -24    1    1    2    0    0  0.33607811472E+01  0.25401829660E+02 -0.20190289902E+02  0.86783705617E+02  0.80419002446E+02 0. -1.
<mgrwt>
<rscale>  0 0.84402402E+02</rscale>
<asrwt>0</asrwt>
<pdfrwt beam="1">  1        2 0.93429829E-02 0.84402413E+02</pdfrwt>
<pdfrwt beam="2">  1       -2 0.18216525E-01 0.84402413E+02</pdfrwt>
<totfact> 0.15231402E+04</totfact>
</mgrwt>
</event>
<event>
 4    1  0.4938540E-001  0.1042366E+03  0.7546771E-02  0.1271631E+00
         -3   -1    0    0    0  501 -0.00000000000E+00  0.00000000000E+00  0.20661961508E+03  0.20661961508E+03  0.00000000000E+00 0.  1.
          3   -1    0    0  501    0  0.00000000000E+00 -0.00000000000E+00 -0.56272539133E+02  0.56272539133E+02  0.00000000000E+00 0. -1.
         24    1    1    2    0    0  0.51306389384E+02 -0.42020246482E+02  0.10881843314E+03  0.15068747145E+03  0.80419002446E+02 0.  1.
        -24    1    1    2    0    0 -0.51306389384E+02  0.42020246482E+02  0.41528642801E+02  0.11220468276E+03  0.80419002446E+02 0.  1.
<mgrwt>
<rscale>  0 0.10423657E+03</rscale>
<asrwt>0</asrwt>
<pdfrwt beam="1">  1        3 0.86573138E-02 0.10423657E+03</pdfrwt>
<pdfrwt beam="2">  1       -3 0.31787633E-01 0.10423657E+03</pdfrwt>
<totfact> 0.19712798E+03</totfact>
</mgrwt>
</event>
<event>
 4    1  0.4938540E-001  0.1236341E+03  0.7546771E-02  0.1237219E+00
          1   -1    0    0  501    0  0.00000000000E+00  0.00000000000E+00  0.65915688008E+02  0.65915688008E+02  0.00000000000E+00 0. -1.
         -1   -1    0    0    0  501 -0.00000000000E+00 -0.00000000000E+00 -0.26229907609E+03  0.26229907609E+03  0.00000000000E+00 0.  1.
         24    1    1    2    0    0  0.63114167546E+02 -0.69532574919E+02 -0.42317762836E+02  0.13067588196E+03  0.80419002446E+02 0.  0.
        -24    1    1    2    0    0 -0.63114167546E+02  0.69532574919E+02 -0.15406562524E+03  0.19753888214E+03  0.80419002446E+02 0.  0.
<mgrwt>
<rscale>  0 0.12363413E+03</rscale>
<asrwt>0</asrwt>
<pdfrwt beam="1">  1        1 0.10140875E-01 0.12363414E+03</pdfrwt>
<pdfrwt beam="2">  1       -1 0.40353704E-01 0.12363414E+03</pdfrwt>
<totfact> 0.36533988E+03</totfact>
</mgrwt>
</event>
<event>
 4    1  0.4938540E-001  0.8058664E+02  0.7546771E-02  0.1327395E+00
         -2   -1    0    0    0  501 -0.00000000000E+00  0.00000000000E+00  0.56070400342E+02  0.56070400342E+02  0.00000000000E+00 0.  1.
          2   -1    0    0  501    0  0.00000000000E+00 -0.00000000000E+00 -0.11684856188E+03  0.11684856188E+03  0.00000000000E+00 0. -1.
         24    1    1    2    0    0 -0.51273959349E+01 -0.83496372516E+00 -0.22286416299E+02  0.83611528268E+02  0.80419002446E+02 0.  0.
        -24    1    1    2    0    0  0.51273959349E+01  0.83496372516E+00 -0.38491745239E+02  0.89307433954E+02  0.80419002446E+02 0. -1.
<mgrwt>
<rscale>  0 0.80586630E+02</rscale>
<asrwt>0</asrwt>
<pdfrwt beam="1">  1        2 0.17976702E-01 0.80586640E+02</pdfrwt>
<pdfrwt beam="2">  1       -2 0.86262155E-02 0.80586640E+02</pdfrwt>
<totfact> 0.23016673E+04</totfact>
</mgrwt>
</event>
<event>
 4    1  0.4938540E-001  0.9869948E+02  0.7546771E-02  0.1283055E+00
         -1   -1    0    0    0  501 -0.00000000000E+00  0.00000000000E+00  0.51648845628E+02  0.51648845628E+02  0.00000000000E+00 0.  1.
          1   -1    0    0  501    0  0.00000000000E+00 -0.00000000000E+00 -0.18942143111E+03  0.18942143111E+03  0.00000000000E+00 0. -1.
         24    1    1    2    0    0 -0.50522738346E+02 -0.26866793279E+02 -0.61006547945E+02  0.11603183407E+03  0.80419002446E+02 0. -1.
        -24    1    1    2    0    0  0.50522738346E+02  0.26866793279E+02 -0.76766037533E+02  0.12503844266E+03  0.80419002446E+02 0.  1.
<mgrwt>
<rscale>  0 0.98699481E+02</rscale>
<asrwt>0</asrwt>
<pdfrwt beam="1">  1        1 0.29141759E-01 0.98699481E+02</pdfrwt>
<pdfrwt beam="2">  1       -1 0.79459763E-02 0.98699481E+02</pdfrwt>
<totfact> 0.12461948E+04</totfact>
</mgrwt>
</event>
<event>
 4    1  0.4938540E-001  0.9198563E+02  0.7546771E-02  0.1298113E+00
          2   -1    0    0  501    0  0.00000000000E+00  0.00000000000E+00  0.12558847597E+04  0.12558847597E+04  0.00000000000E+00 0. -1.
         -2   -1    0    0    0  501 -0.00000000000E+00 -0.00000000000E+00 -0.13488184727E+02  0.13488184727E+02  0.00000000000E+00 0.  1.
         24    1    1    2    0    0 -0.32472010452E+02 -0.30654682497E+02  0.10702131008E+04  0.10741589446E+04  0.80419002446E+02 0. -1.
        -24    1    1    2    0    0  0.32472010452E+02  0.30654682497E+02  0.17218347409E+03  0.19521399982E+03  0.80419002446E+02 0.  1.
<mgrwt>
<rscale>  0 0.91985635E+02</rscale>
<asrwt>0</asrwt>
<pdfrwt beam="1">  1        2 0.19321295E+00 0.91985635E+02</pdfrwt>
<pdfrwt beam="2">  1       -2 0.20751063E-02 0.91985635E+02</pdfrwt>
<totfact> 0.12831364E+04</totfact>
</mgrwt>
</event>
<event>
 4    1  0.4938540E-001  0.8959161E+02  0.7546771E-02  0.1303844E+00
          2   -1    0    0  501    0  0.00000000000E+00  0.00000000000E+00  0.21153727461E+04  0.21153727461E+04  0.00000000000E+00 0. -1.
         -2   -1    0    0    0  501 -0.00000000000E+00 -0.00000000000E+00 -0.48214536133E+01  0.48214536133E+01  0.00000000000E+00 0.  1.
         24    1    1    2    0    0 -0.39177249592E+02  0.49581651554E+01  0.15445411792E+04  0.15471373922E+04  0.80419002446E+02 0.  1.
        -24    1    1    2    0    0  0.39177249592E+02 -0.49581651554E+01  0.56601011329E+03  0.57305680747E+03  0.80419002446E+02 0. -1.
<mgrwt>
<rscale>  0 0.89591608E+02</rscale>
<asrwt>0</asrwt>
<pdfrwt beam="1">  1        2 0.32544122E+00 0.89591608E+02</pdfrwt>
<pdfrwt beam="2">  1       -2 0.74176378E-03 0.89591608E+02</pdfrwt>
<totfact> 0.20211705E+04</totfact>
</mgrwt>
</event>
<event>
 4    1  0.4938540E-001  0.9595106E+02  0.7546771E-02  0.1289048E+00
         -2   -1    0    0    0  501 -0.00000000000E+00  0.00000000000E+00  0.96487406715E+01  0.96487406715E+01  0.00000000000E+00 0.  1.
          2   -1    0    0  501    0  0.00000000000E+00 -0.00000000000E+00 -0.16003683318E+04  0.16003683318E+04  0.00000000000E+00 0. -1.
         24    1    1    2    0    0  0.26378249768E+02  0.45205957470E+02 -0.13068897482E+04  0.13104073491E+04  0.80419002446E+02 0. -1.
        -24    1    1    2    0    0 -0.26378249768E+02 -0.45205957470E+02 -0.28382984292E+03  0.29960972337E+03  0.80419002446E+02 0.  1.
<mgrwt>
<rscale>  0 0.95951064E+02</rscale>
<asrwt>0</asrwt>
<pdfrwt beam="1">  1        2 0.24621031E+00 0.95951064E+02</pdfrwt>
<pdfrwt beam="2">  1       -2 0.14844229E-02 0.95951064E+02</pdfrwt>
<totfact> 0.13782167E+04</totfact>
</mgrwt>
</event>
<event>
 4    1  0.4938540E-001  0.1198931E+03  0.7546771E-02  0.1243274E+00
          2   -1    0    0  501    0  0.00000000000E+00  0.00000000000E+00  0.64798594975E+03  0.64798594975E+03  0.00000000000E+00 0. -1.
         -2   -1    0    0    0  501 -0.00000000000E+00 -0.00000000000E+00 -0.41911348495E+02  0.41911348495E+02  0.00000000000E+00 0.  1.
         24    1    1    2    0    0 -0.86281929665E+02 -0.21507159009E+02  0.53970160463E+03  0.55285818007E+03  0.80419002446E+02 0. -1.
        -24    1    1    2    0    0  0.86281929665E+02  0.21507159009E+02  0.66372996628E+02  0.13703911818E+03  0.80419002446E+02 0.  1.
<mgrwt>
<rscale>  0 0.11989306E+03</rscale>
<asrwt>0</asrwt>
<pdfrwt beam="1">  1        2 0.99690139E-01 0.11989306E+03</pdfrwt>
<pdfrwt beam="2">  1       -2 0.64479002E-02 0.11989306E+03</pdfrwt>
<totfact> 0.58478673E+03</totfact>
</mgrwt>
</event>
<event>
 4    1  0.4938540E-001  0.9438920E+02  0.7546771E-02  0.1292558E+00
         -1   -1    0    0    0  501 -0.00000000000E+00  0.00000000000E+00  0.97173179887E+02  0.97173179887E+02  0.00000000000E+00 0.  1.
          1   -1    0    0  501    0  0.00000000000E+00 -0.00000000000E+00 -0.15483819975E+03  0.15483819975E+03  0.00000000000E+00 0. -1.
         24    1    1    2    0    0 -0.21065258036E+02  0.44703017727E+02  0.51640242449E+02  0.10759198615E+03  0.80419002446E+02 0.  1.
        -24    1    1    2    0    0  0.21065258036E+02 -0.44703017727E+02 -0.10930526231E+03  0.14441939348E+03  0.80419002446E+02 0. -1.
<mgrwt>
<rscale>  0 0.94389199E+02</rscale>
<asrwt>0</asrwt>
<pdfrwt beam="1">  1        1 0.23821261E-01 0.94389199E+02</pdfrwt>
<pdfrwt beam="2">  1       -1 0.14949720E-01 0.94389199E+02</pdfrwt>
<totfact> 0.60935077E+03</totfact>
</mgrwt>
</event>
<event>
 4    1  0.4938540E-001  0.8571445E+02  0.7546771E-02  0.1313575E+00
         -2   -1    0    0    0  501 -0.00000000000E+00  0.00000000000E+00  0.37048775471E+02  0.37048775471E+02  0.00000000000E+00 0.  1.
          2   -1    0    0  501    0  0.00000000000E+00 -0.00000000000E+00 -0.20377896193E+03  0.20377896193E+03  0.00000000000E+00 0. -1.
         24    1    1    2    0    0  0.13957028721E+02  0.26171584559E+02 -0.10310013552E+03  0.13407686000E+03  0.80419002446E+02 0.  0.
        -24    1    1    2    0    0 -0.13957028721E+02 -0.26171584559E+02 -0.63630050946E+02  0.10675087741E+03  0.80419002446E+02 0. -1.
<mgrwt>
<rscale>  0 0.85714447E+02</rscale>
<asrwt>0</asrwt>
<pdfrwt beam="1">  1        2 0.31350610E-01 0.85714447E+02</pdfrwt>
<pdfrwt beam="2">  1       -2 0.56998115E-02 0.85714447E+02</pdfrwt>
<totfact> 0.23617285E+04</totfact>
</mgrwt>
</event>
<event>
 4    1  0.4938540E-001  0.8265038E+02  0.7546771E-02  0.1321694E+00
         -2   -1    0    0    0  501 -0.00000000000E+00  0.00000000000E+00  0.32968453561E+03  0.32968453561E+03  0.00000000000E+00 0.  1.
          2   -1    0    0  501    0  0.00000000000E+00 -0.00000000000E+00 -0.28131437754E+03  0.28131437754E+03  0.00000000000E+00 0. -1.
         24    1    1    2    0    0 -0.14213070140E+02 -0.12722347072E+02 -0.26984850867E+03  0.28222208111E+03  0.80419002446E+02 0. -1.
        -24    1    1    2    0    0  0.14213070140E+02  0.12722347072E+02  0.31821866673E+03  0.32877683204E+03  0.80419002446E+02 0.  1.
<mgrwt>
<rscale>  0 0.82650381E+02</rscale>
<asrwt>0</asrwt>
<pdfrwt beam="1">  1        2 0.43279135E-01 0.82650381E+02</pdfrwt>
<pdfrwt beam="2">  1       -2 0.50720698E-01 0.82650381E+02</pdfrwt>
<totfact> 0.43751886E+02</totfact>
</mgrwt>
</event>
<event>
 4    1  0.4938540E-001  0.3456776E+03  0.7546771E-02  0.1064403E+00
          1   -1    0    0  501    0  0.00000000000E+00  0.00000000000E+00  0.13201297949E+04  0.13201297949E+04  0.00000000000E+00 0. -1.
         -1   -1    0    0    0  501 -0.00000000000E+00 -0.00000000000E+00 -0.15300384962E+03  0.15300384962E+03  0.00000000000E+00 0.  1.
         24    1    1    2    0    0  0.38866557119E+02 -0.33393885061E+03  0.11284750756E+03  0.36363105083E+03  0.80419002446E+02 0.  1.
        -24    1    1    2    0    0 -0.38866557119E+02  0.33393885061E+03  0.10542784377E+04  0.11095025937E+04  0.80419002446E+02 0. -1.
<mgrwt>
<rscale>  0 0.34567757E+03</rscale>
<asrwt>0</asrwt>
<pdfrwt beam="1">  1        1 0.20309688E+00 0.34567757E+03</pdfrwt>
<pdfrwt beam="2">  1       -1 0.23539055E-01 0.34567757E+03</pdfrwt>
<totfact> 0.14489439E+02</totfact>
</mgrwt>
</event>
<event>
 4    1  0.4938540E-001  0.8219321E+02  0.7546771E-02  0.1322940E+00
         -2   -1    0    0    0  501 -0.00000000000E+00  0.00000000000E+00  0.22587514198E+02  0.22587514198E+02  0.00000000000E+00 0.  1.
          2   -1    0    0  501    0  0.00000000000E+00 -0.00000000000E+00 -0.87414978796E+03  0.87414978796E+03  0.00000000000E+00 0. -1.
         24    1    1    2    0    0  0.34851613351E+01 -0.16624105749E+02 -0.78944355121E+03  0.79371080611E+03  0.80419002446E+02 0. -1.
        -24    1    1    2    0    0 -0.34851613351E+01  0.16624105749E+02 -0.62118722557E+02  0.10302649605E+03  0.80419002446E+02 0.  1.
<mgrwt>
<rscale>  0 0.82193207E+02</rscale>
<asrwt>0</asrwt>
<pdfrwt beam="1">  1        2 0.13448459E+00 0.82193207E+02</pdfrwt>
<pdfrwt beam="2">  1       -2 0.34750019E-02 0.82193207E+02</pdfrwt>
<totfact> 0.99843865E+03</totfact>
</mgrwt>
</event>
<event>
 4    1  0.4938540E-001  0.1056056E+03  0.7546771E-02  0.1268931E+00
         -1   -1    0    0    0  501 -0.00000000000E+00  0.00000000000E+00  0.17747358572E+03  0.17747358572E+03  0.00000000000E+00 0.  1.
          1   -1    0    0  501    0  0.00000000000E+00 -0.00000000000E+00 -0.14569337335E+03  0.14569337335E+03  0.00000000000E+00 0. -1.
         24    1    1    2    0    0  0.47568962975E+02  0.49219088438E+02  0.13774154637E+03  0.17356634022E+03  0.80419002446E+02 0.  1.
        -24    1    1    2    0    0 -0.47568962975E+02 -0.49219088438E+02 -0.10596133400E+03  0.14960061886E+03  0.80419002446E+02 0. -1.
<mgrwt>
<rscale>  0 0.10560559E+03</rscale>
<asrwt>0</asrwt>
<pdfrwt beam="1">  1        1 0.22414365E-01 0.10560559E+03</pdfrwt>
<pdfrwt beam="2">  1       -1 0.27303629E-01 0.10560559E+03</pdfrwt>
<totfact> 0.25319776E+03</totfact>
</mgrwt>
</event>
<event>
 4    1  0.4938540E-001  0.8119887E+02  0.7546771E-02  0.1325683E+00
          1   -1    0    0  501    0  0.00000000000E+00  0.00000000000E+00  0.56061696435E+03  0.56061696435E+03  0.00000000000E+00 0. -1.
         -1   -1    0    0    0  501 -0.00000000000E+00 -0.00000000000E+00 -0.53254149005E+02  0.53254149005E+02  0.00000000000E+00 0.  1.
         24    1    1    2    0    0 -0.99167809411E+01  0.52628555595E+01 -0.17250508383E+02  0.83011060629E+02  0.80419002446E+02 0.  1.
        -24    1    1    2    0    0  0.99167809411E+01 -0.52628555595E+01  0.52461332373E+03  0.53086005273E+03  0.80419002446E+02 0. -1.
<mgrwt>
<rscale>  0 0.81198868E+02</rscale>
<asrwt>0</asrwt>
<pdfrwt beam="1">  1        1 0.86248760E-01 0.81198868E+02</pdfrwt>
<pdfrwt beam="2">  1       -1 0.81929464E-02 0.81198868E+02</pdfrwt>
<totfact> 0.30576423E+03</totfact>
</mgrwt>
</event>
<event>
 4    1  0.4938540E-001  0.8238811E+02  0.7546771E-02  0.1322408E+00
         -1   -1    0    0    0  501 -0.00000000000E+00  0.00000000000E+00  0.62947507676E+02  0.62947507676E+02  0.00000000000E+00 0.  1.
          1   -1    0    0  501    0  0.00000000000E+00 -0.00000000000E+00 -0.21058834455E+03  0.21058834455E+03  0.00000000000E+00 0. -1.
         24    1    1    2    0    0 -0.15984542783E+02 -0.80671912436E+01  0.21716205957E+02  0.85202081771E+02  0.80419002446E+02 0.  1.
        -24    1    1    2    0    0  0.15984542783E+02  0.80671912436E+01 -0.16935704283E+03  0.18833377045E+03  0.80419002446E+02 0. -1.
<mgrwt>
<rscale>  0 0.82388113E+02</rscale>
<asrwt>0</asrwt>
<pdfrwt beam="1">  1        1 0.32398206E-01 0.82388113E+02</pdfrwt>
<pdfrwt beam="2">  1       -1 0.96842321E-02 0.82388113E+02</pdfrwt>
<totfact> 0.80036061E+03</totfact>
</mgrwt>
</event>
<event>
 4    1  0.4938540E-001  0.8273773E+02  0.7546771E-02  0.1321457E+00
          2   -1    0    0  501    0  0.00000000000E+00  0.00000000000E+00  0.50907692189E+03  0.50907692189E+03  0.00000000000E+00 0. -1.
         -2   -1    0    0    0  501 -0.00000000000E+00 -0.00000000000E+00 -0.66926779604E+02  0.66926779604E+02  0.00000000000E+00 0.  1.
         24    1    1    2    0    0  0.18553606248E+02  0.58377221095E+01  0.47852354830E+03  0.48562363774E+03  0.80419002446E+02 0. -1.
        -24    1    1    2    0    0 -0.18553606248E+02 -0.58377221095E+01 -0.36373406012E+02  0.90380063751E+02  0.80419002446E+02 0.  1.
<mgrwt>
<rscale>  0 0.82737726E+02</rscale>
<asrwt>0</asrwt>
<pdfrwt beam="1">  1        2 0.78319524E-01 0.82737726E+02</pdfrwt>
<pdfrwt beam="2">  1       -2 0.10296428E-01 0.82737726E+02</pdfrwt>
<totfact> 0.36555062E+03</totfact>
</mgrwt>
</event>
<event>
 4    1  0.4938540E-001  0.9003039E+02  0.7546771E-02  0.1302778E+00
          1   -1    0    0  501    0  0.00000000000E+00  0.00000000000E+00  0.11353337098E+03  0.11353337098E+03  0.00000000000E+00 0. -1.
         -1   -1    0    0    0  501 -0.00000000000E+00 -0.00000000000E+00 -0.71766328164E+02  0.71766328164E+02  0.00000000000E+00 0.  1.
         24    1    1    2    0    0  0.61772825001E+01  0.40001210414E+02  0.14199875082E+02  0.91143337992E+02  0.80419002446E+02 0.  1.
        -24    1    1    2    0    0 -0.61772825001E+01 -0.40001210414E+02  0.27567167732E+02  0.94156361149E+02  0.80419002446E+02 0. -1.
<mgrwt>
<rscale>  0 0.90030393E+02</rscale>
<asrwt>0</asrwt>
<pdfrwt beam="1">  1        1 0.17466672E-01 0.90030393E+02</pdfrwt>
<pdfrwt beam="2">  1       -1 0.11040974E-01 0.90030393E+02</pdfrwt>
<totfact> 0.14257993E+04</totfact>
</mgrwt>
</event>
<event>
 4    1  0.4938540E-001  0.9115944E+02  0.7546771E-02  0.1300068E+00
          1   -1    0    0  501    0  0.00000000000E+00  0.00000000000E+00  0.10135640665E+03  0.10135640665E+03  0.00000000000E+00 0. -1.
         -1   -1    0    0    0  501 -0.00000000000E+00 -0.00000000000E+00 -0.81988570778E+02  0.81988570778E+02  0.00000000000E+00 0.  1.
         24    1    1    2    0    0  0.13872148246E+02 -0.40625006771E+02  0.95304367596E+01  0.91656275570E+02  0.80419002446E+02 0.  1.
        -24    1    1    2    0    0 -0.13872148246E+02  0.40625006771E+02  0.98373991076E+01  0.91688701854E+02  0.80419002446E+02 0.  0.
<mgrwt>
<rscale>  0 0.91159441E+02</rscale>
<asrwt>0</asrwt>
<pdfrwt beam="1">  1        1 0.15593293E-01 0.91159441E+02</pdfrwt>
<pdfrwt beam="2">  1       -1 0.12613626E-01 0.91159441E+02</pdfrwt>
<totfact> 0.13460827E+04</totfact>
</mgrwt>
</event>
<event>
 4    1  0.4938540E-001  0.8585824E+02  0.7546771E-02  0.1313203E+00
          2   -1    0    0  501    0  0.00000000000E+00  0.00000000000E+00  0.80767343801E+03  0.80767343801E+03  0.00000000000E+00 0. -1.
         -2   -1    0    0    0  501 -0.00000000000E+00 -0.00000000000E+00 -0.29445489732E+02  0.29445489732E+02  0.00000000000E+00 0.  1.
         24    1    1    2    0    0 -0.20580673781E+02 -0.21928463783E+02  0.73680498180E+03  0.74179054916E+03  0.80419002446E+02 0. -1.
        -24    1    1    2    0    0  0.20580673781E+02  0.21928463783E+02  0.41422966473E+02  0.95328378582E+02  0.80419002446E+02 0.  1.
<mgrwt>
<rscale>  0 0.85858241E+02</rscale>
<asrwt>0</asrwt>
<pdfrwt beam="1">  1        2 0.12425744E+00 0.85858241E+02</pdfrwt>
<pdfrwt beam="2">  1       -2 0.45300760E-02 0.85858241E+02</pdfrwt>
<totfact> 0.74879571E+03</totfact>
</mgrwt>
</event>
<event>
 4    1  0.4938540E-001  0.9146193E+02  0.7546771E-02  0.1299350E+00
         -2   -1    0    0    0  501 -0.00000000000E+00  0.00000000000E+00  0.22108281348E+02  0.22108281348E+02  0.00000000000E+00 0.  1.
          2   -1    0    0  501    0  0.00000000000E+00 -0.00000000000E+00 -0.59925888228E+03  0.59925888228E+03  0.00000000000E+00 0. -1.
         24    1    1    2    0    0 -0.43533015369E+02  0.17162831686E+01 -0.47719638108E+03  0.48588236346E+03  0.80419002446E+02 0. -1.
        -24    1    1    2    0    0  0.43533015369E+02 -0.17162831686E+01 -0.99954219857E+02  0.13548480017E+03  0.80419002446E+02 0.  1.
<mgrwt>
<rscale>  0 0.91461932E+02</rscale>
<asrwt>0</asrwt>
<pdfrwt beam="1">  1        2 0.92193669E-01 0.91461932E+02</pdfrwt>
<pdfrwt beam="2">  1       -2 0.34012743E-02 0.91461932E+02</pdfrwt>
<totfact> 0.16231414E+04</totfact>
</mgrwt>
</event>
<event>
 4    1  0.4938540E-001  0.8327378E+02  0.7546771E-02  0.1320010E+00
         -2   -1    0    0    0  501 -0.00000000000E+00  0.00000000000E+00  0.60439850547E+02  0.60439850547E+02  0.00000000000E+00 0.  1.
          2   -1    0    0  501    0  0.00000000000E+00 -0.00000000000E+00 -0.17193544246E+04  0.17193544246E+04  0.00000000000E+00 0. -1.
         24    1    1    2    0    0  0.11359219532E+02 -0.18392232856E+02 -0.16891499615E+04  0.16912013820E+04  0.80419002446E+02 0. -1.
        -24    1    1    2    0    0 -0.11359219532E+02  0.18392232856E+02  0.30235387486E+02  0.88592893104E+02  0.80419002446E+02 0.  1.
<mgrwt>
<rscale>  0 0.83273778E+02</rscale>
<asrwt>0</asrwt>
<pdfrwt beam="1">  1        2 0.26451607E+00 0.83273778E+02</pdfrwt>
<pdfrwt beam="2">  1       -2 0.92984382E-02 0.83273778E+02</pdfrwt>
<totfact> 0.80461757E+02</totfact>
</mgrwt>
</event>
<event>
 4    1  0.4938540E-001  0.8369036E+02  0.7546771E-02  0.1318893E+00
         -2   -1    0    0    0  501 -0.00000000000E+00  0.00000000000E+00  0.24679159376E+02  0.24679159376E+02  0.00000000000E+00 0.  1.
          2   -1    0    0  501    0  0.00000000000E+00 -0.00000000000E+00 -0.33633701838E+03  0.33633701838E+03  0.00000000000E+00 0. -1.
         24    1    1    2    0    0 -0.23164818237E+02 -0.50087099888E+00 -0.22716681583E+03  0.24209262245E+03  0.80419002446E+02 0. -1.
        -24    1    1    2    0    0  0.23164818237E+02  0.50087099888E+00 -0.84491043170E+02  0.11892355530E+03  0.80419002446E+02 0.  1.
<mgrwt>
<rscale>  0 0.83690356E+02</rscale>
<asrwt>0</asrwt>
<pdfrwt beam="1">  1        2 0.51744154E-01 0.83690356E+02</pdfrwt>
<pdfrwt beam="2">  1       -2 0.37967939E-02 0.83690356E+02</pdfrwt>
<totfact> 0.25390285E+04</totfact>
</mgrwt>
</event>
<event>
 4    1  0.4938540E-001  0.1064819E+03  0.7546771E-02  0.1267227E+00
         -2   -1    0    0    0  501 -0.00000000000E+00  0.00000000000E+00  0.21526899849E+02  0.21526899849E+02  0.00000000000E+00 0.  1.
          2   -1    0    0  501    0  0.00000000000E+00 -0.00000000000E+00 -0.59507527275E+03  0.59507527275E+03  0.00000000000E+00 0. -1.
         24    1    1    2    0    0  0.36925298778E+02 -0.59225824599E+02 -0.39127339420E+03  0.40550371262E+03  0.80419002446E+02 0. -1.
        -24    1    1    2    0    0 -0.36925298778E+02  0.59225824599E+02 -0.18227497871E+03  0.21109845998E+03  0.80419002446E+02 0.  1.
<mgrwt>
<rscale>  0 0.10648189E+03</rscale>
<asrwt>0</asrwt>
<pdfrwt beam="1">  1        2 0.91550040E-01 0.10648189E+03</pdfrwt>
<pdfrwt beam="2">  1       -2 0.33118308E-02 0.10648189E+03</pdfrwt>
<totfact> 0.17240423E+04</totfact>
</mgrwt>
</event>
<event>
 4    1  0.4938540E-001  0.8930964E+02  0.7546771E-02  0.1304532E+00
          1   -1    0    0  501    0  0.00000000000E+00  0.00000000000E+00  0.88681323641E+03  0.88681323641E+03  0.00000000000E+00 0. -1.
         -1   -1    0    0    0  501 -0.00000000000E+00 -0.00000000000E+00 -0.73330689023E+02  0.73330689023E+02  0.00000000000E+00 0.  1.
         24    1    1    2    0    0  0.36115138119E+02  0.14307071917E+02 -0.42926746353E+02  0.99090448657E+02  0.80419002446E+02 0.  1.
        -24    1    1    2    0    0 -0.36115138119E+02 -0.14307071917E+02  0.85640929374E+03  0.86105347677E+03  0.80419002446E+02 0. -1.
<mgrwt>
<rscale>  0 0.89309638E+02</rscale>
<asrwt>0</asrwt>
<pdfrwt beam="1">  1        1 0.13643280E+00 0.89309638E+02</pdfrwt>
<pdfrwt beam="2">  1       -1 0.11281645E-01 0.89309638E+02</pdfrwt>
<totfact> 0.99038286E+02</totfact>
</mgrwt>
</event>
<event>
 4    1  0.4938540E-001  0.8773593E+02  0.7546771E-02  0.1308429E+00
         -2   -1    0    0    0  501 -0.00000000000E+00  0.00000000000E+00  0.30995277736E+02  0.30995277736E+02  0.00000000000E+00 0.  1.
          2   -1    0    0  501    0  0.00000000000E+00 -0.00000000000E+00 -0.26539479205E+03  0.26539479205E+03  0.00000000000E+00 0. -1.
         24    1    1    2    0    0  0.32599704716E+02 -0.12947450188E+02 -0.15475908882E+03  0.17789875980E+03  0.80419002446E+02 0.  0.
        -24    1    1    2    0    0 -0.32599704716E+02  0.12947450188E+02 -0.79640425500E+02  0.11849130999E+03  0.80419002446E+02 0. -1.
<mgrwt>
<rscale>  0 0.87735929E+02</rscale>
<asrwt>0</asrwt>
<pdfrwt beam="1">  1        2 0.40829966E-01 0.87735929E+02</pdfrwt>
<pdfrwt beam="2">  1       -2 0.47685045E-02 0.87735929E+02</pdfrwt>
<totfact> 0.23368737E+04</totfact>
</mgrwt>
</event>
<event>
 4    1  0.4938540E-001  0.8690365E+02  0.7546771E-02  0.1310528E+00
         -2   -1    0    0    0  501 -0.00000000000E+00  0.00000000000E+00  0.50880146376E+02  0.50880146376E+02  0.00000000000E+00 0.  1.
          2   -1    0    0  501    0  0.00000000000E+00 -0.00000000000E+00 -0.52040704480E+03  0.52040704480E+03  0.00000000000E+00 0. -1.
         24    1    1    2    0    0 -0.18087688859E+02  0.27529325542E+02 -0.47625936118E+03  0.48412314892E+03  0.80419002446E+02 0. -1.
        -24    1    1    2    0    0  0.18087688859E+02 -0.27529325542E+02  0.67324627577E+01  0.87164042255E+02  0.80419002446E+02 0.  1.
<mgrwt>
<rscale>  0 0.86903649E+02</rscale>
<asrwt>0</asrwt>
<pdfrwt beam="1">  1        2 0.80062622E-01 0.86903649E+02</pdfrwt>
<pdfrwt beam="2">  1       -2 0.78277148E-02 0.86903649E+02</pdfrwt>
<totfact> 0.54587222E+03</totfact>
</mgrwt>
</event>
<event>
 4    1  0.4938540E-001  0.8924643E+02  0.7546771E-02  0.1304687E+00
          2   -1    0    0  501    0  0.00000000000E+00  0.00000000000E+00  0.83815765571E+02  0.83815765571E+02  0.00000000000E+00 0. -1.
         -2   -1    0    0    0  501 -0.00000000000E+00 -0.00000000000E+00 -0.11338943153E+03  0.11338943153E+03  0.00000000000E+00 0.  1.
         24    1    1    2    0    0  0.88839576446E+01 -0.37666764049E+02  0.24890628850E+02  0.92652410526E+02  0.80419002446E+02 0. -1.
        -24    1    1    2    0    0 -0.88839576446E+01  0.37666764049E+02 -0.54464294811E+02  0.10455278658E+03  0.80419002446E+02 0.  1.
<mgrwt>
<rscale>  0 0.89246433E+02</rscale>
<asrwt>0</asrwt>
<pdfrwt beam="1">  1        2 0.12894733E-01 0.89246433E+02</pdfrwt>
<pdfrwt beam="2">  1       -2 0.17444528E-01 0.89246433E+02</pdfrwt>
<totfact> 0.11187963E+04</totfact>
</mgrwt>
</event>
<event>
 4    1  0.4938540E-001  0.8194039E+02  0.7546771E-02  0.1323633E+00
         -2   -1    0    0    0  501 -0.00000000000E+00  0.00000000000E+00  0.41512118294E+03  0.41512118294E+03  0.00000000000E+00 0.  1.
          2   -1    0    0  501    0  0.00000000000E+00 -0.00000000000E+00 -0.17211431144E+02  0.17211431144E+02  0.00000000000E+00 0. -1.
         24    1    1    2    0    0  0.66341424879E+01 -0.14247798403E+02  0.14588719200E+03  0.16732393836E+03  0.80419002446E+02 0. -1.
        -24    1    1    2    0    0 -0.66341424879E+01  0.14247798403E+02  0.25202255979E+03  0.26500867572E+03  0.80419002446E+02 0.  1.
<mgrwt>
<rscale>  0 0.81940390E+02</rscale>
<asrwt>0</asrwt>
<pdfrwt beam="1">  1        2 0.26479128E-02 0.81940390E+02</pdfrwt>
<pdfrwt beam="2">  1       -2 0.63864789E-01 0.81940390E+02</pdfrwt>
<totfact> 0.76846214E+03</totfact>
</mgrwt>
</event>
<event>
 4    1  0.4938540E-001  0.8676979E+02  0.7546771E-02  0.1310868E+00
         -1   -1    0    0    0  501 -0.00000000000E+00  0.00000000000E+00  0.29595204955E+02  0.29595204955E+02  0.00000000000E+00 0.  1.
          1   -1    0    0  501    0  0.00000000000E+00 -0.00000000000E+00 -0.34487474186E+03  0.34487474186E+03  0.00000000000E+00 0. -1.
         24    1    1    2    0    0 -0.20207868558E+02 -0.25562146372E+02 -0.61739060504E+02  0.10649276419E+03  0.80419002446E+02 0.  1.
        -24    1    1    2    0    0  0.20207868558E+02  0.25562146372E+02 -0.25354047640E+03  0.26797718262E+03  0.80419002446E+02 0. -1.
<mgrwt>
<rscale>  0 0.86769794E+02</rscale>
<asrwt>0</asrwt>
<pdfrwt beam="1">  1        1 0.53057654E-01 0.86769794E+02</pdfrwt>
<pdfrwt beam="2">  1       -1 0.45531083E-02 0.86769794E+02</pdfrwt>
<totfact> 0.13444880E+04</totfact>
</mgrwt>
</event>
<event>
 4    1  0.4938540E-001  0.2313131E+03  0.7546771E-02  0.1125719E+00
          2   -1    0    0  501    0  0.00000000000E+00  0.00000000000E+00  0.78445927045E+03  0.78445927045E+03  0.00000000000E+00 0. -1.
         -2   -1    0    0    0  501 -0.00000000000E+00 -0.00000000000E+00 -0.77077105058E+02  0.77077105058E+02  0.00000000000E+00 0.  1.
         24    1    1    2    0    0  0.14839953696E+03 -0.15816481749E+03  0.49982166286E+03  0.55075170692E+03  0.80419002446E+02 0. -1.
        -24    1    1    2    0    0 -0.14839953696E+03  0.15816481749E+03  0.20756050254E+03  0.31078466859E+03  0.80419002446E+02 0.  1.
<mgrwt>
<rscale>  0 0.23131310E+03</rscale>
<asrwt>0</asrwt>
<pdfrwt beam="1">  1        2 0.12068604E+00 0.23131310E+03</pdfrwt>
<pdfrwt beam="2">  1       -2 0.11858017E-01 0.23131310E+03</pdfrwt>
<totfact> 0.18293883E+03</totfact>
</mgrwt>
</event>
<event>
 4    1  0.4938540E-001  0.8260621E+02  0.7546771E-02  0.1321814E+00
         -1   -1    0    0    0  501 -0.00000000000E+00  0.00000000000E+00  0.39921854381E+02  0.39921854381E+02  0.00000000000E+00 0.  1.
          1   -1    0    0  501    0  0.00000000000E+00 -0.00000000000E+00 -0.17150039602E+03  0.17150039602E+03  0.00000000000E+00 0. -1.
         24    1    1    2    0    0  0.13007064406E+02  0.13688774681E+02 -0.71893783498E+02  0.10951026590E+03  0.80419002446E+02 0. -1.
        -24    1    1    2    0    0 -0.13007064406E+02 -0.13688774681E+02 -0.59684758141E+02  0.10191198450E+03  0.80419002446E+02 0.  1.
<mgrwt>
<rscale>  0 0.82606198E+02</rscale>
<asrwt>0</asrwt>
<pdfrwt beam="1">  1        1 0.26384677E-01 0.82606208E+02</pdfrwt>
<pdfrwt beam="2">  1       -1 0.61418237E-02 0.82606208E+02</pdfrwt>
<totfact> 0.20257423E+04</totfact>
</mgrwt>
</event>
<event>
 4    1  0.4938540E-001  0.8735280E+02  0.7546771E-02  0.1309392E+00
         -1   -1    0    0    0  501 -0.00000000000E+00  0.00000000000E+00  0.53511286309E+02  0.53511286309E+02  0.00000000000E+00 0.  1.
          1   -1    0    0  501    0  0.00000000000E+00 -0.00000000000E+00 -0.14658375113E+03  0.14658375113E+03  0.00000000000E+00 0. -1.
         24    1    1    2    0    0 -0.25004001050E+02  0.23196899322E+02 -0.30035228960E+02  0.92372220606E+02  0.80419002446E+02 0. -1.
        -24    1    1    2    0    0  0.25004001050E+02 -0.23196899322E+02 -0.63037235857E+02  0.10772281683E+03  0.80419002446E+02 0.  1.
<mgrwt>
<rscale>  0 0.87352803E+02</rscale>
<asrwt>0</asrwt>
<pdfrwt beam="1">  1        1 0.22551346E-01 0.87352803E+02</pdfrwt>
<pdfrwt beam="2">  1       -1 0.82325056E-02 0.87352803E+02</pdfrwt>
<totfact> 0.16040716E+04</totfact>
</mgrwt>
</event>
<event>
 4    1  0.4938540E-001  0.9539799E+02  0.7546771E-02  0.1290282E+00
         -1   -1    0    0    0  501 -0.00000000000E+00  0.00000000000E+00  0.56016058442E+02  0.56016058442E+02  0.00000000000E+00 0.  1.
          1   -1    0    0  501    0  0.00000000000E+00 -0.00000000000E+00 -0.21386991396E+03  0.21386991396E+03  0.00000000000E+00 0. -1.
         24    1    1    2    0    0 -0.46755647080E+02 -0.21153500295E+02 -0.12771097388E+02  0.96249041509E+02  0.80419002446E+02 0.  1.
        -24    1    1    2    0    0  0.46755647080E+02  0.21153500295E+02 -0.14508275813E+03  0.17363693089E+03  0.80419002446E+02 0. -1.
<mgrwt>
<rscale>  0 0.95397993E+02</rscale>
<asrwt>0</asrwt>
<pdfrwt beam="1">  1        1 0.32903064E-01 0.95397993E+02</pdfrwt>
<pdfrwt beam="2">  1       -1 0.86178551E-02 0.95397993E+02</pdfrwt>
<totfact> 0.94768531E+03</totfact>
</mgrwt>
</event>
<event>
 4    1  0.4938540E-001  0.1080350E+03  0.7546771E-02  0.1264253E+00
          1   -1    0    0  501    0  0.00000000000E+00  0.00000000000E+00  0.21098983500E+04  0.21098983500E+04  0.00000000000E+00 0. -1.
         -1   -1    0    0    0  501 -0.00000000000E+00 -0.00000000000E+00 -0.13357785883E+02  0.13357785883E+02  0.00000000000E+00 0.  1.
         24    1    1    2    0    0 -0.66971348395E+02  0.26817793701E+02  0.23567515767E+03  0.25925730744E+03  0.80419002446E+02 0.  1.
        -24    1    1    2    0    0  0.66971348395E+02 -0.26817793701E+02  0.18608654065E+04  0.18639988285E+04  0.80419002446E+02 0. -1.
<mgrwt>
<rscale>  0 0.10803505E+03</rscale>
<asrwt>0</asrwt>
<pdfrwt beam="1">  1        1 0.32459948E+00 0.10803505E+03</pdfrwt>
<pdfrwt beam="2">  1       -1 0.20550457E-02 0.10803505E+03</pdfrwt>
<totfact> 0.18952932E+03</totfact>
</mgrwt>
</event>
<event>
 4    1  0.4938540E-001  0.9614249E+02  0.7546771E-02  0.1288623E+00
         -2   -1    0    0    0  501 -0.00000000000E+00  0.00000000000E+00  0.52358406673E+02  0.52358406673E+02  0.00000000000E+00 0.  1.
          2   -1    0    0  501    0  0.00000000000E+00 -0.00000000000E+00 -0.17656379978E+03  0.17656379978E+03  0.00000000000E+00 0. -1.
         24    1    1    2    0    0 -0.42157617448E+02  0.31605279040E+02 -0.60785152040E+02  0.11374624844E+03  0.80419002446E+02 0.  1.
        -24    1    1    2    0    0  0.42157617448E+02 -0.31605279040E+02 -0.63420241065E+02  0.11517595801E+03  0.80419002446E+02 0. -1.
<mgrwt>
<rscale>  0 0.96142481E+02</rscale>
<asrwt>0</asrwt>
<pdfrwt beam="1">  1        2 0.27163662E-01 0.96142493E+02</pdfrwt>
<pdfrwt beam="2">  1       -2 0.80551393E-02 0.96142493E+02</pdfrwt>
<totfact> 0.16530441E+04</totfact>
</mgrwt>
</event>
<event>
 4    1  0.4938540E-001  0.1056276E+03  0.7546771E-02  0.1268888E+00
          2   -1    0    0  501    0  0.00000000000E+00  0.00000000000E+00  0.15372896394E+04  0.15372896394E+04  0.00000000000E+00 0. -1.
         -2   -1    0    0    0  501 -0.00000000000E+00 -0.00000000000E+00 -0.95985260787E+01  0.95985260787E+01  0.00000000000E+00 0.  1.
         24    1    1    2    0    0 -0.59015415034E+02 -0.34744098263E+02  0.11457996681E+04  0.11506581017E+04  0.80419002446E+02 0. -1.
        -24    1    1    2    0    0  0.59015415034E+02  0.34744098263E+02  0.38189144525E+03  0.39623006383E+03  0.80419002446E+02 0.  1.
<mgrwt>
<rscale>  0 0.10562759E+03</rscale>
<asrwt>0</asrwt>
<pdfrwt beam="1">  1        2 0.23650590E+00 0.10562759E+03</pdfrwt>
<pdfrwt beam="2">  1       -2 0.14766975E-02 0.10562759E+03</pdfrwt>
<totfact> 0.15035970E+04</totfact>
</mgrwt>
</event>
<event>
 4    1  0.4938540E-001  0.8349747E+02  0.7546771E-02  0.1319409E+00
         -1   -1    0    0    0  501 -0.00000000000E+00  0.00000000000E+00  0.29114631638E+02  0.29114631638E+02  0.00000000000E+00 0.  1.
          1   -1    0    0  501    0  0.00000000000E+00 -0.00000000000E+00 -0.14365616589E+04  0.14365616589E+04  0.00000000000E+00 0. -1.
         24    1    1    2    0    0 -0.21557225876E+02 -0.63164982394E+01 -0.34746480081E+02  0.90438630960E+02  0.80419002446E+02 0.  1.
        -24    1    1    2    0    0  0.21557225876E+02  0.63164982394E+01 -0.13727005472E+04  0.13752376596E+04  0.80419002446E+02 0. -1.
<mgrwt>
<rscale>  0 0.83497474E+02</rscale>
<asrwt>0</asrwt>
<pdfrwt beam="1">  1        1 0.22100947E+00 0.83497474E+02</pdfrwt>
<pdfrwt beam="2">  1       -1 0.44791744E-02 0.83497474E+02</pdfrwt>
<totfact> 0.16359376E+03</totfact>
</mgrwt>
</event>
<event>
 4    1  0.4938540E-001  0.9724956E+02  0.7546771E-02  0.1286188E+00
         -1   -1    0    0    0  501 -0.00000000000E+00  0.00000000000E+00  0.17776214960E+02  0.17776214960E+02  0.00000000000E+00 0.  1.
          1   -1    0    0  501    0  0.00000000000E+00 -0.00000000000E+00 -0.12551947952E+04  0.12551947952E+04  0.00000000000E+00 0. -1.
         24    1    1    2    0    0 -0.51588082212E+02 -0.18136421954E+02 -0.13559303220E+03  0.16686205789E+03  0.80419002446E+02 0.  1.
        -24    1    1    2    0    0  0.51588082212E+02  0.18136421954E+02 -0.11018255480E+04  0.11061089523E+04  0.80419002446E+02 0. -1.
<mgrwt>
<rscale>  0 0.97249555E+02</rscale>
<asrwt>0</asrwt>
<pdfrwt beam="1">  1        1 0.19310690E+00 0.97249555E+02</pdfrwt>
<pdfrwt beam="2">  1       -1 0.27348021E-02 0.97249555E+02</pdfrwt>
<totfact> 0.44012475E+03</totfact>
</mgrwt>
</event>
<event>
 4    1  0.4938540E-001  0.9768106E+02  0.7546771E-02  0.1285249E+00
         -4   -1    0    0    0  501 -0.00000000000E+00  0.00000000000E+00  0.33895114675E+03  0.33895114675E+03  0.00000000000E+00 0.  1.
          4   -1    0    0  501    0  0.00000000000E+00 -0.00000000000E+00 -0.32576530441E+02  0.32576530441E+02  0.00000000000E+00 0. -1.
         24    1    1    2    0    0 -0.13668897876E+02 -0.53735787105E+02  0.84713594738E+02  0.12929803816E+03  0.80419002446E+02 0. -1.
        -24    1    1    2    0    0  0.13668897876E+02  0.53735787105E+02  0.22166102157E+03  0.24222963903E+03  0.80419002446E+02 0.  0.
<mgrwt>
<rscale>  0 0.97681060E+02</rscale>
<asrwt>0</asrwt>
<pdfrwt beam="1">  1        4 0.50117742E-02 0.97681060E+02</pdfrwt>
<pdfrwt beam="2">  1       -4 0.52146328E-01 0.97681060E+02</pdfrwt>
<totfact> 0.12935118E+03</totfact>
</mgrwt>
</event>
<event>
 4    1  0.4938540E-001  0.8570008E+02  0.7546771E-02  0.1313612E+00
         -2   -1    0    0    0  501 -0.00000000000E+00  0.00000000000E+00  0.20034320253E+03  0.20034320253E+03  0.00000000000E+00 0.  1.
          2   -1    0    0  501    0  0.00000000000E+00 -0.00000000000E+00 -0.49123384553E+02  0.49123384553E+02  0.00000000000E+00 0. -1.
         24    1    1    2    0    0  0.28227180312E+02  0.89729937687E+01  0.12780497971E+02  0.86647824025E+02  0.80419002446E+02 0. -1.
        -24    1    1    2    0    0 -0.28227180312E+02 -0.89729937687E+01  0.13843932000E+03  0.16281876306E+03  0.80419002446E+02 0.  1.
<mgrwt>
<rscale>  0 0.85700083E+02</rscale>
<asrwt>0</asrwt>
<pdfrwt beam="1">  1        2 0.75574439E-02 0.85700083E+02</pdfrwt>
<pdfrwt beam="2">  1       -2 0.30822031E-01 0.85700083E+02</pdfrwt>
<totfact> 0.80343257E+03</totfact>
</mgrwt>
</event>
<event>
 4    1  0.4938540E-001  0.1061508E+03  0.7546771E-02  0.1267869E+00
          2   -1    0    0  501    0  0.00000000000E+00  0.00000000000E+00  0.61340845784E+03  0.61340845784E+03  0.00000000000E+00 0. -1.
         -2   -1    0    0    0  501 -0.00000000000E+00 -0.00000000000E+00 -0.18970492594E+02  0.18970492594E+02  0.00000000000E+00 0.  1.
         24    1    1    2    0    0 -0.64374814348E+02 -0.25625239968E+02  0.35349911030E+03  0.36909295114E+03  0.80419002446E+02 0. -1.
        -24    1    1    2    0    0  0.64374814348E+02  0.25625239968E+02  0.24093885495E+03  0.26328599929E+03  0.80419002446E+02 0.  1.
<mgrwt>
<rscale>  0 0.10615077E+03</rscale>
<asrwt>0</asrwt>
<pdfrwt beam="1">  1        2 0.94370517E-01 0.10615077E+03</pdfrwt>
<pdfrwt beam="2">  1       -2 0.29185378E-02 0.10615077E+03</pdfrwt>
<totfact> 0.20037224E+04</totfact>
</mgrwt>
</event>
<event>
 4    1  0.4938540E-001  0.1403937E+03  0.7546771E-02  0.1212800E+00
          1   -1    0    0  501    0  0.00000000000E+00  0.00000000000E+00  0.23607274685E+04  0.23607274685E+04  0.00000000000E+00 0. -1.
         -1   -1    0    0    0  501 -0.00000000000E+00 -0.00000000000E+00 -0.84262627334E+01  0.84262627334E+01  0.00000000000E+00 0.  1.
         24    1    1    2    0    0 -0.11120902229E+03 -0.29592785026E+02  0.10629320861E+04  0.10721637073E+04  0.80419002446E+02 0. -1.
        -24    1    1    2    0    0  0.11120902229E+03  0.29592785026E+02  0.12893691196E+04  0.12969900239E+04  0.80419002446E+02 0.  1.
<mgrwt>
<rscale>  0 0.14039372E+03</rscale>
<asrwt>0</asrwt>
<pdfrwt beam="1">  1        1 0.36318832E+00 0.14039372E+03</pdfrwt>
<pdfrwt beam="2">  1       -1 0.12963500E-02 0.14039372E+03</pdfrwt>
<totfact> 0.25367060E+03</totfact>
</mgrwt>
</event>
<event>
 4    1  0.4938540E-001  0.1135976E+03  0.7546771E-02  0.1254049E+00
          2   -1    0    0  501    0  0.00000000000E+00  0.00000000000E+00  0.21865003497E+04  0.21865003497E+04  0.00000000000E+00 0. -1.
         -2   -1    0    0    0  501 -0.00000000000E+00 -0.00000000000E+00 -0.99297866521E+01  0.99297866521E+01  0.00000000000E+00 0.  1.
         24    1    1    2    0    0  0.74777799650E+02 -0.29077057044E+02  0.17877380993E+04  0.17913436081E+04  0.80419002446E+02 0. -1.
        -24    1    1    2    0    0 -0.74777799650E+02  0.29077057044E+02  0.38883246369E+03  0.40508652822E+03  0.80419002446E+02 0.  1.
<mgrwt>
<rscale>  0 0.11359758E+03</rscale>
<asrwt>0</asrwt>
<pdfrwt beam="1">  1        2 0.33638429E+00 0.11359758E+03</pdfrwt>
<pdfrwt beam="2">  1       -2 0.15276612E-02 0.11359758E+03</pdfrwt>
<totfact> 0.67209297E+03</totfact>
</mgrwt>
</event>
<event>
 4    1  0.4938540E-001  0.9778538E+02  0.7546771E-02  0.1285023E+00
         -2   -1    0    0    0  501 -0.00000000000E+00  0.00000000000E+00  0.39118485989E+02  0.39118485989E+02  0.00000000000E+00 0.  1.
          2   -1    0    0  501    0  0.00000000000E+00 -0.00000000000E+00 -0.35080799444E+03  0.35080799444E+03  0.00000000000E+00 0. -1.
         24    1    1    2    0    0 -0.36654236791E+02 -0.41847726724E+02 -0.26320187620E+03  0.28077964473E+03  0.80419002446E+02 0. -1.
        -24    1    1    2    0    0  0.36654236791E+02  0.41847726724E+02 -0.48487632252E+02  0.10914683570E+03  0.80419002446E+02 0.  1.
<mgrwt>
<rscale>  0 0.97785384E+02</rscale>
<asrwt>0</asrwt>
<pdfrwt beam="1">  1        2 0.53970461E-01 0.97785384E+02</pdfrwt>
<pdfrwt beam="2">  1       -2 0.60182286E-02 0.97785384E+02</pdfrwt>
<totfact> 0.12466652E+04</totfact>
</mgrwt>
</event>
<event>
 4    1  0.4938540E-001  0.8358629E+02  0.7546771E-02  0.1319171E+00
          2   -1    0    0  501    0  0.00000000000E+00  0.00000000000E+00  0.24347504765E+03  0.24347504765E+03  0.00000000000E+00 0. -1.
         -2   -1    0    0    0  501 -0.00000000000E+00 -0.00000000000E+00 -0.29602880796E+02  0.29602880796E+02  0.00000000000E+00 0.  1.
         24    1    1    2    0    0  0.14993565276E+02 -0.17165215177E+02  0.13083925733E+03  0.15525971410E+03  0.80419002446E+02 0.  1.
        -24    1    1    2    0    0 -0.14993565276E+02  0.17165215177E+02  0.83032909532E+02  0.11781821435E+03  0.80419002446E+02 0.  0.
<mgrwt>
<rscale>  0 0.83586288E+02</rscale>
<asrwt>0</asrwt>
<pdfrwt beam="1">  1        2 0.37457698E-01 0.83586288E+02</pdfrwt>
<pdfrwt beam="2">  1       -2 0.45542895E-02 0.83586288E+02</pdfrwt>
<totfact> 0.27222897E+04</totfact>
</mgrwt>
</event>
<event>
 4    1  0.4938540E-001  0.9532460E+02  0.7546771E-02  0.1290447E+00
          1   -1    0    0  501    0  0.00000000000E+00  0.00000000000E+00  0.10761461185E+04  0.10761461185E+04  0.00000000000E+00 0. -1.
         -1   -1    0    0    0  501 -0.00000000000E+00 -0.00000000000E+00 -0.20468438982E+02  0.20468438982E+02  0.00000000000E+00 0.  1.
         24    1    1    2    0    0 -0.25331526317E+02 -0.44473326262E+02  0.10757947578E+03  0.14373629513E+03  0.80419002446E+02 0. -1.
        -24    1    1    2    0    0  0.25331526317E+02  0.44473326262E+02  0.94809820373E+03  0.95287826234E+03  0.80419002446E+02 0.  0.
<mgrwt>
<rscale>  0 0.95324598E+02</rscale>
<asrwt>0</asrwt>
<pdfrwt beam="1">  1        1 0.16556090E+00 0.95324598E+02</pdfrwt>
<pdfrwt beam="2">  1       -1 0.31489914E-02 0.95324598E+02</pdfrwt>
<totfact> 0.47529088E+03</totfact>
</mgrwt>
</event>
<event>
 4    1  0.4938540E-001  0.9907143E+02  0.7546771E-02  0.1282261E+00
         -4   -1    0    0    0  501 -0.00000000000E+00  0.00000000000E+00  0.14756538755E+03  0.14756538755E+03  0.00000000000E+00 0.  1.
          4   -1    0    0  501    0  0.00000000000E+00 -0.00000000000E+00 -0.68140863881E+02  0.68140863881E+02  0.00000000000E+00 0. -1.
         24    1    1    2    0    0  0.46183646231E+02 -0.34856817131E+02  0.56377972622E+02  0.11398955492E+03  0.80419002446E+02 0. -1.
        -24    1    1    2    0    0 -0.46183646231E+02  0.34856817131E+02  0.23046551050E+02  0.10171669651E+03  0.80419002446E+02 0.  0.
<mgrwt>
<rscale>  0 0.99071415E+02</rscale>
<asrwt>0</asrwt>
<pdfrwt beam="1">  1        4 0.10483210E-01 0.99071427E+02</pdfrwt>
<pdfrwt beam="2">  1       -4 0.22702367E-01 0.99071427E+02</pdfrwt>
<totfact> 0.19107650E+03</totfact>
</mgrwt>
</event>
<event>
 4    1  0.4938540E-001  0.2360084E+03  0.7546771E-02  0.1122481E+00
          1   -1    0    0  501    0  0.00000000000E+00  0.00000000000E+00  0.18139267417E+03  0.18139267417E+03  0.00000000000E+00 0. -1.
         -1   -1    0    0    0  501 -0.00000000000E+00 -0.00000000000E+00 -0.32694662748E+03  0.32694662748E+03  0.00000000000E+00 0.  1.
         24    1    1    2    0    0  0.85458861417E+02 -0.20476702838E+03 -0.13544896152E+03  0.27211466340E+03  0.80419002446E+02 0. -1.
        -24    1    1    2    0    0 -0.85458861417E+02  0.20476702838E+03 -0.10104991793E+02  0.23622463826E+03  0.80419002446E+02 0.  0.
<mgrwt>
<rscale>  0 0.23600841E+03</rscale>
<asrwt>0</asrwt>
<pdfrwt beam="1">  1        1 0.27906565E-01 0.23600841E+03</pdfrwt>
<pdfrwt beam="2">  1       -1 0.50299481E-01 0.23600841E+03</pdfrwt>
<totfact> 0.67641993E+02</totfact>
</mgrwt>
</event>
<event>
 4    1  0.4938540E-001  0.1045675E+03  0.7546771E-02  0.1270974E+00
         -2   -1    0    0    0  501 -0.00000000000E+00  0.00000000000E+00  0.13105186606E+03  0.13105186606E+03  0.00000000000E+00 0.  1.
          2   -1    0    0  501    0  0.00000000000E+00 -0.00000000000E+00 -0.27590742656E+03  0.27590742656E+03  0.00000000000E+00 0. -1.
         24    1    1    2    0    0 -0.65667598821E+02 -0.12446619398E+02 -0.24237852141E+03  0.26397294457E+03  0.80419002446E+02 0. -1.
        -24    1    1    2    0    0  0.65667598821E+02  0.12446619398E+02  0.97522960910E+02  0.14298634805E+03  0.80419002446E+02 0.  1.
<mgrwt>
<rscale>  0 0.10456753E+03</rscale>
<asrwt>0</asrwt>
<pdfrwt beam="1">  1        2 0.42447296E-01 0.10456753E+03</pdfrwt>
<pdfrwt beam="2">  1       -2 0.20161826E-01 0.10456753E+03</pdfrwt>
<totfact> 0.23867597E+03</totfact>
</mgrwt>
</event>
<event>
 4    1  0.4938540E-001  0.9471353E+02  0.7546771E-02  0.1291823E+00
         -1   -1    0    0    0  501 -0.00000000000E+00  0.00000000000E+00  0.19586494610E+02  0.19586494610E+02  0.00000000000E+00 0.  1.
          1   -1    0    0  501    0  0.00000000000E+00 -0.00000000000E+00 -0.46455827416E+03  0.46455827416E+03  0.00000000000E+00 0. -1.
         24    1    1    2    0    0 -0.14020463312E+02  0.48029826961E+02 -0.19372821040E+03  0.21564153850E+03  0.80419002446E+02 0.  1.
        -24    1    1    2    0    0  0.14020463312E+02 -0.48029826961E+02 -0.25124356916E+03  0.26850323027E+03  0.80419002446E+02 0.  0.
<mgrwt>
<rscale>  0 0.94713535E+02</rscale>
<asrwt>0</asrwt>
<pdfrwt beam="1">  1        1 0.71470496E-01 0.94713535E+02</pdfrwt>
<pdfrwt beam="2">  1       -1 0.30133072E-02 0.94713535E+02</pdfrwt>
<totfact> 0.17018897E+04</totfact>
</mgrwt>
</event>
<event>
 4    1  0.4938540E-001  0.8747506E+02  0.7546771E-02  0.1309084E+00
          1   -1    0    0  501    0  0.00000000000E+00  0.00000000000E+00  0.72868991137E+03  0.72868991137E+03  0.00000000000E+00 0. -1.
         -1   -1    0    0    0  501 -0.00000000000E+00 -0.00000000000E+00 -0.14011521514E+02  0.14011521514E+02  0.00000000000E+00 0.  1.
         24    1    1    2    0    0  0.29645063200E+02  0.17488308052E+02  0.17145830355E+03  0.19248334084E+03  0.80419002446E+02 0.  1.
        -24    1    1    2    0    0 -0.29645063200E+02 -0.17488308052E+02  0.54322008630E+03  0.55021809204E+03  0.80419002446E+02 0. -1.
<mgrwt>
<rscale>  0 0.87475063E+02</rscale>
<asrwt>0</asrwt>
<pdfrwt beam="1">  1        1 0.11210611E+00 0.87475063E+02</pdfrwt>
<pdfrwt beam="2">  1       -1 0.21556193E-02 0.87475063E+02</pdfrwt>
<totfact> 0.14975711E+04</totfact>
</mgrwt>
</event>
<event>
 4    1  0.4938540E-001  0.8923897E+02  0.7546771E-02  0.1304705E+00
         -2   -1    0    0    0  501 -0.00000000000E+00  0.00000000000E+00  0.84082896947E+02  0.84082896947E+02  0.00000000000E+00 0.  1.
          2   -1    0    0  501    0  0.00000000000E+00 -0.00000000000E+00 -0.11534641547E+03  0.11534641547E+03  0.00000000000E+00 0. -1.
         24    1    1    2    0    0 -0.35820807163E+02  0.14602982404E+02 -0.57807362000E+02  0.10632631084E+03  0.80419002446E+02 0. -1.
        -24    1    1    2    0    0  0.35820807163E+02 -0.14602982404E+02  0.26543843481E+02  0.93103001574E+02  0.80419002446E+02 0.  1.
<mgrwt>
<rscale>  0 0.89238967E+02</rscale>
<asrwt>0</asrwt>
<pdfrwt beam="1">  1        2 0.17745602E-01 0.89238967E+02</pdfrwt>
<pdfrwt beam="2">  1       -2 0.12935830E-01 0.89238967E+02</pdfrwt>
<totfact> 0.12552384E+04</totfact>
</mgrwt>
</event>
<event>
 4    1  0.4938540E-001  0.1035842E+03  0.7546771E-02  0.1272934E+00
         -2   -1    0    0    0  501 -0.00000000000E+00  0.00000000000E+00  0.20731997665E+03  0.20731997665E+03  0.00000000000E+00 0.  1.
          2   -1    0    0  501    0  0.00000000000E+00 -0.00000000000E+00 -0.10020199291E+03  0.10020199291E+03  0.00000000000E+00 0. -1.
         24    1    1    2    0    0 -0.15371271743E+02  0.63452276285E+02 -0.53357546457E+02  0.11651914469E+03  0.80419002446E+02 0.  0.
        -24    1    1    2    0    0  0.15371271743E+02 -0.63452276285E+02  0.16047553020E+03  0.19100282487E+03  0.80419002446E+02 0.  0.
<mgrwt>
<rscale>  0 0.10358418E+03</rscale>
<asrwt>0</asrwt>
<pdfrwt beam="1">  1        2 0.15415691E-01 0.10358418E+03</pdfrwt>
<pdfrwt beam="2">  1       -2 0.31895381E-01 0.10358418E+03</pdfrwt>
<totfact> 0.32554269E+03</totfact>
</mgrwt>
</event>
<event>
 4    1  0.4938540E-001  0.8265967E+02  0.7546771E-02  0.1321669E+00
          2   -1    0    0  501    0  0.00000000000E+00  0.00000000000E+00  0.72641294670E+03  0.72641294670E+03  0.00000000000E+00 0. -1.
         -2   -1    0    0    0  501 -0.00000000000E+00 -0.00000000000E+00 -0.12099026991E+02  0.12099026991E+02  0.00000000000E+00 0.  1.
         24    1    1    2    0    0  0.30612422834E+01 -0.18868880286E+02  0.53136761553E+03  0.53775846310E+03  0.80419002446E+02 0. -1.
        -24    1    1    2    0    0 -0.30612422834E+01  0.18868880286E+02  0.18294630418E+03  0.20075351059E+03  0.80419002446E+02 0.  0.
<mgrwt>
<rscale>  0 0.82659675E+02</rscale>
<asrwt>0</asrwt>
<pdfrwt beam="1">  1        2 0.11175580E+00 0.82659675E+02</pdfrwt>
<pdfrwt beam="2">  1       -2 0.18613893E-02 0.82659675E+02</pdfrwt>
<totfact> 0.30789877E+04</totfact>
</mgrwt>
</event>
<event>
 4    1  0.4938540E-001  0.1222446E+03  0.7546771E-02  0.1239439E+00
          1   -1    0    0  501    0  0.00000000000E+00  0.00000000000E+00  0.12619755366E+04  0.12619755366E+04  0.00000000000E+00 0. -1.
         -1   -1    0    0    0  501 -0.00000000000E+00 -0.00000000000E+00 -0.12041760771E+02  0.12041760771E+02  0.00000000000E+00 0.  1.
         24    1    1    2    0    0 -0.91966314510E+02 -0.43273856889E+01  0.54282870839E+03  0.55642317698E+03  0.80419002446E+02 0. -1.
        -24    1    1    2    0    0  0.91966314510E+02  0.43273856889E+01  0.70710506747E+03  0.71759412043E+03  0.80419002446E+02 0.  1.
<mgrwt>
<rscale>  0 0.12224461E+03</rscale>
<asrwt>0</asrwt>
<pdfrwt beam="1">  1        1 0.19414998E+00 0.12224461E+03</pdfrwt>
<pdfrwt beam="2">  1       -1 0.18525796E-02 0.12224461E+03</pdfrwt>
<totfact> 0.77004642E+03</totfact>
</mgrwt>
</event>
<event>
 4    1  0.4938540E-001  0.9577148E+02  0.7546771E-02  0.1289448E+00
          2   -1    0    0  501    0  0.00000000000E+00  0.00000000000E+00  0.24761252973E+04  0.24761252973E+04  0.00000000000E+00 0.  1.
         -2   -1    0    0    0  501 -0.00000000000E+00 -0.00000000000E+00 -0.53376423443E+01  0.53376423443E+01  0.00000000000E+00 0. -1.
         24    1    1    2    0    0 -0.51661720078E+02 -0.60018725873E+01  0.54903828269E+03  0.55732863519E+03  0.80419002446E+02 0.  0.
        -24    1    1    2    0    0  0.51661720078E+02  0.60018725873E+01  0.19217493723E+04  0.19241343045E+04  0.80419002446E+02 0.  1.
<mgrwt>
<rscale>  0 0.95771468E+02</rscale>
<asrwt>0</asrwt>
<pdfrwt beam="1">  1        2 0.38094144E+00 0.95771480E+02</pdfrwt>
<pdfrwt beam="2">  1       -2 0.82117772E-03 0.95771480E+02</pdfrwt>
<totfact> 0.11460843E+04</totfact>
</mgrwt>
</event>
<event>
 4    1  0.4938540E-001  0.9662814E+02  0.7546771E-02  0.1287551E+00
          2   -1    0    0  501    0  0.00000000000E+00  0.00000000000E+00  0.22061376452E+03  0.22061376452E+03  0.00000000000E+00 0. -1.
         -2   -1    0    0    0  501 -0.00000000000E+00 -0.00000000000E+00 -0.15709048372E+03  0.15709048372E+03  0.00000000000E+00 0.  1.
         24    1    1    2    0    0 -0.53405824741E+02 -0.41950670144E+01  0.19318140358E+03  0.21600011886E+03  0.80419002446E+02 0. -1.
        -24    1    1    2    0    0  0.53405824741E+02  0.41950670144E+01 -0.12965812277E+03  0.16170412938E+03  0.80419002446E+02 0.  1.
<mgrwt>
<rscale>  0 0.96628136E+02</rscale>
<asrwt>0</asrwt>
<pdfrwt beam="1">  1        2 0.33940579E-01 0.96628136E+02</pdfrwt>
<pdfrwt beam="2">  1       -2 0.24167767E-01 0.96628136E+02</pdfrwt>
<totfact> 0.22113508E+03</totfact>
</mgrwt>
</event>
<event>
 4    1  0.4938540E-001  0.9969563E+02  0.7546771E-02  0.1280937E+00
          2   -1    0    0  501    0  0.00000000000E+00  0.00000000000E+00  0.14013972182E+04  0.14013972182E+04  0.00000000000E+00 0. -1.
         -2   -1    0    0    0  501 -0.00000000000E+00 -0.00000000000E+00 -0.70989928270E+01  0.70989928270E+01  0.00000000000E+00 0.  1.
         24    1    1    2    0    0  0.31700595942E+01 -0.58838325125E+02  0.67562263884E+03  0.68293862378E+03  0.80419002446E+02 0. -1.
        -24    1    1    2    0    0 -0.31700595942E+01  0.58838325125E+02  0.71867558658E+03  0.72555758730E+03  0.80419002446E+02 0.  0.
<mgrwt>
<rscale>  0 0.99695618E+02</rscale>
<asrwt>0</asrwt>
<pdfrwt beam="1">  1        2 0.21559935E+00 0.99695630E+02</pdfrwt>
<pdfrwt beam="2">  1       -2 0.10921539E-02 0.99695630E+02</pdfrwt>
<totfact> 0.27066499E+04</totfact>
</mgrwt>
</event>
<event>
 4    1  0.4938540E-001  0.1111862E+03  0.7546771E-02  0.1258389E+00
         -2   -1    0    0    0  501 -0.00000000000E+00  0.00000000000E+00  0.23198785215E+02  0.23198785215E+02  0.00000000000E+00 0.  1.
          2   -1    0    0  501    0  0.00000000000E+00 -0.00000000000E+00 -0.75472938112E+03  0.75472938112E+03  0.00000000000E+00 0. -1.
         24    1    1    2    0    0 -0.68109032119E+02  0.35444550829E+02 -0.57664480944E+03  0.58726621616E+03  0.80419002446E+02 0. -1.
        -24    1    1    2    0    0  0.68109032119E+02 -0.35444550829E+02 -0.15488578646E+03  0.19066195017E+03  0.80419002446E+02 0.  1.
<mgrwt>
<rscale>  0 0.11118621E+03</rscale>
<asrwt>0</asrwt>
<pdfrwt beam="1">  1        2 0.11611222E+00 0.11118621E+03</pdfrwt>
<pdfrwt beam="2">  1       -2 0.35690437E-02 0.11118621E+03</pdfrwt>
<totfact> 0.11758714E+04</totfact>
</mgrwt>
</event>
<event>
 4    1  0.4938540E-001  0.8148949E+02  0.7546771E-02  0.1324877E+00
          2   -1    0    0  501    0  0.00000000000E+00  0.00000000000E+00  0.22033517295E+03  0.22033517295E+03  0.00000000000E+00 0. -1.
         -2   -1    0    0    0  501 -0.00000000000E+00 -0.00000000000E+00 -0.51424543035E+02  0.51424543035E+02  0.00000000000E+00 0.  1.
         24    1    1    2    0    0  0.13078442117E+02  0.15082115704E+01  0.17187695834E+03  0.19021625880E+03  0.80419002446E+02 0. -1.
        -24    1    1    2    0    0 -0.13078442117E+02 -0.15082115704E+01 -0.29663284266E+01  0.81543457181E+02  0.80419002446E+02 0.  0.
<mgrwt>
<rscale>  0 0.81489486E+02</rscale>
<asrwt>0</asrwt>
<pdfrwt beam="1">  1        2 0.33897718E-01 0.81489486E+02</pdfrwt>
<pdfrwt beam="2">  1       -2 0.79114683E-02 0.81489486E+02</pdfrwt>
<totfact> 0.13191325E+04</totfact>
</mgrwt>
</event>
<event>
 4    1  0.4938540E-001  0.8564827E+02  0.7546771E-02  0.1313746E+00
         -1   -1    0    0    0  501 -0.00000000000E+00  0.00000000000E+00  0.93121062412E+01  0.93121062412E+01  0.00000000000E+00 0.  1.
          1   -1    0    0  501    0  0.00000000000E+00 -0.00000000000E+00 -0.99131618743E+03  0.99131618743E+03  0.00000000000E+00 0. -1.
         24    1    1    2    0    0 -0.24045139323E+02  0.17036464592E+02 -0.26428305547E+03  0.27781497299E+03  0.80419002446E+02 0.  1.
        -24    1    1    2    0    0  0.24045139323E+02 -0.17036464592E+02 -0.71772102572E+03  0.72281332069E+03  0.80419002446E+02 0. -1.
<mgrwt>
<rscale>  0 0.85648268E+02</rscale>
<asrwt>0</asrwt>
<pdfrwt beam="1">  1        1 0.15251028E+00 0.85648268E+02</pdfrwt>
<pdfrwt beam="2">  1       -1 0.14326308E-02 0.85648268E+02</pdfrwt>
<totfact> 0.16708232E+04</totfact>
</mgrwt>
</event>
<event>
 4    1  0.4938540E-001  0.9261679E+02  0.7546771E-02  0.1296636E+00
         -1   -1    0    0    0  501 -0.00000000000E+00  0.00000000000E+00  0.19237829914E+02  0.19237829914E+02  0.00000000000E+00 0.  1.
          1   -1    0    0  501    0  0.00000000000E+00 -0.00000000000E+00 -0.64634821075E+03  0.64634821075E+03  0.00000000000E+00 0. -1.
         24    1    1    2    0    0  0.15504277220E+02  0.43246624001E+02 -0.12822005775E+03  0.15817159120E+03  0.80419002446E+02 0.  1.
        -24    1    1    2    0    0 -0.15504277220E+02 -0.43246624001E+02 -0.49889032308E+03  0.50741444945E+03  0.80419002446E+02 0. -1.
<mgrwt>
<rscale>  0 0.92616786E+02</rscale>
<asrwt>0</asrwt>
<pdfrwt beam="1">  1        1 0.99438173E-01 0.92616786E+02</pdfrwt>
<pdfrwt beam="2">  1       -1 0.29596665E-02 0.92616786E+02</pdfrwt>
<totfact> 0.11293530E+04</totfact>
</mgrwt>
</event>
<event>
 4    1  0.4938540E-001  0.8177243E+02  0.7546771E-02  0.1324095E+00
          3   -1    0    0  501    0  0.00000000000E+00  0.00000000000E+00  0.14079337709E+03  0.14079337709E+03  0.00000000000E+00 0. -1.
         -3   -1    0    0    0  501 -0.00000000000E+00 -0.00000000000E+00 -0.48129009381E+02  0.48129009381E+02  0.00000000000E+00 0.  1.
         24    1    1    2    0    0 -0.95304082350E+01  0.11343845826E+02  0.57189306625E+02  0.99786493404E+02  0.80419002446E+02 0.  1.
        -24    1    1    2    0    0  0.95304082350E+01 -0.11343845826E+02  0.35475061081E+02  0.89135893064E+02  0.80419002446E+02 0.  0.
<mgrwt>
<rscale>  0 0.81772423E+02</rscale>
<asrwt>0</asrwt>
<pdfrwt beam="1">  1        3 0.21660519E-01 0.81772433E+02</pdfrwt>
<pdfrwt beam="2">  1       -3 0.74044630E-02 0.81772433E+02</pdfrwt>
<totfact> 0.48092955E+03</totfact>
</mgrwt>
</event>
<event>
 4    1  0.4938540E-001  0.1287733E+03  0.7546771E-02  0.1229287E+00
          3   -1    0    0  501    0  0.00000000000E+00  0.00000000000E+00  0.16829511818E+02  0.16829511818E+02  0.00000000000E+00 0. -1.
         -3   -1    0    0    0  501 -0.00000000000E+00 -0.00000000000E+00 -0.17741945154E+04  0.17741945154E+04  0.00000000000E+00 0.  1.
         24    1    1    2    0    0 -0.45217964627E+02  0.89836987718E+02 -0.14758181014E+04  0.14814255408E+04  0.80419002446E+02 0.  1.
        -24    1    1    2    0    0  0.45217964627E+02 -0.89836987718E+02 -0.28154690225E+03  0.30959848644E+03  0.80419002446E+02 0. -1.
<mgrwt>
<rscale>  0 0.12877331E+03</rscale>
<asrwt>0</asrwt>
<pdfrwt beam="1">  1        3 0.25891575E-02 0.12877331E+03</pdfrwt>
<pdfrwt beam="2">  1       -3 0.27295281E+00 0.12877331E+03</pdfrwt>
<totfact> 0.93969013E+01</totfact>
</mgrwt>
</event>
<event>
 4    1  0.4938540E-001  0.8209415E+02  0.7546771E-02  0.1323211E+00
          1   -1    0    0  501    0  0.00000000000E+00  0.00000000000E+00  0.40707947598E+02  0.40707947598E+02  0.00000000000E+00 0. -1.
         -1   -1    0    0    0  501 -0.00000000000E+00 -0.00000000000E+00 -0.16573867838E+03  0.16573867838E+03  0.00000000000E+00 0.  1.
         24    1    1    2    0    0  0.85074941457E+00 -0.16477539298E+02 -0.65941393437E+02  0.10529822600E+03  0.80419002446E+02 0.  0.
        -24    1    1    2    0    0 -0.85074941457E+00  0.16477539298E+02 -0.59089337346E+02  0.10114839998E+03  0.80419002446E+02 0.  1.
<mgrwt>
<rscale>  0 0.82094147E+02</rscale>
<asrwt>0</asrwt>
<pdfrwt beam="1">  1        1 0.62627611E-02 0.82094147E+02</pdfrwt>
<pdfrwt beam="2">  1       -1 0.25498258E-01 0.82094147E+02</pdfrwt>
<totfact> 0.14496601E+04</totfact>
</mgrwt>
</event>
<event>
 4    1  0.4938540E-001  0.1242732E+03  0.7546771E-02  0.1236210E+00
          2   -1    0    0  501    0  0.00000000000E+00  0.00000000000E+00  0.16741248232E+04  0.16741248232E+04  0.00000000000E+00 0. -1.
         -2   -1    0    0    0  501 -0.00000000000E+00 -0.00000000000E+00 -0.10499535923E+02  0.10499535923E+02  0.00000000000E+00 0.  1.
         24    1    1    2    0    0  0.83168002579E+02  0.45383783923E+02  0.11252815811E+04  0.11321229868E+04  0.80419002446E+02 0.  0.
        -24    1    1    2    0    0 -0.83168002579E+02 -0.45383783923E+02  0.53834370615E+03  0.55250137230E+03  0.80419002446E+02 0.  1.
<mgrwt>
<rscale>  0 0.12427317E+03</rscale>
<asrwt>0</asrwt>
<pdfrwt beam="1">  1        2 0.25755745E+00 0.12427317E+03</pdfrwt>
<pdfrwt beam="2">  1       -2 0.16153145E-02 0.12427317E+03</pdfrwt>
<totfact> 0.11344299E+04</totfact>
</mgrwt>
</event>
<event>
 4    1  0.4938540E-001  0.9624597E+02  0.7546771E-02  0.1288394E+00
         -1   -1    0    0    0  501 -0.00000000000E+00  0.00000000000E+00  0.77092500583E+02  0.77092500583E+02  0.00000000000E+00 0.  1.
          1   -1    0    0  501    0  0.00000000000E+00 -0.00000000000E+00 -0.31487019120E+03  0.31487019120E+03  0.00000000000E+00 0. -1.
         24    1    1    2    0    0  0.16316718223E+02  0.50297476568E+02  0.35226341442E+02  0.10248991428E+03  0.80419002446E+02 0.  1.
        -24    1    1    2    0    0 -0.16316718223E+02 -0.50297476568E+02 -0.27300403206E+03  0.28947277750E+03  0.80419002446E+02 0. -1.
<mgrwt>
<rscale>  0 0.96245973E+02</rscale>
<asrwt>0</asrwt>
<pdfrwt beam="1">  1        1 0.48441567E-01 0.96245973E+02</pdfrwt>
<pdfrwt beam="2">  1       -1 0.11860385E-01 0.96245973E+02</pdfrwt>
<totfact> 0.36440144E+03</totfact>
</mgrwt>
</event>
<event>
 4    1  0.4938540E-001  0.8460414E+02  0.7546771E-02  0.1316471E+00
         -2   -1    0    0    0  501 -0.00000000000E+00  0.00000000000E+00  0.58384918550E+03  0.58384918550E+03  0.00000000000E+00 0.  1.
          2   -1    0    0  501    0  0.00000000000E+00 -0.00000000000E+00 -0.32009349687E+02  0.32009349687E+02  0.00000000000E+00 0. -1.
         24    1    1    2    0    0 -0.16053224730E+02  0.20807192051E+02  0.34044692182E+02  0.91197051956E+02  0.80419002446E+02 0.  0.
        -24    1    1    2    0    0  0.16053224730E+02 -0.20807192051E+02  0.51779514363E+03  0.52466148323E+03  0.80419002446E+02 0.  1.
<mgrwt>
<rscale>  0 0.84604144E+02</rscale>
<asrwt>0</asrwt>
<pdfrwt beam="1">  1        2 0.49245157E-02 0.84604144E+02</pdfrwt>
<pdfrwt beam="2">  1       -2 0.89822944E-01 0.84604144E+02</pdfrwt>
<totfact> 0.16456097E+03</totfact>
</mgrwt>
</event>
<event>
 4    1  0.4938540E-001  0.9842813E+02  0.7546771E-02  0.1283637E+00
         -1   -1    0    0    0  501 -0.00000000000E+00  0.00000000000E+00  0.41043495700E+02  0.41043495700E+02  0.00000000000E+00 0.  1.
          1   -1    0    0  501    0  0.00000000000E+00 -0.00000000000E+00 -0.25140560276E+04  0.25140560276E+04  0.00000000000E+00 0. -1.
         24    1    1    2    0    0  0.54921081353E+01  0.56486435623E+02 -0.20409045283E+02  0.10052176752E+03  0.80419002446E+02 0.  1.
        -24    1    1    2    0    0 -0.54921081353E+01 -0.56486435623E+02 -0.24526034866E+04  0.24545777558E+04  0.80419002446E+02 0. -1.
<mgrwt>
<rscale>  0 0.98428129E+02</rscale>
<asrwt>0</asrwt>
<pdfrwt beam="1">  1        1 0.38677812E+00 0.98428129E+02</pdfrwt>
<pdfrwt beam="2">  1       -1 0.63143796E-02 0.98428129E+02</pdfrwt>
<totfact> 0.20513696E+02</totfact>
</mgrwt>
</event>
<event>
 4    1  0.4938540E-001  0.8312120E+02  0.7546771E-02  0.1320420E+00
         -1   -1    0    0    0  501 -0.00000000000E+00  0.00000000000E+00  0.47251612493E+03  0.47251612493E+03  0.00000000000E+00 0.  1.
          1   -1    0    0  501    0  0.00000000000E+00 -0.00000000000E+00 -0.19736151263E+02  0.19736151263E+02  0.00000000000E+00 0. -1.
         24    1    1    2    0    0  0.25462931927E+01  0.20867051520E+02  0.35167901877E+03  0.36136860081E+03  0.80419002446E+02 0.  0.
        -24    1    1    2    0    0 -0.25462931927E+01 -0.20867051520E+02  0.10110095489E+03  0.13088367539E+03  0.80419002446E+02 0. -1.
<mgrwt>
<rscale>  0 0.83121197E+02</rscale>
<asrwt>0</asrwt>
<pdfrwt beam="1">  1        1 0.30363313E-02 0.83121197E+02</pdfrwt>
<pdfrwt beam="2">  1       -1 0.72694780E-01 0.83121197E+02</pdfrwt>
<totfact> 0.60688791E+03</totfact>
</mgrwt>
</event>
<event>
 4    1  0.4938540E-001  0.1065990E+03  0.7546771E-02  0.1267001E+00
         -2   -1    0    0    0  501 -0.00000000000E+00  0.00000000000E+00  0.15550275141E+02  0.15550275141E+02  0.00000000000E+00 0.  1.
          2   -1    0    0  501    0  0.00000000000E+00 -0.00000000000E+00 -0.15752580210E+04  0.15752580210E+04  0.00000000000E+00 0. -1.
         24    1    1    2    0    0  0.14272924948E+02  0.68501183515E+02 -0.13622442716E+04  0.13664087236E+04  0.80419002446E+02 0. -1.
        -24    1    1    2    0    0 -0.14272924948E+02 -0.68501183515E+02 -0.19746347433E+03  0.22439957259E+03  0.80419002446E+02 0.  1.
<mgrwt>
<rscale>  0 0.10659899E+03</rscale>
<asrwt>0</asrwt>
<pdfrwt beam="1">  1        2 0.24234740E+00 0.10659899E+03</pdfrwt>
<pdfrwt beam="2">  1       -2 0.23923499E-02 0.10659899E+03</pdfrwt>
<totfact> 0.71792447E+03</totfact>
</mgrwt>
</event>
<event>
 4    1  0.4938540E-001  0.9502123E+02  0.7546771E-02  0.1291128E+00
         -1   -1    0    0    0  501 -0.00000000000E+00  0.00000000000E+00  0.17190739769E+03  0.17190739769E+03  0.00000000000E+00 0.  1.
          1   -1    0    0  501    0  0.00000000000E+00 -0.00000000000E+00 -0.23154812153E+03  0.23154812153E+03  0.00000000000E+00 0. -1.
         24    1    1    2    0    0 -0.19305366184E+02  0.46788046438E+02  0.14755873153E+03  0.17550673394E+03  0.80419002446E+02 0.  1.
        -24    1    1    2    0    0  0.19305366184E+02 -0.46788046438E+02 -0.20719945537E+03  0.22794878529E+03  0.80419002446E+02 0. -1.
<mgrwt>
<rscale>  0 0.95021231E+02</rscale>
<asrwt>0</asrwt>
<pdfrwt beam="1">  1        1 0.35622788E-01 0.95021231E+02</pdfrwt>
<pdfrwt beam="2">  1       -1 0.26447292E-01 0.95021231E+02</pdfrwt>
<totfact> 0.14978743E+03</totfact>
</mgrwt>
</event>
<event>
 4    1  0.4938540E-001  0.1030528E+03  0.7546771E-02  0.1274004E+00
         -1   -1    0    0    0  501 -0.00000000000E+00  0.00000000000E+00  0.19536450880E+02  0.19536450880E+02  0.00000000000E+00 0.  1.
          1   -1    0    0  501    0  0.00000000000E+00 -0.00000000000E+00 -0.65649281611E+03  0.65649281611E+03  0.00000000000E+00 0. -1.
         24    1    1    2    0    0 -0.41729012687E+02  0.49105550296E+02 -0.17830440482E+03  0.20594257040E+03  0.80419002446E+02 0.  1.
        -24    1    1    2    0    0  0.41729012687E+02 -0.49105550296E+02 -0.45865196041E+03  0.47008669659E+03  0.80419002446E+02 0. -1.
<mgrwt>
<rscale>  0 0.10305281E+03</rscale>
<asrwt>0</asrwt>
<pdfrwt beam="1">  1        1 0.10099890E+00 0.10305281E+03</pdfrwt>
<pdfrwt beam="2">  1       -1 0.30056077E-02 0.10305281E+03</pdfrwt>
<totfact> 0.10900911E+04</totfact>
</mgrwt>
</event>
<event>
 4    1  0.4938540E-001  0.1303510E+03  0.7546771E-02  0.1226936E+00
         -2   -1    0    0    0  501 -0.00000000000E+00  0.00000000000E+00  0.22424198091E+02  0.22424198091E+02  0.00000000000E+00 0.  1.
          2   -1    0    0  501    0  0.00000000000E+00 -0.00000000000E+00 -0.79155134630E+03  0.79155134630E+03  0.00000000000E+00 0. -1.
         24    1    1    2    0    0  0.10153234057E+03 -0.14674626762E+02 -0.46869707991E+03  0.48648569303E+03  0.80419002446E+02 0. -1.
        -24    1    1    2    0    0 -0.10153234057E+03  0.14674626762E+02 -0.30043006830E+03  0.32748985136E+03  0.80419002446E+02 0.  1.
<mgrwt>
<rscale>  0 0.13035098E+03</rscale>
<asrwt>0</asrwt>
<pdfrwt beam="1">  1        2 0.12177711E+00 0.13035098E+03</pdfrwt>
<pdfrwt beam="2">  1       -2 0.34498772E-02 0.13035098E+03</pdfrwt>
<totfact> 0.11791083E+04</totfact>
</mgrwt>
</event>
<event>
 4    1  0.4938540E-001  0.8844627E+02  0.7546771E-02  0.1306658E+00
          2   -1    0    0  501    0  0.00000000000E+00  0.00000000000E+00  0.47682444513E+03  0.47682444513E+03  0.00000000000E+00 0. -1.
         -2   -1    0    0    0  501 -0.00000000000E+00 -0.00000000000E+00 -0.19171851203E+02  0.19171851203E+02  0.00000000000E+00 0.  1.
         24    1    1    2    0    0  0.34339154906E+02 -0.13279649414E+02  0.32302334234E+03  0.33491315635E+03  0.80419002446E+02 0. -1.
        -24    1    1    2    0    0 -0.34339154906E+02  0.13279649414E+02  0.13462925159E+03  0.16108313998E+03  0.80419002446E+02 0.  1.
<mgrwt>
<rscale>  0 0.88446270E+02</rscale>
<asrwt>0</asrwt>
<pdfrwt beam="1">  1        2 0.73357598E-01 0.88446270E+02</pdfrwt>
<pdfrwt beam="2">  1       -2 0.29495159E-02 0.88446270E+02</pdfrwt>
<totfact> 0.25559810E+04</totfact>
</mgrwt>
</event>
<event>
 4    1  0.4938540E-001  0.9995949E+02  0.7546771E-02  0.1280381E+00
          2   -1    0    0  501    0  0.00000000000E+00  0.00000000000E+00  0.79550359771E+03  0.79550359771E+03  0.00000000000E+00 0. -1.
         -2   -1    0    0    0  501 -0.00000000000E+00 -0.00000000000E+00 -0.25036376163E+02  0.25036376163E+02  0.00000000000E+00 0.  1.
         24    1    1    2    0    0 -0.57329314427E+02 -0.15428309345E+02  0.67484795323E+03  0.68221086106E+03  0.80419002446E+02 0. -1.
        -24    1    1    2    0    0  0.57329314427E+02  0.15428309345E+02  0.95619268313E+02  0.13832911280E+03  0.80419002446E+02 0.  1.
<mgrwt>
<rscale>  0 0.99959487E+02</rscale>
<asrwt>0</asrwt>
<pdfrwt beam="1">  1        2 0.12238515E+00 0.99959487E+02</pdfrwt>
<pdfrwt beam="2">  1       -2 0.38517508E-02 0.99959487E+02</pdfrwt>
<totfact> 0.97866174E+03</totfact>
</mgrwt>
</event>
<event>
 4    1  0.4938540E-001  0.8512310E+02  0.7546771E-02  0.1315111E+00
          2   -1    0    0  501    0  0.00000000000E+00  0.00000000000E+00  0.92202922356E+03  0.92202922356E+03  0.00000000000E+00 0. -1.
         -2   -1    0    0    0  501 -0.00000000000E+00 -0.00000000000E+00 -0.11636622855E+02  0.11636622855E+02  0.00000000000E+00 0.  1.
         24    1    1    2    0    0 -0.10130925852E+02 -0.26001743107E+02  0.72119228991E+03  0.72619849992E+03  0.80419002446E+02 0. -1.
        -24    1    1    2    0    0  0.10130925852E+02  0.26001743107E+02  0.18920031079E+03  0.20746734649E+03  0.80419002446E+02 0.  1.
<mgrwt>
<rscale>  0 0.85123101E+02</rscale>
<asrwt>0</asrwt>
<pdfrwt beam="1">  1        2 0.14185059E+00 0.85123101E+02</pdfrwt>
<pdfrwt beam="2">  1       -2 0.17902504E-02 0.85123101E+02</pdfrwt>
<totfact> 0.24352361E+04</totfact>
</mgrwt>
</event>
<event>
 4    1  0.4938540E-001  0.1068994E+03  0.7546771E-02  0.1266422E+00
          1   -1    0    0  501    0  0.00000000000E+00  0.00000000000E+00  0.28048649371E+03  0.28048649371E+03  0.00000000000E+00 0. -1.
         -1   -1    0    0    0  501 -0.00000000000E+00 -0.00000000000E+00 -0.42752532877E+02  0.42752532877E+02  0.00000000000E+00 0.  1.
         24    1    1    2    0    0 -0.60385183916E+02  0.36247648845E+02  0.15391858013E+03  0.18739906015E+03  0.80419002446E+02 0.  1.
        -24    1    1    2    0    0  0.60385183916E+02 -0.36247648845E+02  0.83815380703E+02  0.13583996643E+03  0.80419002446E+02 0.  0.
<mgrwt>
<rscale>  0 0.10689940E+03</rscale>
<asrwt>0</asrwt>
<pdfrwt beam="1">  1        1 0.43151767E-01 0.10689941E+03</pdfrwt>
<pdfrwt beam="2">  1       -1 0.65773129E-02 0.10689941E+03</pdfrwt>
<totfact> 0.10273753E+04</totfact>
</mgrwt>
</event>
<event>
 4    1  0.4938540E-001  0.8864192E+02  0.7546771E-02  0.1306174E+00
          2   -1    0    0  501    0  0.00000000000E+00  0.00000000000E+00  0.48458766365E+03  0.48458766365E+03  0.00000000000E+00 0. -1.
         -2   -1    0    0    0  501 -0.00000000000E+00 -0.00000000000E+00 -0.22845811808E+02  0.22845811808E+02  0.00000000000E+00 0.  1.
         24    1    1    2    0    0 -0.20755195171E+02  0.30974120876E+02  0.36756276962E+03  0.37810022461E+03  0.80419002446E+02 0. -1.
        -24    1    1    2    0    0  0.20755195171E+02 -0.30974120876E+02  0.94179082223E+02  0.12933325084E+03  0.80419002446E+02 0.  1.
<mgrwt>
<rscale>  0 0.88641921E+02</rscale>
<asrwt>0</asrwt>
<pdfrwt beam="1">  1        2 0.74551940E-01 0.88641921E+02</pdfrwt>
<pdfrwt beam="2">  1       -2 0.35147406E-02 0.88641921E+02</pdfrwt>
<totfact> 0.19463056E+04</totfact>
</mgrwt>
</event>
<event>
 4    1  0.4938540E-001  0.8531522E+02  0.7546771E-02  0.1314610E+00
         -2   -1    0    0    0  501 -0.00000000000E+00  0.00000000000E+00  0.17386681814E+03  0.17386681814E+03  0.00000000000E+00 0.  1.
          2   -1    0    0  501    0  0.00000000000E+00 -0.00000000000E+00 -0.55778927317E+02  0.55778927317E+02  0.00000000000E+00 0. -1.
         24    1    1    2    0    0 -0.14439646419E+01 -0.28449708054E+02  0.16930231907E+01  0.85332017462E+02  0.80419002446E+02 0. -1.
        -24    1    1    2    0    0  0.14439646419E+01  0.28449708054E+02  0.11639486763E+03  0.14431372800E+03  0.80419002446E+02 0.  1.
<mgrwt>
<rscale>  0 0.85315221E+02</rscale>
<asrwt>0</asrwt>
<pdfrwt beam="1">  1        2 0.85813735E-02 0.85315221E+02</pdfrwt>
<pdfrwt beam="2">  1       -2 0.26748741E-01 0.85315221E+02</pdfrwt>
<totfact> 0.88160145E+03</totfact>
</mgrwt>
</event>
<event>
 4    1  0.4938540E-001  0.8193935E+02  0.7546771E-02  0.1323636E+00
         -2   -1    0    0    0  501 -0.00000000000E+00  0.00000000000E+00  0.25130468262E+02  0.25130468262E+02  0.00000000000E+00 0.  1.
          2   -1    0    0  501    0  0.00000000000E+00 -0.00000000000E+00 -0.11859264106E+04  0.11859264106E+04  0.00000000000E+00 0. -1.
         24    1    1    2    0    0 -0.12923207297E+02  0.89348738442E+01 -0.11133723548E+04  0.11163834725E+04  0.80419002446E+02 0. -1.
        -24    1    1    2    0    0  0.12923207297E+02 -0.89348738442E+01 -0.47423587455E+02  0.94673406292E+02  0.80419002446E+02 0.  1.
<mgrwt>
<rscale>  0 0.81939351E+02</rscale>
<asrwt>0</asrwt>
<pdfrwt beam="1">  1        2 0.18245022E+00 0.81939351E+02</pdfrwt>
<pdfrwt beam="2">  1       -2 0.38662258E-02 0.81939351E+02</pdfrwt>
<totfact> 0.56401246E+03</totfact>
</mgrwt>
</event>
<event>
 4    1  0.4938540E-001  0.8129491E+02  0.7546771E-02  0.1325416E+00
          1   -1    0    0  501    0  0.00000000000E+00  0.00000000000E+00  0.13468453587E+04  0.13468453587E+04  0.00000000000E+00 0. -1.
         -1   -1    0    0    0  501 -0.00000000000E+00 -0.00000000000E+00 -0.49097612229E+01  0.49097612229E+01  0.00000000000E+00 0.  1.
         24    1    1    2    0    0  0.11682515120E+02  0.22719663642E+01  0.68723407032E+03  0.69202566885E+03  0.80419002446E+02 0. -1.
        -24    1    1    2    0    0 -0.11682515120E+02 -0.22719663642E+01  0.65470152716E+03  0.65972945107E+03  0.80419002446E+02 0.  1.
<mgrwt>
<rscale>  0 0.81294899E+02</rscale>
<asrwt>0</asrwt>
<pdfrwt beam="1">  1        1 0.20720668E+00 0.81294909E+02</pdfrwt>
<pdfrwt beam="2">  1       -1 0.75534895E-03 0.81294909E+02</pdfrwt>
<totfact> 0.23494247E+04</totfact>
</mgrwt>
</event>
<event>
 4    1  0.4938540E-001  0.8127121E+02  0.7546771E-02  0.1325482E+00
          2   -1    0    0  501    0  0.00000000000E+00  0.00000000000E+00  0.38442721215E+04  0.38442721215E+04  0.00000000000E+00 0. -1.
         -2   -1    0    0    0  501 -0.00000000000E+00 -0.00000000000E+00 -0.18883856387E+01  0.18883856387E+01  0.00000000000E+00 0.  1.
         24    1    1    2    0    0  0.58280192861E+01  0.10189584378E+02  0.24986043700E+04  0.24999257603E+04  0.80419002446E+02 0. -1.
        -24    1    1    2    0    0 -0.58280192861E+01 -0.10189584378E+02  0.13437793659E+04  0.13462347468E+04  0.80419002446E+02 0. -1.
<mgrwt>
<rscale>  0 0.81271209E+02</rscale>
<asrwt>0</asrwt>
<pdfrwt beam="1">  1        2 0.59142022E+00 0.81271209E+02</pdfrwt>
<pdfrwt beam="2">  1       -2 0.29052394E-03 0.81271209E+02</pdfrwt>
<totfact> 0.74915073E+03</totfact>
</mgrwt>
</event>
<event>
 4    1  0.4938540E-001  0.8855316E+02  0.7546771E-02  0.1306394E+00
          2   -1    0    0  501    0  0.00000000000E+00  0.00000000000E+00  0.44669342262E+04  0.44669342262E+04  0.00000000000E+00 0. -1.
         -2   -1    0    0    0  501 -0.00000000000E+00 -0.00000000000E+00 -0.40864690574E+01  0.40864690574E+01  0.00000000000E+00 0.  1.
         24    1    1    2    0    0 -0.12842967668E+02 -0.34777931852E+02  0.39198096379E+04  0.39208097710E+04  0.80419002446E+02 0. -1.
        -24    1    1    2    0    0  0.12842967668E+02  0.34777931852E+02  0.54303811924E+03  0.55021092435E+03  0.80419002446E+02 0.  1.
<mgrwt>
<rscale>  0 0.88553161E+02</rscale>
<asrwt>0</asrwt>
<pdfrwt beam="1">  1        2 0.68721674E+00 0.88553161E+02</pdfrwt>
<pdfrwt beam="2">  1       -2 0.62869112E-03 0.88553161E+02</pdfrwt>
<totfact> 0.82691976E+02</totfact>
</mgrwt>
</event>
<event>
 4    1  0.4938540E-001  0.9161910E+02  0.7546771E-02  0.1298978E+00
         -2   -1    0    0    0  501 -0.00000000000E+00  0.00000000000E+00  0.88773406731E+01  0.88773406731E+01  0.00000000000E+00 0.  1.
          2   -1    0    0  501    0  0.00000000000E+00 -0.00000000000E+00 -0.15130553638E+04  0.15130553638E+04  0.00000000000E+00 0. -1.
         24    1    1    2    0    0  0.20528450176E+02  0.38799827848E+02 -0.12181246548E+04  0.12215652805E+04  0.80419002446E+02 0. -1.
        -24    1    1    2    0    0 -0.20528450176E+02 -0.38799827848E+02 -0.28605336839E+03  0.30036742405E+03  0.80419002446E+02 0.  1.
<mgrwt>
<rscale>  0 0.91619102E+02</rscale>
<asrwt>0</asrwt>
<pdfrwt beam="1">  1        2 0.23277780E+00 0.91619102E+02</pdfrwt>
<pdfrwt beam="2">  1       -2 0.13657444E-02 0.91619102E+02</pdfrwt>
<totfact> 0.17143463E+04</totfact>
</mgrwt>
</event>
<event>
 4    1  0.4938540E-001  0.8183028E+02  0.7546771E-02  0.1323936E+00
          1   -1    0    0  501    0  0.00000000000E+00  0.00000000000E+00  0.62437152786E+02  0.62437152786E+02  0.00000000000E+00 0. -1.
         -1   -1    0    0    0  501 -0.00000000000E+00 -0.00000000000E+00 -0.10779883159E+03  0.10779883159E+03  0.00000000000E+00 0.  1.
         24    1    1    2    0    0 -0.91928219611E+01 -0.12019593460E+02 -0.28771088650E+02  0.86740821411E+02  0.80419002446E+02 0.  0.
        -24    1    1    2    0    0  0.91928219611E+01  0.12019593460E+02 -0.16590590155E+02  0.83495162965E+02  0.80419002446E+02 0.  0.
<mgrwt>
<rscale>  0 0.81830279E+02</rscale>
<asrwt>0</asrwt>
<pdfrwt beam="1">  1        1 0.96057158E-02 0.81830279E+02</pdfrwt>
<pdfrwt beam="2">  1       -1 0.16584436E-01 0.81830279E+02</pdfrwt>
<totfact> 0.16305778E+04</totfact>
</mgrwt>
</event>
<event>
 4    1  0.4938540E-001  0.8107585E+02  0.7546771E-02  0.1326026E+00
          1   -1    0    0  501    0  0.00000000000E+00  0.00000000000E+00  0.21736770791E+03  0.21736770791E+03  0.00000000000E+00 0. -1.
         -1   -1    0    0    0  501 -0.00000000000E+00 -0.00000000000E+00 -0.46106867268E+02  0.46106867268E+02  0.00000000000E+00 0.  1.
         24    1    1    2    0    0 -0.28861839646E+01 -0.98867497202E+01  0.83506960271E+01  0.81504772599E+02  0.80419002446E+02 0.  0.
        -24    1    1    2    0    0  0.28861839646E+01  0.98867497202E+01  0.16291014461E+03  0.18196980258E+03  0.80419002446E+02 0. -1.
<mgrwt>
<rscale>  0 0.81075852E+02</rscale>
<asrwt>0</asrwt>
<pdfrwt beam="1">  1        1 0.33441185E-01 0.81075852E+02</pdfrwt>
<pdfrwt beam="2">  1       -1 0.70933643E-02 0.81075852E+02</pdfrwt>
<totfact> 0.12229337E+04</totfact>
</mgrwt>
</event>
<event>
 4    1  0.4938540E-001  0.8759554E+02  0.7546771E-02  0.1308781E+00
         -1   -1    0    0    0  501 -0.00000000000E+00  0.00000000000E+00  0.16612548893E+03  0.16612548893E+03  0.00000000000E+00 0.  1.
          1   -1    0    0  501    0  0.00000000000E+00 -0.00000000000E+00 -0.49631105996E+02  0.49631105996E+02  0.00000000000E+00 0. -1.
         24    1    1    2    0    0 -0.24208591378E+02 -0.24893904923E+02  0.86661825783E+02  0.12322033274E+03  0.80419002446E+02 0.  1.
        -24    1    1    2    0    0  0.24208591378E+02  0.24893904923E+02  0.29832557154E+02  0.92536262187E+02  0.80419002446E+02 0.  0.
<mgrwt>
<rscale>  0 0.87595538E+02</rscale>
<asrwt>0</asrwt>
<pdfrwt beam="1">  1        1 0.76355548E-02 0.87595538E+02</pdfrwt>
<pdfrwt beam="2">  1       -1 0.25557767E-01 0.87595538E+02</pdfrwt>
<totfact> 0.11171612E+04</totfact>
</mgrwt>
</event>
<event>
 4    1  0.4938540E-001  0.9678210E+02  0.7546771E-02  0.1287212E+00
          1   -1    0    0  501    0  0.00000000000E+00  0.00000000000E+00  0.45424402823E+03  0.45424402823E+03  0.00000000000E+00 0. -1.
         -1   -1    0    0    0  501 -0.00000000000E+00 -0.00000000000E+00 -0.20973470604E+02  0.20973470604E+02  0.00000000000E+00 0.  1.
         24    1    1    2    0    0 -0.47667322321E+02 -0.25047671033E+02  0.18581424317E+03  0.20950825368E+03  0.80419002446E+02 0.  1.
        -24    1    1    2    0    0  0.47667322321E+02  0.25047671033E+02  0.24745631446E+03  0.26570924515E+03  0.80419002446E+02 0. -1.
<mgrwt>
<rscale>  0 0.96782103E+02</rscale>
<asrwt>0</asrwt>
<pdfrwt beam="1">  1        1 0.69883689E-01 0.96782103E+02</pdfrwt>
<pdfrwt beam="2">  1       -1 0.32266881E-02 0.96782103E+02</pdfrwt>
<totfact> 0.15895483E+04</totfact>
</mgrwt>
</event>
<event>
 4    1  0.4938540E-001  0.9056433E+02  0.7546771E-02  0.1301491E+00
         -2   -1    0    0    0  501 -0.00000000000E+00  0.00000000000E+00  0.12569715071E+02  0.12569715071E+02  0.00000000000E+00 0.  1.
          2   -1    0    0  501    0  0.00000000000E+00 -0.00000000000E+00 -0.87162211619E+03  0.87162211619E+03  0.00000000000E+00 0. -1.
         24    1    1    2    0    0 -0.38262371755E+02 -0.16452157313E+02 -0.65118394928E+03  0.65745146918E+03  0.80419002446E+02 0. -1.
        -24    1    1    2    0    0  0.38262371755E+02  0.16452157313E+02 -0.20786845184E+03  0.22674036208E+03  0.80419002446E+02 0.  1.
<mgrwt>
<rscale>  0 0.90564334E+02</rscale>
<asrwt>0</asrwt>
<pdfrwt beam="1">  1        2 0.13409573E+00 0.90564334E+02</pdfrwt>
<pdfrwt beam="2">  1       -2 0.19338021E-02 0.90564334E+02</pdfrwt>
<totfact> 0.23568348E+04</totfact>
</mgrwt>
</event>
<event>
 4    1  0.4938540E-001  0.9207668E+02  0.7546771E-02  0.1297899E+00
         -2   -1    0    0    0  501 -0.00000000000E+00  0.00000000000E+00  0.80082327899E+01  0.80082327899E+01  0.00000000000E+00 0.  1.
          2   -1    0    0  501    0  0.00000000000E+00 -0.00000000000E+00 -0.13008543285E+04  0.13008543285E+04  0.00000000000E+00 0. -1.
         24    1    1    2    0    0 -0.39662135255E+02  0.20923993652E+02 -0.92879295426E+03  0.93334584496E+03  0.80419002446E+02 0. -1.
        -24    1    1    2    0    0  0.39662135255E+02 -0.20923993652E+02 -0.36405314149E+03  0.37551671636E+03  0.80419002446E+02 0.  1.
<mgrwt>
<rscale>  0 0.92076677E+02</rscale>
<asrwt>0</asrwt>
<pdfrwt beam="1">  1        2 0.20013119E+00 0.92076677E+02</pdfrwt>
<pdfrwt beam="2">  1       -2 0.12320373E-02 0.92076677E+02</pdfrwt>
<totfact> 0.25585266E+04</totfact>
</mgrwt>
</event>
<event>
 4    1  0.4938540E-001  0.8818449E+02  0.7546771E-02  0.1307309E+00
          2   -1    0    0  501    0  0.00000000000E+00  0.00000000000E+00  0.27786876967E+04  0.27786876967E+04  0.00000000000E+00 0. -1.
         -2   -1    0    0    0  501 -0.00000000000E+00 -0.00000000000E+00 -0.12299778308E+02  0.12299778308E+02  0.00000000000E+00 0.  1.
         24    1    1    2    0    0  0.19648962111E+02  0.30384310134E+02  0.26096935853E+04  0.26111830869E+04  0.80419002446E+02 0. -1.
        -24    1    1    2    0    0 -0.19648962111E+02 -0.30384310134E+02  0.15669433301E+03  0.17980438806E+03  0.80419002446E+02 0.  1.
<mgrwt>
<rscale>  0 0.88184488E+02</rscale>
<asrwt>0</asrwt>
<pdfrwt beam="1">  1        2 0.42748992E+00 0.88184488E+02</pdfrwt>
<pdfrwt beam="2">  1       -2 0.18922758E-02 0.88184488E+02</pdfrwt>
<totfact> 0.24071375E+03</totfact>
</mgrwt>
</event>
<event>
 4    1  0.4938540E-001  0.9921247E+02  0.7546771E-02  0.1281961E+00
         -2   -1    0    0    0  501 -0.00000000000E+00  0.00000000000E+00  0.74028396448E+03  0.74028396448E+03  0.00000000000E+00 0.  1.
          2   -1    0    0  501    0  0.00000000000E+00 -0.00000000000E+00 -0.35597597459E+02  0.35597597459E+02  0.00000000000E+00 0. -1.
         24    1    1    2    0    0  0.21644826716E+02  0.53920303436E+02  0.45286073204E+02  0.10905935094E+03  0.80419002446E+02 0. -1.
        -24    1    1    2    0    0 -0.21644826716E+02 -0.53920303436E+02  0.65940029382E+03  0.66682221100E+03  0.80419002446E+02 0.  1.
<mgrwt>
<rscale>  0 0.99212467E+02</rscale>
<asrwt>0</asrwt>
<pdfrwt beam="1">  1        2 0.54765540E-02 0.99212467E+02</pdfrwt>
<pdfrwt beam="2">  1       -2 0.11388983E+00 0.99212467E+02</pdfrwt>
<totfact> 0.84145620E+02</totfact>
</mgrwt>
</event>
<event>
 4    1  0.4938540E-001  0.8044513E+02  0.7546771E-02  0.1327793E+00
          2   -1    0    0  501    0  0.00000000000E+00  0.00000000000E+00  0.62902453675E+03  0.62902453675E+03  0.00000000000E+00 0. -1.
         -2   -1    0    0    0  501 -0.00000000000E+00 -0.00000000000E+00 -0.37555708606E+02  0.37555708606E+02  0.00000000000E+00 0.  1.
         24    1    1    2    0    0  0.19730540125E+01  0.55670478738E+00  0.57972804668E+03  0.58528286061E+03  0.80419002446E+02 0.  0.
        -24    1    1    2    0    0 -0.19730540125E+01 -0.55670478738E+00  0.11740781462E+02  0.81297384743E+02  0.80419002446E+02 0.  1.
<mgrwt>
<rscale>  0 0.80445129E+02</rscale>
<asrwt>0</asrwt>
<pdfrwt beam="1">  1        2 0.96772998E-01 0.80445129E+02</pdfrwt>
<pdfrwt beam="2">  1       -2 0.57778018E-02 0.80445129E+02</pdfrwt>
<totfact> 0.69624298E+03</totfact>
</mgrwt>
</event>
<event>
 4    1  0.4938540E-001  0.9785921E+02  0.7546771E-02  0.1284863E+00
         -1   -1    0    0    0  501 -0.00000000000E+00  0.00000000000E+00  0.10561528584E+03  0.10561528584E+03  0.00000000000E+00 0.  1.
          1   -1    0    0  501    0  0.00000000000E+00 -0.00000000000E+00 -0.92093716086E+02  0.92093716086E+02  0.00000000000E+00 0. -1.
         24    1    1    2    0    0  0.38258219450E+02 -0.40564910047E+02 -0.55188817413E+01  0.98014678965E+02  0.80419002446E+02 0.  1.
        -24    1    1    2    0    0 -0.38258219450E+02  0.40564910047E+02  0.19040451490E+02  0.99694322957E+02  0.80419002446E+02 0.  0.
<mgrwt>
<rscale>  0 0.97859193E+02</rscale>
<asrwt>0</asrwt>
<pdfrwt beam="1">  1        1 0.14168264E-01 0.97859205E+02</pdfrwt>
<pdfrwt beam="2">  1       -1 0.16248506E-01 0.97859205E+02</pdfrwt>
<totfact> 0.10356791E+04</totfact>
</mgrwt>
</event>
<event>
 4    1  0.4938540E-001  0.1208369E+03  0.7546771E-02  0.1241723E+00
         -2   -1    0    0    0  501 -0.00000000000E+00  0.00000000000E+00  0.17457879238E+03  0.17457879238E+03  0.00000000000E+00 0.  1.
          2   -1    0    0  501    0  0.00000000000E+00 -0.00000000000E+00 -0.10805076472E+03  0.10805076472E+03  0.00000000000E+00 0. -1.
         24    1    1    2    0    0 -0.34331764208E+02 -0.83400634524E+02 -0.33906006340E+02  0.12550366167E+03  0.80419002446E+02 0. -1.
        -24    1    1    2    0    0  0.34331764208E+02  0.83400634524E+02  0.10043403400E+03  0.15712589542E+03  0.80419002446E+02 0.  1.
<mgrwt>
<rscale>  0 0.12083688E+03</rscale>
<asrwt>0</asrwt>
<pdfrwt beam="1">  1        2 0.16623195E-01 0.12083688E+03</pdfrwt>
<pdfrwt beam="2">  1       -2 0.26858276E-01 0.12083688E+03</pdfrwt>
<totfact> 0.40944047E+03</totfact>
</mgrwt>
</event>
<event>
 4    1  0.4938540E-001  0.1177455E+03  0.7546771E-02  0.1246863E+00
          4   -1    0    0  501    0  0.00000000000E+00  0.00000000000E+00  0.58099544496E+03  0.58099544496E+03  0.00000000000E+00 0. -1.
         -4   -1    0    0    0  501 -0.00000000000E+00 -0.00000000000E+00 -0.55241281935E+02  0.55241281935E+02  0.00000000000E+00 0.  1.
         24    1    1    2    0    0 -0.72104632981E+02 -0.46879645078E+02  0.50263613131E+03  0.51624323305E+03  0.80419002446E+02 0. -1.
        -24    1    1    2    0    0  0.72104632981E+02  0.46879645078E+02  0.23118031715E+02  0.11999349384E+03  0.80419002446E+02 0.  1.
<mgrwt>
<rscale>  0 0.11774547E+03</rscale>
<asrwt>0</asrwt>
<pdfrwt beam="1">  1        4 0.89383910E-01 0.11774547E+03</pdfrwt>
<pdfrwt beam="2">  1       -4 0.84986592E-02 0.11774547E+03</pdfrwt>
<totfact> 0.18015798E+02</totfact>
</mgrwt>
</event>
<event>
 4    1  0.4938540E-001  0.1073340E+03  0.7546771E-02  0.1265588E+00
         -4   -1    0    0    0  501 -0.00000000000E+00  0.00000000000E+00  0.13093663957E+03  0.13093663957E+03  0.00000000000E+00 0.  1.
          4   -1    0    0  501    0  0.00000000000E+00 -0.00000000000E+00 -0.13086083202E+03  0.13086083202E+03  0.00000000000E+00 0. -1.
         24    1    1    2    0    0 -0.57096488926E+02 -0.42348226365E+02 -0.74887931479E+02  0.13087703985E+03  0.80419002446E+02 0. -1.
        -24    1    1    2    0    0  0.57096488926E+02  0.42348226365E+02  0.74963739032E+02  0.13092043174E+03  0.80419002446E+02 0.  1.
<mgrwt>
<rscale>  0 0.10733405E+03</rscale>
<asrwt>0</asrwt>
<pdfrwt beam="1">  1        4 0.20132436E-01 0.10733405E+03</pdfrwt>
<pdfrwt beam="2">  1       -4 0.20144098E-01 0.10733405E+03</pdfrwt>
<totfact> 0.78038385E+02</totfact>
</mgrwt>
</event>
<event>
 4    1  0.4938540E-001  0.9837771E+02  0.7546771E-02  0.1283745E+00
         -2   -1    0    0    0  501 -0.00000000000E+00  0.00000000000E+00  0.14032618914E+03  0.14032618914E+03  0.00000000000E+00 0.  1.
          2   -1    0    0  501    0  0.00000000000E+00 -0.00000000000E+00 -0.73977589389E+02  0.73977589389E+02  0.00000000000E+00 0. -1.
         24    1    1    2    0    0 -0.50584252154E+02  0.25538023583E+02  0.52936787256E+01  0.98520029453E+02  0.80419002446E+02 0. -1.
        -24    1    1    2    0    0  0.50584252154E+02 -0.25538023583E+02  0.61054921026E+02  0.11578374908E+03  0.80419002446E+02 0.  1.
<mgrwt>
<rscale>  0 0.98377707E+02</rscale>
<asrwt>0</asrwt>
<pdfrwt beam="1">  1        2 0.11381168E-01 0.98377707E+02</pdfrwt>
<pdfrwt beam="2">  1       -2 0.21588645E-01 0.98377707E+02</pdfrwt>
<totfact> 0.91726850E+03</totfact>
</mgrwt>
</event>
<event>
 4    1  0.4938540E-001  0.9400335E+02  0.7546771E-02  0.1293437E+00
          1   -1    0    0  501    0  0.00000000000E+00  0.00000000000E+00  0.26994089604E+03  0.26994089604E+03  0.00000000000E+00 0. -1.
         -1   -1    0    0    0  501 -0.00000000000E+00 -0.00000000000E+00 -0.39665867560E+02  0.39665867560E+02  0.00000000000E+00 0.  1.
         24    1    1    2    0    0 -0.48513260561E+02  0.39845835048E+01  0.50430326615E+02  0.10667636642E+03  0.80419002446E+02 0.  1.
        -24    1    1    2    0    0  0.48513260561E+02 -0.39845835048E+01  0.17984470187E+03  0.20293039718E+03  0.80419002446E+02 0. -1.
<mgrwt>
<rscale>  0 0.94003347E+02</rscale>
<asrwt>0</asrwt>
<pdfrwt beam="1">  1        1 0.41529367E-01 0.94003347E+02</pdfrwt>
<pdfrwt beam="2">  1       -1 0.61024413E-02 0.94003347E+02</pdfrwt>
<totfact> 0.11895820E+04</totfact>
</mgrwt>
</event>
<event>
 4    1  0.4938540E-001  0.8142289E+02  0.7546771E-02  0.1325061E+00
          2   -1    0    0  501    0  0.00000000000E+00  0.00000000000E+00  0.20335703158E+03  0.20335703158E+03  0.00000000000E+00 0. -1.
         -2   -1    0    0    0  501 -0.00000000000E+00 -0.00000000000E+00 -0.58555601284E+02  0.58555601284E+02  0.00000000000E+00 0.  1.
         24    1    1    2    0    0  0.69597956667E+01  0.10678557625E+02  0.15958688725E+03  0.17915820072E+03  0.80419002446E+02 0. -1.
        -24    1    1    2    0    0 -0.69597956667E+01 -0.10678557625E+02 -0.14785456949E+02  0.82754432149E+02  0.80419002446E+02 0.  1.
<mgrwt>
<rscale>  0 0.81422886E+02</rscale>
<asrwt>0</asrwt>
<pdfrwt beam="1">  1        2 0.31285697E-01 0.81422886E+02</pdfrwt>
<pdfrwt beam="2">  1       -2 0.90085542E-02 0.81422886E+02</pdfrwt>
<totfact> 0.11771601E+04</totfact>
</mgrwt>
</event>
<event>
 4    1  0.4938540E-001  0.9088035E+02  0.7546771E-02  0.1300734E+00
          2   -1    0    0  501    0  0.00000000000E+00  0.00000000000E+00  0.96821831527E+02  0.96821831527E+02  0.00000000000E+00 0. -1.
         -2   -1    0    0    0  501 -0.00000000000E+00 -0.00000000000E+00 -0.85406169701E+02  0.85406169701E+02  0.00000000000E+00 0.  1.
         24    1    1    2    0    0  0.36173493873E+02  0.21988568842E+02  0.25477374490E+01  0.90916036755E+02  0.80419002446E+02 0.  0.
        -24    1    1    2    0    0 -0.36173493873E+02 -0.21988568842E+02  0.88679243771E+01  0.91311964473E+02  0.80419002446E+02 0.  0.
<mgrwt>
<rscale>  0 0.90880344E+02</rscale>
<asrwt>0</asrwt>
<pdfrwt beam="1">  1        2 0.14895667E-01 0.90880355E+02</pdfrwt>
<pdfrwt beam="2">  1       -2 0.13139411E-01 0.90880355E+02</pdfrwt>
<totfact> 0.14990004E+04</totfact>
</mgrwt>
</event>
<event>
 4    1  0.4938540E-001  0.8476054E+02  0.7546771E-02  0.1316060E+00
          1   -1    0    0  501    0  0.00000000000E+00  0.00000000000E+00  0.18915338883E+03  0.18915338883E+03  0.00000000000E+00 0. -1.
         -1   -1    0    0    0  501 -0.00000000000E+00 -0.00000000000E+00 -0.38339432726E+02  0.38339432726E+02  0.00000000000E+00 0.  1.
         24    1    1    2    0    0  0.20336768071E+02  0.17422676596E+02  0.64418174516E+02  0.10646149988E+03  0.80419002446E+02 0.  1.
        -24    1    1    2    0    0 -0.20336768071E+02 -0.17422676596E+02  0.86395781591E+02  0.12103132168E+03  0.80419002446E+02 0. -1.
<mgrwt>
<rscale>  0 0.84760544E+02</rscale>
<asrwt>0</asrwt>
<pdfrwt beam="1">  1        1 0.29100521E-01 0.84760544E+02</pdfrwt>
<pdfrwt beam="2">  1       -1 0.58983744E-02 0.84760544E+02</pdfrwt>
<totfact> 0.19114942E+04</totfact>
</mgrwt>
</event>
<event>
 4    1  0.4938540E-001  0.9630862E+02  0.7546771E-02  0.1288256E+00
         -1   -1    0    0    0  501 -0.00000000000E+00  0.00000000000E+00  0.63350066772E+02  0.63350066772E+02  0.00000000000E+00 0.  1.
          1   -1    0    0  501    0  0.00000000000E+00 -0.00000000000E+00 -0.16025980541E+03  0.16025980541E+03  0.00000000000E+00 0. -1.
         24    1    1    2    0    0  0.42788832323E+02 -0.31261011328E+02 -0.15592093132E+02  0.97562617449E+02  0.80419002446E+02 0.  1.
        -24    1    1    2    0    0 -0.42788832323E+02  0.31261011328E+02 -0.81317645506E+02  0.12604725473E+03  0.80419002446E+02 0. -1.
<mgrwt>
<rscale>  0 0.96308623E+02</rscale>
<asrwt>0</asrwt>
<pdfrwt beam="1">  1        1 0.24655355E-01 0.96308623E+02</pdfrwt>
<pdfrwt beam="2">  1       -1 0.97461641E-02 0.96308623E+02</pdfrwt>
<totfact> 0.11251516E+04</totfact>
</mgrwt>
</event>
<event>
 4    1  0.4938540E-001  0.8116873E+02  0.7546771E-02  0.1325767E+00
          1   -1    0    0  501    0  0.00000000000E+00  0.00000000000E+00  0.10778787661E+04  0.10778787661E+04  0.00000000000E+00 0. -1.
         -1   -1    0    0    0  501 -0.00000000000E+00 -0.00000000000E+00 -0.10679510020E+02  0.10679510020E+02  0.00000000000E+00 0.  1.
         24    1    1    2    0    0  0.31903135429E+01 -0.10534133066E+02  0.17766553287E+03  0.19532896248E+03  0.80419002446E+02 0.  0.
        -24    1    1    2    0    0 -0.31903135429E+01  0.10534133066E+02  0.88953372324E+03  0.89322931366E+03  0.80419002446E+02 0. -1.
<mgrwt>
<rscale>  0 0.81168726E+02</rscale>
<asrwt>0</asrwt>
<pdfrwt beam="1">  1        1 0.16582742E+00 0.81168726E+02</pdfrwt>
<pdfrwt beam="2">  1       -1 0.16430024E-02 0.81168726E+02</pdfrwt>
<totfact> 0.11899913E+04</totfact>
</mgrwt>
</event>
<event>
 4    1  0.4938540E-001  0.9864123E+02  0.7546771E-02  0.1283179E+00
          2   -1    0    0  501    0  0.00000000000E+00  0.00000000000E+00  0.87948696923E+01  0.87948696923E+01  0.00000000000E+00 0. -1.
         -2   -1    0    0    0  501 -0.00000000000E+00 -0.00000000000E+00 -0.11304975938E+04  0.11304975938E+04  0.00000000000E+00 0.  1.
         24    1    1    2    0    0  0.47424499797E+02  0.31840107082E+02 -0.47757488077E+03  0.48765547090E+03  0.80419002446E+02 0.  1.
        -24    1    1    2    0    0 -0.47424499797E+02 -0.31840107082E+02 -0.64412784332E+03  0.65163699258E+03  0.80419002446E+02 0. -1.
<mgrwt>
<rscale>  0 0.98641226E+02</rscale>
<asrwt>0</asrwt>
<pdfrwt beam="1">  1        2 0.13530563E-02 0.98641226E+02</pdfrwt>
<pdfrwt beam="2">  1       -2 0.17392278E+00 0.98641226E+02</pdfrwt>
<totfact> 0.18843346E+03</totfact>
</mgrwt>
</event>
<event>
 4    1  0.4938540E-001  0.8898911E+02  0.7546771E-02  0.1305318E+00
          1   -1    0    0  501    0  0.00000000000E+00  0.00000000000E+00  0.15665589084E+04  0.15665589084E+04  0.00000000000E+00 0. -1.
         -1   -1    0    0    0  501 -0.00000000000E+00 -0.00000000000E+00 -0.56539595135E+01  0.56539595135E+01  0.00000000000E+00 0.  1.
         24    1    1    2    0    0 -0.36454904116E+02  0.11085399431E+02  0.52460624391E+03  0.53210034131E+03  0.80419002446E+02 0.  1.
        -24    1    1    2    0    0  0.36454904116E+02 -0.11085399431E+02  0.10362987050E+04  0.10401125266E+04  0.80419002446E+02 0. -1.
<mgrwt>
<rscale>  0 0.88989112E+02</rscale>
<asrwt>0</asrwt>
<pdfrwt beam="1">  1        1 0.24100872E+00 0.88989112E+02</pdfrwt>
<pdfrwt beam="2">  1       -1 0.86984118E-03 0.88989112E+02</pdfrwt>
<totfact> 0.14037480E+04</totfact>
</mgrwt>
</event>
<event>
 4    1  0.4938540E-001  0.8596338E+02  0.7546771E-02  0.1312932E+00
         -2   -1    0    0    0  501 -0.00000000000E+00  0.00000000000E+00  0.36604010499E+01  0.36604010499E+01  0.00000000000E+00 0.  1.
          2   -1    0    0  501    0  0.00000000000E+00 -0.00000000000E+00 -0.20270960317E+04  0.20270960317E+04  0.00000000000E+00 0. -1.
         24    1    1    2    0    0  0.20161508060E+02  0.22715658497E+02 -0.10765829047E+04  0.10800094695E+04  0.80419002446E+02 0. -1.
        -24    1    1    2    0    0 -0.20161508060E+02 -0.22715658497E+02 -0.94685272589E+03  0.95074696319E+03  0.80419002446E+02 0.  1.
<mgrwt>
<rscale>  0 0.85963385E+02</rscale>
<asrwt>0</asrwt>
<pdfrwt beam="1">  1        2 0.31186120E+00 0.85963385E+02</pdfrwt>
<pdfrwt beam="2">  1       -2 0.56313813E-03 0.85963385E+02</pdfrwt>
<totfact> 0.32881729E+04</totfact>
</mgrwt>
</event>
<event>
 4    1  0.4938540E-001  0.9144000E+02  0.7546771E-02  0.1299402E+00
          3   -1    0    0  501    0  0.00000000000E+00  0.00000000000E+00  0.99632696121E+03  0.99632696121E+03  0.00000000000E+00 0. -1.
         -3   -1    0    0    0  501 -0.00000000000E+00 -0.00000000000E+00 -0.65673396963E+02  0.65673396963E+02  0.00000000000E+00 0.  1.
         24    1    1    2    0    0  0.41276484716E+02 -0.13795289920E+02 -0.30587200335E+02  0.96420179388E+02  0.80419002446E+02 0.  1.
        -24    1    1    2    0    0 -0.41276484716E+02  0.13795289920E+02  0.96124076458E+03  0.96558017878E+03  0.80419002446E+02 0. -1.
<mgrwt>
<rscale>  0 0.91440003E+02</rscale>
<asrwt>0</asrwt>
<pdfrwt beam="1">  1        3 0.15328106E+00 0.91440003E+02</pdfrwt>
<pdfrwt beam="2">  1       -3 0.10103600E-01 0.91440003E+02</pdfrwt>
<totfact> 0.53698212E+01</totfact>
</mgrwt>
</event>
<event>
 4    1  0.4938540E-001  0.8272894E+02  0.7546771E-02  0.1321481E+00
          1   -1    0    0  501    0  0.00000000000E+00  0.00000000000E+00  0.10047369106E+02  0.10047369106E+02  0.00000000000E+00 0. -1.
         -1   -1    0    0    0  501 -0.00000000000E+00 -0.00000000000E+00 -0.91303694662E+03  0.91303694662E+03  0.00000000000E+00 0.  1.
         24    1    1    2    0    0 -0.16371636541E+02  0.10432221443E+02 -0.68407686881E+03  0.68906112945E+03  0.80419002446E+02 0.  1.
        -24    1    1    2    0    0  0.16371636541E+02 -0.10432221443E+02 -0.21891270870E+03  0.23402318627E+03  0.80419002446E+02 0.  1.
<mgrwt>
<rscale>  0 0.82728941E+02</rscale>
<asrwt>0</asrwt>
<pdfrwt beam="1">  1        1 0.15457492E-02 0.82728941E+02</pdfrwt>
<pdfrwt beam="2">  1       -1 0.14046722E+00 0.82728941E+02</pdfrwt>
<totfact> 0.36131174E+03</totfact>
</mgrwt>
</event>
<event>
 4    1  0.4938540E-001  0.8458107E+02  0.7546771E-02  0.1316532E+00
         -2   -1    0    0    0  501 -0.00000000000E+00  0.00000000000E+00  0.23755403329E+02  0.23755403329E+02  0.00000000000E+00 0.  1.
          2   -1    0    0  501    0  0.00000000000E+00 -0.00000000000E+00 -0.12197169570E+04  0.12197169570E+04  0.00000000000E+00 0. -1.
         24    1    1    2    0    0  0.15906814400E+02 -0.20825815103E+02 -0.11375309602E+04  0.11406711369E+04  0.80419002446E+02 0. -1.
        -24    1    1    2    0    0 -0.15906814400E+02  0.20825815103E+02 -0.58430593470E+02  0.10280122337E+03  0.80419002446E+02 0.  1.
<mgrwt>
<rscale>  0 0.84581069E+02</rscale>
<asrwt>0</asrwt>
<pdfrwt beam="1">  1        2 0.18764880E+00 0.84581069E+02</pdfrwt>
<pdfrwt beam="2">  1       -2 0.36546767E-02 0.84581069E+02</pdfrwt>
<totfact> 0.58806832E+03</totfact>
</mgrwt>
</event>
<event>
 4    1  0.4938540E-001  0.8619806E+02  0.7546771E-02  0.1312329E+00
         -2   -1    0    0    0  501 -0.00000000000E+00  0.00000000000E+00  0.10017302208E+03  0.10017302208E+03  0.00000000000E+00 0.  1.
          2   -1    0    0  501    0  0.00000000000E+00 -0.00000000000E+00 -0.10140066304E+03  0.10140066304E+03  0.00000000000E+00 0. -1.
         24    1    1    2    0    0  0.19346213770E+02 -0.24261372904E+02 -0.52840306788E+02  0.10110491669E+03  0.80419002446E+02 0. -1.
        -24    1    1    2    0    0 -0.19346213770E+02  0.24261372904E+02  0.51612665821E+02  0.10046876843E+03  0.80419002446E+02 0.  1.
<mgrwt>
<rscale>  0 0.86198064E+02</rscale>
<asrwt>0</asrwt>
<pdfrwt beam="1">  1        2 0.15600102E-01 0.86198064E+02</pdfrwt>
<pdfrwt beam="2">  1       -2 0.15411234E-01 0.86198064E+02</pdfrwt>
<totfact> 0.10937965E+04</totfact>
</mgrwt>
</event>
<event>
 4    1  0.4938540E-001  0.1159995E+03  0.7546771E-02  0.1249846E+00
          2   -1    0    0  501    0  0.00000000000E+00  0.00000000000E+00  0.80962557019E+03  0.80962557019E+03  0.00000000000E+00 0. -1.
         -2   -1    0    0    0  501 -0.00000000000E+00 -0.00000000000E+00 -0.29141059900E+02  0.29141059900E+02  0.00000000000E+00 0.  1.
         24    1    1    2    0    0 -0.48319133442E+02 -0.68219702966E+02  0.66514624758E+03  0.67518546574E+03  0.80419002446E+02 0. -1.
        -24    1    1    2    0    0  0.48319133442E+02  0.68219702966E+02  0.11533826271E+03  0.16358116435E+03  0.80419002446E+02 0.  1.
<mgrwt>
<rscale>  0 0.11599949E+03</rscale>
<asrwt>0</asrwt>
<pdfrwt beam="1">  1        2 0.12455776E+00 0.11599949E+03</pdfrwt>
<pdfrwt beam="2">  1       -2 0.44832406E-02 0.11599949E+03</pdfrwt>
<totfact> 0.77217187E+03</totfact>
</mgrwt>
</event>
<event>
 4    1  0.4938540E-001  0.8163756E+02  0.7546771E-02  0.1324467E+00
          4   -1    0    0  501    0  0.00000000000E+00  0.00000000000E+00  0.26407625433E+03  0.26407625433E+03  0.00000000000E+00 0. -1.
         -4   -1    0    0    0  501 -0.00000000000E+00 -0.00000000000E+00 -0.32872674403E+02  0.32872674403E+02  0.00000000000E+00 0.  1.
         24    1    1    2    0    0 -0.94612952065E+01  0.10390327361E+02  0.18715622671E+03  0.20418654255E+03  0.80419002446E+02 0. -1.
        -24    1    1    2    0    0  0.94612952065E+01 -0.10390327361E+02  0.44047353216E+02  0.92762386178E+02  0.80419002446E+02 0.  1.
<mgrwt>
<rscale>  0 0.81637559E+02</rscale>
<asrwt>0</asrwt>
<pdfrwt beam="1">  1        4 0.40627114E-01 0.81637559E+02</pdfrwt>
<pdfrwt beam="2">  1       -4 0.50573347E-02 0.81637559E+02</pdfrwt>
<totfact> 0.20009233E+03</totfact>
</mgrwt>
</event>
<event>
 4    1  0.4938540E-001  0.8303967E+02  0.7546771E-02  0.1320640E+00
         -2   -1    0    0    0  501 -0.00000000000E+00  0.00000000000E+00  0.34598688276E+01  0.34598688276E+01  0.00000000000E+00 0.  1.
          2   -1    0    0  501    0  0.00000000000E+00 -0.00000000000E+00 -0.31652507698E+04  0.31652507698E+04  0.00000000000E+00 0. -1.
         24    1    1    2    0    0 -0.20141561160E+02 -0.47632922774E+01 -0.25450687563E+04  0.25464230916E+04  0.80419002446E+02 0. -1.
        -24    1    1    2    0    0  0.20141561160E+02  0.47632922774E+01 -0.61672214464E+03  0.62228754694E+03  0.80419002446E+02 0.  1.
<mgrwt>
<rscale>  0 0.83039674E+02</rscale>
<asrwt>0</asrwt>
<pdfrwt beam="1">  1        2 0.48696225E+00 0.83039674E+02</pdfrwt>
<pdfrwt beam="2">  1       -2 0.53228686E-03 0.83039674E+02</pdfrwt>
<totfact> 0.87470041E+03</totfact>
</mgrwt>
</event>
<event>
 4    1  0.4938540E-001  0.1039137E+03  0.7546771E-02  0.1272275E+00
          2   -1    0    0  501    0  0.00000000000E+00  0.00000000000E+00  0.73419039052E+03  0.73419039052E+03  0.00000000000E+00 0. -1.
         -2   -1    0    0    0  501 -0.00000000000E+00 -0.00000000000E+00 -0.15712602768E+02  0.15712602768E+02  0.00000000000E+00 0.  1.
         24    1    1    2    0    0 -0.63324221746E+02  0.17913383112E+02  0.45407394271E+03  0.46581241692E+03  0.80419002446E+02 0.  0.
        -24    1    1    2    0    0  0.63324221746E+02 -0.17913383112E+02  0.26440384504E+03  0.28409057637E+03  0.80419002446E+02 0.  1.
<mgrwt>
<rscale>  0 0.10391373E+03</rscale>
<asrwt>0</asrwt>
<pdfrwt beam="1">  1        2 0.11295234E+00 0.10391373E+03</pdfrwt>
<pdfrwt beam="2">  1       -2 0.24173241E-02 0.10391373E+03</pdfrwt>
<totfact> 0.21349677E+04</totfact>
</mgrwt>
</event>
<event>
 4    1  0.4938540E-001  0.1024210E+03  0.7546771E-02  0.1275286E+00
         -2   -1    0    0    0  501 -0.00000000000E+00  0.00000000000E+00  0.12889106471E+03  0.12889106471E+03  0.00000000000E+00 0.  1.
          2   -1    0    0  501    0  0.00000000000E+00 -0.00000000000E+00 -0.23840032517E+03  0.23840032517E+03  0.00000000000E+00 0. -1.
         24    1    1    2    0    0  0.20900672327E+02  0.59883218971E+02 -0.20379215157E+03  0.22808177265E+03  0.80419002446E+02 0. -1.
        -24    1    1    2    0    0 -0.20900672327E+02 -0.59883218971E+02  0.94282891113E+02  0.13920961723E+03  0.80419002446E+02 0.  1.
<mgrwt>
<rscale>  0 0.10242096E+03</rscale>
<asrwt>0</asrwt>
<pdfrwt beam="1">  1        2 0.36676973E-01 0.10242096E+03</pdfrwt>
<pdfrwt beam="2">  1       -2 0.19829395E-01 0.10242096E+03</pdfrwt>
<totfact> 0.28602698E+03</totfact>
</mgrwt>
</event>
<event>
 4    1  0.4938540E-001  0.8051084E+02  0.7546771E-02  0.1327608E+00
          1   -1    0    0  501    0  0.00000000000E+00  0.00000000000E+00  0.66148386314E+02  0.66148386314E+02  0.00000000000E+00 0. -1.
         -1   -1    0    0    0  501 -0.00000000000E+00 -0.00000000000E+00 -0.12154576060E+03  0.12154576060E+03  0.00000000000E+00 0.  1.
         24    1    1    2    0    0 -0.34483411833E+01  0.16996414452E+01 -0.69011361244E+02  0.10604038746E+03  0.80419002446E+02 0.  0.
        -24    1    1    2    0    0  0.34483411833E+01 -0.16996414452E+01  0.13613986955E+02  0.81653759455E+02  0.80419002446E+02 0. -1.
<mgrwt>
<rscale>  0 0.80510843E+02</rscale>
<asrwt>0</asrwt>
<pdfrwt beam="1">  1        1 0.10176675E-01 0.80510843E+02</pdfrwt>
<pdfrwt beam="2">  1       -1 0.18699348E-01 0.80510843E+02</pdfrwt>
<totfact> 0.12509231E+04</totfact>
</mgrwt>
</event>
<event>
 4    1  0.4938540E-001  0.8502834E+02  0.7546771E-02  0.1315358E+00
         -4   -1    0    0    0  501 -0.00000000000E+00  0.00000000000E+00  0.19724128939E+03  0.19724128939E+03  0.00000000000E+00 0.  1.
          4   -1    0    0  501    0  0.00000000000E+00 -0.00000000000E+00 -0.38955050858E+02  0.38955050858E+02  0.00000000000E+00 0. -1.
         24    1    1    2    0    0  0.23922698781E+02 -0.13795206921E+02  0.50444642875E+02  0.98865975948E+02  0.80419002446E+02 0. -1.
        -24    1    1    2    0    0 -0.23922698781E+02  0.13795206921E+02  0.10784159566E+03  0.13733036430E+03  0.80419002446E+02 0.  1.
<mgrwt>
<rscale>  0 0.85028344E+02</rscale>
<asrwt>0</asrwt>
<pdfrwt beam="1">  1        4 0.59930849E-02 0.85028344E+02</pdfrwt>
<pdfrwt beam="2">  1       -4 0.30344813E-01 0.85028344E+02</pdfrwt>
<totfact> 0.26936476E+03</totfact>
</mgrwt>
</event>
<event>
 4    1  0.4938540E-001  0.8871516E+02  0.7546771E-02  0.1305993E+00
          2   -1    0    0  501    0  0.00000000000E+00  0.00000000000E+00  0.25685522462E+03  0.25685522462E+03  0.00000000000E+00 0. -1.
         -2   -1    0    0    0  501 -0.00000000000E+00 -0.00000000000E+00 -0.17963601592E+03  0.17963601592E+03  0.00000000000E+00 0.  1.
         24    1    1    2    0    0 -0.24684716308E+02  0.28174965446E+02  0.23737201373E+03  0.25340847017E+03  0.80419002446E+02 0. -1.
        -24    1    1    2    0    0  0.24684716308E+02 -0.28174965446E+02 -0.16015280503E+03  0.18308277038E+03  0.80419002446E+02 0.  1.
<mgrwt>
<rscale>  0 0.88715161E+02</rscale>
<asrwt>0</asrwt>
<pdfrwt beam="1">  1        2 0.39516188E-01 0.88715161E+02</pdfrwt>
<pdfrwt beam="2">  1       -2 0.27636310E-01 0.88715161E+02</pdfrwt>
<totfact> 0.14859282E+03</totfact>
</mgrwt>
</event>
<event>
 4    1  0.4938540E-001  0.8206564E+02  0.7546771E-02  0.1323290E+00
          1   -1    0    0  501    0  0.00000000000E+00  0.00000000000E+00  0.26267824615E+03  0.26267824615E+03  0.00000000000E+00 0. -1.
         -1   -1    0    0    0  501 -0.00000000000E+00 -0.00000000000E+00 -0.12681581261E+03  0.12681581261E+03  0.00000000000E+00 0.  1.
         24    1    1    2    0    0  0.14639601816E+02  0.72962618795E+01 -0.10601898884E+03  0.13407011348E+03  0.80419002446E+02 0.  1.
        -24    1    1    2    0    0 -0.14639601816E+02 -0.72962618795E+01  0.24188142238E+03  0.25542394528E+03  0.80419002446E+02 0. -1.
<mgrwt>
<rscale>  0 0.82065640E+02</rscale>
<asrwt>0</asrwt>
<pdfrwt beam="1">  1        1 0.40412038E-01 0.82065640E+02</pdfrwt>
<pdfrwt beam="2">  1       -1 0.19510125E-01 0.82065640E+02</pdfrwt>
<totfact> 0.20820366E+03</totfact>
</mgrwt>
</event>
<event>
 4    1  0.4938540E-001  0.8169734E+02  0.7546771E-02  0.1324303E+00
          4   -1    0    0  501    0  0.00000000000E+00  0.00000000000E+00  0.39459799480E+02  0.39459799480E+02  0.00000000000E+00 0. -1.
         -4   -1    0    0    0  501 -0.00000000000E+00 -0.00000000000E+00 -0.16959014094E+03  0.16959014094E+03  0.00000000000E+00 0.  1.
         24    1    1    2    0    0 -0.65509552028E+01  0.12818752138E+02 -0.70416684830E+02  0.10785620463E+03  0.80419002446E+02 0.  0.
        -24    1    1    2    0    0  0.65509552028E+01 -0.12818752138E+02 -0.59713656629E+02  0.10119373579E+03  0.80419002446E+02 0.  0.
<mgrwt>
<rscale>  0 0.81697326E+02</rscale>
<asrwt>0</asrwt>
<pdfrwt beam="1">  1        4 0.60707384E-02 0.81697336E+02</pdfrwt>
<pdfrwt beam="2">  1       -4 0.26090791E-01 0.81697336E+02</pdfrwt>
<totfact> 0.34519229E+03</totfact>
</mgrwt>
</event>
<event>
 4    1  0.4938540E-001  0.1401257E+03  0.7546771E-02  0.1213160E+00
          1   -1    0    0  501    0  0.00000000000E+00  0.00000000000E+00  0.23207878262E+04  0.23207878262E+04  0.00000000000E+00 0. -1.
         -1   -1    0    0    0  501 -0.00000000000E+00 -0.00000000000E+00 -0.44099604803E+02  0.44099604803E+02  0.00000000000E+00 0.  1.
         24    1    1    2    0    0 -0.97174902341E+02  0.61033046393E+02  0.75361802364E+02  0.15910566177E+03  0.80419002446E+02 0.  1.
        -24    1    1    2    0    0  0.97174902341E+02 -0.61033046393E+02  0.22013264190E+04  0.22057817692E+04  0.80419002446E+02 0. -1.
<mgrwt>
<rscale>  0 0.14012569E+03</rscale>
<asrwt>0</asrwt>
<pdfrwt beam="1">  1        1 0.35704419E+00 0.14012569E+03</pdfrwt>
<pdfrwt beam="2">  1       -1 0.67845564E-02 0.14012569E+03</pdfrwt>
<totfact> 0.24031837E+02</totfact>
</mgrwt>
</event>
<event>
 4    1  0.4938540E-001  0.8429620E+02  0.7546771E-02  0.1317283E+00
         -2   -1    0    0    0  501 -0.00000000000E+00  0.00000000000E+00  0.39250939812E+01  0.39250939812E+01  0.00000000000E+00 0.  1.
          2   -1    0    0  501    0  0.00000000000E+00 -0.00000000000E+00 -0.25689598748E+04  0.25689598748E+04  0.00000000000E+00 0. -1.
         24    1    1    2    0    0  0.23806637834E+02 -0.84780855179E+01 -0.19815812898E+04  0.19833734540E+04  0.80419002446E+02 0.  1.
        -24    1    1    2    0    0 -0.23806637834E+02  0.84780855179E+01 -0.58345349102E+03  0.58951151479E+03  0.80419002446E+02 0.  1.
<mgrwt>
<rscale>  0 0.84296203E+02</rscale>
<asrwt>0</asrwt>
<pdfrwt beam="1">  1        2 0.39522537E+00 0.84296203E+02</pdfrwt>
<pdfrwt beam="2">  1       -2 0.60385942E-03 0.84296203E+02</pdfrwt>
<totfact> 0.15709048E+04</totfact>
</mgrwt>
</event>
<event>
 4    1  0.4938540E-001  0.1297769E+03  0.7546771E-02  0.1227787E+00
         -2   -1    0    0    0  501 -0.00000000000E+00  0.00000000000E+00  0.21660936398E+02  0.21660936398E+02  0.00000000000E+00 0.  1.
          2   -1    0    0  501    0  0.00000000000E+00 -0.00000000000E+00 -0.14422819340E+04  0.14422819340E+04  0.00000000000E+00 0. -1.
         24    1    1    2    0    0 -0.79170558631E+02 -0.64084807461E+02 -0.12072441811E+04  0.12141995588E+04  0.80419002446E+02 0. -1.
        -24    1    1    2    0    0  0.79170558631E+02  0.64084807461E+02 -0.21337681653E+03  0.24974331160E+03  0.80419002446E+02 0.  1.
<mgrwt>
<rscale>  0 0.12977695E+03</rscale>
<asrwt>0</asrwt>
<pdfrwt beam="1">  1        2 0.22188962E+00 0.12977695E+03</pdfrwt>
<pdfrwt beam="2">  1       -2 0.33324504E-02 0.12977695E+03</pdfrwt>
<totfact> 0.52152039E+03</totfact>
</mgrwt>
</event>
<event>
 4    1  0.4938540E-001  0.9137392E+02  0.7546771E-02  0.1299558E+00
          1   -1    0    0  501    0  0.00000000000E+00  0.00000000000E+00  0.26956595449E+02  0.26956595449E+02  0.00000000000E+00 0. -1.
         -1   -1    0    0    0  501 -0.00000000000E+00 -0.00000000000E+00 -0.79671360790E+03  0.79671360790E+03  0.00000000000E+00 0.  1.
         24    1    1    2    0    0 -0.40497117952E+02  0.15555060041E+02 -0.70685979632E+03  0.71274116203E+03  0.80419002446E+02 0.  0.
        -24    1    1    2    0    0  0.40497117952E+02 -0.15555060041E+02 -0.62897216137E+02  0.11092904132E+03  0.80419002446E+02 0.  0.
<mgrwt>
<rscale>  0 0.91373915E+02</rscale>
<asrwt>0</asrwt>
<pdfrwt beam="1">  1        1 0.41471689E-02 0.91373915E+02</pdfrwt>
<pdfrwt beam="2">  1       -1 0.12257131E+00 0.91373915E+02</pdfrwt>
<totfact> 0.13062995E+03</totfact>
</mgrwt>
</event>
<event>
 4    1  0.4938540E-001  0.9251189E+02  0.7546771E-02  0.1296880E+00
         -2   -1    0    0    0  501 -0.00000000000E+00  0.00000000000E+00  0.17922122013E+02  0.17922122013E+02  0.00000000000E+00 0.  1.
          2   -1    0    0  501    0  0.00000000000E+00 -0.00000000000E+00 -0.12132822574E+04  0.12132822574E+04  0.00000000000E+00 0. -1.
         24    1    1    2    0    0  0.34541855073E+02  0.29968212207E+02 -0.10770639318E+04  0.10810296770E+04  0.80419002446E+02 0. -1.
        -24    1    1    2    0    0 -0.34541855073E+02 -0.29968212207E+02 -0.11829620356E+03  0.15017470235E+03  0.80419002446E+02 0.  1.
<mgrwt>
<rscale>  0 0.92511888E+02</rscale>
<asrwt>0</asrwt>
<pdfrwt beam="1">  1        2 0.18665881E+00 0.92511888E+02</pdfrwt>
<pdfrwt beam="2">  1       -2 0.27572495E-02 0.92511888E+02</pdfrwt>
<totfact> 0.89759438E+03</totfact>
</mgrwt>
</event>
<event>
 4    1  0.4938540E-001  0.9772786E+02  0.7546771E-02  0.1285148E+00
          2   -1    0    0  501    0  0.00000000000E+00  0.00000000000E+00  0.16360054932E+04  0.16360054932E+04  0.00000000000E+00 0. -1.
         -2   -1    0    0    0  501 -0.00000000000E+00 -0.00000000000E+00 -0.65446941899E+01  0.65446941899E+01  0.00000000000E+00 0.  1.
         24    1    1    2    0    0  0.47636279513E+02 -0.28536016353E+02  0.10846344827E+04  0.10890283267E+04  0.80419002446E+02 0. -1.
        -24    1    1    2    0    0 -0.47636279513E+02  0.28536016353E+02  0.54482631632E+03  0.55352186069E+03  0.80419002446E+02 0.  1.
<mgrwt>
<rscale>  0 0.97727864E+02</rscale>
<asrwt>0</asrwt>
<pdfrwt beam="1">  1        2 0.25169283E+00 0.97727864E+02</pdfrwt>
<pdfrwt beam="2">  1       -2 0.10068773E-02 0.97727864E+02</pdfrwt>
<totfact> 0.22998065E+04</totfact>
</mgrwt>
</event>
<event>
 4    1  0.4938540E-001  0.8194526E+02  0.7546771E-02  0.1323620E+00
          2   -1    0    0  501    0  0.00000000000E+00  0.00000000000E+00  0.25501721325E+04  0.25501721325E+04  0.00000000000E+00 0. -1.
         -2   -1    0    0    0  501 -0.00000000000E+00 -0.00000000000E+00 -0.74377231370E+01  0.74377231370E+01  0.00000000000E+00 0.  1.
         24    1    1    2    0    0 -0.15699551380E+02  0.11552285907E+01  0.22991728072E+04  0.23006326573E+04  0.80419002446E+02 0.  0.
        -24    1    1    2    0    0  0.15699551380E+02 -0.11552285907E+01  0.24356160212E+03  0.25697719830E+03  0.80419002446E+02 0.  1.
<mgrwt>
<rscale>  0 0.81945265E+02</rscale>
<asrwt>0</asrwt>
<pdfrwt beam="1">  1        2 0.39233348E+00 0.81945265E+02</pdfrwt>
<pdfrwt beam="2">  1       -2 0.11442671E-02 0.81945265E+02</pdfrwt>
<totfact> 0.65291046E+03</totfact>
</mgrwt>
</event>
<event>
 4    1  0.4938540E-001  0.9255536E+02  0.7546771E-02  0.1296779E+00
          2   -1    0    0  501    0  0.00000000000E+00  0.00000000000E+00  0.55861425937E+02  0.55861425937E+02  0.00000000000E+00 0. -1.
         -2   -1    0    0    0  501 -0.00000000000E+00 -0.00000000000E+00 -0.18594775699E+03  0.18594775699E+03  0.00000000000E+00 0.  1.
         24    1    1    2    0    0  0.35062450555E+02 -0.29494137736E+02 -0.14422974084E+02  0.93672395803E+02  0.80419002446E+02 0.  0.
        -24    1    1    2    0    0 -0.35062450555E+02  0.29494137736E+02 -0.11566335697E+03  0.14813678713E+03  0.80419002446E+02 0.  0.
<mgrwt>
<rscale>  0 0.92555365E+02</rscale>
<asrwt>0</asrwt>
<pdfrwt beam="1">  1        2 0.85940656E-02 0.92555365E+02</pdfrwt>
<pdfrwt beam="2">  1       -2 0.28607347E-01 0.92555365E+02</pdfrwt>
<totfact> 0.78819123E+03</totfact>
</mgrwt>
</event>
<event>
 4    1  0.4938540E-001  0.1142068E+03  0.7546771E-02  0.1252972E+00
          2   -1    0    0  501    0  0.00000000000E+00  0.00000000000E+00  0.26803465519E+03  0.26803465519E+03  0.00000000000E+00 0. -1.
         -2   -1    0    0    0  501 -0.00000000000E+00 -0.00000000000E+00 -0.49514307942E+02  0.49514307942E+02  0.00000000000E+00 0.  1.
         24    1    1    2    0    0  0.74310063030E+02  0.32465152613E+02  0.13008745802E+03  0.17310671359E+03  0.80419002446E+02 0.  1.
        -24    1    1    2    0    0 -0.74310063030E+02 -0.32465152613E+02  0.88432889234E+02  0.14444224955E+03  0.80419002446E+02 0. -1.
<mgrwt>
<rscale>  0 0.11420678E+03</rscale>
<asrwt>0</asrwt>
<pdfrwt beam="1">  1        2 0.41236100E-01 0.11420678E+03</pdfrwt>
<pdfrwt beam="2">  1       -2 0.76175860E-02 0.11420678E+03</pdfrwt>
<totfact> 0.11724590E+04</totfact>
</mgrwt>
</event>
<event>
 4    1  0.4938540E-001  0.9857116E+02  0.7546771E-02  0.1283330E+00
          2   -1    0    0  501    0  0.00000000000E+00  0.00000000000E+00  0.76315982342E+02  0.76315982342E+02  0.00000000000E+00 0. -1.
         -2   -1    0    0    0  501 -0.00000000000E+00 -0.00000000000E+00 -0.19208558995E+03  0.19208558995E+03  0.00000000000E+00 0.  1.
         24    1    1    2    0    0 -0.56631840280E+02  0.64724582830E+01  0.20042920407E+02  0.10058823322E+03  0.80419002446E+02 0.  0.
        -24    1    1    2    0    0  0.56631840280E+02 -0.64724582830E+01 -0.13581252801E+03  0.16781333907E+03  0.80419002446E+02 0. -1.
<mgrwt>
<rscale>  0 0.98571162E+02</rscale>
<asrwt>0</asrwt>
<pdfrwt beam="1">  1        2 0.11740920E-01 0.98571162E+02</pdfrwt>
<pdfrwt beam="2">  1       -2 0.29551629E-01 0.98571162E+02</pdfrwt>
<totfact> 0.51231188E+03</totfact>
</mgrwt>
</event>
<event>
 4    1  0.4938540E-001  0.8299351E+02  0.7546771E-02  0.1320765E+00
          1   -1    0    0  501    0  0.00000000000E+00  0.00000000000E+00  0.55315546267E+02  0.55315546267E+02  0.00000000000E+00 0. -1.
         -1   -1    0    0    0  501 -0.00000000000E+00 -0.00000000000E+00 -0.15434094611E+03  0.15434094611E+03  0.00000000000E+00 0.  1.
         24    1    1    2    0    0  0.14841698907E+02 -0.14157348149E+02 -0.95590784001E+02  0.12659194474E+03  0.80419002446E+02 0.  0.
        -24    1    1    2    0    0 -0.14841698907E+02  0.14157348149E+02 -0.34346158380E+01  0.83064547632E+02  0.80419002446E+02 0. -1.
<mgrwt>
<rscale>  0 0.82993509E+02</rscale>
<asrwt>0</asrwt>
<pdfrwt beam="1">  1        1 0.85100842E-02 0.82993509E+02</pdfrwt>
<pdfrwt beam="2">  1       -1 0.23744760E-01 0.82993509E+02</pdfrwt>
<totfact> 0.10844741E+04</totfact>
</mgrwt>
</event>
<event>
 4    1  0.4938540E-001  0.8267140E+02  0.7546771E-02  0.1321637E+00
          2   -1    0    0  501    0  0.00000000000E+00  0.00000000000E+00  0.57421551137E+03  0.57421551137E+03  0.00000000000E+00 0. -1.
         -2   -1    0    0    0  501 -0.00000000000E+00 -0.00000000000E+00 -0.11947349177E+02  0.11947349177E+02  0.00000000000E+00 0.  1.
         24    1    1    2    0    0  0.89925425021E+01  0.16925563747E+02  0.26316203913E+03  0.27584201152E+03  0.80419002446E+02 0.  0.
        -24    1    1    2    0    0 -0.89925425021E+01 -0.16925563747E+02  0.29910612306E+03  0.31032084902E+03  0.80419002446E+02 0.  0.
<mgrwt>
<rscale>  0 0.82671387E+02</rscale>
<asrwt>0</asrwt>
<pdfrwt beam="1">  1        2 0.88340826E-01 0.82671397E+02</pdfrwt>
<pdfrwt beam="2">  1       -2 0.18380542E-02 0.82671397E+02</pdfrwt>
<totfact> 0.40953475E+04</totfact>
</mgrwt>
</event>
<event>
 4    1  0.4938540E-001  0.8459029E+02  0.7546771E-02  0.1316507E+00
         -2   -1    0    0    0  501 -0.00000000000E+00  0.00000000000E+00  0.14615707982E+03  0.14615707982E+03  0.00000000000E+00 0.  1.
          2   -1    0    0  501    0  0.00000000000E+00 -0.00000000000E+00 -0.82849172697E+02  0.82849172697E+02  0.00000000000E+00 0. -1.
         24    1    1    2    0    0  0.18243398085E+02 -0.18854186478E+02 -0.41580985955E+02  0.94257605894E+02  0.80419002446E+02 0. -1.
        -24    1    1    2    0    0 -0.18243398085E+02  0.18854186478E+02  0.10488889308E+03  0.13474864663E+03  0.80419002446E+02 0.  1.
<mgrwt>
<rscale>  0 0.84590294E+02</rscale>
<asrwt>0</asrwt>
<pdfrwt beam="1">  1        2 0.12746027E-01 0.84590294E+02</pdfrwt>
<pdfrwt beam="2">  1       -2 0.22485705E-01 0.84590294E+02</pdfrwt>
<totfact> 0.73802561E+03</totfact>
</mgrwt>
</event>
<event>
 4    1  0.4938540E-001  0.1043321E+03  0.7546771E-02  0.1271441E+00
         -1   -1    0    0    0  501 -0.00000000000E+00  0.00000000000E+00  0.39540838950E+03  0.39540838950E+03  0.00000000000E+00 0.  1.
          1   -1    0    0  501    0  0.00000000000E+00 -0.00000000000E+00 -0.11058294155E+03  0.11058294155E+03  0.00000000000E+00 0. -1.
         24    1    1    2    0    0  0.88948491472E+01 -0.65869930738E+02  0.36166758861E+03  0.37641549746E+03  0.80419002446E+02 0.  1.
        -24    1    1    2    0    0 -0.88948491472E+01  0.65869930738E+02 -0.76842140657E+02  0.12957583360E+03  0.80419002446E+02 0. -1.
<mgrwt>
<rscale>  0 0.10433208E+03</rscale>
<asrwt>0</asrwt>
<pdfrwt beam="1">  1        1 0.17012760E-01 0.10433208E+03</pdfrwt>
<pdfrwt beam="2">  1       -1 0.60832059E-01 0.10433208E+03</pdfrwt>
<totfact> 0.87931790E+02</totfact>
</mgrwt>
</event>
<event>
 4    1  0.4938540E-001  0.9562992E+02  0.7546771E-02  0.1289764E+00
         -2   -1    0    0    0  501 -0.00000000000E+00  0.00000000000E+00  0.71787391661E+01  0.71787391661E+01  0.00000000000E+00 0.  1.
          2   -1    0    0  501    0  0.00000000000E+00 -0.00000000000E+00 -0.13067468171E+04  0.13067468171E+04  0.00000000000E+00 0. -1.
         24    1    1    2    0    0  0.25820228779E+01  0.51683634447E+02 -0.75392302752E+03  0.75996382301E+03  0.80419002446E+02 0. -1.
        -24    1    1    2    0    0 -0.25820228779E+01 -0.51683634447E+02 -0.54564505045E+03  0.55396173328E+03  0.80419002446E+02 0.  1.
<mgrwt>
<rscale>  0 0.95629916E+02</rscale>
<asrwt>0</asrwt>
<pdfrwt beam="1">  1        2 0.20103793E+00 0.95629916E+02</pdfrwt>
<pdfrwt beam="2">  1       -2 0.11044217E-02 0.95629916E+02</pdfrwt>
<totfact> 0.29766084E+04</totfact>
</mgrwt>
</event>
<event>
 4    1  0.4938540E-001  0.8872816E+02  0.7546771E-02  0.1305961E+00
          1   -1    0    0  501    0  0.00000000000E+00  0.00000000000E+00  0.10877156741E+02  0.10877156741E+02  0.00000000000E+00 0. -1.
         -1   -1    0    0    0  501 -0.00000000000E+00 -0.00000000000E+00 -0.74088531162E+03  0.74088531162E+03  0.00000000000E+00 0.  1.
         24    1    1    2    0    0  0.75085541220E+00  0.37482095473E+02 -0.42211495137E+03  0.43133944799E+03  0.80419002446E+02 0.  0.
        -24    1    1    2    0    0 -0.75085541220E+00 -0.37482095473E+02 -0.30789320351E+03  0.32042302038E+03  0.80419002446E+02 0.  1.
<mgrwt>
<rscale>  0 0.88728165E+02</rscale>
<asrwt>0</asrwt>
<pdfrwt beam="1">  1        1 0.16734092E-02 0.88728165E+02</pdfrwt>
<pdfrwt beam="2">  1       -1 0.11398232E+00 0.88728165E+02</pdfrwt>
<totfact> 0.53525398E+03</totfact>
</mgrwt>
</event>
<event>
 4    1  0.4938540E-001  0.1391743E+03  0.7546771E-02  0.1214444E+00
          2   -1    0    0  501    0  0.00000000000E+00  0.00000000000E+00  0.26297733827E+04  0.26297733827E+04  0.00000000000E+00 0. -1.
         -2   -1    0    0    0  501 -0.00000000000E+00 -0.00000000000E+00 -0.84971843652E+01  0.84971843652E+01  0.00000000000E+00 0.  1.
         24    1    1    2    0    0  0.12339113067E+01  0.11358136188E+03  0.82921815814E+03  0.84081639973E+03  0.80419002446E+02 0.  0.
        -24    1    1    2    0    0 -0.12339113067E+01 -0.11358136188E+03  0.17920580401E+04  0.17974541673E+04  0.80419002446E+02 0.  0.
<mgrwt>
<rscale>  0 0.13917424E+03</rscale>
<asrwt>0</asrwt>
<pdfrwt beam="1">  1        2 0.40457987E+00 0.13917426E+03</pdfrwt>
<pdfrwt beam="2">  1       -2 0.13072612E-02 0.13917426E+03</pdfrwt>
<totfact> 0.49196715E+03</totfact>
</mgrwt>
</event>
<event>
 4    1  0.4938540E-001  0.9275608E+02  0.7546771E-02  0.1296311E+00
         -2   -1    0    0    0  501 -0.00000000000E+00  0.00000000000E+00  0.58569011284E+02  0.58569011284E+02  0.00000000000E+00 0.  1.
          2   -1    0    0  501    0  0.00000000000E+00 -0.00000000000E+00 -0.15833357576E+03  0.15833357576E+03  0.00000000000E+00 0. -1.
         24    1    1    2    0    0 -0.43357562911E+02 -0.16018497639E+02 -0.20736742581E+02  0.95045773054E+02  0.80419002446E+02 0.  1.
        -24    1    1    2    0    0  0.43357562911E+02  0.16018497639E+02 -0.79027821897E+02  0.12185681399E+03  0.80419002446E+02 0. -1.
<mgrwt>
<rscale>  0 0.92756071E+02</rscale>
<asrwt>0</asrwt>
<pdfrwt beam="1">  1        2 0.24359011E-01 0.92756082E+02</pdfrwt>
<pdfrwt beam="2">  1       -2 0.90106172E-02 0.92756082E+02</pdfrwt>
<totfact> 0.15608879E+04</totfact>
</mgrwt>
</event>
<event>
 4    1  0.4938540E-001  0.8729097E+02  0.7546771E-02  0.1309548E+00
          1   -1    0    0  501    0  0.00000000000E+00  0.00000000000E+00  0.22815477210E+03  0.22815477210E+03  0.00000000000E+00 0. -1.
         -1   -1    0    0    0  501 -0.00000000000E+00 -0.00000000000E+00 -0.33407548300E+02  0.33407548300E+02  0.00000000000E+00 0.  1.
         24    1    1    2    0    0  0.33729517856E+02 -0.38492842891E+01  0.95063479497E+02  0.12906114230E+03  0.80419002446E+02 0.  1.
        -24    1    1    2    0    0 -0.33729517856E+02  0.38492842891E+01  0.99683744302E+02  0.13250117810E+03  0.80419002446E+02 0.  0.
<mgrwt>
<rscale>  0 0.87290969E+02</rscale>
<asrwt>0</asrwt>
<pdfrwt beam="1">  1        1 0.35100733E-01 0.87290969E+02</pdfrwt>
<pdfrwt beam="2">  1       -1 0.51396230E-02 0.87290969E+02</pdfrwt>
<totfact> 0.18658602E+04</totfact>
</mgrwt>
</event>
<event>
 4    1  0.4938540E-001  0.1024926E+03  0.7546771E-02  0.1275140E+00
          2   -1    0    0  501    0  0.00000000000E+00  0.00000000000E+00  0.44985319015E+02  0.44985319015E+02  0.00000000000E+00 0. -1.
         -2   -1    0    0    0  501 -0.00000000000E+00 -0.00000000000E+00 -0.27347742980E+03  0.27347742980E+03  0.00000000000E+00 0.  1.
         24    1    1    2    0    0  0.21940651719E+02  0.59633232095E+02 -0.53377106169E+02  0.11555884209E+03  0.80419002446E+02 0.  1.
        -24    1    1    2    0    0 -0.21940651719E+02 -0.59633232095E+02 -0.17511500461E+03  0.20290390672E+03  0.80419002446E+02 0. -1.
<mgrwt>
<rscale>  0 0.10249259E+03</rscale>
<asrwt>0</asrwt>
<pdfrwt beam="1">  1        2 0.69208185E-02 0.10249259E+03</pdfrwt>
<pdfrwt beam="2">  1       -2 0.42073450E-01 0.10249259E+03</pdfrwt>
<totfact> 0.51391940E+03</totfact>
</mgrwt>
</event>
<event>
 4    1  0.4938540E-001  0.9062054E+02  0.7546771E-02  0.1301356E+00
          2   -1    0    0  501    0  0.00000000000E+00  0.00000000000E+00  0.18804587699E+04  0.18804587699E+04  0.00000000000E+00 0. -1.
         -2   -1    0    0    0  501 -0.00000000000E+00 -0.00000000000E+00 -0.43730115037E+01  0.43730115037E+01  0.00000000000E+00 0.  1.
         24    1    1    2    0    0  0.26255628720E+02  0.32488586034E+02  0.97280052459E+03  0.97701225318E+03  0.80419002446E+02 0.  1.
        -24    1    1    2    0    0 -0.26255628720E+02 -0.32488586034E+02  0.90328523380E+03  0.90781952822E+03  0.80419002446E+02 0. -1.
<mgrwt>
<rscale>  0 0.90620540E+02</rscale>
<asrwt>0</asrwt>
<pdfrwt beam="1">  1        2 0.28930070E+00 0.90620540E+02</pdfrwt>
<pdfrwt beam="2">  1       -2 0.67277250E-03 0.90620540E+02</pdfrwt>
<totfact> 0.30457530E+04</totfact>
</mgrwt>
</event>
<event>
 4    1  0.4938540E-001  0.9414991E+02  0.7546771E-02  0.1293102E+00
         -1   -1    0    0    0  501 -0.00000000000E+00  0.00000000000E+00  0.18983824956E+03  0.18983824956E+03  0.00000000000E+00 0.  1.
          1   -1    0    0  501    0  0.00000000000E+00 -0.00000000000E+00 -0.11512937583E+03  0.11512937583E+03  0.00000000000E+00 0. -1.
         24    1    1    2    0    0 -0.23963935964E+02  0.42693319341E+02  0.15491798713E+03  0.18128372357E+03  0.80419002446E+02 0.  1.
        -24    1    1    2    0    0  0.23963935964E+02 -0.42693319341E+02 -0.80209113398E+02  0.12368390182E+03  0.80419002446E+02 0. -1.
<mgrwt>
<rscale>  0 0.94149911E+02</rscale>
<asrwt>0</asrwt>
<pdfrwt beam="1">  1        1 0.17712212E-01 0.94149911E+02</pdfrwt>
<pdfrwt beam="2">  1       -1 0.29205885E-01 0.94149911E+02</pdfrwt>
<totfact> 0.30281599E+03</totfact>
</mgrwt>
</event>
<event>
 4    1  0.4938540E-001  0.9438585E+02  0.7546771E-02  0.1292565E+00
         -2   -1    0    0    0  501 -0.00000000000E+00  0.00000000000E+00  0.39285331961E+02  0.39285331961E+02  0.00000000000E+00 0.  1.
          2   -1    0    0  501    0  0.00000000000E+00 -0.00000000000E+00 -0.52216770550E+03  0.52216770550E+03  0.00000000000E+00 0. -1.
         24    1    1    2    0    0  0.30553328762E+02  0.38832550859E+02 -0.45258718407E+03  0.46232439698E+03  0.80419002446E+02 0. -1.
        -24    1    1    2    0    0 -0.30553328762E+02 -0.38832550859E+02 -0.30295189472E+02  0.99128640484E+02  0.80419002446E+02 0.  1.
<mgrwt>
<rscale>  0 0.94385851E+02</rscale>
<asrwt>0</asrwt>
<pdfrwt beam="1">  1        2 0.80333489E-01 0.94385851E+02</pdfrwt>
<pdfrwt beam="2">  1       -2 0.60438975E-02 0.94385851E+02</pdfrwt>
<totfact> 0.80886700E+03</totfact>
</mgrwt>
</event>
<event>
 4    1  0.4938540E-001  0.8704948E+02  0.7546771E-02  0.1310158E+00
         -1   -1    0    0    0  501 -0.00000000000E+00  0.00000000000E+00  0.61012351783E+02  0.61012351783E+02  0.00000000000E+00 0.  1.
          1   -1    0    0  501    0  0.00000000000E+00 -0.00000000000E+00 -0.20723791686E+03  0.20723791686E+03  0.00000000000E+00 0. -1.
         24    1    1    2    0    0 -0.97927975646E+01 -0.31851172380E+02  0.11789431490E+02  0.87844195684E+02  0.80419002446E+02 0.  1.
        -24    1    1    2    0    0  0.97927975646E+01  0.31851172380E+02 -0.15801499657E+03  0.18040607296E+03  0.80419002446E+02 0.  0.
<mgrwt>
<rscale>  0 0.87049480E+02</rscale>
<asrwt>0</asrwt>
<pdfrwt beam="1">  1        1 0.31882756E-01 0.87049480E+02</pdfrwt>
<pdfrwt beam="2">  1       -1 0.93865157E-02 0.87049480E+02</pdfrwt>
<totfact> 0.85953825E+03</totfact>
</mgrwt>
</event>
<event>
 4    1  0.4938540E-001  0.1667826E+03  0.7546771E-02  0.1181245E+00
          2   -1    0    0  501    0  0.00000000000E+00  0.00000000000E+00  0.15100455957E+04  0.15100455957E+04  0.00000000000E+00 0. -1.
         -2   -1    0    0    0  501 -0.00000000000E+00 -0.00000000000E+00 -0.49889776148E+02  0.49889776148E+02  0.00000000000E+00 0.  1.
         24    1    1    2    0    0  0.13131342666E+03  0.64078152875E+02  0.13495350366E+04  0.13598019182E+04  0.80419002446E+02 0. -1.
        -24    1    1    2    0    0 -0.13131342666E+03 -0.64078152875E+02  0.11062078290E+03  0.20013345363E+03  0.80419002446E+02 0.  1.
<mgrwt>
<rscale>  0 0.16678262E+03</rscale>
<asrwt>0</asrwt>
<pdfrwt beam="1">  1        2 0.23231467E+00 0.16678262E+03</pdfrwt>
<pdfrwt beam="2">  1       -2 0.76753513E-02 0.16678262E+03</pdfrwt>
<totfact> 0.13696196E+03</totfact>
</mgrwt>
</event>
<event>
 4    1  0.4938540E-001  0.9112722E+02  0.7546771E-02  0.1300145E+00
          1   -1    0    0  501    0  0.00000000000E+00  0.00000000000E+00  0.11424211488E+04  0.11424211488E+04  0.00000000000E+00 0. -1.
         -1   -1    0    0    0  501 -0.00000000000E+00 -0.00000000000E+00 -0.23125449331E+02  0.23125449331E+02  0.00000000000E+00 0.  1.
         24    1    1    2    0    0  0.10686841199E+02  0.41505968741E+02  0.77079761807E+02  0.11935434492E+03  0.80419002446E+02 0.  1.
        -24    1    1    2    0    0 -0.10686841199E+02 -0.41505968741E+02  0.10422159376E+04  0.10461922532E+04  0.80419002446E+02 0. -1.
<mgrwt>
<rscale>  0 0.91127219E+02</rscale>
<asrwt>0</asrwt>
<pdfrwt beam="1">  1        1 0.17575706E+00 0.91127219E+02</pdfrwt>
<pdfrwt beam="2">  1       -1 0.35577623E-02 0.91127219E+02</pdfrwt>
<totfact> 0.35784264E+03</totfact>
</mgrwt>
</event>
<event>
 4    1  0.4938540E-001  0.8754803E+02  0.7546771E-02  0.1308901E+00
         -1   -1    0    0    0  501 -0.00000000000E+00  0.00000000000E+00  0.94239667420E+02  0.94239667420E+02  0.00000000000E+00 0.  1.
          1   -1    0    0  501    0  0.00000000000E+00 -0.00000000000E+00 -0.90641113758E+02  0.90641113758E+02  0.00000000000E+00 0. -1.
         24    1    1    2    0    0 -0.31330814041E+02 -0.14690900880E+02  0.31424645858E+02  0.93017024242E+02  0.80419002446E+02 0.  0.
        -24    1    1    2    0    0  0.31330814041E+02  0.14690900880E+02 -0.27826092196E+02  0.91863756936E+02  0.80419002446E+02 0.  1.
<mgrwt>
<rscale>  0 0.87548035E+02</rscale>
<asrwt>0</asrwt>
<pdfrwt beam="1">  1        1 0.13944787E-01 0.87548035E+02</pdfrwt>
<pdfrwt beam="2">  1       -1 0.14498410E-01 0.87548035E+02</pdfrwt>
<totfact> 0.12482572E+04</totfact>
</mgrwt>
</event>
<event>
 4    1  0.4938540E-001  0.8099698E+02  0.7546771E-02  0.1326246E+00
         -2   -1    0    0    0  501 -0.00000000000E+00  0.00000000000E+00  0.18159503518E+03  0.18159503518E+03  0.00000000000E+00 0.  1.
          2   -1    0    0  501    0  0.00000000000E+00 -0.00000000000E+00 -0.50804194845E+02  0.50804194845E+02  0.00000000000E+00 0. -1.
         24    1    1    2    0    0 -0.24904117401E+00  0.96556925868E+01  0.29394052163E+01  0.81050295979E+02  0.80419002446E+02 0.  0.
        -24    1    1    2    0    0  0.24904117401E+00 -0.96556925868E+01  0.12785143512E+03  0.15134893405E+03  0.80419002446E+02 0.  1.
<mgrwt>
<rscale>  0 0.80996978E+02</rscale>
<asrwt>0</asrwt>
<pdfrwt beam="1">  1        2 0.78160301E-02 0.80996978E+02</pdfrwt>
<pdfrwt beam="2">  1       -2 0.27937697E-01 0.80996978E+02</pdfrwt>
<totfact> 0.91196040E+03</totfact>
</mgrwt>
</event>
<event>
 4    1  0.4938540E-001  0.8051996E+02  0.7546771E-02  0.1327582E+00
          1   -1    0    0  501    0  0.00000000000E+00  0.00000000000E+00  0.15921408678E+03  0.15921408678E+03  0.00000000000E+00 0. -1.
         -1   -1    0    0    0  501 -0.00000000000E+00 -0.00000000000E+00 -0.43171957969E+02  0.43171957969E+02  0.00000000000E+00 0.  1.
         24    1    1    2    0    0  0.39767761272E+01  0.65768257248E+00  0.33913218956E+02  0.87370301986E+02  0.80419002446E+02 0.  1.
        -24    1    1    2    0    0 -0.39767761272E+01 -0.65768257248E+00  0.82128909851E+02  0.11501574276E+03  0.80419002446E+02 0.  0.
<mgrwt>
<rscale>  0 0.80519956E+02</rscale>
<asrwt>0</asrwt>
<pdfrwt beam="1">  1        1 0.24494475E-01 0.80519956E+02</pdfrwt>
<pdfrwt beam="2">  1       -1 0.66418398E-02 0.80519956E+02</pdfrwt>
<totfact> 0.19728397E+04</totfact>
</mgrwt>
</event>
<event>
 4    1  0.4938540E-001  0.8848403E+02  0.7546771E-02  0.1306565E+00
         -2   -1    0    0    0  501 -0.00000000000E+00  0.00000000000E+00  0.59245546647E+02  0.59245546647E+02  0.00000000000E+00 0.  1.
          2   -1    0    0  501    0  0.00000000000E+00 -0.00000000000E+00 -0.13215581345E+03  0.13215581345E+03  0.00000000000E+00 0. -1.
         24    1    1    2    0    0 -0.27454470089E+01 -0.36805841911E+02 -0.36962396904E+02  0.95893911263E+02  0.80419002446E+02 0. -1.
        -24    1    1    2    0    0  0.27454470089E+01  0.36805841911E+02 -0.35947869898E+02  0.95507448833E+02  0.80419002446E+02 0.  1.
<mgrwt>
<rscale>  0 0.88484029E+02</rscale>
<asrwt>0</asrwt>
<pdfrwt beam="1">  1        2 0.20331663E-01 0.88484029E+02</pdfrwt>
<pdfrwt beam="2">  1       -2 0.91146997E-02 0.88484029E+02</pdfrwt>
<totfact> 0.18624009E+04</totfact>
</mgrwt>
</event>
<event>
 4    1  0.4938540E-001  0.8097210E+02  0.7546771E-02  0.1326315E+00
          2   -1    0    0  501    0  0.00000000000E+00  0.00000000000E+00  0.15553618359E+03  0.15553618359E+03  0.00000000000E+00 0. -1.
         -2   -1    0    0    0  501 -0.00000000000E+00 -0.00000000000E+00 -0.42154501087E+02  0.42154501087E+02  0.00000000000E+00 0.  1.
         24    1    1    2    0    0 -0.26185677948E+01 -0.90779055312E+01  0.57011498775E+02  0.99029249281E+02  0.80419002446E+02 0.  1.
        -24    1    1    2    0    0  0.26185677948E+01  0.90779055312E+01  0.56370183724E+02  0.98661435392E+02  0.80419002446E+02 0. -1.
<mgrwt>
<rscale>  0 0.80972101E+02</rscale>
<asrwt>0</asrwt>
<pdfrwt beam="1">  1        2 0.23928643E-01 0.80972101E+02</pdfrwt>
<pdfrwt beam="2">  1       -2 0.64853079E-02 0.80972101E+02</pdfrwt>
<totfact> 0.25855836E+04</totfact>
</mgrwt>
</event>
<event>
 4    1  0.4938540E-001  0.8067084E+02  0.7546771E-02  0.1327158E+00
         -2   -1    0    0    0  501 -0.00000000000E+00  0.00000000000E+00  0.10489050108E+03  0.10489050108E+03  0.00000000000E+00 0.  1.
          2   -1    0    0  501    0  0.00000000000E+00 -0.00000000000E+00 -0.70697350498E+02  0.70697350498E+02  0.00000000000E+00 0. -1.
         24    1    1    2    0    0 -0.53217112629E+01 -0.34992914032E+01  0.47812650897E+02  0.93775429571E+02  0.80419002446E+02 0.  0.
        -24    1    1    2    0    0  0.53217112629E+01  0.34992914032E+01 -0.13619500317E+02  0.81812422005E+02  0.80419002446E+02 0. -1.
<mgrwt>
<rscale>  0 0.80670833E+02</rscale>
<asrwt>0</asrwt>
<pdfrwt beam="1">  1        2 0.10876515E-01 0.80670843E+02</pdfrwt>
<pdfrwt beam="2">  1       -2 0.16137000E-01 0.80670843E+02</pdfrwt>
<totfact> 0.15386845E+04</totfact>
</mgrwt>
</event>
<event>
 4    1  0.4938540E-001  0.8186424E+02  0.7546771E-02  0.1323843E+00
         -1   -1    0    0    0  501 -0.00000000000E+00  0.00000000000E+00  0.18370248951E+02  0.18370248951E+02  0.00000000000E+00 0.  1.
          1   -1    0    0  501    0  0.00000000000E+00 -0.00000000000E+00 -0.10443785146E+04  0.10443785146E+04  0.00000000000E+00 0. -1.
         24    1    1    2    0    0  0.14599080518E+02  0.46265208481E+01 -0.84370271675E+02  0.11755890670E+03  0.80419002446E+02 0.  1.
        -24    1    1    2    0    0 -0.14599080518E+02 -0.46265208481E+01 -0.94163799400E+03  0.94518985688E+03  0.80419002446E+02 0. -1.
<mgrwt>
<rscale>  0 0.81864240E+02</rscale>
<asrwt>0</asrwt>
<pdfrwt beam="1">  1        1 0.16067361E+00 0.81864240E+02</pdfrwt>
<pdfrwt beam="2">  1       -1 0.28261922E-02 0.81864240E+02</pdfrwt>
<totfact> 0.58020418E+03</totfact>
</mgrwt>
</event>
<event>
 4    1  0.4938540E-001  0.9895226E+02  0.7546771E-02  0.1282515E+00
         -2   -1    0    0    0  501 -0.00000000000E+00  0.00000000000E+00  0.49011358496E+01  0.49011358496E+01  0.00000000000E+00 0.  1.
          2   -1    0    0  501    0  0.00000000000E+00 -0.00000000000E+00 -0.30026348320E+04  0.30026348320E+04  0.00000000000E+00 0. -1.
         24    1    1    2    0    0  0.39399229909E+02  0.42095548488E+02 -0.23687766290E+04  0.23708425230E+04  0.80419002446E+02 0. -1.
        -24    1    1    2    0    0 -0.39399229909E+02 -0.42095548488E+02 -0.62895706710E+03  0.63669344486E+03  0.80419002446E+02 0.  1.
<mgrwt>
<rscale>  0 0.98952264E+02</rscale>
<asrwt>0</asrwt>
<pdfrwt beam="1">  1        2 0.46194423E+00 0.98952264E+02</pdfrwt>
<pdfrwt beam="2">  1       -2 0.75402023E-03 0.98952264E+02</pdfrwt>
<totfact> 0.66733311E+03</totfact>
</mgrwt>
</event>
<event>
 4    1  0.4938540E-001  0.8079969E+02  0.7546771E-02  0.1326797E+00
         -1   -1    0    0    0  501 -0.00000000000E+00  0.00000000000E+00  0.43569824727E+01  0.43569824727E+01  0.00000000000E+00 0.  1.
          1   -1    0    0  501    0  0.00000000000E+00 -0.00000000000E+00 -0.15308517195E+04  0.15308517195E+04  0.00000000000E+00 0. -1.
         24    1    1    2    0    0 -0.76799582386E+01  0.15467151660E+01 -0.65152110040E+03  0.65651224993E+03  0.80419002446E+02 0.  1.
        -24    1    1    2    0    0  0.76799582386E+01 -0.15467151660E+01 -0.87497363661E+03  0.87869645202E+03  0.80419002446E+02 0.  0.
<mgrwt>
<rscale>  0 0.80799691E+02</rscale>
<asrwt>0</asrwt>
<pdfrwt beam="1">  1        1 0.23551551E+00 0.80799691E+02</pdfrwt>
<pdfrwt beam="2">  1       -1 0.67030539E-03 0.80799691E+02</pdfrwt>
<totfact> 0.21161408E+04</totfact>
</mgrwt>
</event>
<event>
 4    1  0.4938540E-001  0.1258715E+03  0.7546771E-02  0.1233713E+00
         -2   -1    0    0    0  501 -0.00000000000E+00  0.00000000000E+00  0.10664817627E+03  0.10664817627E+03  0.00000000000E+00 0.  1.
          2   -1    0    0  501    0  0.00000000000E+00 -0.00000000000E+00 -0.27476250148E+03  0.27476250148E+03  0.00000000000E+00 0. -1.
         24    1    1    2    0    0  0.90841310474E+02 -0.33530354964E+02 -0.21330349944E+03  0.24767322669E+03  0.80419002446E+02 0. -1.
        -24    1    1    2    0    0 -0.90841310474E+02  0.33530354964E+02  0.45189174234E+02  0.13373745106E+03  0.80419002446E+02 0.  1.
<mgrwt>
<rscale>  0 0.12587154E+03</rscale>
<asrwt>0</asrwt>
<pdfrwt beam="1">  1        2 0.42271153E-01 0.12587154E+03</pdfrwt>
<pdfrwt beam="2">  1       -2 0.16407412E-01 0.12587154E+03</pdfrwt>
<totfact> 0.34089598E+03</totfact>
</mgrwt>
</event>
