<event>
 4    2  0.3855935E-007  0.9702042E+03  0.7818608E-02  0.9421622E-01
          2   -1    0    0  501    0  0.00000000000E+00  0.00000000000E+00  0.82888003373E+03  0.82888003373E+03  0.25500000000E-02 0. -1.
         -2   -1    0    0    0  501 -0.00000000000E+00 -0.00000000000E+00 -0.18857338701E+04  0.18857338701E+04  0.25500000000E-02 0.  1.
    8880023    1    1    2    0    0  0.51056084327E+03 -0.49680331203E+03 -0.15543937533E+04  0.18323307704E+04  0.65864270000E+03 0.  1.
    8880022    1    1    2    0    0 -0.51056084327E+03  0.49680331203E+03  0.49753991697E+03  0.88228313342E+03  0.15294330000E+03 0.  0.
<mgrwt>
<rscale>  0 0.90317445E+03</rscale>
<asrwt>0</asrwt>
<pdfrwt beam="1">  1        2 0.12752001E+00 0.97020416E+03</pdfrwt>
<pdfrwt beam="2">  1       -2 0.29011290E+00 0.97020416E+03</pdfrwt>
<totfact> 0.12081571E+00</totfact>
</mgrwt>
</event>
<event>
 4    2  0.3855935E-007  0.8488919E+03  0.7818608E-02  0.9613636E-01
          2   -1    0    0  501    0  0.00000000000E+00  0.00000000000E+00  0.22440178794E+04  0.22440178794E+04  0.25500000000E-02 0. -1.
         -2   -1    0    0    0  501 -0.00000000000E+00 -0.00000000000E+00 -0.72545616720E+03  0.72545616720E+03  0.25500000000E-02 0.  1.
    8880023    1    1    2    0    0  0.46875148230E+03 -0.25899666470E+03 -0.42382645502E+03  0.94881309789E+03  0.65864270000E+03 0.  1.
    8880022    1    1    2    0    0 -0.46875148230E+03  0.25899666470E+03  0.19423881672E+04  0.20206609487E+04  0.15294330000E+03 0.  0.
<mgrwt>
<rscale>  0 0.76400168E+03</rscale>
<asrwt>0</asrwt>
<pdfrwt beam="1">  1        2 0.34523352E+00 0.84889188E+03</pdfrwt>
<pdfrwt beam="2">  1       -2 0.11160864E+00 0.84889188E+03</pdfrwt>
<totfact> 0.31722144E+00</totfact>
</mgrwt>
</event>
<event>
 4    2  0.3855935E-007  0.6930938E+03  0.7818608E-02  0.1002715E+00
         -2   -1    0    0    0  501 -0.00000000000E+00  0.00000000000E+00  0.57917406910E+03  0.57917406910E+03  0.25500000000E-02 0.  1.
          2   -1    0    0  501    0  0.00000000000E+00 -0.00000000000E+00 -0.15436586137E+04  0.15436586137E+04  0.25500000000E-02 0. -1.
    8880023    1    1    2    0    0 -0.17629396250E+03  0.12445579663E+03  0.35387116500E+03  0.77820550898E+03  0.65864270000E+03 0.  0.
    8880022    1    1    2    0    0  0.17629396250E+03 -0.12445579663E+03 -0.13183557096E+04  0.13446271738E+04  0.15294330000E+03 0. -1.
<mgrwt>
<rscale>  0 0.54475420E+03</rscale>
<asrwt>0</asrwt>
<pdfrwt beam="1">  1        2 0.23748594E+00 0.69309380E+03</pdfrwt>
<pdfrwt beam="2">  1       -2 0.89103704E-01 0.69309380E+03</pdfrwt>
<totfact> 0.13403008E+01</totfact>
</mgrwt>
</event>
<event>
 4    2  0.3855935E-007  0.8213374E+03  0.7818608E-02  0.9666428E-01
          2   -1    0    0  501    0  0.00000000000E+00  0.00000000000E+00  0.20065407438E+04  0.20065407438E+04  0.25500000000E-02 0. -1.
         -2   -1    0    0    0  501 -0.00000000000E+00 -0.00000000000E+00 -0.64404090641E+03  0.64404090641E+03  0.25500000000E-02 0.  1.
    8880023    1    1    2    0    0 -0.12330028637E+03  0.47495465666E+03 -0.32744557436E+03  0.88420342509E+03  0.65864270000E+03 0.  1.
    8880022    1    1    2    0    0  0.12330028637E+03 -0.47495465666E+03  0.16899454117E+04  0.17663782251E+04  0.15294330000E+03 0.  0.
<mgrwt>
<rscale>  0 0.73051304E+03</rscale>
<asrwt>0</asrwt>
<pdfrwt beam="1">  1        2 0.30869857E+00 0.82133738E+03</pdfrwt>
<pdfrwt beam="2">  1       -2 0.99083218E-01 0.82133738E+03</pdfrwt>
<totfact> 0.57316029E+00</totfact>
</mgrwt>
</event>
<event>
 4    2  0.3855935E-007  0.8385204E+03  0.7818608E-02  0.9632977E-01
          2   -1    0    0  501    0  0.00000000000E+00  0.00000000000E+00  0.21489128866E+04  0.21489128866E+04  0.25500000000E-02 0. -1.
         -2   -1    0    0    0  501 -0.00000000000E+00 -0.00000000000E+00 -0.81375564982E+03  0.81375564983E+03  0.25500000000E-02 0.  1.
    8880023    1    1    2    0    0 -0.12113926394E+03  0.50461020660E+03 -0.54907951114E+03  0.10022997045E+04  0.65864270000E+03 0.  1.
    8880022    1    1    2    0    0  0.12113926394E+03 -0.50461020660E+03  0.18842367479E+04  0.19603688319E+04  0.15294330000E+03 0.  0.
<mgrwt>
<rscale>  0 0.75151499E+03</rscale>
<asrwt>0</asrwt>
<pdfrwt beam="1">  1        2 0.33060198E+00 0.83852036E+03</pdfrwt>
<pdfrwt beam="2">  1       -2 0.12519318E+00 0.83852036E+03</pdfrwt>
<totfact> 0.27005393E+00</totfact>
</mgrwt>
</event>
<event>
 4    2  0.3855935E-007  0.9714262E+03  0.7818608E-02  0.9419934E-01
         -2   -1    0    0    0  501 -0.00000000000E+00  0.00000000000E+00  0.13376802603E+04  0.13376802603E+04  0.25500000000E-02 0.  1.
          2   -1    0    0  501    0  0.00000000000E+00 -0.00000000000E+00 -0.60700155958E+03  0.60700155959E+03  0.25500000000E-02 0. -1.
    8880023    1    1    2    0    0 -0.63384653386E+03 -0.32878145274E+03  0.72883098034E+03  0.12144395729E+04  0.65864270000E+03 0.  0.
    8880022    1    1    2    0    0  0.63384653386E+03  0.32878145274E+03  0.18477203922E+01  0.73024224696E+03  0.15294330000E+03 0.  0.
<mgrwt>
<rscale>  0 0.90453162E+03</rscale>
<asrwt>0</asrwt>
<pdfrwt beam="1">  1        2 0.93384857E-01 0.97142621E+03</pdfrwt>
<pdfrwt beam="2">  1       -2 0.20579696E+00 0.97142621E+03</pdfrwt>
<totfact> 0.59449674E+00</totfact>
</mgrwt>
</event>
<event>
 4    2  0.3855935E-007  0.9440295E+03  0.7818608E-02  0.9458757E-01
          2   -1    0    0  501    0  0.00000000000E+00  0.00000000000E+00  0.14555204165E+04  0.14555204165E+04  0.25500000000E-02 0. -1.
         -2   -1    0    0    0  501 -0.00000000000E+00 -0.00000000000E+00 -0.69456716828E+03  0.69456716828E+03  0.25500000000E-02 0.  1.
    8880023    1    1    2    0    0 -0.61120610949E+03 -0.28949706408E+03 -0.20011157165E+03  0.96500585789E+03  0.65864270000E+03 0.  0.
    8880022    1    1    2    0    0  0.61120610949E+03  0.28949706408E+03  0.96106481987E+03  0.11850817269E+04  0.15294330000E+03 0.  0.
<mgrwt>
<rscale>  0 0.87394015E+03</rscale>
<asrwt>0</asrwt>
<pdfrwt beam="1">  1        2 0.22392622E+00 0.94402948E+03</pdfrwt>
<pdfrwt beam="2">  1       -2 0.10685649E+00 0.94402948E+03</pdfrwt>
<totfact> 0.94845241E+00</totfact>
</mgrwt>
</event>
<event>
 4    2  0.3855935E-007  0.9787845E+03  0.7818608E-02  0.9409856E-01
         -2   -1    0    0    0  501 -0.00000000000E+00  0.00000000000E+00  0.52104121706E+03  0.52104121707E+03  0.25500000000E-02 0.  1.
          2   -1    0    0  501    0  0.00000000000E+00 -0.00000000000E+00 -0.25456894394E+04  0.25456894394E+04  0.25500000000E-02 0. -1.
    8880023    1    1    2    0    0 -0.15825694701E+03  0.70651516745E+03 -0.75330538953E+02  0.98167909190E+03  0.65864270000E+03 0.  0.
    8880022    1    1    2    0    0  0.15825694701E+03 -0.70651516745E+03 -0.19493176834E+04  0.20850515646E+04  0.15294330000E+03 0.  0.
<mgrwt>
<rscale>  0 0.91269004E+03</rscale>
<asrwt>0</asrwt>
<pdfrwt beam="1">  1        2 0.39164452E+00 0.97878453E+03</pdfrwt>
<pdfrwt beam="2">  1       -2 0.80160188E-01 0.97878453E+03</pdfrwt>
<totfact> 0.45693417E+00</totfact>
</mgrwt>
</event>
<event>
 4    2  0.3855935E-007  0.7377277E+03  0.7818608E-02  0.9866616E-01
         -2   -1    0    0    0  501 -0.00000000000E+00  0.00000000000E+00  0.21804679423E+03  0.21804679424E+03  0.25500000000E-02 0.  1.
          2   -1    0    0  501    0  0.00000000000E+00 -0.00000000000E+00 -0.21792915116E+04  0.21792915116E+04  0.25500000000E-02 0. -1.
    8880023    1    1    2    0    0 -0.13046284079E+03  0.30563286173E+03 -0.50049955370E+03  0.89148303883E+03  0.65864270000E+03 0.  1.
    8880022    1    1    2    0    0  0.13046284079E+03 -0.30563286173E+03 -0.14607451637E+04  0.15058552670E+04  0.15294330000E+03 0.  0.
<mgrwt>
<rscale>  0 0.61906848E+03</rscale>
<asrwt>0</asrwt>
<pdfrwt beam="1">  1        2 0.33527560E+00 0.73772773E+03</pdfrwt>
<pdfrwt beam="2">  1       -2 0.33545662E-01 0.73772773E+03</pdfrwt>
<totfact> 0.45625037E+01</totfact>
</mgrwt>
</event>
<event>
 4    2  0.3855935E-007  0.7143449E+03  0.7818608E-02  0.9942207E-01
         -2   -1    0    0    0  501 -0.00000000000E+00  0.00000000000E+00  0.84252882784E+03  0.84252882784E+03  0.25500000000E-02 0.  1.
          2   -1    0    0  501    0  0.00000000000E+00 -0.00000000000E+00 -0.56319453648E+03  0.56319453649E+03  0.25500000000E-02 0. -1.
    8880023    1    1    2    0    0  0.24851631571E+03  0.12131781677E+03  0.61651339643E+03  0.94359808504E+03  0.65864270000E+03 0.  1.
    8880022    1    1    2    0    0 -0.24851631571E+03 -0.12131781677E+03 -0.33717910508E+03  0.46212527929E+03  0.15294330000E+03 0.  0.
<mgrwt>
<rscale>  0 0.58258639E+03</rscale>
<asrwt>0</asrwt>
<pdfrwt beam="1">  1        2 0.86645314E-01 0.71434486E+03</pdfrwt>
<pdfrwt beam="2">  1       -2 0.12961982E+00 0.71434486E+03</pdfrwt>
<totfact> 0.23794994E+01</totfact>
</mgrwt>
</event>
<event>
 4    2  0.4381549E-007  0.1033587E+04  0.7818608E-02  0.9338878E-01
         -2   -1    0    0    0  501 -0.00000000000E+00  0.00000000000E+00  0.12813558218E+04  0.12813558218E+04  0.25500000000E-02 0.  1.
          2   -1    0    0  501    0  0.00000000000E+00 -0.00000000000E+00 -0.19964473254E+04  0.19964473254E+04  0.25500000000E-02 0. -1.
    8880023    1    1    2    0    0 -0.66573034592E+03 -0.43737194287E+03  0.96381409558E+03  0.14132370385E+04  0.65864270000E+03 0.  0.
    8880022    1    1    2    0    0  0.66573034592E+03  0.43737194287E+03 -0.16789055991E+04  0.18645661087E+04  0.15294330000E+03 0.  0.
<mgrwt>
<rscale>  0 0.97281156E+03</rscale>
<asrwt>0</asrwt>
<pdfrwt beam="1">  1        2 0.30714574E+00 0.10335866E+04</pdfrwt>
<pdfrwt beam="2">  1       -2 0.19713166E+00 0.10335866E+04</pdfrwt>
<totfact> 0.92623699E-01</totfact>
</mgrwt>
</event>
<event>
 4    2  0.3855935E-007  0.7247319E+03  0.7818608E-02  0.9906888E-01
          2   -1    0    0  501    0  0.00000000000E+00  0.00000000000E+00  0.68860085198E+03  0.68860085199E+03  0.25500000000E-02 0. -1.
         -2   -1    0    0    0  501 -0.00000000000E+00 -0.00000000000E+00 -0.50986651898E+03  0.50986651899E+03  0.25500000000E-02 0.  1.
    8880023    1    1    2    0    0  0.27663761148E+02  0.30109946328E+03 -0.13439918617E+03  0.73708854148E+03  0.65864270000E+03 0.  1.
    8880022    1    1    2    0    0 -0.27663761148E+02 -0.30109946328E+03  0.31313351917E+03  0.46137882950E+03  0.15294330000E+03 0.  0.
<mgrwt>
<rscale>  0 0.59928611E+03</rscale>
<asrwt>0</asrwt>
<pdfrwt beam="1">  1        2 0.10593859E+00 0.72473193E+03</pdfrwt>
<pdfrwt beam="2">  1       -2 0.78441004E-01 0.72473193E+03</pdfrwt>
<totfact> 0.61313817E+01</totfact>
</mgrwt>
</event>
<event>
 4    2  0.3855935E-007  0.7231824E+03  0.7818608E-02  0.9911961E-01
         -2   -1    0    0    0  501 -0.00000000000E+00  0.00000000000E+00  0.74102172131E+03  0.74102172132E+03  0.25500000000E-02 0.  1.
          2   -1    0    0  501    0  0.00000000000E+00 -0.00000000000E+00 -0.20435481746E+04  0.20435481746E+04  0.25500000000E-02 0. -1.
    8880023    1    1    2    0    0  0.19439813627E+03 -0.22669799995E+03  0.54580452614E+03  0.90603278394E+03  0.65864270000E+03 0.  0.
    8880022    1    1    2    0    0 -0.19439813627E+03  0.22669799995E+03 -0.18483309794E+04  0.18785371120E+04  0.15294330000E+03 0.  0.
<mgrwt>
<rscale>  0 0.59685082E+03</rscale>
<asrwt>0</asrwt>
<pdfrwt beam="1">  1        2 0.31439202E+00 0.72318243E+03</pdfrwt>
<pdfrwt beam="2">  1       -2 0.11400334E+00 0.72318243E+03</pdfrwt>
<totfact> 0.39663656E+00</totfact>
</mgrwt>
</event>
<event>
 4    2  0.3855935E-007  0.1159229E+04  0.7818608E-02  0.9197811E-01
         -2   -1    0    0    0  501 -0.00000000000E+00  0.00000000000E+00  0.60785890317E+03  0.60785890318E+03  0.25500000000E-02 0.  1.
          2   -1    0    0  501    0  0.00000000000E+00 -0.00000000000E+00 -0.18624164993E+04  0.18624164993E+04  0.25500000000E-02 0. -1.
    8880023    1    1    2    0    0 -0.83759327782E+03 -0.45655189919E+03 -0.62289400641E+03  0.13159822511E+04  0.65864270000E+03 0. -1.
    8880022    1    1    2    0    0  0.83759327782E+03  0.45655189919E+03 -0.63166358968E+03  0.11542931514E+04  0.15294330000E+03 0.  1.
<mgrwt>
<rscale>  0 0.11076055E+04</rscale>
<asrwt>0</asrwt>
<pdfrwt beam="1">  1        2 0.28652561E+00 0.11592292E+04</pdfrwt>
<pdfrwt beam="2">  1       -2 0.93516755E-01 0.11592292E+04</pdfrwt>
<totfact> 0.75719427E+00</totfact>
</mgrwt>
</event>
<event>
 4    2  0.7146272E-007  0.8236251E+03  0.7818608E-02  0.9661866E-01
          2   -1    0    0  501    0  0.00000000000E+00  0.00000000000E+00  0.30997629163E+04  0.30997629163E+04  0.25500000000E-02 0. -1.
         -2   -1    0    0    0  501 -0.00000000000E+00 -0.00000000000E+00 -0.10716841729E+04  0.10716841729E+04  0.25500000000E-02 0.  1.
    8880023    1    1    2    0    0 -0.44892014494E+03  0.20740956784E+03 -0.88719976079E+03  0.12105707940E+04  0.65864270000E+03 0.  1.
    8880022    1    1    2    0    0  0.44892014494E+03 -0.20740956784E+03  0.29152785042E+04  0.29608762952E+04  0.15294330000E+03 0.  0.
<mgrwt>
<rscale>  0 0.73333395E+03</rscale>
<asrwt>0</asrwt>
<pdfrwt beam="1">  1        2 0.47688659E+00 0.82362506E+03</pdfrwt>
<pdfrwt beam="2">  1       -2 0.16487449E+00 0.82362506E+03</pdfrwt>
<totfact> 0.36896184E-01</totfact>
</mgrwt>
</event>
<event>
 4    2  0.3855935E-007  0.7974068E+03  0.7818608E-02  0.9716431E-01
          2   -1    0    0  501    0  0.00000000000E+00  0.00000000000E+00  0.89679843606E+03  0.89679843606E+03  0.25500000000E-02 0. -1.
         -2   -1    0    0    0  501 -0.00000000000E+00 -0.00000000000E+00 -0.85371487779E+03  0.85371487779E+03  0.25500000000E-02 0.  1.
    8880023    1    1    2    0    0  0.33325845181E+01 -0.44948452346E+03 -0.56626906945E+03  0.97801753984E+03  0.65864270000E+03 0.  1.
    8880022    1    1    2    0    0 -0.33325845181E+01  0.44948452346E+03  0.60935262771E+03  0.77249577401E+03  0.15294330000E+03 0.  0.
<mgrwt>
<rscale>  0 0.70046851E+03</rscale>
<asrwt>0</asrwt>
<pdfrwt beam="1">  1        2 0.13796899E+00 0.79740683E+03</pdfrwt>
<pdfrwt beam="2">  1       -2 0.13134075E+00 0.79740683E+03</pdfrwt>
<totfact> 0.12606257E+01</totfact>
</mgrwt>
</event>
<event>
 4    2  0.3855935E-007  0.6748782E+03  0.7818608E-02  0.1012383E+00
         -2   -1    0    0    0  501 -0.00000000000E+00  0.00000000000E+00  0.11955306731E+03  0.11955306734E+03  0.25500000000E-02 0.  1.
          2   -1    0    0  501    0  0.00000000000E+00 -0.00000000000E+00 -0.22850449008E+04  0.22850449008E+04  0.25500000000E-02 0. -1.
    8880023    1    1    2    0    0  0.12335567491E+03  0.80210457563E+02 -0.91909548055E+03  0.11402618334E+04  0.65864270000E+03 0.  1.
    8880022    1    1    2    0    0 -0.12335567491E+03 -0.80210457563E+02 -0.12463963529E+04  0.12643361348E+04  0.15294330000E+03 0.  0.
<mgrwt>
<rscale>  0 0.50538371E+03</rscale>
<asrwt>0</asrwt>
<pdfrwt beam="1">  1        2 0.35154534E+00 0.67487817E+03</pdfrwt>
<pdfrwt beam="2">  1       -2 0.18392781E-01 0.67487817E+03</pdfrwt>
<totfact> 0.11887823E+02</totfact>
</mgrwt>
</event>
<event>
 4    2  0.3855935E-007  0.8744585E+03  0.7818608E-02  0.9568345E-01
         -2   -1    0    0    0  501 -0.00000000000E+00  0.00000000000E+00  0.23512197935E+03  0.23512197937E+03  0.25500000000E-02 0.  1.
          2   -1    0    0  501    0  0.00000000000E+00 -0.00000000000E+00 -0.26725025915E+04  0.26725025915E+04  0.25500000000E-02 0. -1.
    8880023    1    1    2    0    0  0.57507752821E+03  0.12383771114E+02 -0.88094610252E+03  0.12412669991E+04  0.65864270000E+03 0.  1.
    8880022    1    1    2    0    0 -0.57507752821E+03 -0.12383771114E+02 -0.15564345096E+04  0.16663575717E+04  0.15294330000E+03 0.  0.
<mgrwt>
<rscale>  0 0.79427255E+03</rscale>
<asrwt>0</asrwt>
<pdfrwt beam="1">  1        2 0.41115422E+00 0.87445853E+03</pdfrwt>
<pdfrwt beam="2">  1       -2 0.36172614E-01 0.87445853E+03</pdfrwt>
<totfact> 0.20446517E+01</totfact>
</mgrwt>
</event>
<event>
 4    2  0.3855935E-007  0.9848068E+03  0.7818608E-02  0.9401710E-01
          2   -1    0    0  501    0  0.00000000000E+00  0.00000000000E+00  0.42560129904E+03  0.42560129905E+03  0.25500000000E-02 0. -1.
         -2   -1    0    0    0  501 -0.00000000000E+00 -0.00000000000E+00 -0.35530897163E+04  0.35530897163E+04  0.25500000000E-02 0.  1.
    8880023    1    1    2    0    0 -0.49264101426E+03  0.54160792326E+03 -0.30750613647E+04  0.32289080065E+04  0.65864270000E+03 0.  0.
    8880022    1    1    2    0    0  0.49264101426E+03 -0.54160792326E+03 -0.52427052530E+02  0.74978300882E+03  0.15294330000E+03 0.  0.
<mgrwt>
<rscale>  0 0.91935051E+03</rscale>
<asrwt>0</asrwt>
<pdfrwt beam="1">  1        2 0.65477125E-01 0.98480684E+03</pdfrwt>
<pdfrwt beam="2">  1       -2 0.54662917E+00 0.98480684E+03</pdfrwt>
<totfact> 0.65873057E-02</totfact>
</mgrwt>
</event>
<event>
 4    2  0.5533093E-007  0.8909055E+03  0.7818608E-02  0.9540792E-01
          2   -1    0    0  501    0  0.00000000000E+00  0.00000000000E+00  0.14204066600E+04  0.14204066600E+04  0.25500000000E-02 0. -1.
         -2   -1    0    0    0  501 -0.00000000000E+00 -0.00000000000E+00 -0.19200102766E+04  0.19200102766E+04  0.25500000000E-02 0.  1.
    8880023    1    1    2    0    0 -0.51999758076E+03  0.29917368129E+03 -0.17395973142E+04  0.19544593620E+04  0.65864270000E+03 0.  0.
    8880022    1    1    2    0    0  0.51999758076E+03 -0.29917368129E+03  0.12399936976E+04  0.13859575746E+04  0.15294330000E+03 0.  0.
<mgrwt>
<rscale>  0 0.81342072E+03</rscale>
<asrwt>0</asrwt>
<pdfrwt beam="1">  1        2 0.21852410E+00 0.89090548E+03</pdfrwt>
<pdfrwt beam="2">  1       -2 0.29538620E+00 0.89090548E+03</pdfrwt>
<totfact> 0.48876865E-01</totfact>
</mgrwt>
</event>
<event>
 4    2  0.3855935E-007  0.7055508E+03  0.7818608E-02  0.9974909E-01
          2   -1    0    0  501    0  0.00000000000E+00  0.00000000000E+00  0.17530326625E+04  0.17530326625E+04  0.25500000000E-02 0. -1.
         -2   -1    0    0    0  501 -0.00000000000E+00 -0.00000000000E+00 -0.17139385543E+03  0.17139385545E+03  0.25500000000E-02 0.  1.
    8880023    1    1    2    0    0  0.25232839886E+03 -0.17947962449E+02  0.69727084060E+03  0.99196198598E+03  0.65864270000E+03 0.  0.
    8880022    1    1    2    0    0 -0.25232839886E+03  0.17947962449E+02  0.88436796647E+03  0.93246453196E+03  0.15294330000E+03 0.  0.
<mgrwt>
<rscale>  0 0.56764242E+03</rscale>
<asrwt>0</asrwt>
<pdfrwt beam="1">  1        2 0.26969731E+00 0.70555082E+03</pdfrwt>
<pdfrwt beam="2">  1       -2 0.26368287E-01 0.70555082E+03</pdfrwt>
<totfact> 0.12221311E+02</totfact>
</mgrwt>
</event>
<event>
 4    2  0.3855935E-007  0.8834484E+03  0.7818608E-02  0.9553142E-01
         -2   -1    0    0    0  501 -0.00000000000E+00  0.00000000000E+00  0.10181254236E+04  0.10181254236E+04  0.25500000000E-02 0.  1.
          2   -1    0    0  501    0  0.00000000000E+00 -0.00000000000E+00 -0.71906988947E+03  0.71906988948E+03  0.25500000000E-02 0. -1.
    8880023    1    1    2    0    0  0.50405710808E+03 -0.30429812761E+03  0.59053225643E+03  0.10626426826E+04  0.65864270000E+03 0.  0.
    8880022    1    1    2    0    0 -0.50405710808E+03  0.30429812761E+03 -0.29147672230E+03  0.67455263051E+03  0.15294330000E+03 0.  0.
<mgrwt>
<rscale>  0 0.80476725E+03</rscale>
<asrwt>0</asrwt>
<pdfrwt beam="1">  1        2 0.11062614E+00 0.88344843E+03</pdfrwt>
<pdfrwt beam="2">  1       -2 0.15663468E+00 0.88344843E+03</pdfrwt>
<totfact> 0.10591423E+01</totfact>
</mgrwt>
</event>
<event>
 4    2  0.3855935E-007  0.6605851E+03  0.7818608E-02  0.1023565E+00
         -2   -1    0    0    0  501 -0.00000000000E+00  0.00000000000E+00  0.29726653085E+03  0.29726653086E+03  0.25500000000E-02 0.  1.
          2   -1    0    0  501    0  0.00000000000E+00 -0.00000000000E+00 -0.19825415809E+04  0.19825415809E+04  0.25500000000E-02 0. -1.
    8880023    1    1    2    0    0 -0.50535384359E+02  0.29441650161E+01 -0.78792221607E+02  0.66526755041E+03  0.65864270000E+03 0.  1.
    8880022    1    1    2    0    0  0.50535384359E+02 -0.29441650161E+01 -0.16064828284E+04  0.16145405614E+04  0.15294330000E+03 0.  0.
<mgrwt>
<rscale>  0 0.46421849E+03</rscale>
<asrwt>0</asrwt>
<pdfrwt beam="1">  1        2 0.30500639E+00 0.66058512E+03</pdfrwt>
<pdfrwt beam="2">  1       -2 0.45733314E-01 0.66058512E+03</pdfrwt>
<totfact> 0.32359576E+01</totfact>
</mgrwt>
</event>
<event>
 4    2  0.3855935E-007  0.6836109E+03  0.7818608E-02  0.1007351E+00
          2   -1    0    0  501    0  0.00000000000E+00  0.00000000000E+00  0.19164301101E+04  0.19164301101E+04  0.25500000000E-02 0. -1.
         -2   -1    0    0    0  501 -0.00000000000E+00 -0.00000000000E+00 -0.21721319702E+03  0.21721319704E+03  0.25500000000E-02 0.  1.
    8880023    1    1    2    0    0 -0.15297646160E+03  0.10055767685E+03  0.35857864654E+03  0.77194721076E+03  0.65864270000E+03 0.  1.
    8880022    1    1    2    0    0  0.15297646160E+03 -0.10055767685E+03  0.13406382666E+04  0.13616960964E+04  0.15294330000E+03 0.  0.
<mgrwt>
<rscale>  0 0.52541300E+03</rscale>
<asrwt>0</asrwt>
<pdfrwt beam="1">  1        2 0.29483541E+00 0.68361089E+03</pdfrwt>
<pdfrwt beam="2">  1       -2 0.33417414E-01 0.68361089E+03</pdfrwt>
<totfact> 0.64397011E+01</totfact>
</mgrwt>
</event>
<event>
 4    2  0.3855935E-007  0.8617019E+03  0.7818608E-02  0.9590543E-01
         -2   -1    0    0    0  501 -0.00000000000E+00  0.00000000000E+00  0.67821636390E+03  0.67821636390E+03  0.25500000000E-02 0.  1.
          2   -1    0    0  501    0  0.00000000000E+00 -0.00000000000E+00 -0.41040340886E+04  0.41040340886E+04  0.25500000000E-02 0. -1.
    8880023    1    1    2    0    0 -0.53359344174E+03  0.15491266085E+03  0.37372269690E+03  0.93925436065E+03  0.65864270000E+03 0.  0.
    8880022    1    1    2    0    0  0.53359344174E+03 -0.15491266085E+03 -0.37995404216E+04  0.38429960918E+04  0.15294330000E+03 0.  0.
<mgrwt>
<rscale>  0 0.77925262E+03</rscale>
<asrwt>0</asrwt>
<pdfrwt beam="1">  1        2 0.63138985E+00 0.86170186E+03</pdfrwt>
<pdfrwt beam="2">  1       -2 0.10434098E+00 0.86170186E+03</pdfrwt>
<totfact> 0.22799368E-01</totfact>
</mgrwt>
</event>
<event>
 4    2  0.3855935E-007  0.8574436E+03  0.7818608E-02  0.9598127E-01
          2   -1    0    0  501    0  0.00000000000E+00  0.00000000000E+00  0.92616738957E+03  0.92616738957E+03  0.25500000000E-02 0. -1.
         -2   -1    0    0    0  501 -0.00000000000E+00 -0.00000000000E+00 -0.89005659036E+03  0.89005659036E+03  0.25500000000E-02 0.  1.
    8880023    1    1    2    0    0  0.45247950099E+03 -0.31090455103E+03 -0.53398386569E+03  0.10101229201E+04  0.65864270000E+03 0.  0.
    8880022    1    1    2    0    0 -0.45247950099E+03  0.31090455103E+03  0.57009466490E+03  0.80610105981E+03  0.15294330000E+03 0.  0.
<mgrwt>
<rscale>  0 0.77420269E+03</rscale>
<asrwt>0</asrwt>
<pdfrwt beam="1">  1        2 0.14248729E+00 0.85744361E+03</pdfrwt>
<pdfrwt beam="2">  1       -2 0.13693178E+00 0.85744361E+03</pdfrwt>
<totfact> 0.10764804E+01</totfact>
</mgrwt>
</event>
<event>
 4    2  0.3855935E-007  0.6688425E+03  0.7818608E-02  0.1016507E+00
          2   -1    0    0  501    0  0.00000000000E+00  0.00000000000E+00  0.10744945313E+04  0.10744945313E+04  0.25500000000E-02 0. -1.
         -2   -1    0    0    0  501 -0.00000000000E+00 -0.00000000000E+00 -0.21043162760E+03  0.21043162761E+03  0.25500000000E-02 0.  1.
    8880023    1    1    2    0    0 -0.10242482950E+03  0.55219457150E+02  0.39201490239E+03  0.77525861756E+03  0.65864270000E+03 0.  1.
    8880022    1    1    2    0    0  0.10242482950E+03 -0.55219457150E+02  0.47204800127E+03  0.50966754131E+03  0.15294330000E+03 0.  0.
<mgrwt>
<rscale>  0 0.48968609E+03</rscale>
<asrwt>0</asrwt>
<pdfrwt beam="1">  1        2 0.16530685E+00 0.66884246E+03</pdfrwt>
<pdfrwt beam="2">  1       -2 0.32374096E-01 0.66884246E+03</pdfrwt>
<totfact> 0.20392672E+02</totfact>
</mgrwt>
</event>
<event>
 4    2  0.3855935E-007  0.8048891E+03  0.7818608E-02  0.9700323E-01
         -2   -1    0    0    0  501 -0.00000000000E+00  0.00000000000E+00  0.19594642291E+04  0.19594642291E+04  0.25500000000E-02 0.  1.
          2   -1    0    0  501    0  0.00000000000E+00 -0.00000000000E+00 -0.52156286442E+03  0.52156286443E+03  0.25500000000E-02 0. -1.
    8880023    1    1    2    0    0  0.12334536829E+02 -0.46247612303E+03  0.17334026009E+04  0.19111596187E+04  0.65864270000E+03 0.  1.
    8880022    1    1    2    0    0 -0.12334536829E+02  0.46247612303E+03 -0.29550123625E+03  0.56986747478E+03  0.15294330000E+03 0.  0.
<mgrwt>
<rscale>  0 0.70997577E+03</rscale>
<asrwt>0</asrwt>
<pdfrwt beam="1">  1        2 0.80240440E-01 0.80488913E+03</pdfrwt>
<pdfrwt beam="2">  1       -2 0.30145604E+00 0.80488913E+03</pdfrwt>
<totfact> 0.18858865E+00</totfact>
</mgrwt>
</event>
<event>
 4    2  0.3855935E-007  0.6597924E+03  0.7818608E-02  0.1024370E+00
         -2   -1    0    0    0  501 -0.00000000000E+00  0.00000000000E+00  0.89781928654E+03  0.89781928654E+03  0.25500000000E-02 0.  1.
          2   -1    0    0  501    0  0.00000000000E+00 -0.00000000000E+00 -0.94785081360E+03  0.94785081361E+03  0.25500000000E-02 0. -1.
    8880023    1    1    2    0    0  0.33008692887E+02 -0.20645751025E+02  0.76803257995E+03  0.10125216398E+04  0.65864270000E+03 0.  1.
    8880022    1    1    2    0    0 -0.33008692887E+02  0.20645751025E+02 -0.81806410702E+03  0.83314846039E+03  0.15294330000E+03 0.  0.
<mgrwt>
<rscale>  0 0.46142030E+03</rscale>
<asrwt>0</asrwt>
<pdfrwt beam="1">  1        2 0.14582320E+00 0.65979241E+03</pdfrwt>
<pdfrwt beam="2">  1       -2 0.13812604E+00 0.65979241E+03</pdfrwt>
<totfact> 0.10420953E+01</totfact>
</mgrwt>
</event>
<event>
 4    2  0.3855935E-007  0.9751893E+03  0.7818608E-02  0.9414763E-01
         -2   -1    0    0    0  501 -0.00000000000E+00  0.00000000000E+00  0.55321945268E+03  0.55321945269E+03  0.25500000000E-02 0.  1.
          2   -1    0    0  501    0  0.00000000000E+00 -0.00000000000E+00 -0.18616306723E+04  0.18616306723E+04  0.25500000000E-02 0. -1.
    8880023    1    1    2    0    0  0.70029772071E+03 -0.16360659267E+03 -0.73905934761E+02  0.97798584256E+03  0.65864270000E+03 0.  0.
    8880022    1    1    2    0    0 -0.70029772071E+03  0.16360659267E+03 -0.12345052849E+04  0.14368642825E+04  0.15294330000E+03 0.  0.
<mgrwt>
<rscale>  0 0.90870677E+03</rscale>
<asrwt>0</asrwt>
<pdfrwt beam="1">  1        2 0.28640471E+00 0.97518933E+03</pdfrwt>
<pdfrwt beam="2">  1       -2 0.85110686E-01 0.97518933E+03</pdfrwt>
<totfact> 0.96074578E+00</totfact>
</mgrwt>
</event>
<event>
 4    2  0.3855935E-007  0.7799710E+03  0.7818608E-02  0.9755905E-01
          2   -1    0    0  501    0  0.00000000000E+00  0.00000000000E+00  0.14363014105E+04  0.14363014105E+04  0.25500000000E-02 0. -1.
         -2   -1    0    0    0  501 -0.00000000000E+00 -0.00000000000E+00 -0.74540513182E+03  0.74540513182E+03  0.25500000000E-02 0.  1.
    8880023    1    1    2    0    0 -0.24248767424E+03  0.34021210632E+03 -0.48909121357E+03  0.92063291865E+03  0.65864270000E+03 0.  0.
    8880022    1    1    2    0    0  0.24248767424E+03 -0.34021210632E+03  0.11799874922E+04  0.12610736236E+04  0.15294330000E+03 0.  0.
<mgrwt>
<rscale>  0 0.67783579E+03</rscale>
<asrwt>0</asrwt>
<pdfrwt beam="1">  1        2 0.22096945E+00 0.77997100E+03</pdfrwt>
<pdfrwt beam="2">  1       -2 0.11467771E+00 0.77997100E+03</pdfrwt>
<totfact> 0.83512255E+00</totfact>
</mgrwt>
</event>
<event>
 4    2  0.3855935E-007  0.9128715E+03  0.7818608E-02  0.9505677E-01
         -2   -1    0    0    0  501 -0.00000000000E+00  0.00000000000E+00  0.19217201983E+03  0.19217201985E+03  0.25500000000E-02 0.  1.
          2   -1    0    0  501    0  0.00000000000E+00 -0.00000000000E+00 -0.37684051172E+04  0.37684051172E+04  0.25500000000E-02 0. -1.
    8880023    1    1    2    0    0 -0.44260125606E+03 -0.45125196407E+03 -0.12675879568E+04  0.15620863105E+04  0.65864270000E+03 0.  1.
    8880022    1    1    2    0    0  0.44260125606E+03  0.45125196407E+03 -0.23086451406E+04  0.23984908266E+04  0.15294330000E+03 0. -1.
<mgrwt>
<rscale>  0 0.83866591E+03</rscale>
<asrwt>0</asrwt>
<pdfrwt beam="1">  1        2 0.57975458E+00 0.91287152E+03</pdfrwt>
<pdfrwt beam="2">  1       -2 0.29564929E-01 0.91287152E+03</pdfrwt>
<totfact> 0.57963916E+00</totfact>
</mgrwt>
</event>
<event>
 4    2  0.3855935E-007  0.7446513E+03  0.7818608E-02  0.9846599E-01
          2   -1    0    0  501    0  0.00000000000E+00  0.00000000000E+00  0.82137728431E+03  0.82137728431E+03  0.25500000000E-02 0. -1.
         -2   -1    0    0    0  501 -0.00000000000E+00 -0.00000000000E+00 -0.43616025095E+03  0.43616025096E+03  0.25500000000E-02 0.  1.
    8880023    1    1    2    0    0 -0.34611024874E+03 -0.30051416587E+02  0.42072089630E+02  0.74583889608E+03  0.65864270000E+03 0.  0.
    8880022    1    1    2    0    0  0.34611024874E+03  0.30051416587E+02  0.34314494373E+03  0.51169863918E+03  0.15294330000E+03 0.  0.
<mgrwt>
<rscale>  0 0.62920598E+03</rscale>
<asrwt>0</asrwt>
<pdfrwt beam="1">  1        2 0.12636574E+00 0.74465133E+03</pdfrwt>
<pdfrwt beam="2">  1       -2 0.67101578E-01 0.74465133E+03</pdfrwt>
<totfact> 0.68699930E+01</totfact>
</mgrwt>
</event>
<event>
 4    2  0.3855935E-007  0.8967900E+03  0.7818608E-02  0.9531204E-01
          2   -1    0    0  501    0  0.00000000000E+00  0.00000000000E+00  0.14722861658E+04  0.14722861658E+04  0.25500000000E-02 0. -1.
         -2   -1    0    0    0  501 -0.00000000000E+00 -0.00000000000E+00 -0.57458162468E+03  0.57458162468E+03  0.25500000000E-02 0.  1.
    8880023    1    1    2    0    0  0.53509423371E+02  0.60626634549E+03 -0.63399873136E+02  0.89902830336E+03  0.65864270000E+03 0.  0.
    8880022    1    1    2    0    0 -0.53509423371E+02 -0.60626634549E+03  0.96110441422E+03  0.11478394871E+04  0.15294330000E+03 0.  0.
<mgrwt>
<rscale>  0 0.82021828E+03</rscale>
<asrwt>0</asrwt>
<pdfrwt beam="1">  1        2 0.22650556E+00 0.89679002E+03</pdfrwt>
<pdfrwt beam="2">  1       -2 0.88397173E-01 0.89679002E+03</pdfrwt>
<totfact> 0.14591630E+01</totfact>
</mgrwt>
</event>
<event>
 4    2  0.3855935E-007  0.7912158E+03  0.7818608E-02  0.9730121E-01
          2   -1    0    0  501    0  0.00000000000E+00  0.00000000000E+00  0.89718282186E+03  0.89718282187E+03  0.25500000000E-02 0. -1.
         -2   -1    0    0    0  501 -0.00000000000E+00 -0.00000000000E+00 -0.18339830262E+04  0.18339830262E+04  0.25500000000E-02 0.  1.
    8880023    1    1    2    0    0  0.16107529350E+03  0.40775850754E+03 -0.16787706369E+04  0.18558807366E+04  0.65864270000E+03 0.  1.
    8880022    1    1    2    0    0 -0.16107529350E+03 -0.40775850754E+03  0.74197043257E+03  0.87528511153E+03  0.15294330000E+03 0.  0.
<mgrwt>
<rscale>  0 0.69251358E+03</rscale>
<asrwt>0</asrwt>
<pdfrwt beam="1">  1        2 0.13802813E+00 0.79121581E+03</pdfrwt>
<pdfrwt beam="2">  1       -2 0.28215123E+00 0.79121581E+03</pdfrwt>
<totfact> 0.12432331E+00</totfact>
</mgrwt>
</event>
<event>
 4    2  0.3855935E-007  0.6695772E+03  0.7818608E-02  0.1015968E+00
         -2   -1    0    0    0  501 -0.00000000000E+00  0.00000000000E+00  0.33959041901E+03  0.33959041902E+03  0.25500000000E-02 0.  1.
          2   -1    0    0  501    0  0.00000000000E+00 -0.00000000000E+00 -0.55681923658E+03  0.55681923659E+03  0.25500000000E-02 0. -1.
    8880023    1    1    2    0    0  0.54328187275E+02  0.10757291468E+03 -0.12578966082E+03  0.68129048793E+03  0.65864270000E+03 0.  1.
    8880022    1    1    2    0    0 -0.54328187275E+02 -0.10757291468E+03 -0.91439156751E+02  0.21511916769E+03  0.15294330000E+03 0. -1.
<mgrwt>
<rscale>  0 0.49170214E+03</rscale>
<asrwt>0</asrwt>
<pdfrwt beam="1">  1        2 0.85664498E-01 0.66957725E+03</pdfrwt>
<pdfrwt beam="2">  1       -2 0.52244680E-01 0.66957725E+03</pdfrwt>
<totfact> 0.19011624E+02</totfact>
</mgrwt>
</event>
<event>
 4    2  0.3855935E-007  0.7363403E+03  0.7818608E-02  0.9870738E-01
         -2   -1    0    0    0  501 -0.00000000000E+00  0.00000000000E+00  0.12599814287E+03  0.12599814289E+03  0.25500000000E-02 0.  1.
          2   -1    0    0  501    0  0.00000000000E+00 -0.00000000000E+00 -0.31646371646E+04  0.31646371646E+04  0.25500000000E-02 0. -1.
    8880023    1    1    2    0    0  0.56226614586E+01  0.32917362872E+03 -0.26838901661E+04  0.27830672867E+04  0.65864270000E+03 0.  0.
    8880022    1    1    2    0    0 -0.56226614586E+01 -0.32917362872E+03 -0.35474885559E+03  0.50756802079E+03  0.15294330000E+03 0.  0.
<mgrwt>
<rscale>  0 0.61700621E+03</rscale>
<asrwt>0</asrwt>
<pdfrwt beam="1">  1        2 0.48686720E+00 0.73634034E+03</pdfrwt>
<pdfrwt beam="2">  1       -2 0.19384332E-01 0.73634034E+03</pdfrwt>
<totfact> 0.32819089E+01</totfact>
</mgrwt>
</event>
<event>
 4    2  0.3855935E-007  0.8228882E+03  0.7818608E-02  0.9663332E-01
         -2   -1    0    0    0  501 -0.00000000000E+00  0.00000000000E+00  0.50506184042E+03  0.50506184042E+03  0.25500000000E-02 0.  1.
          2   -1    0    0  501    0  0.00000000000E+00 -0.00000000000E+00 -0.13879097755E+04  0.13879097755E+04  0.25500000000E-02 0. -1.
    8880023    1    1    2    0    0  0.17498571433E+03  0.46121006200E+03  0.52449505386E+02  0.82455798971E+03  0.65864270000E+03 0.  1.
    8880022    1    1    2    0    0 -0.17498571433E+03 -0.46121006200E+03 -0.93529744044E+03  0.10684136262E+04  0.15294330000E+03 0.  0.
<mgrwt>
<rscale>  0 0.73242617E+03</rscale>
<asrwt>0</asrwt>
<pdfrwt beam="1">  1        2 0.21352458E+00 0.82288816E+03</pdfrwt>
<pdfrwt beam="2">  1       -2 0.77701822E-01 0.82288816E+03</pdfrwt>
<totfact> 0.21995270E+01</totfact>
</mgrwt>
</event>
<event>
 4    2  0.3855935E-007  0.7511816E+03  0.7818608E-02  0.9828497E-01
         -2   -1    0    0    0  501 -0.00000000000E+00  0.00000000000E+00  0.32680029435E+03  0.32680029436E+03  0.25500000000E-02 0.  1.
          2   -1    0    0  501    0  0.00000000000E+00 -0.00000000000E+00 -0.27745720748E+04  0.27745720749E+04  0.25500000000E-02 0. -1.
    8880023    1    1    2    0    0  0.35485403735E+03  0.67396045826E+02 -0.14451710191E+03  0.76495687056E+03  0.65864270000E+03 0.  1.
    8880022    1    1    2    0    0 -0.35485403735E+03 -0.67396045826E+02 -0.23032546786E+04  0.23364154986E+04  0.15294330000E+03 0.  0.
<mgrwt>
<rscale>  0 0.63855419E+03</rscale>
<asrwt>0</asrwt>
<pdfrwt beam="1">  1        2 0.42685723E+00 0.75118162E+03</pdfrwt>
<pdfrwt beam="2">  1       -2 0.50276970E-01 0.75118162E+03</pdfrwt>
<totfact> 0.94701419E+00</totfact>
</mgrwt>
</event>
<event>
 4    2  0.3855935E-007  0.7178990E+03  0.7818608E-02  0.9929760E-01
         -2   -1    0    0    0  501 -0.00000000000E+00  0.00000000000E+00  0.89985872575E+03  0.89985872576E+03  0.25500000000E-02 0.  1.
          2   -1    0    0  501    0  0.00000000000E+00 -0.00000000000E+00 -0.81637234856E+03  0.81637234857E+03  0.25500000000E-02 0. -1.
    8880023    1    1    2    0    0  0.28522296378E+03 -0.14718759041E+02  0.71076400360E+03  0.10102299026E+04  0.65864270000E+03 0.  1.
    8880022    1    1    2    0    0 -0.28522296378E+03  0.14718759041E+02 -0.62727762641E+03  0.70600117177E+03  0.15294330000E+03 0.  0.
<mgrwt>
<rscale>  0 0.58840414E+03</rscale>
<asrwt>0</asrwt>
<pdfrwt beam="1">  1        2 0.12559575E+00 0.71789901E+03</pdfrwt>
<pdfrwt beam="2">  1       -2 0.13843980E+00 0.71789901E+03</pdfrwt>
<totfact> 0.12634288E+01</totfact>
</mgrwt>
</event>
<event>
 4    2  0.3855935E-007  0.8791718E+03  0.7818608E-02  0.9560330E-01
          2   -1    0    0  501    0  0.00000000000E+00  0.00000000000E+00  0.87126125432E+03  0.87126125432E+03  0.25500000000E-02 0. -1.
         -2   -1    0    0    0  501 -0.00000000000E+00 -0.00000000000E+00 -0.63019104446E+03  0.63019104447E+03  0.25500000000E-02 0.  1.
    8880023    1    1    2    0    0 -0.49961934472E+03 -0.29918774370E+03  0.12037486198E+03  0.88737427800E+03  0.65864270000E+03 0.  0.
    8880022    1    1    2    0    0  0.49961934472E+03  0.29918774370E+03  0.12069534788E+03  0.61407802079E+03  0.15294330000E+03 0.  1.
<mgrwt>
<rscale>  0 0.79978354E+03</rscale>
<asrwt>0</asrwt>
<pdfrwt beam="1">  1        2 0.13404019E+00 0.87917177E+03</pdfrwt>
<pdfrwt beam="2">  1       -2 0.96952469E-01 0.87917177E+03</pdfrwt>
<totfact> 0.27359571E+01</totfact>
</mgrwt>
</event>
<event>
 4    2  0.3855935E-007  0.6972221E+03  0.7818608E-02  0.1000893E+00
         -2   -1    0    0    0  501 -0.00000000000E+00  0.00000000000E+00  0.33231853841E+03  0.33231853842E+03  0.25500000000E-02 0.  1.
          2   -1    0    0  501    0  0.00000000000E+00 -0.00000000000E+00 -0.19056842190E+04  0.19056842190E+04  0.25500000000E-02 0. -1.
    8880023    1    1    2    0    0  0.14477397619E+03  0.17705634050E+03 -0.59965628050E+02  0.69979606651E+03  0.65864270000E+03 0.  1.
    8880022    1    1    2    0    0 -0.14477397619E+03 -0.17705634050E+03 -0.15134000525E+04  0.15382066909E+04  0.15294330000E+03 0.  0.
<mgrwt>
<rscale>  0 0.55260577E+03</rscale>
<asrwt>0</asrwt>
<pdfrwt beam="1">  1        2 0.29318218E+00 0.69722210E+03</pdfrwt>
<pdfrwt beam="2">  1       -2 0.51125930E-01 0.69722210E+03</pdfrwt>
<totfact> 0.28297308E+01</totfact>
</mgrwt>
</event>
<event>
 4    2  0.3855935E-007  0.6726333E+03  0.7818608E-02  0.1013841E+00
         -2   -1    0    0    0  501 -0.00000000000E+00  0.00000000000E+00  0.88473993487E+02  0.88473993524E+02  0.25500000000E-02 0.  1.
          2   -1    0    0  501    0  0.00000000000E+00 -0.00000000000E+00 -0.25577998874E+04  0.25577998874E+04  0.25500000000E-02 0. -1.
    8880023    1    1    2    0    0  0.13635316205E+03  0.57553720087E+01 -0.13494927679E+04  0.15078349532E+04  0.65864270000E+03 0.  0.
    8880022    1    1    2    0    0 -0.13635316205E+03 -0.57553720087E+01 -0.11198331260E+04  0.11384389278E+04  0.15294330000E+03 0.  1.
<mgrwt>
<rscale>  0 0.49976040E+03</rscale>
<asrwt>0</asrwt>
<pdfrwt beam="1">  1        2 0.39350762E+00 0.67263327E+03</pdfrwt>
<pdfrwt beam="2">  1       -2 0.13611386E-01 0.67263327E+03</pdfrwt>
<totfact> 0.13946660E+02</totfact>
</mgrwt>
</event>
<event>
 4    2  0.3855935E-007  0.6603352E+03  0.7818608E-02  0.1023816E+00
          2   -1    0    0  501    0  0.00000000000E+00  0.00000000000E+00  0.94777865876E+03  0.94777865876E+03  0.25500000000E-02 0. -1.
         -2   -1    0    0    0  501 -0.00000000000E+00 -0.00000000000E+00 -0.42651255294E+03  0.42651255294E+03  0.25500000000E-02 0.  1.
    8880023    1    1    2    0    0  0.11581721332E+02  0.45806461009E+02 -0.15587771802E+03  0.67848392566E+03  0.65864270000E+03 0.  1.
    8880022    1    1    2    0    0 -0.11581721332E+02 -0.45806461009E+02  0.67714382384E+03  0.69580728604E+03  0.15294330000E+03 0.  0.
<mgrwt>
<rscale>  0 0.46334475E+03</rscale>
<asrwt>0</asrwt>
<pdfrwt beam="1">  1        2 0.14581210E+00 0.66033520E+03</pdfrwt>
<pdfrwt beam="2">  1       -2 0.65617316E-01 0.66033520E+03</pdfrwt>
<totfact> 0.59590504E+01</totfact>
</mgrwt>
</event>
<event>
 4    2  0.3855935E-007  0.7556288E+03  0.7818608E-02  0.9816558E-01
          2   -1    0    0  501    0  0.00000000000E+00  0.00000000000E+00  0.26493665350E+04  0.26493665350E+04  0.25500000000E-02 0. -1.
         -2   -1    0    0    0  501 -0.00000000000E+00 -0.00000000000E+00 -0.36838142138E+03  0.36838142138E+03  0.25500000000E-02 0.  1.
    8880023    1    1    2    0    0  0.32839298135E+03 -0.17123862475E+03  0.56803077720E+02  0.75776078858E+03  0.65864270000E+03 0.  1.
    8880022    1    1    2    0    0 -0.32839298135E+03  0.17123862475E+03  0.22241820359E+04  0.22599871678E+04  0.15294330000E+03 0.  0.
<mgrwt>
<rscale>  0 0.64481446E+03</rscale>
<asrwt>0</asrwt>
<pdfrwt beam="1">  1        2 0.40759486E+00 0.75562876E+03</pdfrwt>
<pdfrwt beam="2">  1       -2 0.56674064E-01 0.75562876E+03</pdfrwt>
<totfact> 0.87449423E+00</totfact>
</mgrwt>
</event>
<event>
 4    2  0.3855935E-007  0.1563139E+04  0.7818608E-02  0.8866292E-01
         -2   -1    0    0    0  501 -0.00000000000E+00  0.00000000000E+00  0.98977321176E+03  0.98977321176E+03  0.25500000000E-02 0.  1.
          2   -1    0    0  501    0  0.00000000000E+00 -0.00000000000E+00 -0.30876842696E+04  0.30876842696E+04  0.25500000000E-02 0. -1.
    8880023    1    1    2    0    0 -0.10522433020E+04 -0.94993581715E+03 -0.21410904210E+04  0.26509757487E+04  0.65864270000E+03 0.  0.
    8880022    1    1    2    0    0  0.10522433020E+04  0.94993581715E+03  0.43179363090E+02  0.14264817327E+04  0.15294330000E+03 0.  0.
<mgrwt>
<rscale>  0 0.15276189E+04</rscale>
<asrwt>0</asrwt>
<pdfrwt beam="1">  1        2 0.47502835E+00 0.15631392E+04</pdfrwt>
<pdfrwt beam="2">  1       -2 0.15227280E+00 0.15631392E+04</pdfrwt>
<totfact> 0.41527950E-01</totfact>
</mgrwt>
</event>
<event>
 4    2  0.3855935E-007  0.1048977E+04  0.7818608E-02  0.9320112E-01
          2   -1    0    0  501    0  0.00000000000E+00  0.00000000000E+00  0.16730117323E+04  0.16730117323E+04  0.25500000000E-02 0. -1.
         -2   -1    0    0    0  501 -0.00000000000E+00 -0.00000000000E+00 -0.12255977454E+04  0.12255977454E+04  0.25500000000E-02 0.  1.
    8880023    1    1    2    0    0  0.58550828431E+03  0.56896715980E+03 -0.85539755019E+03  0.13535356497E+04  0.65864270000E+03 0.  0.
    8880022    1    1    2    0    0 -0.58550828431E+03 -0.56896715980E+03  0.13028115371E+04  0.15450738280E+04  0.15294330000E+03 0.  0.
<mgrwt>
<rscale>  0 0.98952249E+03</rscale>
<asrwt>0</asrwt>
<pdfrwt beam="1">  1        2 0.25738642E+00 0.10489775E+04</pdfrwt>
<pdfrwt beam="2">  1       -2 0.18855350E+00 0.10489775E+04</pdfrwt>
<totfact> 0.15898878E+00</totfact>
</mgrwt>
</event>
<event>
 4    2  0.3855935E-007  0.1001684E+04  0.7818608E-02  0.9379358E-01
          2   -1    0    0  501    0  0.00000000000E+00  0.00000000000E+00  0.93354381793E+03  0.93354381794E+03  0.25500000000E-02 0. -1.
         -2   -1    0    0    0  501 -0.00000000000E+00 -0.00000000000E+00 -0.11992094731E+04  0.11992094731E+04  0.25500000000E-02 0.  1.
    8880023    1    1    2    0    0 -0.74388540212E+03  0.12725890682E+03 -0.72463644476E+03  0.12363124622E+04  0.65864270000E+03 0.  1.
    8880022    1    1    2    0    0  0.74388540212E+03 -0.12725890682E+03  0.45897078961E+03  0.89644082882E+03  0.15294330000E+03 0.  0.
<mgrwt>
<rscale>  0 0.93794083E+03</rscale>
<asrwt>0</asrwt>
<pdfrwt beam="1">  1        2 0.14362213E+00 0.10016838E+04</pdfrwt>
<pdfrwt beam="2">  1       -2 0.18449377E+00 0.10016838E+04</pdfrwt>
<totfact> 0.46616550E+00</totfact>
</mgrwt>
</event>
<event>
 4    2  0.3855935E-007  0.7039718E+03  0.7818608E-02  0.9981107E-01
          2   -1    0    0  501    0  0.00000000000E+00  0.00000000000E+00  0.17030231568E+04  0.17030231568E+04  0.25500000000E-02 0. -1.
         -2   -1    0    0    0  501 -0.00000000000E+00 -0.00000000000E+00 -0.29450305376E+03  0.29450305377E+03  0.25500000000E-02 0.  1.
    8880023    1    1    2    0    0  0.17417495670E+03 -0.17728293970E+03  0.16880419858E+03  0.72392763449E+03  0.65864270000E+03 0.  1.
    8880022    1    1    2    0    0 -0.17417495670E+03  0.17728293970E+03  0.12397159044E+04  0.12735985761E+04  0.15294330000E+03 0.  0.
<mgrwt>
<rscale>  0 0.56486482E+03</rscale>
<asrwt>0</asrwt>
<pdfrwt beam="1">  1        2 0.26200357E+00 0.70397185E+03</pdfrwt>
<pdfrwt beam="2">  1       -2 0.45308162E-01 0.70397185E+03</pdfrwt>
<totfact> 0.46512345E+01</totfact>
</mgrwt>
</event>
<event>
 4    2  0.3855935E-007  0.1013228E+04  0.7818608E-02  0.9364452E-01
         -2   -1    0    0    0  501 -0.00000000000E+00  0.00000000000E+00  0.67928368198E+03  0.67928368198E+03  0.25500000000E-02 0.  1.
          2   -1    0    0  501    0  0.00000000000E+00 -0.00000000000E+00 -0.12565395953E+04  0.12565395953E+04  0.25500000000E-02 0. -1.
    8880023    1    1    2    0    0 -0.31294324112E+03  0.70348292800E+03 -0.54422520952E+03  0.11501360733E+04  0.65864270000E+03 0. -1.
    8880022    1    1    2    0    0  0.31294324112E+03 -0.70348292800E+03 -0.33030703822E+02  0.78568720402E+03  0.15294330000E+03 0.  0.
<mgrwt>
<rscale>  0 0.95059806E+03</rscale>
<asrwt>0</asrwt>
<pdfrwt beam="1">  1        2 0.19331378E+00 0.10132285E+04</pdfrwt>
<pdfrwt beam="2">  1       -2 0.10450518E+00 0.10132285E+04</pdfrwt>
<totfact> 0.12939547E+01</totfact>
</mgrwt>
</event>
<event>
 4    2  0.3855935E-007  0.1129519E+04  0.7818608E-02  0.9228881E-01
         -2   -1    0    0    0  501 -0.00000000000E+00  0.00000000000E+00  0.86449484368E+03  0.86449484368E+03  0.25500000000E-02 0.  1.
          2   -1    0    0  501    0  0.00000000000E+00 -0.00000000000E+00 -0.25084521618E+04  0.25084521618E+04  0.25500000000E-02 0. -1.
    8880023    1    1    2    0    0  0.85350420887E+03  0.33694616311E+03  0.34178958210E+03  0.11800985027E+04  0.65864270000E+03 0.  1.
    8880022    1    1    2    0    0 -0.85350420887E+03 -0.33694616311E+03 -0.19857469002E+04  0.21928485028E+04  0.15294330000E+03 0.  0.
<mgrwt>
<rscale>  0 0.10760235E+04</rscale>
<asrwt>0</asrwt>
<pdfrwt beam="1">  1        2 0.38591571E+00 0.11295186E+04</pdfrwt>
<pdfrwt beam="2">  1       -2 0.13299921E+00 0.11295186E+04</pdfrwt>
<totfact> 0.13942112E+00</totfact>
</mgrwt>
</event>
<event>
 4    2  0.3855935E-007  0.7485395E+03  0.7818608E-02  0.9835736E-01
         -2   -1    0    0    0  501 -0.00000000000E+00  0.00000000000E+00  0.86762100329E+03  0.86762100329E+03  0.25500000000E-02 0.  1.
          2   -1    0    0  501    0  0.00000000000E+00 -0.00000000000E+00 -0.20155009516E+04  0.20155009516E+04  0.25500000000E-02 0. -1.
    8880023    1    1    2    0    0 -0.23938793584E+03  0.26304858584E+03  0.68205785224E+03  0.10126767808E+04  0.65864270000E+03 0.  1.
    8880022    1    1    2    0    0  0.23938793584E+03 -0.26304858584E+03 -0.18299378006E+04  0.18704451741E+04  0.15294330000E+03 0.  0.
<mgrwt>
<rscale>  0 0.63479519E+03</rscale>
<asrwt>0</asrwt>
<pdfrwt beam="1">  1        2 0.31007707E+00 0.74853948E+03</pdfrwt>
<pdfrwt beam="2">  1       -2 0.13348016E+00 0.74853948E+03</pdfrwt>
<totfact> 0.27599267E+00</totfact>
</mgrwt>
</event>
<event>
 4    2  0.3855935E-007  0.6638785E+03  0.7818608E-02  0.1020493E+00
          2   -1    0    0  501    0  0.00000000000E+00  0.00000000000E+00  0.79289449750E+03  0.79289449751E+03  0.25500000000E-02 0. -1.
         -2   -1    0    0    0  501 -0.00000000000E+00 -0.00000000000E+00 -0.22862306043E+03  0.22862306045E+03  0.25500000000E-02 0.  1.
    8880023    1    1    2    0    0  0.50007034538E+01 -0.83062613780E+02  0.36763810581E+03  0.75887573947E+03  0.65864270000E+03 0.  1.
    8880022    1    1    2    0    0 -0.50007034538E+01  0.83062613780E+02  0.19663333126E+03  0.26264181849E+03  0.15294330000E+03 0.  0.
<mgrwt>
<rscale>  0 0.47508960E+03</rscale>
<asrwt>0</asrwt>
<pdfrwt beam="1">  1        2 0.12198377E+00 0.66387846E+03</pdfrwt>
<pdfrwt beam="2">  1       -2 0.35172779E-01 0.66387846E+03</pdfrwt>
<totfact> 0.26772879E+02</totfact>
</mgrwt>
</event>
<event>
 4    2  0.3855935E-007  0.1008903E+04  0.7818608E-02  0.9370002E-01
          2   -1    0    0  501    0  0.00000000000E+00  0.00000000000E+00  0.10202452976E+04  0.10202452976E+04  0.25500000000E-02 0. -1.
         -2   -1    0    0    0  501 -0.00000000000E+00 -0.00000000000E+00 -0.88775767468E+03  0.88775767469E+03  0.25500000000E-02 0.  1.
    8880023    1    1    2    0    0 -0.66137995864E+03 -0.38295076088E+03 -0.25057503806E+03  0.10395541308E+04  0.65864270000E+03 0.  1.
    8880022    1    1    2    0    0  0.66137995864E+03  0.38295076088E+03  0.38306266092E+03  0.86844884142E+03  0.15294330000E+03 0.  0.
<mgrwt>
<rscale>  0 0.94586094E+03</rscale>
<asrwt>0</asrwt>
<pdfrwt beam="1">  1        2 0.15696082E+00 0.10089028E+04</pdfrwt>
<pdfrwt beam="2">  1       -2 0.13657810E+00 0.10089028E+04</pdfrwt>
<totfact> 0.92766554E+00</totfact>
</mgrwt>
</event>
<event>
 4    2  0.3855935E-007  0.7331974E+03  0.7818608E-02  0.9880225E-01
         -2   -1    0    0    0  501 -0.00000000000E+00  0.00000000000E+00  0.36005669756E+03  0.36005669757E+03  0.25500000000E-02 0.  1.
          2   -1    0    0  501    0  0.00000000000E+00 -0.00000000000E+00 -0.83251986563E+03  0.83251986563E+03  0.25500000000E-02 0. -1.
    8880023    1    1    2    0    0  0.29232329900E+03 -0.13533379955E+03 -0.26256720155E+03  0.77879386877E+03  0.65864270000E+03 0. -1.
    8880022    1    1    2    0    0 -0.29232329900E+03  0.13533379955E+03 -0.20989596652E+03  0.41378269444E+03  0.15294330000E+03 0.  1.
<mgrwt>
<rscale>  0 0.61229314E+03</rscale>
<asrwt>0</asrwt>
<pdfrwt beam="1">  1        2 0.12807998E+00 0.73319735E+03</pdfrwt>
<pdfrwt beam="2">  1       -2 0.55393338E-01 0.73319735E+03</pdfrwt>
<totfact> 0.10137252E+02</totfact>
</mgrwt>
</event>
<event>
 4    2  0.3855935E-007  0.1173273E+04  0.7818608E-02  0.9183551E-01
          2   -1    0    0  501    0  0.00000000000E+00  0.00000000000E+00  0.13899004074E+04  0.13899004074E+04  0.25500000000E-02 0. -1.
         -2   -1    0    0    0  501 -0.00000000000E+00 -0.00000000000E+00 -0.16575657659E+04  0.16575657659E+04  0.25500000000E-02 0.  1.
    8880023    1    1    2    0    0 -0.92962707913E+03  0.28027131637E+03  0.93067483409E+03  0.14975728263E+04  0.65864270000E+03 0.  0.
    8880022    1    1    2    0    0  0.92962707913E+03 -0.28027131637E+03 -0.11983401926E+04  0.15498933470E+04  0.15294330000E+03 0.  0.
<mgrwt>
<rscale>  0 0.11224830E+04</rscale>
<asrwt>0</asrwt>
<pdfrwt beam="1">  1        2 0.21383083E+00 0.11732727E+04</pdfrwt>
<pdfrwt beam="2">  1       -2 0.25501012E+00 0.11732727E+04</pdfrwt>
<totfact> 0.85627259E-01</totfact>
</mgrwt>
</event>
<event>
 4    2  0.3855935E-007  0.1046368E+04  0.7818608E-02  0.9323260E-01
         -2   -1    0    0    0  501 -0.00000000000E+00  0.00000000000E+00  0.89698595021E+03  0.89698595022E+03  0.25500000000E-02 0.  1.
          2   -1    0    0  501    0  0.00000000000E+00 -0.00000000000E+00 -0.16326358989E+04  0.16326358989E+04  0.25500000000E-02 0. -1.
    8880023    1    1    2    0    0 -0.73705736503E+03  0.34325264508E+03  0.40372998585E+03  0.11215542989E+04  0.65864270000E+03 0.  0.
    8880022    1    1    2    0    0  0.73705736503E+03 -0.34325264508E+03 -0.11393799346E+04  0.14080675502E+04  0.15294330000E+03 0.  0.
<mgrwt>
<rscale>  0 0.98669396E+03</rscale>
<asrwt>0</asrwt>
<pdfrwt beam="1">  1        2 0.25117475E+00 0.10463681E+04</pdfrwt>
<pdfrwt beam="2">  1       -2 0.13799784E+00 0.10463681E+04</pdfrwt>
<totfact> 0.39419854E+00</totfact>
</mgrwt>
</event>
<event>
 4    2  0.3855935E-007  0.7252699E+03  0.7818608E-02  0.9905142E-01
          2   -1    0    0  501    0  0.00000000000E+00  0.00000000000E+00  0.22617121735E+04  0.22617121735E+04  0.25500000000E-02 0. -1.
         -2   -1    0    0    0  501 -0.00000000000E+00 -0.00000000000E+00 -0.19596353425E+03  0.19596353426E+03  0.25500000000E-02 0.  1.
    8880023    1    1    2    0    0 -0.11235571818E+03  0.28210342576E+03  0.56631709693E+03  0.92018009692E+03  0.65864270000E+03 0.  1.
    8880022    1    1    2    0    0  0.11235571818E+03 -0.28210342576E+03  0.14994315424E+04  0.15374956109E+04  0.15294330000E+03 0.  0.
<mgrwt>
<rscale>  0 0.60012734E+03</rscale>
<asrwt>0</asrwt>
<pdfrwt beam="1">  1        2 0.34795571E+00 0.72526985E+03</pdfrwt>
<pdfrwt beam="2">  1       -2 0.30148237E-01 0.72526985E+03</pdfrwt>
<totfact> 0.50269721E+01</totfact>
</mgrwt>
</event>
<event>
 4    2  0.3855935E-007  0.8451076E+03  0.7818608E-02  0.9620624E-01
         -2   -1    0    0    0  501 -0.00000000000E+00  0.00000000000E+00  0.80065619067E+03  0.80065619067E+03  0.25500000000E-02 0.  1.
          2   -1    0    0  501    0  0.00000000000E+00 -0.00000000000E+00 -0.14091388948E+04  0.14091388948E+04  0.25500000000E-02 0. -1.
    8880023    1    1    2    0    0  0.48039361691E+03  0.22275235761E+03  0.49279524300E+03  0.97829136650E+03  0.65864270000E+03 0.  1.
    8880022    1    1    2    0    0 -0.48039361691E+03 -0.22275235761E+03 -0.11012779471E+04  0.12315037190E+04  0.15294330000E+03 0.  0.
<mgrwt>
<rscale>  0 0.75946084E+03</rscale>
<asrwt>0</asrwt>
<pdfrwt beam="1">  1        2 0.21679060E+00 0.84510759E+03</pdfrwt>
<pdfrwt beam="2">  1       -2 0.12317788E+00 0.84510759E+03</pdfrwt>
<totfact> 0.71891103E+00</totfact>
</mgrwt>
</event>
<event>
 4    2  0.3855935E-007  0.6831622E+03  0.7818608E-02  0.1007589E+00
         -2   -1    0    0    0  501 -0.00000000000E+00  0.00000000000E+00  0.80998526392E+02  0.80998526433E+02  0.25500000000E-02 0.  1.
          2   -1    0    0  501    0  0.00000000000E+00 -0.00000000000E+00 -0.36742268272E+04  0.36742268272E+04  0.25500000000E-02 0. -1.
    8880023    1    1    2    0    0  0.10362124022E+03 -0.14887237061E+03 -0.14958350135E+04  0.16444552101E+04  0.65864270000E+03 0.  1.
    8880022    1    1    2    0    0 -0.10362124022E+03  0.14887237061E+03 -0.20973932874E+04  0.21107701436E+04  0.15294330000E+03 0.  0.
<mgrwt>
<rscale>  0 0.52444348E+03</rscale>
<asrwt>0</asrwt>
<pdfrwt beam="1">  1        2 0.56526554E+00 0.68316217E+03</pdfrwt>
<pdfrwt beam="2">  1       -2 0.12461315E-01 0.68316217E+03</pdfrwt>
<totfact> 0.31978090E+01</totfact>
</mgrwt>
</event>
<event>
 4    2  0.3855935E-007  0.6822499E+03  0.7818608E-02  0.1008079E+00
          2   -1    0    0  501    0  0.00000000000E+00  0.00000000000E+00  0.29059659119E+04  0.29059659119E+04  0.25500000000E-02 0. -1.
         -2   -1    0    0    0  501 -0.00000000000E+00 -0.00000000000E+00 -0.24423283884E+03  0.24423283885E+03  0.25500000000E-02 0.  1.
    8880023    1    1    2    0    0 -0.15556191952E+03 -0.86343770344E+02  0.24928129159E+03  0.72636500885E+03  0.65864270000E+03 0.  0.
    8880022    1    1    2    0    0  0.15556191952E+03  0.86343770344E+02  0.24124517815E+04  0.24238337419E+04  0.15294330000E+03 0.  0.
<mgrwt>
<rscale>  0 0.52245483E+03</rscale>
<asrwt>0</asrwt>
<pdfrwt beam="1">  1        2 0.44707165E+00 0.68224993E+03</pdfrwt>
<pdfrwt beam="2">  1       -2 0.37574285E-01 0.68224993E+03</pdfrwt>
<totfact> 0.14261152E+01</totfact>
</mgrwt>
</event>
<event>
 4    2  0.3855935E-007  0.7660292E+03  0.7818608E-02  0.9789741E-01
         -2   -1    0    0    0  501 -0.00000000000E+00  0.00000000000E+00  0.82237342009E+03  0.82237342009E+03  0.25500000000E-02 0.  1.
          2   -1    0    0  501    0  0.00000000000E+00 -0.00000000000E+00 -0.11192137830E+04  0.11192137830E+04  0.25500000000E-02 0. -1.
    8880023    1    1    2    0    0 -0.13139378094E+03 -0.36841046686E+03  0.58565262030E+03  0.96425608408E+03  0.65864270000E+03 0.  0.
    8880022    1    1    2    0    0  0.13139378094E+03  0.36841046686E+03 -0.88249298324E+03  0.97733111904E+03  0.15294330000E+03 0.  0.
<mgrwt>
<rscale>  0 0.65916004E+03</rscale>
<asrwt>0</asrwt>
<pdfrwt beam="1">  1        2 0.17218674E+00 0.76602924E+03</pdfrwt>
<pdfrwt beam="2">  1       -2 0.12651899E+00 0.76602924E+03</pdfrwt>
<totfact> 0.10027008E+01</totfact>
</mgrwt>
</event>
<event>
 4    2  0.3855935E-007  0.9414327E+03  0.7818608E-02  0.9462549E-01
         -2   -1    0    0    0  501 -0.00000000000E+00  0.00000000000E+00  0.42081887904E+03  0.42081887905E+03  0.25500000000E-02 0.  1.
          2   -1    0    0  501    0  0.00000000000E+00 -0.00000000000E+00 -0.17979803060E+04  0.17979803060E+04  0.25500000000E-02 0. -1.
    8880023    1    1    2    0    0  0.62486032748E+03  0.24906813389E+03 -0.40050378852E+03  0.10230830147E+04  0.65864270000E+03 0.  0.
    8880022    1    1    2    0    0 -0.62486032748E+03 -0.24906813389E+03 -0.97665763839E+03  0.11957161703E+04  0.15294330000E+03 0.  0.
<mgrwt>
<rscale>  0 0.87102137E+03</rscale>
<asrwt>0</asrwt>
<pdfrwt beam="1">  1        2 0.27661235E+00 0.94143272E+03</pdfrwt>
<pdfrwt beam="2">  1       -2 0.64741367E-01 0.94143272E+03</pdfrwt>
<totfact> 0.19180458E+01</totfact>
</mgrwt>
</event>
<event>
 4    2  0.3855935E-007  0.7540399E+03  0.7818608E-02  0.9820789E-01
          2   -1    0    0  501    0  0.00000000000E+00  0.00000000000E+00  0.36707268717E+04  0.36707268717E+04  0.25500000000E-02 0. -1.
         -2   -1    0    0    0  501 -0.00000000000E+00 -0.00000000000E+00 -0.26811462009E+03  0.26811462011E+03  0.25500000000E-02 0.  1.
    8880023    1    1    2    0    0  0.95243852310E+02  0.35453426290E+03  0.30109676019E+03  0.81193312547E+03  0.65864270000E+03 0.  1.
    8880022    1    1    2    0    0 -0.95243852310E+02 -0.35453426290E+03  0.31015154914E+04  0.31269083664E+04  0.15294330000E+03 0.  0.
<mgrwt>
<rscale>  0 0.64258708E+03</rscale>
<asrwt>0</asrwt>
<pdfrwt beam="1">  1        2 0.56472718E+00 0.75403988E+03</pdfrwt>
<pdfrwt beam="2">  1       -2 0.41248406E-01 0.75403988E+03</pdfrwt>
<totfact> 0.37262036E+00</totfact>
</mgrwt>
</event>
<event>
 4    2  0.3855935E-007  0.7554640E+03  0.7818608E-02  0.9816995E-01
         -2   -1    0    0    0  501 -0.00000000000E+00  0.00000000000E+00  0.13707925839E+03  0.13707925841E+03  0.25500000000E-02 0.  1.
          2   -1    0    0  501    0  0.00000000000E+00 -0.00000000000E+00 -0.31202475302E+04  0.31202475302E+04  0.25500000000E-02 0. -1.
    8880023    1    1    2    0    0  0.87254610077E+02 -0.35958622678E+03 -0.11156316662E+04  0.13473529020E+04  0.65864270000E+03 0.  0.
    8880022    1    1    2    0    0 -0.87254610077E+02  0.35958622678E+03 -0.18675366055E+04  0.19099738866E+04  0.15294330000E+03 0.  0.
<mgrwt>
<rscale>  0 0.64458393E+03</rscale>
<asrwt>0</asrwt>
<pdfrwt beam="1">  1        2 0.48003803E+00 0.75546398E+03</pdfrwt>
<pdfrwt beam="2">  1       -2 0.21089119E-01 0.75546398E+03</pdfrwt>
<totfact> 0.30100715E+01</totfact>
</mgrwt>
</event>
<event>
 4    2  0.3855935E-007  0.6930587E+03  0.7818608E-02  0.1002731E+00
         -2   -1    0    0    0  501 -0.00000000000E+00  0.00000000000E+00  0.18358642449E+03  0.18358642450E+03  0.25500000000E-02 0.  1.
          2   -1    0    0  501    0  0.00000000000E+00 -0.00000000000E+00 -0.21924430009E+04  0.21924430009E+04  0.25500000000E-02 0. -1.
    8880023    1    1    2    0    0 -0.20996990685E+03 -0.49322662626E+02 -0.52672993223E+03  0.87050256439E+03  0.65864270000E+03 0.  1.
    8880022    1    1    2    0    0  0.20996990685E+03  0.49322662626E+02 -0.14821266441E+04  0.15055268610E+04  0.15294330000E+03 0.  0.
<mgrwt>
<rscale>  0 0.54468605E+03</rscale>
<asrwt>0</asrwt>
<pdfrwt beam="1">  1        2 0.33729891E+00 0.69305865E+03</pdfrwt>
<pdfrwt beam="2">  1       -2 0.28244067E-01 0.69305865E+03</pdfrwt>
<totfact> 0.62181206E+01</totfact>
</mgrwt>
</event>
<event>
 4    2  0.3855935E-007  0.9125483E+03  0.7818608E-02  0.9506181E-01
         -2   -1    0    0    0  501 -0.00000000000E+00  0.00000000000E+00  0.39026511475E+03  0.39026511476E+03  0.25500000000E-02 0.  1.
          2   -1    0    0  501    0  0.00000000000E+00 -0.00000000000E+00 -0.32247815184E+04  0.32247815184E+04  0.25500000000E-02 0. -1.
    8880023    1    1    2    0    0  0.33965455697E+03  0.53251190421E+03 -0.24448621152E+03  0.94473163389E+03  0.65864270000E+03 0.  1.
    8880022    1    1    2    0    0 -0.33965455697E+03 -0.53251190421E+03 -0.25900301921E+04  0.26703149993E+04  0.15294330000E+03 0.  0.
<mgrwt>
<rscale>  0 0.83829686E+03</rscale>
<asrwt>0</asrwt>
<pdfrwt beam="1">  1        2 0.49612022E+00 0.91254827E+03</pdfrwt>
<pdfrwt beam="2">  1       -2 0.60040789E-01 0.91254827E+03</pdfrwt>
<totfact> 0.33699193E+00</totfact>
</mgrwt>
</event>
<event>
 4    2  0.3855935E-007  0.8716764E+03  0.7818608E-02  0.9573122E-01
          2   -1    0    0  501    0  0.00000000000E+00  0.00000000000E+00  0.12735768064E+04  0.12735768064E+04  0.25500000000E-02 0. -1.
         -2   -1    0    0    0  501 -0.00000000000E+00 -0.00000000000E+00 -0.90388523429E+03  0.90388523429E+03  0.25500000000E-02 0.  1.
    8880023    1    1    2    0    0  0.23402731338E+03 -0.52080786116E+03 -0.58841280635E+03  0.10516888554E+04  0.65864270000E+03 0.  1.
    8880022    1    1    2    0    0 -0.23402731338E+03  0.52080786116E+03  0.95810437849E+03  0.11257731853E+04  0.15294330000E+03 0.  0.
<mgrwt>
<rscale>  0 0.79101012E+03</rscale>
<asrwt>0</asrwt>
<pdfrwt beam="1">  1        2 0.19593489E+00 0.87167644E+03</pdfrwt>
<pdfrwt beam="2">  1       -2 0.13905927E+00 0.87167644E+03</pdfrwt>
<totfact> 0.62990704E+00</totfact>
</mgrwt>
</event>
<event>
 4    2  0.3855935E-007  0.1113998E+04  0.7818608E-02  0.9245629E-01
          2   -1    0    0  501    0  0.00000000000E+00  0.00000000000E+00  0.17819957840E+04  0.17819957841E+04  0.25500000000E-02 0. -1.
         -2   -1    0    0    0  501 -0.00000000000E+00 -0.00000000000E+00 -0.70600701690E+03  0.70600701690E+03  0.25500000000E-02 0.  1.
    8880023    1    1    2    0    0 -0.85194136995E+03  0.28526523815E+03  0.49179175811E+02  0.11150825761E+04  0.65864270000E+03 0.  1.
    8880022    1    1    2    0    0  0.85194136995E+03 -0.28526523815E+03  0.10268095913E+04  0.13729202249E+04  0.15294330000E+03 0.  0.
<mgrwt>
<rscale>  0 0.10594619E+04</rscale>
<asrwt>0</asrwt>
<pdfrwt beam="1">  1        2 0.27415319E+00 0.11139976E+04</pdfrwt>
<pdfrwt beam="2">  1       -2 0.10861647E+00 0.11139976E+04</pdfrwt>
<totfact> 0.58925177E+00</totfact>
</mgrwt>
</event>
<event>
 4    2  0.3855935E-007  0.6593919E+03  0.7818608E-02  0.1024788E+00
          2   -1    0    0  501    0  0.00000000000E+00  0.00000000000E+00  0.97298243907E+03  0.97298243907E+03  0.25500000000E-02 0. -1.
         -2   -1    0    0    0  501 -0.00000000000E+00 -0.00000000000E+00 -0.49208005099E+03  0.49208005099E+03  0.25500000000E-02 0.  1.
    8880023    1    1    2    0    0  0.16398735650E+02 -0.26806935466E+02 -0.25932058140E+03  0.70855126880E+03  0.65864270000E+03 0.  1.
    8880022    1    1    2    0    0 -0.16398735650E+02  0.26806935466E+02  0.74022296949E+03  0.75651122126E+03  0.15294330000E+03 0.  0.
<mgrwt>
<rscale>  0 0.45997595E+03</rscale>
<asrwt>0</asrwt>
<pdfrwt beam="1">  1        2 0.14968961E+00 0.65939194E+03</pdfrwt>
<pdfrwt beam="2">  1       -2 0.75704623E-01 0.65939194E+03</pdfrwt>
<totfact> 0.42009569E+01</totfact>
</mgrwt>
</event>
<event>
 4    2  0.3855935E-007  0.9572478E+03  0.7818608E-02  0.9439762E-01
          2   -1    0    0  501    0  0.00000000000E+00  0.00000000000E+00  0.17491950330E+04  0.17491950330E+04  0.25500000000E-02 0. -1.
         -2   -1    0    0    0  501 -0.00000000000E+00 -0.00000000000E+00 -0.74498338911E+03  0.74498338911E+03  0.25500000000E-02 0.  1.
    8880023    1    1    2    0    0 -0.67757804260E+03 -0.15297447142E+03 -0.30463521928E+03  0.10045526446E+04  0.65864270000E+03 0.  1.
    8880022    1    1    2    0    0  0.67757804260E+03  0.15297447142E+03  0.13088468632E+04  0.14896257775E+04  0.15294330000E+03 0.  0.
<mgrwt>
<rscale>  0 0.88874444E+03</rscale>
<asrwt>0</asrwt>
<pdfrwt beam="1">  1        2 0.26910692E+00 0.95724783E+03</pdfrwt>
<pdfrwt beam="2">  1       -2 0.11461283E+00 0.95724783E+03</pdfrwt>
<totfact> 0.54827973E+00</totfact>
</mgrwt>
</event>
<event>
 4    2  0.3855935E-007  0.6810099E+03  0.7818608E-02  0.1008758E+00
          2   -1    0    0  501    0  0.00000000000E+00  0.00000000000E+00  0.51418835608E+03  0.51418835608E+03  0.25500000000E-02 0. -1.
         -2   -1    0    0    0  501 -0.00000000000E+00 -0.00000000000E+00 -0.57603373819E+03  0.57603373820E+03  0.25500000000E-02 0.  1.
    8880023    1    1    2    0    0 -0.55188012972E+02 -0.16406879524E+03 -0.31256768183E+03  0.74931505279E+03  0.65864270000E+03 0.  1.
    8880022    1    1    2    0    0  0.55188012972E+02  0.16406879524E+03  0.25072229972E+03  0.34090704149E+03  0.15294330000E+03 0.  0.
<mgrwt>
<rscale>  0 0.51971221E+03</rscale>
<asrwt>0</asrwt>
<pdfrwt beam="1">  1        2 0.79105901E-01 0.68100991E+03</pdfrwt>
<pdfrwt beam="2">  1       -2 0.88620575E-01 0.68100991E+03</pdfrwt>
<totfact> 0.66317822E+01</totfact>
</mgrwt>
</event>
<event>
 4    2  0.3855935E-007  0.6695990E+03  0.7818608E-02  0.1015952E+00
          2   -1    0    0  501    0  0.00000000000E+00  0.00000000000E+00  0.70576149191E+03  0.70576149191E+03  0.25500000000E-02 0. -1.
         -2   -1    0    0    0  501 -0.00000000000E+00 -0.00000000000E+00 -0.69679558619E+03  0.69679558619E+03  0.25500000000E-02 0.  1.
    8880023    1    1    2    0    0  0.10272750382E+03  0.63243133877E+02 -0.51423226135E+03  0.84427345031E+03  0.65864270000E+03 0.  1.
    8880022    1    1    2    0    0 -0.10272750382E+03 -0.63243133877E+02  0.52319816707E+03  0.55828362779E+03  0.15294330000E+03 0.  0.
<mgrwt>
<rscale>  0 0.49176136E+03</rscale>
<asrwt>0</asrwt>
<pdfrwt beam="1">  1        2 0.10857869E+00 0.66959901E+03</pdfrwt>
<pdfrwt beam="2">  1       -2 0.10719932E+00 0.66959901E+03</pdfrwt>
<totfact> 0.28950116E+01</totfact>
</mgrwt>
</event>
<event>
 4    2  0.3855935E-007  0.7344532E+03  0.7818608E-02  0.9876409E-01
          2   -1    0    0  501    0  0.00000000000E+00  0.00000000000E+00  0.27748507850E+04  0.27748507850E+04  0.25500000000E-02 0. -1.
         -2   -1    0    0    0  501 -0.00000000000E+00 -0.00000000000E+00 -0.32864097011E+03  0.32864097012E+03  0.25500000000E-02 0.  1.
    8880023    1    1    2    0    0  0.28009214406E+03 -0.16480179691E+03  0.11335442402E+03  0.74314915941E+03  0.65864270000E+03 0.  0.
    8880022    1    1    2    0    0 -0.28009214406E+03  0.16480179691E+03  0.23328553909E+04  0.23603425957E+04  0.15294330000E+03 0.  0.
<mgrwt>
<rscale>  0 0.61418331E+03</rscale>
<asrwt>0</asrwt>
<pdfrwt beam="1">  1        2 0.42690013E+00 0.73445316E+03</pdfrwt>
<pdfrwt beam="2">  1       -2 0.50560148E-01 0.73445316E+03</pdfrwt>
<totfact> 0.93862303E+00</totfact>
</mgrwt>
</event>
<event>
 4    2  0.3855935E-007  0.7168827E+03  0.7818608E-02  0.9933279E-01
         -2   -1    0    0    0  501 -0.00000000000E+00  0.00000000000E+00  0.49405626570E+03  0.49405626571E+03  0.25500000000E-02 0.  1.
          2   -1    0    0  501    0  0.00000000000E+00 -0.00000000000E+00 -0.74264143805E+03  0.74264143805E+03  0.25500000000E-02 0. -1.
    8880023    1    1    2    0    0 -0.15028756647E+03 -0.23984201605E+03  0.14185919502E+03  0.73078367714E+03  0.65864270000E+03 0.  1.
    8880022    1    1    2    0    0  0.15028756647E+03  0.23984201605E+03 -0.39044436737E+03  0.50591402662E+03  0.15294330000E+03 0.  0.
<mgrwt>
<rscale>  0 0.58675224E+03</rscale>
<asrwt>0</asrwt>
<pdfrwt beam="1">  1        2 0.11425253E+00 0.71688266E+03</pdfrwt>
<pdfrwt beam="2">  1       -2 0.76008656E-01 0.71688266E+03</pdfrwt>
<totfact> 0.59791380E+01</totfact>
</mgrwt>
</event>
<event>
 4    2  0.3855935E-007  0.1204475E+04  0.7818608E-02  0.9152785E-01
         -2   -1    0    0    0  501 -0.00000000000E+00  0.00000000000E+00  0.82998341882E+03  0.82998341882E+03  0.25500000000E-02 0.  1.
          2   -1    0    0  501    0  0.00000000000E+00 -0.00000000000E+00 -0.25953371215E+04  0.25953371216E+04  0.25500000000E-02 0. -1.
    8880023    1    1    2    0    0 -0.99397306978E+03  0.17019475497E+03  0.19053852967E+03  0.12194522769E+04  0.65864270000E+03 0.  0.
    8880022    1    1    2    0    0  0.99397306978E+03 -0.17019475497E+03 -0.19558922324E+04  0.22058682635E+04  0.15294330000E+03 0.  0.
<mgrwt>
<rscale>  0 0.11554340E+04</rscale>
<asrwt>0</asrwt>
<pdfrwt beam="1">  1        2 0.39928263E+00 0.12044745E+04</pdfrwt>
<pdfrwt beam="2">  1       -2 0.12768976E+00 0.12044745E+04</pdfrwt>
<totfact> 0.13645906E+00</totfact>
</mgrwt>
</event>
<event>
 4    2  0.3855935E-007  0.8239040E+03  0.7818608E-02  0.9661312E-01
          2   -1    0    0  501    0  0.00000000000E+00  0.00000000000E+00  0.14203183660E+04  0.14203183661E+04  0.25500000000E-02 0. -1.
         -2   -1    0    0    0  501 -0.00000000000E+00 -0.00000000000E+00 -0.33060780292E+03  0.33060780293E+03  0.25500000000E-02 0.  1.
    8880023    1    1    2    0    0  0.16472113503E+02  0.49470833310E+03  0.49070677756E+03  0.95896350982E+03  0.65864270000E+03 0.  0.
    8880022    1    1    2    0    0 -0.16472113503E+02 -0.49470833310E+03  0.59900378557E+03  0.79196265916E+03  0.15294330000E+03 0.  0.
<mgrwt>
<rscale>  0 0.73367742E+03</rscale>
<asrwt>0</asrwt>
<pdfrwt beam="1">  1        2 0.21851052E+00 0.82390404E+03</pdfrwt>
<pdfrwt beam="2">  1       -2 0.50862739E-01 0.82390404E+03</pdfrwt>
<totfact> 0.52158110E+01</totfact>
</mgrwt>
</event>
<event>
 4    2  0.3855935E-007  0.6890620E+03  0.7818608E-02  0.1004602E+00
         -2   -1    0    0    0  501 -0.00000000000E+00  0.00000000000E+00  0.28422734013E+03  0.28422734015E+03  0.25500000000E-02 0.  1.
          2   -1    0    0  501    0  0.00000000000E+00 -0.00000000000E+00 -0.78546150421E+03  0.78546150422E+03  0.25500000000E-02 0. -1.
    8880023    1    1    2    0    0 -0.14868124813E+02 -0.20192871605E+03 -0.33360101125E+03  0.76556914023E+03  0.65864270000E+03 0.  0.
    8880022    1    1    2    0    0  0.14868124813E+02  0.20192871605E+03 -0.16763315283E+03  0.30411970413E+03  0.15294330000E+03 0.  1.
<mgrwt>
<rscale>  0 0.53677748E+03</rscale>
<asrwt>0</asrwt>
<pdfrwt beam="1">  1        2 0.12084023E+00 0.68906202E+03</pdfrwt>
<pdfrwt beam="2">  1       -2 0.43727283E-01 0.68906202E+03</pdfrwt>
<totfact> 0.17742087E+02</totfact>
</mgrwt>
</event>
<event>
 4    2  0.3855935E-007  0.6769059E+03  0.7818608E-02  0.1011131E+00
          2   -1    0    0  501    0  0.00000000000E+00  0.00000000000E+00  0.84206525019E+03  0.84206525020E+03  0.25500000000E-02 0. -1.
         -2   -1    0    0    0  501 -0.00000000000E+00 -0.00000000000E+00 -0.51293011818E+03  0.51293011818E+03  0.25500000000E-02 0.  1.
    8880023    1    1    2    0    0  0.10145198639E+03  0.11873882925E+03 -0.26115050821E+03  0.72553511929E+03  0.65864270000E+03 0.  1.
    8880022    1    1    2    0    0 -0.10145198639E+03 -0.11873882925E+03  0.59028564023E+03  0.62946024909E+03  0.15294330000E+03 0.  0.
<mgrwt>
<rscale>  0 0.51027640E+03</rscale>
<asrwt>0</asrwt>
<pdfrwt beam="1">  1        2 0.12954850E+00 0.67690592E+03</pdfrwt>
<pdfrwt beam="2">  1       -2 0.78912326E-01 0.67690592E+03</pdfrwt>
<totfact> 0.46766626E+01</totfact>
</mgrwt>
</event>
<event>
 4    2  0.2098697E-006  0.9909571E+03  0.7818608E-02  0.9393485E-01
         -2   -1    0    0    0  501 -0.00000000000E+00  0.00000000000E+00  0.16180338617E+04  0.16180338617E+04  0.25500000000E-02 0.  1.
          2   -1    0    0  501    0  0.00000000000E+00 -0.00000000000E+00 -0.36332720853E+04  0.36332720853E+04  0.25500000000E-02 0. -1.
    8880023    1    1    2    0    0 -0.15446654858E+03 -0.72410343759E+03  0.14212636071E+04  0.17326240648E+04  0.65864270000E+03 0.  1.
    8880022    1    1    2    0    0  0.15446654858E+03  0.72410343759E+03 -0.34365018307E+04  0.35186818822E+04  0.15294330000E+03 0.  0.
<mgrwt>
<rscale>  0 0.92613758E+03</rscale>
<asrwt>0</asrwt>
<pdfrwt beam="1">  1        2 0.55896493E+00 0.99095707E+03</pdfrwt>
<pdfrwt beam="2">  1       -2 0.24892829E+00 0.99095707E+03</pdfrwt>
<totfact> 0.44444455E-02</totfact>
</mgrwt>
</event>
<event>
 4    2  0.3855935E-007  0.9311093E+03  0.7818608E-02  0.9477831E-01
         -2   -1    0    0    0  501 -0.00000000000E+00  0.00000000000E+00  0.87983066834E+03  0.87983066835E+03  0.25500000000E-02 0.  1.
          2   -1    0    0  501    0  0.00000000000E+00 -0.00000000000E+00 -0.13948829813E+04  0.13948829813E+04  0.25500000000E-02 0. -1.
    8880023    1    1    2    0    0  0.32607314466E+03  0.57169100836E+03  0.49882946844E+03  0.10563121459E+04  0.65864270000E+03 0.  1.
    8880022    1    1    2    0    0 -0.32607314466E+03 -0.57169100836E+03 -0.10138817814E+04  0.12184015037E+04  0.15294330000E+03 0.  0.
<mgrwt>
<rscale>  0 0.85938161E+03</rscale>
<asrwt>0</asrwt>
<pdfrwt beam="1">  1        2 0.21459738E+00 0.93110929E+03</pdfrwt>
<pdfrwt beam="2">  1       -2 0.13535857E+00 0.93110929E+03</pdfrwt>
<totfact> 0.57097088E+00</totfact>
</mgrwt>
</event>
<event>
 4    2  0.3855935E-007  0.8094088E+03  0.7818608E-02  0.9690810E-01
         -2   -1    0    0    0  501 -0.00000000000E+00  0.00000000000E+00  0.34377883468E+03  0.34377883469E+03  0.25500000000E-02 0.  1.
          2   -1    0    0  501    0  0.00000000000E+00 -0.00000000000E+00 -0.12616261241E+04  0.12616261241E+04  0.25500000000E-02 0. -1.
    8880023    1    1    2    0    0  0.41025408874E+03 -0.23026945601E+03 -0.67691596064E+03  0.10551577435E+04  0.65864270000E+03 0.  0.
    8880022    1    1    2    0    0 -0.41025408874E+03  0.23026945601E+03 -0.24093132876E+03  0.55024721525E+03  0.15294330000E+03 0.  0.
<mgrwt>
<rscale>  0 0.71566626E+03</rscale>
<asrwt>0</asrwt>
<pdfrwt beam="1">  1        2 0.19409632E+00 0.80940882E+03</pdfrwt>
<pdfrwt beam="2">  1       -2 0.52889052E-01 0.80940882E+03</pdfrwt>
<totfact> 0.59440482E+01</totfact>
</mgrwt>
</event>
<event>
 4    2  0.3855935E-007  0.6736616E+03  0.7818608E-02  0.1013163E+00
          2   -1    0    0  501    0  0.00000000000E+00  0.00000000000E+00  0.13777772705E+04  0.13777772705E+04  0.25500000000E-02 0. -1.
         -2   -1    0    0    0  501 -0.00000000000E+00 -0.00000000000E+00 -0.16285588587E+03  0.16285588589E+03  0.25500000000E-02 0.  1.
    8880023    1    1    2    0    0 -0.10380971467E+03  0.96090216730E+02  0.64029405558E+03  0.92940651519E+03  0.65864270000E+03 0.  0.
    8880022    1    1    2    0    0  0.10380971467E+03 -0.96090216730E+02  0.57462732909E+03  0.61122664124E+03  0.15294330000E+03 0.  0.
<mgrwt>
<rscale>  0 0.50236500E+03</rscale>
<asrwt>0</asrwt>
<pdfrwt beam="1">  1        2 0.21196573E+00 0.67366163E+03</pdfrwt>
<pdfrwt beam="2">  1       -2 0.25054753E-01 0.67366163E+03</pdfrwt>
<totfact> 0.21670428E+02</totfact>
</mgrwt>
</event>
<event>
 4    2  0.3855935E-007  0.7117582E+03  0.7818608E-02  0.9951529E-01
         -2   -1    0    0    0  501 -0.00000000000E+00  0.00000000000E+00  0.16964195555E+04  0.16964195555E+04  0.25500000000E-02 0.  1.
          2   -1    0    0  501    0  0.00000000000E+00 -0.00000000000E+00 -0.18711109309E+03  0.18711109311E+03  0.25500000000E-02 0. -1.
    8880023    1    1    2    0    0 -0.12649336168E+03  0.23830436535E+03  0.13693488059E+04  0.15432808881E+04  0.65864270000E+03 0.  1.
    8880022    1    1    2    0    0  0.12649336168E+03 -0.23830436535E+03  0.13995965660E+03  0.34024976059E+03  0.15294330000E+03 0.  0.
<mgrwt>
<rscale>  0 0.57827662E+03</rscale>
<asrwt>0</asrwt>
<pdfrwt beam="1">  1        2 0.28786323E-01 0.71175821E+03</pdfrwt>
<pdfrwt beam="2">  1       -2 0.26098762E+00 0.71175821E+03</pdfrwt>
<totfact> 0.10599517E+01</totfact>
</mgrwt>
</event>
<event>
 4    2  0.3855935E-007  0.7665832E+03  0.7818608E-02  0.9788353E-01
          2   -1    0    0  501    0  0.00000000000E+00  0.00000000000E+00  0.12838358841E+04  0.12838358841E+04  0.25500000000E-02 0. -1.
         -2   -1    0    0    0  501 -0.00000000000E+00 -0.00000000000E+00 -0.34064110334E+03  0.34064110335E+03  0.25500000000E-02 0.  1.
    8880023    1    1    2    0    0  0.36505795511E+03 -0.14343056184E+03  0.23711246926E+03  0.80241645422E+03  0.65864270000E+03 0.  1.
    8880022    1    1    2    0    0 -0.36505795511E+03  0.14343056184E+03  0.70608231153E+03  0.82206053325E+03  0.15294330000E+03 0.  0.
<mgrwt>
<rscale>  0 0.65991353E+03</rscale>
<asrwt>0</asrwt>
<pdfrwt beam="1">  1        2 0.19751321E+00 0.76658323E+03</pdfrwt>
<pdfrwt beam="2">  1       -2 0.52406324E-01 0.76658323E+03</pdfrwt>
<totfact> 0.59022677E+01</totfact>
</mgrwt>
</event>
<event>
 4    2  0.3855935E-007  0.9305030E+03  0.7818608E-02  0.9478739E-01
         -2   -1    0    0    0  501 -0.00000000000E+00  0.00000000000E+00  0.17748995675E+03  0.17748995676E+03  0.25500000000E-02 0.  1.
          2   -1    0    0  501    0  0.00000000000E+00 -0.00000000000E+00 -0.40551826371E+04  0.40551826371E+04  0.25500000000E-02 0. -1.
    8880023    1    1    2    0    0 -0.17658730038E+03  0.63312126050E+03 -0.15377739594E+04  0.17973826976E+04  0.65864270000E+03 0.  0.
    8880022    1    1    2    0    0  0.17658730038E+03 -0.63312126050E+03 -0.23399187209E+04  0.24352898962E+04  0.15294330000E+03 0.  0.
<mgrwt>
<rscale>  0 0.85869615E+03</rscale>
<asrwt>0</asrwt>
<pdfrwt beam="1">  1        2 0.62387418E+00 0.93050299E+03</pdfrwt>
<pdfrwt beam="2">  1       -2 0.27306150E-01 0.93050299E+03</pdfrwt>
<totfact> 0.40221035E+00</totfact>
</mgrwt>
</event>
<event>
 4    2  0.3855935E-007  0.7960329E+03  0.7818608E-02  0.9719440E-01
         -2   -1    0    0    0  501 -0.00000000000E+00  0.00000000000E+00  0.22780404342E+03  0.22780404343E+03  0.25500000000E-02 0.  1.
          2   -1    0    0  501    0  0.00000000000E+00 -0.00000000000E+00 -0.34373832268E+04  0.34373832268E+04  0.25500000000E-02 0. -1.
    8880023    1    1    2    0    0  0.43362234476E+03  0.10876508147E+03 -0.30714344369E+04  0.31729131547E+04  0.65864270000E+03 0. -1.
    8880022    1    1    2    0    0 -0.43362234476E+03 -0.10876508147E+03 -0.13814474647E+03  0.49227411552E+03  0.15294330000E+03 0.  0.
<mgrwt>
<rscale>  0 0.69871032E+03</rscale>
<asrwt>0</asrwt>
<pdfrwt beam="1">  1        2 0.52882815E+00 0.79603291E+03</pdfrwt>
<pdfrwt beam="2">  1       -2 0.35046778E-01 0.79603291E+03</pdfrwt>
<totfact> 0.73467393E+00</totfact>
</mgrwt>
</event>
<event>
 4    2  0.3855935E-007  0.6994376E+03  0.7818608E-02  0.9999542E-01
         -2   -1    0    0    0  501 -0.00000000000E+00  0.00000000000E+00  0.29306349268E+03  0.29306349270E+03  0.25500000000E-02 0.  1.
          2   -1    0    0  501    0  0.00000000000E+00 -0.00000000000E+00 -0.10142702570E+04  0.10142702570E+04  0.25500000000E-02 0. -1.
    8880023    1    1    2    0    0 -0.21815183201E+03  0.88388894329E+02 -0.22060469992E+03  0.73340265771E+03  0.65864270000E+03 0.  1.
    8880022    1    1    2    0    0  0.21815183201E+03 -0.88388894329E+02 -0.50060206435E+03  0.57393109194E+03  0.15294330000E+03 0. -1.
<mgrwt>
<rscale>  0 0.55670321E+03</rscale>
<asrwt>0</asrwt>
<pdfrwt beam="1">  1        2 0.15604158E+00 0.69943765E+03</pdfrwt>
<pdfrwt beam="2">  1       -2 0.45086692E-01 0.69943765E+03</pdfrwt>
<totfact> 0.11698271E+02</totfact>
</mgrwt>
</event>
<event>
 4    2  0.3855935E-007  0.8809488E+03  0.7818608E-02  0.9557334E-01
         -2   -1    0    0    0  501 -0.00000000000E+00  0.00000000000E+00  0.85526716114E+03  0.85526716115E+03  0.25500000000E-02 0.  1.
          2   -1    0    0  501    0  0.00000000000E+00 -0.00000000000E+00 -0.10878007198E+04  0.10878007198E+04  0.25500000000E-02 0. -1.
    8880023    1    1    2    0    0  0.52150534390E+03 -0.26512766206E+03  0.48426416799E+03  0.10052773207E+04  0.65864270000E+03 0.  0.
    8880022    1    1    2    0    0 -0.52150534390E+03  0.26512766206E+03 -0.71679772661E+03  0.93779056020E+03  0.15294330000E+03 0.  0.
<mgrwt>
<rscale>  0 0.80185622E+03</rscale>
<asrwt>0</asrwt>
<pdfrwt beam="1">  1        2 0.16735396E+00 0.88094875E+03</pdfrwt>
<pdfrwt beam="2">  1       -2 0.13157956E+00 0.88094875E+03</pdfrwt>
<totfact> 0.93700820E+00</totfact>
</mgrwt>
</event>
<event>
 4    2  0.3855935E-007  0.6950773E+03  0.7818608E-02  0.1001827E+00
          2   -1    0    0  501    0  0.00000000000E+00  0.00000000000E+00  0.52399794456E+03  0.52399794457E+03  0.25500000000E-02 0. -1.
         -2   -1    0    0    0  501 -0.00000000000E+00 -0.00000000000E+00 -0.11871373163E+04  0.11871373163E+04  0.25500000000E-02 0.  1.
    8880023    1    1    2    0    0 -0.22052016510E+03  0.26326362147E+02 -0.10380802694E+04  0.12492970313E+04  0.65864270000E+03 0.  0.
    8880022    1    1    2    0    0  0.22052016510E+03 -0.26326362147E+02  0.37494089761E+03  0.46183822956E+03  0.15294330000E+03 0.  0.
<mgrwt>
<rscale>  0 0.54856359E+03</rscale>
<asrwt>0</asrwt>
<pdfrwt beam="1">  1        2 0.80615069E-01 0.69507728E+03</pdfrwt>
<pdfrwt beam="2">  1       -2 0.18263651E+00 0.69507728E+03</pdfrwt>
<totfact> 0.10372354E+01</totfact>
</mgrwt>
</event>
<event>
 4    2  0.3855935E-007  0.8278431E+03  0.7818608E-02  0.9653544E-01
         -2   -1    0    0    0  501 -0.00000000000E+00  0.00000000000E+00  0.82737908873E+03  0.82737908873E+03  0.25500000000E-02 0.  1.
          2   -1    0    0  501    0  0.00000000000E+00 -0.00000000000E+00 -0.13759817579E+04  0.13759817579E+04  0.25500000000E-02 0. -1.
    8880023    1    1    2    0    0  0.12925753034E+03  0.48456831466E+03 -0.11426534633E+04  0.14110212983E+04  0.65864270000E+03 0. -1.
    8880022    1    1    2    0    0 -0.12925753034E+03 -0.48456831466E+03  0.59405079419E+03  0.79233954830E+03  0.15294330000E+03 0.  0.
<mgrwt>
<rscale>  0 0.73851440E+03</rscale>
<asrwt>0</asrwt>
<pdfrwt beam="1">  1        2 0.21168950E+00 0.82784308E+03</pdfrwt>
<pdfrwt beam="2">  1       -2 0.12728909E+00 0.82784308E+03</pdfrwt>
<totfact> 0.69282421E+00</totfact>
</mgrwt>
</event>
<event>
 4    2  0.3855935E-007  0.9301646E+03  0.7818608E-02  0.9479246E-01
         -2   -1    0    0    0  501 -0.00000000000E+00  0.00000000000E+00  0.76362062012E+03  0.76362062012E+03  0.25500000000E-02 0.  1.
          2   -1    0    0  501    0  0.00000000000E+00 -0.00000000000E+00 -0.99870895511E+03  0.99870895511E+03  0.25500000000E-02 0. -1.
    8880023    1    1    2    0    0 -0.16952225513E+03  0.63455351139E+03  0.21095506241E+03  0.95378624357E+03  0.65864270000E+03 0.  1.
    8880022    1    1    2    0    0  0.16952225513E+03 -0.63455351139E+03 -0.44604339740E+03  0.80854333167E+03  0.15294330000E+03 0.  0.
<mgrwt>
<rscale>  0 0.85831347E+03</rscale>
<asrwt>0</asrwt>
<pdfrwt beam="1">  1        2 0.15364753E+00 0.93016459E+03</pdfrwt>
<pdfrwt beam="2">  1       -2 0.11748009E+00 0.93016459E+03</pdfrwt>
<totfact> 0.14105650E+01</totfact>
</mgrwt>
</event>
<event>
 4    2  0.3855935E-007  0.7708997E+03  0.7818608E-02  0.9777665E-01
         -2   -1    0    0    0  501 -0.00000000000E+00  0.00000000000E+00  0.34368084343E+03  0.34368084344E+03  0.25500000000E-02 0.  1.
          2   -1    0    0  501    0  0.00000000000E+00 -0.00000000000E+00 -0.10540380106E+04  0.10540380106E+04  0.25500000000E-02 0. -1.
    8880023    1    1    2    0    0  0.10629695543E+03 -0.38623451511E+03 -0.40085645711E+03  0.86889139072E+03  0.65864270000E+03 0.  0.
    8880022    1    1    2    0    0 -0.10629695543E+03  0.38623451511E+03 -0.30950071001E+03  0.52882746327E+03  0.15294330000E+03 0.  0.
<mgrwt>
<rscale>  0 0.66575068E+03</rscale>
<asrwt>0</asrwt>
<pdfrwt beam="1">  1        2 0.16215969E+00 0.77089970E+03</pdfrwt>
<pdfrwt beam="2">  1       -2 0.52873976E-01 0.77089970E+03</pdfrwt>
<totfact> 0.79544747E+01</totfact>
</mgrwt>
</event>
<event>
 4    2  0.3855935E-007  0.6620069E+03  0.7818608E-02  0.1022188E+00
         -2   -1    0    0    0  501 -0.00000000000E+00  0.00000000000E+00  0.82633683939E+02  0.82633683979E+02  0.25500000000E-02 0.  1.
          2   -1    0    0  501    0  0.00000000000E+00 -0.00000000000E+00 -0.21462567160E+04  0.21462567160E+04  0.25500000000E-02 0. -1.
    8880023    1    1    2    0    0  0.60749831424E+02  0.27430024956E+02 -0.14684473847E+04  0.16107733783E+04  0.65864270000E+03 0.  1.
    8880022    1    1    2    0    0 -0.60749831424E+02 -0.27430024956E+02 -0.59517564742E+03  0.61811702175E+03  0.15294330000E+03 0.  0.
<mgrwt>
<rscale>  0 0.46905095E+03</rscale>
<asrwt>0</asrwt>
<pdfrwt beam="1">  1        2 0.33019330E+00 0.66200691E+03</pdfrwt>
<pdfrwt beam="2">  1       -2 0.12712876E-01 0.66200691E+03</pdfrwt>
<totfact> 0.26516096E+02</totfact>
</mgrwt>
</event>
<event>
 4    2  0.3855935E-007  0.8339619E+03  0.7818608E-02  0.9641673E-01
          2   -1    0    0  501    0  0.00000000000E+00  0.00000000000E+00  0.16961390426E+04  0.16961390426E+04  0.25500000000E-02 0. -1.
         -2   -1    0    0    0  501 -0.00000000000E+00 -0.00000000000E+00 -0.33069467911E+03  0.33069467912E+03  0.25500000000E-02 0.  1.
    8880023    1    1    2    0    0  0.11606254017E+03  0.49820844986E+03  0.40304516023E+03  0.92624930779E+03  0.65864270000E+03 0.  1.
    8880022    1    1    2    0    0 -0.11606254017E+03 -0.49820844986E+03  0.96239920323E+03  0.11005844139E+04  0.15294330000E+03 0. -1.
<mgrwt>
<rscale>  0 0.74598365E+03</rscale>
<asrwt>0</asrwt>
<pdfrwt beam="1">  1        2 0.26094447E+00 0.83396186E+03</pdfrwt>
<pdfrwt beam="2">  1       -2 0.50876104E-01 0.83396186E+03</pdfrwt>
<totfact> 0.36587596E+01</totfact>
</mgrwt>
</event>
<event>
 4    2  0.3855935E-007  0.7870339E+03  0.7818608E-02  0.9739566E-01
          2   -1    0    0  501    0  0.00000000000E+00  0.00000000000E+00  0.18591200784E+04  0.18591200784E+04  0.25500000000E-02 0. -1.
         -2   -1    0    0    0  501 -0.00000000000E+00 -0.00000000000E+00 -0.10320856543E+04  0.10320856543E+04  0.25500000000E-02 0.  1.
    8880023    1    1    2    0    0 -0.11638002145E+03 -0.41481068545E+03 -0.84679630630E+03  0.11560650521E+04  0.65864270000E+03 0.  1.
    8880022    1    1    2    0    0  0.11638002145E+03  0.41481068545E+03  0.16738307304E+04  0.17351406805E+04  0.15294330000E+03 0.  0.
<mgrwt>
<rscale>  0 0.68709120E+03</rscale>
<asrwt>0</asrwt>
<pdfrwt beam="1">  1        2 0.28601847E+00 0.78703394E+03</pdfrwt>
<pdfrwt beam="2">  1       -2 0.15878241E+00 0.78703394E+03</pdfrwt>
<totfact> 0.21162373E+00</totfact>
</mgrwt>
</event>
<event>
 4    2  0.4063100E-007  0.8352434E+03  0.7818608E-02  0.9639215E-01
         -2   -1    0    0    0  501 -0.00000000000E+00  0.00000000000E+00  0.75349347524E+03  0.75349347525E+03  0.25500000000E-02 0.  1.
          2   -1    0    0  501    0  0.00000000000E+00 -0.00000000000E+00 -0.28836703948E+04  0.28836703948E+04  0.25500000000E-02 0. -1.
    8880023    1    1    2    0    0 -0.27005459030E+03  0.43691176844E+03  0.48621025997E+03  0.96645330892E+03  0.65864270000E+03 0.  1.
    8880022    1    1    2    0    0  0.27005459030E+03 -0.43691176844E+03 -0.26163871796E+04  0.26707105612E+04  0.15294330000E+03 0.  0.
<mgrwt>
<rscale>  0 0.74754152E+03</rscale>
<asrwt>0</asrwt>
<pdfrwt beam="1">  1        2 0.44364159E+00 0.83524343E+03</pdfrwt>
<pdfrwt beam="2">  1       -2 0.11592207E+00 0.83524343E+03</pdfrwt>
<totfact> 0.12428703E+00</totfact>
</mgrwt>
</event>
<event>
 4    2  0.3855935E-007  0.6779049E+03  0.7818608E-02  0.1010534E+00
         -2   -1    0    0    0  501 -0.00000000000E+00  0.00000000000E+00  0.27435208308E+03  0.27435208309E+03  0.25500000000E-02 0.  1.
          2   -1    0    0  501    0  0.00000000000E+00 -0.00000000000E+00 -0.12996799023E+04  0.12996799023E+04  0.25500000000E-02 0. -1.
    8880023    1    1    2    0    0  0.11134789639E+03 -0.11552678140E+03 -0.18179201396E+03  0.70185706084E+03  0.65864270000E+03 0.  1.
    8880022    1    1    2    0    0 -0.11134789639E+03  0.11552678140E+03 -0.84353580530E+03  0.87217492459E+03  0.15294330000E+03 0.  0.
<mgrwt>
<rscale>  0 0.51262765E+03</rscale>
<asrwt>0</asrwt>
<pdfrwt beam="1">  1        2 0.19995075E+00 0.67790486E+03</pdfrwt>
<pdfrwt beam="2">  1       -2 0.42208013E-01 0.67790486E+03</pdfrwt>
<totfact> 0.90038241E+01</totfact>
</mgrwt>
</event>
<event>
 4    2  0.3855935E-007  0.8196228E+03  0.7818608E-02  0.9669871E-01
         -2   -1    0    0    0  501 -0.00000000000E+00  0.00000000000E+00  0.10140637505E+04  0.10140637506E+04  0.25500000000E-02 0.  1.
          2   -1    0    0  501    0  0.00000000000E+00 -0.00000000000E+00 -0.59321810664E+03  0.59321810665E+03  0.25500000000E-02 0. -1.
    8880023    1    1    2    0    0 -0.56889660231E+02  0.48449452360E+03  0.65092834397E+03  0.10466562435E+04  0.65864270000E+03 0.  0.
    8880022    1    1    2    0    0  0.56889660231E+02 -0.48449452360E+03 -0.23008270006E+03  0.56062561369E+03  0.15294330000E+03 0.  0.
<mgrwt>
<rscale>  0 0.72839349E+03</rscale>
<asrwt>0</asrwt>
<pdfrwt beam="1">  1        2 0.91264325E-01 0.81962283E+03</pdfrwt>
<pdfrwt beam="2">  1       -2 0.15600981E+00 0.81962283E+03</pdfrwt>
<totfact> 0.13675202E+01</totfact>
</mgrwt>
</event>
<event>
 4    2  0.3855935E-007  0.2744816E+04  0.7818608E-02  0.8326726E-01
         -2   -1    0    0    0  501 -0.00000000000E+00  0.00000000000E+00  0.36708198180E+04  0.36708198180E+04  0.25500000000E-02 0.  1.
          2   -1    0    0  501    0  0.00000000000E+00 -0.00000000000E+00 -0.27474650739E+04  0.27474650739E+04  0.25500000000E-02 0. -1.
    8880023    1    1    2    0    0 -0.41703091260E+03 -0.26317843603E+04  0.21444593253E+04  0.34832053780E+04  0.65864270000E+03 0.  0.
    8880022    1    1    2    0    0  0.41703091260E+03  0.26317843603E+04 -0.12211045812E+04  0.29350795138E+04  0.15294330000E+03 0.  0.
<mgrwt>
<rscale>  0 0.27256640E+04</rscale>
<asrwt>0</asrwt>
<pdfrwt beam="1">  1        2 0.42268694E+00 0.27448158E+04</pdfrwt>
<pdfrwt beam="2">  1       -2 0.56474151E+00 0.27448158E+04</pdfrwt>
<totfact> 0.14346924E-03</totfact>
</mgrwt>
</event>
<event>
 4    2  0.3855935E-007  0.6719672E+03  0.7818608E-02  0.1014290E+00
          2   -1    0    0  501    0  0.00000000000E+00  0.00000000000E+00  0.16763230153E+03  0.16763230155E+03  0.25500000000E-02 0. -1.
         -2   -1    0    0    0  501 -0.00000000000E+00 -0.00000000000E+00 -0.18237614022E+04  0.18237614022E+04  0.25500000000E-02 0.  1.
    8880023    1    1    2    0    0  0.10640617652E+03 -0.80046847866E+02 -0.16575782076E+04  0.17886043422E+04  0.65864270000E+03 0.  1.
    8880022    1    1    2    0    0 -0.10640617652E+03  0.80046847866E+02  0.14491069044E+01  0.20278936160E+03  0.15294330000E+03 0.  0.
<mgrwt>
<rscale>  0 0.49804616E+03</rscale>
<asrwt>0</asrwt>
<pdfrwt beam="1">  1        2 0.25789586E-01 0.67196725E+03</pdfrwt>
<pdfrwt beam="2">  1       -2 0.28057866E+00 0.67196725E+03</pdfrwt>
<totfact> 0.92108353E+00</totfact>
</mgrwt>
</event>
<event>
 4    2  0.4200319E-007  0.9581473E+03  0.7818608E-02  0.9438488E-01
         -2   -1    0    0    0  501 -0.00000000000E+00  0.00000000000E+00  0.12870178572E+04  0.12870178572E+04  0.25500000000E-02 0.  1.
          2   -1    0    0  501    0  0.00000000000E+00 -0.00000000000E+00 -0.21144422063E+04  0.21144422063E+04  0.25500000000E-02 0. -1.
    8880023    1    1    2    0    0  0.56446213911E+03  0.40696255045E+03  0.10331952210E+04  0.14090914075E+04  0.65864270000E+03 0.  1.
    8880022    1    1    2    0    0 -0.56446213911E+03 -0.40696255045E+03 -0.18606195700E+04  0.19923686559E+04  0.15294330000E+03 0.  0.
<mgrwt>
<rscale>  0 0.88974871E+03</rscale>
<asrwt>0</asrwt>
<pdfrwt beam="1">  1        2 0.32529880E+00 0.95814729E+03</pdfrwt>
<pdfrwt beam="2">  1       -2 0.19800275E+00 0.95814729E+03</pdfrwt>
<totfact> 0.79609308E-01</totfact>
</mgrwt>
</event>
<event>
 4    2  0.3855935E-007  0.7407900E+03  0.7818608E-02  0.9857652E-01
          2   -1    0    0  501    0  0.00000000000E+00  0.00000000000E+00  0.47647648012E+04  0.47647648012E+04  0.25500000000E-02 0. -1.
         -2   -1    0    0    0  501 -0.00000000000E+00 -0.00000000000E+00 -0.64987590316E+03  0.64987590317E+03  0.25500000000E-02 0.  1.
    8880023    1    1    2    0    0 -0.31984798272E+03 -0.11250288919E+03 -0.42867257464E+03  0.85587967299E+03  0.65864270000E+03 0.  1.
    8880022    1    1    2    0    0  0.31984798272E+03  0.11250288919E+03  0.45435614727E+04  0.45587610314E+04  0.15294330000E+03 0.  0.
<mgrwt>
<rscale>  0 0.62358296E+03</rscale>
<asrwt>0</asrwt>
<pdfrwt beam="1">  1        2 0.73304070E+00 0.74079001E+03</pdfrwt>
<pdfrwt beam="2">  1       -2 0.99980913E-01 0.74079001E+03</pdfrwt>
<totfact> 0.62959958E-02</totfact>
</mgrwt>
</event>
<event>
 4    2  0.3855935E-007  0.8234246E+03  0.7818608E-02  0.9662264E-01
         -2   -1    0    0    0  501 -0.00000000000E+00  0.00000000000E+00  0.52426537536E+03  0.52426537536E+03  0.25500000000E-02 0.  1.
          2   -1    0    0  501    0  0.00000000000E+00 -0.00000000000E+00 -0.12017625666E+04  0.12017625666E+04  0.25500000000E-02 0. -1.
    8880023    1    1    2    0    0 -0.49263245433E+03 -0.39129433362E+02  0.59529579374E+02  0.82557363372E+03  0.65864270000E+03 0.  1.
    8880022    1    1    2    0    0  0.49263245433E+03  0.39129433362E+02 -0.73702677061E+03  0.90045430824E+03  0.15294330000E+03 0.  0.
<mgrwt>
<rscale>  0 0.73308708E+03</rscale>
<asrwt>0</asrwt>
<pdfrwt beam="1">  1        2 0.18488655E+00 0.82342459E+03</pdfrwt>
<pdfrwt beam="2">  1       -2 0.80656212E-01 0.82342459E+03</pdfrwt>
<totfact> 0.25931276E+01</totfact>
</mgrwt>
</event>
<event>
 4    2  0.3855935E-007  0.7390057E+03  0.7818608E-02  0.9862853E-01
         -2   -1    0    0    0  501 -0.00000000000E+00  0.00000000000E+00  0.16408354048E+03  0.16408354050E+03  0.25500000000E-02 0.  1.
          2   -1    0    0  501    0  0.00000000000E+00 -0.00000000000E+00 -0.38221761304E+04  0.38221761304E+04  0.25500000000E-02 0. -1.
    8880023    1    1    2    0    0 -0.32133635195E+03 -0.95195181939E+02 -0.74285186858E+03  0.10478350436E+04  0.65864270000E+03 0.  1.
    8880022    1    1    2    0    0  0.32133635195E+03  0.95195181939E+02 -0.29152407213E+04  0.29384246273E+04  0.15294330000E+03 0.  0.
<mgrwt>
<rscale>  0 0.62095859E+03</rscale>
<asrwt>0</asrwt>
<pdfrwt beam="1">  1        2 0.58802703E+00 0.73900567E+03</pdfrwt>
<pdfrwt beam="2">  1       -2 0.25243625E-01 0.73900567E+03</pdfrwt>
<totfact> 0.72972405E+00</totfact>
</mgrwt>
</event>
<event>
 4    2  0.3855935E-007  0.7643270E+03  0.7818608E-02  0.9794032E-01
          2   -1    0    0  501    0  0.00000000000E+00  0.00000000000E+00  0.13292987298E+04  0.13292987298E+04  0.25500000000E-02 0. -1.
         -2   -1    0    0    0  501 -0.00000000000E+00 -0.00000000000E+00 -0.53023549674E+03  0.53023549674E+03  0.25500000000E-02 0.  1.
    8880023    1    1    2    0    0 -0.38418927751E+03  0.52764704773E+02  0.11041981128E+04  0.13429256098E+04  0.65864270000E+03 0. -1.
    8880022    1    1    2    0    0  0.38418927751E+03 -0.52764704773E+02 -0.30513487972E+03  0.51660861671E+03  0.15294330000E+03 0.  0.
<mgrwt>
<rscale>  0 0.65683832E+03</rscale>
<asrwt>0</asrwt>
<pdfrwt beam="1">  1        2 0.20450749E+00 0.76432697E+03</pdfrwt>
<pdfrwt beam="2">  1       -2 0.81574693E-01 0.76432697E+03</pdfrwt>
<totfact> 0.21432563E+01</totfact>
</mgrwt>
</event>
<event>
 4    2  0.3855935E-007  0.6814233E+03  0.7818608E-02  0.1008530E+00
          2   -1    0    0  501    0  0.00000000000E+00  0.00000000000E+00  0.11638449682E+04  0.11638449682E+04  0.25500000000E-02 0. -1.
         -2   -1    0    0    0  501 -0.00000000000E+00 -0.00000000000E+00 -0.24661104323E+03  0.24661104325E+03  0.25500000000E-02 0.  1.
    8880023    1    1    2    0    0 -0.97279874816E+02 -0.14513498792E+03  0.28807447671E+03  0.73981392874E+03  0.65864270000E+03 0.  1.
    8880022    1    1    2    0    0  0.97279874816E+02  0.14513498792E+03  0.62915944830E+03  0.67064208276E+03  0.15294330000E+03 0.  0.
<mgrwt>
<rscale>  0 0.52063177E+03</rscale>
<asrwt>0</asrwt>
<pdfrwt beam="1">  1        2 0.17905307E+00 0.68142332E+03</pdfrwt>
<pdfrwt beam="2">  1       -2 0.37940161E-01 0.68142332E+03</pdfrwt>
<totfact> 0.13301857E+02</totfact>
</mgrwt>
</event>
<event>
 4    2  0.3855935E-007  0.9041252E+03  0.7818608E-02  0.9519441E-01
          2   -1    0    0  501    0  0.00000000000E+00  0.00000000000E+00  0.10405912223E+04  0.10405912223E+04  0.25500000000E-02 0. -1.
         -2   -1    0    0    0  501 -0.00000000000E+00 -0.00000000000E+00 -0.91296488281E+03  0.91296488281E+03  0.25500000000E-02 0.  1.
    8880023    1    1    2    0    0 -0.14780309913E+03  0.60148690754E+03 -0.52121290823E+03  0.10436021071E+04  0.65864270000E+03 0.  0.
    8880022    1    1    2    0    0  0.14780309913E+03 -0.60148690754E+03  0.64883924777E+03  0.90995399802E+03  0.15294330000E+03 0.  0.
<mgrwt>
<rscale>  0 0.82865535E+03</rscale>
<asrwt>0</asrwt>
<pdfrwt beam="1">  1        2 0.16009096E+00 0.90412525E+03</pdfrwt>
<pdfrwt beam="2">  1       -2 0.14045614E+00 0.90412525E+03</pdfrwt>
<totfact> 0.84582045E+00</totfact>
</mgrwt>
</event>
<event>
 4    2  0.3855935E-007  0.6709134E+03  0.7818608E-02  0.1015016E+00
          2   -1    0    0  501    0  0.00000000000E+00  0.00000000000E+00  0.11620637275E+04  0.11620637275E+04  0.25500000000E-02 0. -1.
         -2   -1    0    0    0  501 -0.00000000000E+00 -0.00000000000E+00 -0.16301130989E+03  0.16301130991E+03  0.25500000000E-02 0.  1.
    8880023    1    1    2    0    0 -0.42737338039E+02  0.12036645172E+03  0.75566060128E+03  0.10105185369E+04  0.65864270000E+03 0.  0.
    8880022    1    1    2    0    0  0.42737338039E+02 -0.12036645172E+03  0.24339181629E+03  0.31455650052E+03  0.15294330000E+03 0. -1.
<mgrwt>
<rscale>  0 0.49528726E+03</rscale>
<asrwt>0</asrwt>
<pdfrwt beam="1">  1        2 0.17877902E+00 0.67091338E+03</pdfrwt>
<pdfrwt beam="2">  1       -2 0.25078664E-01 0.67091338E+03</pdfrwt>
<totfact> 0.28853314E+02</totfact>
</mgrwt>
</event>
<event>
 4    2  0.3855935E-007  0.1039654E+04  0.7818608E-02  0.9331423E-01
         -2   -1    0    0    0  501 -0.00000000000E+00  0.00000000000E+00  0.72612875443E+03  0.72612875443E+03  0.25500000000E-02 0.  1.
          2   -1    0    0  501    0  0.00000000000E+00 -0.00000000000E+00 -0.19333283199E+04  0.19333283199E+04  0.25500000000E-02 0. -1.
    8880023    1    1    2    0    0  0.77891431790E+03  0.20090408321E+03  0.17368184517E+03  0.10540614569E+04  0.65864270000E+03 0.  0.
    8880022    1    1    2    0    0 -0.77891431790E+03 -0.20090408321E+03 -0.13808814107E+04  0.16053956175E+04  0.15294330000E+03 0.  0.
<mgrwt>
<rscale>  0 0.97940727E+03</rscale>
<asrwt>0</asrwt>
<pdfrwt beam="1">  1        2 0.29743512E+00 0.10396539E+04</pdfrwt>
<pdfrwt beam="2">  1       -2 0.11171212E+00 0.10396539E+04</pdfrwt>
<totfact> 0.45774645E+00</totfact>
</mgrwt>
</event>
<event>
 4    2  0.3855935E-007  0.7539166E+03  0.7818608E-02  0.9821119E-01
         -2   -1    0    0    0  501 -0.00000000000E+00  0.00000000000E+00  0.13436702025E+04  0.13436702025E+04  0.25500000000E-02 0.  1.
          2   -1    0    0  501    0  0.00000000000E+00 -0.00000000000E+00 -0.93924680901E+03  0.93924680901E+03  0.25500000000E-02 0. -1.
    8880023    1    1    2    0    0 -0.27707830393E+03  0.24043219375E+03  0.11864283602E+04  0.14057035557E+04  0.65864270000E+03 0.  0.
    8880022    1    1    2    0    0  0.27707830393E+03 -0.24043219375E+03 -0.78200496665E+03  0.87721345589E+03  0.15294330000E+03 0. -1.
<mgrwt>
<rscale>  0 0.64241383E+03</rscale>
<asrwt>0</asrwt>
<pdfrwt beam="1">  1        2 0.14449951E+00 0.75391660E+03</pdfrwt>
<pdfrwt beam="2">  1       -2 0.20671849E+00 0.75391660E+03</pdfrwt>
<totfact> 0.33976694E+00</totfact>
</mgrwt>
</event>
<event>
 4    2  0.3855935E-007  0.7348560E+03  0.7818608E-02  0.9875192E-01
          2   -1    0    0  501    0  0.00000000000E+00  0.00000000000E+00  0.18736060104E+04  0.18736060104E+04  0.25500000000E-02 0. -1.
         -2   -1    0    0    0  501 -0.00000000000E+00 -0.00000000000E+00 -0.39860101670E+03  0.39860101671E+03  0.25500000000E-02 0.  1.
    8880023    1    1    2    0    0 -0.26030844132E+03 -0.19606815746E+03 -0.19341273795E+02  0.73511053463E+03  0.65864270000E+03 0.  0.
    8880022    1    1    2    0    0  0.26030844132E+03  0.19606815746E+03  0.14943462675E+04  0.15370964925E+04  0.15294330000E+03 0.  0.
<mgrwt>
<rscale>  0 0.61478771E+03</rscale>
<asrwt>0</asrwt>
<pdfrwt beam="1">  1        2 0.28824706E+00 0.73485605E+03</pdfrwt>
<pdfrwt beam="2">  1       -2 0.61323236E-01 0.73485605E+03</pdfrwt>
<totfact> 0.20070103E+01</totfact>
</mgrwt>
</event>
<event>
 4    2  0.3855935E-007  0.9516461E+03  0.7818608E-02  0.9447750E-01
         -2   -1    0    0    0  501 -0.00000000000E+00  0.00000000000E+00  0.66127723426E+03  0.66127723427E+03  0.25500000000E-02 0.  1.
          2   -1    0    0  501    0  0.00000000000E+00 -0.00000000000E+00 -0.28388655339E+04  0.28388655339E+04  0.25500000000E-02 0. -1.
    8880023    1    1    2    0    0  0.69841796195E+02  0.68333172883E+03  0.24064318965E+03  0.98160046817E+03  0.65864270000E+03 0.  1.
    8880022    1    1    2    0    0 -0.69841796195E+02 -0.68333172883E+03 -0.24182314893E+04  0.25185423000E+04  0.15294330000E+03 0.  0.
<mgrwt>
<rscale>  0 0.88248124E+03</rscale>
<asrwt>0</asrwt>
<pdfrwt beam="1">  1        2 0.43674854E+00 0.95164612E+03</pdfrwt>
<pdfrwt beam="2">  1       -2 0.10173496E+00 0.95164612E+03</pdfrwt>
<totfact> 0.17769751E+00</totfact>
</mgrwt>
</event>
<event>
 4    2  0.3855935E-007  0.8481755E+03  0.7818608E-02  0.9614953E-01
          2   -1    0    0  501    0  0.00000000000E+00  0.00000000000E+00  0.16499639910E+04  0.16499639910E+04  0.25500000000E-02 0. -1.
         -2   -1    0    0    0  501 -0.00000000000E+00 -0.00000000000E+00 -0.80399227638E+03  0.80399227638E+03  0.25500000000E-02 0.  1.
    8880023    1    1    2    0    0 -0.20531760105E+03  0.49339251471E+03 -0.50914929911E+03  0.98925967568E+03  0.65864270000E+03 0.  1.
    8880022    1    1    2    0    0  0.20531760105E+03 -0.49339251471E+03  0.13551210137E+04  0.14646965917E+04  0.15294330000E+03 0.  0.
<mgrwt>
<rscale>  0 0.76314339E+03</rscale>
<asrwt>0</asrwt>
<pdfrwt beam="1">  1        2 0.25384061E+00 0.84817551E+03</pdfrwt>
<pdfrwt beam="2">  1       -2 0.12369112E+00 0.84817551E+03</pdfrwt>
<totfact> 0.52195235E+00</totfact>
</mgrwt>
</event>
<event>
 4    2  0.3855935E-007  0.6976833E+03  0.7818608E-02  0.1000695E+00
         -2   -1    0    0    0  501 -0.00000000000E+00  0.00000000000E+00  0.24048521081E+03  0.24048521082E+03  0.25500000000E-02 0.  1.
          2   -1    0    0  501    0  0.00000000000E+00 -0.00000000000E+00 -0.11929225930E+04  0.11929225930E+04  0.25500000000E-02 0. -1.
    8880023    1    1    2    0    0 -0.22985576615E+03  0.10865702247E+02 -0.37223105612E+03  0.79077044844E+03  0.65864270000E+03 0.  0.
    8880022    1    1    2    0    0  0.22985576615E+03 -0.10865702247E+02 -0.58020632607E+03  0.64263735539E+03  0.15294330000E+03 0.  0.
<mgrwt>
<rscale>  0 0.55346500E+03</rscale>
<asrwt>0</asrwt>
<pdfrwt beam="1">  1        2 0.18352655E+00 0.69768327E+03</pdfrwt>
<pdfrwt beam="2">  1       -2 0.36997725E-01 0.69768327E+03</pdfrwt>
<totfact> 0.13399756E+02</totfact>
</mgrwt>
</event>
<event>
 4    2  0.3855935E-007  0.1147760E+04  0.7818608E-02  0.9209656E-01
          2   -1    0    0  501    0  0.00000000000E+00  0.00000000000E+00  0.82995494638E+03  0.82995494639E+03  0.25500000000E-02 0. -1.
         -2   -1    0    0    0  501 -0.00000000000E+00 -0.00000000000E+00 -0.13538712371E+04  0.13538712371E+04  0.25500000000E-02 0.  1.
    8880023    1    1    2    0    0 -0.85405257471E+03  0.39260384962E+03 -0.43471316466E+03  0.12273260874E+04  0.65864270000E+03 0. -1.
    8880022    1    1    2    0    0  0.85405257471E+03 -0.39260384962E+03 -0.89203126098E+02  0.95650009610E+03  0.15294330000E+03 0.  0.
<mgrwt>
<rscale>  0 0.10954321E+04</rscale>
<asrwt>0</asrwt>
<pdfrwt beam="1">  1        2 0.12768538E+00 0.11477603E+04</pdfrwt>
<pdfrwt beam="2">  1       -2 0.20828788E+00 0.11477603E+04</pdfrwt>
<totfact> 0.37707074E+00</totfact>
</mgrwt>
</event>
<event>
 4    2  0.3855935E-007  0.7487880E+03  0.7818608E-02  0.9835050E-01
          2   -1    0    0  501    0  0.00000000000E+00  0.00000000000E+00  0.14836035320E+04  0.14836035320E+04  0.25500000000E-02 0. -1.
         -2   -1    0    0    0  501 -0.00000000000E+00 -0.00000000000E+00 -0.30858736560E+03  0.30858736561E+03  0.25500000000E-02 0.  1.
    8880023    1    1    2    0    0 -0.15131217569E+03  0.32245598193E+03  0.25030445531E+03  0.78951615652E+03  0.65864270000E+03 0.  1.
    8880022    1    1    2    0    0  0.15131217569E+03 -0.32245598193E+03  0.92471171104E+03  0.10026747410E+04  0.15294330000E+03 0.  0.
<mgrwt>
<rscale>  0 0.63515005E+03</rscale>
<asrwt>0</asrwt>
<pdfrwt beam="1">  1        2 0.22824670E+00 0.74878798E+03</pdfrwt>
<pdfrwt beam="2">  1       -2 0.47474979E-01 0.74878798E+03</pdfrwt>
<totfact> 0.55680297E+01</totfact>
</mgrwt>
</event>
<event>
 4    2  0.3855935E-007  0.1331251E+04  0.7818608E-02  0.9039031E-01
          2   -1    0    0  501    0  0.00000000000E+00  0.00000000000E+00  0.34948883571E+04  0.34948883571E+04  0.25500000000E-02 0. -1.
         -2   -1    0    0    0  501 -0.00000000000E+00 -0.00000000000E+00 -0.54614426330E+03  0.54614426331E+03  0.25500000000E-02 0.  1.
    8880023    1    1    2    0    0  0.92545583375E+03 -0.69422749251E+03  0.69186769116E+03  0.15003037759E+04  0.65864270000E+03 0.  0.
    8880022    1    1    2    0    0 -0.92545583375E+03  0.69422749251E+03  0.22568764026E+04  0.25407288445E+04  0.15294330000E+03 0.  0.
<mgrwt>
<rscale>  0 0.12881301E+04</rscale>
<asrwt>0</asrwt>
<pdfrwt beam="1">  1        2 0.53767516E+00 0.13312515E+04</pdfrwt>
<pdfrwt beam="2">  1       -2 0.84022190E-01 0.13312515E+04</pdfrwt>
<totfact> 0.99896324E-01</totfact>
</mgrwt>
</event>
<event>
 4    2  0.3855935E-007  0.7217231E+03  0.7818608E-02  0.9916798E-01
          2   -1    0    0  501    0  0.00000000000E+00  0.00000000000E+00  0.15779031417E+04  0.15779031417E+04  0.25500000000E-02 0. -1.
         -2   -1    0    0    0  501 -0.00000000000E+00 -0.00000000000E+00 -0.21626349283E+03  0.21626349284E+03  0.25500000000E-02 0.  1.
    8880023    1    1    2    0    0 -0.27509711090E+03 -0.10675009362E+03  0.52076277124E+03  0.88998768142E+03  0.65864270000E+03 0.  1.
    8880022    1    1    2    0    0  0.27509711090E+03  0.10675009362E+03  0.84087687763E+03  0.90417895311E+03  0.15294330000E+03 0.  0.
<mgrwt>
<rscale>  0 0.59454038E+03</rscale>
<asrwt>0</asrwt>
<pdfrwt beam="1">  1        2 0.24275433E+00 0.72172308E+03</pdfrwt>
<pdfrwt beam="2">  1       -2 0.33271306E-01 0.72172308E+03</pdfrwt>
<totfact> 0.98946912E+01</totfact>
</mgrwt>
</event>
<event>
 4    2  0.3855935E-007  0.8978134E+03  0.7818608E-02  0.9529551E-01
          2   -1    0    0  501    0  0.00000000000E+00  0.00000000000E+00  0.10769789696E+04  0.10769789696E+04  0.25500000000E-02 0. -1.
         -2   -1    0    0    0  501 -0.00000000000E+00 -0.00000000000E+00 -0.94827730631E+03  0.94827730631E+03  0.25500000000E-02 0.  1.
    8880023    1    1    2    0    0 -0.27251887510E+03  0.54588653484E+03 -0.58680855209E+03  0.10725731347E+04  0.65864270000E+03 0.  1.
    8880022    1    1    2    0    0  0.27251887510E+03 -0.54588653484E+03  0.71551021537E+03  0.95268314120E+03  0.15294330000E+03 0.  0.
<mgrwt>
<rscale>  0 0.82139771E+03</rscale>
<asrwt>0</asrwt>
<pdfrwt beam="1">  1        2 0.16568907E+00 0.89781337E+03</pdfrwt>
<pdfrwt beam="2">  1       -2 0.14588882E+00 0.89781337E+03</pdfrwt>
<totfact> 0.72720153E+00</totfact>
</mgrwt>
</event>
<event>
 4    2  0.3855935E-007  0.8610792E+03  0.7818608E-02  0.9591647E-01
         -2   -1    0    0    0  501 -0.00000000000E+00  0.00000000000E+00  0.17767159137E+03  0.17767159139E+03  0.25500000000E-02 0.  1.
          2   -1    0    0  501    0  0.00000000000E+00 -0.00000000000E+00 -0.53928300150E+04  0.53928300150E+04  0.25500000000E-02 0. -1.
    8880023    1    1    2    0    0 -0.48872007245E+03 -0.26229713599E+03 -0.10146806697E+04  0.13308020756E+04  0.65864270000E+03 0.  1.
    8880022    1    1    2    0    0  0.48872007245E+03  0.26229713599E+03 -0.42004777539E+04  0.42396995307E+04  0.15294330000E+03 0.  0.
<mgrwt>
<rscale>  0 0.77851531E+03</rscale>
<asrwt>0</asrwt>
<pdfrwt beam="1">  1        2 0.82966603E+00 0.86107915E+03</pdfrwt>
<pdfrwt beam="2">  1       -2 0.27334095E-01 0.86107915E+03</pdfrwt>
<totfact> 0.13249890E-01</totfact>
</mgrwt>
</event>
<event>
 4    2  0.3855935E-007  0.7119031E+03  0.7818608E-02  0.9951001E-01
         -2   -1    0    0    0  501 -0.00000000000E+00  0.00000000000E+00  0.12269727372E+03  0.12269727375E+03  0.25500000000E-02 0.  1.
          2   -1    0    0  501    0  0.00000000000E+00 -0.00000000000E+00 -0.22817271676E+04  0.22817271676E+04  0.25500000000E-02 0. -1.
    8880023    1    1    2    0    0  0.97936203067E+02 -0.25180227576E+03 -0.11880272641E+04  0.13849963438E+04  0.65864270000E+03 0.  1.
    8880022    1    1    2    0    0 -0.97936203067E+02  0.25180227576E+03 -0.97100262982E+03  0.10194280976E+04  0.15294330000E+03 0.  0.
<mgrwt>
<rscale>  0 0.57851989E+03</rscale>
<asrwt>0</asrwt>
<pdfrwt beam="1">  1        2 0.35103492E+00 0.71190315E+03</pdfrwt>
<pdfrwt beam="2">  1       -2 0.18876505E-01 0.71190315E+03</pdfrwt>
<totfact> 0.11363207E+02</totfact>
</mgrwt>
</event>
<event>
 4    2  0.3855935E-007  0.6858182E+03  0.7818608E-02  0.1006207E+00
          2   -1    0    0  501    0  0.00000000000E+00  0.00000000000E+00  0.10341509749E+04  0.10341509749E+04  0.25500000000E-02 0. -1.
         -2   -1    0    0    0  501 -0.00000000000E+00 -0.00000000000E+00 -0.35793046713E+03  0.35793046714E+03  0.25500000000E-02 0.  1.
    8880023    1    1    2    0    0  0.18749718932E+03 -0.37163950022E+02  0.13890418877E+02  0.68595882178E+03  0.65864270000E+03 0.  1.
    8880022    1    1    2    0    0 -0.18749718932E+03  0.37163950022E+02  0.66233008893E+03  0.70612262030E+03  0.15294330000E+03 0.  0.
<mgrwt>
<rscale>  0 0.53010325E+03</rscale>
<asrwt>0</asrwt>
<pdfrwt beam="1">  1        2 0.15910015E+00 0.68581817E+03</pdfrwt>
<pdfrwt beam="2">  1       -2 0.55066226E-01 0.68581817E+03</pdfrwt>
<totfact> 0.75793822E+01</totfact>
</mgrwt>
</event>
<event>
 4    2  0.3855935E-007  0.8429081E+03  0.7818608E-02  0.9624721E-01
         -2   -1    0    0    0  501 -0.00000000000E+00  0.00000000000E+00  0.83325602867E+03  0.83325602868E+03  0.25500000000E-02 0.  1.
          2   -1    0    0  501    0  0.00000000000E+00 -0.00000000000E+00 -0.10849209988E+04  0.10849209988E+04  0.25500000000E-02 0. -1.
    8880023    1    1    2    0    0 -0.19145598066E+03 -0.48992706577E+03  0.50607866226E+03  0.98316313039E+03  0.65864270000E+03 0.  1.
    8880022    1    1    2    0    0  0.19145598066E+03  0.48992706577E+03 -0.75774363237E+03  0.93501389707E+03  0.15294330000E+03 0.  0.
<mgrwt>
<rscale>  0 0.75681375E+03</rscale>
<asrwt>0</asrwt>
<pdfrwt beam="1">  1        2 0.16691092E+00 0.84290814E+03</pdfrwt>
<pdfrwt beam="2">  1       -2 0.12819324E+00 0.84290814E+03</pdfrwt>
<totfact> 0.10092142E+01</totfact>
</mgrwt>
</event>
<event>
 4    2  0.3855935E-007  0.7416317E+03  0.7818608E-02  0.9855219E-01
          2   -1    0    0  501    0  0.00000000000E+00  0.00000000000E+00  0.18965393557E+04  0.18965393557E+04  0.25500000000E-02 0. -1.
         -2   -1    0    0    0  501 -0.00000000000E+00 -0.00000000000E+00 -0.55397014856E+03  0.55397014857E+03  0.25500000000E-02 0.  1.
    8880023    1    1    2    0    0 -0.22481058312E+03  0.25625691181E+03 -0.27452667429E+03  0.79081129500E+03  0.65864270000E+03 0.  1.
    8880022    1    1    2    0    0  0.22481058312E+03 -0.25625691181E+03  0.16170958814E+04  0.16596982093E+04  0.15294330000E+03 0.  0.
<mgrwt>
<rscale>  0 0.62481512E+03</rscale>
<asrwt>0</asrwt>
<pdfrwt beam="1">  1        2 0.29177528E+00 0.74163172E+03</pdfrwt>
<pdfrwt beam="2">  1       -2 0.85226177E-01 0.74163172E+03</pdfrwt>
<totfact> 0.94477774E+00</totfact>
</mgrwt>
</event>
<event>
 4    2  0.3855935E-007  0.9607654E+03  0.7818608E-02  0.9434791E-01
          2   -1    0    0  501    0  0.00000000000E+00  0.00000000000E+00  0.82333500014E+03  0.82333500014E+03  0.25500000000E-02 0. -1.
         -2   -1    0    0    0  501 -0.00000000000E+00 -0.00000000000E+00 -0.12613077214E+04  0.12613077215E+04  0.25500000000E-02 0.  1.
    8880023    1    1    2    0    0  0.56196719538E+03 -0.41647655827E+03 -0.82886540214E+03  0.12688923963E+04  0.65864270000E+03 0.  1.
    8880022    1    1    2    0    0 -0.56196719538E+03  0.41647655827E+03  0.39089268083E+03  0.81575032529E+03  0.15294330000E+03 0.  0.
<mgrwt>
<rscale>  0 0.89266967E+03</rscale>
<asrwt>0</asrwt>
<pdfrwt beam="1">  1        2 0.12666692E+00 0.96076535E+03</pdfrwt>
<pdfrwt beam="2">  1       -2 0.19404734E+00 0.96076535E+03</pdfrwt>
<totfact> 0.48091497E+00</totfact>
</mgrwt>
</event>
<event>
 4    2  0.3855935E-007  0.9611941E+03  0.7818608E-02  0.9434188E-01
          2   -1    0    0  501    0  0.00000000000E+00  0.00000000000E+00  0.12230726838E+04  0.12230726838E+04  0.25500000000E-02 0. -1.
         -2   -1    0    0    0  501 -0.00000000000E+00 -0.00000000000E+00 -0.66208592554E+03  0.66208592554E+03  0.25500000000E-02 0.  1.
    8880023    1    1    2    0    0  0.69970426229E+03 -0.22313875820E+02 -0.21913945185E+02  0.96144390943E+03  0.65864270000E+03 0.  0.
    8880022    1    1    2    0    0 -0.69970426229E+03  0.22313875820E+02  0.58290070343E+03  0.92371469990E+03  0.15294330000E+03 0.  0.
<mgrwt>
<rscale>  0 0.89314776E+03</rscale>
<asrwt>0</asrwt>
<pdfrwt beam="1">  1        2 0.18816503E+00 0.96119414E+03</pdfrwt>
<pdfrwt beam="2">  1       -2 0.10185937E+00 0.96119414E+03</pdfrwt>
<totfact> 0.14470699E+01</totfact>
</mgrwt>
</event>
<event>
 4    2  0.3855935E-007  0.9629428E+03  0.7818608E-02  0.9431732E-01
         -2   -1    0    0    0  501 -0.00000000000E+00  0.00000000000E+00  0.50040219856E+03  0.50040219856E+03  0.25500000000E-02 0.  1.
          2   -1    0    0  501    0  0.00000000000E+00 -0.00000000000E+00 -0.34656226540E+04  0.34656226540E+04  0.25500000000E-02 0. -1.
    8880023    1    1    2    0    0 -0.76073440073E+02  0.69832761645E+03 -0.50840958961E+02  0.96428400254E+03  0.65864270000E+03 0.  0.
    8880022    1    1    2    0    0  0.76073440073E+02 -0.69832761645E+03 -0.29143794965E+04  0.30017408500E+04  0.15294330000E+03 0.  0.
<mgrwt>
<rscale>  0 0.89509661E+03</rscale>
<asrwt>0</asrwt>
<pdfrwt beam="1">  1        2 0.53317270E+00 0.96294280E+03</pdfrwt>
<pdfrwt beam="2">  1       -2 0.76984956E-01 0.96294280E+03</pdfrwt>
<totfact> 0.13475647E+00</totfact>
</mgrwt>
</event>
<event>
 4    2  0.3855935E-007  0.8445372E+03  0.7818608E-02  0.9621684E-01
          2   -1    0    0  501    0  0.00000000000E+00  0.00000000000E+00  0.28823168730E+04  0.28823168730E+04  0.25500000000E-02 0. -1.
         -2   -1    0    0    0  501 -0.00000000000E+00 -0.00000000000E+00 -0.45856316059E+03  0.45856316060E+03  0.25500000000E-02 0.  1.
    8880023    1    1    2    0    0 -0.52861391186E+03  0.39003089120E+00 -0.11105361900E+02  0.84461017947E+03  0.65864270000E+03 0.  0.
    8880022    1    1    2    0    0  0.52861391186E+03 -0.39003089120E+00  0.24348590743E+04  0.24962698542E+04  0.15294330000E+03 0.  0.
<mgrwt>
<rscale>  0 0.75877488E+03</rscale>
<asrwt>0</asrwt>
<pdfrwt beam="1">  1        2 0.44343337E+00 0.84453717E+03</pdfrwt>
<pdfrwt beam="2">  1       -2 0.70548177E-01 0.84453717E+03</pdfrwt>
<totfact> 0.39312521E+00</totfact>
</mgrwt>
</event>
<event>
 4    2  0.3855935E-007  0.8488962E+03  0.7818608E-02  0.9613628E-01
         -2   -1    0    0    0  501 -0.00000000000E+00  0.00000000000E+00  0.19442117163E+03  0.19442117165E+03  0.25500000000E-02 0.  1.
          2   -1    0    0  501    0  0.00000000000E+00 -0.00000000000E+00 -0.39699279508E+04  0.39699279508E+04  0.25500000000E-02 0. -1.
    8880023    1    1    2    0    0 -0.46204715588E+03 -0.27078960794E+03 -0.90705633060E+03  0.12423268407E+04  0.65864270000E+03 0.  1.
    8880022    1    1    2    0    0  0.46204715588E+03  0.27078960794E+03 -0.28684504486E+04  0.29220222818E+04  0.15294330000E+03 0.  0.
<mgrwt>
<rscale>  0 0.76400687E+03</rscale>
<asrwt>0</asrwt>
<pdfrwt beam="1">  1        2 0.61075809E+00 0.84889622E+03</pdfrwt>
<pdfrwt beam="2">  1       -2 0.29910952E-01 0.84889622E+03</pdfrwt>
<totfact> 0.40336010E+00</totfact>
</mgrwt>
</event>
<event>
 4    2  0.3855935E-007  0.6666755E+03  0.7818608E-02  0.1018167E+00
          2   -1    0    0  501    0  0.00000000000E+00  0.00000000000E+00  0.20653293905E+04  0.20653293905E+04  0.25500000000E-02 0. -1.
         -2   -1    0    0    0  501 -0.00000000000E+00 -0.00000000000E+00 -0.34376272882E+03  0.34376272883E+03  0.25500000000E-02 0.  1.
    8880023    1    1    2    0    0  0.87538805627E+02 -0.54616086410E+02 -0.10964445384E+02  0.66676561452E+03  0.65864270000E+03 0.  1.
    8880022    1    1    2    0    0 -0.87538805627E+02  0.54616086410E+02  0.17325311071E+04  0.17423265048E+04  0.15294330000E+03 0.  0.
<mgrwt>
<rscale>  0 0.48353814E+03</rscale>
<asrwt>0</asrwt>
<pdfrwt beam="1">  1        2 0.31774299E+00 0.66667546E+03</pdfrwt>
<pdfrwt beam="2">  1       -2 0.52886573E-01 0.66667546E+03</pdfrwt>
<totfact> 0.21713803E+01</totfact>
</mgrwt>
</event>
<event>
 4    2  0.3855935E-007  0.7105799E+03  0.7818608E-02  0.9955854E-01
          2   -1    0    0  501    0  0.00000000000E+00  0.00000000000E+00  0.70214372649E+03  0.70214372650E+03  0.25500000000E-02 0. -1.
         -2   -1    0    0    0  501 -0.00000000000E+00 -0.00000000000E+00 -0.36971143626E+03  0.36971143627E+03  0.25500000000E-02 0.  1.
    8880023    1    1    2    0    0  0.26158334085E+03  0.51843171825E+02  0.21007308870E+03  0.74098209663E+03  0.65864270000E+03 0.  0.
    8880022    1    1    2    0    0 -0.26158334085E+03 -0.51843171825E+02  0.12235920154E+03  0.33087306613E+03  0.15294330000E+03 0. -1.
<mgrwt>
<rscale>  0 0.57629075E+03</rscale>
<asrwt>0</asrwt>
<pdfrwt beam="1">  1        2 0.10802211E+00 0.71057988E+03</pdfrwt>
<pdfrwt beam="2">  1       -2 0.56878683E-01 0.71057988E+03</pdfrwt>
<totfact> 0.11992510E+02</totfact>
</mgrwt>
</event>
<event>
 4    2  0.3855935E-007  0.6830691E+03  0.7818608E-02  0.1007638E+00
         -2   -1    0    0    0  501 -0.00000000000E+00  0.00000000000E+00  0.99372248179E+03  0.99372248179E+03  0.25500000000E-02 0.  1.
          2   -1    0    0  501    0  0.00000000000E+00 -0.00000000000E+00 -0.87150205613E+03  0.87150205613E+03  0.25500000000E-02 0. -1.
    8880023    1    1    2    0    0  0.68803702086E+02 -0.16744912428E+03  0.85541653295E+03  0.10946784047E+04  0.65864270000E+03 0.  1.
    8880022    1    1    2    0    0 -0.68803702086E+02  0.16744912428E+03 -0.73319610729E+03  0.77054613321E+03  0.15294330000E+03 0.  0.
<mgrwt>
<rscale>  0 0.52424163E+03</rscale>
<asrwt>0</asrwt>
<pdfrwt beam="1">  1        2 0.13407724E+00 0.68306908E+03</pdfrwt>
<pdfrwt beam="2">  1       -2 0.15288038E+00 0.68306908E+03</pdfrwt>
<totfact> 0.89584581E+00</totfact>
</mgrwt>
</event>
<event>
 4    2  0.3855935E-007  0.6641060E+03  0.7818608E-02  0.1020296E+00
          2   -1    0    0  501    0  0.00000000000E+00  0.00000000000E+00  0.11665868095E+04  0.11665868095E+04  0.25500000000E-02 0. -1.
         -2   -1    0    0    0  501 -0.00000000000E+00 -0.00000000000E+00 -0.19395179976E+03  0.19395179978E+03  0.25500000000E-02 0.  1.
    8880023    1    1    2    0    0  0.15215799452E+02  0.83636345833E+02  0.43189815887E+03  0.79219491591E+03  0.65864270000E+03 0.  1.
    8880022    1    1    2    0    0 -0.15215799452E+02 -0.83636345833E+02  0.54073685085E+03  0.56834369335E+03  0.15294330000E+03 0.  0.
<mgrwt>
<rscale>  0 0.47580119E+03</rscale>
<asrwt>0</asrwt>
<pdfrwt beam="1">  1        2 0.17947489E+00 0.66410599E+03</pdfrwt>
<pdfrwt beam="2">  1       -2 0.29838738E-01 0.66410599E+03</pdfrwt>
<totfact> 0.20887705E+02</totfact>
</mgrwt>
</event>
<event>
 4    2  0.3855935E-007  0.1364198E+04  0.7818608E-02  0.9012013E-01
         -2   -1    0    0    0  501 -0.00000000000E+00  0.00000000000E+00  0.23272960531E+04  0.23272960531E+04  0.25500000000E-02 0.  1.
          2   -1    0    0  501    0  0.00000000000E+00 -0.00000000000E+00 -0.13609426428E+04  0.13609426428E+04  0.25500000000E-02 0. -1.
    8880023    1    1    2    0    0 -0.48859039267E+03  0.10901855750E+04  0.17741603192E+04  0.22380080885E+04  0.65864270000E+03 0.  0.
    8880022    1    1    2    0    0  0.48859039267E+03 -0.10901855750E+04 -0.80780690885E+03  0.14502306074E+04  0.15294330000E+03 0.  0.
<mgrwt>
<rscale>  0 0.13223672E+04</rscale>
<asrwt>0</asrwt>
<pdfrwt beam="1">  1        2 0.20937579E+00 0.13641977E+04</pdfrwt>
<pdfrwt beam="2">  1       -2 0.35804554E+00 0.13641977E+04</pdfrwt>
<totfact> 0.20232887E-01</totfact>
</mgrwt>
</event>
<event>
 4    2  0.3855935E-007  0.6634442E+03  0.7818608E-02  0.1020876E+00
         -2   -1    0    0    0  501 -0.00000000000E+00  0.00000000000E+00  0.18083460807E+03  0.18083460809E+03  0.25500000000E-02 0.  1.
          2   -1    0    0  501    0  0.00000000000E+00 -0.00000000000E+00 -0.98995913803E+03  0.98995913803E+03  0.25500000000E-02 0. -1.
    8880023    1    1    2    0    0 -0.49592290823E+02 -0.62358404805E+02 -0.56221517620E+03  0.86962295081E+03  0.65864270000E+03 0.  1.
    8880022    1    1    2    0    0  0.49592290823E+02  0.62358404805E+02 -0.24690935376E+03  0.30117079531E+03  0.15294330000E+03 0. -1.
<mgrwt>
<rscale>  0 0.47371836E+03</rscale>
<asrwt>0</asrwt>
<pdfrwt beam="1">  1        2 0.15230140E+00 0.66344417E+03</pdfrwt>
<pdfrwt beam="2">  1       -2 0.27820710E-01 0.66344417E+03</pdfrwt>
<totfact> 0.30518520E+02</totfact>
</mgrwt>
</event>
<event>
 4    2  0.3855935E-007  0.7346914E+03  0.7818608E-02  0.9875689E-01
          2   -1    0    0  501    0  0.00000000000E+00  0.00000000000E+00  0.14261171922E+04  0.14261171922E+04  0.25500000000E-02 0. -1.
         -2   -1    0    0    0  501 -0.00000000000E+00 -0.00000000000E+00 -0.11890113855E+04  0.11890113855E+04  0.25500000000E-02 0.  1.
    8880023    1    1    2    0    0 -0.28896200472E+03  0.14987397971E+03 -0.10484324048E+04  0.12802273094E+04  0.65864270000E+03 0.  1.
    8880022    1    1    2    0    0  0.28896200472E+03 -0.14987397971E+03  0.12855382115E+04  0.13349012683E+04  0.15294330000E+03 0.  0.
<mgrwt>
<rscale>  0 0.61454083E+03</rscale>
<asrwt>0</asrwt>
<pdfrwt beam="1">  1        2 0.21940264E+00 0.73469140E+03</pdfrwt>
<pdfrwt beam="2">  1       -2 0.18292483E+00 0.73469140E+03</pdfrwt>
<totfact> 0.24957322E+00</totfact>
</mgrwt>
</event>
<event>
 4    2  0.3855935E-007  0.8287353E+03  0.7818608E-02  0.9651798E-01
         -2   -1    0    0    0  501 -0.00000000000E+00  0.00000000000E+00  0.13574381901E+04  0.13574381901E+04  0.25500000000E-02 0.  1.
          2   -1    0    0  501    0  0.00000000000E+00 -0.00000000000E+00 -0.10405777811E+04  0.10405777811E+04  0.25500000000E-02 0. -1.
    8880023    1    1    2    0    0  0.45230133500E+03  0.22003524752E+03  0.11472076412E+04  0.14152341100E+04  0.65864270000E+03 0.  1.
    8880022    1    1    2    0    0 -0.45230133500E+03 -0.22003524752E+03 -0.83034723214E+03  0.98278186122E+03  0.15294330000E+03 0.  0.
<mgrwt>
<rscale>  0 0.73960686E+03</rscale>
<asrwt>0</asrwt>
<pdfrwt beam="1">  1        2 0.16008889E+00 0.82873531E+03</pdfrwt>
<pdfrwt beam="2">  1       -2 0.20883665E+00 0.82873531E+03</pdfrwt>
<totfact> 0.28045498E+00</totfact>
</mgrwt>
</event>
<event>
 4    2  0.3855935E-007  0.7262970E+03  0.7818608E-02  0.9901828E-01
          2   -1    0    0  501    0  0.00000000000E+00  0.00000000000E+00  0.17539873208E+04  0.17539873208E+04  0.25500000000E-02 0. -1.
         -2   -1    0    0    0  501 -0.00000000000E+00 -0.00000000000E+00 -0.18766956841E+03  0.18766956843E+03  0.25500000000E-02 0.  1.
    8880023    1    1    2    0    0  0.54775415540E+02 -0.30115902640E+03  0.69373071589E+03  0.10043752375E+04  0.65864270000E+03 0.  0.
    8880022    1    1    2    0    0 -0.54775415540E+02  0.30115902640E+03  0.87258703646E+03  0.93728165166E+03  0.15294330000E+03 0.  0.
<mgrwt>
<rscale>  0 0.60172781E+03</rscale>
<asrwt>0</asrwt>
<pdfrwt beam="1">  1        2 0.26984420E+00 0.72629699E+03</pdfrwt>
<pdfrwt beam="2">  1       -2 0.28872242E-01 0.72629699E+03</pdfrwt>
<totfact> 0.10317640E+02</totfact>
</mgrwt>
</event>
<event>
 4    2  0.3855935E-007  0.6935169E+03  0.7818608E-02  0.1002524E+00
          2   -1    0    0  501    0  0.00000000000E+00  0.00000000000E+00  0.18698922121E+04  0.18698922121E+04  0.25500000000E-02 0. -1.
         -2   -1    0    0    0  501 -0.00000000000E+00 -0.00000000000E+00 -0.14407745757E+03  0.14407745760E+03  0.25500000000E-02 0.  1.
    8880023    1    1    2    0    0  0.20921979123E+03  0.58159446742E+02  0.84056032869E+03  0.10897280921E+04  0.65864270000E+03 0.  1.
    8880022    1    1    2    0    0 -0.20921979123E+03 -0.58159446742E+02  0.88525442587E+03  0.92424157763E+03  0.15294330000E+03 0.  0.
<mgrwt>
<rscale>  0 0.54557274E+03</rscale>
<asrwt>0</asrwt>
<pdfrwt beam="1">  1        2 0.28767572E+00 0.69351687E+03</pdfrwt>
<pdfrwt beam="2">  1       -2 0.22165763E-01 0.69351687E+03</pdfrwt>
<totfact> 0.14431559E+02</totfact>
</mgrwt>
</event>
<event>
 4    2  0.3855935E-007  0.6895856E+03  0.7818608E-02  0.1004350E+00
          2   -1    0    0  501    0  0.00000000000E+00  0.00000000000E+00  0.14248378427E+04  0.14248378427E+04  0.25500000000E-02 0. -1.
         -2   -1    0    0    0  501 -0.00000000000E+00 -0.00000000000E+00 -0.59065369901E+03  0.59065369902E+03  0.25500000000E-02 0.  1.
    8880023    1    1    2    0    0 -0.20417055668E+03 -0.56960132179E+01 -0.37137176586E+03  0.78322746091E+03  0.65864270000E+03 0.  1.
    8880022    1    1    2    0    0  0.20417055668E+03  0.56960132179E+01  0.12055559095E+04  0.12322640808E+04  0.15294330000E+03 0.  0.
<mgrwt>
<rscale>  0 0.53783226E+03</rscale>
<asrwt>0</asrwt>
<pdfrwt beam="1">  1        2 0.21920582E+00 0.68958558E+03</pdfrwt>
<pdfrwt beam="2">  1       -2 0.90869801E-01 0.68958558E+03</pdfrwt>
<totfact> 0.14925181E+01</totfact>
</mgrwt>
</event>
<event>
 4    2  0.3855935E-007  0.6588200E+03  0.7818608E-02  0.1025399E+00
          2   -1    0    0  501    0  0.00000000000E+00  0.00000000000E+00  0.10985452521E+04  0.10985452521E+04  0.25500000000E-02 0. -1.
         -2   -1    0    0    0  501 -0.00000000000E+00 -0.00000000000E+00 -0.24455229757E+03  0.24455229758E+03  0.25500000000E-02 0.  1.
    8880023    1    1    2    0    0 -0.12324097650E+02  0.90375965044E+01  0.22590311733E+03  0.69647396665E+03  0.65864270000E+03 0.  1.
    8880022    1    1    2    0    0  0.12324097650E+02 -0.90375965044E+01  0.62808983720E+03  0.64662358304E+03  0.15294330000E+03 0.  0.
<mgrwt>
<rscale>  0 0.45787512E+03</rscale>
<asrwt>0</asrwt>
<pdfrwt beam="1">  1        2 0.16900696E+00 0.65881998E+03</pdfrwt>
<pdfrwt beam="2">  1       -2 0.37623430E-01 0.65881998E+03</pdfrwt>
<totfact> 0.14827589E+02</totfact>
</mgrwt>
</event>
<event>
 4    2  0.3855935E-007  0.6934760E+03  0.7818608E-02  0.1002542E+00
          2   -1    0    0  501    0  0.00000000000E+00  0.00000000000E+00  0.65711107017E+03  0.65711107018E+03  0.25500000000E-02 0. -1.
         -2   -1    0    0    0  501 -0.00000000000E+00 -0.00000000000E+00 -0.10631095338E+04  0.10631095338E+04  0.25500000000E-02 0.  1.
    8880023    1    1    2    0    0  0.10447951530E+03 -0.19021786416E+03 -0.91383312636E+03  0.11471704294E+04  0.65864270000E+03 0.  1.
    8880022    1    1    2    0    0 -0.10447951530E+03  0.19021786416E+03  0.50783466271E+03  0.57305017461E+03  0.15294330000E+03 0.  0.
<mgrwt>
<rscale>  0 0.54549388E+03</rscale>
<asrwt>0</asrwt>
<pdfrwt beam="1">  1        2 0.10109401E+00 0.69347604E+03</pdfrwt>
<pdfrwt beam="2">  1       -2 0.16355531E+00 0.69347604E+03</pdfrwt>
<totfact> 0.10757753E+01</totfact>
</mgrwt>
</event>
<event>
 4    2  0.3855935E-007  0.7529061E+03  0.7818608E-02  0.9823831E-01
         -2   -1    0    0    0  501 -0.00000000000E+00  0.00000000000E+00  0.13962948987E+04  0.13962948987E+04  0.25500000000E-02 0.  1.
          2   -1    0    0  501    0  0.00000000000E+00 -0.00000000000E+00 -0.24059826585E+03  0.24059826587E+03  0.25500000000E-02 0. -1.
    8880023    1    1    2    0    0 -0.35887522393E+03 -0.65314779017E+02  0.86024217355E+03  0.11431903823E+04  0.65864270000E+03 0.  0.
    8880022    1    1    2    0    0  0.35887522393E+03  0.65314779017E+02  0.29545445930E+03  0.49370278229E+03  0.15294330000E+03 0.  0.
<mgrwt>
<rscale>  0 0.64099149E+03</rscale>
<asrwt>0</asrwt>
<pdfrwt beam="1">  1        2 0.37015118E-01 0.75290614E+03</pdfrwt>
<pdfrwt beam="2">  1       -2 0.21481460E+00 0.75290614E+03</pdfrwt>
<totfact> 0.15265300E+01</totfact>
</mgrwt>
</event>
<event>
 4    2  0.3855935E-007  0.7123656E+03  0.7818608E-02  0.9949319E-01
         -2   -1    0    0    0  501 -0.00000000000E+00  0.00000000000E+00  0.23714100373E+03  0.23714100374E+03  0.25500000000E-02 0.  1.
          2   -1    0    0  501    0  0.00000000000E+00 -0.00000000000E+00 -0.20553398937E+04  0.20553398937E+04  0.25500000000E-02 0. -1.
    8880023    1    1    2    0    0 -0.21290806849E+03 -0.16829926041E+03 -0.35393627270E+03  0.79544677891E+03  0.65864270000E+03 0.  1.
    8880022    1    1    2    0    0  0.21290806849E+03  0.16829926041E+03 -0.14642626172E+04  0.14970341185E+04  0.15294330000E+03 0.  0.
<mgrwt>
<rscale>  0 0.57929459E+03</rscale>
<asrwt>0</asrwt>
<pdfrwt beam="1">  1        2 0.31620613E+00 0.71236556E+03</pdfrwt>
<pdfrwt beam="2">  1       -2 0.36483233E-01 0.71236556E+03</pdfrwt>
<totfact> 0.45619876E+01</totfact>
</mgrwt>
</event>
<event>
 4    2  0.3855935E-007  0.6832794E+03  0.7818608E-02  0.1007526E+00
         -2   -1    0    0    0  501 -0.00000000000E+00  0.00000000000E+00  0.10687024679E+03  0.10687024682E+03  0.25500000000E-02 0.  1.
          2   -1    0    0  501    0  0.00000000000E+00 -0.00000000000E+00 -0.23419001715E+04  0.23419001715E+04  0.25500000000E-02 0. -1.
    8880023    1    1    2    0    0 -0.17302558242E+03 -0.55881061000E+02 -0.11469592012E+04  0.13350603584E+04  0.65864270000E+03 0.  1.
    8880022    1    1    2    0    0  0.17302558242E+03  0.55881061000E+02 -0.10880707236E+04  0.11137100600E+04  0.15294330000E+03 0.  0.
<mgrwt>
<rscale>  0 0.52469733E+03</rscale>
<asrwt>0</asrwt>
<pdfrwt beam="1">  1        2 0.36029230E+00 0.68327941E+03</pdfrwt>
<pdfrwt beam="2">  1       -2 0.16441578E-01 0.68327941E+03</pdfrwt>
<totfact> 0.13389307E+02</totfact>
</mgrwt>
</event>
<event>
 4    2  0.3855935E-007  0.6960580E+03  0.7818608E-02  0.1001396E+00
          2   -1    0    0  501    0  0.00000000000E+00  0.00000000000E+00  0.29939031336E+04  0.29939031337E+04  0.25500000000E-02 0. -1.
         -2   -1    0    0    0  501 -0.00000000000E+00 -0.00000000000E+00 -0.11977148876E+03  0.11977148879E+03  0.25500000000E-02 0.  1.
    8880023    1    1    2    0    0  0.12534518342E+03  0.18701638644E+03  0.99127823281E+03  0.12112511238E+04  0.65864270000E+03 0.  1.
    8880022    1    1    2    0    0 -0.12534518342E+03 -0.18701638644E+03  0.18828534121E+04  0.19024234986E+04  0.15294330000E+03 0.  0.
<mgrwt>
<rscale>  0 0.55042148E+03</rscale>
<asrwt>0</asrwt>
<pdfrwt beam="1">  1        2 0.46060049E+00 0.69605801E+03</pdfrwt>
<pdfrwt beam="2">  1       -2 0.18426383E-01 0.69605801E+03</pdfrwt>
<totfact> 0.46032988E+01</totfact>
</mgrwt>
</event>
<event>
 4    2  0.3855935E-007  0.6809100E+03  0.7818608E-02  0.1008814E+00
         -2   -1    0    0    0  501 -0.00000000000E+00  0.00000000000E+00  0.33915374013E+03  0.33915374014E+03  0.25500000000E-02 0.  1.
          2   -1    0    0  501    0  0.00000000000E+00 -0.00000000000E+00 -0.20059320349E+04  0.20059320349E+04  0.25500000000E-02 0. -1.
    8880023    1    1    2    0    0  0.17269971867E+03  0.17467379972E+01 -0.18935780635E+02  0.68117326282E+03  0.65864270000E+03 0.  1.
    8880022    1    1    2    0    0 -0.17269971867E+03 -0.17467379972E+01 -0.16478425141E+04  0.16639125122E+04  0.15294330000E+03 0.  0.
<mgrwt>
<rscale>  0 0.51948923E+03</rscale>
<asrwt>0</asrwt>
<pdfrwt beam="1">  1        2 0.30860492E+00 0.68091002E+03</pdfrwt>
<pdfrwt beam="2">  1       -2 0.52177500E-01 0.68091002E+03</pdfrwt>
<totfact> 0.23997375E+01</totfact>
</mgrwt>
</event>
<event>
 4    2  0.3855935E-007  0.8693996E+03  0.7818608E-02  0.9577057E-01
         -2   -1    0    0    0  501 -0.00000000000E+00  0.00000000000E+00  0.85799194326E+03  0.85799194327E+03  0.25500000000E-02 0.  1.
          2   -1    0    0  501    0  0.00000000000E+00 -0.00000000000E+00 -0.28344602015E+04  0.28344602015E+04  0.25500000000E-02 0. -1.
    8880023    1    1    2    0    0 -0.44047359218E+03 -0.35781076603E+03  0.59575513758E+03  0.10539354439E+04  0.65864270000E+03 0.  0.
    8880022    1    1    2    0    0  0.44047359218E+03  0.35781076603E+03 -0.25722233958E+04  0.26385167008E+04  0.15294330000E+03 0.  0.
<mgrwt>
<rscale>  0 0.78833485E+03</rscale>
<asrwt>0</asrwt>
<pdfrwt beam="1">  1        2 0.43607080E+00 0.86939964E+03</pdfrwt>
<pdfrwt beam="2">  1       -2 0.13199876E+00 0.86939964E+03</pdfrwt>
<totfact> 0.95462638E-01</totfact>
</mgrwt>
</event>
<event>
 4    2  0.3855935E-007  0.9000350E+03  0.7818608E-02  0.9525975E-01
          2   -1    0    0  501    0  0.00000000000E+00  0.00000000000E+00  0.32586367292E+04  0.32586367292E+04  0.25500000000E-02 0. -1.
         -2   -1    0    0    0  501 -0.00000000000E+00 -0.00000000000E+00 -0.29242808356E+03  0.29242808358E+03  0.25500000000E-02 0.  1.
    8880023    1    1    2    0    0 -0.60455932587E+03  0.10373477362E+03  0.55282430863E+03  0.10562565049E+04  0.65864270000E+03 0.  1.
    8880022    1    1    2    0    0  0.60455932587E+03 -0.10373477362E+03  0.24133843370E+04  0.24948083079E+04  0.15294330000E+03 0.  0.
<mgrwt>
<rscale>  0 0.82395558E+03</rscale>
<asrwt>0</asrwt>
<pdfrwt beam="1">  1        2 0.50132870E+00 0.90003505E+03</pdfrwt>
<pdfrwt beam="2">  1       -2 0.44988938E-01 0.90003505E+03</pdfrwt>
<totfact> 0.58150910E+00</totfact>
</mgrwt>
</event>
<event>
 4    2  0.3855935E-007  0.7540270E+03  0.7818608E-02  0.9820824E-01
          2   -1    0    0  501    0  0.00000000000E+00  0.00000000000E+00  0.22511685973E+04  0.22511685973E+04  0.25500000000E-02 0. -1.
         -2   -1    0    0    0  501 -0.00000000000E+00 -0.00000000000E+00 -0.33739837937E+03  0.33739837938E+03  0.25500000000E-02 0.  1.
    8880023    1    1    2    0    0  0.23543890540E+02  0.36632253201E+03  0.13516210086E+03  0.76604537203E+03  0.65864270000E+03 0.  1.
    8880022    1    1    2    0    0 -0.23543890540E+02 -0.36632253201E+03  0.17786081170E+04  0.18225216046E+04  0.15294330000E+03 0. -1.
<mgrwt>
<rscale>  0 0.64256899E+03</rscale>
<asrwt>0</asrwt>
<pdfrwt beam="1">  1        2 0.34633363E+00 0.75402700E+03</pdfrwt>
<pdfrwt beam="2">  1       -2 0.51907443E-01 0.75402700E+03</pdfrwt>
<totfact> 0.17604116E+01</totfact>
</mgrwt>
</event>
<event>
 4    2  0.3855935E-007  0.9503542E+03  0.7818608E-02  0.9449605E-01
         -2   -1    0    0    0  501 -0.00000000000E+00  0.00000000000E+00  0.17679461204E+03  0.17679461205E+03  0.25500000000E-02 0.  1.
          2   -1    0    0  501    0  0.00000000000E+00 -0.00000000000E+00 -0.41235234697E+04  0.41235234697E+04  0.25500000000E-02 0. -1.
    8880023    1    1    2    0    0 -0.29187550197E+03 -0.61981574634E+03 -0.17139745534E+04  0.19598167884E+04  0.65864270000E+03 0.  0.
    8880022    1    1    2    0    0  0.29187550197E+03  0.61981574634E+03 -0.22327543043E+04  0.23405012934E+04  0.15294330000E+03 0.  1.
<mgrwt>
<rscale>  0 0.88103456E+03</rscale>
<asrwt>0</asrwt>
<pdfrwt beam="1">  1        2 0.63438816E+00 0.95035418E+03</pdfrwt>
<pdfrwt beam="2">  1       -2 0.27199174E-01 0.95035418E+03</pdfrwt>
<totfact> 0.35498518E+00</totfact>
</mgrwt>
</event>
<event>
 4    2  0.3855935E-007  0.7511226E+03  0.7818608E-02  0.9828657E-01
         -2   -1    0    0    0  501 -0.00000000000E+00  0.00000000000E+00  0.15038408166E+04  0.15038408166E+04  0.25500000000E-02 0.  1.
          2   -1    0    0  501    0  0.00000000000E+00 -0.00000000000E+00 -0.12917468810E+04  0.12917468810E+04  0.25500000000E-02 0. -1.
    8880023    1    1    2    0    0  0.30244799944E+03  0.19723119055E+03  0.13758572405E+04  0.15675357372E+04  0.65864270000E+03 0.  1.
    8880022    1    1    2    0    0 -0.30244799944E+03 -0.19723119055E+03 -0.11637633049E+04  0.12280519605E+04  0.15294330000E+03 0.  0.
<mgrwt>
<rscale>  0 0.63847054E+03</rscale>
<asrwt>0</asrwt>
<pdfrwt beam="1">  1        2 0.19873029E+00 0.75112259E+03</pdfrwt>
<pdfrwt beam="2">  1       -2 0.23136012E+00 0.75112259E+03</pdfrwt>
<totfact> 0.14493125E+00</totfact>
</mgrwt>
</event>
<event>
 4    2  0.3855935E-007  0.8187439E+03  0.7818608E-02  0.9671644E-01
          2   -1    0    0  501    0  0.00000000000E+00  0.00000000000E+00  0.11055418086E+04  0.11055418086E+04  0.25500000000E-02 0. -1.
         -2   -1    0    0    0  501 -0.00000000000E+00 -0.00000000000E+00 -0.11713334067E+04  0.11713334067E+04  0.25500000000E-02 0.  1.
    8880023    1    1    2    0    0 -0.48587155038E+03  0.21451615804E+02 -0.95128378579E+03  0.12551025387E+04  0.65864270000E+03 0.  1.
    8880022    1    1    2    0    0  0.48587155038E+03 -0.21451615804E+02  0.88549218762E+03  0.10217726766E+04  0.15294330000E+03 0.  0.
<mgrwt>
<rscale>  0 0.72730511E+03</rscale>
<asrwt>0</asrwt>
<pdfrwt beam="1">  1        2 0.17008335E+00 0.81874388E+03</pdfrwt>
<pdfrwt beam="2">  1       -2 0.18020514E+00 0.81874388E+03</pdfrwt>
<totfact> 0.39578099E+00</totfact>
</mgrwt>
</event>
<event>
 4    2  0.3855935E-007  0.7667424E+03  0.7818608E-02  0.9787955E-01
         -2   -1    0    0    0  501 -0.00000000000E+00  0.00000000000E+00  0.59297358735E+03  0.59297358735E+03  0.25500000000E-02 0.  1.
          2   -1    0    0  501    0  0.00000000000E+00 -0.00000000000E+00 -0.14247521645E+04  0.14247521645E+04  0.25500000000E-02 0. -1.
    8880023    1    1    2    0    0 -0.18111002045E+03 -0.34825693794E+03  0.28976628629E+03  0.81966971474E+03  0.65864270000E+03 0.  0.
    8880022    1    1    2    0    0  0.18111002045E+03  0.34825693794E+03 -0.11215448635E+04  0.11980560371E+04  0.15294330000E+03 0.  0.
<mgrwt>
<rscale>  0 0.66012987E+03</rscale>
<asrwt>0</asrwt>
<pdfrwt beam="1">  1        2 0.21919264E+00 0.76674242E+03</pdfrwt>
<pdfrwt beam="2">  1       -2 0.91226706E-01 0.76674242E+03</pdfrwt>
<totfact> 0.14644985E+01</totfact>
</mgrwt>
</event>
<event>
 4    2  0.3855935E-007  0.7025808E+03  0.7818608E-02  0.9986659E-01
          2   -1    0    0  501    0  0.00000000000E+00  0.00000000000E+00  0.62496980241E+03  0.62496980241E+03  0.25500000000E-02 0. -1.
         -2   -1    0    0    0  501 -0.00000000000E+00 -0.00000000000E+00 -0.39426678491E+03  0.39426678492E+03  0.25500000000E-02 0.  1.
    8880023    1    1    2    0    0  0.20940610024E+03 -0.12632772757E+03  0.19092402486E+03  0.72806029908E+03  0.65864270000E+03 0. -1.
    8880022    1    1    2    0    0 -0.20940610024E+03  0.12632772757E+03  0.39778992629E+02  0.29117628825E+03  0.15294330000E+03 0.  1.
<mgrwt>
<rscale>  0 0.56239113E+03</rscale>
<asrwt>0</asrwt>
<pdfrwt beam="1">  1        2 0.96149200E-01 0.70258083E+03</pdfrwt>
<pdfrwt beam="2">  1       -2 0.60656429E-01 0.70258083E+03</pdfrwt>
<totfact> 0.12109116E+02</totfact>
</mgrwt>
</event>
<event>
 4    2  0.3855935E-007  0.7089124E+03  0.7818608E-02  0.9962062E-01
         -2   -1    0    0    0  501 -0.00000000000E+00  0.00000000000E+00  0.12706174563E+03  0.12706174565E+03  0.25500000000E-02 0.  1.
          2   -1    0    0  501    0  0.00000000000E+00 -0.00000000000E+00 -0.36585519035E+04  0.36585519035E+04  0.25500000000E-02 0. -1.
    8880023    1    1    2    0    0  0.25386243494E+03  0.65577317669E+02 -0.94486779711E+03  0.11812416691E+04  0.65864270000E+03 0.  1.
    8880022    1    1    2    0    0 -0.25386243494E+03 -0.65577317669E+02 -0.25866223607E+04  0.26043719800E+04  0.15294330000E+03 0.  0.
<mgrwt>
<rscale>  0 0.57345502E+03</rscale>
<asrwt>0</asrwt>
<pdfrwt beam="1">  1        2 0.56285406E+00 0.70891235E+03</pdfrwt>
<pdfrwt beam="2">  1       -2 0.19547964E-01 0.70891235E+03</pdfrwt>
<totfact> 0.15199202E+01</totfact>
</mgrwt>
</event>
<event>
 4    2  0.3855935E-007  0.7559708E+03  0.7818608E-02  0.9815653E-01
          2   -1    0    0  501    0  0.00000000000E+00  0.00000000000E+00  0.21800558098E+04  0.21800558098E+04  0.25500000000E-02 0. -1.
         -2   -1    0    0    0  501 -0.00000000000E+00 -0.00000000000E+00 -0.31196173824E+03  0.31196173825E+03  0.25500000000E-02 0.  1.
    8880023    1    1    2    0    0 -0.41572639767E+02 -0.36871849248E+03  0.20794991800E+03  0.78405037193E+03  0.65864270000E+03 0.  1.
    8880022    1    1    2    0    0  0.41572639767E+02  0.36871849248E+03  0.16601441535E+04  0.17079671761E+04  0.15294330000E+03 0.  0.
<mgrwt>
<rscale>  0 0.64529261E+03</rscale>
<asrwt>0</asrwt>
<pdfrwt beam="1">  1        2 0.33539320E+00 0.75597078E+03</pdfrwt>
<pdfrwt beam="2">  1       -2 0.47994114E-01 0.75597078E+03</pdfrwt>
<totfact> 0.22595528E+01</totfact>
</mgrwt>
</event>
<event>
 4    2  0.3855935E-007  0.7974336E+03  0.7818608E-02  0.9716373E-01
         -2   -1    0    0    0  501 -0.00000000000E+00  0.00000000000E+00  0.41668013354E+03  0.41668013355E+03  0.25500000000E-02 0.  1.
          2   -1    0    0  501    0  0.00000000000E+00 -0.00000000000E+00 -0.15101935539E+04  0.15101935539E+04  0.25500000000E-02 0. -1.
    8880023    1    1    2    0    0 -0.41787578941E+03 -0.16574080009E+03 -0.72355269254E+02  0.80070948505E+03  0.65864270000E+03 0.  0.
    8880022    1    1    2    0    0  0.41787578941E+03  0.16574080009E+03 -0.10211581511E+04  0.11261642024E+04  0.15294330000E+03 0.  0.
<mgrwt>
<rscale>  0 0.70050277E+03</rscale>
<asrwt>0</asrwt>
<pdfrwt beam="1">  1        2 0.23233747E+00 0.79743363E+03</pdfrwt>
<pdfrwt beam="2">  1       -2 0.64104636E-01 0.79743363E+03</pdfrwt>
<totfact> 0.28685345E+01</totfact>
</mgrwt>
</event>
<event>
 4    2  0.3855935E-007  0.1282174E+04  0.7818608E-02  0.9081108E-01
          2   -1    0    0  501    0  0.00000000000E+00  0.00000000000E+00  0.19568919538E+04  0.19568919538E+04  0.25500000000E-02 0. -1.
         -2   -1    0    0    0  501 -0.00000000000E+00 -0.00000000000E+00 -0.12411018967E+04  0.12411018967E+04  0.25500000000E-02 0.  1.
    8880023    1    1    2    0    0  0.33873869306E+03 -0.10466215934E+04  0.13961049079E+04  0.18955420813E+04  0.65864270000E+03 0.  0.
    8880022    1    1    2    0    0 -0.33873869306E+03  0.10466215934E+04 -0.68031485079E+03  0.13024517692E+04  0.15294330000E+03 0.  0.
<mgrwt>
<rscale>  0 0.12369581E+04</rscale>
<asrwt>0</asrwt>
<pdfrwt beam="1">  1        2 0.30106030E+00 0.12821743E+04</pdfrwt>
<pdfrwt beam="2">  1       -2 0.19093875E+00 0.12821743E+04</pdfrwt>
<totfact> 0.10374476E+00</totfact>
</mgrwt>
</event>
<event>
 4    2  0.3855935E-007  0.7196189E+03  0.7818608E-02  0.9923878E-01
         -2   -1    0    0    0  501 -0.00000000000E+00  0.00000000000E+00  0.33952861245E+03  0.33952861246E+03  0.25500000000E-02 0.  1.
          2   -1    0    0  501    0  0.00000000000E+00 -0.00000000000E+00 -0.20735709937E+04  0.20735709937E+04  0.25500000000E-02 0. -1.
    8880023    1    1    2    0    0  0.10129314596E+03 -0.27162633494E+03 -0.76743370782E+02  0.72369946696E+03  0.65864270000E+03 0.  1.
    8880022    1    1    2    0    0 -0.10129314596E+03  0.27162633494E+03 -0.16572990105E+04  0.16894001392E+04  0.15294330000E+03 0.  0.
<mgrwt>
<rscale>  0 0.59117907E+03</rscale>
<asrwt>0</asrwt>
<pdfrwt beam="1">  1        2 0.31901091E+00 0.71961891E+03</pdfrwt>
<pdfrwt beam="2">  1       -2 0.52235173E-01 0.71961891E+03</pdfrwt>
<totfact> 0.21867429E+01</totfact>
</mgrwt>
</event>
<event>
 4    2  0.3855935E-007  0.1111414E+04  0.7818608E-02  0.9248453E-01
         -2   -1    0    0    0  501 -0.00000000000E+00  0.00000000000E+00  0.78417444473E+03  0.78417444474E+03  0.25500000000E-02 0.  1.
          2   -1    0    0  501    0  0.00000000000E+00 -0.00000000000E+00 -0.30178723398E+04  0.30178723398E+04  0.25500000000E-02 0. -1.
    8880023    1    1    2    0    0  0.10444219510E+02  0.89516639846E+03  0.26572188566E+03  0.11427380669E+04  0.65864270000E+03 0.  1.
    8880022    1    1    2    0    0 -0.10444219510E+02 -0.89516639846E+03 -0.24994197807E+04  0.26593087177E+04  0.15294330000E+03 0.  0.
<mgrwt>
<rscale>  0 0.10567011E+04</rscale>
<asrwt>0</asrwt>
<pdfrwt beam="1">  1        2 0.46428805E+00 0.11114145E+04</pdfrwt>
<pdfrwt beam="2">  1       -2 0.12064222E+00 0.11114145E+04</pdfrwt>
<totfact> 0.88972370E-01</totfact>
</mgrwt>
</event>
<event>
 4    2  0.3855935E-007  0.6766087E+03  0.7818608E-02  0.1011311E+00
         -2   -1    0    0    0  501 -0.00000000000E+00  0.00000000000E+00  0.13702856718E+03  0.13702856720E+03  0.25500000000E-02 0.  1.
          2   -1    0    0  501    0  0.00000000000E+00 -0.00000000000E+00 -0.15369554182E+04  0.15369554182E+04  0.25500000000E-02 0. -1.
    8880023    1    1    2    0    0 -0.36134909942E+02 -0.15060985634E+03 -0.87780291966E+03  0.11083037637E+04  0.65864270000E+03 0. -1.
    8880022    1    1    2    0    0  0.36134909942E+02  0.15060985634E+03 -0.52212393139E+03  0.56568022176E+03  0.15294330000E+03 0.  1.
<mgrwt>
<rscale>  0 0.50956942E+03</rscale>
<asrwt>0</asrwt>
<pdfrwt beam="1">  1        2 0.23645467E+00 0.67660865E+03</pdfrwt>
<pdfrwt beam="2">  1       -2 0.21081319E-01 0.67660865E+03</pdfrwt>
<totfact> 0.24008188E+02</totfact>
</mgrwt>
</event>
<event>
 4    2  0.3855935E-007  0.8264593E+03  0.7818608E-02  0.9656261E-01
          2   -1    0    0  501    0  0.00000000000E+00  0.00000000000E+00  0.37327948218E+04  0.37327948218E+04  0.25500000000E-02 0. -1.
         -2   -1    0    0    0  501 -0.00000000000E+00 -0.00000000000E+00 -0.15933023142E+03  0.15933023144E+03  0.25500000000E-02 0.  1.
    8880023    1    1    2    0    0 -0.49597192130E+03 -0.56891493968E+02  0.11691071343E+04  0.14317284961E+04  0.65864270000E+03 0.  0.
    8880022    1    1    2    0    0  0.49597192130E+03  0.56891493968E+02  0.24043574560E+04  0.24603965571E+04  0.15294330000E+03 0.  0.
<mgrwt>
<rscale>  0 0.73681781E+03</rscale>
<asrwt>0</asrwt>
<pdfrwt beam="1">  1        2 0.57427613E+00 0.82645931E+03</pdfrwt>
<pdfrwt beam="2">  1       -2 0.24512343E-01 0.82645931E+03</pdfrwt>
<totfact> 0.88041463E+00</totfact>
</mgrwt>
</event>
<event>
 4    2  0.4609737E-007  0.6779515E+03  0.7818608E-02  0.1010507E+00
         -2   -1    0    0    0  501 -0.00000000000E+00  0.00000000000E+00  0.11780220306E+04  0.11780220306E+04  0.25500000000E-02 0.  1.
          2   -1    0    0  501    0  0.00000000000E+00 -0.00000000000E+00 -0.18601178989E+04  0.18601178989E+04  0.25500000000E-02 0. -1.
    8880023    1    1    2    0    0 -0.20489752969E+02  0.15933657447E+03  0.10729196857E+04  0.12691630440E+04  0.65864270000E+03 0.  1.
    8880022    1    1    2    0    0  0.20489752969E+02 -0.15933657447E+03 -0.17550155540E+04  0.17689768856E+04  0.15294330000E+03 0.  0.
<mgrwt>
<rscale>  0 0.51273643E+03</rscale>
<asrwt>0</asrwt>
<pdfrwt beam="1">  1        2 0.28617198E+00 0.67795146E+03</pdfrwt>
<pdfrwt beam="2">  1       -2 0.18123416E+00 0.67795146E+03</pdfrwt>
<totfact> 0.14957724E+00</totfact>
</mgrwt>
</event>
<event>
 4    2  0.3855935E-007  0.6990788E+03  0.7818608E-02  0.1000104E+00
          2   -1    0    0  501    0  0.00000000000E+00  0.00000000000E+00  0.10157854010E+04  0.10157854010E+04  0.25500000000E-02 0. -1.
         -2   -1    0    0    0  501 -0.00000000000E+00 -0.00000000000E+00 -0.28488344722E+03  0.28488344723E+03  0.25500000000E-02 0.  1.
    8880023    1    1    2    0    0 -0.11531444495E+03 -0.20396952091E+03  0.24650830752E+03  0.74126752163E+03  0.65864270000E+03 0.  0.
    8880022    1    1    2    0    0  0.11531444495E+03  0.20396952091E+03  0.48439364629E+03  0.55940132665E+03  0.15294330000E+03 0.  0.
<mgrwt>
<rscale>  0 0.55604472E+03</rscale>
<asrwt>0</asrwt>
<pdfrwt beam="1">  1        2 0.15627468E+00 0.69907882E+03</pdfrwt>
<pdfrwt beam="2">  1       -2 0.43828223E-01 0.69907882E+03</pdfrwt>
<totfact> 0.12348289E+02</totfact>
</mgrwt>
</event>
<event>
 4    2  0.3855935E-007  0.6918209E+03  0.7818608E-02  0.1003299E+00
         -2   -1    0    0    0  501 -0.00000000000E+00  0.00000000000E+00  0.21358735635E+03  0.21358735637E+03  0.25500000000E-02 0.  1.
          2   -1    0    0  501    0  0.00000000000E+00 -0.00000000000E+00 -0.11510769366E+04  0.11510769366E+04  0.25500000000E-02 0. -1.
    8880023    1    1    2    0    0 -0.16644627423E+03  0.13077326811E+03 -0.49432395929E+03  0.85027783274E+03  0.65864270000E+03 0.  0.
    8880022    1    1    2    0    0  0.16644627423E+03 -0.13077326811E+03 -0.44316562095E+03  0.51438646023E+03  0.15294330000E+03 0.  1.
<mgrwt>
<rscale>  0 0.54227111E+03</rscale>
<asrwt>0</asrwt>
<pdfrwt beam="1">  1        2 0.17708876E+00 0.69182094E+03</pdfrwt>
<pdfrwt beam="2">  1       -2 0.32859594E-01 0.69182094E+03</pdfrwt>
<totfact> 0.17788134E+02</totfact>
</mgrwt>
</event>
<event>
 4    2  0.3855935E-007  0.6803417E+03  0.7818608E-02  0.1009131E+00
         -2   -1    0    0    0  501 -0.00000000000E+00  0.00000000000E+00  0.56601589818E+03  0.56601589818E+03  0.25500000000E-02 0.  1.
          2   -1    0    0  501    0  0.00000000000E+00 -0.00000000000E+00 -0.46925748387E+03  0.46925748388E+03  0.25500000000E-02 0. -1.
    8880023    1    1    2    0    0 -0.16809090521E+03  0.28286098728E+02  0.28617400703E+03  0.73807887408E+03  0.65864270000E+03 0.  1.
    8880022    1    1    2    0    0  0.16809090521E+03 -0.28286098728E+02 -0.18941559272E+03  0.29719450799E+03  0.15294330000E+03 0.  0.
<mgrwt>
<rscale>  0 0.51821466E+03</rscale>
<asrwt>0</asrwt>
<pdfrwt beam="1">  1        2 0.72193460E-01 0.68034172E+03</pdfrwt>
<pdfrwt beam="2">  1       -2 0.87079368E-01 0.68034172E+03</pdfrwt>
<totfact> 0.76729655E+01</totfact>
</mgrwt>
</event>
<event>
 4    2  0.3855935E-007  0.1230645E+04  0.7818608E-02  0.9127894E-01
         -2   -1    0    0    0  501 -0.00000000000E+00  0.00000000000E+00  0.15748643445E+04  0.15748643445E+04  0.25500000000E-02 0.  1.
          2   -1    0    0  501    0  0.00000000000E+00 -0.00000000000E+00 -0.92448013677E+03  0.92448013677E+03  0.25500000000E-02 0. -1.
    8880023    1    1    2    0    0 -0.21609239501E+03 -0.10168482121E+04 -0.58168449952E+02  0.12320186624E+04  0.65864270000E+03 0.  0.
    8880022    1    1    2    0    0  0.21609239501E+03  0.10168482121E+04  0.70855265766E+03  0.12673258189E+04  0.15294330000E+03 0.  0.
<mgrwt>
<rscale>  0 0.11829707E+04</rscale>
<asrwt>0</asrwt>
<pdfrwt beam="1">  1        2 0.14222771E+00 0.12306447E+04</pdfrwt>
<pdfrwt beam="2">  1       -2 0.24228682E+00 0.12306447E+04</pdfrwt>
<totfact> 0.19667319E+00</totfact>
</mgrwt>
</event>
<event>
 4    2  0.3855935E-007  0.6828501E+03  0.7818608E-02  0.1007755E+00
          2   -1    0    0  501    0  0.00000000000E+00  0.00000000000E+00  0.49643309325E+03  0.49643309325E+03  0.25500000000E-02 0. -1.
         -2   -1    0    0    0  501 -0.00000000000E+00 -0.00000000000E+00 -0.11437443192E+04  0.11437443192E+04  0.25500000000E-02 0.  1.
    8880023    1    1    2    0    0  0.14020228368E+03  0.11321395157E+03 -0.10028412029E+04  0.12132496708E+04  0.65864270000E+03 0.  0.
    8880022    1    1    2    0    0 -0.14020228368E+03 -0.11321395157E+03  0.35552997688E+03  0.42692774172E+03  0.15294330000E+03 0. -1.
<mgrwt>
<rscale>  0 0.52376591E+03</rscale>
<asrwt>0</asrwt>
<pdfrwt beam="1">  1        2 0.76374322E-01 0.68285012E+03</pdfrwt>
<pdfrwt beam="2">  1       -2 0.17596066E+00 0.68285012E+03</pdfrwt>
<totfact> 0.12291337E+01</totfact>
</mgrwt>
</event>
<event>
 4    2  0.3855935E-007  0.8725145E+03  0.7818608E-02  0.9571679E-01
          2   -1    0    0  501    0  0.00000000000E+00  0.00000000000E+00  0.19917630132E+04  0.19917630132E+04  0.25500000000E-02 0. -1.
         -2   -1    0    0    0  501 -0.00000000000E+00 -0.00000000000E+00 -0.29565383412E+03  0.29565383413E+03  0.25500000000E-02 0.  1.
    8880023    1    1    2    0    0  0.20432344371E+03 -0.53453095907E+03  0.66030272388E+03  0.10942035045E+04  0.65864270000E+03 0.  1.
    8880022    1    1    2    0    0 -0.20432344371E+03  0.53453095907E+03  0.10358064552E+04  0.11932133428E+04  0.15294330000E+03 0. -1.
<mgrwt>
<rscale>  0 0.79199367E+03</rscale>
<asrwt>0</asrwt>
<pdfrwt beam="1">  1        2 0.30642508E+00 0.87251454E+03</pdfrwt>
<pdfrwt beam="2">  1       -2 0.45485205E-01 0.87251454E+03</pdfrwt>
<totfact> 0.31478714E+01</totfact>
</mgrwt>
</event>
<event>
 4    2  0.3855935E-007  0.6636062E+03  0.7818608E-02  0.1020733E+00
          2   -1    0    0  501    0  0.00000000000E+00  0.00000000000E+00  0.22190998500E+04  0.22190998500E+04  0.25500000000E-02 0. -1.
         -2   -1    0    0    0  501 -0.00000000000E+00 -0.00000000000E+00 -0.19841696757E+03  0.19841696758E+03  0.25500000000E-02 0.  1.
    8880023    1    1    2    0    0 -0.80952034361E+02  0.31230272988E+01  0.37395517320E+03  0.76171888712E+03  0.65864270000E+03 0.  1.
    8880022    1    1    2    0    0  0.80952034361E+02 -0.31230272988E+01  0.16467277092E+04  0.16557979305E+04  0.15294330000E+03 0.  0.
<mgrwt>
<rscale>  0 0.47423198E+03</rscale>
<asrwt>0</asrwt>
<pdfrwt beam="1">  1        2 0.34139999E+00 0.66360620E+03</pdfrwt>
<pdfrwt beam="2">  1       -2 0.30525686E-01 0.66360620E+03</pdfrwt>
<totfact> 0.52293492E+01</totfact>
</mgrwt>
</event>
<event>
 4    2  0.3855935E-007  0.1315565E+04  0.7818608E-02  0.9052234E-01
          2   -1    0    0  501    0  0.00000000000E+00  0.00000000000E+00  0.14534640607E+04  0.14534640607E+04  0.25500000000E-02 0. -1.
         -2   -1    0    0    0  501 -0.00000000000E+00 -0.00000000000E+00 -0.21939198181E+04  0.21939198181E+04  0.25500000000E-02 0.  1.
    8880023    1    1    2    0    0  0.98480857407E+03 -0.57188585177E+03 -0.17005564128E+04  0.21500241102E+04  0.65864270000E+03 0.  0.
    8880022    1    1    2    0    0 -0.98480857407E+03  0.57188585177E+03  0.96010065543E+03  0.14973597686E+04  0.15294330000E+03 0.  0.
<mgrwt>
<rscale>  0 0.12717977E+04</rscale>
<asrwt>0</asrwt>
<pdfrwt beam="1">  1        2 0.22360986E+00 0.13155651E+04</pdfrwt>
<pdfrwt beam="2">  1       -2 0.33752612E+00 0.13155651E+04</pdfrwt>
<totfact> 0.24222859E-01</totfact>
</mgrwt>
</event>
<event>
 4    2  0.3855935E-007  0.6664848E+03  0.7818608E-02  0.1018319E+00
         -2   -1    0    0    0  501 -0.00000000000E+00  0.00000000000E+00  0.37987232760E+02  0.37987232846E+02  0.25500000000E-02 0.  1.
          2   -1    0    0  501    0  0.00000000000E+00 -0.00000000000E+00 -0.47598063872E+04  0.47598063872E+04  0.25500000000E-02 0. -1.
    8880023    1    1    2    0    0 -0.95683646830E+02 -0.35162842451E+02 -0.36632972349E+04  0.37234323713E+04  0.65864270000E+03 0.  0.
    8880022    1    1    2    0    0  0.95683646830E+02  0.35162842451E+02 -0.10585219195E+04  0.10743612488E+04  0.15294330000E+03 0. -1.
<mgrwt>
<rscale>  0 0.48298169E+03</rscale>
<asrwt>0</asrwt>
<pdfrwt beam="1">  1        2 0.73227743E+00 0.66648480E+03</pdfrwt>
<pdfrwt beam="2">  1       -2 0.58441935E-02 0.66648480E+03</pdfrwt>
<totfact> 0.12536535E+01</totfact>
</mgrwt>
</event>
<event>
 4    2  0.3855935E-007  0.7525984E+03  0.7818608E-02  0.9824661E-01
          2   -1    0    0  501    0  0.00000000000E+00  0.00000000000E+00  0.29329952630E+04  0.29329952630E+04  0.25500000000E-02 0. -1.
         -2   -1    0    0    0  501 -0.00000000000E+00 -0.00000000000E+00 -0.14598539143E+03  0.14598539145E+03  0.25500000000E-02 0.  1.
    8880023    1    1    2    0    0  0.32906531046E+03 -0.15591707127E+03  0.10155069600E+04  0.12639852466E+04  0.65864270000E+03 0.  0.
    8880022    1    1    2    0    0 -0.32906531046E+03  0.15591707127E+03  0.17715029116E+04  0.18149954078E+04  0.15294330000E+03 0.  0.
<mgrwt>
<rscale>  0 0.64055744E+03</rscale>
<asrwt>0</asrwt>
<pdfrwt beam="1">  1        2 0.45123002E+00 0.75259838E+03</pdfrwt>
<pdfrwt beam="2">  1       -2 0.22459292E-01 0.75259838E+03</pdfrwt>
<totfact> 0.35120280E+01</totfact>
</mgrwt>
</event>
<event>
 4    2  0.3855935E-007  0.6919199E+03  0.7818608E-02  0.1003253E+00
          2   -1    0    0  501    0  0.00000000000E+00  0.00000000000E+00  0.17097892917E+04  0.17097892917E+04  0.25500000000E-02 0. -1.
         -2   -1    0    0    0  501 -0.00000000000E+00 -0.00000000000E+00 -0.38020512758E+03  0.38020512759E+03  0.25500000000E-02 0.  1.
    8880023    1    1    2    0    0 -0.11982552380E+03 -0.17488522892E+03 -0.42506213828E+02  0.69322433882E+03  0.65864270000E+03 0.  1.
    8880022    1    1    2    0    0  0.11982552380E+03  0.17488522892E+03  0.13720903779E+04  0.13967700804E+04  0.15294330000E+03 0.  0.
<mgrwt>
<rscale>  0 0.54246536E+03</rscale>
<asrwt>0</asrwt>
<pdfrwt beam="1">  1        2 0.26304451E+00 0.69191994E+03</pdfrwt>
<pdfrwt beam="2">  1       -2 0.58493096E-01 0.69191994E+03</pdfrwt>
<totfact> 0.27391211E+01</totfact>
</mgrwt>
</event>
<event>
 4    2  0.3855935E-007  0.8229283E+03  0.7818608E-02  0.9663252E-01
         -2   -1    0    0    0  501 -0.00000000000E+00  0.00000000000E+00  0.17717664398E+03  0.17717664400E+03  0.25500000000E-02 0.  1.
          2   -1    0    0  501    0  0.00000000000E+00 -0.00000000000E+00 -0.27039046721E+04  0.27039046721E+04  0.25500000000E-02 0. -1.
    8880023    1    1    2    0    0  0.48828552574E+03 -0.70555069351E+02 -0.11792600861E+04  0.14380074163E+04  0.65864270000E+03 0.  0.
    8880022    1    1    2    0    0 -0.48828552574E+03  0.70555069351E+02 -0.13474679421E+04  0.14430738998E+04  0.15294330000E+03 0.  0.
<mgrwt>
<rscale>  0 0.73247564E+03</rscale>
<asrwt>0</asrwt>
<pdfrwt beam="1">  1        2 0.41598530E+00 0.82292830E+03</pdfrwt>
<pdfrwt beam="2">  1       -2 0.27257947E-01 0.82292830E+03</pdfrwt>
<totfact> 0.33545626E+01</totfact>
</mgrwt>
</event>
<event>
 4    2  0.3855935E-007  0.7942027E+03  0.7818608E-02  0.9723474E-01
          2   -1    0    0  501    0  0.00000000000E+00  0.00000000000E+00  0.26747013946E+04  0.26747013946E+04  0.25500000000E-02 0. -1.
         -2   -1    0    0    0  501 -0.00000000000E+00 -0.00000000000E+00 -0.28070088542E+03  0.28070088543E+03  0.25500000000E-02 0.  1.
    8880023    1    1    2    0    0  0.43911045705E+03 -0.64263560503E+02  0.36724855606E+03  0.87500257536E+03  0.65864270000E+03 0.  1.
    8880022    1    1    2    0    0 -0.43911045705E+03  0.64263560503E+02  0.20267519531E+04  0.20803997047E+04  0.15294330000E+03 0.  0.
<mgrwt>
<rscale>  0 0.69636201E+03</rscale>
<asrwt>0</asrwt>
<pdfrwt beam="1">  1        2 0.41149251E+00 0.79420275E+03</pdfrwt>
<pdfrwt beam="2">  1       -2 0.43184753E-01 0.79420275E+03</pdfrwt>
<totfact> 0.14599844E+01</totfact>
</mgrwt>
</event>
<event>
 4    2  0.3855935E-007  0.7448522E+03  0.7818608E-02  0.9846032E-01
          2   -1    0    0  501    0  0.00000000000E+00  0.00000000000E+00  0.45594554113E+03  0.45594554114E+03  0.25500000000E-02 0. -1.
         -2   -1    0    0    0  501 -0.00000000000E+00 -0.00000000000E+00 -0.10736120938E+04  0.10736120938E+04  0.25500000000E-02 0.  1.
    8880023    1    1    2    0    0  0.25326705479E+03 -0.23843316048E+03 -0.81273848769E+03  0.11024285141E+04  0.65864270000E+03 0.  0.
    8880022    1    1    2    0    0 -0.25326705479E+03  0.23843316048E+03  0.19507193500E+03  0.42712912087E+03  0.15294330000E+03 0.  0.
<mgrwt>
<rscale>  0 0.62949646E+03</rscale>
<asrwt>0</asrwt>
<pdfrwt beam="1">  1        2 0.70145468E-01 0.74485219E+03</pdfrwt>
<pdfrwt beam="2">  1       -2 0.16517109E+00 0.74485219E+03</pdfrwt>
<totfact> 0.16054547E+01</totfact>
</mgrwt>
</event>
<event>
 4    2  0.3855935E-007  0.9417023E+03  0.7818608E-02  0.9462155E-01
         -2   -1    0    0    0  501 -0.00000000000E+00  0.00000000000E+00  0.54760474889E+03  0.54760474890E+03  0.25500000000E-02 0.  1.
          2   -1    0    0  501    0  0.00000000000E+00 -0.00000000000E+00 -0.20478036544E+04  0.20478036544E+04  0.25500000000E-02 0. -1.
    8880023    1    1    2    0    0 -0.48171914557E+03  0.47004222443E+03  0.25810101927E+01  0.94170584358E+03  0.65864270000E+03 0.  0.
    8880022    1    1    2    0    0  0.48171914557E+03 -0.47004222443E+03 -0.15027799157E+04  0.16537025597E+04  0.15294330000E+03 0.  1.
<mgrwt>
<rscale>  0 0.87132455E+03</rscale>
<asrwt>0</asrwt>
<pdfrwt beam="1">  1        2 0.31504671E+00 0.94170231E+03</pdfrwt>
<pdfrwt beam="2">  1       -2 0.84246886E-01 0.94170231E+03</pdfrwt>
<totfact> 0.77998374E+00</totfact>
</mgrwt>
</event>
<event>
 4    2  0.3855935E-007  0.7527969E+03  0.7818608E-02  0.9824126E-01
          2   -1    0    0  501    0  0.00000000000E+00  0.00000000000E+00  0.12048105705E+04  0.12048105705E+04  0.25500000000E-02 0. -1.
         -2   -1    0    0    0  501 -0.00000000000E+00 -0.00000000000E+00 -0.35257489251E+03  0.35257489252E+03  0.25500000000E-02 0.  1.
    8880023    1    1    2    0    0  0.32842809582E+03 -0.15820226934E+03  0.88361983714E+03  0.11608131611E+04  0.65864270000E+03 0.  0.
    8880022    1    1    2    0    0 -0.32842809582E+03  0.15820226934E+03 -0.31384159194E+02  0.39657230187E+03  0.15294330000E+03 0.  0.
<mgrwt>
<rscale>  0 0.64083747E+03</rscale>
<asrwt>0</asrwt>
<pdfrwt beam="1">  1        2 0.18535547E+00 0.75279690E+03</pdfrwt>
<pdfrwt beam="2">  1       -2 0.54242291E-01 0.75279690E+03</pdfrwt>
<totfact> 0.61228007E+01</totfact>
</mgrwt>
</event>
<event>
 4    2  0.3855935E-007  0.9009942E+03  0.7818608E-02  0.9524437E-01
         -2   -1    0    0    0  501 -0.00000000000E+00  0.00000000000E+00  0.14068864600E+04  0.14068864600E+04  0.25500000000E-02 0.  1.
          2   -1    0    0  501    0  0.00000000000E+00 -0.00000000000E+00 -0.11203156725E+04  0.11203156725E+04  0.25500000000E-02 0. -1.
    8880023    1    1    2    0    0  0.57653795933E+03  0.21350494651E+03  0.11470834444E+04  0.14586264139E+04  0.65864270000E+03 0.  1.
    8880022    1    1    2    0    0 -0.57653795933E+03 -0.21350494651E+03 -0.86051265682E+03  0.10685757186E+04  0.15294330000E+03 0.  0.
<mgrwt>
<rscale>  0 0.82505878E+03</rscale>
<asrwt>0</asrwt>
<pdfrwt beam="1">  1        2 0.17235626E+00 0.90099422E+03</pdfrwt>
<pdfrwt beam="2">  1       -2 0.21644407E+00 0.90099422E+03</pdfrwt>
<totfact> 0.22169646E+00</totfact>
</mgrwt>
</event>
<event>
 4    2  0.3855935E-007  0.6616118E+03  0.7818608E-02  0.1022563E+00
          2   -1    0    0  501    0  0.00000000000E+00  0.00000000000E+00  0.22036995358E+04  0.22036995358E+04  0.25500000000E-02 0. -1.
         -2   -1    0    0    0  501 -0.00000000000E+00 -0.00000000000E+00 -0.32893568833E+03  0.32893568834E+03  0.25500000000E-02 0.  1.
    8880023    1    1    2    0    0 -0.12296967421E+02 -0.61390250591E+02  0.11147578631E+02  0.66170571484E+03  0.65864270000E+03 0.  0.
    8880022    1    1    2    0    0  0.12296967421E+02  0.61390250591E+02  0.18636162688E+04  0.18709295093E+04  0.15294330000E+03 0. -1.
<mgrwt>
<rscale>  0 0.46773072E+03</rscale>
<asrwt>0</asrwt>
<pdfrwt beam="1">  1        2 0.33903069E+00 0.66161181E+03</pdfrwt>
<pdfrwt beam="2">  1       -2 0.50605492E-01 0.66161181E+03</pdfrwt>
<totfact> 0.19979710E+01</totfact>
</mgrwt>
</event>
<event>
 4    2  0.3855935E-007  0.6956290E+03  0.7818608E-02  0.1001584E+00
          2   -1    0    0  501    0  0.00000000000E+00  0.00000000000E+00  0.23160027832E+04  0.23160027832E+04  0.25500000000E-02 0. -1.
         -2   -1    0    0    0  501 -0.00000000000E+00 -0.00000000000E+00 -0.37332751890E+03  0.37332751891E+03  0.25500000000E-02 0.  1.
    8880023    1    1    2    0    0 -0.20039257174E+03 -0.99661055555E+02 -0.31779401286E+02  0.69635454003E+03  0.65864270000E+03 0.  1.
    8880022    1    1    2    0    0  0.20039257174E+03  0.99661055555E+02  0.19744546656E+04  0.19929757621E+04  0.15294330000E+03 0.  0.
<mgrwt>
<rscale>  0 0.54961081E+03</rscale>
<asrwt>0</asrwt>
<pdfrwt beam="1">  1        2 0.35630812E+00 0.69562901E+03</pdfrwt>
<pdfrwt beam="2">  1       -2 0.57435003E-01 0.69562901E+03</pdfrwt>
<totfact> 0.13263616E+01</totfact>
</mgrwt>
</event>
<event>
 4    2  0.3855935E-007  0.8133891E+03  0.7818608E-02  0.9682560E-01
          2   -1    0    0  501    0  0.00000000000E+00  0.00000000000E+00  0.84371137494E+03  0.84371137494E+03  0.25500000000E-02 0. -1.
         -2   -1    0    0    0  501 -0.00000000000E+00 -0.00000000000E+00 -0.74237812552E+03  0.74237812552E+03  0.25500000000E-02 0.  1.
    8880023    1    1    2    0    0  0.36344191680E+03  0.30935667797E+03 -0.37408524321E+03  0.89528853257E+03  0.65864270000E+03 0.  0.
    8880022    1    1    2    0    0 -0.36344191680E+03 -0.30935667797E+03  0.47541849263E+03  0.69080096790E+03  0.15294330000E+03 0.  0.
<mgrwt>
<rscale>  0 0.72064700E+03</rscale>
<asrwt>0</asrwt>
<pdfrwt beam="1">  1        2 0.12980175E+00 0.81338908E+03</pdfrwt>
<pdfrwt beam="2">  1       -2 0.11421202E+00 0.81338908E+03</pdfrwt>
<totfact> 0.19395869E+01</totfact>
</mgrwt>
</event>
<event>
 4    2  0.3855935E-007  0.8243683E+03  0.7818608E-02  0.9660391E-01
          2   -1    0    0  501    0  0.00000000000E+00  0.00000000000E+00  0.12319176521E+04  0.12319176521E+04  0.25500000000E-02 0. -1.
         -2   -1    0    0    0  501 -0.00000000000E+00 -0.00000000000E+00 -0.48065040026E+03  0.48065040026E+03  0.25500000000E-02 0.  1.
    8880023    1    1    2    0    0  0.29217079677E+03  0.40051101686E+03  0.31062080804E+02  0.82495327640E+03  0.65864270000E+03 0.  1.
    8880022    1    1    2    0    0 -0.29217079677E+03 -0.40051101686E+03  0.72020517105E+03  0.88761477598E+03  0.15294330000E+03 0.  0.
<mgrwt>
<rscale>  0 0.73424868E+03</rscale>
<asrwt>0</asrwt>
<pdfrwt beam="1">  1        2 0.18952579E+00 0.82436828E+03</pdfrwt>
<pdfrwt beam="2">  1       -2 0.73946216E-01 0.82436828E+03</pdfrwt>
<totfact> 0.30216055E+01</totfact>
</mgrwt>
</event>
<event>
 4    2  0.3855935E-007  0.6829438E+03  0.7818608E-02  0.1007705E+00
         -2   -1    0    0    0  501 -0.00000000000E+00  0.00000000000E+00  0.63550021968E+02  0.63550022019E+02  0.25500000000E-02 0.  1.
          2   -1    0    0  501    0  0.00000000000E+00 -0.00000000000E+00 -0.41149706302E+04  0.41149706302E+04  0.25500000000E-02 0. -1.
    8880023    1    1    2    0    0 -0.39085225631E+02  0.17627944027E+03 -0.19976921820E+04  0.21112049536E+04  0.65864270000E+03 0.  1.
    8880022    1    1    2    0    0  0.39085225631E+02 -0.17627944027E+03 -0.20537284263E+04  0.20673156986E+04  0.15294330000E+03 0.  0.
<mgrwt>
<rscale>  0 0.52396972E+03</rscale>
<asrwt>0</asrwt>
<pdfrwt beam="1">  1        2 0.63307220E+00 0.68294385E+03</pdfrwt>
<pdfrwt beam="2">  1       -2 0.97769297E-02 0.68294385E+03</pdfrwt>
<totfact> 0.21967719E+01</totfact>
</mgrwt>
</event>
<event>
 4    2  0.3855935E-007  0.1044454E+04  0.7818608E-02  0.9325578E-01
          2   -1    0    0  501    0  0.00000000000E+00  0.00000000000E+00  0.27833423326E+04  0.27833423326E+04  0.25500000000E-02 0. -1.
         -2   -1    0    0    0  501 -0.00000000000E+00 -0.00000000000E+00 -0.49881914424E+03  0.49881914425E+03  0.25500000000E-02 0.  1.
    8880023    1    1    2    0    0  0.36704344986E+02  0.80976968862E+03  0.23176564005E+03  0.10698596523E+04  0.65864270000E+03 0.  0.
    8880022    1    1    2    0    0 -0.36704344986E+02 -0.80976968862E+03  0.20527575483E+04  0.22123018245E+04  0.15294330000E+03 0.  0.
<mgrwt>
<rscale>  0 0.98461808E+03</rscale>
<asrwt>0</asrwt>
<pdfrwt beam="1">  1        2 0.42820652E+00 0.10444541E+04</pdfrwt>
<pdfrwt beam="2">  1       -2 0.76741406E-01 0.10444541E+04</pdfrwt>
<totfact> 0.36271863E+00</totfact>
</mgrwt>
</event>
<event>
 4    2  0.3855935E-007  0.7706935E+03  0.7818608E-02  0.9778170E-01
          2   -1    0    0  501    0  0.00000000000E+00  0.00000000000E+00  0.13179800915E+04  0.13179800915E+04  0.25500000000E-02 0. -1.
         -2   -1    0    0    0  501 -0.00000000000E+00 -0.00000000000E+00 -0.57160247825E+03  0.57160247825E+03  0.25500000000E-02 0.  1.
    8880023    1    1    2    0    0 -0.37743335263E+03 -0.13304990985E+03 -0.24573154880E+03  0.80892052423E+03  0.65864270000E+03 0.  1.
    8880022    1    1    2    0    0  0.37743335263E+03  0.13304990985E+03  0.99210916201E+03  0.10806620455E+04  0.15294330000E+03 0.  0.
<mgrwt>
<rscale>  0 0.66547312E+03</rscale>
<asrwt>0</asrwt>
<pdfrwt beam="1">  1        2 0.20276617E+00 0.77069347E+03</pdfrwt>
<pdfrwt beam="2">  1       -2 0.87938843E-01 0.77069347E+03</pdfrwt>
<totfact> 0.18322345E+01</totfact>
</mgrwt>
</event>
<event>
 4    2  0.3855935E-007  0.1184060E+04  0.7818608E-02  0.9172775E-01
          2   -1    0    0  501    0  0.00000000000E+00  0.00000000000E+00  0.11133987513E+04  0.11133987513E+04  0.25500000000E-02 0. -1.
         -2   -1    0    0    0  501 -0.00000000000E+00 -0.00000000000E+00 -0.13400245077E+04  0.13400245077E+04  0.25500000000E-02 0.  1.
    8880023    1    1    2    0    0  0.98158585351E+03  0.68389379033E+02 -0.67323780686E+03  0.13620746110E+04  0.65864270000E+03 0.  0.
    8880022    1    1    2    0    0 -0.98158585351E+03 -0.68389379033E+02  0.44661205045E+03  0.10913486481E+04  0.15294330000E+03 0.  0.
<mgrwt>
<rscale>  0 0.11338908E+04</rscale>
<asrwt>0</asrwt>
<pdfrwt beam="1">  1        2 0.17129212E+00 0.11840600E+04</pdfrwt>
<pdfrwt beam="2">  1       -2 0.20615762E+00 0.11840600E+04</pdfrwt>
<totfact> 0.25221812E+00</totfact>
</mgrwt>
</event>
<event>
 4    2  0.3855935E-007  0.8858782E+03  0.7818608E-02  0.9549093E-01
          2   -1    0    0  501    0  0.00000000000E+00  0.00000000000E+00  0.54506677717E+03  0.54506677717E+03  0.25500000000E-02 0. -1.
         -2   -1    0    0    0  501 -0.00000000000E+00 -0.00000000000E+00 -0.20837420883E+04  0.20837420883E+04  0.25500000000E-02 0.  1.
    8880023    1    1    2    0    0 -0.45904602522E+03  0.37449533284E+03 -0.17662865497E+04  0.19759930135E+04  0.65864270000E+03 0.  1.
    8880022    1    1    2    0    0  0.45904602522E+03 -0.37449533284E+03  0.22761123858E+03  0.65281585193E+03  0.15294330000E+03 0.  0.
<mgrwt>
<rscale>  0 0.80759187E+03</rscale>
<asrwt>0</asrwt>
<pdfrwt beam="1">  1        2 0.83856429E-01 0.88587822E+03</pdfrwt>
<pdfrwt beam="2">  1       -2 0.32057570E+00 0.88587822E+03</pdfrwt>
<totfact> 0.13548203E+00</totfact>
</mgrwt>
</event>
<event>
 4    2  0.3855935E-007  0.1220469E+04  0.7818608E-02  0.9137477E-01
          2   -1    0    0  501    0  0.00000000000E+00  0.00000000000E+00  0.38211973709E+04  0.38211973709E+04  0.25500000000E-02 0. -1.
         -2   -1    0    0    0  501 -0.00000000000E+00 -0.00000000000E+00 -0.85471936308E+03  0.85471936309E+03  0.25500000000E-02 0.  1.
    8880023    1    1    2    0    0  0.92412793470E+03 -0.44913470927E+03  0.33524672892E+04  0.35677137719E+04  0.65864270000E+03 0.  0.
    8880022    1    1    2    0    0 -0.92412793470E+03  0.44913470927E+03 -0.38598928141E+03  0.11082029621E+04  0.15294330000E+03 0.  0.
<mgrwt>
<rscale>  0 0.11722739E+04</rscale>
<asrwt>0</asrwt>
<pdfrwt beam="1">  1        2 0.58787651E+00 0.12204690E+04</pdfrwt>
<pdfrwt beam="2">  1       -2 0.13149529E+00 0.12204690E+04</pdfrwt>
<totfact> 0.19982806E-01</totfact>
</mgrwt>
</event>
<event>
 4    2  0.3855935E-007  0.7175260E+03  0.7818608E-02  0.9931048E-01
         -2   -1    0    0    0  501 -0.00000000000E+00  0.00000000000E+00  0.42532120443E+03  0.42532120443E+03  0.25500000000E-02 0.  1.
          2   -1    0    0  501    0  0.00000000000E+00 -0.00000000000E+00 -0.71507057395E+03  0.71507057395E+03  0.25500000000E-02 0. -1.
    8880023    1    1    2    0    0 -0.16997212532E+03 -0.22834798994E+03 -0.17327592598E+02  0.71773517374E+03  0.65864270000E+03 0.  1.
    8880022    1    1    2    0    0  0.16997212532E+03  0.22834798994E+03 -0.27242177692E+03  0.42265660465E+03  0.15294330000E+03 0.  0.
<mgrwt>
<rscale>  0 0.58779891E+03</rscale>
<asrwt>0</asrwt>
<pdfrwt beam="1">  1        2 0.11001086E+00 0.71752598E+03</pdfrwt>
<pdfrwt beam="2">  1       -2 0.65434032E-01 0.71752598E+03</pdfrwt>
<totfact> 0.87055801E+01</totfact>
</mgrwt>
</event>
<event>
 4    2  0.3855935E-007  0.9359469E+03  0.7818608E-02  0.9470628E-01
          2   -1    0    0  501    0  0.00000000000E+00  0.00000000000E+00  0.23732778913E+04  0.23732778913E+04  0.25500000000E-02 0. -1.
         -2   -1    0    0    0  501 -0.00000000000E+00 -0.00000000000E+00 -0.29074731784E+03  0.29074731785E+03  0.25500000000E-02 0.  1.
    8880023    1    1    2    0    0 -0.82464255476E+02  0.65983789515E+03  0.89828309238E+03  0.12972698723E+04  0.65864270000E+03 0.  0.
    8880022    1    1    2    0    0  0.82464255476E+02 -0.65983789515E+03  0.11842474811E+04  0.13667553368E+04  0.15294330000E+03 0.  0.
<mgrwt>
<rscale>  0 0.86484339E+03</rscale>
<asrwt>0</asrwt>
<pdfrwt beam="1">  1        2 0.36511967E+00 0.93594690E+03</pdfrwt>
<pdfrwt beam="2">  1       -2 0.44730358E-01 0.93594690E+03</pdfrwt>
<totfact> 0.19855963E+01</totfact>
</mgrwt>
</event>
<event>
 4    2  0.3855935E-007  0.6634415E+03  0.7818608E-02  0.1020878E+00
          2   -1    0    0  501    0  0.00000000000E+00  0.00000000000E+00  0.34672491285E+04  0.34672491285E+04  0.25500000000E-02 0. -1.
         -2   -1    0    0    0  501 -0.00000000000E+00 -0.00000000000E+00 -0.67057276112E+02  0.67057276161E+02  0.25500000000E-02 0.  1.
    8880023    1    1    2    0    0  0.88791490934E+01 -0.79155504059E+02  0.16918159194E+04  0.18172494998E+04  0.65864270000E+03 0.  1.
    8880022    1    1    2    0    0 -0.88791490934E+01  0.79155504059E+02  0.17083759330E+04  0.17170569049E+04  0.15294330000E+03 0.  0.
<mgrwt>
<rscale>  0 0.47370990E+03</rscale>
<asrwt>0</asrwt>
<pdfrwt beam="1">  1        2 0.53342313E+00 0.66344151E+03</pdfrwt>
<pdfrwt beam="2">  1       -2 0.10316500E-01 0.66344151E+03</pdfrwt>
<totfact> 0.60895125E+01</totfact>
</mgrwt>
</event>
<event>
 4    2  0.3855935E-007  0.7351112E+03  0.7818608E-02  0.9874423E-01
          2   -1    0    0  501    0  0.00000000000E+00  0.00000000000E+00  0.10985565935E+04  0.10985565935E+04  0.25500000000E-02 0. -1.
         -2   -1    0    0    0  501 -0.00000000000E+00 -0.00000000000E+00 -0.53452328241E+03  0.53452328241E+03  0.25500000000E-02 0.  1.
    8880023    1    1    2    0    0  0.13958829687E+03 -0.29511599233E+03 -0.22234512958E+03  0.76800123988E+03  0.65864270000E+03 0.  1.
    8880022    1    1    2    0    0 -0.13958829687E+03  0.29511599233E+03  0.78637844070E+03  0.86507863606E+03  0.15294330000E+03 0.  0.
<mgrwt>
<rscale>  0 0.61517006E+03</rscale>
<asrwt>0</asrwt>
<pdfrwt beam="1">  1        2 0.16900871E+00 0.73511125E+03</pdfrwt>
<pdfrwt beam="2">  1       -2 0.82234352E-01 0.73511125E+03</pdfrwt>
<totfact> 0.28893232E+01</totfact>
</mgrwt>
</event>
<event>
 4    2  0.3855935E-007  0.7187253E+03  0.7818608E-02  0.9926923E-01
         -2   -1    0    0    0  501 -0.00000000000E+00  0.00000000000E+00  0.33044524017E+03  0.33044524018E+03  0.25500000000E-02 0.  1.
          2   -1    0    0  501    0  0.00000000000E+00 -0.00000000000E+00 -0.13207090706E+04  0.13207090706E+04  0.25500000000E-02 0. -1.
    8880023    1    1    2    0    0  0.19061312160E+03 -0.21545865417E+03 -0.12884604924E+03  0.73018306229E+03  0.65864270000E+03 0.  0.
    8880022    1    1    2    0    0 -0.19061312160E+03  0.21545865417E+03 -0.86141778115E+03  0.92097124845E+03  0.15294330000E+03 0.  0.
<mgrwt>
<rscale>  0 0.58974039E+03</rscale>
<asrwt>0</asrwt>
<pdfrwt beam="1">  1        2 0.20318601E+00 0.71872526E+03</pdfrwt>
<pdfrwt beam="2">  1       -2 0.50837730E-01 0.71872526E+03</pdfrwt>
<totfact> 0.60086791E+01</totfact>
</mgrwt>
</event>
<event>
 4    2  0.3855935E-007  0.6870415E+03  0.7818608E-02  0.1005592E+00
          2   -1    0    0  501    0  0.00000000000E+00  0.00000000000E+00  0.11727959999E+04  0.11727959999E+04  0.25500000000E-02 0. -1.
         -2   -1    0    0    0  501 -0.00000000000E+00 -0.00000000000E+00 -0.36313260068E+03  0.36313260069E+03  0.25500000000E-02 0.  1.
    8880023    1    1    2    0    0  0.19233912788E+03  0.34949629861E+02 -0.21224552116E+01  0.68704477861E+03  0.65864270000E+03 0.  0.
    8880022    1    1    2    0    0 -0.19233912788E+03 -0.34949629861E+02  0.81178585448E+03  0.84888382202E+03  0.15294330000E+03 0.  0.
<mgrwt>
<rscale>  0 0.53264935E+03</rscale>
<asrwt>0</asrwt>
<pdfrwt beam="1">  1        2 0.18043016E+00 0.68704150E+03</pdfrwt>
<pdfrwt beam="2">  1       -2 0.55866553E-01 0.68704150E+03</pdfrwt>
<totfact> 0.60539254E+01</totfact>
</mgrwt>
</event>
<event>
 4    2  0.3855935E-007  0.6931903E+03  0.7818608E-02  0.1002672E+00
         -2   -1    0    0    0  501 -0.00000000000E+00  0.00000000000E+00  0.20605451224E+03  0.20605451226E+03  0.25500000000E-02 0.  1.
          2   -1    0    0  501    0  0.00000000000E+00 -0.00000000000E+00 -0.11636251738E+04  0.11636251738E+04  0.25500000000E-02 0. -1.
    8880023    1    1    2    0    0 -0.30049694878E+02  0.21400856628E+03 -0.55568574735E+03  0.88842529606E+03  0.65864270000E+03 0.  0.
    8880022    1    1    2    0    0  0.30049694878E+02 -0.21400856628E+03 -0.40188491418E+03  0.48125438997E+03  0.15294330000E+03 0.  0.
<mgrwt>
<rscale>  0 0.54494130E+03</rscale>
<asrwt>0</asrwt>
<pdfrwt beam="1">  1        2 0.17901925E+00 0.69319035E+03</pdfrwt>
<pdfrwt beam="2">  1       -2 0.31700695E-01 0.69319035E+03</pdfrwt>
<totfact> 0.18699799E+02</totfact>
</mgrwt>
</event>
<event>
 4    2  0.3855935E-007  0.6636499E+03  0.7818608E-02  0.1020694E+00
         -2   -1    0    0    0  501 -0.00000000000E+00  0.00000000000E+00  0.17693562592E+03  0.17693562594E+03  0.25500000000E-02 0.  1.
          2   -1    0    0  501    0  0.00000000000E+00 -0.00000000000E+00 -0.28505143450E+04  0.28505143450E+04  0.25500000000E-02 0. -1.
    8880023    1    1    2    0    0 -0.17905584209E+02 -0.79374757800E+02 -0.46089498697E+03  0.80799465184E+03  0.65864270000E+03 0.  1.
    8880022    1    1    2    0    0  0.17905584209E+02  0.79374757800E+02 -0.22126837321E+04  0.22194553191E+04  0.15294330000E+03 0.  0.
<mgrwt>
<rscale>  0 0.47437003E+03</rscale>
<asrwt>0</asrwt>
<pdfrwt beam="1">  1        2 0.43854064E+00 0.66364988E+03</pdfrwt>
<pdfrwt beam="2">  1       -2 0.27220868E-01 0.66364988E+03</pdfrwt>
<totfact> 0.28245778E+01</totfact>
</mgrwt>
</event>
<event>
 4    2  0.3855935E-007  0.1138635E+04  0.7818608E-02  0.9219213E-01
         -2   -1    0    0    0  501 -0.00000000000E+00  0.00000000000E+00  0.21971040583E+04  0.21971040583E+04  0.25500000000E-02 0.  1.
          2   -1    0    0  501    0  0.00000000000E+00 -0.00000000000E+00 -0.66563283641E+03  0.66563283641E+03  0.25500000000E-02 0. -1.
    8880023    1    1    2    0    0 -0.48546933982E+03 -0.79183270425E+03  0.15475308170E+04  0.19212863783E+04  0.65864270000E+03 0.  0.
    8880022    1    1    2    0    0  0.48546933982E+03  0.79183270425E+03 -0.16059595068E+02  0.94145051651E+03  0.15294330000E+03 0.  0.
<mgrwt>
<rscale>  0 0.10857304E+04</rscale>
<asrwt>0</asrwt>
<pdfrwt beam="1">  1        2 0.10240505E+00 0.11386350E+04</pdfrwt>
<pdfrwt beam="2">  1       -2 0.33801600E+00 0.11386350E+04</pdfrwt>
<totfact> 0.80237654E-01</totfact>
</mgrwt>
</event>
<event>
 4    2  0.3855935E-007  0.8252161E+03  0.7818608E-02  0.9658713E-01
          2   -1    0    0  501    0  0.00000000000E+00  0.00000000000E+00  0.17350714088E+04  0.17350714088E+04  0.25500000000E-02 0. -1.
         -2   -1    0    0    0  501 -0.00000000000E+00 -0.00000000000E+00 -0.78268338495E+03  0.78268338495E+03  0.25500000000E-02 0.  1.
    8880023    1    1    2    0    0  0.43434609749E+03 -0.24189850343E+03 -0.50694550475E+03  0.96849128515E+03  0.65864270000E+03 0.  1.
    8880022    1    1    2    0    0 -0.43434609749E+03  0.24189850343E+03  0.14593335286E+04  0.15492635086E+04  0.15294330000E+03 0.  0.
<mgrwt>
<rscale>  0 0.73529115E+03</rscale>
<asrwt>0</asrwt>
<pdfrwt beam="1">  1        2 0.26693406E+00 0.82521611E+03</pdfrwt>
<pdfrwt beam="2">  1       -2 0.12041283E+00 0.82521611E+03</pdfrwt>
<totfact> 0.50278893E+00</totfact>
</mgrwt>
</event>
<event>
 4    2  0.3855935E-007  0.8736528E+03  0.7818608E-02  0.9569724E-01
         -2   -1    0    0    0  501 -0.00000000000E+00  0.00000000000E+00  0.35951867632E+03  0.35951867633E+03  0.25500000000E-02 0.  1.
          2   -1    0    0  501    0  0.00000000000E+00 -0.00000000000E+00 -0.23372162571E+04  0.23372162571E+04  0.25500000000E-02 0. -1.
    8880023    1    1    2    0    0 -0.55328140834E+03  0.15277027449E+03 -0.31101485919E+03  0.92736159209E+03  0.65864270000E+03 0.  0.
    8880022    1    1    2    0    0  0.55328140834E+03 -0.15277027449E+03 -0.16666827216E+04  0.17693733413E+04  0.15294330000E+03 0.  0.
<mgrwt>
<rscale>  0 0.79332848E+03</rscale>
<asrwt>0</asrwt>
<pdfrwt beam="1">  1        2 0.35957172E+00 0.87365284E+03</pdfrwt>
<pdfrwt beam="2">  1       -2 0.55310567E-01 0.87365284E+03</pdfrwt>
<totfact> 0.13597159E+01</totfact>
</mgrwt>
</event>
<event>
 4    2  0.3855935E-007  0.7118509E+03  0.7818608E-02  0.9951191E-01
         -2   -1    0    0    0  501 -0.00000000000E+00  0.00000000000E+00  0.19879382335E+03  0.19879382337E+03  0.25500000000E-02 0.  1.
          2   -1    0    0  501    0  0.00000000000E+00 -0.00000000000E+00 -0.24084074539E+04  0.24084074539E+04  0.25500000000E-02 0. -1.
    8880023    1    1    2    0    0 -0.26280144580E+03 -0.62103700529E+02 -0.50062460546E+03  0.87026241524E+03  0.65864270000E+03 0.  1.
    8880022    1    1    2    0    0  0.26280144580E+03  0.62103700529E+02 -0.17089890251E+04  0.17369388620E+04  0.15294330000E+03 0.  0.
<mgrwt>
<rscale>  0 0.57843219E+03</rscale>
<asrwt>0</asrwt>
<pdfrwt beam="1">  1        2 0.37052420E+00 0.71185088E+03</pdfrwt>
<pdfrwt beam="2">  1       -2 0.30583667E-01 0.71185088E+03</pdfrwt>
<totfact> 0.40633368E+01</totfact>
</mgrwt>
</event>
<event>
 4    2  0.3855935E-007  0.6767825E+03  0.7818608E-02  0.1011205E+00
          2   -1    0    0  501    0  0.00000000000E+00  0.00000000000E+00  0.28253308921E+03  0.28253308923E+03  0.25500000000E-02 0. -1.
         -2   -1    0    0    0  501 -0.00000000000E+00 -0.00000000000E+00 -0.81300809865E+03  0.81300809865E+03  0.25500000000E-02 0.  1.
    8880023    1    1    2    0    0  0.14989675595E+03 -0.41896433474E+02 -0.55594638054E+03  0.87584869292E+03  0.65864270000E+03 0.  1.
    8880022    1    1    2    0    0 -0.14989675595E+03  0.41896433474E+02  0.25471371108E+02  0.21969249496E+03  0.15294330000E+03 0.  0.
<mgrwt>
<rscale>  0 0.50998330E+03</rscale>
<asrwt>0</asrwt>
<pdfrwt beam="1">  1        2 0.43466630E-01 0.67678250E+03</pdfrwt>
<pdfrwt beam="2">  1       -2 0.12507817E+00 0.67678250E+03</pdfrwt>
<totfact> 0.57013977E+01</totfact>
</mgrwt>
</event>
<event>
 4    2  0.3855935E-007  0.6650580E+03  0.7818608E-02  0.1019485E+00
          2   -1    0    0  501    0  0.00000000000E+00  0.00000000000E+00  0.24188381226E+04  0.24188381226E+04  0.25500000000E-02 0. -1.
         -2   -1    0    0    0  501 -0.00000000000E+00 -0.00000000000E+00 -0.13330738725E+03  0.13330738727E+03  0.25500000000E-02 0.  1.
    8880023    1    1    2    0    0  0.73336374134E+02 -0.55800403131E+02  0.73443631517E+03  0.99080715382E+03  0.65864270000E+03 0.  1.
    8880022    1    1    2    0    0 -0.73336374134E+02  0.55800403131E+02  0.15510944202E+04  0.15613383560E+04  0.15294330000E+03 0.  0.
<mgrwt>
<rscale>  0 0.47872982E+03</rscale>
<asrwt>0</asrwt>
<pdfrwt beam="1">  1        2 0.37212895E+00 0.66505798E+03</pdfrwt>
<pdfrwt beam="2">  1       -2 0.20508828E-01 0.66505798E+03</pdfrwt>
<totfact> 0.82971021E+01</totfact>
</mgrwt>
</event>
<event>
 4    2  0.3855935E-007  0.7035370E+03  0.7818608E-02  0.9982833E-01
          2   -1    0    0  501    0  0.00000000000E+00  0.00000000000E+00  0.34608680067E+04  0.34608680067E+04  0.25500000000E-02 0. -1.
         -2   -1    0    0    0  501 -0.00000000000E+00 -0.00000000000E+00 -0.87601811145E+02  0.87601811182E+02  0.25500000000E-02 0.  1.
    8880023    1    1    2    0    0  0.98727140844E+02 -0.22673120210E+03  0.15503902619E+04  0.17025493405E+04  0.65864270000E+03 0.  1.
    8880022    1    1    2    0    0 -0.98727140844E+02  0.22673120210E+03  0.18228759337E+04  0.18459204774E+04  0.15294330000E+03 0.  0.
<mgrwt>
<rscale>  0 0.56409424E+03</rscale>
<asrwt>0</asrwt>
<pdfrwt beam="1">  1        2 0.53244128E+00 0.70353699E+03</pdfrwt>
<pdfrwt beam="2">  1       -2 0.13477201E-01 0.70353699E+03</pdfrwt>
<totfact> 0.39306346E+01</totfact>
</mgrwt>
</event>
<event>
 4    2  0.3855935E-007  0.1107345E+04  0.7818608E-02  0.9252923E-01
          2   -1    0    0  501    0  0.00000000000E+00  0.00000000000E+00  0.16960833815E+04  0.16960833815E+04  0.25500000000E-02 0. -1.
         -2   -1    0    0    0  501 -0.00000000000E+00 -0.00000000000E+00 -0.14245010763E+04  0.14245010763E+04  0.25500000000E-02 0.  1.
    8880023    1    1    2    0    0 -0.32628098405E+03  0.82821663777E+03 -0.10459215019E+04  0.15232084801E+04  0.65864270000E+03 0.  0.
    8880022    1    1    2    0    0  0.32628098405E+03 -0.82821663777E+03  0.13175038071E+04  0.15973759777E+04  0.15294330000E+03 0.  0.
<mgrwt>
<rscale>  0 0.10523487E+04</rscale>
<asrwt>0</asrwt>
<pdfrwt beam="1">  1        2 0.26093590E+00 0.11073447E+04</pdfrwt>
<pdfrwt beam="2">  1       -2 0.21915401E+00 0.11073447E+04</pdfrwt>
<totfact> 0.96834755E-01</totfact>
</mgrwt>
</event>
<event>
 4    2  0.3855935E-007  0.6813112E+03  0.7818608E-02  0.1008591E+00
          2   -1    0    0  501    0  0.00000000000E+00  0.00000000000E+00  0.10055609683E+04  0.10055609683E+04  0.25500000000E-02 0. -1.
         -2   -1    0    0    0  501 -0.00000000000E+00 -0.00000000000E+00 -0.20790080405E+03  0.20790080406E+03  0.25500000000E-02 0.  1.
    8880023    1    1    2    0    0  0.22044678870E+02  0.17288360003E+03  0.56675879019E+03  0.88622820963E+03  0.65864270000E+03 0.  1.
    8880022    1    1    2    0    0 -0.22044678870E+02 -0.17288360003E+03  0.23090137409E+03  0.32723356276E+03  0.15294330000E+03 0.  1.
<mgrwt>
<rscale>  0 0.52038283E+03</rscale>
<asrwt>0</asrwt>
<pdfrwt beam="1">  1        2 0.15470169E+00 0.68131117E+03</pdfrwt>
<pdfrwt beam="2">  1       -2 0.31984739E-01 0.68131117E+03</pdfrwt>
<totfact> 0.23016088E+02</totfact>
</mgrwt>
</event>
<event>
 4    2  0.3855935E-007  0.8319665E+03  0.7818608E-02  0.9645518E-01
          2   -1    0    0  501    0  0.00000000000E+00  0.00000000000E+00  0.14535796487E+04  0.14535796487E+04  0.25500000000E-02 0. -1.
         -2   -1    0    0    0  501 -0.00000000000E+00 -0.00000000000E+00 -0.10516659259E+04  0.10516659259E+04  0.25500000000E-02 0.  1.
    8880023    1    1    2    0    0 -0.11975982924E+03  0.49397937951E+03 -0.82300830842E+03  0.11702610504E+04  0.65864270000E+03 0.  0.
    8880022    1    1    2    0    0  0.11975982924E+03 -0.49397937951E+03  0.12249220312E+04  0.13349845242E+04  0.15294330000E+03 0.  0.
<mgrwt>
<rscale>  0 0.74355365E+03</rscale>
<asrwt>0</asrwt>
<pdfrwt beam="1">  1        2 0.22362764E+00 0.83196650E+03</pdfrwt>
<pdfrwt beam="2">  1       -2 0.16179476E+00 0.83196650E+03</pdfrwt>
<totfact> 0.33416778E+00</totfact>
</mgrwt>
</event>
<event>
 4    2  0.3855935E-007  0.6697237E+03  0.7818608E-02  0.1015862E+00
          2   -1    0    0  501    0  0.00000000000E+00  0.00000000000E+00  0.19971471675E+04  0.19971471675E+04  0.25500000000E-02 0. -1.
         -2   -1    0    0    0  501 -0.00000000000E+00 -0.00000000000E+00 -0.33224158047E+03  0.33224158048E+03  0.25500000000E-02 0.  1.
    8880023    1    1    2    0    0 -0.15845313221E+02 -0.12028512423E+03  0.16978796878E+02  0.66993885607E+03  0.65864270000E+03 0.  1.
    8880022    1    1    2    0    0  0.15845313221E+02  0.12028512423E+03  0.16479267902E+04  0.16594498919E+04  0.15294330000E+03 0.  0.
<mgrwt>
<rscale>  0 0.49210000E+03</rscale>
<asrwt>0</asrwt>
<pdfrwt beam="1">  1        2 0.30725341E+00 0.66972367E+03</pdfrwt>
<pdfrwt beam="2">  1       -2 0.51114090E-01 0.66972367E+03</pdfrwt>
<totfact> 0.25349326E+01</totfact>
</mgrwt>
</event>
<event>
 4    2  0.3855935E-007  0.7616817E+03  0.7818608E-02  0.9800773E-01
         -2   -1    0    0    0  501 -0.00000000000E+00  0.00000000000E+00  0.12711926661E+04  0.12711926661E+04  0.25500000000E-02 0.  1.
          2   -1    0    0  501    0  0.00000000000E+00 -0.00000000000E+00 -0.43039665385E+03  0.43039665386E+03  0.25500000000E-02 0. -1.
    8880023    1    1    2    0    0  0.37762106643E+03  0.61245937792E+02 -0.39917550886E+01  0.76169211305E+03  0.65864270000E+03 0. -1.
    8880022    1    1    2    0    0 -0.37762106643E+03 -0.61245937792E+02  0.84478776730E+03  0.93989720688E+03  0.15294330000E+03 0.  0.
<mgrwt>
<rscale>  0 0.65321067E+03</rscale>
<asrwt>0</asrwt>
<pdfrwt beam="1">  1        2 0.66214871E-01 0.76168165E+03</pdfrwt>
<pdfrwt beam="2">  1       -2 0.19556810E+00 0.76168165E+03</pdfrwt>
<totfact> 0.10588010E+01</totfact>
</mgrwt>
</event>
<event>
 4    2  0.3855935E-007  0.8169006E+03  0.7818608E-02  0.9675378E-01
          2   -1    0    0  501    0  0.00000000000E+00  0.00000000000E+00  0.13039046018E+04  0.13039046018E+04  0.25500000000E-02 0. -1.
         -2   -1    0    0    0  501 -0.00000000000E+00 -0.00000000000E+00 -0.73044037856E+03  0.73044037857E+03  0.25500000000E-02 0.  1.
    8880023    1    1    2    0    0 -0.15900167356E+03  0.45632764786E+03  0.10556185602E+04  0.13347873258E+04  0.65864270000E+03 0. -1.
    8880022    1    1    2    0    0  0.15900167356E+03 -0.45632764786E+03 -0.48215433692E+03  0.69955765454E+03  0.15294330000E+03 0.  0.
<mgrwt>
<rscale>  0 0.72501861E+03</rscale>
<asrwt>0</asrwt>
<pdfrwt beam="1">  1        2 0.20060070E+00 0.81690064E+03</pdfrwt>
<pdfrwt beam="2">  1       -2 0.11237544E+00 0.81690064E+03</pdfrwt>
<totfact> 0.10391156E+01</totfact>
</mgrwt>
</event>
<event>
 4    2  0.3855935E-007  0.6620388E+03  0.7818608E-02  0.1022159E+00
          2   -1    0    0  501    0  0.00000000000E+00  0.00000000000E+00  0.19804879404E+04  0.19804879404E+04  0.25500000000E-02 0. -1.
         -2   -1    0    0    0  501 -0.00000000000E+00 -0.00000000000E+00 -0.98591410349E+02  0.98591410382E+02  0.25500000000E-02 0.  1.
    8880023    1    1    2    0    0 -0.66264202797E+02  0.97041548672E+01  0.11369901250E+04  0.13156906422E+04  0.65864270000E+03 0.  1.
    8880022    1    1    2    0    0  0.66264202797E+02 -0.97041548672E+01  0.74490640505E+03  0.76338870865E+03  0.15294330000E+03 0.  0.
<mgrwt>
<rscale>  0 0.46915664E+03</rscale>
<asrwt>0</asrwt>
<pdfrwt beam="1">  1        2 0.30469043E+00 0.66203876E+03</pdfrwt>
<pdfrwt beam="2">  1       -2 0.15167910E-01 0.66203876E+03</pdfrwt>
<totfact> 0.24290011E+02</totfact>
</mgrwt>
</event>
<event>
 4    2  0.3855935E-007  0.7406121E+03  0.7818608E-02  0.9858168E-01
          2   -1    0    0  501    0  0.00000000000E+00  0.00000000000E+00  0.87233160532E+03  0.87233160532E+03  0.25500000000E-02 0. -1.
         -2   -1    0    0    0  501 -0.00000000000E+00 -0.00000000000E+00 -0.61552388590E+03  0.61552388590E+03  0.25500000000E-02 0.  1.
    8880023    1    1    2    0    0  0.29434930175E+03 -0.16749507637E+03 -0.31588646368E+03  0.80516493729E+03  0.65864270000E+03 0.  1.
    8880022    1    1    2    0    0 -0.29434930175E+03  0.16749507637E+03  0.57269418311E+03  0.68269055393E+03  0.15294330000E+03 0.  0.
<mgrwt>
<rscale>  0 0.62332208E+03</rscale>
<asrwt>0</asrwt>
<pdfrwt beam="1">  1        2 0.13420486E+00 0.74061212E+03</pdfrwt>
<pdfrwt beam="2">  1       -2 0.94695983E-01 0.74061212E+03</pdfrwt>
<totfact> 0.29210656E+01</totfact>
</mgrwt>
</event>
<event>
 4    2  0.3855935E-007  0.1171287E+04  0.7818608E-02  0.9185552E-01
          2   -1    0    0  501    0  0.00000000000E+00  0.00000000000E+00  0.94038033571E+03  0.94038033571E+03  0.25500000000E-02 0. -1.
         -2   -1    0    0    0  501 -0.00000000000E+00 -0.00000000000E+00 -0.17301151389E+04  0.17301151389E+04  0.25500000000E-02 0.  1.
    8880023    1    1    2    0    0  0.96326618275E+03 -0.10109479917E+03 -0.11349365846E+04  0.16309485444E+04  0.65864270000E+03 0.  0.
    8880022    1    1    2    0    0 -0.96326618275E+03  0.10109479917E+03  0.34520178136E+03  0.10395469302E+04  0.15294330000E+03 0.  0.
<mgrwt>
<rscale>  0 0.11203808E+04</rscale>
<asrwt>0</asrwt>
<pdfrwt beam="1">  1        2 0.14467390E+00 0.11712865E+04</pdfrwt>
<pdfrwt beam="2">  1       -2 0.26617156E+00 0.11712865E+04</pdfrwt>
<totfact> 0.13795857E+00</totfact>
</mgrwt>
</event>
<event>
 4    2  0.3855935E-007  0.1012818E+04  0.7818608E-02  0.9364977E-01
         -2   -1    0    0    0  501 -0.00000000000E+00  0.00000000000E+00  0.13590817497E+04  0.13590817497E+04  0.25500000000E-02 0.  1.
          2   -1    0    0  501    0  0.00000000000E+00 -0.00000000000E+00 -0.89140183520E+03  0.89140183520E+03  0.25500000000E-02 0. -1.
    8880023    1    1    2    0    0 -0.68328360562E+03  0.35371425342E+03  0.89988155653E+03  0.13548384704E+04  0.65864270000E+03 0.  0.
    8880022    1    1    2    0    0  0.68328360562E+03 -0.35371425342E+03 -0.43220164203E+03  0.89564511452E+03  0.15294330000E+03 0.  0.
<mgrwt>
<rscale>  0 0.95014891E+03</rscale>
<asrwt>0</asrwt>
<pdfrwt beam="1">  1        2 0.13713874E+00 0.10128181E+04</pdfrwt>
<pdfrwt beam="2">  1       -2 0.20908950E+00 0.10128181E+04</pdfrwt>
<totfact> 0.34206292E+00</totfact>
</mgrwt>
</event>
<event>
 4    2  0.3855935E-007  0.6968719E+03  0.7818608E-02  0.1001043E+00
          2   -1    0    0  501    0  0.00000000000E+00  0.00000000000E+00  0.29017416748E+03  0.29017416749E+03  0.25500000000E-02 0. -1.
         -2   -1    0    0    0  501 -0.00000000000E+00 -0.00000000000E+00 -0.84251613057E+03  0.84251613057E+03  0.25500000000E-02 0.  1.
    8880023    1    1    2    0    0 -0.22217465362E+03 -0.49584832683E+02 -0.48871100469E+03  0.85115737952E+03  0.65864270000E+03 0.  1.
    8880022    1    1    2    0    0  0.22217465362E+03  0.49584832683E+02 -0.63630958398E+02  0.28153291855E+03  0.15294330000E+03 0.  1.
<mgrwt>
<rscale>  0 0.55195100E+03</rscale>
<asrwt>0</asrwt>
<pdfrwt beam="1">  1        2 0.44642180E-01 0.69687190E+03</pdfrwt>
<pdfrwt beam="2">  1       -2 0.12961786E+00 0.69687190E+03</pdfrwt>
<totfact> 0.50543189E+01</totfact>
</mgrwt>
</event>
<event>
 4    2  0.3855935E-007  0.7128149E+03  0.7818608E-02  0.9947693E-01
         -2   -1    0    0    0  501 -0.00000000000E+00  0.00000000000E+00  0.16393817980E+03  0.16393817982E+03  0.25500000000E-02 0.  1.
          2   -1    0    0  501    0  0.00000000000E+00 -0.00000000000E+00 -0.21570145598E+04  0.21570145599E+04  0.25500000000E-02 0. -1.
    8880023    1    1    2    0    0 -0.19725729115E+03  0.18810742772E+03 -0.18393576082E+04  0.19726483367E+04  0.65864270000E+03 0.  0.
    8880022    1    1    2    0    0  0.19725729115E+03 -0.18810742772E+03 -0.15371877185E+03  0.34830440295E+03  0.15294330000E+03 0.  0.
<mgrwt>
<rscale>  0 0.58004526E+03</rscale>
<asrwt>0</asrwt>
<pdfrwt beam="1">  1        2 0.33184837E+00 0.71281488E+03</pdfrwt>
<pdfrwt beam="2">  1       -2 0.25221260E-01 0.71281488E+03</pdfrwt>
<totfact> 0.79710352E+01</totfact>
</mgrwt>
</event>
<event>
 4    2  0.3855935E-007  0.9386539E+03  0.7818608E-02  0.9466630E-01
          2   -1    0    0  501    0  0.00000000000E+00  0.00000000000E+00  0.84154866614E+03  0.84154866614E+03  0.25500000000E-02 0. -1.
         -2   -1    0    0    0  501 -0.00000000000E+00 -0.00000000000E+00 -0.85445980027E+03  0.85445980027E+03  0.25500000000E-02 0.  1.
    8880023    1    1    2    0    0  0.77148119643E+02 -0.66431098156E+03 -0.24790064261E+03  0.97083770397E+03  0.65864270000E+03 0.  0.
    8880022    1    1    2    0    0 -0.77148119643E+02  0.66431098156E+03  0.23498950848E+03  0.72517076244E+03  0.15294330000E+03 0.  0.
<mgrwt>
<rscale>  0 0.86789396E+03</rscale>
<asrwt>0</asrwt>
<pdfrwt beam="1">  1        2 0.12946903E+00 0.93865389E+03</pdfrwt>
<pdfrwt beam="2">  1       -2 0.13145535E+00 0.93865389E+03</pdfrwt>
<totfact> 0.13549745E+01</totfact>
</mgrwt>
</event>
<event>
 4    2  0.3855935E-007  0.6901056E+03  0.7818608E-02  0.1004102E+00
         -2   -1    0    0    0  501 -0.00000000000E+00  0.00000000000E+00  0.42548534432E+03  0.42548534433E+03  0.25500000000E-02 0.  1.
          2   -1    0    0  501    0  0.00000000000E+00 -0.00000000000E+00 -0.62322740296E+03  0.62322740297E+03  0.25500000000E-02 0. -1.
    8880023    1    1    2    0    0  0.18259447335E+03 -0.95366693514E+02  0.50185664731E+02  0.69192799852E+03  0.65864270000E+03 0.  1.
    8880022    1    1    2    0    0 -0.18259447335E+03  0.95366693514E+02 -0.24792772337E+03  0.35678474878E+03  0.15294330000E+03 0.  0.
<mgrwt>
<rscale>  0 0.53887414E+03</rscale>
<asrwt>0</asrwt>
<pdfrwt beam="1">  1        2 0.95881139E-01 0.69010561E+03</pdfrwt>
<pdfrwt beam="2">  1       -2 0.65459284E-01 0.69010561E+03</pdfrwt>
<totfact> 0.10336450E+02</totfact>
</mgrwt>
</event>
<event>
 4    2  0.3855935E-007  0.8300298E+03  0.7818608E-02  0.9649274E-01
         -2   -1    0    0    0  501 -0.00000000000E+00  0.00000000000E+00  0.16203091106E+04  0.16203091106E+04  0.25500000000E-02 0.  1.
          2   -1    0    0  501    0  0.00000000000E+00 -0.00000000000E+00 -0.66271923670E+03  0.66271923670E+03  0.25500000000E-02 0. -1.
    8880023    1    1    2    0    0  0.23757330273E+03  0.44575572764E+03  0.13777382929E+04  0.16084502644E+04  0.65864270000E+03 0.  0.
    8880022    1    1    2    0    0 -0.23757330273E+03 -0.44575572764E+03 -0.42014841905E+03  0.67457808291E+03  0.15294330000E+03 0.  0.
<mgrwt>
<rscale>  0 0.74118979E+03</rscale>
<asrwt>0</asrwt>
<pdfrwt beam="1">  1        2 0.10195681E+00 0.83002979E+03</pdfrwt>
<pdfrwt beam="2">  1       -2 0.24927832E+00 0.83002979E+03</pdfrwt>
<totfact> 0.29034132E+00</totfact>
</mgrwt>
</event>
<event>
 4    2  0.3855935E-007  0.8357729E+03  0.7818608E-02  0.9638203E-01
          2   -1    0    0  501    0  0.00000000000E+00  0.00000000000E+00  0.62768872914E+03  0.62768872914E+03  0.25500000000E-02 0. -1.
         -2   -1    0    0    0  501 -0.00000000000E+00 -0.00000000000E+00 -0.88522826853E+03  0.88522826853E+03  0.25500000000E-02 0.  1.
    8880023    1    1    2    0    0  0.45477445257E+03 -0.24059567197E+03 -0.44188063362E+03  0.94539662614E+03  0.65864270000E+03 0.  1.
    8880022    1    1    2    0    0 -0.45477445257E+03  0.24059567197E+03  0.18434109423E+03  0.56752037154E+03  0.15294330000E+03 0.  0.
<mgrwt>
<rscale>  0 0.74818446E+03</rscale>
<asrwt>0</asrwt>
<pdfrwt beam="1">  1        2 0.96567496E-01 0.83577287E+03</pdfrwt>
<pdfrwt beam="2">  1       -2 0.13618897E+00 0.83577287E+03</pdfrwt>
<totfact> 0.18219314E+01</totfact>
</mgrwt>
</event>
<event>
 4    2  0.3855935E-007  0.6615570E+03  0.7818608E-02  0.1022615E+00
         -2   -1    0    0    0  501 -0.00000000000E+00  0.00000000000E+00  0.12072119292E+04  0.12072119292E+04  0.25500000000E-02 0.  1.
          2   -1    0    0  501    0  0.00000000000E+00 -0.00000000000E+00 -0.36661092110E+03  0.36661092111E+03  0.25500000000E-02 0. -1.
    8880023    1    1    2    0    0  0.30893175692E+02  0.53787600611E+02  0.10898266507E+04  0.12749038509E+04  0.65864270000E+03 0.  1.
    8880022    1    1    2    0    0 -0.30893175692E+02 -0.53787600611E+02 -0.24922564257E+03  0.29891899941E+03  0.15294330000E+03 0.  0.
<mgrwt>
<rscale>  0 0.46754633E+03</rscale>
<asrwt>0</asrwt>
<pdfrwt beam="1">  1        2 0.56401681E-01 0.66155703E+03</pdfrwt>
<pdfrwt beam="2">  1       -2 0.18572491E+00 0.66155703E+03</pdfrwt>
<totfact> 0.14894863E+01</totfact>
</mgrwt>
</event>
<event>
 4    2  0.3855935E-007  0.6745785E+03  0.7818608E-02  0.1012573E+00
          2   -1    0    0  501    0  0.00000000000E+00  0.00000000000E+00  0.20622382720E+04  0.20622382720E+04  0.25500000000E-02 0. -1.
         -2   -1    0    0    0  501 -0.00000000000E+00 -0.00000000000E+00 -0.16241394540E+03  0.16241394542E+03  0.25500000000E-02 0.  1.
    8880023    1    1    2    0    0 -0.12543716161E+03  0.74239455639E+02  0.58483358121E+03  0.89279701067E+03  0.65864270000E+03 0.  0.
    8880022    1    1    2    0    0  0.12543716161E+03 -0.74239455639E+02  0.13149907454E+04  0.13318552068E+04  0.15294330000E+03 0.  0.
<mgrwt>
<rscale>  0 0.50464622E+03</rscale>
<asrwt>0</asrwt>
<pdfrwt beam="1">  1        2 0.31726742E+00 0.67457852E+03</pdfrwt>
<pdfrwt beam="2">  1       -2 0.24986761E-01 0.67457852E+03</pdfrwt>
<totfact> 0.91765390E+01</totfact>
</mgrwt>
</event>
<event>
 4    2  0.3855935E-007  0.6943377E+03  0.7818608E-02  0.1002155E+00
         -2   -1    0    0    0  501 -0.00000000000E+00  0.00000000000E+00  0.11629561786E+03  0.11629561789E+03  0.25500000000E-02 0.  1.
          2   -1    0    0  501    0  0.00000000000E+00 -0.00000000000E+00 -0.30380667245E+04  0.30380667245E+04  0.25500000000E-02 0. -1.
    8880023    1    1    2    0    0 -0.21972322307E+03  0.40349406023E+01 -0.10203774159E+04  0.12342102141E+04  0.65864270000E+03 0.  1.
    8880022    1    1    2    0    0  0.21972322307E+03 -0.40349406023E+01 -0.19013936907E+04  0.19201521282E+04  0.15294330000E+03 0.  0.
<mgrwt>
<rscale>  0 0.54715139E+03</rscale>
<asrwt>0</asrwt>
<pdfrwt beam="1">  1        2 0.46739482E+00 0.69433766E+03</pdfrwt>
<pdfrwt beam="2">  1       -2 0.17891636E-01 0.69433766E+03</pdfrwt>
<totfact> 0.45522549E+01</totfact>
</mgrwt>
</event>
<event>
 4    2  0.3855935E-007  0.9783530E+03  0.7818608E-02  0.9410443E-01
         -2   -1    0    0    0  501 -0.00000000000E+00  0.00000000000E+00  0.38969247441E+03  0.38969247442E+03  0.25500000000E-02 0.  1.
          2   -1    0    0  501    0  0.00000000000E+00 -0.00000000000E+00 -0.30199049507E+04  0.30199049507E+04  0.25500000000E-02 0. -1.
    8880023    1    1    2    0    0  0.71938020779E+03 -0.76527885633E+02 -0.39470147545E+03  0.10549710241E+04  0.65864270000E+03 0.  0.
    8880022    1    1    2    0    0 -0.71938020779E+03  0.76527885633E+02 -0.22355110009E+04  0.23546264011E+04  0.15294330000E+03 0.  0.
<mgrwt>
<rscale>  0 0.91221223E+03</rscale>
<asrwt>0</asrwt>
<pdfrwt beam="1">  1        2 0.46460075E+00 0.97835301E+03</pdfrwt>
<pdfrwt beam="2">  1       -2 0.59952690E-01 0.97835301E+03</pdfrwt>
<totfact> 0.45050144E+00</totfact>
</mgrwt>
</event>
<event>
 4    2  0.3855935E-007  0.1522156E+04  0.7818608E-02  0.8894147E-01
         -2   -1    0    0    0  501 -0.00000000000E+00  0.00000000000E+00  0.11941230280E+04  0.11941230280E+04  0.25500000000E-02 0.  1.
          2   -1    0    0  501    0  0.00000000000E+00 -0.00000000000E+00 -0.25914207170E+04  0.25914207170E+04  0.25500000000E-02 0. -1.
    8880023    1    1    2    0    0 -0.73749330174E+03 -0.11572613014E+04 -0.17903055951E+04  0.23499264712E+04  0.65864270000E+03 0.  0.
    8880022    1    1    2    0    0  0.73749330174E+03  0.11572613014E+04  0.39300790599E+03  0.14356172738E+04  0.15294330000E+03 0.  0.
<mgrwt>
<rscale>  0 0.14855089E+04</rscale>
<asrwt>0</asrwt>
<pdfrwt beam="1">  1        2 0.39868011E+00 0.15221565E+04</pdfrwt>
<pdfrwt beam="2">  1       -2 0.18371123E+00 0.15221565E+04</pdfrwt>
<totfact> 0.49428988E-01</totfact>
</mgrwt>
</event>
<event>
 4    2  0.3855935E-007  0.1089317E+04  0.7818608E-02  0.9273044E-01
         -2   -1    0    0    0  501 -0.00000000000E+00  0.00000000000E+00  0.74436013929E+03  0.74436013929E+03  0.25500000000E-02 0.  1.
          2   -1    0    0  501    0  0.00000000000E+00 -0.00000000000E+00 -0.14709555875E+04  0.14709555875E+04  0.25500000000E-02 0. -1.
    8880023    1    1    2    0    0  0.21702916471E+03 -0.84005976630E+03 -0.25891602250E+02  0.10896250046E+04  0.65864270000E+03 0. -1.
    8880022    1    1    2    0    0 -0.21702916471E+03  0.84005976630E+03 -0.70070384595E+03  0.11256907222E+04  0.15294330000E+03 0.  1.
<mgrwt>
<rscale>  0 0.10330280E+04</rscale>
<asrwt>0</asrwt>
<pdfrwt beam="1">  1        2 0.22630086E+00 0.10893173E+04</pdfrwt>
<pdfrwt beam="2">  1       -2 0.11451694E+00 0.10893173E+04</pdfrwt>
<totfact> 0.77399935E+00</totfact>
</mgrwt>
</event>
<event>
 4    2  0.3855935E-007  0.7270484E+03  0.7818608E-02  0.9899420E-01
         -2   -1    0    0    0  501 -0.00000000000E+00  0.00000000000E+00  0.44794867819E+03  0.44794867819E+03  0.25500000000E-02 0.  1.
          2   -1    0    0  501    0  0.00000000000E+00 -0.00000000000E+00 -0.80994367800E+03  0.80994367800E+03  0.25500000000E-02 0. -1.
    8880023    1    1    2    0    0 -0.14939676976E+03  0.26920216371E+03  0.40981991584E+02  0.72820253340E+03  0.65864270000E+03 0.  0.
    8880022    1    1    2    0    0  0.14939676976E+03 -0.26920216371E+03 -0.40297699139E+03  0.52968982279E+03  0.15294330000E+03 0.  0.
<mgrwt>
<rscale>  0 0.60289390E+03</rscale>
<asrwt>0</asrwt>
<pdfrwt beam="1">  1        2 0.12460672E+00 0.72704842E+03</pdfrwt>
<pdfrwt beam="2">  1       -2 0.68915182E-01 0.72704842E+03</pdfrwt>
<totfact> 0.66151816E+01</totfact>
</mgrwt>
</event>
<event>
 4    2  0.3855935E-007  0.1109284E+04  0.7818608E-02  0.9250790E-01
          2   -1    0    0  501    0  0.00000000000E+00  0.00000000000E+00  0.17180583965E+04  0.17180583965E+04  0.25500000000E-02 0. -1.
         -2   -1    0    0    0  501 -0.00000000000E+00 -0.00000000000E+00 -0.62314104321E+03  0.62314104321E+03  0.25500000000E-02 0.  1.
    8880023    1    1    2    0    0  0.19823269137E+03  0.87028945278E+03  0.33429971837E+03  0.11585622295E+04  0.65864270000E+03 0.  0.
    8880022    1    1    2    0    0 -0.19823269137E+03 -0.87028945278E+03  0.76061763493E+03  0.11826372103E+04  0.15294330000E+03 0.  0.
<mgrwt>
<rscale>  0 0.10544227E+04</rscale>
<asrwt>0</asrwt>
<pdfrwt beam="1">  1        2 0.26431667E+00 0.11092836E+04</pdfrwt>
<pdfrwt beam="2">  1       -2 0.95867855E-01 0.11092836E+04</pdfrwt>
<totfact> 0.86255948E+00</totfact>
</mgrwt>
</event>
<event>
 4    2  0.3855935E-007  0.6687652E+03  0.7818608E-02  0.1016564E+00
          2   -1    0    0  501    0  0.00000000000E+00  0.00000000000E+00  0.24065424087E+03  0.24065424088E+03  0.25500000000E-02 0. -1.
         -2   -1    0    0    0  501 -0.00000000000E+00 -0.00000000000E+00 -0.12700302421E+04  0.12700302421E+04  0.25500000000E-02 0.  1.
    8880023    1    1    2    0    0  0.22174595306E+02 -0.11377602273E+03 -0.11152849336E+04  0.13004258477E+04  0.65864270000E+03 0.  1.
    8880022    1    1    2    0    0 -0.22174595306E+02  0.11377602273E+03  0.85908932369E+02  0.21025863526E+03  0.15294330000E+03 0.  0.
<mgrwt>
<rscale>  0 0.48947220E+03</rscale>
<asrwt>0</asrwt>
<pdfrwt beam="1">  1        2 0.37023730E-01 0.66876521E+03</pdfrwt>
<pdfrwt beam="2">  1       -2 0.19538927E+00 0.66876521E+03</pdfrwt>
<totfact> 0.20498619E+01</totfact>
</mgrwt>
</event>
<event>
 4    2  0.3855935E-007  0.7295627E+03  0.7818608E-02  0.9891465E-01
         -2   -1    0    0    0  501 -0.00000000000E+00  0.00000000000E+00  0.10084696717E+04  0.10084696717E+04  0.25500000000E-02 0.  1.
          2   -1    0    0  501    0  0.00000000000E+00 -0.00000000000E+00 -0.30331167341E+03  0.30331167342E+03  0.25500000000E-02 0. -1.
    8880023    1    1    2    0    0  0.63860165109E+02 -0.30720250380E+03  0.60733673921E+03  0.94927320624E+03  0.65864270000E+03 0.  1.
    8880022    1    1    2    0    0 -0.63860165109E+02  0.30720250380E+03  0.97821259105E+02  0.36250813891E+03  0.15294330000E+03 0. -1.
<mgrwt>
<rscale>  0 0.60676720E+03</rscale>
<asrwt>0</asrwt>
<pdfrwt beam="1">  1        2 0.46663334E-01 0.72956268E+03</pdfrwt>
<pdfrwt beam="2">  1       -2 0.15514918E+00 0.72956268E+03</pdfrwt>
<totfact> 0.30102789E+01</totfact>
</mgrwt>
</event>
<event>
 4    2  0.3855935E-007  0.1068023E+04  0.7818608E-02  0.9297522E-01
          2   -1    0    0  501    0  0.00000000000E+00  0.00000000000E+00  0.10480489289E+04  0.10480489289E+04  0.25500000000E-02 0. -1.
         -2   -1    0    0    0  501 -0.00000000000E+00 -0.00000000000E+00 -0.13125898535E+04  0.13125898535E+04  0.25500000000E-02 0.  1.
    8880023    1    1    2    0    0  0.83296746752E+03 -0.11414228263E+03 -0.81559177125E+03  0.13438241724E+04  0.65864270000E+03 0.  0.
    8880022    1    1    2    0    0 -0.83296746752E+03  0.11414228263E+03  0.55105084660E+03  0.10168146100E+04  0.15294330000E+03 0.  0.
<mgrwt>
<rscale>  0 0.10101127E+04</rscale>
<asrwt>0</asrwt>
<pdfrwt beam="1">  1        2 0.16123830E+00 0.10680232E+04</pdfrwt>
<pdfrwt beam="2">  1       -2 0.20193690E+00 0.10680232E+04</pdfrwt>
<totfact> 0.29864475E+00</totfact>
</mgrwt>
</event>
<event>
 4    2  0.3855935E-007  0.7166956E+03  0.7818608E-02  0.9933930E-01
         -2   -1    0    0    0  501 -0.00000000000E+00  0.00000000000E+00  0.36432770749E+03  0.36432770750E+03  0.25500000000E-02 0.  1.
          2   -1    0    0  501    0  0.00000000000E+00 -0.00000000000E+00 -0.79416567231E+03  0.79416567231E+03  0.25500000000E-02 0. -1.
    8880023    1    1    2    0    0  0.13285011368E+03 -0.24938574587E+03 -0.43268700348E+03  0.83718017905E+03  0.65864270000E+03 0.  0.
    8880022    1    1    2    0    0 -0.13285011368E+03  0.24938574587E+03  0.28490386679E+01  0.32131320076E+03  0.15294330000E+03 0.  0.
<mgrwt>
<rscale>  0 0.58644723E+03</rscale>
<asrwt>0</asrwt>
<pdfrwt beam="1">  1        2 0.12217933E+00 0.71669562E+03</pdfrwt>
<pdfrwt beam="2">  1       -2 0.56050417E-01 0.71669562E+03</pdfrwt>
<totfact> 0.10545180E+02</totfact>
</mgrwt>
</event>
<event>
 4    2  0.3855935E-007  0.8819594E+03  0.7818608E-02  0.9555636E-01
          2   -1    0    0  501    0  0.00000000000E+00  0.00000000000E+00  0.84527276385E+03  0.84527276385E+03  0.25500000000E-02 0. -1.
         -2   -1    0    0    0  501 -0.00000000000E+00 -0.00000000000E+00 -0.12169126914E+04  0.12169126914E+04  0.25500000000E-02 0.  1.
    8880023    1    1    2    0    0 -0.33905507727E+02  0.58557025107E+03 -0.89852029861E+03  0.12590436989E+04  0.65864270000E+03 0.  1.
    8880022    1    1    2    0    0  0.33905507727E+02 -0.58557025107E+03  0.52688037106E+03  0.80314175637E+03  0.15294330000E+03 0.  0.
<mgrwt>
<rscale>  0 0.80303377E+03</rscale>
<asrwt>0</asrwt>
<pdfrwt beam="1">  1        2 0.13004196E+00 0.88195936E+03</pdfrwt>
<pdfrwt beam="2">  1       -2 0.18721734E+00 0.88195936E+03</pdfrwt>
<totfact> 0.51983045E+00</totfact>
</mgrwt>
</event>
<event>
 4    2  0.3855935E-007  0.8944614E+03  0.7818608E-02  0.9534982E-01
         -2   -1    0    0    0  501 -0.00000000000E+00  0.00000000000E+00  0.14632802311E+04  0.14632802311E+04  0.25500000000E-02 0.  1.
          2   -1    0    0  501    0  0.00000000000E+00 -0.00000000000E+00 -0.13480927503E+04  0.13480927503E+04  0.25500000000E-02 0. -1.
    8880023    1    1    2    0    0 -0.29472070155E+03  0.52857425727E+03  0.12376400238E+04  0.15270278557E+04  0.65864270000E+03 0.  1.
    8880022    1    1    2    0    0  0.29472070155E+03 -0.52857425727E+03 -0.11224525430E+04  0.12843451256E+04  0.15294330000E+03 0.  0.
<mgrwt>
<rscale>  0 0.81753156E+03</rscale>
<asrwt>0</asrwt>
<pdfrwt beam="1">  1        2 0.20739889E+00 0.89446143E+03</pdfrwt>
<pdfrwt beam="2">  1       -2 0.22512003E+00 0.89446143E+03</pdfrwt>
<totfact> 0.14359213E+00</totfact>
</mgrwt>
</event>
<event>
 4    2  0.3855935E-007  0.9874953E+03  0.7818608E-02  0.9398104E-01
         -2   -1    0    0    0  501 -0.00000000000E+00  0.00000000000E+00  0.85891312909E+03  0.85891312910E+03  0.25500000000E-02 0.  1.
          2   -1    0    0  501    0  0.00000000000E+00 -0.00000000000E+00 -0.11320164572E+04  0.11320164572E+04  0.25500000000E-02 0. -1.
    8880023    1    1    2    0    0 -0.19687470355E+03 -0.70892667566E+03  0.31517390363E+03  0.10365719831E+04  0.65864270000E+03 0.  1.
    8880022    1    1    2    0    0  0.19687470355E+03  0.70892667566E+03 -0.58827723170E+03  0.95435760316E+03  0.15294330000E+03 0.  0.
<mgrwt>
<rscale>  0 0.92231912E+03</rscale>
<asrwt>0</asrwt>
<pdfrwt beam="1">  1        2 0.17415638E+00 0.98749526E+03</pdfrwt>
<pdfrwt beam="2">  1       -2 0.13214048E+00 0.98749526E+03</pdfrwt>
<totfact> 0.86153423E+00</totfact>
</mgrwt>
</event>
<event>
 4    2  0.3855935E-007  0.8841142E+03  0.7818608E-02  0.9552030E-01
          2   -1    0    0  501    0  0.00000000000E+00  0.00000000000E+00  0.11102989146E+04  0.11102989146E+04  0.25500000000E-02 0. -1.
         -2   -1    0    0    0  501 -0.00000000000E+00 -0.00000000000E+00 -0.64550401924E+03  0.64550401924E+03  0.25500000000E-02 0.  1.
    8880023    1    1    2    0    0  0.52333310882E+03  0.27197466701E+03 -0.14252176379E+03  0.89552801280E+03  0.65864270000E+03 0. -1.
    8880022    1    1    2    0    0 -0.52333310882E+03 -0.27197466701E+03  0.60731665914E+03  0.86027492104E+03  0.15294330000E+03 0.  0.
<mgrwt>
<rscale>  0 0.80554173E+03</rscale>
<asrwt>0</asrwt>
<pdfrwt beam="1">  1        2 0.17081522E+00 0.88411423E+03</pdfrwt>
<pdfrwt beam="2">  1       -2 0.99308311E-01 0.88411423E+03</pdfrwt>
<totfact> 0.18103782E+01</totfact>
</mgrwt>
</event>
<event>
 4    2  0.3855935E-007  0.8203689E+03  0.7818608E-02  0.9668370E-01
          2   -1    0    0  501    0  0.00000000000E+00  0.00000000000E+00  0.95125991910E+03  0.95125991911E+03  0.25500000000E-02 0. -1.
         -2   -1    0    0    0  501 -0.00000000000E+00 -0.00000000000E+00 -0.47221518232E+03  0.47221518233E+03  0.25500000000E-02 0.  1.
    8880023    1    1    2    0    0 -0.46372394201E+03  0.15541910639E+03  0.36811311874E+03  0.89917321328E+03  0.65864270000E+03 0. -1.
    8880022    1    1    2    0    0  0.46372394201E+03 -0.15541910639E+03  0.11093161805E+03  0.52430188816E+03  0.15294330000E+03 0.  1.
<mgrwt>
<rscale>  0 0.72931641E+03</rscale>
<asrwt>0</asrwt>
<pdfrwt beam="1">  1        2 0.14634768E+00 0.82036894E+03</pdfrwt>
<pdfrwt beam="2">  1       -2 0.72648491E-01 0.82036894E+03</pdfrwt>
<totfact> 0.46857045E+01</totfact>
</mgrwt>
</event>
<event>
 4    2  0.3855935E-007  0.7559626E+03  0.7818608E-02  0.9815674E-01
         -2   -1    0    0    0  501 -0.00000000000E+00  0.00000000000E+00  0.50732256260E+03  0.50732256261E+03  0.25500000000E-02 0.  1.
          2   -1    0    0  501    0  0.00000000000E+00 -0.00000000000E+00 -0.19950208967E+04  0.19950208967E+04  0.25500000000E-02 0. -1.
    8880023    1    1    2    0    0  0.37038659147E+03 -0.21977416639E+02  0.18822126104E+03  0.77904215762E+03  0.65864270000E+03 0.  1.
    8880022    1    1    2    0    0 -0.37038659147E+03  0.21977416639E+02 -0.16759195951E+04  0.17233013016E+04  0.15294330000E+03 0.  0.
<mgrwt>
<rscale>  0 0.64528117E+03</rscale>
<asrwt>0</asrwt>
<pdfrwt beam="1">  1        2 0.30692629E+00 0.75596259E+03</pdfrwt>
<pdfrwt beam="2">  1       -2 0.78049626E-01 0.75596259E+03</pdfrwt>
<totfact> 0.10161395E+01</totfact>
</mgrwt>
</event>
<event>
 4    2  0.3855935E-007  0.9276337E+03  0.7818608E-02  0.9483052E-01
          2   -1    0    0  501    0  0.00000000000E+00  0.00000000000E+00  0.28225776830E+04  0.28225776830E+04  0.25500000000E-02 0. -1.
         -2   -1    0    0    0  501 -0.00000000000E+00 -0.00000000000E+00 -0.80058843327E+03  0.80058843328E+03  0.25500000000E-02 0.  1.
    8880023    1    1    2    0    0  0.47217185997E+03  0.45138427991E+03 -0.47179373133E+03  0.10407178122E+04  0.65864270000E+03 0.  1.
    8880022    1    1    2    0    0 -0.47217185997E+03 -0.45138427991E+03  0.24937829811E+04  0.25824483041E+04  0.15294330000E+03 0.  0.
<mgrwt>
<rscale>  0 0.85544931E+03</rscale>
<asrwt>0</asrwt>
<pdfrwt beam="1">  1        2 0.43424272E+00 0.92763368E+03</pdfrwt>
<pdfrwt beam="2">  1       -2 0.12316745E+00 0.92763368E+03</pdfrwt>
<totfact> 0.11438153E+00</totfact>
</mgrwt>
</event>
<event>
 4    2  0.3855935E-007  0.7209045E+03  0.7818608E-02  0.9919537E-01
         -2   -1    0    0    0  501 -0.00000000000E+00  0.00000000000E+00  0.31708087001E+03  0.31708087002E+03  0.25500000000E-02 0.  1.
          2   -1    0    0  501    0  0.00000000000E+00 -0.00000000000E+00 -0.23387055743E+04  0.23387055743E+04  0.25500000000E-02 0. -1.
    8880023    1    1    2    0    0  0.28159432931E+03  0.81226730068E+02 -0.12634547202E+03  0.73189243236E+03  0.65864270000E+03 0.  0.
    8880022    1    1    2    0    0 -0.28159432931E+03 -0.81226730068E+02 -0.18952792323E+04  0.19238940120E+04  0.15294330000E+03 0.  0.
<mgrwt>
<rscale>  0 0.59323708E+03</rscale>
<asrwt>0</asrwt>
<pdfrwt beam="1">  1        2 0.35980085E+00 0.72090454E+03</pdfrwt>
<pdfrwt beam="2">  1       -2 0.48781674E-01 0.72090454E+03</pdfrwt>
<totfact> 0.17953827E+01</totfact>
</mgrwt>
</event>
<event>
 4    2  0.3855935E-007  0.7390674E+03  0.7818608E-02  0.9862672E-01
          2   -1    0    0  501    0  0.00000000000E+00  0.00000000000E+00  0.21322189487E+04  0.21322189487E+04  0.25500000000E-02 0. -1.
         -2   -1    0    0    0  501 -0.00000000000E+00 -0.00000000000E+00 -0.24272493657E+03  0.24272493658E+03  0.25500000000E-02 0.  1.
    8880023    1    1    2    0    0 -0.28780340059E+03 -0.17198725269E+03  0.39965463265E+03  0.84020500126E+03  0.65864270000E+03 0.  1.
    8880022    1    1    2    0    0  0.28780340059E+03  0.17198725269E+03  0.14898393795E+04  0.15347388841E+04  0.15294330000E+03 0.  0.
<mgrwt>
<rscale>  0 0.62104966E+03</rscale>
<asrwt>0</asrwt>
<pdfrwt beam="1">  1        2 0.32803369E+00 0.73906740E+03</pdfrwt>
<pdfrwt beam="2">  1       -2 0.37342297E-01 0.73906740E+03</pdfrwt>
<totfact> 0.39460094E+01</totfact>
</mgrwt>
</event>
<event>
 4    2  0.3855935E-007  0.6656059E+03  0.7818608E-02  0.1019030E+00
          2   -1    0    0  501    0  0.00000000000E+00  0.00000000000E+00  0.14658755014E+04  0.14658755015E+04  0.25500000000E-02 0. -1.
         -2   -1    0    0    0  501 -0.00000000000E+00 -0.00000000000E+00 -0.29873994459E+03  0.29873994460E+03  0.25500000000E-02 0.  1.
    8880023    1    1    2    0    0  0.24426114283E+01 -0.95995090919E+02  0.89081796031E+02  0.67154061417E+03  0.65864270000E+03 0.  1.
    8880022    1    1    2    0    0 -0.24426114283E+01  0.95995090919E+02  0.10780537608E+04  0.10930748319E+04  0.15294330000E+03 0.  0.
<mgrwt>
<rscale>  0 0.48038140E+03</rscale>
<asrwt>0</asrwt>
<pdfrwt beam="1">  1        2 0.22551931E+00 0.66560591E+03</pdfrwt>
<pdfrwt beam="2">  1       -2 0.45959992E-01 0.66560591E+03</pdfrwt>
<totfact> 0.61336352E+01</totfact>
</mgrwt>
</event>
<event>
 4    2  0.3855935E-007  0.7698661E+03  0.7818608E-02  0.9780204E-01
         -2   -1    0    0    0  501 -0.00000000000E+00  0.00000000000E+00  0.46839827311E+03  0.46839827312E+03  0.25500000000E-02 0.  1.
          2   -1    0    0  501    0  0.00000000000E+00 -0.00000000000E+00 -0.93529678517E+03  0.93529678518E+03  0.25500000000E-02 0. -1.
    8880023    1    1    2    0    0 -0.39788978511E+03 -0.23819450563E+02  0.15689756630E+01  0.76986772583E+03  0.65864270000E+03 0.  1.
    8880022    1    1    2    0    0  0.39788978511E+03  0.23819450563E+02 -0.46846748772E+03  0.63382733247E+03  0.15294330000E+03 0.  0.
<mgrwt>
<rscale>  0 0.66435833E+03</rscale>
<asrwt>0</asrwt>
<pdfrwt beam="1">  1        2 0.14389181E+00 0.76986613E+03</pdfrwt>
<pdfrwt beam="2">  1       -2 0.72061273E-01 0.76986613E+03</pdfrwt>
<totfact> 0.49068549E+01</totfact>
</mgrwt>
</event>
<event>
 4    2  0.3855935E-007  0.1234785E+04  0.7818608E-02  0.9124029E-01
         -2   -1    0    0    0  501 -0.00000000000E+00  0.00000000000E+00  0.82750354324E+03  0.82750354325E+03  0.25500000000E-02 0.  1.
          2   -1    0    0  501    0  0.00000000000E+00 -0.00000000000E+00 -0.19880946695E+04  0.19880946695E+04  0.25500000000E-02 0. -1.
    8880023    1    1    2    0    0 -0.58260755506E+03  0.86686328313E+03 -0.12489750854E+04  0.17563121833E+04  0.65864270000E+03 0.  0.
    8880022    1    1    2    0    0  0.58260755506E+03 -0.86686328313E+03  0.88383959218E+02  0.10592860294E+04  0.15294330000E+03 0.  0.
<mgrwt>
<rscale>  0 0.11873193E+04</rscale>
<asrwt>0</asrwt>
<pdfrwt beam="1">  1        2 0.30586072E+00 0.12347849E+04</pdfrwt>
<pdfrwt beam="2">  1       -2 0.12730824E+00 0.12347849E+04</pdfrwt>
<totfact> 0.30188950E+00</totfact>
</mgrwt>
</event>
<event>
 4    2  0.3855935E-007  0.1455650E+04  0.7818608E-02  0.8941605E-01
         -2   -1    0    0    0  501 -0.00000000000E+00  0.00000000000E+00  0.15284116437E+04  0.15284116437E+04  0.25500000000E-02 0.  1.
          2   -1    0    0  501    0  0.00000000000E+00 -0.00000000000E+00 -0.19736831708E+04  0.19736831708E+04  0.25500000000E-02 0. -1.
    8880023    1    1    2    0    0 -0.10439336423E+04 -0.77156347439E+03  0.83024485053E+03  0.16757757495E+04  0.65864270000E+03 0.  0.
    8880022    1    1    2    0    0  0.10439336423E+04  0.77156347439E+03 -0.12755163776E+04  0.18263190650E+04  0.15294330000E+03 0.  0.
<mgrwt>
<rscale>  0 0.14169993E+04</rscale>
<asrwt>0</asrwt>
<pdfrwt beam="1">  1        2 0.30364357E+00 0.14556503E+04</pdfrwt>
<pdfrwt beam="2">  1       -2 0.23514025E+00 0.14556503E+04</pdfrwt>
<totfact> 0.51712349E-01</totfact>
</mgrwt>
</event>
<event>
 4    2  0.3855935E-007  0.7008500E+03  0.7818608E-02  0.9993693E-01
         -2   -1    0    0    0  501 -0.00000000000E+00  0.00000000000E+00  0.59763373144E+03  0.59763373144E+03  0.25500000000E-02 0.  1.
          2   -1    0    0  501    0  0.00000000000E+00 -0.00000000000E+00 -0.24963026944E+04  0.24963026944E+04  0.25500000000E-02 0. -1.
    8880023    1    1    2    0    0  0.17750576473E+03  0.16084846501E+03  0.38025381255E+03  0.79736045389E+03  0.65864270000E+03 0.  0.
    8880022    1    1    2    0    0 -0.17750576473E+03 -0.16084846501E+03 -0.22789227755E+04  0.22965759720E+04  0.15294330000E+03 0.  0.
<mgrwt>
<rscale>  0 0.55927645E+03</rscale>
<asrwt>0</asrwt>
<pdfrwt beam="1">  1        2 0.38404656E+00 0.70085001E+03</pdfrwt>
<pdfrwt beam="2">  1       -2 0.91943652E-01 0.70085001E+03</pdfrwt>
<totfact> 0.37297440E+00</totfact>
</mgrwt>
</event>
<event>
 4    2  0.3855935E-007  0.9263123E+03  0.7818608E-02  0.9485047E-01
          2   -1    0    0  501    0  0.00000000000E+00  0.00000000000E+00  0.13828933008E+04  0.13828933008E+04  0.25500000000E-02 0. -1.
         -2   -1    0    0    0  501 -0.00000000000E+00 -0.00000000000E+00 -0.78867765601E+03  0.78867765601E+03  0.25500000000E-02 0.  1.
    8880023    1    1    2    0    0  0.51605332367E+03  0.39740817481E+03 -0.37041274159E+03  0.99762723283E+03  0.65864270000E+03 0.  1.
    8880022    1    1    2    0    0 -0.51605332367E+03 -0.39740817481E+03  0.96462838642E+03  0.11739437240E+04  0.15294330000E+03 0.  0.
<mgrwt>
<rscale>  0 0.85395246E+03</rscale>
<asrwt>0</asrwt>
<pdfrwt beam="1">  1        2 0.21275282E+00 0.92631231E+03</pdfrwt>
<pdfrwt beam="2">  1       -2 0.12133502E+00 0.92631231E+03</pdfrwt>
<totfact> 0.76538555E+00</totfact>
</mgrwt>
</event>
<event>
 4    2  0.3855935E-007  0.9211095E+03  0.7818608E-02  0.9492960E-01
          2   -1    0    0  501    0  0.00000000000E+00  0.00000000000E+00  0.23020346657E+04  0.23020346657E+04  0.25500000000E-02 0. -1.
         -2   -1    0    0    0  501 -0.00000000000E+00 -0.00000000000E+00 -0.36675983011E+03  0.36675983012E+03  0.25500000000E-02 0.  1.
    8880023    1    1    2    0    0 -0.44943374213E+03  0.46113107957E+03  0.41416234860E+03  0.10099372349E+04  0.65864270000E+03 0.  0.
    8880022    1    1    2    0    0  0.44943374213E+03 -0.46113107957E+03  0.15211124870E+04  0.16588572609E+04  0.15294330000E+03 0.  0.
<mgrwt>
<rscale>  0 0.84804856E+03</rscale>
<asrwt>0</asrwt>
<pdfrwt beam="1">  1        2 0.35415918E+00 0.92110953E+03</pdfrwt>
<pdfrwt beam="2">  1       -2 0.56424589E-01 0.92110953E+03</pdfrwt>
<totfact> 0.13565487E+01</totfact>
</mgrwt>
</event>
<event>
 4    2  0.3855935E-007  0.1044754E+04  0.7818608E-02  0.9325214E-01
          2   -1    0    0  501    0  0.00000000000E+00  0.00000000000E+00  0.12658628811E+04  0.12658628811E+04  0.25500000000E-02 0. -1.
         -2   -1    0    0    0  501 -0.00000000000E+00 -0.00000000000E+00 -0.11391205583E+04  0.11391205583E+04  0.25500000000E-02 0.  1.
    8880023    1    1    2    0    0  0.38753537268E+03 -0.71240245579E+03 -0.68347663206E+03  0.12484596257E+04  0.65864270000E+03 0.  0.
    8880022    1    1    2    0    0 -0.38753537268E+03  0.71240245579E+03  0.81021895480E+03  0.11565238138E+04  0.15294330000E+03 0.  0.
<mgrwt>
<rscale>  0 0.98494353E+03</rscale>
<asrwt>0</asrwt>
<pdfrwt beam="1">  1        2 0.19474813E+00 0.10447541E+04</pdfrwt>
<pdfrwt beam="2">  1       -2 0.17524932E+00 0.10447541E+04</pdfrwt>
<totfact> 0.33419597E+00</totfact>
</mgrwt>
</event>
<event>
 4    2  0.3855935E-007  0.8066774E+03  0.7818608E-02  0.9696540E-01
          2   -1    0    0  501    0  0.00000000000E+00  0.00000000000E+00  0.25572360510E+04  0.25572360510E+04  0.25500000000E-02 0. -1.
         -2   -1    0    0    0  501 -0.00000000000E+00 -0.00000000000E+00 -0.40698831282E+03  0.40698831283E+03  0.25500000000E-02 0.  1.
    8880023    1    1    2    0    0 -0.44961843770E+03  0.12149683672E+03  0.50768074802E+02  0.80827336003E+03  0.65864270000E+03 0.  1.
    8880022    1    1    2    0    0  0.44961843770E+03 -0.12149683672E+03  0.20994796634E+04  0.21559510038E+04  0.15294330000E+03 0.  0.
<mgrwt>
<rscale>  0 0.71223181E+03</rscale>
<asrwt>0</asrwt>
<pdfrwt beam="1">  1        2 0.39342091E+00 0.80667740E+03</pdfrwt>
<pdfrwt beam="2">  1       -2 0.62613589E-01 0.80667740E+03</pdfrwt>
<totfact> 0.79385700E+00</totfact>
</mgrwt>
</event>
<event>
 4    2  0.3855935E-007  0.7805372E+03  0.7818608E-02  0.9754577E-01
          2   -1    0    0  501    0  0.00000000000E+00  0.00000000000E+00  0.16990756520E+04  0.16990756520E+04  0.25500000000E-02 0. -1.
         -2   -1    0    0    0  501 -0.00000000000E+00 -0.00000000000E+00 -0.34656927286E+03  0.34656927287E+03  0.25500000000E-02 0.  1.
    8880023    1    1    2    0    0  0.32285922950E+03 -0.26681456026E+03  0.19398964860E+03  0.80428246386E+03  0.65864270000E+03 0.  0.
    8880022    1    1    2    0    0 -0.32285922950E+03  0.26681456026E+03  0.11585167305E+04  0.12413624610E+04  0.15294330000E+03 0. -1.
<mgrwt>
<rscale>  0 0.67858247E+03</rscale>
<asrwt>0</asrwt>
<pdfrwt beam="1">  1        2 0.26139625E+00 0.78053719E+03</pdfrwt>
<pdfrwt beam="2">  1       -2 0.53318351E-01 0.78053719E+03</pdfrwt>
<totfact> 0.33298802E+01</totfact>
</mgrwt>
</event>
<event>
 4    2  0.3855935E-007  0.7183624E+03  0.7818608E-02  0.9928166E-01
         -2   -1    0    0    0  501 -0.00000000000E+00  0.00000000000E+00  0.26727826819E+03  0.26727826820E+03  0.25500000000E-02 0.  1.
          2   -1    0    0  501    0  0.00000000000E+00 -0.00000000000E+00 -0.22348030564E+04  0.22348030564E+04  0.25500000000E-02 0. -1.
    8880023    1    1    2    0    0 -0.21776402883E+03 -0.18658299906E+03 -0.26010005893E+03  0.76400041539E+03  0.65864270000E+03 0.  1.
    8880022    1    1    2    0    0  0.21776402883E+03  0.18658299906E+03 -0.17074247293E+04  0.17380809092E+04  0.15294330000E+03 0.  0.
<mgrwt>
<rscale>  0 0.58915435E+03</rscale>
<asrwt>0</asrwt>
<pdfrwt beam="1">  1        2 0.34381584E+00 0.71836244E+03</pdfrwt>
<pdfrwt beam="2">  1       -2 0.41119735E-01 0.71836244E+03</pdfrwt>
<totfact> 0.28818149E+01</totfact>
</mgrwt>
</event>
<event>
 4    2  0.3855935E-007  0.6707067E+03  0.7818608E-02  0.1015161E+00
          2   -1    0    0  501    0  0.00000000000E+00  0.00000000000E+00  0.32479167094E+04  0.32479167094E+04  0.25500000000E-02 0. -1.
         -2   -1    0    0    0  501 -0.00000000000E+00 -0.00000000000E+00 -0.72622293787E+02  0.72622293832E+02  0.25500000000E-02 0.  1.
    8880023    1    1    2    0    0  0.12580022414E+03  0.14543341735E+02  0.16308604343E+04  0.17633925166E+04  0.65864270000E+03 0.  1.
    8880022    1    1    2    0    0 -0.12580022414E+03 -0.14543341735E+02  0.15444339813E+04  0.15571464866E+04  0.15294330000E+03 0.  0.
<mgrwt>
<rscale>  0 0.49473910E+03</rscale>
<asrwt>0</asrwt>
<pdfrwt beam="1">  1        2 0.49967961E+00 0.67070665E+03</pdfrwt>
<pdfrwt beam="2">  1       -2 0.11172658E-01 0.67070665E+03</pdfrwt>
<totfact> 0.74408647E+01</totfact>
</mgrwt>
</event>
<event>
 4    2  0.3855935E-007  0.7063710E+03  0.7818608E-02  0.9971732E-01
          2   -1    0    0  501    0  0.00000000000E+00  0.00000000000E+00  0.82915626362E+03  0.82915626362E+03  0.25500000000E-02 0. -1.
         -2   -1    0    0    0  501 -0.00000000000E+00 -0.00000000000E+00 -0.66668161944E+03  0.66668161944E+03  0.25500000000E-02 0.  1.
    8880023    1    1    2    0    0  0.22685659959E+03  0.11698684076E+03 -0.43415275937E+03  0.82912523929E+03  0.65864270000E+03 0.  1.
    8880022    1    1    2    0    0 -0.22685659959E+03 -0.11698684076E+03  0.59662740355E+03  0.66671264378E+03  0.15294330000E+03 0.  0.
<mgrwt>
<rscale>  0 0.56907305E+03</rscale>
<asrwt>0</asrwt>
<pdfrwt beam="1">  1        2 0.12756250E+00 0.70637104E+03</pdfrwt>
<pdfrwt beam="2">  1       -2 0.10256640E+00 0.70637104E+03</pdfrwt>
<totfact> 0.26007593E+01</totfact>
</mgrwt>
</event>
<event>
 4    2  0.3855935E-007  0.7062713E+03  0.7818608E-02  0.9972117E-01
         -2   -1    0    0    0  501 -0.00000000000E+00  0.00000000000E+00  0.30712413470E+03  0.30712413471E+03  0.25500000000E-02 0.  1.
          2   -1    0    0  501    0  0.00000000000E+00 -0.00000000000E+00 -0.12892683629E+04  0.12892683629E+04  0.25500000000E-02 0. -1.
    8880023    1    1    2    0    0  0.24352623356E+03 -0.75523991872E+02 -0.10738125262E+04  0.12852596809E+04  0.65864270000E+03 0.  1.
    8880022    1    1    2    0    0 -0.24352623356E+03  0.75523991872E+02  0.91668297935E+02  0.31113281672E+03  0.15294330000E+03 0.  0.
<mgrwt>
<rscale>  0 0.56889947E+03</rscale>
<asrwt>0</asrwt>
<pdfrwt beam="1">  1        2 0.19834898E+00 0.70627127E+03</pdfrwt>
<pdfrwt beam="2">  1       -2 0.47249868E-01 0.70627127E+03</pdfrwt>
<totfact> 0.72741943E+01</totfact>
</mgrwt>
</event>
<event>
 4    2  0.3855935E-007  0.7137785E+03  0.7818608E-02  0.9944229E-01
          2   -1    0    0  501    0  0.00000000000E+00  0.00000000000E+00  0.11715234074E+04  0.11715234074E+04  0.25500000000E-02 0. -1.
         -2   -1    0    0    0  501 -0.00000000000E+00 -0.00000000000E+00 -0.51046662609E+03  0.51046662610E+03  0.25500000000E-02 0.  1.
    8880023    1    1    2    0    0  0.27495932605E+03 -0.81800718418E+01 -0.21958734928E+03  0.74679204253E+03  0.65864270000E+03 0.  1.
    8880022    1    1    2    0    0 -0.27495932605E+03  0.81800718418E+01  0.88064413063E+03  0.93519799101E+03  0.15294330000E+03 0.  0.
<mgrwt>
<rscale>  0 0.58164841E+03</rscale>
<asrwt>0</asrwt>
<pdfrwt beam="1">  1        2 0.18023437E+00 0.71377850E+03</pdfrwt>
<pdfrwt beam="2">  1       -2 0.78533328E-01 0.71377850E+03</pdfrwt>
<totfact> 0.29021782E+01</totfact>
</mgrwt>
</event>
<event>
 4    2  0.3855935E-007  0.6890295E+03  0.7818608E-02  0.1004617E+00
         -2   -1    0    0    0  501 -0.00000000000E+00  0.00000000000E+00  0.25805136500E+03  0.25805136502E+03  0.25500000000E-02 0.  1.
          2   -1    0    0  501    0  0.00000000000E+00 -0.00000000000E+00 -0.26179251557E+04  0.26179251557E+04  0.25500000000E-02 0. -1.
    8880023    1    1    2    0    0  0.14125828806E+03  0.14490542854E+03 -0.22317129628E+03  0.72427006076E+03  0.65864270000E+03 0.  0.
    8880022    1    1    2    0    0 -0.14125828806E+03 -0.14490542854E+03 -0.21367024944E+04  0.21517064600E+04  0.15294330000E+03 0. -1.
<mgrwt>
<rscale>  0 0.53671182E+03</rscale>
<asrwt>0</asrwt>
<pdfrwt beam="1">  1        2 0.40275770E+00 0.68902953E+03</pdfrwt>
<pdfrwt beam="2">  1       -2 0.39700212E-01 0.68902953E+03</pdfrwt>
<totfact> 0.18890783E+01</totfact>
</mgrwt>
</event>
<event>
 4    2  0.3855935E-007  0.6724740E+03  0.7818608E-02  0.1013948E+00
         -2   -1    0    0    0  501 -0.00000000000E+00  0.00000000000E+00  0.16710562454E+03  0.16710562456E+03  0.25500000000E-02 0.  1.
          2   -1    0    0  501    0  0.00000000000E+00 -0.00000000000E+00 -0.13769660765E+04  0.13769660765E+04  0.25500000000E-02 0. -1.
    8880023    1    1    2    0    0 -0.10907224758E+03  0.80711118869E+02 -0.11480013069E+04  0.13304616668E+04  0.65864270000E+03 0. -1.
    8880022    1    1    2    0    0  0.10907224758E+03 -0.80711118869E+02 -0.61859145077E+02  0.21361003428E+03  0.15294330000E+03 0.  0.
<mgrwt>
<rscale>  0 0.49935240E+03</rscale>
<asrwt>0</asrwt>
<pdfrwt beam="1">  1        2 0.21184093E+00 0.67247397E+03</pdfrwt>
<pdfrwt beam="2">  1       -2 0.25708559E-01 0.67247397E+03</pdfrwt>
<totfact> 0.20709672E+02</totfact>
</mgrwt>
</event>
<event>
 4    2  0.3855935E-007  0.8658018E+03  0.7818608E-02  0.9583325E-01
          2   -1    0    0  501    0  0.00000000000E+00  0.00000000000E+00  0.22565047304E+04  0.22565047304E+04  0.25500000000E-02 0. -1.
         -2   -1    0    0    0  501 -0.00000000000E+00 -0.00000000000E+00 -0.37800995753E+03  0.37800995754E+03  0.25500000000E-02 0.  1.
    8880023    1    1    2    0    0 -0.33670945935E+03 -0.44992147178E+03  0.24425142308E+03  0.89959521715E+03  0.65864270000E+03 0.  0.
    8880022    1    1    2    0    0  0.33670945935E+03  0.44992147178E+03  0.16342433498E+04  0.17349194708E+04  0.15294330000E+03 0.  0.
<mgrwt>
<rscale>  0 0.78409725E+03</rscale>
<asrwt>0</asrwt>
<pdfrwt beam="1">  1        2 0.34715457E+00 0.86580182E+03</pdfrwt>
<pdfrwt beam="2">  1       -2 0.58155379E-01 0.86580182E+03</pdfrwt>
<totfact> 0.13594170E+01</totfact>
</mgrwt>
</event>
<event>
 4    2  0.3855935E-007  0.6891669E+03  0.7818608E-02  0.1004551E+00
          2   -1    0    0  501    0  0.00000000000E+00  0.00000000000E+00  0.21043376246E+04  0.21043376246E+04  0.25500000000E-02 0. -1.
         -2   -1    0    0    0  501 -0.00000000000E+00 -0.00000000000E+00 -0.26222403878E+03  0.26222403880E+03  0.25500000000E-02 0.  1.
    8880023    1    1    2    0    0  0.20207185524E+03 -0.17542622280E+02  0.21817945471E+03  0.72287845382E+03  0.65864270000E+03 0.  1.
    8880022    1    1    2    0    0 -0.20207185524E+03  0.17542622280E+02  0.16239341311E+04  0.16436832096E+04  0.15294330000E+03 0.  0.
<mgrwt>
<rscale>  0 0.53698920E+03</rscale>
<asrwt>0</asrwt>
<pdfrwt beam="1">  1        2 0.32374424E+00 0.68916688E+03</pdfrwt>
<pdfrwt beam="2">  1       -2 0.40342160E-01 0.68916688E+03</pdfrwt>
<totfact> 0.35427698E+01</totfact>
</mgrwt>
</event>
<event>
 4    2  0.3855935E-007  0.8806104E+03  0.7818608E-02  0.9557904E-01
          2   -1    0    0  501    0  0.00000000000E+00  0.00000000000E+00  0.96044473626E+03  0.96044473627E+03  0.25500000000E-02 0. -1.
         -2   -1    0    0    0  501 -0.00000000000E+00 -0.00000000000E+00 -0.90381853961E+03  0.90381853961E+03  0.25500000000E-02 0.  1.
    8880023    1    1    2    0    0  0.28532169766E+03  0.51015293474E+03  0.58863032480E+03  0.10592262995E+04  0.65864270000E+03 0.  0.
    8880022    1    1    2    0    0 -0.28532169766E+03 -0.51015293474E+03 -0.53200412815E+03  0.80503697639E+03  0.15294330000E+03 0.  0.
<mgrwt>
<rscale>  0 0.80146178E+03</rscale>
<asrwt>0</asrwt>
<pdfrwt beam="1">  1        2 0.14776073E+00 0.88061041E+03</pdfrwt>
<pdfrwt beam="2">  1       -2 0.13904901E+00 0.88061041E+03</pdfrwt>
<totfact> 0.97977112E+00</totfact>
</mgrwt>
</event>
<event>
 4    2  0.3855935E-007  0.6833194E+03  0.7818608E-02  0.1007505E+00
          2   -1    0    0  501    0  0.00000000000E+00  0.00000000000E+00  0.16557119266E+04  0.16557119266E+04  0.25500000000E-02 0. -1.
         -2   -1    0    0    0  501 -0.00000000000E+00 -0.00000000000E+00 -0.57685536469E+03  0.57685536469E+03  0.25500000000E-02 0.  1.
    8880023    1    1    2    0    0 -0.16519310567E+03 -0.76331390518E+02 -0.36127720035E+03  0.77294674143E+03  0.65864270000E+03 0.  1.
    8880022    1    1    2    0    0  0.16519310567E+03  0.76331390518E+02  0.14401337623E+04  0.14596205499E+04  0.15294330000E+03 0.  0.
<mgrwt>
<rscale>  0 0.52478391E+03</rscale>
<asrwt>0</asrwt>
<pdfrwt beam="1">  1        2 0.25472491E+00 0.68331943E+03</pdfrwt>
<pdfrwt beam="2">  1       -2 0.88746980E-01 0.68331943E+03</pdfrwt>
<totfact> 0.11755645E+01</totfact>
</mgrwt>
</event>
<event>
 4    2  0.3855935E-007  0.7923387E+03  0.7818608E-02  0.9727613E-01
          2   -1    0    0  501    0  0.00000000000E+00  0.00000000000E+00  0.47196284580E+03  0.47196284581E+03  0.25500000000E-02 0. -1.
         -2   -1    0    0    0  501 -0.00000000000E+00 -0.00000000000E+00 -0.18169025192E+04  0.18169025192E+04  0.25500000000E-02 0.  1.
    8880023    1    1    2    0    0  0.39773176682E+03  0.18920842725E+03 -0.15793893442E+04  0.17669949898E+04  0.65864270000E+03 0.  0.
    8880022    1    1    2    0    0 -0.39773176682E+03 -0.18920842725E+03  0.23444967083E+03  0.52187037514E+03  0.15294330000E+03 0. -1.
<mgrwt>
<rscale>  0 0.69396266E+03</rscale>
<asrwt>0</asrwt>
<pdfrwt beam="1">  1        2 0.72609670E-01 0.79233869E+03</pdfrwt>
<pdfrwt beam="2">  1       -2 0.27952346E+00 0.79233869E+03</pdfrwt>
<totfact> 0.28748753E+00</totfact>
</mgrwt>
</event>
<event>
 4    2  0.3855935E-007  0.7417020E+03  0.7818608E-02  0.9855017E-01
          2   -1    0    0  501    0  0.00000000000E+00  0.00000000000E+00  0.13206705276E+04  0.13206705276E+04  0.25500000000E-02 0. -1.
         -2   -1    0    0    0  501 -0.00000000000E+00 -0.00000000000E+00 -0.64125177756E+03  0.64125177757E+03  0.25500000000E-02 0.  1.
    8880023    1    1    2    0    0 -0.30576674396E+03 -0.15105765494E+03 -0.38365684852E+03  0.83505359140E+03  0.65864270000E+03 0.  0.
    8880022    1    1    2    0    0  0.30576674396E+03  0.15105765494E+03  0.10630755986E+04  0.11268687138E+04  0.15294330000E+03 0.  0.
<mgrwt>
<rscale>  0 0.62491790E+03</rscale>
<asrwt>0</asrwt>
<pdfrwt beam="1">  1        2 0.20318008E+00 0.74170204E+03</pdfrwt>
<pdfrwt beam="2">  1       -2 0.98654121E-01 0.74170204E+03</pdfrwt>
<totfact> 0.14020167E+01</totfact>
</mgrwt>
</event>
<event>
 4    2  0.3855935E-007  0.1077972E+04  0.7818608E-02  0.9285987E-01
         -2   -1    0    0    0  501 -0.00000000000E+00  0.00000000000E+00  0.15208778828E+04  0.15208778828E+04  0.25500000000E-02 0.  1.
          2   -1    0    0  501    0  0.00000000000E+00 -0.00000000000E+00 -0.90676045851E+03  0.90676045851E+03  0.25500000000E-02 0. -1.
    8880023    1    1    2    0    0 -0.79873526399E+03 -0.30039134728E+03  0.10076084551E+04  0.14755670058E+04  0.65864270000E+03 0.  0.
    8880022    1    1    2    0    0  0.79873526399E+03  0.30039134728E+03 -0.39349103087E+03  0.95207133548E+03  0.15294330000E+03 0.  0.
<mgrwt>
<rscale>  0 0.10208319E+04</rscale>
<asrwt>0</asrwt>
<pdfrwt beam="1">  1        2 0.13950161E+00 0.10779718E+04</pdfrwt>
<pdfrwt beam="2">  1       -2 0.23398121E+00 0.10779718E+04</pdfrwt>
<totfact> 0.23110845E+00</totfact>
</mgrwt>
</event>
<event>
 4    2  0.3855935E-007  0.1192851E+04  0.7818608E-02  0.9164103E-01
         -2   -1    0    0    0  501 -0.00000000000E+00  0.00000000000E+00  0.22788673853E+04  0.22788673853E+04  0.25500000000E-02 0.  1.
          2   -1    0    0  501    0  0.00000000000E+00 -0.00000000000E+00 -0.62455944405E+03  0.62455944405E+03  0.25500000000E-02 0. -1.
    8880023    1    1    2    0    0  0.87301562755E+03  0.47636882628E+03  0.14483802927E+04  0.18763526382E+04  0.65864270000E+03 0.  1.
    8880022    1    1    2    0    0 -0.87301562755E+03 -0.47636882628E+03  0.20592764860E+03  0.10270741911E+04  0.15294330000E+03 0.  0.
<mgrwt>
<rscale>  0 0.11431750E+04</rscale>
<asrwt>0</asrwt>
<pdfrwt beam="1">  1        2 0.96086070E-01 0.11928511E+04</pdfrwt>
<pdfrwt beam="2">  1       -2 0.35059498E+00 0.11928511E+04</pdfrwt>
<totfact> 0.72049856E-01</totfact>
</mgrwt>
</event>
<event>
 4    2  0.3855935E-007  0.6747608E+03  0.7818608E-02  0.1012457E+00
          2   -1    0    0  501    0  0.00000000000E+00  0.00000000000E+00  0.84554735163E+03  0.84554735164E+03  0.25500000000E-02 0. -1.
         -2   -1    0    0    0  501 -0.00000000000E+00 -0.00000000000E+00 -0.67335104920E+03  0.67335104920E+03  0.25500000000E-02 0.  1.
    8880023    1    1    2    0    0 -0.11402119645E+03  0.92146843073E+02 -0.48331792075E+03  0.82999897151E+03  0.65864270000E+03 0.  1.
    8880022    1    1    2    0    0  0.11402119645E+03 -0.92146843073E+02  0.65551422318E+03  0.68889942933E+03  0.15294330000E+03 0.  0.
<mgrwt>
<rscale>  0 0.50509519E+03</rscale>
<asrwt>0</asrwt>
<pdfrwt beam="1">  1        2 0.13008421E+00 0.67476076E+03</pdfrwt>
<pdfrwt beam="2">  1       -2 0.10359247E+00 0.67476076E+03</pdfrwt>
<totfact> 0.24816002E+01</totfact>
</mgrwt>
</event>
<event>
 4    2  0.3855935E-007  0.7035850E+03  0.7818608E-02  0.9982642E-01
         -2   -1    0    0    0  501 -0.00000000000E+00  0.00000000000E+00  0.21551713981E+03  0.21551713982E+03  0.25500000000E-02 0.  1.
          2   -1    0    0  501    0  0.00000000000E+00 -0.00000000000E+00 -0.20237310900E+04  0.20237310900E+04  0.25500000000E-02 0. -1.
    8880023    1    1    2    0    0  0.40630045311E+02 -0.24407126862E+03 -0.41684239055E+03  0.81779543259E+03  0.65864270000E+03 0.  1.
    8880022    1    1    2    0    0 -0.40630045311E+02  0.24407126862E+03 -0.13913715596E+04  0.14214527972E+04  0.15294330000E+03 0.  0.
<mgrwt>
<rscale>  0 0.56417937E+03</rscale>
<asrwt>0</asrwt>
<pdfrwt beam="1">  1        2 0.31134323E+00 0.70358496E+03</pdfrwt>
<pdfrwt beam="2">  1       -2 0.33156484E-01 0.70358496E+03</pdfrwt>
<totfact> 0.56992282E+01</totfact>
</mgrwt>
</event>
<event>
 4    2  0.3855935E-007  0.6612137E+03  0.7818608E-02  0.1022946E+00
          2   -1    0    0  501    0  0.00000000000E+00  0.00000000000E+00  0.88690368309E+03  0.88690368310E+03  0.25500000000E-02 0. -1.
         -2   -1    0    0    0  501 -0.00000000000E+00 -0.00000000000E+00 -0.59409776279E+03  0.59409776280E+03  0.25500000000E-02 0.  1.
    8880023    1    1    2    0    0 -0.34105058680E+02  0.47225111703E+02 -0.39754131638E+03  0.77151971504E+03  0.65864270000E+03 0.  1.
    8880022    1    1    2    0    0  0.34105058680E+02 -0.47225111703E+02  0.69034723668E+03  0.70948173085E+03  0.15294330000E+03 0.  0.
<mgrwt>
<rscale>  0 0.46638318E+03</rscale>
<asrwt>0</asrwt>
<pdfrwt beam="1">  1        2 0.13644672E+00 0.66121371E+03</pdfrwt>
<pdfrwt beam="2">  1       -2 0.91399656E-01 0.66121371E+03</pdfrwt>
<totfact> 0.31245524E+01</totfact>
</mgrwt>
</event>
<event>
 4    2  0.3855935E-007  0.6691904E+03  0.7818608E-02  0.1016250E+00
         -2   -1    0    0    0  501 -0.00000000000E+00  0.00000000000E+00  0.10865034012E+03  0.10865034015E+03  0.25500000000E-02 0.  1.
          2   -1    0    0  501    0  0.00000000000E+00 -0.00000000000E+00 -0.17192653855E+04  0.17192653855E+04  0.25500000000E-02 0. -1.
    8880023    1    1    2    0    0 -0.77645609234E+02 -0.89312878785E+02 -0.11980178541E+04  0.13722472868E+04  0.65864270000E+03 0.  1.
    8880022    1    1    2    0    0  0.77645609234E+02  0.89312878785E+02 -0.41259719124E+03  0.45566843887E+03  0.15294330000E+03 0.  1.
<mgrwt>
<rscale>  0 0.49064491E+03</rscale>
<asrwt>0</asrwt>
<pdfrwt beam="1">  1        2 0.26450235E+00 0.66919043E+03</pdfrwt>
<pdfrwt beam="2">  1       -2 0.16715438E-01 0.66919043E+03</pdfrwt>
<totfact> 0.28533696E+02</totfact>
</mgrwt>
</event>
<event>
 4    2  0.3855935E-007  0.7778169E+03  0.7818608E-02  0.9760990E-01
         -2   -1    0    0    0  501 -0.00000000000E+00  0.00000000000E+00  0.19766158312E+03  0.19766158314E+03  0.25500000000E-02 0.  1.
          2   -1    0    0  501    0  0.00000000000E+00 -0.00000000000E+00 -0.21437501995E+04  0.21437501995E+04  0.25500000000E-02 0. -1.
    8880023    1    1    2    0    0  0.21258506844E+03 -0.35495988287E+03 -0.81139982935E+03  0.11239968056E+04  0.65864270000E+03 0.  0.
    8880022    1    1    2    0    0 -0.21258506844E+03  0.35495988287E+03 -0.11346887870E+04  0.12174149770E+04  0.15294330000E+03 0.  0.
<mgrwt>
<rscale>  0 0.67498710E+03</rscale>
<asrwt>0</asrwt>
<pdfrwt beam="1">  1        2 0.32980771E+00 0.77781690E+03</pdfrwt>
<pdfrwt beam="2">  1       -2 0.30409476E-01 0.77781690E+03</pdfrwt>
<totfact> 0.57093021E+01</totfact>
</mgrwt>
</event>
<event>
 4    2  0.3855935E-007  0.6765472E+03  0.7818608E-02  0.1011348E+00
          2   -1    0    0  501    0  0.00000000000E+00  0.00000000000E+00  0.39582837181E+03  0.39582837182E+03  0.25500000000E-02 0. -1.
         -2   -1    0    0    0  501 -0.00000000000E+00 -0.00000000000E+00 -0.12303342176E+04  0.12303342176E+04  0.25500000000E-02 0.  1.
    8880023    1    1    2    0    0 -0.10026410316E+03  0.11769912776E+03 -0.10947981075E+04  0.12869728348E+04  0.65864270000E+03 0.  1.
    8880022    1    1    2    0    0  0.10026410316E+03 -0.11769912776E+03  0.26029226177E+03  0.33918975457E+03  0.15294330000E+03 0.  0.
<mgrwt>
<rscale>  0 0.50942297E+03</rscale>
<asrwt>0</asrwt>
<pdfrwt beam="1">  1        2 0.60896673E-01 0.67654725E+03</pdfrwt>
<pdfrwt beam="2">  1       -2 0.18928219E+00 0.67654725E+03</pdfrwt>
<totfact> 0.12921005E+01</totfact>
</mgrwt>
</event>
<event>
 4    2  0.3855935E-007  0.8327473E+03  0.7818608E-02  0.9644010E-01
          2   -1    0    0  501    0  0.00000000000E+00  0.00000000000E+00  0.31641945284E+04  0.31641945284E+04  0.25500000000E-02 0. -1.
         -2   -1    0    0    0  501 -0.00000000000E+00 -0.00000000000E+00 -0.17092790354E+03  0.17092790356E+03  0.25500000000E-02 0.  1.
    8880023    1    1    2    0    0 -0.12532128260E+03 -0.49391546645E+03  0.23892233509E+04  0.25301889927E+04  0.65864270000E+03 0. -1.
    8880022    1    1    2    0    0  0.12532128260E+03  0.49391546645E+03  0.60404327400E+03  0.80493343933E+03  0.15294330000E+03 0.  1.
<mgrwt>
<rscale>  0 0.74450522E+03</rscale>
<asrwt>0</asrwt>
<pdfrwt beam="1">  1        2 0.48679915E+00 0.83274733E+03</pdfrwt>
<pdfrwt beam="2">  1       -2 0.26296601E-01 0.83274733E+03</pdfrwt>
<totfact> 0.18794781E+01</totfact>
</mgrwt>
</event>
<event>
 4    2  0.3855935E-007  0.7278244E+03  0.7818608E-02  0.9896949E-01
          2   -1    0    0  501    0  0.00000000000E+00  0.00000000000E+00  0.10069291841E+04  0.10069291841E+04  0.25500000000E-02 0. -1.
         -2   -1    0    0    0  501 -0.00000000000E+00 -0.00000000000E+00 -0.33757456587E+03  0.33757456588E+03  0.25500000000E-02 0.  1.
    8880023    1    1    2    0    0  0.30535003384E+03 -0.51764524977E+02  0.18741731066E+03  0.75156747123E+03  0.65864270000E+03 0.  1.
    8880022    1    1    2    0    0 -0.30535003384E+03  0.51764524977E+02  0.48193730755E+03  0.59293627873E+03  0.15294330000E+03 0.  0.
<mgrwt>
<rscale>  0 0.60409400E+03</rscale>
<asrwt>0</asrwt>
<pdfrwt beam="1">  1        2 0.15491218E+00 0.72782444E+03</pdfrwt>
<pdfrwt beam="2">  1       -2 0.51934549E-01 0.72782444E+03</pdfrwt>
<totfact> 0.88657955E+01</totfact>
</mgrwt>
</event>
<event>
 4    2  0.3855935E-007  0.7100853E+03  0.7818608E-02  0.9957684E-01
          2   -1    0    0  501    0  0.00000000000E+00  0.00000000000E+00  0.88451938619E+03  0.88451938620E+03  0.25500000000E-02 0. -1.
         -2   -1    0    0    0  501 -0.00000000000E+00 -0.00000000000E+00 -0.47387991239E+03  0.47387991240E+03  0.25500000000E-02 0.  1.
    8880023    1    1    2    0    0  0.25153252589E+03 -0.84511991583E+02 -0.14425784001E+03  0.72459051813E+03  0.65864270000E+03 0.  1.
    8880022    1    1    2    0    0 -0.25153252589E+03  0.84511991583E+02  0.55489731381E+03  0.63380878046E+03  0.15294330000E+03 0.  0.
<mgrwt>
<rscale>  0 0.57545280E+03</rscale>
<asrwt>0</asrwt>
<pdfrwt beam="1">  1        2 0.13607990E+00 0.71008527E+03</pdfrwt>
<pdfrwt beam="2">  1       -2 0.72904602E-01 0.71008527E+03</pdfrwt>
<totfact> 0.51980278E+01</totfact>
</mgrwt>
</event>
<event>
 4    2  0.3855935E-007  0.7675134E+03  0.7818608E-02  0.9786030E-01
         -2   -1    0    0    0  501 -0.00000000000E+00  0.00000000000E+00  0.34019800445E+03  0.34019800446E+03  0.25500000000E-02 0.  1.
          2   -1    0    0  501    0  0.00000000000E+00 -0.00000000000E+00 -0.20333293171E+04  0.20333293171E+04  0.25500000000E-02 0. -1.
    8880023    1    1    2    0    0  0.15680631249E+03  0.36149472835E+03 -0.16107486567E+03  0.78423336889E+03  0.65864270000E+03 0.  1.
    8880022    1    1    2    0    0 -0.15680631249E+03 -0.36149472835E+03 -0.15320564470E+04  0.15892939527E+04  0.15294330000E+03 0.  0.
<mgrwt>
<rscale>  0 0.66117647E+03</rscale>
<asrwt>0</asrwt>
<pdfrwt beam="1">  1        2 0.31281989E+00 0.76751343E+03</pdfrwt>
<pdfrwt beam="2">  1       -2 0.52338156E-01 0.76751343E+03</pdfrwt>
<totfact> 0.22759861E+01</totfact>
</mgrwt>
</event>
<event>
 4    2  0.4834631E-007  0.8083897E+03  0.7818608E-02  0.9692941E-01
          2   -1    0    0  501    0  0.00000000000E+00  0.00000000000E+00  0.20549320191E+04  0.20549320191E+04  0.25500000000E-02 0. -1.
         -2   -1    0    0    0  501 -0.00000000000E+00 -0.00000000000E+00 -0.11404442055E+04  0.11404442055E+04  0.25500000000E-02 0.  1.
    8880023    1    1    2    0    0 -0.32286441237E+03 -0.33976787071E+03 -0.96121654660E+03  0.12559582360E+04  0.65864270000E+03 0.  0.
    8880022    1    1    2    0    0  0.32286441237E+03  0.33976787071E+03  0.18757043602E+04  0.19394179887E+04  0.15294330000E+03 0.  0.
<mgrwt>
<rscale>  0 0.71438638E+03</rscale>
<asrwt>0</asrwt>
<pdfrwt beam="1">  1        2 0.31614338E+00 0.80838966E+03</pdfrwt>
<pdfrwt beam="2">  1       -2 0.17545296E+00 0.80838966E+03</pdfrwt>
<totfact> 0.12512480E+00</totfact>
</mgrwt>
</event>
<event>
 4    2  0.3855935E-007  0.7360327E+03  0.7818608E-02  0.9871658E-01
          2   -1    0    0  501    0  0.00000000000E+00  0.00000000000E+00  0.10682702390E+04  0.10682702390E+04  0.25500000000E-02 0. -1.
         -2   -1    0    0    0  501 -0.00000000000E+00 -0.00000000000E+00 -0.47398782865E+03  0.47398782866E+03  0.25500000000E-02 0.  1.
    8880023    1    1    2    0    0  0.93662549690E+02 -0.31489883218E+03 -0.11576401631E+03  0.74508084223E+03  0.65864270000E+03 0.  0.
    8880022    1    1    2    0    0 -0.93662549690E+02  0.31489883218E+03  0.71004642662E+03  0.79717722540E+03  0.15294330000E+03 0. -1.
<mgrwt>
<rscale>  0 0.61654746E+03</rscale>
<asrwt>0</asrwt>
<pdfrwt beam="1">  1        2 0.16434927E+00 0.73603271E+03</pdfrwt>
<pdfrwt beam="2">  1       -2 0.72921205E-01 0.73603271E+03</pdfrwt>
<totfact> 0.39436326E+01</totfact>
</mgrwt>
</event>
<event>
 4    2  0.3855935E-007  0.8020483E+03  0.7818608E-02  0.9706385E-01
          2   -1    0    0  501    0  0.00000000000E+00  0.00000000000E+00  0.10719070565E+04  0.10719070565E+04  0.25500000000E-02 0. -1.
         -2   -1    0    0    0  501 -0.00000000000E+00 -0.00000000000E+00 -0.53436146884E+03  0.53436146885E+03  0.25500000000E-02 0.  1.
    8880023    1    1    2    0    0  0.38707343104E+03  0.24422418226E+03 -0.98293632941E+02  0.80804896928E+03  0.65864270000E+03 0.  0.
    8880022    1    1    2    0    0 -0.38707343104E+03 -0.24422418226E+03  0.63583922056E+03  0.79821955603E+03  0.15294330000E+03 0.  0.
<mgrwt>
<rscale>  0 0.70637927E+03</rscale>
<asrwt>0</asrwt>
<pdfrwt beam="1">  1        2 0.16490878E+00 0.80204831E+03</pdfrwt>
<pdfrwt beam="2">  1       -2 0.82209457E-01 0.80204831E+03</pdfrwt>
<totfact> 0.29830895E+01</totfact>
</mgrwt>
</event>
<event>
 4    2  0.3855935E-007  0.6779488E+03  0.7818608E-02  0.1010509E+00
         -2   -1    0    0    0  501 -0.00000000000E+00  0.00000000000E+00  0.35990840561E+03  0.35990840562E+03  0.25500000000E-02 0.  1.
          2   -1    0    0  501    0  0.00000000000E+00 -0.00000000000E+00 -0.90728592012E+03  0.90728592013E+03  0.25500000000E-02 0. -1.
    8880023    1    1    2    0    0  0.16025989555E+03  0.11006131113E+02 -0.14724098111E+01  0.67795039885E+03  0.65864270000E+03 0.  1.
    8880022    1    1    2    0    0 -0.16025989555E+03 -0.11006131113E+02 -0.54590510470E+03  0.58924392690E+03  0.15294330000E+03 0.  0.
<mgrwt>
<rscale>  0 0.51273023E+03</rscale>
<asrwt>0</asrwt>
<pdfrwt beam="1">  1        2 0.13958245E+00 0.67794880E+03</pdfrwt>
<pdfrwt beam="2">  1       -2 0.55370524E-01 0.67794880E+03</pdfrwt>
<totfact> 0.90550906E+01</totfact>
</mgrwt>
</event>
<event>
 4    2  0.3855935E-007  0.8817572E+03  0.7818608E-02  0.9555976E-01
         -2   -1    0    0    0  501 -0.00000000000E+00  0.00000000000E+00  0.35723693375E+03  0.35723693376E+03  0.25500000000E-02 0.  1.
          2   -1    0    0  501    0  0.00000000000E+00 -0.00000000000E+00 -0.26713893066E+04  0.26713893066E+04  0.25500000000E-02 0. -1.
    8880023    1    1    2    0    0 -0.57415990175E+03  0.11843095205E+03 -0.30962735545E+03  0.93453988074E+03  0.65864270000E+03 0.  1.
    8880022    1    1    2    0    0  0.57415990175E+03 -0.11843095205E+03 -0.20045250174E+04  0.20940863596E+04  0.15294330000E+03 0.  0.
<mgrwt>
<rscale>  0 0.80279824E+03</rscale>
<asrwt>0</asrwt>
<pdfrwt beam="1">  1        2 0.41098296E+00 0.88175716E+03</pdfrwt>
<pdfrwt beam="2">  1       -2 0.54959530E-01 0.88175716E+03</pdfrwt>
<totfact> 0.88736040E+00</totfact>
</mgrwt>
</event>
<event>
 4    2  0.3855935E-007  0.6824206E+03  0.7818608E-02  0.1007986E+00
          2   -1    0    0  501    0  0.00000000000E+00  0.00000000000E+00  0.54219053919E+03  0.54219053920E+03  0.25500000000E-02 0. -1.
         -2   -1    0    0    0  501 -0.00000000000E+00 -0.00000000000E+00 -0.68665643534E+03  0.68665643535E+03  0.25500000000E-02 0.  1.
    8880023    1    1    2    0    0 -0.61200197708E+02 -0.16775640886E+03 -0.46903656283E+03  0.82806592760E+03  0.65864270000E+03 0.  1.
    8880022    1    1    2    0    0  0.61200197708E+02  0.16775640886E+03  0.32457066668E+03  0.40078104695E+03  0.15294330000E+03 0.  0.
<mgrwt>
<rscale>  0 0.52282873E+03</rscale>
<asrwt>0</asrwt>
<pdfrwt beam="1">  1        2 0.83413928E-01 0.68242061E+03</pdfrwt>
<pdfrwt beam="2">  1       -2 0.10563945E+00 0.68242061E+03</pdfrwt>
<totfact> 0.41266687E+01</totfact>
</mgrwt>
</event>
<event>
 4    2  0.3855935E-007  0.6710126E+03  0.7818608E-02  0.1014947E+00
         -2   -1    0    0    0  501 -0.00000000000E+00  0.00000000000E+00  0.37813877376E+03  0.37813877377E+03  0.25500000000E-02 0.  1.
          2   -1    0    0  501    0  0.00000000000E+00 -0.00000000000E+00 -0.89903018903E+03  0.89903018903E+03  0.25500000000E-02 0. -1.
    8880023    1    1    2    0    0 -0.12329191304E+03 -0.35310769010E+02  0.49526538897E+02  0.67283789322E+03  0.65864270000E+03 0.  1.
    8880022    1    1    2    0    0  0.12329191304E+03  0.35310769010E+02 -0.57041795416E+03  0.60433106959E+03  0.15294330000E+03 0.  0.
<mgrwt>
<rscale>  0 0.49554959E+03</rscale>
<asrwt>0</asrwt>
<pdfrwt beam="1">  1        2 0.13831234E+00 0.67101263E+03</pdfrwt>
<pdfrwt beam="2">  1       -2 0.58175197E-01 0.67101263E+03</pdfrwt>
<totfact> 0.82778363E+01</totfact>
</mgrwt>
</event>
<event>
 4    2  0.3855935E-007  0.8733421E+03  0.7818608E-02  0.9570257E-01
          2   -1    0    0  501    0  0.00000000000E+00  0.00000000000E+00  0.17897356128E+04  0.17897356128E+04  0.25500000000E-02 0. -1.
         -2   -1    0    0    0  501 -0.00000000000E+00 -0.00000000000E+00 -0.50209165132E+03  0.50209165132E+03  0.25500000000E-02 0.  1.
    8880023    1    1    2    0    0  0.44419776178E+03 -0.36277333548E+03 -0.68508009447E+00  0.87334232699E+03  0.65864270000E+03 0.  1.
    8880022    1    1    2    0    0 -0.44419776178E+03  0.36277333548E+03  0.12883290416E+04  0.14184849371E+04  0.15294330000E+03 0.  0.
<mgrwt>
<rscale>  0 0.79296417E+03</rscale>
<asrwt>0</asrwt>
<pdfrwt beam="1">  1        2 0.27534394E+00 0.87334206E+03</pdfrwt>
<pdfrwt beam="2">  1       -2 0.77244869E-01 0.87334206E+03</pdfrwt>
<totfact> 0.13255760E+01</totfact>
</mgrwt>
</event>
<event>
 4    2  0.3855935E-007  0.1080871E+04  0.7818608E-02  0.9282659E-01
          2   -1    0    0  501    0  0.00000000000E+00  0.00000000000E+00  0.16904207952E+04  0.16904207952E+04  0.25500000000E-02 0. -1.
         -2   -1    0    0    0  501 -0.00000000000E+00 -0.00000000000E+00 -0.60805722733E+03  0.60805722733E+03  0.25500000000E-02 0.  1.
    8880023    1    1    2    0    0  0.83067650466E+03 -0.21082844826E+03  0.28468184364E+03  0.11177325478E+04  0.65864270000E+03 0. -1.
    8880022    1    1    2    0    0 -0.83067650466E+03  0.21082844826E+03  0.79768172423E+03  0.11807454748E+04  0.15294330000E+03 0.  0.
<mgrwt>
<rscale>  0 0.10239513E+04</rscale>
<asrwt>0</asrwt>
<pdfrwt beam="1">  1        2 0.26006474E+00 0.10808711E+04</pdfrwt>
<pdfrwt beam="2">  1       -2 0.93547267E-01 0.10808711E+04</pdfrwt>
<totfact> 0.94903065E+00</totfact>
</mgrwt>
</event>
<event>
 4    2  0.3855935E-007  0.6957627E+03  0.7818608E-02  0.1001525E+00
         -2   -1    0    0    0  501 -0.00000000000E+00  0.00000000000E+00  0.84628837829E+03  0.84628837829E+03  0.25500000000E-02 0.  1.
          2   -1    0    0  501    0  0.00000000000E+00 -0.00000000000E+00 -0.20377534529E+04  0.20377534530E+04  0.25500000000E-02 0. -1.
    8880023    1    1    2    0    0  0.22321014231E+03  0.21277355488E+02  0.69189436599E+03  0.98122551610E+03  0.65864270000E+03 0.  1.
    8880022    1    1    2    0    0 -0.22321014231E+03 -0.21277355488E+02 -0.18833594406E+04  0.19028163151E+04  0.15294330000E+03 0.  0.
<mgrwt>
<rscale>  0 0.54986373E+03</rscale>
<asrwt>0</asrwt>
<pdfrwt beam="1">  1        2 0.31350053E+00 0.69576267E+03</pdfrwt>
<pdfrwt beam="2">  1       -2 0.13019821E+00 0.69576267E+03</pdfrwt>
<totfact> 0.28868658E+00</totfact>
</mgrwt>
</event>
<event>
 4    2  0.3855935E-007  0.6923138E+03  0.7818608E-02  0.1003072E+00
         -2   -1    0    0    0  501 -0.00000000000E+00  0.00000000000E+00  0.38927012470E+03  0.38927012471E+03  0.25500000000E-02 0.  1.
          2   -1    0    0  501    0  0.00000000000E+00 -0.00000000000E+00 -0.64833060375E+03  0.64833060375E+03  0.25500000000E-02 0. -1.
    8880023    1    1    2    0    0  0.20835926900E+03  0.45547984888E+02 -0.36141017040E+02  0.69325650612E+03  0.65864270000E+03 0. -1.
    8880022    1    1    2    0    0 -0.20835926900E+03 -0.45547984888E+02 -0.22291946200E+03  0.34434422234E+03  0.15294330000E+03 0.  0.
<mgrwt>
<rscale>  0 0.54323629E+03</rscale>
<asrwt>0</asrwt>
<pdfrwt beam="1">  1        2 0.99743170E-01 0.69231381E+03</pdfrwt>
<pdfrwt beam="2">  1       -2 0.59887711E-01 0.69231381E+03</pdfrwt>
<totfact> 0.11900491E+02</totfact>
</mgrwt>
</event>
<event>
 4    2  0.3855935E-007  0.7754946E+03  0.7818608E-02  0.9766529E-01
         -2   -1    0    0    0  501 -0.00000000000E+00  0.00000000000E+00  0.31189117305E+03  0.31189117306E+03  0.25500000000E-02 0.  1.
          2   -1    0    0  501    0  0.00000000000E+00 -0.00000000000E+00 -0.30872480412E+04  0.30872480412E+04  0.25500000000E-02 0. -1.
    8880023    1    1    2    0    0  0.49351685296E+01 -0.40933758074E+03 -0.21917596571E+03  0.80587214935E+03  0.65864270000E+03 0.  0.
    8880022    1    1    2    0    0 -0.49351685296E+01  0.40933758074E+03 -0.25561809024E+04  0.25932670649E+04  0.15294330000E+03 0. -1.
<mgrwt>
<rscale>  0 0.67190154E+03</rscale>
<asrwt>0</asrwt>
<pdfrwt beam="1">  1        2 0.47496122E+00 0.77549456E+03</pdfrwt>
<pdfrwt beam="2">  1       -2 0.47983260E-01 0.77549456E+03</pdfrwt>
<totfact> 0.67062942E+00</totfact>
</mgrwt>
</event>
<event>
 4    2  0.3855935E-007  0.7101499E+03  0.7818608E-02  0.9957445E-01
         -2   -1    0    0    0  501 -0.00000000000E+00  0.00000000000E+00  0.16870915197E+03  0.16870915199E+03  0.25500000000E-02 0.  1.
          2   -1    0    0  501    0  0.00000000000E+00 -0.00000000000E+00 -0.29625554314E+04  0.29625554314E+04  0.25500000000E-02 0. -1.
    8880023    1    1    2    0    0 -0.60223302555E+02  0.25860347465E+03 -0.64080309675E+03  0.95652570187E+03  0.65864270000E+03 0.  1.
    8880022    1    1    2    0    0  0.60223302555E+02 -0.25860347465E+03 -0.21530431827E+04  0.21747388816E+04  0.15294330000E+03 0.  0.
<mgrwt>
<rscale>  0 0.57556235E+03</rscale>
<asrwt>0</asrwt>
<pdfrwt beam="1">  1        2 0.45577772E+00 0.71014985E+03</pdfrwt>
<pdfrwt beam="2">  1       -2 0.25955256E-01 0.71014985E+03</pdfrwt>
<totfact> 0.26170409E+01</totfact>
</mgrwt>
</event>
<event>
 4    2  0.3855935E-007  0.1022804E+04  0.7818608E-02  0.9352313E-01
          2   -1    0    0  501    0  0.00000000000E+00  0.00000000000E+00  0.12762777732E+04  0.12762777732E+04  0.25500000000E-02 0. -1.
         -2   -1    0    0    0  501 -0.00000000000E+00 -0.00000000000E+00 -0.10017033839E+04  0.10017033839E+04  0.25500000000E-02 0.  1.
    8880023    1    1    2    0    0  0.19004477167E+03 -0.75907877840E+03 -0.52425664491E+03  0.11493358269E+04  0.65864270000E+03 0.  0.
    8880022    1    1    2    0    0 -0.19004477167E+03  0.75907877840E+03  0.79883103420E+03  0.11286453301E+04  0.15294330000E+03 0.  0.
<mgrwt>
<rscale>  0 0.96106243E+03</rscale>
<asrwt>0</asrwt>
<pdfrwt beam="1">  1        2 0.19635043E+00 0.10228039E+04</pdfrwt>
<pdfrwt beam="2">  1       -2 0.15410821E+00 0.10228039E+04</pdfrwt>
<totfact> 0.47068577E+00</totfact>
</mgrwt>
</event>
<event>
 4    2  0.3855935E-007  0.6710635E+03  0.7818608E-02  0.1014912E+00
         -2   -1    0    0    0  501 -0.00000000000E+00  0.00000000000E+00  0.57330457945E+03  0.57330457946E+03  0.25500000000E-02 0.  1.
          2   -1    0    0  501    0  0.00000000000E+00 -0.00000000000E+00 -0.57541727254E+03  0.57541727255E+03  0.25500000000E-02 0. -1.
    8880023    1    1    2    0    0 -0.12722995404E+03  0.18125089489E+02  0.34020798583E+03  0.75237468057E+03  0.65864270000E+03 0.  1.
    8880022    1    1    2    0    0  0.12722995404E+03 -0.18125089489E+02 -0.34232067892E+03  0.39634717144E+03  0.15294330000E+03 0.  0.
<mgrwt>
<rscale>  0 0.49568377E+03</rscale>
<asrwt>0</asrwt>
<pdfrwt beam="1">  1        2 0.88525733E-01 0.67106347E+03</pdfrwt>
<pdfrwt beam="2">  1       -2 0.88200705E-01 0.67106347E+03</pdfrwt>
<totfact> 0.58770431E+01</totfact>
</mgrwt>
</event>
<event>
 4    2  0.3855935E-007  0.6622861E+03  0.7818608E-02  0.1021928E+00
         -2   -1    0    0    0  501 -0.00000000000E+00  0.00000000000E+00  0.10898139699E+03  0.10898139702E+03  0.25500000000E-02 0.  1.
          2   -1    0    0  501    0  0.00000000000E+00 -0.00000000000E+00 -0.22743164707E+04  0.22743164707E+04  0.25500000000E-02 0. -1.
    8880023    1    1    2    0    0  0.61493290908E+02  0.32113942846E+02 -0.95980121284E+03  0.11661223369E+04  0.65864270000E+03 0.  1.
    8880022    1    1    2    0    0 -0.61493290908E+02 -0.32113942846E+02 -0.12055338609E+04  0.12171755308E+04  0.15294330000E+03 0.  0.
<mgrwt>
<rscale>  0 0.46997399E+03</rscale>
<asrwt>0</asrwt>
<pdfrwt beam="1">  1        2 0.34989481E+00 0.66228614E+03</pdfrwt>
<pdfrwt beam="2">  1       -2 0.16766370E-01 0.66228614E+03</pdfrwt>
<totfact> 0.14150583E+02</totfact>
</mgrwt>
</event>
<event>
 4    2  0.3855935E-007  0.6740507E+03  0.7818608E-02  0.1012911E+00
         -2   -1    0    0    0  501 -0.00000000000E+00  0.00000000000E+00  0.17885230492E+03  0.17885230494E+03  0.25500000000E-02 0.  1.
          2   -1    0    0  501    0  0.00000000000E+00 -0.00000000000E+00 -0.16868637643E+04  0.16868637643E+04  0.25500000000E-02 0. -1.
    8880023    1    1    2    0    0 -0.12795853895E+03 -0.64503988573E+02 -0.50817220158E+03  0.84414651865E+03  0.65864270000E+03 0.  1.
    8880022    1    1    2    0    0  0.12795853895E+03  0.64503988573E+02 -0.99983925782E+03  0.10215695506E+04  0.15294330000E+03 0.  0.
<mgrwt>
<rscale>  0 0.50333762E+03</rscale>
<asrwt>0</asrwt>
<pdfrwt beam="1">  1        2 0.25951749E+00 0.67405071E+03</pdfrwt>
<pdfrwt beam="2">  1       -2 0.27515740E-01 0.67405071E+03</pdfrwt>
<totfact> 0.12327607E+02</totfact>
</mgrwt>
</event>
<event>
 4    2  0.3855935E-007  0.8648110E+03  0.7818608E-02  0.9585062E-01
         -2   -1    0    0    0  501 -0.00000000000E+00  0.00000000000E+00  0.66549528030E+03  0.66549528030E+03  0.25500000000E-02 0.  1.
          2   -1    0    0  501    0  0.00000000000E+00 -0.00000000000E+00 -0.24051082281E+04  0.24051082281E+04  0.25500000000E-02 0. -1.
    8880023    1    1    2    0    0  0.33876055326E+03  0.44646285995E+03  0.32648626271E+03  0.92438697728E+03  0.65864270000E+03 0.  1.
    8880022    1    1    2    0    0 -0.33876055326E+03 -0.44646285995E+03 -0.20660992105E+04  0.21462165311E+04  0.15294330000E+03 0.  0.
<mgrwt>
<rscale>  0 0.78292797E+03</rscale>
<asrwt>0</asrwt>
<pdfrwt beam="1">  1        2 0.37001665E+00 0.86481096E+03</pdfrwt>
<pdfrwt beam="2">  1       -2 0.10238389E+00 0.86481096E+03</pdfrwt>
<totfact> 0.31665657E+00</totfact>
</mgrwt>
</event>
<event>
 4    2  0.3855935E-007  0.6990816E+03  0.7818608E-02  0.1000103E+00
         -2   -1    0    0    0  501 -0.00000000000E+00  0.00000000000E+00  0.14836648643E+04  0.14836648643E+04  0.25500000000E-02 0.  1.
          2   -1    0    0  501    0  0.00000000000E+00 -0.00000000000E+00 -0.78523519303E+03  0.78523519303E+03  0.25500000000E-02 0. -1.
    8880023    1    1    2    0    0 -0.57029509652E+02 -0.22727183130E+03  0.13718257722E+04  0.15396821119E+04  0.65864270000E+03 0.  1.
    8880022    1    1    2    0    0  0.57029509652E+02  0.22727183130E+03 -0.67339610087E+03  0.72921794545E+03  0.15294330000E+03 0.  0.
<mgrwt>
<rscale>  0 0.55604980E+03</rscale>
<asrwt>0</asrwt>
<pdfrwt beam="1">  1        2 0.12080542E+00 0.69908158E+03</pdfrwt>
<pdfrwt beam="2">  1       -2 0.22825613E+00 0.69908158E+03</pdfrwt>
<totfact> 0.32036283E+00</totfact>
</mgrwt>
</event>
<event>
 4    2  0.3855935E-007  0.6612244E+03  0.7818608E-02  0.1022936E+00
         -2   -1    0    0    0  501 -0.00000000000E+00  0.00000000000E+00  0.12493327409E+03  0.12493327412E+03  0.25500000000E-02 0.  1.
          2   -1    0    0  501    0  0.00000000000E+00 -0.00000000000E+00 -0.19019159327E+04  0.19019159327E+04  0.25500000000E-02 0. -1.
    8880023    1    1    2    0    0  0.37259512043E+02  0.44935139812E+02 -0.80769075817E+03  0.10438304485E+04  0.65864270000E+03 0.  1.
    8880022    1    1    2    0    0 -0.37259512043E+02 -0.44935139812E+02 -0.96929190040E+03  0.98301875833E+03  0.15294330000E+03 0.  0.
<mgrwt>
<rscale>  0 0.46641943E+03</rscale>
<asrwt>0</asrwt>
<pdfrwt beam="1">  1        2 0.29260243E+00 0.66122435E+03</pdfrwt>
<pdfrwt beam="2">  1       -2 0.19220505E-01 0.66122435E+03</pdfrwt>
<totfact> 0.17864112E+02</totfact>
</mgrwt>
</event>
<event>
 4    2  0.3855935E-007  0.7302203E+03  0.7818608E-02  0.9889409E-01
         -2   -1    0    0    0  501 -0.00000000000E+00  0.00000000000E+00  0.15353618807E+04  0.15353618807E+04  0.25500000000E-02 0.  1.
          2   -1    0    0  501    0  0.00000000000E+00 -0.00000000000E+00 -0.80939144181E+03  0.80939144182E+03  0.25500000000E-02 0. -1.
    8880023    1    1    2    0    0  0.30309408071E+03 -0.86864751452E+02  0.14034238346E+04  0.15820303956E+04  0.65864270000E+03 0.  1.
    8880022    1    1    2    0    0 -0.30309408071E+03  0.86864751452E+02 -0.67745339574E+03  0.76272292690E+03  0.15294330000E+03 0.  0.
<mgrwt>
<rscale>  0 0.60777331E+03</rscale>
<asrwt>0</asrwt>
<pdfrwt beam="1">  1        2 0.12452176E+00 0.73022032E+03</pdfrwt>
<pdfrwt beam="2">  1       -2 0.23620952E+00 0.73022032E+03</pdfrwt>
<totfact> 0.27365410E+00</totfact>
</mgrwt>
</event>
<event>
 4    2  0.3855935E-007  0.7700368E+03  0.7818608E-02  0.9779784E-01
         -2   -1    0    0    0  501 -0.00000000000E+00  0.00000000000E+00  0.60958786811E+03  0.60958786811E+03  0.25500000000E-02 0.  1.
          2   -1    0    0  501    0  0.00000000000E+00 -0.00000000000E+00 -0.81530004214E+03  0.81530004214E+03  0.25500000000E-02 0. -1.
    8880023    1    1    2    0    0  0.39089178645E+03 -0.79687129679E+02  0.24088711287E+03  0.80683532072E+03  0.65864270000E+03 0.  1.
    8880022    1    1    2    0    0 -0.39089178645E+03  0.79687129679E+02 -0.44659928690E+03  0.61805258953E+03  0.15294330000E+03 0. -1.
<mgrwt>
<rscale>  0 0.66458844E+03</rscale>
<asrwt>0</asrwt>
<pdfrwt beam="1">  1        2 0.12543078E+00 0.77003677E+03</pdfrwt>
<pdfrwt beam="2">  1       -2 0.93782749E-01 0.77003677E+03</pdfrwt>
<totfact> 0.32659212E+01</totfact>
</mgrwt>
</event>
<event>
 4    2  0.3855935E-007  0.6839829E+03  0.7818608E-02  0.1007155E+00
         -2   -1    0    0    0  501 -0.00000000000E+00  0.00000000000E+00  0.11007505686E+04  0.11007505686E+04  0.25500000000E-02 0.  1.
          2   -1    0    0  501    0  0.00000000000E+00 -0.00000000000E+00 -0.12839774097E+04  0.12839774097E+04  0.25500000000E-02 0. -1.
    8880023    1    1    2    0    0  0.17975500556E+03  0.41357965260E+02  0.98110684705E+03  0.11959946467E+04  0.65864270000E+03 0.  1.
    8880022    1    1    2    0    0 -0.17975500556E+03 -0.41357965260E+02 -0.11643336882E+04  0.11887333317E+04  0.15294330000E+03 0.  0.
<mgrwt>
<rscale>  0 0.52621247E+03</rscale>
<asrwt>0</asrwt>
<pdfrwt beam="1">  1        2 0.19753499E+00 0.68398286E+03</pdfrwt>
<pdfrwt beam="2">  1       -2 0.16934624E+00 0.68398286E+03</pdfrwt>
<totfact> 0.37673671E+00</totfact>
</mgrwt>
</event>
<event>
 4    2  0.6214437E-007  0.9525399E+03  0.7818608E-02  0.9446469E-01
         -2   -1    0    0    0  501 -0.00000000000E+00  0.00000000000E+00  0.10829752469E+04  0.10829752469E+04  0.25500000000E-02 0.  1.
          2   -1    0    0  501    0  0.00000000000E+00 -0.00000000000E+00 -0.23060806323E+04  0.23060806323E+04  0.25500000000E-02 0. -1.
    8880023    1    1    2    0    0 -0.43551317573E+03  0.53277606178E+03  0.80172541865E+03  0.12450284782E+04  0.65864270000E+03 0.  1.
    8880022    1    1    2    0    0  0.43551317573E+03 -0.53277606178E+03 -0.20248308041E+04  0.21440274011E+04  0.15294330000E+03 0.  0.
<mgrwt>
<rscale>  0 0.88348159E+03</rscale>
<asrwt>0</asrwt>
<pdfrwt beam="1">  1        2 0.35478163E+00 0.95253990E+03</pdfrwt>
<pdfrwt beam="2">  1       -2 0.16661158E+00 0.95253990E+03</pdfrwt>
<totfact> 0.10235932E+00</totfact>
</mgrwt>
</event>
<event>
 4    2  0.3855935E-007  0.6741599E+03  0.7818608E-02  0.1012841E+00
          2   -1    0    0  501    0  0.00000000000E+00  0.00000000000E+00  0.28882953737E+03  0.28882953738E+03  0.25500000000E-02 0. -1.
         -2   -1    0    0    0  501 -0.00000000000E+00 -0.00000000000E+00 -0.92330670778E+03  0.92330670778E+03  0.25500000000E-02 0.  1.
    8880023    1    1    2    0    0  0.12586790814E+02 -0.14325837210E+03 -0.71918238324E+03  0.98575600181E+03  0.65864270000E+03 0.  1.
    8880022    1    1    2    0    0 -0.12586790814E+02  0.14325837210E+03  0.84705212832E+02  0.22638024334E+03  0.15294330000E+03 0.  0.
<mgrwt>
<rscale>  0 0.50360940E+03</rscale>
<asrwt>0</asrwt>
<pdfrwt beam="1">  1        2 0.44435314E-01 0.67415992E+03</pdfrwt>
<pdfrwt beam="2">  1       -2 0.14204718E+00 0.67415992E+03</pdfrwt>
<totfact> 0.40253141E+01</totfact>
</mgrwt>
</event>
<event>
 4    2  0.3855935E-007  0.7818288E+03  0.7818608E-02  0.9751559E-01
          2   -1    0    0  501    0  0.00000000000E+00  0.00000000000E+00  0.17874055601E+04  0.17874055601E+04  0.25500000000E-02 0. -1.
         -2   -1    0    0    0  501 -0.00000000000E+00 -0.00000000000E+00 -0.55924990719E+03  0.55924990720E+03  0.25500000000E-02 0.  1.
    8880023    1    1    2    0    0  0.36698531625E+03 -0.20680388478E+03 -0.23501877976E+03  0.81638845056E+03  0.65864270000E+03 0.  1.
    8880022    1    1    2    0    0 -0.36698531625E+03  0.20680388478E+03  0.14631744327E+04  0.15302670168E+04  0.15294330000E+03 0.  0.
<mgrwt>
<rscale>  0 0.68028267E+03</rscale>
<asrwt>0</asrwt>
<pdfrwt beam="1">  1        2 0.27498547E+00 0.78182880E+03</pdfrwt>
<pdfrwt beam="2">  1       -2 0.86038447E-01 0.78182880E+03</pdfrwt>
<totfact> 0.10542340E+01</totfact>
</mgrwt>
</event>
<event>
 4    2  0.3855935E-007  0.7094433E+03  0.7818608E-02  0.9960074E-01
         -2   -1    0    0    0  501 -0.00000000000E+00  0.00000000000E+00  0.38031772052E+03  0.38031772053E+03  0.25500000000E-02 0.  1.
          2   -1    0    0  501    0  0.00000000000E+00 -0.00000000000E+00 -0.26790633137E+04  0.26790633137E+04  0.25500000000E-02 0. -1.
    8880023    1    1    2    0    0 -0.26342089787E+03 -0.10442062097E+02  0.30675173642E+02  0.71010617420E+03  0.65864270000E+03 0.  1.
    8880022    1    1    2    0    0  0.26342089787E+03  0.10442062097E+02 -0.23294207668E+04  0.23492748600E+04  0.15294330000E+03 0.  0.
<mgrwt>
<rscale>  0 0.57436125E+03</rscale>
<asrwt>0</asrwt>
<pdfrwt beam="1">  1        2 0.41216357E+00 0.70944331E+03</pdfrwt>
<pdfrwt beam="2">  1       -2 0.58510420E-01 0.70944331E+03</pdfrwt>
<totfact> 0.79277452E+00</totfact>
</mgrwt>
</event>
<event>
 4    2  0.3855935E-007  0.6725980E+03  0.7818608E-02  0.1013865E+00
          2   -1    0    0  501    0  0.00000000000E+00  0.00000000000E+00  0.11847632147E+04  0.11847632147E+04  0.25500000000E-02 0. -1.
         -2   -1    0    0    0  501 -0.00000000000E+00 -0.00000000000E+00 -0.74833311673E+03  0.74833311673E+03  0.25500000000E-02 0.  1.
    8880023    1    1    2    0    0  0.21487087162E+02  0.13459616339E+03 -0.58494722739E+03  0.89137606385E+03  0.65864270000E+03 0.  1.
    8880022    1    1    2    0    0 -0.21487087162E+02 -0.13459616339E+03  0.10213773253E+04  0.10417202675E+04  0.15294330000E+03 0.  0.
<mgrwt>
<rscale>  0 0.49967009E+03</rscale>
<asrwt>0</asrwt>
<pdfrwt beam="1">  1        2 0.18227126E+00 0.67259797E+03</pdfrwt>
<pdfrwt beam="2">  1       -2 0.11512817E+00 0.67259797E+03</pdfrwt>
<totfact> 0.11712750E+01</totfact>
</mgrwt>
</event>
<event>
 4    2  0.3855935E-007  0.6593738E+03  0.7818608E-02  0.1024807E+00
          2   -1    0    0  501    0  0.00000000000E+00  0.00000000000E+00  0.10297419584E+04  0.10297419584E+04  0.25500000000E-02 0. -1.
         -2   -1    0    0    0  501 -0.00000000000E+00 -0.00000000000E+00 -0.20114728023E+03  0.20114728024E+03  0.25500000000E-02 0.  1.
    8880023    1    1    2    0    0 -0.30961454229E+02 -0.22294640768E+01  0.39166688411E+03  0.76692681302E+03  0.65864270000E+03 0.  1.
    8880022    1    1    2    0    0  0.30961454229E+02  0.22294640768E+01  0.43692779408E+03  0.46396242565E+03  0.15294330000E+03 0.  0.
<mgrwt>
<rscale>  0 0.45990994E+03</rscale>
<asrwt>0</asrwt>
<pdfrwt beam="1">  1        2 0.15842184E+00 0.65937379E+03</pdfrwt>
<pdfrwt beam="2">  1       -2 0.30945736E-01 0.65937379E+03</pdfrwt>
<totfact> 0.23667974E+02</totfact>
</mgrwt>
</event>
<event>
 4    2  0.3855935E-007  0.7580232E+03  0.7818608E-02  0.9810252E-01
         -2   -1    0    0    0  501 -0.00000000000E+00  0.00000000000E+00  0.18362526102E+03  0.18362526104E+03  0.25500000000E-02 0.  1.
          2   -1    0    0  501    0  0.00000000000E+00 -0.00000000000E+00 -0.22397376483E+04  0.22397376483E+04  0.25500000000E-02 0. -1.
    8880023    1    1    2    0    0 -0.26913625347E+03  0.26144717077E+03 -0.79372752833E+03  0.10975438677E+04  0.65864270000E+03 0.  0.
    8880022    1    1    2    0    0  0.26913625347E+03 -0.26144717077E+03 -0.12623848589E+04  0.13258190416E+04  0.15294330000E+03 0.  0.
<mgrwt>
<rscale>  0 0.64815235E+03</rscale>
<asrwt>0</asrwt>
<pdfrwt beam="1">  1        2 0.34457500E+00 0.75802319E+03</pdfrwt>
<pdfrwt beam="2">  1       -2 0.28250042E-01 0.75802319E+03</pdfrwt>
<totfact> 0.58058112E+01</totfact>
</mgrwt>
</event>
<event>
 4    2  0.3855935E-007  0.6695319E+03  0.7818608E-02  0.1016001E+00
          2   -1    0    0  501    0  0.00000000000E+00  0.00000000000E+00  0.32761974336E+04  0.32761974336E+04  0.25500000000E-02 0. -1.
         -2   -1    0    0    0  501 -0.00000000000E+00 -0.00000000000E+00 -0.15149214551E+03  0.15149214554E+03  0.25500000000E-02 0.  1.
    8880023    1    1    2    0    0 -0.11379204427E+03  0.38911522495E+02  0.61085218622E+03  0.90631856187E+03  0.65864270000E+03 0.  1.
    8880022    1    1    2    0    0  0.11379204427E+03 -0.38911522495E+02  0.25138531019E+04  0.25213710173E+04  0.15294330000E+03 0.  0.
<mgrwt>
<rscale>  0 0.49157861E+03</rscale>
<asrwt>0</asrwt>
<pdfrwt beam="1">  1        2 0.50403035E+00 0.66953188E+03</pdfrwt>
<pdfrwt beam="2">  1       -2 0.23306485E-01 0.66953188E+03</pdfrwt>
<totfact> 0.20371698E+01</totfact>
</mgrwt>
</event>
<event>
 4    2  0.3855935E-007  0.8820892E+03  0.7818608E-02  0.9555418E-01
         -2   -1    0    0    0  501 -0.00000000000E+00  0.00000000000E+00  0.42974824429E+03  0.42974824429E+03  0.25500000000E-02 0.  1.
          2   -1    0    0  501    0  0.00000000000E+00 -0.00000000000E+00 -0.13584883480E+04  0.13584883480E+04  0.25500000000E-02 0. -1.
    8880023    1    1    2    0    0 -0.53470983305E+03 -0.24157085306E+03 -0.74515400042E+03  0.11547015949E+04  0.65864270000E+03 0.  1.
    8880022    1    1    2    0    0  0.53470983305E+03  0.24157085306E+03 -0.18358610328E+03  0.63353499741E+03  0.15294330000E+03 0.  0.
<mgrwt>
<rscale>  0 0.80318496E+03</rscale>
<asrwt>0</asrwt>
<pdfrwt beam="1">  1        2 0.20899820E+00 0.88208916E+03</pdfrwt>
<pdfrwt beam="2">  1       -2 0.66115115E-01 0.88208916E+03</pdfrwt>
<totfact> 0.32416564E+01</totfact>
</mgrwt>
</event>
<event>
 4    2  0.3855935E-007  0.6732835E+03  0.7818608E-02  0.1013411E+00
          2   -1    0    0  501    0  0.00000000000E+00  0.00000000000E+00  0.22523697049E+04  0.22523697049E+04  0.25500000000E-02 0. -1.
         -2   -1    0    0    0  501 -0.00000000000E+00 -0.00000000000E+00 -0.19883823946E+03  0.19883823948E+03  0.25500000000E-02 0.  1.
    8880023    1    1    2    0    0  0.12356247050E+03 -0.65060172997E+02  0.39665580899E+03  0.78143876747E+03  0.65864270000E+03 0.  1.
    8880022    1    1    2    0    0 -0.12356247050E+03  0.65060172997E+02  0.16568756564E+04  0.16697691769E+04  0.15294330000E+03 0.  0.
<mgrwt>
<rscale>  0 0.50141317E+03</rscale>
<asrwt>0</asrwt>
<pdfrwt beam="1">  1        2 0.34651843E+00 0.67328353E+03</pdfrwt>
<pdfrwt beam="2">  1       -2 0.30590497E-01 0.67328353E+03</pdfrwt>
<totfact> 0.49867723E+01</totfact>
</mgrwt>
</event>
<event>
 4    2  0.3855935E-007  0.7013121E+03  0.7818608E-02  0.9991801E-01
          2   -1    0    0  501    0  0.00000000000E+00  0.00000000000E+00  0.26800374514E+04  0.26800374514E+04  0.25500000000E-02 0. -1.
         -2   -1    0    0    0  501 -0.00000000000E+00 -0.00000000000E+00 -0.22267560432E+03  0.22267560433E+03  0.25500000000E-02 0.  1.
    8880023    1    1    2    0    0 -0.52126941340E+02 -0.23518333857E+03  0.36429240223E+03  0.79028322856E+03  0.65864270000E+03 0.  1.
    8880022    1    1    2    0    0  0.52126941340E+02  0.23518333857E+03  0.20930694448E+04  0.21124298272E+04  0.15294330000E+03 0.  0.
<mgrwt>
<rscale>  0 0.56011206E+03</rscale>
<asrwt>0</asrwt>
<pdfrwt beam="1">  1        2 0.41231344E+00 0.70131208E+03</pdfrwt>
<pdfrwt beam="2">  1       -2 0.34257786E-01 0.70131208E+03</pdfrwt>
<totfact> 0.23038504E+01</totfact>
</mgrwt>
</event>
<event>
 4    2  0.3855935E-007  0.7606471E+03  0.7818608E-02  0.9803435E-01
         -2   -1    0    0    0  501 -0.00000000000E+00  0.00000000000E+00  0.31645745764E+03  0.31645745765E+03  0.25500000000E-02 0.  1.
          2   -1    0    0  501    0  0.00000000000E+00 -0.00000000000E+00 -0.30513337623E+04  0.30513337623E+04  0.25500000000E-02 0. -1.
    8880023    1    1    2    0    0 -0.27203012340E+03 -0.26603266225E+03 -0.18190644562E+03  0.78209585515E+03  0.65864270000E+03 0.  0.
    8880022    1    1    2    0    0  0.27203012340E+03  0.26603266225E+03 -0.25529698591E+04  0.25856953648E+04  0.15294330000E+03 0.  0.
<mgrwt>
<rscale>  0 0.65178519E+03</rscale>
<asrwt>0</asrwt>
<pdfrwt beam="1">  1        2 0.46943594E+00 0.76064707E+03</pdfrwt>
<pdfrwt beam="2">  1       -2 0.48685765E-01 0.76064707E+03</pdfrwt>
<totfact> 0.68734806E+00</totfact>
</mgrwt>
</event>
<event>
 4    2  0.3855935E-007  0.1285490E+04  0.7818608E-02  0.9078193E-01
          2   -1    0    0  501    0  0.00000000000E+00  0.00000000000E+00  0.11779831649E+04  0.11779831649E+04  0.25500000000E-02 0. -1.
         -2   -1    0    0    0  501 -0.00000000000E+00 -0.00000000000E+00 -0.16825289688E+04  0.16825289688E+04  0.25500000000E-02 0.  1.
    8880023    1    1    2    0    0  0.11021088056E+04  0.63478550941E+02 -0.10119038379E+04  0.16359807240E+04  0.65864270000E+03 0.  1.
    8880022    1    1    2    0    0 -0.11021088056E+04 -0.63478550941E+02  0.50735803403E+03  0.12245314097E+04  0.15294330000E+03 0.  0.
<mgrwt>
<rscale>  0 0.12404220E+04</rscale>
<asrwt>0</asrwt>
<pdfrwt beam="1">  1        2 0.18122818E+00 0.12854896E+04</pdfrwt>
<pdfrwt beam="2">  1       -2 0.25885061E+00 0.12854896E+04</pdfrwt>
<totfact> 0.10676801E+00</totfact>
</mgrwt>
</event>
<event>
 4    2  0.3855935E-007  0.6755700E+03  0.7818608E-02  0.1011949E+00
         -2   -1    0    0    0  501 -0.00000000000E+00  0.00000000000E+00  0.63738994429E+03  0.63738994429E+03  0.25500000000E-02 0.  1.
          2   -1    0    0  501    0  0.00000000000E+00 -0.00000000000E+00 -0.14825885294E+04  0.14825885294E+04  0.25500000000E-02 0. -1.
    8880023    1    1    2    0    0 -0.10475949349E+03 -0.10775010934E+03  0.44703032093E+03  0.81008083031E+03  0.65864270000E+03 0.  1.
    8880022    1    1    2    0    0  0.10475949349E+03  0.10775010934E+03 -0.12922289060E+04  0.13098976434E+04  0.15294330000E+03 0.  0.
<mgrwt>
<rscale>  0 0.50707187E+03</rscale>
<asrwt>0</asrwt>
<pdfrwt beam="1">  1        2 0.22809054E+00 0.67557001E+03</pdfrwt>
<pdfrwt beam="2">  1       -2 0.98059992E-01 0.67557001E+03</pdfrwt>
<totfact> 0.11626522E+01</totfact>
</mgrwt>
</event>
<event>
 4    2  0.3855935E-007  0.7416434E+03  0.7818608E-02  0.9855186E-01
          2   -1    0    0  501    0  0.00000000000E+00  0.00000000000E+00  0.33819763808E+04  0.33819763808E+04  0.25500000000E-02 0. -1.
         -2   -1    0    0    0  501 -0.00000000000E+00 -0.00000000000E+00 -0.13012869457E+03  0.13012869459E+03  0.25500000000E-02 0.  1.
    8880023    1    1    2    0    0 -0.75139471236E+02  0.33253385483E+03  0.10911321014E+04  0.13193195874E+04  0.65864270000E+03 0.  1.
    8880022    1    1    2    0    0  0.75139471236E+02 -0.33253385483E+03  0.21607155848E+04  0.21927854880E+04  0.15294330000E+03 0. -1.
<mgrwt>
<rscale>  0 0.62483217E+03</rscale>
<asrwt>0</asrwt>
<pdfrwt beam="1">  1        2 0.52030393E+00 0.74164339E+03</pdfrwt>
<pdfrwt beam="2">  1       -2 0.20019804E-01 0.74164339E+03</pdfrwt>
<totfact> 0.22425023E+01</totfact>
</mgrwt>
</event>
<event>
 4    2  0.3855935E-007  0.1156670E+04  0.7818608E-02  0.9200438E-01
         -2   -1    0    0    0  501 -0.00000000000E+00  0.00000000000E+00  0.33796213073E+03  0.33796213074E+03  0.25500000000E-02 0.  1.
          2   -1    0    0  501    0  0.00000000000E+00 -0.00000000000E+00 -0.43389926268E+04  0.43389926268E+04  0.25500000000E-02 0. -1.
    8880023    1    1    2    0    0 -0.94880653231E+03  0.61974952487E+02 -0.32680259923E+04  0.34666812405E+04  0.65864270000E+03 0.  0.
    8880022    1    1    2    0    0  0.94880653231E+03 -0.61974952487E+02 -0.73300450374E+03  0.12102735170E+04  0.15294330000E+03 0.  0.
<mgrwt>
<rscale>  0 0.11048907E+04</rscale>
<asrwt>0</asrwt>
<pdfrwt beam="1">  1        2 0.66753729E+00 0.11566698E+04</pdfrwt>
<pdfrwt beam="2">  1       -2 0.51994177E-01 0.11566698E+04</pdfrwt>
<totfact> 0.63436310E-01</totfact>
</mgrwt>
</event>
<event>
 4    2  0.3855935E-007  0.6833238E+03  0.7818608E-02  0.1007503E+00
         -2   -1    0    0    0  501 -0.00000000000E+00  0.00000000000E+00  0.14366853028E+03  0.14366853030E+03  0.25500000000E-02 0.  1.
          2   -1    0    0  501    0  0.00000000000E+00 -0.00000000000E+00 -0.19471607948E+04  0.19471607948E+04  0.25500000000E-02 0. -1.
    8880023    1    1    2    0    0 -0.11239529735E+03 -0.14313827916E+03 -0.76618688955E+03  0.10266322739E+04  0.65864270000E+03 0.  0.
    8880022    1    1    2    0    0  0.11239529735E+03  0.14313827916E+03 -0.10373053750E+04  0.10641970512E+04  0.15294330000E+03 0.  0.
<mgrwt>
<rscale>  0 0.52479345E+03</rscale>
<asrwt>0</asrwt>
<pdfrwt beam="1">  1        2 0.29956318E+00 0.68332384E+03</pdfrwt>
<pdfrwt beam="2">  1       -2 0.22102852E-01 0.68332384E+03</pdfrwt>
<totfact> 0.13181692E+02</totfact>
</mgrwt>
</event>
<event>
 4    2  0.3855935E-007  0.1048226E+04  0.7818608E-02  0.9321016E-01
         -2   -1    0    0    0  501 -0.00000000000E+00  0.00000000000E+00  0.36679072818E+03  0.36679072819E+03  0.25500000000E-02 0.  1.
          2   -1    0    0  501    0  0.00000000000E+00 -0.00000000000E+00 -0.24496970118E+04  0.24496970118E+04  0.25500000000E-02 0. -1.
    8880023    1    1    2    0    0 -0.11815100682E+03  0.80685120177E+03 -0.96854568156E+03  0.14271858554E+04  0.65864270000E+03 0.  1.
    8880022    1    1    2    0    0  0.11815100682E+03 -0.80685120177E+03 -0.11143606021E+04  0.13893018847E+04  0.15294330000E+03 0. -1.
<mgrwt>
<rscale>  0 0.98870859E+03</rscale>
<asrwt>0</asrwt>
<pdfrwt beam="1">  1        2 0.37687645E+00 0.10482265E+04</pdfrwt>
<pdfrwt beam="2">  1       -2 0.56429344E-01 0.10482265E+04</pdfrwt>
<totfact> 0.11026841E+01</totfact>
</mgrwt>
</event>
<event>
 4    2  0.3855935E-007  0.6968731E+03  0.7818608E-02  0.1001043E+00
          2   -1    0    0  501    0  0.00000000000E+00  0.00000000000E+00  0.34031370377E+04  0.34031370378E+04  0.25500000000E-02 0. -1.
         -2   -1    0    0    0  501 -0.00000000000E+00 -0.00000000000E+00 -0.22864743310E+03  0.22864743312E+03  0.25500000000E-02 0.  1.
    8880023    1    1    2    0    0 -0.17313998961E+03 -0.14779883821E+03  0.32465950516E+03  0.76878862709E+03  0.65864270000E+03 0.  1.
    8880022    1    1    2    0    0  0.17313998961E+03  0.14779883821E+03  0.28498300995E+04  0.28629958438E+04  0.15294330000E+03 0.  0.
<mgrwt>
<rscale>  0 0.55195331E+03</rscale>
<asrwt>0</asrwt>
<pdfrwt beam="1">  1        2 0.52355955E+00 0.69687313E+03</pdfrwt>
<pdfrwt beam="2">  1       -2 0.35176528E-01 0.69687313E+03</pdfrwt>
<totfact> 0.78415561E+00</totfact>
</mgrwt>
</event>
<event>
 4    2  0.3855935E-007  0.7485278E+03  0.7818608E-02  0.9835768E-01
         -2   -1    0    0    0  501 -0.00000000000E+00  0.00000000000E+00  0.89502669434E+03  0.89502669434E+03  0.25500000000E-02 0.  1.
          2   -1    0    0  501    0  0.00000000000E+00 -0.00000000000E+00 -0.57450180922E+03  0.57450180923E+03  0.25500000000E-02 0. -1.
    8880023    1    1    2    0    0  0.34102391181E+03  0.10092725116E+03  0.62647034989E+03  0.97609370657E+03  0.65864270000E+03 0. -1.
    8880022    1    1    2    0    0 -0.34102391181E+03 -0.10092725116E+03 -0.30594546478E+03  0.49343479699E+03  0.15294330000E+03 0.  0.
<mgrwt>
<rscale>  0 0.63477847E+03</rscale>
<asrwt>0</asrwt>
<pdfrwt beam="1">  1        2 0.88384894E-01 0.74852777E+03</pdfrwt>
<pdfrwt beam="2">  1       -2 0.13769641E+00 0.74852777E+03</pdfrwt>
<totfact> 0.19862412E+01</totfact>
</mgrwt>
</event>
<event>
 4    2  0.3855935E-007  0.1011144E+04  0.7818608E-02  0.9367121E-01
          2   -1    0    0  501    0  0.00000000000E+00  0.00000000000E+00  0.15019598411E+04  0.15019598411E+04  0.25500000000E-02 0. -1.
         -2   -1    0    0    0  501 -0.00000000000E+00 -0.00000000000E+00 -0.74983212897E+03  0.74983212897E+03  0.25500000000E-02 0.  1.
    8880023    1    1    2    0    0  0.54526942326E+02 -0.76526388726E+03 -0.18829041899E+03  0.10285258834E+04  0.65864270000E+03 0.  0.
    8880022    1    1    2    0    0 -0.54526942326E+02  0.76526388726E+03  0.94041813114E+03  0.12232660867E+04  0.15294330000E+03 0.  0.
<mgrwt>
<rscale>  0 0.94831610E+03</rscale>
<asrwt>0</asrwt>
<pdfrwt beam="1">  1        2 0.23107074E+00 0.10111440E+04</pdfrwt>
<pdfrwt beam="2">  1       -2 0.11535879E+00 0.10111440E+04</pdfrwt>
<totfact> 0.73587042E+00</totfact>
</mgrwt>
</event>
<event>
 4    2  0.3855935E-007  0.6741716E+03  0.7818608E-02  0.1012834E+00
         -2   -1    0    0    0  501 -0.00000000000E+00  0.00000000000E+00  0.14445002882E+03  0.14445002884E+03  0.25500000000E-02 0.  1.
          2   -1    0    0  501    0  0.00000000000E+00 -0.00000000000E+00 -0.34095953102E+04  0.34095953102E+04  0.25500000000E-02 0. -1.
    8880023    1    1    2    0    0 -0.25157115926E+02 -0.14164843920E+03 -0.67019880006E+03  0.95061758803E+03  0.65864270000E+03 0.  1.
    8880022    1    1    2    0    0  0.25157115926E+02  0.14164843920E+03 -0.25949464813E+04  0.26034277510E+04  0.15294330000E+03 0.  0.
<mgrwt>
<rscale>  0 0.50363847E+03</rscale>
<asrwt>0</asrwt>
<pdfrwt beam="1">  1        2 0.52455306E+00 0.67417162E+03</pdfrwt>
<pdfrwt beam="2">  1       -2 0.22223084E-01 0.67417162E+03</pdfrwt>
<totfact> 0.18113164E+01</totfact>
</mgrwt>
</event>
<event>
 4    2  0.3855935E-007  0.6667382E+03  0.7818608E-02  0.1018118E+00
         -2   -1    0    0    0  501 -0.00000000000E+00  0.00000000000E+00  0.15628398518E+03  0.15628398520E+03  0.25500000000E-02 0.  1.
          2   -1    0    0  501    0  0.00000000000E+00 -0.00000000000E+00 -0.18449510631E+04  0.18449510631E+04  0.25500000000E-02 0. -1.
    8880023    1    1    2    0    0  0.66368313442E+02 -0.79528784099E+02 -0.59985287887E+03  0.89686301244E+03  0.65864270000E+03 0.  1.
    8880022    1    1    2    0    0 -0.66368313442E+02  0.79528784099E+02 -0.10888141991E+04  0.11043720359E+04  0.15294330000E+03 0.  0.
<mgrwt>
<rscale>  0 0.48372060E+03</rscale>
<asrwt>0</asrwt>
<pdfrwt beam="1">  1        2 0.28383861E+00 0.66673817E+03</pdfrwt>
<pdfrwt beam="2">  1       -2 0.24043691E-01 0.66673817E+03</pdfrwt>
<totfact> 0.12917125E+02</totfact>
</mgrwt>
</event>
<event>
 4    2  0.3855935E-007  0.6712553E+03  0.7818608E-02  0.1014778E+00
         -2   -1    0    0    0  501 -0.00000000000E+00  0.00000000000E+00  0.45071400693E+03  0.45071400694E+03  0.25500000000E-02 0.  1.
          2   -1    0    0  501    0  0.00000000000E+00 -0.00000000000E+00 -0.15648676359E+04  0.15648676359E+04  0.25500000000E-02 0. -1.
    8880023    1    1    2    0    0 -0.82731693255E+02  0.99644222978E+02  0.18880290861E+03  0.69730212161E+03  0.65864270000E+03 0.  1.
    8880022    1    1    2    0    0  0.82731693255E+02 -0.99644222978E+02 -0.13029565376E+04  0.13182795213E+04  0.15294330000E+03 0.  0.
<mgrwt>
<rscale>  0 0.49618884E+03</rscale>
<asrwt>0</asrwt>
<pdfrwt beam="1">  1        2 0.24074886E+00 0.67125532E+03</pdfrwt>
<pdfrwt beam="2">  1       -2 0.69340617E-01 0.67125532E+03</pdfrwt>
<totfact> 0.22930545E+01</totfact>
</mgrwt>
</event>
<event>
 4    2  0.3855935E-007  0.9303876E+03  0.7818608E-02  0.9478912E-01
          2   -1    0    0  501    0  0.00000000000E+00  0.00000000000E+00  0.27253450700E+04  0.27253450700E+04  0.25500000000E-02 0. -1.
         -2   -1    0    0    0  501 -0.00000000000E+00 -0.00000000000E+00 -0.28780609826E+03  0.28780609827E+03  0.25500000000E-02 0.  1.
    8880023    1    1    2    0    0 -0.18438580124E+03  0.63072400589E+03  0.74768625590E+03  0.11935894767E+04  0.65864270000E+03 0.  1.
    8880022    1    1    2    0    0  0.18438580124E+03 -0.63072400589E+03  0.16898527159E+04  0.18195616916E+04  0.15294330000E+03 0.  0.
<mgrwt>
<rscale>  0 0.85856568E+03</rscale>
<asrwt>0</asrwt>
<pdfrwt beam="1">  1        2 0.41928386E+00 0.93038761E+03</pdfrwt>
<pdfrwt beam="2">  1       -2 0.44277861E-01 0.93038761E+03</pdfrwt>
<totfact> 0.12726550E+01</totfact>
</mgrwt>
</event>
<event>
 4    2  0.3855935E-007  0.8137946E+03  0.7818608E-02  0.9681726E-01
          2   -1    0    0  501    0  0.00000000000E+00  0.00000000000E+00  0.26464173776E+04  0.26464173776E+04  0.25500000000E-02 0. -1.
         -2   -1    0    0    0  501 -0.00000000000E+00 -0.00000000000E+00 -0.30729916639E+03  0.30729916640E+03  0.25500000000E-02 0.  1.
    8880023    1    1    2    0    0  0.39645997935E+03  0.26696627638E+03  0.32212313079E+03  0.87522855621E+03  0.65864270000E+03 0.  0.
    8880022    1    1    2    0    0 -0.39645997935E+03 -0.26696627638E+03  0.20169950805E+04  0.20784879878E+04  0.15294330000E+03 0.  0.
<mgrwt>
<rscale>  0 0.72115296E+03</rscale>
<asrwt>0</asrwt>
<pdfrwt beam="1">  1        2 0.40714113E+00 0.81379464E+03</pdfrwt>
<pdfrwt beam="2">  1       -2 0.47276795E-01 0.81379464E+03</pdfrwt>
<totfact> 0.12615539E+01</totfact>
</mgrwt>
</event>
<event>
 4    2  0.3855935E-007  0.1077615E+04  0.7818608E-02  0.9286398E-01
          2   -1    0    0  501    0  0.00000000000E+00  0.00000000000E+00  0.30971468962E+04  0.30971468962E+04  0.25500000000E-02 0. -1.
         -2   -1    0    0    0  501 -0.00000000000E+00 -0.00000000000E+00 -0.38462015122E+03  0.38462015123E+03  0.25500000000E-02 0.  1.
    8880023    1    1    2    0    0 -0.39880347817E+03  0.75392242162E+03  0.68515938855E+03  0.12769874024E+04  0.65864270000E+03 0. -1.
    8880022    1    1    2    0    0  0.39880347817E+03 -0.75392242162E+03  0.20273673564E+04  0.22047796450E+04  0.15294330000E+03 0.  0.
<mgrwt>
<rscale>  0 0.10204475E+04</rscale>
<asrwt>0</asrwt>
<pdfrwt beam="1">  1        2 0.47648415E+00 0.10776147E+04</pdfrwt>
<pdfrwt beam="2">  1       -2 0.59172330E-01 0.10776147E+04</pdfrwt>
<totfact> 0.40872972E+00</totfact>
</mgrwt>
</event>
<event>
 4    2  0.4342491E-007  0.7475647E+03  0.7818608E-02  0.9838435E-01
         -2   -1    0    0    0  501 -0.00000000000E+00  0.00000000000E+00  0.77583526156E+03  0.77583526156E+03  0.25500000000E-02 0.  1.
          2   -1    0    0  501    0  0.00000000000E+00 -0.00000000000E+00 -0.27871365583E+04  0.27871365583E+04  0.25500000000E-02 0. -1.
    8880023    1    1    2    0    0 -0.30261966316E+02  0.35231658914E+03  0.57813180017E+03  0.94503404712E+03  0.65864270000E+03 0.  1.
    8880022    1    1    2    0    0  0.30261966316E+02 -0.35231658914E+03 -0.25894330969E+04  0.26179377728E+04  0.15294330000E+03 0.  0.
<mgrwt>
<rscale>  0 0.63340052E+03</rscale>
<asrwt>0</asrwt>
<pdfrwt beam="1">  1        2 0.42879023E+00 0.74756469E+03</pdfrwt>
<pdfrwt beam="2">  1       -2 0.11935927E+00 0.74756469E+03</pdfrwt>
<totfact> 0.13441197E+00</totfact>
</mgrwt>
</event>
<event>
 4    2  0.3855935E-007  0.6833464E+03  0.7818608E-02  0.1007491E+00
         -2   -1    0    0    0  501 -0.00000000000E+00  0.00000000000E+00  0.40142044908E+03  0.40142044909E+03  0.25500000000E-02 0.  1.
          2   -1    0    0  501    0  0.00000000000E+00 -0.00000000000E+00 -0.12808911343E+04  0.12808911343E+04  0.25500000000E-02 0. -1.
    8880023    1    1    2    0    0  0.60215573487E+02 -0.17183167347E+03  0.85317409014E+02  0.68865180305E+03  0.65864270000E+03 0.  1.
    8880022    1    1    2    0    0 -0.60215573487E+02  0.17183167347E+03 -0.96478809423E+03  0.99365978034E+03  0.15294330000E+03 0.  0.
<mgrwt>
<rscale>  0 0.52484212E+03</rscale>
<asrwt>0</asrwt>
<pdfrwt beam="1">  1        2 0.19706017E+00 0.68334636E+03</pdfrwt>
<pdfrwt beam="2">  1       -2 0.61756992E-01 0.68334636E+03</pdfrwt>
<totfact> 0.42409148E+01</totfact>
</mgrwt>
</event>
<event>
 4    2  0.5891296E-007  0.9739043E+03  0.7818608E-02  0.9416524E-01
          2   -1    0    0  501    0  0.00000000000E+00  0.00000000000E+00  0.19000107723E+04  0.19000107723E+04  0.25500000000E-02 0. -1.
         -2   -1    0    0    0  501 -0.00000000000E+00 -0.00000000000E+00 -0.15323410723E+04  0.15323410723E+04  0.25500000000E-02 0.  1.
    8880023    1    1    2    0    0  0.70391166345E+03  0.13851962787E+03 -0.12919178553E+04  0.16178817226E+04  0.65864270000E+03 0.  0.
    8880022    1    1    2    0    0 -0.70391166345E+03 -0.13851962787E+03  0.16595875553E+04  0.18144701221E+04  0.15294330000E+03 0.  0.
<mgrwt>
<rscale>  0 0.90728169E+03</rscale>
<asrwt>0</asrwt>
<pdfrwt beam="1">  1        2 0.29230935E+00 0.97390427E+03</pdfrwt>
<pdfrwt beam="2">  1       -2 0.23574478E+00 0.97390427E+03</pdfrwt>
<totfact> 0.60055014E-01</totfact>
</mgrwt>
</event>
<event>
 4    2  0.3855935E-007  0.8435370E+03  0.7818608E-02  0.9623547E-01
          2   -1    0    0  501    0  0.00000000000E+00  0.00000000000E+00  0.68295167921E+03  0.68295167922E+03  0.25500000000E-02 0. -1.
         -2   -1    0    0    0  501 -0.00000000000E+00 -0.00000000000E+00 -0.13836311707E+04  0.13836311707E+04  0.25500000000E-02 0.  1.
    8880023    1    1    2    0    0 -0.31779348824E+03 -0.42041853349E+03 -0.11012376902E+04  0.13871838743E+04  0.65864270000E+03 0.  1.
    8880022    1    1    2    0    0  0.31779348824E+03  0.42041853349E+03  0.40055819875E+03  0.67939897562E+03  0.15294330000E+03 0.  0.
<mgrwt>
<rscale>  0 0.75757119E+03</rscale>
<asrwt>0</asrwt>
<pdfrwt beam="1">  1        2 0.10506949E+00 0.84353699E+03</pdfrwt>
<pdfrwt beam="2">  1       -2 0.21286633E+00 0.84353699E+03</pdfrwt>
<totfact> 0.46911435E+00</totfact>
</mgrwt>
</event>
<event>
 4    2  0.3855935E-007  0.9554267E+03  0.7818608E-02  0.9442349E-01
          2   -1    0    0  501    0  0.00000000000E+00  0.00000000000E+00  0.51420835486E+03  0.51420835486E+03  0.25500000000E-02 0. -1.
         -2   -1    0    0    0  501 -0.00000000000E+00 -0.00000000000E+00 -0.13502356950E+04  0.13502356950E+04  0.25500000000E-02 0.  1.
    8880023    1    1    2    0    0 -0.94288535349E+02  0.68566733944E+03 -0.43186923955E+03  0.10484995349E+04  0.65864270000E+03 0. -1.
    8880022    1    1    2    0    0  0.94288535349E+02 -0.68566733944E+03 -0.40415810058E+03  0.81594451499E+03  0.15294330000E+03 0.  1.
<mgrwt>
<rscale>  0 0.88670996E+03</rscale>
<asrwt>0</asrwt>
<pdfrwt beam="1">  1        2 0.79108978E-01 0.95542673E+03</pdfrwt>
<pdfrwt beam="2">  1       -2 0.20772857E+00 0.95542673E+03</pdfrwt>
<totfact> 0.70560179E+00</totfact>
</mgrwt>
</event>
<event>
 4    2  0.3855935E-007  0.9452588E+03  0.7818608E-02  0.9456969E-01
         -2   -1    0    0    0  501 -0.00000000000E+00  0.00000000000E+00  0.16201619618E+04  0.16201619618E+04  0.25500000000E-02 0.  1.
          2   -1    0    0  501    0  0.00000000000E+00 -0.00000000000E+00 -0.85048612072E+03  0.85048612073E+03  0.25500000000E-02 0. -1.
    8880023    1    1    2    0    0  0.28096219154E+03 -0.61706101681E+03  0.12922447050E+04  0.16010654688E+04  0.65864270000E+03 0.  1.
    8880022    1    1    2    0    0 -0.28096219154E+03  0.61706101681E+03 -0.52256886392E+03  0.86958261372E+03  0.15294330000E+03 0.  0.
<mgrwt>
<rscale>  0 0.87532071E+03</rscale>
<asrwt>0</asrwt>
<pdfrwt beam="1">  1        2 0.13084402E+00 0.94525883E+03</pdfrwt>
<pdfrwt beam="2">  1       -2 0.24925568E+00 0.94525883E+03</pdfrwt>
<totfact> 0.20676188E+00</totfact>
</mgrwt>
</event>
<event>
 4    2  0.3855935E-007  0.9609972E+03  0.7818608E-02  0.9434465E-01
         -2   -1    0    0    0  501 -0.00000000000E+00  0.00000000000E+00  0.58166315776E+03  0.58166315777E+03  0.25500000000E-02 0.  1.
          2   -1    0    0  501    0  0.00000000000E+00 -0.00000000000E+00 -0.20112344478E+04  0.20112344478E+04  0.25500000000E-02 0. -1.
    8880023    1    1    2    0    0  0.58667351697E+03 -0.38147037810E+03  0.35968218977E+02  0.96167010140E+03  0.65864270000E+03 0.  1.
    8880022    1    1    2    0    0 -0.58667351697E+03  0.38147037810E+03 -0.14655395090E+04  0.16312275042E+04  0.15294330000E+03 0.  0.
<mgrwt>
<rscale>  0 0.89292822E+03</rscale>
<asrwt>0</asrwt>
<pdfrwt beam="1">  1        2 0.30942068E+00 0.96099723E+03</pdfrwt>
<pdfrwt beam="2">  1       -2 0.89486640E-01 0.96099723E+03</pdfrwt>
<totfact> 0.70960689E+00</totfact>
</mgrwt>
</event>
<event>
 4    2  0.3855935E-007  0.7147458E+03  0.7818608E-02  0.9940783E-01
         -2   -1    0    0    0  501 -0.00000000000E+00  0.00000000000E+00  0.14394473283E+03  0.14394473285E+03  0.25500000000E-02 0.  1.
          2   -1    0    0  501    0  0.00000000000E+00 -0.00000000000E+00 -0.31351472800E+04  0.31351472800E+04  0.25500000000E-02 0. -1.
    8880023    1    1    2    0    0 -0.25759241094E+03 -0.10342892326E+03 -0.83242667853E+03  0.10971762729E+04  0.65864270000E+03 0.  1.
    8880022    1    1    2    0    0  0.25759241094E+03  0.10342892326E+03 -0.21587758687E+04  0.21819157400E+04  0.15294330000E+03 0.  0.
<mgrwt>
<rscale>  0 0.58324860E+03</rscale>
<asrwt>0</asrwt>
<pdfrwt beam="1">  1        2 0.48233030E+00 0.71474583E+03</pdfrwt>
<pdfrwt beam="2">  1       -2 0.22145346E-01 0.71474583E+03</pdfrwt>
<totfact> 0.27201168E+01</totfact>
</mgrwt>
</event>
<event>
 4    2  0.3855935E-007  0.6736230E+03  0.7818608E-02  0.1013189E+00
         -2   -1    0    0    0  501 -0.00000000000E+00  0.00000000000E+00  0.20694757368E+03  0.20694757369E+03  0.25500000000E-02 0.  1.
          2   -1    0    0  501    0  0.00000000000E+00 -0.00000000000E+00 -0.97409613167E+03  0.97409613167E+03  0.25500000000E-02 0. -1.
    8880023    1    1    2    0    0  0.11309141235E+03  0.84664442877E+02 -0.48348809249E+03  0.82917349046E+03  0.65864270000E+03 0.  0.
    8880022    1    1    2    0    0 -0.11309141235E+03 -0.84664442877E+02 -0.28366046550E+03  0.35187021491E+03  0.15294330000E+03 0. -1.
<mgrwt>
<rscale>  0 0.50226805E+03</rscale>
<asrwt>0</asrwt>
<pdfrwt beam="1">  1        2 0.14986094E+00 0.67362300E+03</pdfrwt>
<pdfrwt beam="2">  1       -2 0.31838089E-01 0.67362300E+03</pdfrwt>
<totfact> 0.24326449E+02</totfact>
</mgrwt>
</event>
<event>
 4    2  0.3855935E-007  0.7759468E+03  0.7818608E-02  0.9765446E-01
          2   -1    0    0  501    0  0.00000000000E+00  0.00000000000E+00  0.67423668097E+03  0.67423668097E+03  0.25500000000E-02 0. -1.
         -2   -1    0    0    0  501 -0.00000000000E+00 -0.00000000000E+00 -0.56315529509E+03  0.56315529510E+03  0.25500000000E-02 0.  1.
    8880023    1    1    2    0    0 -0.14417294626E+03  0.38405381656E+03  0.17364091398E+03  0.79513806708E+03  0.65864270000E+03 0. -1.
    8880022    1    1    2    0    0  0.14417294626E+03 -0.38405381656E+03 -0.62559528101E+02  0.44225390899E+03  0.15294330000E+03 0.  1.
<mgrwt>
<rscale>  0 0.67250355E+03</rscale>
<asrwt>0</asrwt>
<pdfrwt beam="1">  1        2 0.10372872E+00 0.77594676E+03</pdfrwt>
<pdfrwt beam="2">  1       -2 0.86639277E-01 0.77594676E+03</pdfrwt>
<totfact> 0.50086084E+01</totfact>
</mgrwt>
</event>
<event>
 4    2  0.3855935E-007  0.7283855E+03  0.7818608E-02  0.9895171E-01
          2   -1    0    0  501    0  0.00000000000E+00  0.00000000000E+00  0.48448843730E+03  0.48448843731E+03  0.25500000000E-02 0. -1.
         -2   -1    0    0    0  501 -0.00000000000E+00 -0.00000000000E+00 -0.78320940408E+03  0.78320940408E+03  0.25500000000E-02 0.  1.
    8880023    1    1    2    0    0  0.84971027269E+02 -0.29919075818E+03  0.10466190097E+03  0.73586649946E+03  0.65864270000E+03 0. -1.
    8880022    1    1    2    0    0 -0.84971027269E+02  0.29919075818E+03 -0.40338286774E+03  0.53183134193E+03  0.15294330000E+03 0.  0.
<mgrwt>
<rscale>  0 0.60495903E+03</rscale>
<asrwt>0</asrwt>
<pdfrwt beam="1">  1        2 0.74536682E-01 0.72838547E+03</pdfrwt>
<pdfrwt beam="2">  1       -2 0.12049375E+00 0.72838547E+03</pdfrwt>
<totfact> 0.34033851E+01</totfact>
</mgrwt>
</event>
<event>
 4    2  0.3855935E-007  0.1021434E+04  0.7818608E-02  0.9354037E-01
          2   -1    0    0  501    0  0.00000000000E+00  0.00000000000E+00  0.65615795605E+03  0.65615795605E+03  0.25500000000E-02 0. -1.
         -2   -1    0    0    0  501 -0.00000000000E+00 -0.00000000000E+00 -0.19776550032E+04  0.19776550032E+04  0.25500000000E-02 0.  1.
    8880023    1    1    2    0    0 -0.77451017772E+03  0.98243751789E+02 -0.15035539213E+04  0.18176915169E+04  0.65864270000E+03 0.  0.
    8880022    1    1    2    0    0  0.77451017772E+03 -0.98243751789E+02  0.18205687417E+03  0.81612144231E+03  0.15294330000E+03 0.  0.
<mgrwt>
<rscale>  0 0.95956751E+03</rscale>
<asrwt>0</asrwt>
<pdfrwt beam="1">  1        2 0.10094738E+00 0.10214343E+04</pdfrwt>
<pdfrwt beam="2">  1       -2 0.30425461E+00 0.10214343E+04</pdfrwt>
<totfact> 0.13347679E+00</totfact>
</mgrwt>
</event>
<event>
 4    2  0.3855935E-007  0.1233785E+04  0.7818608E-02  0.9124961E-01
          2   -1    0    0  501    0  0.00000000000E+00  0.00000000000E+00  0.29077513002E+04  0.29077513002E+04  0.25500000000E-02 0. -1.
         -2   -1    0    0    0  501 -0.00000000000E+00 -0.00000000000E+00 -0.57994748736E+03  0.57994748737E+03  0.25500000000E-02 0.  1.
    8880023    1    1    2    0    0  0.13097579820E+03 -0.10350168374E+04  0.41175312660E+03  0.13006788062E+04  0.65864270000E+03 0.  0.
    8880022    1    1    2    0    0 -0.13097579820E+03  0.10350168374E+04  0.19160506862E+04  0.21870199813E+04  0.15294330000E+03 0.  0.
<mgrwt>
<rscale>  0 0.11862690E+04</rscale>
<asrwt>0</asrwt>
<pdfrwt beam="1">  1        2 0.44734635E+00 0.12337847E+04</pdfrwt>
<pdfrwt beam="2">  1       -2 0.89222692E-01 0.12337847E+04</pdfrwt>
<totfact> 0.21133645E+00</totfact>
</mgrwt>
</event>
<event>
 4    2  0.3855935E-007  0.1414549E+04  0.7818608E-02  0.8972460E-01
         -2   -1    0    0    0  501 -0.00000000000E+00  0.00000000000E+00  0.11888519049E+04  0.11888519049E+04  0.25500000000E-02 0.  1.
          2   -1    0    0  501    0  0.00000000000E+00 -0.00000000000E+00 -0.20659881194E+04  0.20659881194E+04  0.25500000000E-02 0. -1.
    8880023    1    1    2    0    0 -0.35422913311E+03 -0.12006912734E+04  0.38972438324E+03  0.14672535957E+04  0.65864270000E+03 0.  0.
    8880022    1    1    2    0    0  0.35422913311E+03  0.12006912734E+04 -0.12668605978E+04  0.17875864287E+04  0.15294330000E+03 0.  0.
<mgrwt>
<rscale>  0 0.13745361E+04</rscale>
<asrwt>0</asrwt>
<pdfrwt beam="1">  1        2 0.31784433E+00 0.14145487E+04</pdfrwt>
<pdfrwt beam="2">  1       -2 0.18290029E+00 0.14145487E+04</pdfrwt>
<totfact> 0.10086598E+00</totfact>
</mgrwt>
</event>
<event>
 4    2  0.3855935E-007  0.7264862E+03  0.7818608E-02  0.9901220E-01
         -2   -1    0    0    0  501 -0.00000000000E+00  0.00000000000E+00  0.71942073324E+03  0.71942073324E+03  0.25500000000E-02 0.  1.
          2   -1    0    0  501    0  0.00000000000E+00 -0.00000000000E+00 -0.10448818798E+04  0.10448818798E+04  0.25500000000E-02 0. -1.
    8880023    1    1    2    0    0 -0.25430174228E+03 -0.17118005179E+03  0.49237043883E+03  0.87761656865E+03  0.65864270000E+03 0.  1.
    8880022    1    1    2    0    0  0.25430174228E+03  0.17118005179E+03 -0.81783158542E+03  0.88668604443E+03  0.15294330000E+03 0.  0.
<mgrwt>
<rscale>  0 0.60202180E+03</rscale>
<asrwt>0</asrwt>
<pdfrwt beam="1">  1        2 0.16075106E+00 0.72648620E+03</pdfrwt>
<pdfrwt beam="2">  1       -2 0.11068011E+00 0.72648620E+03</pdfrwt>
<totfact> 0.15570049E+01</totfact>
</mgrwt>
</event>
<event>
 4    2  0.3855935E-007  0.9810531E+03  0.7818608E-02  0.9406777E-01
         -2   -1    0    0    0  501 -0.00000000000E+00  0.00000000000E+00  0.70404653356E+03  0.70404653356E+03  0.25500000000E-02 0.  1.
          2   -1    0    0  501    0  0.00000000000E+00 -0.00000000000E+00 -0.27174232318E+04  0.27174232318E+04  0.25500000000E-02 0. -1.
    8880023    1    1    2    0    0  0.56257497082E+03 -0.46061312410E+03  0.27223529886E+03  0.10181244089E+04  0.65864270000E+03 0.  0.
    8880022    1    1    2    0    0 -0.56257497082E+03  0.46061312410E+03 -0.22856119971E+04  0.24033453564E+04  0.15294330000E+03 0.  0.
<mgrwt>
<rscale>  0 0.91520077E+03</rscale>
<asrwt>0</asrwt>
<pdfrwt beam="1">  1        2 0.41806511E+00 0.98105314E+03</pdfrwt>
<pdfrwt beam="2">  1       -2 0.10831485E+00 0.98105314E+03</pdfrwt>
<totfact> 0.17954017E+00</totfact>
</mgrwt>
</event>
<event>
 4    2  0.3855935E-007  0.7549134E+03  0.7818608E-02  0.9818459E-01
         -2   -1    0    0    0  501 -0.00000000000E+00  0.00000000000E+00  0.13150838210E+03  0.13150838212E+03  0.25500000000E-02 0.  1.
          2   -1    0    0  501    0  0.00000000000E+00 -0.00000000000E+00 -0.31970984313E+04  0.31970984313E+04  0.25500000000E-02 0. -1.
    8880023    1    1    2    0    0  0.36674197674E+03  0.39803230970E+02 -0.26364520264E+04  0.27424028640E+04  0.65864270000E+03 0.  0.
    8880022    1    1    2    0    0 -0.36674197674E+03 -0.39803230970E+02 -0.42913802283E+03  0.58620394945E+03  0.15294330000E+03 0.  0.
<mgrwt>
<rscale>  0 0.64381282E+03</rscale>
<asrwt>0</asrwt>
<pdfrwt beam="1">  1        2 0.49186124E+00 0.75491336E+03</pdfrwt>
<pdfrwt beam="2">  1       -2 0.20232061E-01 0.75491336E+03</pdfrwt>
<totfact> 0.28958593E+01</totfact>
</mgrwt>
</event>
<event>
 4    2  0.3855935E-007  0.7099551E+03  0.7818608E-02  0.9958168E-01
          2   -1    0    0  501    0  0.00000000000E+00  0.00000000000E+00  0.25854393812E+03  0.25854393814E+03  0.25500000000E-02 0. -1.
         -2   -1    0    0    0  501 -0.00000000000E+00 -0.00000000000E+00 -0.12276156251E+04  0.12276156251E+04  0.25500000000E-02 0.  1.
    8880023    1    1    2    0    0  0.17352716674E+03 -0.20028566705E+03 -0.94117901240E+03  0.11789207631E+04  0.65864270000E+03 0.  1.
    8880022    1    1    2    0    0 -0.17352716674E+03  0.20028566705E+03 -0.27892674614E+02  0.30723880018E+03  0.15294330000E+03 0. -1.
<mgrwt>
<rscale>  0 0.57523181E+03</rscale>
<asrwt>0</asrwt>
<pdfrwt beam="1">  1        2 0.39775991E-01 0.70995509E+03</pdfrwt>
<pdfrwt beam="2">  1       -2 0.18886394E+00 0.70995509E+03</pdfrwt>
<totfact> 0.20827654E+01</totfact>
</mgrwt>
</event>
<event>
 4    2  0.3855935E-007  0.7096182E+03  0.7818608E-02  0.9959422E-01
         -2   -1    0    0    0  501 -0.00000000000E+00  0.00000000000E+00  0.36319550538E+03  0.36319550538E+03  0.25500000000E-02 0.  1.
          2   -1    0    0  501    0  0.00000000000E+00 -0.00000000000E+00 -0.13877732502E+04  0.13877732502E+04  0.25500000000E-02 0. -1.
    8880023    1    1    2    0    0 -0.22330538347E+03  0.14100514157E+03 -0.29596784664E+02  0.71023511611E+03  0.65864270000E+03 0.  1.
    8880022    1    1    2    0    0  0.22330538347E+03 -0.14100514157E+03 -0.99498096014E+03  0.10407336395E+04  0.15294330000E+03 0.  0.
<mgrwt>
<rscale>  0 0.57465902E+03</rscale>
<asrwt>0</asrwt>
<pdfrwt beam="1">  1        2 0.21350358E+00 0.70961817E+03</pdfrwt>
<pdfrwt beam="2">  1       -2 0.55876232E-01 0.70961817E+03</pdfrwt>
<totfact> 0.45336901E+01</totfact>
</mgrwt>
</event>
<event>
 4    2  0.3855935E-007  0.6826933E+03  0.7818608E-02  0.1007839E+00
          2   -1    0    0  501    0  0.00000000000E+00  0.00000000000E+00  0.90126530287E+03  0.90126530287E+03  0.25500000000E-02 0. -1.
         -2   -1    0    0    0  501 -0.00000000000E+00 -0.00000000000E+00 -0.64657764888E+03  0.64657764889E+03  0.25500000000E-02 0.  1.
    8880023    1    1    2    0    0 -0.14130942271E+02  0.17905388311E+03 -0.44133750867E+03  0.81292618325E+03  0.65864270000E+03 0.  1.
    8880022    1    1    2    0    0  0.14130942271E+02 -0.17905388311E+03  0.69602516265E+03  0.73491676852E+03  0.15294330000E+03 0.  0.
<mgrwt>
<rscale>  0 0.52342442E+03</rscale>
<asrwt>0</asrwt>
<pdfrwt beam="1">  1        2 0.13865620E+00 0.68269333E+03</pdfrwt>
<pdfrwt beam="2">  1       -2 0.99473484E-01 0.68269333E+03</pdfrwt>
<totfact> 0.25019822E+01</totfact>
</mgrwt>
</event>
<event>
 4    2  0.3855935E-007  0.8969497E+03  0.7818608E-02  0.9530946E-01
          2   -1    0    0  501    0  0.00000000000E+00  0.00000000000E+00  0.39365863571E+04  0.39365863571E+04  0.25500000000E-02 0. -1.
         -2   -1    0    0    0  501 -0.00000000000E+00 -0.00000000000E+00 -0.19951533635E+03  0.19951533637E+03  0.25500000000E-02 0.  1.
    8880023    1    1    2    0    0 -0.15942804672E+03  0.58761481484E+03  0.10703469053E+04  0.13964817137E+04  0.65864270000E+03 0.  1.
    8880022    1    1    2    0    0  0.15942804672E+03 -0.58761481484E+03  0.26667241155E+04  0.27396199798E+04  0.15294330000E+03 0.  0.
<mgrwt>
<rscale>  0 0.82040230E+03</rscale>
<asrwt>0</asrwt>
<pdfrwt beam="1">  1        2 0.60562863E+00 0.89694965E+03</pdfrwt>
<pdfrwt beam="2">  1       -2 0.30694669E-01 0.89694965E+03</pdfrwt>
<totfact> 0.40442074E+00</totfact>
</mgrwt>
</event>
<event>
 4    2  0.3855935E-007  0.7517607E+03  0.7818608E-02  0.9826925E-01
          2   -1    0    0  501    0  0.00000000000E+00  0.00000000000E+00  0.29129877659E+04  0.29129877659E+04  0.25500000000E-02 0. -1.
         -2   -1    0    0    0  501 -0.00000000000E+00 -0.00000000000E+00 -0.27074926630E+03  0.27074926631E+03  0.25500000000E-02 0.  1.
    8880023    1    1    2    0    0  0.34788424592E+03  0.10154040226E+03  0.30115616600E+03  0.80983896204E+03  0.65864270000E+03 0.  1.
    8880022    1    1    2    0    0 -0.34788424592E+03 -0.10154040226E+03  0.23410823336E+04  0.23738980701E+04  0.15294330000E+03 0.  0.
<mgrwt>
<rscale>  0 0.63937398E+03</rscale>
<asrwt>0</asrwt>
<pdfrwt beam="1">  1        2 0.44815195E+00 0.75176067E+03</pdfrwt>
<pdfrwt beam="2">  1       -2 0.41653735E-01 0.75176067E+03</pdfrwt>
<totfact> 0.11412923E+01</totfact>
</mgrwt>
</event>
<event>
 4    2  0.3855935E-007  0.6916998E+03  0.7818608E-02  0.1003355E+00
         -2   -1    0    0    0  501 -0.00000000000E+00  0.00000000000E+00  0.87757006323E+03  0.87757006323E+03  0.25500000000E-02 0.  1.
          2   -1    0    0  501    0  0.00000000000E+00 -0.00000000000E+00 -0.36578037963E+03  0.36578037964E+03  0.25500000000E-02 0. -1.
    8880023    1    1    2    0    0 -0.17282168571E+03 -0.12153605838E+03  0.64911939342E+03  0.94858027689E+03  0.65864270000E+03 0.  0.
    8880022    1    1    2    0    0  0.17282168571E+03  0.12153605838E+03 -0.13732970981E+03  0.29477016598E+03  0.15294330000E+03 0.  0.
<mgrwt>
<rscale>  0 0.54203306E+03</rscale>
<asrwt>0</asrwt>
<pdfrwt beam="1">  1        2 0.56273904E-01 0.69169976E+03</pdfrwt>
<pdfrwt beam="2">  1       -2 0.13501078E+00 0.69169976E+03</pdfrwt>
<totfact> 0.35239489E+01</totfact>
</mgrwt>
</event>
<event>
 4    2  0.3855935E-007  0.9985212E+03  0.7818608E-02  0.9383495E-01
          2   -1    0    0  501    0  0.00000000000E+00  0.00000000000E+00  0.21039759575E+04  0.21039759575E+04  0.25500000000E-02 0. -1.
         -2   -1    0    0    0  501 -0.00000000000E+00 -0.00000000000E+00 -0.62281358560E+03  0.62281358561E+03  0.25500000000E-02 0.  1.
    8880023    1    1    2    0    0 -0.74833057792E+03  0.56882893313E+02 -0.65713262166E+02  0.10006811463E+04  0.65864270000E+03 0.  0.
    8880022    1    1    2    0    0  0.74833057792E+03 -0.56882893313E+02  0.15468756340E+04  0.17261083968E+04  0.15294330000E+03 0.  0.
<mgrwt>
<rscale>  0 0.93446517E+03</rscale>
<asrwt>0</asrwt>
<pdfrwt beam="1">  1        2 0.32368861E+00 0.99852117E+03</pdfrwt>
<pdfrwt beam="2">  1       -2 0.95817475E-01 0.99852117E+03</pdfrwt>
<totfact> 0.53533366E+00</totfact>
</mgrwt>
</event>
<event>
 4    2  0.3855935E-007  0.7891085E+03  0.7818608E-02  0.9734860E-01
         -2   -1    0    0    0  501 -0.00000000000E+00  0.00000000000E+00  0.19310308829E+03  0.19310308831E+03  0.25500000000E-02 0.  1.
          2   -1    0    0  501    0  0.00000000000E+00 -0.00000000000E+00 -0.21288130989E+04  0.21288130989E+04  0.25500000000E-02 0. -1.
    8880023    1    1    2    0    0  0.41997704283E+03  0.11180895071E+03 -0.95847932611E+03  0.12415211568E+04  0.65864270000E+03 0.  0.
    8880022    1    1    2    0    0 -0.41997704283E+03 -0.11180895071E+03 -0.97723068447E+03  0.10803950304E+04  0.15294330000E+03 0.  0.
<mgrwt>
<rscale>  0 0.68978624E+03</rscale>
<asrwt>0</asrwt>
<pdfrwt beam="1">  1        2 0.32750969E+00 0.78910846E+03</pdfrwt>
<pdfrwt beam="2">  1       -2 0.29708169E-01 0.78910846E+03</pdfrwt>
<totfact> 0.60682207E+01</totfact>
</mgrwt>
</event>
<event>
 4    2  0.3855935E-007  0.8988320E+03  0.7818608E-02  0.9527909E-01
         -2   -1    0    0    0  501 -0.00000000000E+00  0.00000000000E+00  0.21092871006E+03  0.21092871008E+03  0.25500000000E-02 0.  1.
          2   -1    0    0  501    0  0.00000000000E+00 -0.00000000000E+00 -0.39412924317E+04  0.39412924317E+04  0.25500000000E-02 0. -1.
    8880023    1    1    2    0    0 -0.59738201755E+03 -0.13123839557E+03 -0.97685781882E+03  0.13274600543E+04  0.65864270000E+03 0.  1.
    8880022    1    1    2    0    0  0.59738201755E+03  0.13123839557E+03 -0.27535059028E+04  0.28247610874E+04  0.15294330000E+03 0. -1.
<mgrwt>
<rscale>  0 0.82257096E+03</rscale>
<asrwt>0</asrwt>
<pdfrwt beam="1">  1        2 0.60635263E+00 0.89883202E+03</pdfrwt>
<pdfrwt beam="2">  1       -2 0.32450574E-01 0.89883202E+03</pdfrwt>
<totfact> 0.36114871E+00</totfact>
</mgrwt>
</event>
<event>
 4    2  0.3855935E-007  0.7000047E+03  0.7818608E-02  0.9997182E-01
          2   -1    0    0  501    0  0.00000000000E+00  0.00000000000E+00  0.11419419395E+04  0.11419419395E+04  0.25500000000E-02 0. -1.
         -2   -1    0    0    0  501 -0.00000000000E+00 -0.00000000000E+00 -0.30577572031E+03  0.30577572032E+03  0.25500000000E-02 0.  1.
    8880023    1    1    2    0    0 -0.23392002029E+03  0.38441769344E+02  0.16430333301E+03  0.71902860654E+03  0.65864270000E+03 0.  1.
    8880022    1    1    2    0    0  0.23392002029E+03 -0.38441769344E+02  0.67186288619E+03  0.72868905329E+03  0.15294330000E+03 0.  0.
<mgrwt>
<rscale>  0 0.55773982E+03</rscale>
<asrwt>0</asrwt>
<pdfrwt beam="1">  1        2 0.17568337E+00 0.70000468E+03</pdfrwt>
<pdfrwt beam="2">  1       -2 0.47042419E-01 0.70000468E+03</pdfrwt>
<totfact> 0.89650836E+01</totfact>
</mgrwt>
</event>
<event>
 4    2  0.3855935E-007  0.1115662E+04  0.7818608E-02  0.9243815E-01
         -2   -1    0    0    0  501 -0.00000000000E+00  0.00000000000E+00  0.11184936811E+04  0.11184936811E+04  0.25500000000E-02 0.  1.
          2   -1    0    0  501    0  0.00000000000E+00 -0.00000000000E+00 -0.26198629071E+04  0.26198629071E+04  0.25500000000E-02 0. -1.
    8880023    1    1    2    0    0 -0.84738567679E+03  0.30467906503E+03  0.72593165704E+03  0.13310442498E+04  0.65864270000E+03 0.  0.
    8880022    1    1    2    0    0  0.84738567679E+03 -0.30467906503E+03 -0.22273008831E+04  0.24073123384E+04  0.15294330000E+03 0.  0.
<mgrwt>
<rscale>  0 0.10612403E+04</rscale>
<asrwt>0</asrwt>
<pdfrwt beam="1">  1        2 0.40305583E+00 0.11156621E+04</pdfrwt>
<pdfrwt beam="2">  1       -2 0.17207595E+00 0.11156621E+04</pdfrwt>
<totfact> 0.60411750E-01</totfact>
</mgrwt>
</event>
<event>
 4    2  0.3855935E-007  0.8543810E+03  0.7818608E-02  0.9603638E-01
          2   -1    0    0  501    0  0.00000000000E+00  0.00000000000E+00  0.38429371516E+04  0.38429371516E+04  0.25500000000E-02 0. -1.
         -2   -1    0    0    0  501 -0.00000000000E+00 -0.00000000000E+00 -0.16180485200E+03  0.16180485202E+03  0.25500000000E-02 0.  1.
    8880023    1    1    2    0    0 -0.33139006550E+03  0.43166812992E+03  0.12869855140E+04  0.15447649237E+04  0.65864270000E+03 0.  1.
    8880022    1    1    2    0    0  0.33139006550E+03 -0.43166812992E+03  0.23941467856E+04  0.24599770800E+04  0.15294330000E+03 0.  0.
<mgrwt>
<rscale>  0 0.77055880E+03</rscale>
<asrwt>0</asrwt>
<pdfrwt beam="1">  1        2 0.59122105E+00 0.85438104E+03</pdfrwt>
<pdfrwt beam="2">  1       -2 0.24893056E-01 0.85438104E+03</pdfrwt>
<totfact> 0.70610622E+00</totfact>
</mgrwt>
</event>
<event>
 4    2  0.3855935E-007  0.6761310E+03  0.7818608E-02  0.1011603E+00
         -2   -1    0    0    0  501 -0.00000000000E+00  0.00000000000E+00  0.29391793330E+03  0.29391793331E+03  0.25500000000E-02 0.  1.
          2   -1    0    0  501    0  0.00000000000E+00 -0.00000000000E+00 -0.71187539455E+03  0.71187539455E+03  0.25500000000E-02 0. -1.
    8880023    1    1    2    0    0 -0.14729242460E+03  0.40594082496E+02 -0.21558306174E+03  0.70966837371E+03  0.65864270000E+03 0.  1.
    8880022    1    1    2    0    0  0.14729242460E+03 -0.40594082496E+02 -0.20237439951E+03  0.29612495415E+03  0.15294330000E+03 0. -1.
<mgrwt>
<rscale>  0 0.50842623E+03</rscale>
<asrwt>0</asrwt>
<pdfrwt beam="1">  1        2 0.10951929E+00 0.67613101E+03</pdfrwt>
<pdfrwt beam="2">  1       -2 0.45218144E-01 0.67613101E+03</pdfrwt>
<totfact> 0.18854833E+02</totfact>
</mgrwt>
</event>
<event>
 4    2  0.3855935E-007  0.7197200E+03  0.7818608E-02  0.9923534E-01
         -2   -1    0    0    0  501 -0.00000000000E+00  0.00000000000E+00  0.14499523021E+03  0.14499523023E+03  0.25500000000E-02 0.  1.
          2   -1    0    0  501    0  0.00000000000E+00 -0.00000000000E+00 -0.22989589653E+04  0.22989589653E+04  0.25500000000E-02 0. -1.
    8880023    1    1    2    0    0  0.23398797286E+03 -0.17157019825E+03 -0.92523084961E+03  0.11721983773E+04  0.65864270000E+03 0.  0.
    8880022    1    1    2    0    0 -0.23398797286E+03  0.17157019825E+03 -0.12287328855E+04  0.12717558183E+04  0.15294330000E+03 0.  0.
<mgrwt>
<rscale>  0 0.59134142E+03</rscale>
<asrwt>0</asrwt>
<pdfrwt beam="1">  1        2 0.35368597E+00 0.71972002E+03</pdfrwt>
<pdfrwt beam="2">  1       -2 0.22306960E-01 0.71972002E+03</pdfrwt>
<totfact> 0.82847195E+01</totfact>
</mgrwt>
</event>
<event>
 4    2  0.3855935E-007  0.7232050E+03  0.7818608E-02  0.9911887E-01
         -2   -1    0    0    0  501 -0.00000000000E+00  0.00000000000E+00  0.81156896707E+03  0.81156896707E+03  0.25500000000E-02 0.  1.
          2   -1    0    0  501    0  0.00000000000E+00 -0.00000000000E+00 -0.67237708366E+03  0.67237708366E+03  0.25500000000E-02 0. -1.
    8880023    1    1    2    0    0 -0.14656341743E+03 -0.26025835374E+03  0.58203253452E+03  0.92832500964E+03  0.65864270000E+03 0.  0.
    8880022    1    1    2    0    0  0.14656341743E+03  0.26025835374E+03 -0.44284065111E+03  0.55562104110E+03  0.15294330000E+03 0.  0.
<mgrwt>
<rscale>  0 0.59688640E+03</rscale>
<asrwt>0</asrwt>
<pdfrwt beam="1">  1        2 0.10344263E+00 0.72320499E+03</pdfrwt>
<pdfrwt beam="2">  1       -2 0.12485676E+00 0.72320499E+03</pdfrwt>
<totfact> 0.21064257E+01</totfact>
</mgrwt>
</event>
<event>
 4    2  0.3855935E-007  0.7584380E+03  0.7818608E-02  0.9809168E-01
          2   -1    0    0  501    0  0.00000000000E+00  0.00000000000E+00  0.30922808434E+04  0.30922808434E+04  0.25500000000E-02 0. -1.
         -2   -1    0    0    0  501 -0.00000000000E+00 -0.00000000000E+00 -0.16713444031E+03  0.16713444033E+03  0.25500000000E-02 0.  1.
    8880023    1    1    2    0    0 -0.66162758889E+02  0.37018984797E+03  0.82604927523E+03  0.11214212614E+04  0.65864270000E+03 0.  1.
    8880022    1    1    2    0    0  0.66162758889E+02 -0.37018984797E+03  0.20990971279E+04  0.21379940223E+04  0.15294330000E+03 0.  0.
<mgrwt>
<rscale>  0 0.64872841E+03</rscale>
<asrwt>0</asrwt>
<pdfrwt beam="1">  1        2 0.47573548E+00 0.75843803E+03</pdfrwt>
<pdfrwt beam="2">  1       -2 0.25712993E-01 0.75843803E+03</pdfrwt>
<totfact> 0.21979113E+01</totfact>
</mgrwt>
</event>
<event>
 4    2  0.3855935E-007  0.7648184E+03  0.7818608E-02  0.9792789E-01
          2   -1    0    0  501    0  0.00000000000E+00  0.00000000000E+00  0.11371233492E+04  0.11371233492E+04  0.25500000000E-02 0. -1.
         -2   -1    0    0    0  501 -0.00000000000E+00 -0.00000000000E+00 -0.44031868712E+03  0.44031868713E+03  0.25500000000E-02 0.  1.
    8880023    1    1    2    0    0  0.38137449325E+03  0.75434747498E+02 -0.20943214531E+00  0.76481838063E+03  0.65864270000E+03 0.  0.
    8880022    1    1    2    0    0 -0.38137449325E+03 -0.75434747498E+02  0.69701409421E+03  0.81262365568E+03  0.15294330000E+03 0.  0.
<mgrwt>
<rscale>  0 0.65750951E+03</rscale>
<asrwt>0</asrwt>
<pdfrwt beam="1">  1        2 0.17494205E+00 0.76481835E+03</pdfrwt>
<pdfrwt beam="2">  1       -2 0.67741338E-01 0.76481835E+03</pdfrwt>
<totfact> 0.41931452E+01</totfact>
</mgrwt>
</event>
<event>
 4    2  0.3855935E-007  0.6936922E+03  0.7818608E-02  0.1002445E+00
         -2   -1    0    0    0  501 -0.00000000000E+00  0.00000000000E+00  0.55007634201E+03  0.55007634201E+03  0.25500000000E-02 0.  1.
          2   -1    0    0  501    0  0.00000000000E+00 -0.00000000000E+00 -0.98792504436E+03  0.98792504436E+03  0.25500000000E-02 0. -1.
    8880023    1    1    2    0    0 -0.21146711048E+03 -0.51771319973E+02  0.29840192871E+03  0.75515066424E+03  0.65864270000E+03 0.  1.
    8880022    1    1    2    0    0  0.21146711048E+03  0.51771319973E+02 -0.73625063106E+03  0.78285072213E+03  0.15294330000E+03 0.  0.
<mgrwt>
<rscale>  0 0.54591092E+03</rscale>
<asrwt>0</asrwt>
<pdfrwt beam="1">  1        2 0.15198847E+00 0.69369216E+03</pdfrwt>
<pdfrwt beam="2">  1       -2 0.84627130E-01 0.69369216E+03</pdfrwt>
<totfact> 0.31885201E+01</totfact>
</mgrwt>
</event>
<event>
 4    2  0.3855935E-007  0.9080119E+03  0.7818608E-02  0.9513290E-01
          2   -1    0    0  501    0  0.00000000000E+00  0.00000000000E+00  0.28982462366E+04  0.28982462366E+04  0.25500000000E-02 0. -1.
         -2   -1    0    0    0  501 -0.00000000000E+00 -0.00000000000E+00 -0.33385488028E+03  0.33385488029E+03  0.25500000000E-02 0.  1.
    8880023    1    1    2    0    0  0.47109848652E+03  0.41078179163E+03  0.43352636522E+03  0.10061961936E+04  0.65864270000E+03 0.  1.
    8880022    1    1    2    0    0 -0.47109848652E+03 -0.41078179163E+03  0.21308649911E+04  0.22259049233E+04  0.15294330000E+03 0.  0.
<mgrwt>
<rscale>  0 0.83311031E+03</rscale>
<asrwt>0</asrwt>
<pdfrwt beam="1">  1        2 0.44588405E+00 0.90801193E+03</pdfrwt>
<pdfrwt beam="2">  1       -2 0.51362288E-01 0.90801193E+03</pdfrwt>
<totfact> 0.74587667E+00</totfact>
</mgrwt>
</event>
<event>
 4    2  0.3855935E-007  0.7321172E+03  0.7818608E-02  0.9883534E-01
          2   -1    0    0  501    0  0.00000000000E+00  0.00000000000E+00  0.76078404536E+03  0.76078404536E+03  0.25500000000E-02 0. -1.
         -2   -1    0    0    0  501 -0.00000000000E+00 -0.00000000000E+00 -0.61246325666E+03  0.61246325667E+03  0.25500000000E-02 0.  1.
    8880023    1    1    2    0    0  0.27979786430E+03 -0.15459147649E+03 -0.30903643448E+03  0.79466917240E+03  0.65864270000E+03 0.  1.
    8880022    1    1    2    0    0 -0.27979786430E+03  0.15459147649E+03  0.45735722318E+03  0.57857812962E+03  0.15294330000E+03 0.  0.
<mgrwt>
<rscale>  0 0.61065965E+03</rscale>
<asrwt>0</asrwt>
<pdfrwt beam="1">  1        2 0.11704370E+00 0.73211719E+03</pdfrwt>
<pdfrwt beam="2">  1       -2 0.94225117E-01 0.73211719E+03</pdfrwt>
<totfact> 0.35501860E+01</totfact>
</mgrwt>
</event>
<event>
 4    2  0.3855935E-007  0.7648863E+03  0.7818608E-02  0.9792618E-01
         -2   -1    0    0    0  501 -0.00000000000E+00  0.00000000000E+00  0.66287852929E+03  0.66287852930E+03  0.25500000000E-02 0.  1.
          2   -1    0    0  501    0  0.00000000000E+00 -0.00000000000E+00 -0.13760124251E+04  0.13760124251E+04  0.25500000000E-02 0. -1.
    8880023    1    1    2    0    0  0.76872747917E+02  0.38122367626E+03  0.39049052711E+03  0.85879797900E+03  0.65864270000E+03 0.  0.
    8880022    1    1    2    0    0 -0.76872747917E+02 -0.38122367626E+03 -0.11036244229E+04  0.11800929754E+04  0.15294330000E+03 0.  0.
<mgrwt>
<rscale>  0 0.65760232E+03</rscale>
<asrwt>0</asrwt>
<pdfrwt beam="1">  1        2 0.21169422E+00 0.76488634E+03</pdfrwt>
<pdfrwt beam="2">  1       -2 0.10198131E+00 0.76488634E+03</pdfrwt>
<totfact> 0.12014831E+01</totfact>
</mgrwt>
</event>
<event>
 4    2  0.3855935E-007  0.8488613E+03  0.7818608E-02  0.9613693E-01
         -2   -1    0    0    0  501 -0.00000000000E+00  0.00000000000E+00  0.98701598268E+03  0.98701598268E+03  0.25500000000E-02 0.  1.
          2   -1    0    0  501    0  0.00000000000E+00 -0.00000000000E+00 -0.12488432491E+04  0.12488432491E+04  0.25500000000E-02 0. -1.
    8880023    1    1    2    0    0  0.53532488715E+03 -0.13509378457E+02  0.71603786562E+03  0.11105294545E+04  0.65864270000E+03 0.  0.
    8880022    1    1    2    0    0 -0.53532488715E+03  0.13509378457E+02 -0.97786513201E+03  0.11253297772E+04  0.15294330000E+03 0.  0.
<mgrwt>
<rscale>  0 0.76396501E+03</rscale>
<asrwt>0</asrwt>
<pdfrwt beam="1">  1        2 0.19212973E+00 0.84886126E+03</pdfrwt>
<pdfrwt beam="2">  1       -2 0.15184861E+00 0.84886126E+03</pdfrwt>
<totfact> 0.51830991E+00</totfact>
</mgrwt>
</event>
<event>
 4    2  0.3855935E-007  0.8668450E+03  0.7818608E-02  0.9581502E-01
         -2   -1    0    0    0  501 -0.00000000000E+00  0.00000000000E+00  0.39318807652E+03  0.39318807653E+03  0.25500000000E-02 0.  1.
          2   -1    0    0  501    0  0.00000000000E+00 -0.00000000000E+00 -0.17328869653E+04  0.17328869653E+04  0.25500000000E-02 0. -1.
    8880023    1    1    2    0    0 -0.31582857761E+03  0.46675733502E+03 -0.27096110588E+03  0.90820715005E+03  0.65864270000E+03 0.  0.
    8880022    1    1    2    0    0  0.31582857761E+03 -0.46675733502E+03 -0.10687377829E+04  0.12178678918E+04  0.15294330000E+03 0.  0.
<mgrwt>
<rscale>  0 0.78532726E+03</rscale>
<asrwt>0</asrwt>
<pdfrwt beam="1">  1        2 0.26659799E+00 0.86684503E+03</pdfrwt>
<pdfrwt beam="2">  1       -2 0.60490474E-01 0.86684503E+03</pdfrwt>
<totfact> 0.24269450E+01</totfact>
</mgrwt>
</event>
<event>
 4    2  0.3855935E-007  0.8210634E+03  0.7818608E-02  0.9666977E-01
         -2   -1    0    0    0  501 -0.00000000000E+00  0.00000000000E+00  0.64249646800E+03  0.64249646801E+03  0.25500000000E-02 0.  1.
          2   -1    0    0  501    0  0.00000000000E+00 -0.00000000000E+00 -0.95376753699E+03  0.95376753700E+03  0.25500000000E-02 0. -1.
    8880023    1    1    2    0    0  0.47520195790E+03  0.12049089597E+03  0.22745273958E+03  0.85198586362E+03  0.65864270000E+03 0.  1.
    8880022    1    1    2    0    0 -0.47520195790E+03 -0.12049089597E+03 -0.53872380857E+03  0.74427814138E+03  0.15294330000E+03 0.  0.
<mgrwt>
<rscale>  0 0.73017469E+03</rscale>
<asrwt>0</asrwt>
<pdfrwt beam="1">  1        2 0.14673347E+00 0.82106343E+03</pdfrwt>
<pdfrwt beam="2">  1       -2 0.98845610E-01 0.82106343E+03</pdfrwt>
<totfact> 0.23125528E+01</totfact>
</mgrwt>
</event>
<event>
 4    2  0.3855935E-007  0.8058253E+03  0.7818608E-02  0.9698339E-01
          2   -1    0    0  501    0  0.00000000000E+00  0.00000000000E+00  0.19179370506E+04  0.19179370506E+04  0.25500000000E-02 0. -1.
         -2   -1    0    0    0  501 -0.00000000000E+00 -0.00000000000E+00 -0.31883920450E+03  0.31883920451E+03  0.25500000000E-02 0.  1.
    8880023    1    1    2    0    0  0.13660291156E+03 -0.44371604160E+03  0.31925342201E+03  0.86676250193E+03  0.65864270000E+03 0.  0.
    8880022    1    1    2    0    0 -0.13660291156E+03  0.44371604160E+03  0.12798444241E+04  0.13700137532E+04  0.15294330000E+03 0.  0.
<mgrwt>
<rscale>  0 0.71115763E+03</rscale>
<asrwt>0</asrwt>
<pdfrwt beam="1">  1        2 0.29506723E+00 0.80582535E+03</pdfrwt>
<pdfrwt beam="2">  1       -2 0.49052186E-01 0.80582535E+03</pdfrwt>
<totfact> 0.29898004E+01</totfact>
</mgrwt>
</event>
<event>
 4    2  0.3855935E-007  0.7164438E+03  0.7818608E-02  0.9934808E-01
         -2   -1    0    0    0  501 -0.00000000000E+00  0.00000000000E+00  0.90045016898E+03  0.90045016898E+03  0.25500000000E-02 0.  1.
          2   -1    0    0  501    0  0.00000000000E+00 -0.00000000000E+00 -0.41184614123E+03  0.41184614124E+03  0.25500000000E-02 0. -1.
    8880023    1    1    2    0    0 -0.91442334505E+02 -0.26668299317E+03  0.63719872679E+03  0.95880860607E+03  0.65864270000E+03 0.  0.
    8880022    1    1    2    0    0  0.91442334505E+02  0.26668299317E+03 -0.14859469905E+03  0.35348770415E+03  0.15294330000E+03 0.  0.
<mgrwt>
<rscale>  0 0.58603609E+03</rscale>
<asrwt>0</asrwt>
<pdfrwt beam="1">  1        2 0.63360946E-01 0.71644380E+03</pdfrwt>
<pdfrwt beam="2">  1       -2 0.13853079E+00 0.71644380E+03</pdfrwt>
<totfact> 0.28821521E+01</totfact>
</mgrwt>
</event>
<event>
 4    2  0.3855935E-007  0.1158645E+04  0.7818608E-02  0.9198410E-01
          2   -1    0    0  501    0  0.00000000000E+00  0.00000000000E+00  0.21068522026E+04  0.21068522026E+04  0.25500000000E-02 0. -1.
         -2   -1    0    0    0  501 -0.00000000000E+00 -0.00000000000E+00 -0.68376140091E+03  0.68376140091E+03  0.25500000000E-02 0.  1.
    8880023    1    1    2    0    0 -0.93018346853E+03  0.20834283906E+03  0.11428992747E+03  0.11642681897E+04  0.65864270000E+03 0.  0.
    8880022    1    1    2    0    0  0.93018346853E+03 -0.20834283906E+03  0.13088008742E+04  0.16263454138E+04  0.15294330000E+03 0.  0.
<mgrwt>
<rscale>  0 0.11069859E+04</rscale>
<asrwt>0</asrwt>
<pdfrwt beam="1">  1        2 0.32413110E+00 0.11586450E+04</pdfrwt>
<pdfrwt beam="2">  1       -2 0.10519406E+00 0.11586450E+04</pdfrwt>
<totfact> 0.41909100E+00</totfact>
</mgrwt>
</event>
<event>
 4    2  0.3855935E-007  0.6588535E+03  0.7818608E-02  0.1025363E+00
         -2   -1    0    0    0  501 -0.00000000000E+00  0.00000000000E+00  0.35447217077E+03  0.35447217078E+03  0.25500000000E-02 0.  1.
          2   -1    0    0  501    0  0.00000000000E+00 -0.00000000000E+00 -0.17846079803E+04  0.17846079803E+04  0.25500000000E-02 0. -1.
    8880023    1    1    2    0    0  0.32746473840E+01  0.16338793411E+02  0.40804747158E+02  0.66011583312E+03  0.65864270000E+03 0.  1.
    8880022    1    1    2    0    0 -0.32746473840E+01 -0.16338793411E+02 -0.14709405567E+04  0.14789643179E+04  0.15294330000E+03 0.  0.
<mgrwt>
<rscale>  0 0.45799937E+03</rscale>
<asrwt>0</asrwt>
<pdfrwt beam="1">  1        2 0.27455507E+00 0.65885346E+03</pdfrwt>
<pdfrwt beam="2">  1       -2 0.54534181E-01 0.65885346E+03</pdfrwt>
<totfact> 0.28991897E+01</totfact>
</mgrwt>
</event>
<event>
 4    2  0.3855935E-007  0.6653964E+03  0.7818608E-02  0.1019203E+00
          2   -1    0    0  501    0  0.00000000000E+00  0.00000000000E+00  0.31833334886E+03  0.31833334887E+03  0.25500000000E-02 0. -1.
         -2   -1    0    0    0  501 -0.00000000000E+00 -0.00000000000E+00 -0.63007702247E+03  0.63007702247E+03  0.25500000000E-02 0.  1.
    8880023    1    1    2    0    0 -0.39273488561E+02 -0.86021570649E+02 -0.36751446269E+03  0.76014419953E+03  0.65864270000E+03 0.  1.
    8880022    1    1    2    0    0  0.39273488561E+02  0.86021570649E+02  0.55770789088E+02  0.18826617182E+03  0.15294330000E+03 0.  0.
<mgrwt>
<rscale>  0 0.47975263E+03</rscale>
<asrwt>0</asrwt>
<pdfrwt beam="1">  1        2 0.48974362E-01 0.66539637E+03</pdfrwt>
<pdfrwt beam="2">  1       -2 0.96934926E-01 0.66539637E+03</pdfrwt>
<totfact> 0.92640907E+01</totfact>
</mgrwt>
</event>
<event>
 4    2  0.3855935E-007  0.7940155E+03  0.7818608E-02  0.9723888E-01
         -2   -1    0    0    0  501 -0.00000000000E+00  0.00000000000E+00  0.39623657926E+03  0.39623657927E+03  0.25500000000E-02 0.  1.
          2   -1    0    0  501    0  0.00000000000E+00 -0.00000000000E+00 -0.24029746314E+04  0.24029746314E+04  0.25500000000E-02 0. -1.
    8880023    1    1    2    0    0 -0.33250083408E+03 -0.29341712297E+03 -0.59469764841E+02  0.79623945639E+03  0.65864270000E+03 0.  1.
    8880022    1    1    2    0    0  0.33250083408E+03  0.29341712297E+03 -0.19472682873E+04  0.20029717543E+04  0.15294330000E+03 0.  0.
<mgrwt>
<rscale>  0 0.69612135E+03</rscale>
<asrwt>0</asrwt>
<pdfrwt beam="1">  1        2 0.36968840E+00 0.79401550E+03</pdfrwt>
<pdfrwt beam="2">  1       -2 0.60959475E-01 0.79401550E+03</pdfrwt>
<totfact> 0.10298725E+01</totfact>
</mgrwt>
</event>
<event>
 4    2  0.3855935E-007  0.6812560E+03  0.7818608E-02  0.1008622E+00
          2   -1    0    0  501    0  0.00000000000E+00  0.00000000000E+00  0.12415423484E+04  0.12415423484E+04  0.25500000000E-02 0. -1.
         -2   -1    0    0    0  501 -0.00000000000E+00 -0.00000000000E+00 -0.58561649551E+03  0.58561649551E+03  0.25500000000E-02 0.  1.
    8880023    1    1    2    0    0 -0.69510041267E+02 -0.15958654535E+03 -0.37009850946E+03  0.77529518524E+03  0.65864270000E+03 0.  1.
    8880022    1    1    2    0    0  0.69510041267E+02  0.15958654535E+03  0.10260243624E+04  0.10518636587E+04  0.15294330000E+03 0.  0.
<mgrwt>
<rscale>  0 0.52026020E+03</rscale>
<asrwt>0</asrwt>
<pdfrwt beam="1">  1        2 0.19100652E+00 0.68125599E+03</pdfrwt>
<pdfrwt beam="2">  1       -2 0.90094845E-01 0.68125599E+03</pdfrwt>
<totfact> 0.19394913E+01</totfact>
</mgrwt>
</event>
<event>
 4    2  0.3855935E-007  0.9001322E+03  0.7818608E-02  0.9525819E-01
          2   -1    0    0  501    0  0.00000000000E+00  0.00000000000E+00  0.18442493343E+04  0.18442493343E+04  0.25500000000E-02 0. -1.
         -2   -1    0    0    0  501 -0.00000000000E+00 -0.00000000000E+00 -0.97034010121E+03  0.97034010122E+03  0.25500000000E-02 0.  1.
    8880023    1    1    2    0    0  0.57461565410E+03  0.21504549983E+03 -0.68577677895E+03  0.11316040446E+04  0.65864270000E+03 0.  1.
    8880022    1    1    2    0    0 -0.57461565410E+03 -0.21504549983E+03  0.15596860121E+04  0.16829853909E+04  0.15294330000E+03 0.  0.
<mgrwt>
<rscale>  0 0.82406732E+03</rscale>
<asrwt>0</asrwt>
<pdfrwt beam="1">  1        2 0.28373067E+00 0.90013217E+03</pdfrwt>
<pdfrwt beam="2">  1       -2 0.14928309E+00 0.90013217E+03</pdfrwt>
<totfact> 0.24981048E+00</totfact>
</mgrwt>
</event>
<event>
 4    2  0.3855935E-007  0.7644674E+03  0.7818608E-02  0.9793676E-01
         -2   -1    0    0    0  501 -0.00000000000E+00  0.00000000000E+00  0.34166523878E+03  0.34166523879E+03  0.25500000000E-02 0.  1.
          2   -1    0    0  501    0  0.00000000000E+00 -0.00000000000E+00 -0.28007573466E+04  0.28007573466E+04  0.25500000000E-02 0. -1.
    8880023    1    1    2    0    0 -0.36596102924E+03  0.12912278152E+03 -0.12898282967E+03  0.77527217430E+03  0.65864270000E+03 0.  0.
    8880022    1    1    2    0    0  0.36596102924E+03 -0.12912278152E+03 -0.23301092782E+04  0.23671504111E+04  0.15294330000E+03 0.  0.
<mgrwt>
<rscale>  0 0.65703019E+03</rscale>
<asrwt>0</asrwt>
<pdfrwt beam="1">  1        2 0.43088573E+00 0.76446738E+03</pdfrwt>
<pdfrwt beam="2">  1       -2 0.52563885E-01 0.76446738E+03</pdfrwt>
<totfact> 0.83244313E+00</totfact>
</mgrwt>
</event>
<event>
 4    2  0.3855935E-007  0.7981758E+03  0.7818608E-02  0.9714754E-01
          2   -1    0    0  501    0  0.00000000000E+00  0.00000000000E+00  0.11078126317E+04  0.11078126317E+04  0.25500000000E-02 0. -1.
         -2   -1    0    0    0  501 -0.00000000000E+00 -0.00000000000E+00 -0.36678196021E+03  0.36678196022E+03  0.25500000000E-02 0.  1.
    8880023    1    1    2    0    0 -0.30981150186E+03  0.32755345375E+03  0.48601923863E+03  0.93450486265E+03  0.65864270000E+03 0.  0.
    8880022    1    1    2    0    0  0.30981150186E+03 -0.32755345375E+03  0.25501143286E+03  0.54008972926E+03  0.15294330000E+03 0.  1.
<mgrwt>
<rscale>  0 0.70145085E+03</rscale>
<asrwt>0</asrwt>
<pdfrwt beam="1">  1        2 0.17043271E+00 0.79817582E+03</pdfrwt>
<pdfrwt beam="2">  1       -2 0.56427994E-01 0.79817582E+03</pdfrwt>
<totfact> 0.64251930E+01</totfact>
</mgrwt>
</event>
<event>
 4    2  0.3855935E-007  0.6676843E+03  0.7818608E-02  0.1017380E+00
         -2   -1    0    0    0  501 -0.00000000000E+00  0.00000000000E+00  0.30858505532E+03  0.30858505533E+03  0.25500000000E-02 0.  1.
          2   -1    0    0  501    0  0.00000000000E+00 -0.00000000000E+00 -0.16036976974E+04  0.16036976974E+04  0.25500000000E-02 0. -1.
    8880023    1    1    2    0    0 -0.60349885650E+02  0.91378222450E+02 -0.68340194911E+02  0.67117261322E+03  0.65864270000E+03 0.  1.
    8880022    1    1    2    0    0  0.60349885650E+02 -0.91378222450E+02 -0.12267724472E+04  0.12411101395E+04  0.15294330000E+03 0.  0.
<mgrwt>
<rscale>  0 0.48643950E+03</rscale>
<asrwt>0</asrwt>
<pdfrwt beam="1">  1        2 0.24672272E+00 0.66768428E+03</pdfrwt>
<pdfrwt beam="2">  1       -2 0.47474625E-01 0.66768428E+03</pdfrwt>
<totfact> 0.48218985E+01</totfact>
</mgrwt>
</event>
<event>
 4    2  0.3855935E-007  0.7369810E+03  0.7818608E-02  0.9868830E-01
          2   -1    0    0  501    0  0.00000000000E+00  0.00000000000E+00  0.39252477792E+03  0.39252477793E+03  0.25500000000E-02 0. -1.
         -2   -1    0    0    0  501 -0.00000000000E+00 -0.00000000000E+00 -0.10011461147E+04  0.10011461147E+04  0.25500000000E-02 0.  1.
    8880023    1    1    2    0    0  0.20464201199E+03  0.25971595971E+03 -0.70175404615E+03  0.10176441816E+04  0.65864270000E+03 0.  1.
    8880022    1    1    2    0    0 -0.20464201199E+03 -0.25971595971E+03  0.93132709407E+02  0.37602671099E+03  0.15294330000E+03 0.  0.
<mgrwt>
<rscale>  0 0.61795980E+03</rscale>
<asrwt>0</asrwt>
<pdfrwt beam="1">  1        2 0.60388428E-01 0.73698096E+03</pdfrwt>
<pdfrwt beam="2">  1       -2 0.15402248E+00 0.73698096E+03</pdfrwt>
<totfact> 0.23002224E+01</totfact>
</mgrwt>
</event>
<event>
 4    2  0.3855935E-007  0.6789729E+03  0.7818608E-02  0.1009911E+00
          2   -1    0    0  501    0  0.00000000000E+00  0.00000000000E+00  0.10657604898E+04  0.10657604898E+04  0.25500000000E-02 0. -1.
         -2   -1    0    0    0  501 -0.00000000000E+00 -0.00000000000E+00 -0.32281337641E+03  0.32281337642E+03  0.25500000000E-02 0.  1.
    8880023    1    1    2    0    0 -0.14317727143E+03  0.81818371605E+02  0.74196083415E+02  0.68301481832E+03  0.65864270000E+03 0.  1.
    8880022    1    1    2    0    0  0.14317727143E+03 -0.81818371605E+02  0.66875102998E+03  0.70555904792E+03  0.15294330000E+03 0.  0.
<mgrwt>
<rscale>  0 0.51510139E+03</rscale>
<asrwt>0</asrwt>
<pdfrwt beam="1">  1        2 0.16396315E+00 0.67897289E+03</pdfrwt>
<pdfrwt beam="2">  1       -2 0.49663596E-01 0.67897289E+03</pdfrwt>
<totfact> 0.89581081E+01</totfact>
</mgrwt>
</event>
<event>
 4    2  0.3855935E-007  0.9582772E+03  0.7818608E-02  0.9438304E-01
         -2   -1    0    0    0  501 -0.00000000000E+00  0.00000000000E+00  0.28032200820E+03  0.28032200821E+03  0.25500000000E-02 0.  1.
          2   -1    0    0  501    0  0.00000000000E+00 -0.00000000000E+00 -0.25174646684E+04  0.25174646684E+04  0.25500000000E-02 0. -1.
    8880023    1    1    2    0    0 -0.43105113068E+03 -0.54651620912E+03 -0.11366759742E+04  0.14867170278E+04  0.65864270000E+03 0. -1.
    8880022    1    1    2    0    0  0.43105113068E+03  0.54651620912E+03 -0.11004666861E+04  0.13110696489E+04  0.15294330000E+03 0.  1.
<mgrwt>
<rscale>  0 0.88989376E+03</rscale>
<asrwt>0</asrwt>
<pdfrwt beam="1">  1        2 0.38730224E+00 0.95827723E+03</pdfrwt>
<pdfrwt beam="2">  1       -2 0.43126465E-01 0.95827723E+03</pdfrwt>
<totfact> 0.17639619E+01</totfact>
</mgrwt>
</event>
<event>
 4    2  0.3855935E-007  0.7005432E+03  0.7818608E-02  0.9994955E-01
          2   -1    0    0  501    0  0.00000000000E+00  0.00000000000E+00  0.71071736316E+03  0.71071736316E+03  0.25500000000E-02 0. -1.
         -2   -1    0    0    0  501 -0.00000000000E+00 -0.00000000000E+00 -0.54773167480E+03  0.54773167481E+03  0.25500000000E-02 0.  1.
    8880023    1    1    2    0    0 -0.20964467261E+03 -0.11401632322E+03 -0.26172732140E+03  0.74783822298E+03  0.65864270000E+03 0.  1.
    8880022    1    1    2    0    0  0.20964467261E+03  0.11401632322E+03  0.42471300976E+03  0.51061081499E+03  0.15294330000E+03 0.  0.
<mgrwt>
<rscale>  0 0.55871999E+03</rscale>
<asrwt>0</asrwt>
<pdfrwt beam="1">  1        2 0.10934113E+00 0.70054323E+03</pdfrwt>
<pdfrwt beam="2">  1       -2 0.84266411E-01 0.70054323E+03</pdfrwt>
<totfact> 0.50224488E+01</totfact>
</mgrwt>
</event>
<event>
 4    2  0.3855935E-007  0.1024837E+04  0.7818608E-02  0.9349761E-01
         -2   -1    0    0    0  501 -0.00000000000E+00  0.00000000000E+00  0.97065443501E+03  0.97065443502E+03  0.25500000000E-02 0.  1.
          2   -1    0    0  501    0  0.00000000000E+00 -0.00000000000E+00 -0.14103787147E+04  0.14103787147E+04  0.25500000000E-02 0. -1.
    8880023    1    1    2    0    0  0.14285133054E+03 -0.77205878702E+03 -0.97820929486E+03  0.14167515322E+04  0.65864270000E+03 0. -1.
    8880022    1    1    2    0    0 -0.14285133054E+03  0.77205878702E+03  0.53848501518E+03  0.96428161749E+03  0.15294330000E+03 0.  1.
<mgrwt>
<rscale>  0 0.96328081E+03</rscale>
<asrwt>0</asrwt>
<pdfrwt beam="1">  1        2 0.21698134E+00 0.10248373E+04</pdfrwt>
<pdfrwt beam="2">  1       -2 0.14933145E+00 0.10248373E+04</pdfrwt>
<totfact> 0.42820732E+00</totfact>
</mgrwt>
</event>
<event>
 4    2  0.3855935E-007  0.9434381E+03  0.7818608E-02  0.9459619E-01
         -2   -1    0    0    0  501 -0.00000000000E+00  0.00000000000E+00  0.20840864341E+03  0.20840864342E+03  0.25500000000E-02 0.  1.
          2   -1    0    0  501    0  0.00000000000E+00 -0.00000000000E+00 -0.40117833054E+04  0.40117833054E+04  0.25500000000E-02 0. -1.
    8880023    1    1    2    0    0 -0.26761114734E+03  0.62020113626E+03 -0.12010472903E+04  0.15272818913E+04  0.65864270000E+03 0.  0.
    8880022    1    1    2    0    0  0.26761114734E+03 -0.62020113626E+03 -0.26023273717E+04  0.26929100576E+04  0.15294330000E+03 0.  0.
<mgrwt>
<rscale>  0 0.87327570E+03</rscale>
<asrwt>0</asrwt>
<pdfrwt beam="1">  1        2 0.61719737E+00 0.94343806E+03</pdfrwt>
<pdfrwt beam="2">  1       -2 0.32062871E-01 0.94343806E+03</pdfrwt>
<totfact> 0.32256059E+00</totfact>
</mgrwt>
</event>
<event>
 4    2  0.3855935E-007  0.7324751E+03  0.7818608E-02  0.9882435E-01
         -2   -1    0    0    0  501 -0.00000000000E+00  0.00000000000E+00  0.41369922842E+03  0.41369922843E+03  0.25500000000E-02 0.  1.
          2   -1    0    0  501    0  0.00000000000E+00 -0.00000000000E+00 -0.13337443737E+04  0.13337443738E+04  0.25500000000E-02 0. -1.
    8880023    1    1    2    0    0 -0.31059636754E+03  0.78990298043E+02  0.30114878826E+02  0.73309391138E+03  0.65864270000E+03 0.  0.
    8880022    1    1    2    0    0  0.31059636754E+03 -0.78990298043E+02 -0.95016002415E+03  0.10143496908E+04  0.15294330000E+03 0.  0.
<mgrwt>
<rscale>  0 0.61120171E+03</rscale>
<asrwt>0</asrwt>
<pdfrwt beam="1">  1        2 0.20519144E+00 0.73247510E+03</pdfrwt>
<pdfrwt beam="2">  1       -2 0.63646036E-01 0.73247510E+03</pdfrwt>
<totfact> 0.36888501E+01</totfact>
</mgrwt>
</event>
<event>
 4    2  0.3855935E-007  0.7659704E+03  0.7818608E-02  0.9789889E-01
         -2   -1    0    0    0  501 -0.00000000000E+00  0.00000000000E+00  0.60166318902E+03  0.60166318903E+03  0.25500000000E-02 0.  1.
          2   -1    0    0  501    0  0.00000000000E+00 -0.00000000000E+00 -0.15103108010E+04  0.15103108010E+04  0.25500000000E-02 0. -1.
    8880023    1    1    2    0    0 -0.38796516434E+03  0.48820290674E+02  0.30749826666E+03  0.82538826002E+03  0.65864270000E+03 0.  1.
    8880022    1    1    2    0    0  0.38796516434E+03 -0.48820290674E+02 -0.12161458787E+04  0.12865857300E+04  0.15294330000E+03 0.  0.
<mgrwt>
<rscale>  0 0.65907989E+03</rscale>
<asrwt>0</asrwt>
<pdfrwt beam="1">  1        2 0.23235551E+00 0.76597036E+03</pdfrwt>
<pdfrwt beam="2">  1       -2 0.92563568E-01 0.76597036E+03</pdfrwt>
<totfact> 0.12681595E+01</totfact>
</mgrwt>
</event>
<event>
 4    2  0.3855935E-007  0.7353363E+03  0.7818608E-02  0.9873746E-01
          2   -1    0    0  501    0  0.00000000000E+00  0.00000000000E+00  0.85256382449E+03  0.85256382449E+03  0.25500000000E-02 0. -1.
         -2   -1    0    0    0  501 -0.00000000000E+00 -0.00000000000E+00 -0.50214485526E+03  0.50214485527E+03  0.25500000000E-02 0.  1.
    8880023    1    1    2    0    0  0.26909100035E+03 -0.18574005477E+03 -0.13719184721E+03  0.74802482821E+03  0.65864270000E+03 0.  1.
    8880022    1    1    2    0    0 -0.26909100035E+03  0.18574005477E+03  0.48761081644E+03  0.60668385155E+03  0.15294330000E+03 0.  0.
<mgrwt>
<rscale>  0 0.61550699E+03</rscale>
<asrwt>0</asrwt>
<pdfrwt beam="1">  1        2 0.13116366E+00 0.73533635E+03</pdfrwt>
<pdfrwt beam="2">  1       -2 0.77253055E-01 0.73533635E+03</pdfrwt>
<totfact> 0.47979544E+01</totfact>
</mgrwt>
</event>
<event>
 4    2  0.3855935E-007  0.7880118E+03  0.7818608E-02  0.9737343E-01
         -2   -1    0    0    0  501 -0.00000000000E+00  0.00000000000E+00  0.35852603815E+03  0.35852603816E+03  0.25500000000E-02 0.  1.
          2   -1    0    0  501    0  0.00000000000E+00 -0.00000000000E+00 -0.15006046426E+04  0.15006046426E+04  0.25500000000E-02 0. -1.
    8880023    1    1    2    0    0  0.41027843701E+03  0.13720082865E+03 -0.20268291207E+03  0.81366026840E+03  0.65864270000E+03 0.  0.
    8880022    1    1    2    0    0 -0.41027843701E+03 -0.13720082865E+03 -0.93939569235E+03  0.10454704123E+04  0.15294330000E+03 0.  0.
<mgrwt>
<rscale>  0 0.68836289E+03</rscale>
<asrwt>0</asrwt>
<pdfrwt beam="1">  1        2 0.23086225E+00 0.78801185E+03</pdfrwt>
<pdfrwt beam="2">  1       -2 0.55157853E-01 0.78801185E+03</pdfrwt>
<totfact> 0.39920000E+01</totfact>
</mgrwt>
</event>
<event>
 4    2  0.3855935E-007  0.1269567E+04  0.7818608E-02  0.9092297E-01
          2   -1    0    0  501    0  0.00000000000E+00  0.00000000000E+00  0.14868104184E+04  0.14868104184E+04  0.25500000000E-02 0. -1.
         -2   -1    0    0    0  501 -0.00000000000E+00 -0.00000000000E+00 -0.18185453508E+04  0.18185453508E+04  0.25500000000E-02 0.  1.
    8880023    1    1    2    0    0  0.10832450781E+04 -0.67598273504E+02 -0.13186236209E+04  0.18304556497E+04  0.65864270000E+03 0.  0.
    8880022    1    1    2    0    0 -0.10832450781E+04  0.67598273504E+02  0.98688868852E+03  0.14749001195E+04  0.15294330000E+03 0.  0.
<mgrwt>
<rscale>  0 0.12237755E+04</rscale>
<asrwt>0</asrwt>
<pdfrwt beam="1">  1        2 0.22874006E+00 0.12695667E+04</pdfrwt>
<pdfrwt beam="2">  1       -2 0.27977621E+00 0.12695667E+04</pdfrwt>
<totfact> 0.52659617E-01</totfact>
</mgrwt>
</event>
<event>
 4    2  0.3855935E-007  0.7261702E+03  0.7818608E-02  0.9902235E-01
          2   -1    0    0  501    0  0.00000000000E+00  0.00000000000E+00  0.10547326601E+04  0.10547326601E+04  0.25500000000E-02 0. -1.
         -2   -1    0    0    0  501 -0.00000000000E+00 -0.00000000000E+00 -0.12702481546E+04  0.12702481546E+04  0.25500000000E-02 0.  1.
    8880023    1    1    2    0    0  0.20721924820E+03  0.22488476722E+03 -0.11330668831E+04  0.13457948370E+04  0.65864270000E+03 0.  1.
    8880022    1    1    2    0    0 -0.20721924820E+03 -0.22488476722E+03  0.91755138857E+03  0.97918597776E+03  0.15294330000E+03 0.  0.
<mgrwt>
<rscale>  0 0.60153069E+03</rscale>
<asrwt>0</asrwt>
<pdfrwt beam="1">  1        2 0.16226656E+00 0.72617022E+03</pdfrwt>
<pdfrwt beam="2">  1       -2 0.19542279E+00 0.72617022E+03</pdfrwt>
<totfact> 0.34075305E+00</totfact>
</mgrwt>
</event>
<event>
 4    2  0.3855935E-007  0.7018407E+03  0.7818608E-02  0.9989649E-01
          2   -1    0    0  501    0  0.00000000000E+00  0.00000000000E+00  0.26417932835E+03  0.26417932836E+03  0.25500000000E-02 0. -1.
         -2   -1    0    0    0  501 -0.00000000000E+00 -0.00000000000E+00 -0.92810930618E+03  0.92810930619E+03  0.25500000000E-02 0.  1.
    8880023    1    1    2    0    0 -0.23496255302E+03  0.59689101210E+02 -0.43783374025E+03  0.82721144847E+03  0.65864270000E+03 0.  1.
    8880022    1    1    2    0    0  0.23496255302E+03 -0.59689101210E+02 -0.22609623759E+03  0.36507718607E+03  0.15294330000E+03 0.  1.
<mgrwt>
<rscale>  0 0.56106437E+03</rscale>
<asrwt>0</asrwt>
<pdfrwt beam="1">  1        2 0.40642974E-01 0.70184072E+03</pdfrwt>
<pdfrwt beam="2">  1       -2 0.14278605E+00 0.70184072E+03</pdfrwt>
<totfact> 0.43766208E+01</totfact>
</mgrwt>
</event>
<event>
 4    2  0.3855935E-007  0.9088470E+03  0.7818608E-02  0.9511976E-01
          2   -1    0    0  501    0  0.00000000000E+00  0.00000000000E+00  0.10872744982E+04  0.10872744982E+04  0.25500000000E-02 0. -1.
         -2   -1    0    0    0  501 -0.00000000000E+00 -0.00000000000E+00 -0.10870242591E+04  0.10870242591E+04  0.25500000000E-02 0.  1.
    8880023    1    1    2    0    0 -0.50794036978E+03 -0.36631838103E+03 -0.75485259608E+03  0.11814420103E+04  0.65864270000E+03 0.  1.
    8880022    1    1    2    0    0  0.50794036978E+03  0.36631838103E+03  0.75510283512E+03  0.99285674704E+03  0.15294330000E+03 0.  0.
<mgrwt>
<rscale>  0 0.83406606E+03</rscale>
<asrwt>0</asrwt>
<pdfrwt beam="1">  1        2 0.16727300E+00 0.90884695E+03</pdfrwt>
<pdfrwt beam="2">  1       -2 0.16723450E+00 0.90884695E+03</pdfrwt>
<totfact> 0.49535486E+00</totfact>
</mgrwt>
</event>
<event>
 4    2  0.3855935E-007  0.1208853E+04  0.7818608E-02  0.9148564E-01
          2   -1    0    0  501    0  0.00000000000E+00  0.00000000000E+00  0.11594217957E+04  0.11594217957E+04  0.25500000000E-02 0. -1.
         -2   -1    0    0    0  501 -0.00000000000E+00 -0.00000000000E+00 -0.12534113635E+04  0.12534113635E+04  0.25500000000E-02 0.  1.
    8880023    1    1    2    0    0  0.10067078662E+04  0.11855283213E+03  0.40209289557E+03  0.12739719011E+04  0.65864270000E+03 0.  0.
    8880022    1    1    2    0    0 -0.10067078662E+04 -0.11855283213E+03 -0.49608246335E+03  0.11388612581E+04  0.15294330000E+03 0.  0.
<mgrwt>
<rscale>  0 0.11600472E+04</rscale>
<asrwt>0</asrwt>
<pdfrwt beam="1">  1        2 0.17837258E+00 0.12088531E+04</pdfrwt>
<pdfrwt beam="2">  1       -2 0.19283252E+00 0.12088531E+04</pdfrwt>
<totfact> 0.28854566E+00</totfact>
</mgrwt>
</event>
<event>
 4    2  0.3855935E-007  0.6595419E+03  0.7818608E-02  0.1024631E+00
          2   -1    0    0  501    0  0.00000000000E+00  0.00000000000E+00  0.57379742166E+03  0.57379742166E+03  0.25500000000E-02 0. -1.
         -2   -1    0    0    0  501 -0.00000000000E+00 -0.00000000000E+00 -0.14161470899E+04  0.14161470899E+04  0.25500000000E-02 0.  1.
    8880023    1    1    2    0    0 -0.25267265958E+02 -0.23384290913E+02 -0.13262984490E+04  0.14812369972E+04  0.65864270000E+03 0.  1.
    8880022    1    1    2    0    0  0.25267265958E+02  0.23384290913E+02  0.48394878074E+03  0.50870751438E+03  0.15294330000E+03 0.  0.
<mgrwt>
<rscale>  0 0.46051915E+03</rscale>
<asrwt>0</asrwt>
<pdfrwt beam="1">  1        2 0.88276527E-01 0.65954186E+03</pdfrwt>
<pdfrwt beam="2">  1       -2 0.21786878E+00 0.65954186E+03</pdfrwt>
<totfact> 0.55259949E+00</totfact>
</mgrwt>
</event>
<event>
 4    2  0.3855935E-007  0.7032514E+03  0.7818608E-02  0.9983971E-01
          2   -1    0    0  501    0  0.00000000000E+00  0.00000000000E+00  0.35021666472E+04  0.35021666472E+04  0.25500000000E-02 0. -1.
         -2   -1    0    0    0  501 -0.00000000000E+00 -0.00000000000E+00 -0.43211006941E+03  0.43211006942E+03  0.25500000000E-02 0.  1.
    8880023    1    1    2    0    0  0.22062825714E+03  0.10988844852E+03 -0.13502392065E+03  0.71609633736E+03  0.65864270000E+03 0.  1.
    8880022    1    1    2    0    0 -0.22062825714E+03 -0.10988844852E+03  0.32050804984E+04  0.32181803792E+04  0.15294330000E+03 0.  0.
<mgrwt>
<rscale>  0 0.56358679E+03</rscale>
<asrwt>0</asrwt>
<pdfrwt beam="1">  1        2 0.53879488E+00 0.70325138E+03</pdfrwt>
<pdfrwt beam="2">  1       -2 0.66478471E-01 0.70325138E+03</pdfrwt>
<totfact> 0.18527232E+00</totfact>
</mgrwt>
</event>
<event>
 4    2  0.3855935E-007  0.7111129E+03  0.7818608E-02  0.9953891E-01
         -2   -1    0    0    0  501 -0.00000000000E+00  0.00000000000E+00  0.12107741032E+04  0.12107741032E+04  0.25500000000E-02 0.  1.
          2   -1    0    0  501    0  0.00000000000E+00 -0.00000000000E+00 -0.12090379715E+04  0.12090379715E+04  0.25500000000E-02 0. -1.
    8880023    1    1    2    0    0  0.15925498272E+03  0.21565987048E+03  0.10828678631E+04  0.12954861421E+04  0.65864270000E+03 0.  1.
    8880022    1    1    2    0    0 -0.15925498272E+03 -0.21565987048E+03 -0.10811317314E+04  0.11243259326E+04  0.15294330000E+03 0.  0.
<mgrwt>
<rscale>  0 0.57719084E+03</rscale>
<asrwt>0</asrwt>
<pdfrwt beam="1">  1        2 0.18600584E+00 0.71111289E+03</pdfrwt>
<pdfrwt beam="2">  1       -2 0.18627294E+00 0.71111289E+03</pdfrwt>
<totfact> 0.31694153E+00</totfact>
</mgrwt>
</event>
<event>
 4    2  0.3855935E-007  0.6586756E+03  0.7818608E-02  0.1025556E+00
          2   -1    0    0  501    0  0.00000000000E+00  0.00000000000E+00  0.85499186454E+03  0.85499186454E+03  0.25500000000E-02 0. -1.
         -2   -1    0    0    0  501 -0.00000000000E+00 -0.00000000000E+00 -0.21330297557E+03  0.21330297558E+03  0.25500000000E-02 0.  1.
    8880023    1    1    2    0    0  0.76497749710E+00 -0.65425894190E+01  0.36748934385E+03  0.75425593453E+03  0.65864270000E+03 0.  1.
    8880022    1    1    2    0    0 -0.76497749710E+00  0.65425894190E+01  0.27419954512E+03  0.31403890559E+03  0.15294330000E+03 0.  0.
<mgrwt>
<rscale>  0 0.45733761E+03</rscale>
<asrwt>0</asrwt>
<pdfrwt beam="1">  1        2 0.13153721E+00 0.65867564E+03</pdfrwt>
<pdfrwt beam="2">  1       -2 0.32815842E-01 0.65867564E+03</pdfrwt>
<totfact> 0.27608127E+02</totfact>
</mgrwt>
</event>
<event>
 4    2  0.3855935E-007  0.7453659E+03  0.7818608E-02  0.9844584E-01
          2   -1    0    0  501    0  0.00000000000E+00  0.00000000000E+00  0.12765331373E+04  0.12765331373E+04  0.25500000000E-02 0. -1.
         -2   -1    0    0    0  501 -0.00000000000E+00 -0.00000000000E+00 -0.40032287758E+03  0.40032287759E+03  0.25500000000E-02 0.  1.
    8880023    1    1    2    0    0 -0.23397932303E+03 -0.25887011664E+03  0.26721980833E+02  0.74584470999E+03  0.65864270000E+03 0.  1.
    8880022    1    1    2    0    0  0.23397932303E+03  0.25887011664E+03  0.84948827888E+03  0.93101130490E+03  0.15294330000E+03 0.  0.
<mgrwt>
<rscale>  0 0.63023845E+03</rscale>
<asrwt>0</asrwt>
<pdfrwt beam="1">  1        2 0.19638971E+00 0.74536586E+03</pdfrwt>
<pdfrwt beam="2">  1       -2 0.61588135E-01 0.74536586E+03</pdfrwt>
<totfact> 0.42625038E+01</totfact>
</mgrwt>
</event>
<event>
 4    2  0.3855935E-007  0.7167409E+03  0.7818608E-02  0.9933772E-01
          2   -1    0    0  501    0  0.00000000000E+00  0.00000000000E+00  0.41568948069E+03  0.41568948070E+03  0.25500000000E-02 0. -1.
         -2   -1    0    0    0  501 -0.00000000000E+00 -0.00000000000E+00 -0.16445748243E+04  0.16445748243E+04  0.25500000000E-02 0.  1.
    8880023    1    1    2    0    0  0.12770526531E+03  0.25218788016E+03 -0.14852466172E+04  0.16491437420E+04  0.65864270000E+03 0.  1.
    8880022    1    1    2    0    0 -0.12770526531E+03 -0.25218788016E+03  0.25636127359E+03  0.41112056298E+03  0.15294330000E+03 0.  0.
<mgrwt>
<rscale>  0 0.58652115E+03</rscale>
<asrwt>0</asrwt>
<pdfrwt beam="1">  1        2 0.63952229E-01 0.71674094E+03</pdfrwt>
<pdfrwt beam="2">  1       -2 0.25301151E+00 0.71674094E+03</pdfrwt>
<totfact> 0.48456379E+00</totfact>
</mgrwt>
</event>
<event>
 4    2  0.3855935E-007  0.6952506E+03  0.7818608E-02  0.1001750E+00
         -2   -1    0    0    0  501 -0.00000000000E+00  0.00000000000E+00  0.70491908713E+03  0.70491908714E+03  0.25500000000E-02 0.  1.
          2   -1    0    0  501    0  0.00000000000E+00 -0.00000000000E+00 -0.21392383907E+04  0.21392383907E+04  0.25500000000E-02 0. -1.
    8880023    1    1    2    0    0 -0.20934879599E+03  0.75738062270E+02  0.52192436759E+03  0.86935517725E+03  0.65864270000E+03 0.  1.
    8880022    1    1    2    0    0  0.20934879599E+03 -0.75738062270E+02 -0.19562436712E+04  0.19748023006E+04  0.15294330000E+03 0.  0.
<mgrwt>
<rscale>  0 0.54889311E+03</rscale>
<asrwt>0</asrwt>
<pdfrwt beam="1">  1        2 0.32911359E+00 0.69525059E+03</pdfrwt>
<pdfrwt beam="2">  1       -2 0.10844909E+00 0.69525059E+03</pdfrwt>
<totfact> 0.39892739E+00</totfact>
</mgrwt>
</event>
<event>
 4    2  0.3855935E-007  0.8032016E+03  0.7818608E-02  0.9703916E-01
         -2   -1    0    0    0  501 -0.00000000000E+00  0.00000000000E+00  0.13920464766E+04  0.13920464766E+04  0.25500000000E-02 0.  1.
          2   -1    0    0  501    0  0.00000000000E+00 -0.00000000000E+00 -0.61687938012E+03  0.61687938013E+03  0.25500000000E-02 0. -1.
    8880023    1    1    2    0    0 -0.42350974693E+03 -0.17877962746E+03  0.11455599388E+04  0.13990855730E+04  0.65864270000E+03 0.  1.
    8880022    1    1    2    0    0  0.42350974693E+03  0.17877962746E+03 -0.37039284236E+03  0.60984028370E+03  0.15294330000E+03 0.  0.
<mgrwt>
<rscale>  0 0.70784128E+03</rscale>
<asrwt>0</asrwt>
<pdfrwt beam="1">  1        2 0.94904520E-01 0.80320164E+03</pdfrwt>
<pdfrwt beam="2">  1       -2 0.21416100E+00 0.80320164E+03</pdfrwt>
<totfact> 0.52458020E+00</totfact>
</mgrwt>
</event>
<event>
 4    2  0.3855935E-007  0.8170515E+03  0.7818608E-02  0.9675072E-01
         -2   -1    0    0    0  501 -0.00000000000E+00  0.00000000000E+00  0.10020652394E+04  0.10020652394E+04  0.25500000000E-02 0.  1.
          2   -1    0    0  501    0  0.00000000000E+00 -0.00000000000E+00 -0.44300218730E+03  0.44300218730E+03  0.25500000000E-02 0. -1.
    8880023    1    1    2    0    0 -0.44570310399E+02 -0.48143170196E+03  0.26542601475E+03  0.85908333227E+03  0.65864270000E+03 0.  0.
    8880022    1    1    2    0    0  0.44570310399E+02  0.48143170196E+03  0.29363703738E+03  0.58598409446E+03  0.15294330000E+03 0.  0.
<mgrwt>
<rscale>  0 0.72520599E+03</rscale>
<asrwt>0</asrwt>
<pdfrwt beam="1">  1        2 0.68154184E-01 0.81705153E+03</pdfrwt>
<pdfrwt beam="2">  1       -2 0.15416388E+00 0.81705153E+03</pdfrwt>
<totfact> 0.19880020E+01</totfact>
</mgrwt>
</event>
<event>
 4    2  0.3855935E-007  0.9128063E+03  0.7818608E-02  0.9505778E-01
          2   -1    0    0  501    0  0.00000000000E+00  0.00000000000E+00  0.38006460758E+04  0.38006460758E+04  0.25500000000E-02 0. -1.
         -2   -1    0    0    0  501 -0.00000000000E+00 -0.00000000000E+00 -0.35269183660E+03  0.35269183661E+03  0.25500000000E-02 0.  1.
    8880023    1    1    2    0    0 -0.16564606875E+03 -0.60989054450E+03  0.33364265164E+03  0.97187073297E+03  0.65864270000E+03 0.  0.
    8880022    1    1    2    0    0  0.16564606875E+03  0.60989054450E+03  0.31143115876E+04  0.31814671795E+04  0.15294330000E+03 0.  0.
<mgrwt>
<rscale>  0 0.83859143E+03</rscale>
<asrwt>0</asrwt>
<pdfrwt beam="1">  1        2 0.58471475E+00 0.91280628E+03</pdfrwt>
<pdfrwt beam="2">  1       -2 0.54260286E-01 0.91280628E+03</pdfrwt>
<totfact> 0.16688920E+00</totfact>
</mgrwt>
</event>
<event>
 4    2  0.3855935E-007  0.8344503E+03  0.7818608E-02  0.9640735E-01
          2   -1    0    0  501    0  0.00000000000E+00  0.00000000000E+00  0.31314996885E+04  0.31314996885E+04  0.25500000000E-02 0. -1.
         -2   -1    0    0    0  501 -0.00000000000E+00 -0.00000000000E+00 -0.41981360742E+03  0.41981360743E+03  0.25500000000E-02 0.  1.
    8880023    1    1    2    0    0  0.33013690956E+03 -0.39179925795E+03  0.49449476480E+02  0.83591416699E+03  0.65864270000E+03 0.  1.
    8880022    1    1    2    0    0 -0.33013690956E+03  0.39179925795E+03  0.26622366046E+04  0.27153991289E+04  0.15294330000E+03 0.  0.
<mgrwt>
<rscale>  0 0.74657762E+03</rscale>
<asrwt>0</asrwt>
<pdfrwt beam="1">  1        2 0.48176919E+00 0.83445026E+03</pdfrwt>
<pdfrwt beam="2">  1       -2 0.64586707E-01 0.83445026E+03</pdfrwt>
<totfact> 0.33518809E+00</totfact>
</mgrwt>
</event>
<event>
 4    2  0.3855935E-007  0.8206003E+03  0.7818608E-02  0.9667906E-01
          2   -1    0    0  501    0  0.00000000000E+00  0.00000000000E+00  0.15427011985E+04  0.15427011985E+04  0.25500000000E-02 0. -1.
         -2   -1    0    0    0  501 -0.00000000000E+00 -0.00000000000E+00 -0.51896616940E+03  0.51896616941E+03  0.25500000000E-02 0.  1.
    8880023    1    1    2    0    0  0.45350060450E+03 -0.18415170690E+03 -0.99791589546E+02  0.82664576273E+03  0.65864270000E+03 0.  0.
    8880022    1    1    2    0    0 -0.45350060450E+03  0.18415170690E+03  0.11235266186E+04  0.12350216051E+04  0.15294330000E+03 0.  0.
<mgrwt>
<rscale>  0 0.72960242E+03</rscale>
<asrwt>0</asrwt>
<pdfrwt beam="1">  1        2 0.23733864E+00 0.82060030E+03</pdfrwt>
<pdfrwt beam="2">  1       -2 0.79840951E-01 0.82060030E+03</pdfrwt>
<totfact> 0.16945360E+01</totfact>
</mgrwt>
</event>
<event>
 4    2  0.3855935E-007  0.9730415E+03  0.7818608E-02  0.9417710E-01
          2   -1    0    0  501    0  0.00000000000E+00  0.00000000000E+00  0.19598775688E+04  0.19598775689E+04  0.25500000000E-02 0. -1.
         -2   -1    0    0    0  501 -0.00000000000E+00 -0.00000000000E+00 -0.66012921670E+03  0.66012921671E+03  0.25500000000E-02 0.  1.
    8880023    1    1    2    0    0 -0.68462538477E+03 -0.21044647172E+03 -0.16068587535E+03  0.98621995099E+03  0.65864270000E+03 0.  1.
    8880022    1    1    2    0    0  0.68462538477E+03  0.21044647172E+03  0.14604342275E+04  0.16337868346E+04  0.15294330000E+03 0.  0.
<mgrwt>
<rscale>  0 0.90632456E+03</rscale>
<asrwt>0</asrwt>
<pdfrwt beam="1">  1        2 0.30151962E+00 0.97304154E+03</pdfrwt>
<pdfrwt beam="2">  1       -2 0.10155834E+00 0.97304154E+03</pdfrwt>
<totfact> 0.56173204E+00</totfact>
</mgrwt>
</event>
<event>
 4    2  0.3855935E-007  0.6977602E+03  0.7818608E-02  0.1000662E+00
         -2   -1    0    0    0  501 -0.00000000000E+00  0.00000000000E+00  0.71802849749E+03  0.71802849750E+03  0.25500000000E-02 0.  1.
          2   -1    0    0  501    0  0.00000000000E+00 -0.00000000000E+00 -0.15708031108E+04  0.15708031108E+04  0.25500000000E-02 0. -1.
    8880023    1    1    2    0    0 -0.13761683179E+03 -0.18471802689E+03  0.53155069565E+03  0.87716332011E+03  0.65864270000E+03 0.  1.
    8880022    1    1    2    0    0  0.13761683179E+03  0.18471802689E+03 -0.13843253089E+04  0.14116682882E+04  0.15294330000E+03 0.  0.
<mgrwt>
<rscale>  0 0.55360807E+03</rscale>
<asrwt>0</asrwt>
<pdfrwt beam="1">  1        2 0.24166202E+00 0.69776024E+03</pdfrwt>
<pdfrwt beam="2">  1       -2 0.11046592E+00 0.69776024E+03</pdfrwt>
<totfact> 0.77890208E+00</totfact>
</mgrwt>
</event>
<event>
 4    2  0.3855935E-007  0.7014475E+03  0.7818608E-02  0.9991249E-01
          2   -1    0    0  501    0  0.00000000000E+00  0.00000000000E+00  0.16416370957E+04  0.16416370957E+04  0.25500000000E-02 0. -1.
         -2   -1    0    0    0  501 -0.00000000000E+00 -0.00000000000E+00 -0.21541142529E+03  0.21541142531E+03  0.25500000000E-02 0.  1.
    8880023    1    1    2    0    0 -0.55092472628E+02 -0.23491097296E+03  0.43477679830E+03  0.82526324065E+03  0.65864270000E+03 0.  1.
    8880022    1    1    2    0    0  0.55092472628E+02  0.23491097296E+03  0.99144887214E+03  0.10317852804E+04  0.15294330000E+03 0.  0.
<mgrwt>
<rscale>  0 0.56035633E+03</rscale>
<asrwt>0</asrwt>
<pdfrwt beam="1">  1        2 0.25255956E+00 0.70144747E+03</pdfrwt>
<pdfrwt beam="2">  1       -2 0.33140219E-01 0.70144747E+03</pdfrwt>
<totfact> 0.92147505E+01</totfact>
</mgrwt>
</event>
<event>
 4    2  0.3855935E-007  0.6840428E+03  0.7818608E-02  0.1007123E+00
         -2   -1    0    0    0  501 -0.00000000000E+00  0.00000000000E+00  0.19601111756E+03  0.19601111757E+03  0.25500000000E-02 0.  1.
          2   -1    0    0  501    0  0.00000000000E+00 -0.00000000000E+00 -0.24480151873E+04  0.24480151873E+04  0.25500000000E-02 0. -1.
    8880023    1    1    2    0    0 -0.40511527908E+02 -0.18017553941E+03 -0.43362237558E+03  0.80990306813E+03  0.65864270000E+03 0.  0.
    8880022    1    1    2    0    0  0.40511527908E+02  0.18017553941E+03 -0.18183816942E+04  0.18341232367E+04  0.15294330000E+03 0.  0.
<mgrwt>
<rscale>  0 0.52634105E+03</rscale>
<asrwt>0</asrwt>
<pdfrwt beam="1">  1        2 0.37661770E+00 0.68404285E+03</pdfrwt>
<pdfrwt beam="2">  1       -2 0.30155558E-01 0.68404285E+03</pdfrwt>
<totfact> 0.39794009E+01</totfact>
</mgrwt>
</event>
<event>
 4    2  0.3855935E-007  0.7139747E+03  0.7818608E-02  0.9943527E-01
         -2   -1    0    0    0  501 -0.00000000000E+00  0.00000000000E+00  0.12756796356E+03  0.12756796359E+03  0.25500000000E-02 0.  1.
          2   -1    0    0  501    0  0.00000000000E+00 -0.00000000000E+00 -0.27536857186E+04  0.27536857186E+04  0.25500000000E-02 0. -1.
    8880023    1    1    2    0    0 -0.27480651412E+03 -0.20762114461E+02 -0.10234169732E+04  0.12478550368E+04  0.65864270000E+03 0.  1.
    8880022    1    1    2    0    0  0.27480651412E+03  0.20762114461E+02 -0.16027007819E+04  0.16333986455E+04  0.15294330000E+03 0.  0.
<mgrwt>
<rscale>  0 0.58197372E+03</rscale>
<asrwt>0</asrwt>
<pdfrwt beam="1">  1        2 0.42364391E+00 0.71397471E+03</pdfrwt>
<pdfrwt beam="2">  1       -2 0.19625843E-01 0.71397471E+03</pdfrwt>
<totfact> 0.57255233E+01</totfact>
</mgrwt>
</event>
<event>
 4    2  0.3855935E-007  0.8413368E+03  0.7818608E-02  0.9627665E-01
         -2   -1    0    0    0  501 -0.00000000000E+00  0.00000000000E+00  0.95747325177E+03  0.95747325177E+03  0.25500000000E-02 0.  1.
          2   -1    0    0  501    0  0.00000000000E+00 -0.00000000000E+00 -0.76096146949E+03  0.76096146950E+03  0.25500000000E-02 0. -1.
    8880023    1    1    2    0    0 -0.31616531766E+02 -0.52253015680E+03  0.60564789320E+03  0.10366566194E+04  0.65864270000E+03 0.  1.
    8880022    1    1    2    0    0  0.31616531766E+02  0.52253015680E+03 -0.40913611092E+03  0.68177810182E+03  0.15294330000E+03 0.  0.
<mgrwt>
<rscale>  0 0.75491894E+03</rscale>
<asrwt>0</asrwt>
<pdfrwt beam="1">  1        2 0.11707099E+00 0.84133678E+03</pdfrwt>
<pdfrwt beam="2">  1       -2 0.14730358E+00 0.84133678E+03</pdfrwt>
<totfact> 0.11639216E+01</totfact>
</mgrwt>
</event>
<event>
 4    2  0.3855935E-007  0.8009621E+03  0.7818608E-02  0.9708720E-01
         -2   -1    0    0    0  501 -0.00000000000E+00  0.00000000000E+00  0.59078198898E+03  0.59078198899E+03  0.25500000000E-02 0.  1.
          2   -1    0    0  501    0  0.00000000000E+00 -0.00000000000E+00 -0.12009626894E+04  0.12009626895E+04  0.25500000000E-02 0. -1.
    8880023    1    1    2    0    0 -0.37706401168E+03 -0.25603278964E+03  0.22157714623E+03  0.83104554404E+03  0.65864270000E+03 0.  0.
    8880022    1    1    2    0    0  0.37706401168E+03  0.25603278964E+03 -0.83175784670E+03  0.96069913440E+03  0.15294330000E+03 0.  0.
<mgrwt>
<rscale>  0 0.70499991E+03</rscale>
<asrwt>0</asrwt>
<pdfrwt beam="1">  1        2 0.18476349E+00 0.80096209E+03</pdfrwt>
<pdfrwt beam="2">  1       -2 0.90889537E-01 0.80096209E+03</pdfrwt>
<totfact> 0.19805214E+01</totfact>
</mgrwt>
</event>
<event>
 4    2  0.3855935E-007  0.9991460E+03  0.7818608E-02  0.9382676E-01
          2   -1    0    0  501    0  0.00000000000E+00  0.00000000000E+00  0.12363463925E+04  0.12363463925E+04  0.25500000000E-02 0. -1.
         -2   -1    0    0    0  501 -0.00000000000E+00 -0.00000000000E+00 -0.10104193192E+04  0.10104193192E+04  0.25500000000E-02 0.  1.
    8880023    1    1    2    0    0 -0.54566276932E+03  0.51646354315E+03 -0.56282603199E+03  0.11467631829E+04  0.65864270000E+03 0.  0.
    8880022    1    1    2    0    0  0.54566276932E+03 -0.51646354315E+03  0.78875310526E+03  0.11000025288E+04  0.15294330000E+03 0.  0.
<mgrwt>
<rscale>  0 0.93515208E+03</rscale>
<asrwt>0</asrwt>
<pdfrwt beam="1">  1        2 0.19020714E+00 0.99914596E+03</pdfrwt>
<pdfrwt beam="2">  1       -2 0.15544913E+00 0.99914596E+03</pdfrwt>
<totfact> 0.48665508E+00</totfact>
</mgrwt>
</event>
<event>
 4    2  0.3855935E-007  0.1820064E+04  0.7818608E-02  0.8711518E-01
         -2   -1    0    0    0  501 -0.00000000000E+00  0.00000000000E+00  0.17996031745E+04  0.17996031745E+04  0.25500000000E-02 0.  1.
          2   -1    0    0  501    0  0.00000000000E+00 -0.00000000000E+00 -0.20806186546E+04  0.20806186547E+04  0.25500000000E-02 0. -1.
    8880023    1    1    2    0    0  0.22788605670E+02  0.16965561149E+04  0.65754561234E+03  0.19351998373E+04  0.65864270000E+03 0.  0.
    8880022    1    1    2    0    0 -0.22788605670E+02 -0.16965561149E+04 -0.93856109246E+03  0.19450219919E+04  0.15294330000E+03 0.  0.
<mgrwt>
<rscale>  0 0.17902189E+04</rscale>
<asrwt>0</asrwt>
<pdfrwt beam="1">  1        2 0.32009518E+00 0.18200638E+04</pdfrwt>
<pdfrwt beam="2">  1       -2 0.27686203E+00 0.18200638E+04</pdfrwt>
<totfact> 0.24025673E-01</totfact>
</mgrwt>
</event>
<event>
 4    2  0.3855935E-007  0.6841811E+03  0.7818608E-02  0.1007051E+00
          2   -1    0    0  501    0  0.00000000000E+00  0.00000000000E+00  0.15406750492E+04  0.15406750492E+04  0.25500000000E-02 0. -1.
         -2   -1    0    0    0  501 -0.00000000000E+00 -0.00000000000E+00 -0.14179048156E+03  0.14179048158E+03  0.25500000000E-02 0.  1.
    8880023    1    1    2    0    0  0.50425498043E+02 -0.17818768410E+03  0.91773391522E+03  0.11447005403E+04  0.65864270000E+03 0.  1.
    8880022    1    1    2    0    0 -0.50425498043E+02  0.17818768410E+03  0.48115065242E+03  0.53776499045E+03  0.15294330000E+03 0. -1.
<mgrwt>
<rscale>  0 0.52663703E+03</rscale>
<asrwt>0</asrwt>
<pdfrwt beam="1">  1        2 0.23702693E+00 0.68418111E+03</pdfrwt>
<pdfrwt beam="2">  1       -2 0.21813920E-01 0.68418111E+03</pdfrwt>
<totfact> 0.22484205E+02</totfact>
</mgrwt>
</event>
<event>
 4    2  0.3855935E-007  0.6607241E+03  0.7818608E-02  0.1023427E+00
         -2   -1    0    0    0  501 -0.00000000000E+00  0.00000000000E+00  0.49919741275E+03  0.49919741276E+03  0.25500000000E-02 0.  1.
          2   -1    0    0  501    0  0.00000000000E+00 -0.00000000000E+00 -0.77086987742E+03  0.77086987742E+03  0.25500000000E-02 0. -1.
    8880023    1    1    2    0    0  0.48821082437E+02  0.19043783086E+02  0.26325830926E+03  0.71123927579E+03  0.65864270000E+03 0.  1.
    8880022    1    1    2    0    0 -0.48821082437E+02 -0.19043783086E+02 -0.53493077393E+03  0.55882801439E+03  0.15294330000E+03 0.  0.
<mgrwt>
<rscale>  0 0.46470119E+03</rscale>
<asrwt>0</asrwt>
<pdfrwt beam="1">  1        2 0.11859537E+00 0.66072413E+03</pdfrwt>
<pdfrwt beam="2">  1       -2 0.76799602E-01 0.66072413E+03</pdfrwt>
<totfact> 0.55933061E+01</totfact>
</mgrwt>
</event>
<event>
 4    2  0.3855935E-007  0.7828889E+03  0.7818608E-02  0.9749094E-01
         -2   -1    0    0    0  501 -0.00000000000E+00  0.00000000000E+00  0.22612694746E+03  0.22612694748E+03  0.25500000000E-02 0.  1.
          2   -1    0    0  501    0  0.00000000000E+00 -0.00000000000E+00 -0.35051073921E+04  0.35051073921E+04  0.25500000000E-02 0. -1.
    8880023    1    1    2    0    0  0.12778330427E+03 -0.40345536201E+03 -0.52941782970E+03  0.94509166045E+03  0.65864270000E+03 0.  0.
    8880022    1    1    2    0    0 -0.12778330427E+03  0.40345536201E+03 -0.27495626149E+04  0.27861426791E+04  0.15294330000E+03 0.  0.
<mgrwt>
<rscale>  0 0.68167485E+03</rscale>
<asrwt>0</asrwt>
<pdfrwt beam="1">  1        2 0.53924725E+00 0.78288889E+03</pdfrwt>
<pdfrwt beam="2">  1       -2 0.34788764E-01 0.78288889E+03</pdfrwt>
<totfact> 0.67195427E+00</totfact>
</mgrwt>
</event>
<event>
 4    2  0.3855935E-007  0.7049031E+03  0.7818608E-02  0.9977438E-01
         -2   -1    0    0    0  501 -0.00000000000E+00  0.00000000000E+00  0.35222772660E+03  0.35222772661E+03  0.25500000000E-02 0.  1.
          2   -1    0    0  501    0  0.00000000000E+00 -0.00000000000E+00 -0.14326509666E+04  0.14326509666E+04  0.25500000000E-02 0. -1.
    8880023    1    1    2    0    0  0.11706863422E+03  0.22220059496E+03 -0.42587561405E+02  0.70618841407E+03  0.65864270000E+03 0.  1.
    8880022    1    1    2    0    0 -0.11706863422E+03 -0.22220059496E+03 -0.10378356786E+04  0.10786902792E+04  0.15294330000E+03 0.  0.
<mgrwt>
<rscale>  0 0.56650681E+03</rscale>
<asrwt>0</asrwt>
<pdfrwt beam="1">  1        2 0.22040784E+00 0.70490310E+03</pdfrwt>
<pdfrwt beam="2">  1       -2 0.54188882E-01 0.70490310E+03</pdfrwt>
<totfact> 0.45605450E+01</totfact>
</mgrwt>
</event>
<event>
 4    2  0.3855935E-007  0.1135755E+04  0.7818608E-02  0.9222254E-01
          2   -1    0    0  501    0  0.00000000000E+00  0.00000000000E+00  0.28992409247E+04  0.28992409247E+04  0.25500000000E-02 0. -1.
         -2   -1    0    0    0  501 -0.00000000000E+00 -0.00000000000E+00 -0.59958694160E+03  0.59958694160E+03  0.25500000000E-02 0.  1.
    8880023    1    1    2    0    0 -0.68110047376E+03  0.62628408823E+03  0.14001777496E+03  0.11443534411E+04  0.65864270000E+03 0.  1.
    8880022    1    1    2    0    0  0.68110047376E+03 -0.62628408823E+03  0.21596362081E+04  0.23544744252E+04  0.15294330000E+03 0.  0.
<mgrwt>
<rscale>  0 0.10826656E+04</rscale>
<asrwt>0</asrwt>
<pdfrwt beam="1">  1        2 0.44603707E+00 0.11357552E+04</pdfrwt>
<pdfrwt beam="2">  1       -2 0.92244143E-01 0.11357552E+04</pdfrwt>
<totfact> 0.20041928E+00</totfact>
</mgrwt>
</event>
<event>
 4    2  0.3855935E-007  0.9881376E+03  0.7818608E-02  0.9397244E-01
         -2   -1    0    0    0  501 -0.00000000000E+00  0.00000000000E+00  0.21510741443E+04  0.21510741443E+04  0.25500000000E-02 0.  1.
          2   -1    0    0  501    0  0.00000000000E+00 -0.00000000000E+00 -0.75311050959E+03  0.75311050959E+03  0.25500000000E-02 0. -1.
    8880023    1    1    2    0    0 -0.44620031291E+03 -0.58609812839E+03 -0.31184693474E+03  0.10361778092E+04  0.65864270000E+03 0. -1.
    8880022    1    1    2    0    0  0.44620031291E+03  0.58609812839E+03  0.17098105694E+04  0.18680068447E+04  0.15294330000E+03 0.  0.
<mgrwt>
<rscale>  0 0.92302800E+03</rscale>
<asrwt>0</asrwt>
<pdfrwt beam="1">  1        2 0.11586315E+00 0.98813761E+03</pdfrwt>
<pdfrwt beam="2">  1       -2 0.33093449E+00 0.98813761E+03</pdfrwt>
<totfact> 0.77258846E-01</totfact>
</mgrwt>
</event>
<event>
 4    2  0.3855935E-007  0.8435035E+03  0.7818608E-02  0.9623609E-01
         -2   -1    0    0    0  501 -0.00000000000E+00  0.00000000000E+00  0.34352146990E+03  0.34352146991E+03  0.25500000000E-02 0.  1.
          2   -1    0    0  501    0  0.00000000000E+00 -0.00000000000E+00 -0.17767461330E+04  0.17767461330E+04  0.25500000000E-02 0. -1.
    8880023    1    1    2    0    0  0.52675295614E+03  0.14805162268E+02 -0.36445197828E+03  0.91887067663E+03  0.65864270000E+03 0.  0.
    8880022    1    1    2    0    0 -0.52675295614E+03 -0.14805162268E+02 -0.10687726848E+04  0.12013969262E+04  0.15294330000E+03 0.  0.
<mgrwt>
<rscale>  0 0.75753081E+03</rscale>
<asrwt>0</asrwt>
<pdfrwt beam="1">  1        2 0.27334555E+00 0.84350345E+03</pdfrwt>
<pdfrwt beam="2">  1       -2 0.52849458E-01 0.84350345E+03</pdfrwt>
<totfact> 0.30530171E+01</totfact>
</mgrwt>
</event>
<event>
 4    2  0.3855935E-007  0.7136542E+03  0.7818608E-02  0.9944674E-01
         -2   -1    0    0    0  501 -0.00000000000E+00  0.00000000000E+00  0.10770063108E+03  0.10770063111E+03  0.25500000000E-02 0.  1.
          2   -1    0    0  501    0  0.00000000000E+00 -0.00000000000E+00 -0.31588170610E+04  0.31588170610E+04  0.25500000000E-02 0. -1.
    8880023    1    1    2    0    0  0.20988314679E+03 -0.17731667497E+03 -0.12605375095E+04  0.14485362121E+04  0.65864270000E+03 0.  1.
    8880022    1    1    2    0    0 -0.20988314679E+03  0.17731667497E+03 -0.17905789204E+04  0.18179814800E+04  0.15294330000E+03 0.  0.
<mgrwt>
<rscale>  0 0.58144216E+03</rscale>
<asrwt>0</asrwt>
<pdfrwt beam="1">  1        2 0.48597178E+00 0.71365422E+03</pdfrwt>
<pdfrwt beam="2">  1       -2 0.16569330E-01 0.71365422E+03</pdfrwt>
<totfact> 0.43543935E+01</totfact>
</mgrwt>
</event>
<event>
 4    2  0.3855935E-007  0.6885555E+03  0.7818608E-02  0.1004847E+00
          2   -1    0    0  501    0  0.00000000000E+00  0.00000000000E+00  0.83611181176E+03  0.83611181177E+03  0.25500000000E-02 0. -1.
         -2   -1    0    0    0  501 -0.00000000000E+00 -0.00000000000E+00 -0.41536400353E+03  0.41536400354E+03  0.25500000000E-02 0.  1.
    8880023    1    1    2    0    0 -0.19352687410E+03  0.53346842730E+02 -0.77555440428E+02  0.69290951013E+03  0.65864270000E+03 0.  1.
    8880022    1    1    2    0    0  0.19352687410E+03 -0.53346842730E+02  0.49830324866E+03  0.55856630517E+03  0.15294330000E+03 0.  0.
<mgrwt>
<rscale>  0 0.53575139E+03</rscale>
<asrwt>0</asrwt>
<pdfrwt beam="1">  1        2 0.12863259E+00 0.68855555E+03</pdfrwt>
<pdfrwt beam="2">  1       -2 0.63902155E-01 0.68855555E+03</pdfrwt>
<totfact> 0.74830770E+01</totfact>
</mgrwt>
</event>
<event>
 4    2  0.3855935E-007  0.7054531E+03  0.7818608E-02  0.9975290E-01
         -2   -1    0    0    0  501 -0.00000000000E+00  0.00000000000E+00  0.12937812874E+03  0.12937812877E+03  0.25500000000E-02 0.  1.
          2   -1    0    0  501    0  0.00000000000E+00 -0.00000000000E+00 -0.20237365199E+04  0.20237365199E+04  0.25500000000E-02 0. -1.
    8880023    1    1    2    0    0 -0.21070236980E+03 -0.13949323398E+03 -0.11124207230E+04  0.13172486182E+04  0.65864270000E+03 0.  0.
    8880022    1    1    2    0    0  0.21070236980E+03  0.13949323398E+03 -0.78193766824E+03  0.83586603053E+03  0.15294330000E+03 0.  1.
<mgrwt>
<rscale>  0 0.56747141E+03</rscale>
<asrwt>0</asrwt>
<pdfrwt beam="1">  1        2 0.31134406E+00 0.70545309E+03</pdfrwt>
<pdfrwt beam="2">  1       -2 0.19904329E-01 0.70545309E+03</pdfrwt>
<totfact> 0.14365014E+02</totfact>
</mgrwt>
</event>
<event>
 4    2  0.3855935E-007  0.7442039E+03  0.7818608E-02  0.9847867E-01
          2   -1    0    0  501    0  0.00000000000E+00  0.00000000000E+00  0.17608470467E+04  0.17608470467E+04  0.25500000000E-02 0. -1.
         -2   -1    0    0    0  501 -0.00000000000E+00 -0.00000000000E+00 -0.29791316983E+03  0.29791316984E+03  0.25500000000E-02 0.  1.
    8880023    1    1    2    0    0 -0.25876819610E+03 -0.23036534163E+03  0.24529452322E+03  0.78358712299E+03  0.65864270000E+03 0.  1.
    8880022    1    1    2    0    0  0.25876819610E+03  0.23036534163E+03  0.12176393536E+04  0.12751730935E+04  0.15294330000E+03 0.  0.
<mgrwt>
<rscale>  0 0.62855815E+03</rscale>
<asrwt>0</asrwt>
<pdfrwt beam="1">  1        2 0.27089954E+00 0.74420385E+03</pdfrwt>
<pdfrwt beam="2">  1       -2 0.45832796E-01 0.74420385E+03</pdfrwt>
<totfact> 0.42067018E+01</totfact>
</mgrwt>
</event>
<event>
 4    2  0.3855935E-007  0.8072388E+03  0.7818608E-02  0.9695357E-01
         -2   -1    0    0    0  501 -0.00000000000E+00  0.00000000000E+00  0.55639381744E+03  0.55639381744E+03  0.25500000000E-02 0.  1.
          2   -1    0    0  501    0  0.00000000000E+00 -0.00000000000E+00 -0.23604317803E+04  0.23604317803E+04  0.25500000000E-02 0. -1.
    8880023    1    1    2    0    0 -0.28211259119E+03  0.37180212772E+03  0.21786902153E+03  0.83612286961E+03  0.65864270000E+03 0.  0.
    8880022    1    1    2    0    0  0.28211259119E+03 -0.37180212772E+03 -0.20219069844E+04  0.20807027281E+04  0.15294330000E+03 0.  0.
<mgrwt>
<rscale>  0 0.71293888E+03</rscale>
<asrwt>0</asrwt>
<pdfrwt beam="1">  1        2 0.36314334E+00 0.80723884E+03</pdfrwt>
<pdfrwt beam="2">  1       -2 0.85599051E-01 0.80723884E+03</pdfrwt>
<totfact> 0.51434514E+00</totfact>
</mgrwt>
</event>
<event>
 4    2  0.3855935E-007  0.1389571E+04  0.7818608E-02  0.8991829E-01
         -2   -1    0    0    0  501 -0.00000000000E+00  0.00000000000E+00  0.80007932559E+03  0.80007932559E+03  0.25500000000E-02 0.  1.
          2   -1    0    0  501    0  0.00000000000E+00 -0.00000000000E+00 -0.25341425258E+04  0.25341425258E+04  0.25500000000E-02 0. -1.
    8880023    1    1    2    0    0  0.45010996332E+03 -0.11377598074E+04 -0.15596310119E+04  0.20888646337E+04  0.65864270000E+03 0. -1.
    8880022    1    1    2    0    0 -0.45010996332E+03  0.11377598074E+04 -0.17443218830E+03  0.12453572177E+04  0.15294330000E+03 0.  0.
<mgrwt>
<rscale>  0 0.13486782E+04</rscale>
<asrwt>0</asrwt>
<pdfrwt beam="1">  1        2 0.38986808E+00 0.13895706E+04</pdfrwt>
<pdfrwt beam="2">  1       -2 0.12308913E+00 0.13895706E+04</pdfrwt>
<totfact> 0.15910230E+00</totfact>
</mgrwt>
</event>
<event>
 4    2  0.3855935E-007  0.1094890E+04  0.7818608E-02  0.9266766E-01
         -2   -1    0    0    0  501 -0.00000000000E+00  0.00000000000E+00  0.27754628309E+04  0.27754628309E+04  0.25500000000E-02 0.  1.
          2   -1    0    0  501    0  0.00000000000E+00 -0.00000000000E+00 -0.11037763464E+04  0.11037763464E+04  0.25500000000E-02 0. -1.
    8880023    1    1    2    0    0  0.79972141832E+03 -0.35414752823E+03  0.24595139576E+04  0.26922098604E+04  0.65864270000E+03 0.  1.
    8880022    1    1    2    0    0 -0.79972141832E+03  0.35414752823E+03 -0.78782747317E+03  0.11870293169E+04  0.15294330000E+03 0.  0.
<mgrwt>
<rscale>  0 0.10390083E+04</rscale>
<asrwt>0</asrwt>
<pdfrwt beam="1">  1        2 0.16981175E+00 0.10948904E+04</pdfrwt>
<pdfrwt beam="2">  1       -2 0.42699428E+00 0.10948904E+04</pdfrwt>
<totfact> 0.10698201E-01</totfact>
</mgrwt>
</event>
<event>
 4    2  0.3855935E-007  0.6790471E+03  0.7818608E-02  0.1009868E+00
          2   -1    0    0  501    0  0.00000000000E+00  0.00000000000E+00  0.12618722490E+04  0.12618722490E+04  0.25500000000E-02 0. -1.
         -2   -1    0    0    0  501 -0.00000000000E+00 -0.00000000000E+00 -0.16368891073E+03  0.16368891075E+03  0.25500000000E-02 0.  1.
    8880023    1    1    2    0    0 -0.48145818816E+02  0.15804030751E+03  0.75858881981E+03  0.10181168707E+04  0.65864270000E+03 0.  0.
    8880022    1    1    2    0    0  0.48145818816E+02 -0.15804030751E+03  0.33959451844E+03  0.40744428900E+03  0.15294330000E+03 0. -1.
<mgrwt>
<rscale>  0 0.51527179E+03</rscale>
<asrwt>0</asrwt>
<pdfrwt beam="1">  1        2 0.19413419E+00 0.67904710E+03</pdfrwt>
<pdfrwt beam="2">  1       -2 0.25182909E-01 0.67904710E+03</pdfrwt>
<totfact> 0.25005612E+02</totfact>
</mgrwt>
</event>
<event>
 4    2  0.3855935E-007  0.9332347E+03  0.7818608E-02  0.9474657E-01
         -2   -1    0    0    0  501 -0.00000000000E+00  0.00000000000E+00  0.85970516481E+03  0.85970516482E+03  0.25500000000E-02 0.  1.
          2   -1    0    0  501    0  0.00000000000E+00 -0.00000000000E+00 -0.84839497206E+03  0.84839497207E+03  0.25500000000E-02 0. -1.
    8880023    1    1    2    0    0  0.66112654853E+03 -0.53314011284E+01  0.28589523297E+03  0.97604458275E+03  0.65864270000E+03 0. -1.
    8880022    1    1    2    0    0 -0.66112654853E+03  0.53314011284E+01 -0.27458504023E+03  0.73205555414E+03  0.15294330000E+03 0.  0.
<mgrwt>
<rscale>  0 0.86178284E+03</rscale>
<asrwt>0</asrwt>
<pdfrwt beam="1">  1        2 0.13052230E+00 0.93323467E+03</pdfrwt>
<pdfrwt beam="2">  1       -2 0.13226233E+00 0.93323467E+03</pdfrwt>
<totfact> 0.13199542E+01</totfact>
</mgrwt>
</event>
<event>
 4    2  0.3855935E-007  0.7361558E+03  0.7818608E-02  0.9871290E-01
         -2   -1    0    0    0  501 -0.00000000000E+00  0.00000000000E+00  0.10137972635E+04  0.10137972635E+04  0.25500000000E-02 0.  1.
          2   -1    0    0  501    0  0.00000000000E+00 -0.00000000000E+00 -0.34615699933E+03  0.34615699934E+03  0.25500000000E-02 0. -1.
    8880023    1    1    2    0    0  0.15659094482E+03  0.28912704476E+03  0.67278537485E+03  0.99727906771E+03  0.65864270000E+03 0. -1.
    8880022    1    1    2    0    0 -0.15659094482E+03 -0.28912704476E+03 -0.51451106508E+01  0.36267519517E+03  0.15294330000E+03 0.  0.
<mgrwt>
<rscale>  0 0.61673109E+03</rscale>
<asrwt>0</asrwt>
<pdfrwt beam="1">  1        2 0.53254924E-01 0.73615581E+03</pdfrwt>
<pdfrwt beam="2">  1       -2 0.15596881E+00 0.73615581E+03</pdfrwt>
<totfact> 0.25606648E+01</totfact>
</mgrwt>
</event>
<event>
 4    2  0.3855935E-007  0.6639546E+03  0.7818608E-02  0.1020427E+00
          2   -1    0    0  501    0  0.00000000000E+00  0.00000000000E+00  0.17867237447E+04  0.17867237447E+04  0.25500000000E-02 0. -1.
         -2   -1    0    0    0  501 -0.00000000000E+00 -0.00000000000E+00 -0.23171018804E+03  0.23171018806E+03  0.25500000000E-02 0.  1.
    8880023    1    1    2    0    0 -0.33567316932E+02  0.76803565235E+02  0.26210779323E+03  0.71381808182E+03  0.65864270000E+03 0.  1.
    8880022    1    1    2    0    0  0.33567316932E+02 -0.76803565235E+02  0.12929057634E+04  0.13046158509E+04  0.15294330000E+03 0.  0.
<mgrwt>
<rscale>  0 0.47532835E+03</rscale>
<asrwt>0</asrwt>
<pdfrwt beam="1">  1        2 0.27488057E+00 0.66395464E+03</pdfrwt>
<pdfrwt beam="2">  1       -2 0.35647722E-01 0.66395464E+03</pdfrwt>
<totfact> 0.67165066E+01</totfact>
</mgrwt>
</event>
<event>
 4    2  0.3855935E-007  0.6874342E+03  0.7818608E-02  0.1005397E+00
         -2   -1    0    0    0  501 -0.00000000000E+00  0.00000000000E+00  0.16877551266E+04  0.16877551266E+04  0.25500000000E-02 0.  1.
          2   -1    0    0  501    0  0.00000000000E+00 -0.00000000000E+00 -0.79755006590E+03  0.79755006591E+03  0.25500000000E-02 0. -1.
    8880023    1    1    2    0    0 -0.19652006832E+03 -0.11640167327E+02  0.15954764354E+04  0.17372711052E+04  0.65864270000E+03 0.  1.
    8880022    1    1    2    0    0  0.19652006832E+03  0.11640167327E+02 -0.70527137472E+03  0.74803408730E+03  0.15294330000E+03 0.  0.
<mgrwt>
<rscale>  0 0.53345911E+03</rscale>
<asrwt>0</asrwt>
<pdfrwt beam="1">  1        2 0.12270001E+00 0.68743424E+03</pdfrwt>
<pdfrwt beam="2">  1       -2 0.25965463E+00 0.68743424E+03</pdfrwt>
<totfact> 0.20263241E+00</totfact>
</mgrwt>
</event>
<event>
 4    2  0.3855935E-007  0.6795999E+03  0.7818608E-02  0.1009551E+00
          2   -1    0    0  501    0  0.00000000000E+00  0.00000000000E+00  0.32796894821E+04  0.32796894821E+04  0.25500000000E-02 0. -1.
         -2   -1    0    0    0  501 -0.00000000000E+00 -0.00000000000E+00 -0.10970413468E+03  0.10970413471E+03  0.25500000000E-02 0.  1.
    8880023    1    1    2    0    0  0.14277789132E+03 -0.87522860698E+02  0.10089220452E+04  0.12164619505E+04  0.65864270000E+03 0.  1.
    8880022    1    1    2    0    0 -0.14277789132E+03  0.87522860698E+02  0.21610633022E+04  0.21729316663E+04  0.15294330000E+03 0.  0.
<mgrwt>
<rscale>  0 0.51653514E+03</rscale>
<asrwt>0</asrwt>
<pdfrwt beam="1">  1        2 0.50456764E+00 0.67959987E+03</pdfrwt>
<pdfrwt beam="2">  1       -2 0.16877558E-01 0.67959987E+03</pdfrwt>
<totfact> 0.35534135E+01</totfact>
</mgrwt>
</event>
<event>
 4    2  0.3855935E-007  0.8208871E+03  0.7818608E-02  0.9667330E-01
          2   -1    0    0  501    0  0.00000000000E+00  0.00000000000E+00  0.86832482388E+03  0.86832482389E+03  0.25500000000E-02 0. -1.
         -2   -1    0    0    0  501 -0.00000000000E+00 -0.00000000000E+00 -0.58807654429E+03  0.58807654429E+03  0.25500000000E-02 0.  1.
    8880023    1    1    2    0    0  0.48771213946E+03 -0.46715460713E+02 -0.86708952317E+02  0.82545388358E+03  0.65864270000E+03 0.  0.
    8880022    1    1    2    0    0 -0.48771213946E+03  0.46715460713E+02  0.36695723191E+03  0.63094748459E+03  0.15294330000E+03 0.  0.
<mgrwt>
<rscale>  0 0.72995688E+03</rscale>
<asrwt>0</asrwt>
<pdfrwt beam="1">  1        2 0.13358843E+00 0.82088712E+03</pdfrwt>
<pdfrwt beam="2">  1       -2 0.90473315E-01 0.82088712E+03</pdfrwt>
<totfact> 0.32454731E+01</totfact>
</mgrwt>
</event>
<event>
 4    2  0.3855935E-007  0.7454203E+03  0.7818608E-02  0.9844430E-01
          2   -1    0    0  501    0  0.00000000000E+00  0.00000000000E+00  0.38036585240E+04  0.38036585240E+04  0.25500000000E-02 0. -1.
         -2   -1    0    0    0  501 -0.00000000000E+00 -0.00000000000E+00 -0.11138762805E+03  0.11138762808E+03  0.25500000000E-02 0.  1.
    8880023    1    1    2    0    0 -0.32278945153E+03 -0.13284634727E+03  0.32350959064E+04  0.33198639900E+04  0.65864270000E+03 0. -1.
    8880022    1    1    2    0    0  0.32278945153E+03  0.13284634727E+03  0.45717498952E+03  0.59518216208E+03  0.15294330000E+03 0.  0.
<mgrwt>
<rscale>  0 0.63031698E+03</rscale>
<asrwt>0</asrwt>
<pdfrwt beam="1">  1        2 0.58517827E+00 0.74542028E+03</pdfrwt>
<pdfrwt beam="2">  1       -2 0.17136557E-01 0.74542028E+03</pdfrwt>
<totfact> 0.14873089E+01</totfact>
</mgrwt>
</event>
<event>
 4    2  0.3855935E-007  0.9199184E+03  0.7818608E-02  0.9494784E-01
         -2   -1    0    0    0  501 -0.00000000000E+00  0.00000000000E+00  0.89880166374E+03  0.89880166374E+03  0.25500000000E-02 0.  1.
          2   -1    0    0  501    0  0.00000000000E+00 -0.00000000000E+00 -0.90295759176E+03  0.90295759176E+03  0.25500000000E-02 0. -1.
    8880023    1    1    2    0    0  0.42088846450E+03 -0.48506963552E+03  0.42604240038E+03  0.10137859656E+04  0.65864270000E+03 0.  0.
    8880022    1    1    2    0    0 -0.42088846450E+03  0.48506963552E+03 -0.43019832840E+03  0.78797328991E+03  0.15294330000E+03 0.  0.
<mgrwt>
<rscale>  0 0.84669458E+03</rscale>
<asrwt>0</asrwt>
<pdfrwt beam="1">  1        2 0.13891655E+00 0.91991840E+03</pdfrwt>
<pdfrwt beam="2">  1       -2 0.13827718E+00 0.91991840E+03</pdfrwt>
<totfact> 0.10813836E+01</totfact>
</mgrwt>
</event>
<event>
 4    2  0.3855935E-007  0.7446547E+03  0.7818608E-02  0.9846590E-01
          2   -1    0    0  501    0  0.00000000000E+00  0.00000000000E+00  0.26294135754E+04  0.26294135754E+04  0.25500000000E-02 0. -1.
         -2   -1    0    0    0  501 -0.00000000000E+00 -0.00000000000E+00 -0.21038159126E+03  0.21038159128E+03  0.25500000000E-02 0.  1.
    8880023    1    1    2    0    0 -0.34666723782E+03 -0.22851908132E+02  0.53251874977E+03  0.91547081254E+03  0.65864270000E+03 0.  1.
    8880022    1    1    2    0    0  0.34666723782E+03  0.22851908132E+02  0.18865132344E+04  0.19243243542E+04  0.15294330000E+03 0.  0.
<mgrwt>
<rscale>  0 0.62921083E+03</rscale>
<asrwt>0</asrwt>
<pdfrwt beam="1">  1        2 0.40452518E+00 0.74465468E+03</pdfrwt>
<pdfrwt beam="2">  1       -2 0.32366397E-01 0.74465468E+03</pdfrwt>
<totfact> 0.27244662E+01</totfact>
</mgrwt>
</event>
<event>
 4    2  0.3855935E-007  0.7113500E+03  0.7818608E-02  0.9953022E-01
         -2   -1    0    0    0  501 -0.00000000000E+00  0.00000000000E+00  0.35071177099E+03  0.35071177100E+03  0.25500000000E-02 0.  1.
          2   -1    0    0  501    0  0.00000000000E+00 -0.00000000000E+00 -0.18901757135E+04  0.18901757135E+04  0.25500000000E-02 0. -1.
    8880023    1    1    2    0    0 -0.15589804457E+03 -0.21887074655E+03 -0.42818458033E+02  0.71263751698E+03  0.65864270000E+03 0.  1.
    8880022    1    1    2    0    0  0.15589804457E+03  0.21887074655E+03 -0.14966454844E+04  0.15282499675E+04  0.15294330000E+03 0.  0.
<mgrwt>
<rscale>  0 0.57759029E+03</rscale>
<asrwt>0</asrwt>
<pdfrwt beam="1">  1        2 0.29079626E+00 0.71134999E+03</pdfrwt>
<pdfrwt beam="2">  1       -2 0.53955658E-01 0.71134999E+03</pdfrwt>
<totfact> 0.25779307E+01</totfact>
</mgrwt>
</event>
<event>
 4    2  0.3855935E-007  0.6974988E+03  0.7818608E-02  0.1000774E+00
          2   -1    0    0  501    0  0.00000000000E+00  0.00000000000E+00  0.13032126466E+04  0.13032126466E+04  0.25500000000E-02 0. -1.
         -2   -1    0    0    0  501 -0.00000000000E+00 -0.00000000000E+00 -0.42461108195E+03  0.42461108196E+03  0.25500000000E-02 0.  1.
    8880023    1    1    2    0    0 -0.12712403958E+03 -0.19113843068E+03 -0.10582620861E+03  0.70548126397E+03  0.65864270000E+03 0.  1.
    8880022    1    1    2    0    0  0.12712403958E+03  0.19113843068E+03  0.98442777323E+03  0.10223424646E+04  0.15294330000E+03 0.  0.
<mgrwt>
<rscale>  0 0.55312178E+03</rscale>
<asrwt>0</asrwt>
<pdfrwt beam="1">  1        2 0.20049425E+00 0.69749884E+03</pdfrwt>
<pdfrwt beam="2">  1       -2 0.65324782E-01 0.69749884E+03</pdfrwt>
<totfact> 0.36461805E+01</totfact>
</mgrwt>
</event>
<event>
 4    2  0.3855935E-007  0.7294557E+03  0.7818608E-02  0.9891800E-01
          2   -1    0    0  501    0  0.00000000000E+00  0.00000000000E+00  0.46991749949E+03  0.46991749950E+03  0.25500000000E-02 0. -1.
         -2   -1    0    0    0  501 -0.00000000000E+00 -0.00000000000E+00 -0.72936736603E+03  0.72936736603E+03  0.25500000000E-02 0.  1.
    8880023    1    1    2    0    0  0.25496783796E+03  0.18244670214E+03 -0.38957672287E+03  0.82696773019E+03  0.65864270000E+03 0.  0.
    8880022    1    1    2    0    0 -0.25496783796E+03 -0.18244670214E+03  0.13012685633E+03  0.37231713534E+03  0.15294330000E+03 0.  0.
<mgrwt>
<rscale>  0 0.60660325E+03</rscale>
<asrwt>0</asrwt>
<pdfrwt beam="1">  1        2 0.72295000E-01 0.72945569E+03</pdfrwt>
<pdfrwt beam="2">  1       -2 0.11221036E+00 0.72945569E+03</pdfrwt>
<totfact> 0.41972621E+01</totfact>
</mgrwt>
</event>
<event>
 4    2  0.3855935E-007  0.6989867E+03  0.7818608E-02  0.1000143E+00
          2   -1    0    0  501    0  0.00000000000E+00  0.00000000000E+00  0.13589640930E+04  0.13589640930E+04  0.25500000000E-02 0. -1.
         -2   -1    0    0    0  501 -0.00000000000E+00 -0.00000000000E+00 -0.11971016454E+04  0.11971016454E+04  0.25500000000E-02 0.  1.
    8880023    1    1    2    0    0  0.22020601395E+03  0.79256406193E+02 -0.10781599482E+04  0.12849168637E+04  0.65864270000E+03 0.  1.
    8880022    1    1    2    0    0 -0.22020601395E+03 -0.79256406193E+02  0.12400223957E+04  0.12711488746E+04  0.15294330000E+03 0.  0.
<mgrwt>
<rscale>  0 0.55587545E+03</rscale>
<asrwt>0</asrwt>
<pdfrwt beam="1">  1        2 0.20907140E+00 0.69898675E+03</pdfrwt>
<pdfrwt beam="2">  1       -2 0.18416948E+00 0.69898675E+03</pdfrwt>
<totfact> 0.26878456E+00</totfact>
</mgrwt>
</event>
<event>
 4    2  0.3855935E-007  0.7613211E+03  0.7818608E-02  0.9801699E-01
         -2   -1    0    0    0  501 -0.00000000000E+00  0.00000000000E+00  0.25192554480E+03  0.25192554482E+03  0.25500000000E-02 0.  1.
          2   -1    0    0  501    0  0.00000000000E+00 -0.00000000000E+00 -0.21081733451E+04  0.21081733451E+04  0.25500000000E-02 0. -1.
    8880023    1    1    2    0    0  0.11050962976E+03  0.36549594819E+03 -0.42710944891E+03  0.87294464545E+03  0.65864270000E+03 0.  0.
    8880022    1    1    2    0    0 -0.11050962976E+03 -0.36549594819E+03 -0.14291383514E+04  0.14871542445E+04  0.15294330000E+03 0.  0.
<mgrwt>
<rscale>  0 0.65271437E+03</rscale>
<asrwt>0</asrwt>
<pdfrwt beam="1">  1        2 0.32433435E+00 0.76132114E+03</pdfrwt>
<pdfrwt beam="2">  1       -2 0.38757778E-01 0.76132114E+03</pdfrwt>
<totfact> 0.37747530E+01</totfact>
</mgrwt>
</event>
<event>
 4    2  0.3855935E-007  0.7126021E+03  0.7818608E-02  0.9948462E-01
          2   -1    0    0  501    0  0.00000000000E+00  0.00000000000E+00  0.42952909709E+03  0.42952909710E+03  0.25500000000E-02 0. -1.
         -2   -1    0    0    0  501 -0.00000000000E+00 -0.00000000000E+00 -0.77099263275E+03  0.77099263275E+03  0.25500000000E-02 0.  1.
    8880023    1    1    2    0    0  0.14388592374E+03 -0.23084292249E+03 -0.47989970557E+03  0.85913069296E+03  0.65864270000E+03 0.  0.
    8880022    1    1    2    0    0 -0.14388592374E+03  0.23084292249E+03  0.13843616991E+03  0.34139103689E+03  0.15294330000E+03 0.  0.
<mgrwt>
<rscale>  0 0.57969011E+03</rscale>
<asrwt>0</asrwt>
<pdfrwt beam="1">  1        2 0.66081400E-01 0.71260215E+03</pdfrwt>
<pdfrwt beam="2">  1       -2 0.11861425E+00 0.71260215E+03</pdfrwt>
<totfact> 0.40657585E+01</totfact>
</mgrwt>
</event>
<event>
 4    2  0.3855935E-007  0.6604232E+03  0.7818608E-02  0.1023727E+00
         -2   -1    0    0    0  501 -0.00000000000E+00  0.00000000000E+00  0.58933031815E+03  0.58933031816E+03  0.25500000000E-02 0.  1.
          2   -1    0    0  501    0  0.00000000000E+00 -0.00000000000E+00 -0.50328785343E+03  0.50328785344E+03  0.25500000000E-02 0. -1.
    8880023    1    1    2    0    0  0.32269987261E+02  0.36156701297E+02  0.37693140251E+03  0.76041840298E+03  0.65864270000E+03 0.  1.
    8880022    1    1    2    0    0 -0.32269987261E+02 -0.36156701297E+02 -0.29088893779E+03  0.33219976862E+03  0.15294330000E+03 0.  0.
<mgrwt>
<rscale>  0 0.46365344E+03</rscale>
<asrwt>0</asrwt>
<pdfrwt beam="1">  1        2 0.77428901E-01 0.66042325E+03</pdfrwt>
<pdfrwt beam="2">  1       -2 0.90666203E-01 0.66042325E+03</pdfrwt>
<totfact> 0.64601448E+01</totfact>
</mgrwt>
</event>
<event>
 4    2  0.3855935E-007  0.8358965E+03  0.7818608E-02  0.9637967E-01
         -2   -1    0    0    0  501 -0.00000000000E+00  0.00000000000E+00  0.40476856603E+03  0.40476856604E+03  0.25500000000E-02 0.  1.
          2   -1    0    0  501    0  0.00000000000E+00 -0.00000000000E+00 -0.20186362007E+04  0.20186362007E+04  0.25500000000E-02 0. -1.
    8880023    1    1    2    0    0  0.50909056484E+03  0.75759546241E+02 -0.13072077398E+03  0.84605604960E+03  0.65864270000E+03 0.  0.
    8880022    1    1    2    0    0 -0.50909056484E+03 -0.75759546241E+02 -0.14831468607E+04  0.15773487171E+04  0.15294330000E+03 0.  0.
<mgrwt>
<rscale>  0 0.74833451E+03</rscale>
<asrwt>0</asrwt>
<pdfrwt beam="1">  1        2 0.31055941E+00 0.83589648E+03</pdfrwt>
<pdfrwt beam="2">  1       -2 0.62272088E-01 0.83589648E+03</pdfrwt>
<totfact> 0.15972220E+01</totfact>
</mgrwt>
</event>
<event>
 4    2  0.3855935E-007  0.8876155E+03  0.7818608E-02  0.9546213E-01
         -2   -1    0    0    0  501 -0.00000000000E+00  0.00000000000E+00  0.25939116237E+03  0.25939116239E+03  0.25500000000E-02 0.  1.
          2   -1    0    0  501    0  0.00000000000E+00 -0.00000000000E+00 -0.23506842606E+04  0.23506842606E+04  0.25500000000E-02 0. -1.
    8880023    1    1    2    0    0  0.54311392082E+03 -0.24306024506E+03 -0.86959876792E+03  0.12426034111E+04  0.65864270000E+03 0.  0.
    8880022    1    1    2    0    0 -0.54311392082E+03  0.24306024506E+03 -0.12216943303E+04  0.13674720119E+04  0.15294330000E+03 0.  0.
<mgrwt>
<rscale>  0 0.80960843E+03</rscale>
<asrwt>0</asrwt>
<pdfrwt beam="1">  1        2 0.36164372E+00 0.88761547E+03</pdfrwt>
<pdfrwt beam="2">  1       -2 0.39906334E-01 0.88761547E+03</pdfrwt>
<totfact> 0.25763843E+01</totfact>
</mgrwt>
</event>
<event>
 4    2  0.3855935E-007  0.9948472E+03  0.7818608E-02  0.9388330E-01
         -2   -1    0    0    0  501 -0.00000000000E+00  0.00000000000E+00  0.67970446051E+03  0.67970446052E+03  0.25500000000E-02 0.  1.
          2   -1    0    0  501    0  0.00000000000E+00 -0.00000000000E+00 -0.33192742087E+04  0.33192742087E+04  0.25500000000E-02 0. -1.
    8880023    1    1    2    0    0 -0.72408062820E+03  0.17781475646E+03  0.23760998499E+03  0.10228291915E+04  0.65864270000E+03 0.  1.
    8880022    1    1    2    0    0  0.72408062820E+03 -0.17781475646E+03 -0.28771797332E+04  0.29761494777E+04  0.15294330000E+03 0.  0.
<mgrwt>
<rscale>  0 0.93042309E+03</rscale>
<asrwt>0</asrwt>
<pdfrwt beam="1">  1        2 0.51065756E+00 0.99484725E+03</pdfrwt>
<pdfrwt beam="2">  1       -2 0.10456992E+00 0.99484725E+03</pdfrwt>
<totfact> 0.82569553E-01</totfact>
</mgrwt>
</event>
<event>
 4    2  0.3855935E-007  0.8104709E+03  0.7818608E-02  0.9688597E-01
         -2   -1    0    0    0  501 -0.00000000000E+00  0.00000000000E+00  0.43054473341E+03  0.43054473342E+03  0.25500000000E-02 0.  1.
          2   -1    0    0  501    0  0.00000000000E+00 -0.00000000000E+00 -0.13355124056E+04  0.13355124056E+04  0.25500000000E-02 0. -1.
    8880023    1    1    2    0    0 -0.44414841823E+03  0.16057711701E+03 -0.94943410463E+02  0.81601304241E+03  0.65864270000E+03 0.  0.
    8880022    1    1    2    0    0  0.44414841823E+03 -0.16057711701E+03 -0.81002426177E+03  0.95004409666E+03  0.15294330000E+03 0.  0.
<mgrwt>
<rscale>  0 0.71699800E+03</rscale>
<asrwt>0</asrwt>
<pdfrwt beam="1">  1        2 0.20546345E+00 0.81047087E+03</pdfrwt>
<pdfrwt beam="2">  1       -2 0.66237652E-01 0.81047087E+03</pdfrwt>
<totfact> 0.33508910E+01</totfact>
</mgrwt>
</event>
<event>
 4    2  0.3855935E-007  0.7168950E+03  0.7818608E-02  0.9933236E-01
          2   -1    0    0  501    0  0.00000000000E+00  0.00000000000E+00  0.12609343965E+04  0.12609343965E+04  0.25500000000E-02 0. -1.
         -2   -1    0    0    0  501 -0.00000000000E+00 -0.00000000000E+00 -0.28341335278E+03  0.28341335279E+03  0.25500000000E-02 0.  1.
    8880023    1    1    2    0    0 -0.28148460957E+03 -0.29911469720E+02  0.26811960850E+03  0.76539310957E+03  0.65864270000E+03 0.  1.
    8880022    1    1    2    0    0  0.28148460957E+03  0.29911469720E+02  0.70940143522E+03  0.77895463973E+03  0.15294330000E+03 0. -1.
<mgrwt>
<rscale>  0 0.58677240E+03</rscale>
<asrwt>0</asrwt>
<pdfrwt beam="1">  1        2 0.19398991E+00 0.71689503E+03</pdfrwt>
<pdfrwt beam="2">  1       -2 0.43602054E-01 0.71689503E+03</pdfrwt>
<totfact> 0.88593687E+01</totfact>
</mgrwt>
</event>
<event>
 4    2  0.3855935E-007  0.6783178E+03  0.7818608E-02  0.1010292E+00
         -2   -1    0    0    0  501 -0.00000000000E+00  0.00000000000E+00  0.79805113480E+03  0.79805113481E+03  0.25500000000E-02 0.  1.
          2   -1    0    0  501    0  0.00000000000E+00 -0.00000000000E+00 -0.10254103558E+04  0.10254103558E+04  0.25500000000E-02 0. -1.
    8880023    1    1    2    0    0 -0.66379428638E+02 -0.14798197214E+03  0.63717453943E+03  0.93064842588E+03  0.65864270000E+03 0.  1.
    8880022    1    1    2    0    0  0.66379428638E+02  0.14798197214E+03 -0.86453376042E+03  0.89281306473E+03  0.15294330000E+03 0.  0.
<mgrwt>
<rscale>  0 0.51358899E+03</rscale>
<asrwt>0</asrwt>
<pdfrwt beam="1">  1        2 0.15775544E+00 0.67831785E+03</pdfrwt>
<pdfrwt beam="2">  1       -2 0.12277710E+00 0.67831785E+03</pdfrwt>
<totfact> 0.12488552E+01</totfact>
</mgrwt>
</event>
<event>
 4    2  0.3855935E-007  0.8451919E+03  0.7818608E-02  0.9620467E-01
         -2   -1    0    0    0  501 -0.00000000000E+00  0.00000000000E+00  0.57835089108E+03  0.57835089108E+03  0.25500000000E-02 0.  1.
          2   -1    0    0  501    0  0.00000000000E+00 -0.00000000000E+00 -0.24077433298E+04  0.24077433298E+04  0.25500000000E-02 0. -1.
    8880023    1    1    2    0    0 -0.23707931302E+03 -0.47363754327E+03  0.21216158940E+03  0.87141371881E+03  0.65864270000E+03 0.  0.
    8880022    1    1    2    0    0  0.23707931302E+03  0.47363754327E+03 -0.20415540281E+04  0.21146805021E+04  0.15294330000E+03 0.  0.
<mgrwt>
<rscale>  0 0.75956217E+03</rscale>
<asrwt>0</asrwt>
<pdfrwt beam="1">  1        2 0.37042205E+00 0.84519189E+03</pdfrwt>
<pdfrwt beam="2">  1       -2 0.88977061E-01 0.84519189E+03</pdfrwt>
<totfact> 0.44001670E+00</totfact>
</mgrwt>
</event>
<event>
 4    2  0.3855935E-007  0.1663561E+04  0.7818608E-02  0.8802019E-01
          2   -1    0    0  501    0  0.00000000000E+00  0.00000000000E+00  0.50122905189E+04  0.50122905189E+04  0.25500000000E-02 0. -1.
         -2   -1    0    0    0  501 -0.00000000000E+00 -0.00000000000E+00 -0.75022935589E+03  0.75022935589E+03  0.25500000000E-02 0.  1.
    8880023    1    1    2    0    0  0.71248301023E+03 -0.13512932731E+04  0.56090127576E+03  0.17555756883E+04  0.65864270000E+03 0.  0.
    8880022    1    1    2    0    0 -0.71248301023E+03  0.13512932731E+04  0.37011598873E+04  0.40069441865E+04  0.15294330000E+03 0.  0.
<mgrwt>
<rscale>  0 0.16305136E+04</rscale>
<asrwt>0</asrwt>
<pdfrwt beam="1">  1        2 0.77112164E+00 0.16635612E+04</pdfrwt>
<pdfrwt beam="2">  1       -2 0.11541990E+00 0.16635612E+04</pdfrwt>
<totfact> 0.18717037E-02</totfact>
</mgrwt>
</event>
<event>
 4    2  0.3855935E-007  0.6652421E+03  0.7818608E-02  0.1019331E+00
          2   -1    0    0  501    0  0.00000000000E+00  0.00000000000E+00  0.10057983814E+04  0.10057983814E+04  0.25500000000E-02 0. -1.
         -2   -1    0    0    0  501 -0.00000000000E+00 -0.00000000000E+00 -0.11959721878E+04  0.11959721878E+04  0.25500000000E-02 0.  1.
    8880023    1    1    2    0    0 -0.71141358305E+02 -0.60627950926E+02 -0.10939772418E+04  0.12803645001E+04  0.65864270000E+03 0.  1.
    8880022    1    1    2    0    0  0.71141358305E+02  0.60627950926E+02  0.90380343541E+03  0.92140606910E+03  0.15294330000E+03 0.  0.
<mgrwt>
<rscale>  0 0.47928749E+03</rscale>
<asrwt>0</asrwt>
<pdfrwt beam="1">  1        2 0.15473821E+00 0.66524210E+03</pdfrwt>
<pdfrwt beam="2">  1       -2 0.18399572E+00 0.66524210E+03</pdfrwt>
<totfact> 0.43998518E+00</totfact>
</mgrwt>
</event>
<event>
 4    2  0.3855935E-007  0.6593030E+03  0.7818608E-02  0.1024882E+00
          2   -1    0    0  501    0  0.00000000000E+00  0.00000000000E+00  0.13796737832E+04  0.13796737832E+04  0.25500000000E-02 0. -1.
         -2   -1    0    0    0  501 -0.00000000000E+00 -0.00000000000E+00 -0.57270049209E+03  0.57270049209E+03  0.25500000000E-02 0.  1.
    8880023    1    1    2    0    0  0.26588912883E+02 -0.12776225754E+02 -0.37613897325E+03  0.75905265673E+03  0.65864270000E+03 0.  1.
    8880022    1    1    2    0    0 -0.26588912883E+02  0.12776225754E+02  0.11831122643E+04  0.11933216185E+04  0.15294330000E+03 0.  0.
<mgrwt>
<rscale>  0 0.45965213E+03</rscale>
<asrwt>0</asrwt>
<pdfrwt beam="1">  1        2 0.21225750E+00 0.65930297E+03</pdfrwt>
<pdfrwt beam="2">  1       -2 0.88107768E-01 0.65930297E+03</pdfrwt>
<totfact> 0.17061129E+01</totfact>
</mgrwt>
</event>
<event>
 4    2  0.3855935E-007  0.8176028E+03  0.7818608E-02  0.9673953E-01
         -2   -1    0    0    0  501 -0.00000000000E+00  0.00000000000E+00  0.78595060125E+03  0.78595060125E+03  0.25500000000E-02 0.  1.
          2   -1    0    0  501    0  0.00000000000E+00 -0.00000000000E+00 -0.11648970382E+04  0.11648970382E+04  0.25500000000E-02 0. -1.
    8880023    1    1    2    0    0 -0.47534163834E+03 -0.93351368932E+02  0.48353401194E+03  0.94988393932E+03  0.65864270000E+03 0.  1.
    8880022    1    1    2    0    0  0.47534163834E+03  0.93351368932E+02 -0.86248044885E+03  0.10009637001E+04  0.15294330000E+03 0.  0.
<mgrwt>
<rscale>  0 0.72589029E+03</rscale>
<asrwt>0</asrwt>
<pdfrwt beam="1">  1        2 0.17921493E+00 0.81760281E+03</pdfrwt>
<pdfrwt beam="2">  1       -2 0.12091548E+00 0.81760281E+03</pdfrwt>
<totfact> 0.10476573E+01</totfact>
</mgrwt>
</event>
<event>
 4    2  0.3855935E-007  0.7489656E+03  0.7818608E-02  0.9834561E-01
          2   -1    0    0  501    0  0.00000000000E+00  0.00000000000E+00  0.21913435319E+04  0.21913435319E+04  0.25500000000E-02 0. -1.
         -2   -1    0    0    0  501 -0.00000000000E+00 -0.00000000000E+00 -0.36574787002E+03  0.36574787003E+03  0.25500000000E-02 0.  1.
    8880023    1    1    2    0    0 -0.66694664960E+02 -0.35027283281E+03  0.62228961753E+02  0.75154632970E+03  0.65864270000E+03 0.  1.
    8880022    1    1    2    0    0  0.66694664960E+02  0.35027283281E+03  0.17633667001E+04  0.18055450722E+04  0.15294330000E+03 0.  0.
<mgrwt>
<rscale>  0 0.63540349E+03</rscale>
<asrwt>0</asrwt>
<pdfrwt beam="1">  1        2 0.33712977E+00 0.74896558E+03</pdfrwt>
<pdfrwt beam="2">  1       -2 0.56268904E-01 0.74896558E+03</pdfrwt>
<totfact> 0.16088273E+01</totfact>
</mgrwt>
</event>
<event>
 4    2  0.3855935E-007  0.1238680E+04  0.7818608E-02  0.9120410E-01
         -2   -1    0    0    0  501 -0.00000000000E+00  0.00000000000E+00  0.88134877024E+03  0.88134877024E+03  0.25500000000E-02 0.  1.
          2   -1    0    0  501    0  0.00000000000E+00 -0.00000000000E+00 -0.16473445025E+04  0.16473445025E+04  0.25500000000E-02 0. -1.
    8880023    1    1    2    0    0 -0.97260550469E+03 -0.39313691607E+03 -0.31708631234E+02  0.12390858510E+04  0.65864270000E+03 0.  0.
    8880022    1    1    2    0    0  0.97260550469E+03  0.39313691607E+03 -0.73428710103E+03  0.12896074218E+04  0.15294330000E+03 0.  0.
<mgrwt>
<rscale>  0 0.11914088E+04</rscale>
<asrwt>0</asrwt>
<pdfrwt beam="1">  1        2 0.25343761E+00 0.12386801E+04</pdfrwt>
<pdfrwt beam="2">  1       -2 0.13559212E+00 0.12386801E+04</pdfrwt>
<totfact> 0.39694348E+00</totfact>
</mgrwt>
</event>
<event>
 4    2  0.3855935E-007  0.6893108E+03  0.7818608E-02  0.1004482E+00
         -2   -1    0    0    0  501 -0.00000000000E+00  0.00000000000E+00  0.27015215774E+03  0.27015215776E+03  0.25500000000E-02 0.  1.
          2   -1    0    0  501    0  0.00000000000E+00 -0.00000000000E+00 -0.92927601821E+03  0.92927601821E+03  0.25500000000E-02 0. -1.
    8880023    1    1    2    0    0 -0.13048544084E+03  0.15592544503E+03 -0.64594221606E+03  0.94466435703E+03  0.65864270000E+03 0. -1.
    8880022    1    1    2    0    0  0.13048544084E+03 -0.15592544503E+03 -0.13181644396E+02  0.25476381894E+03  0.15294330000E+03 0.  0.
<mgrwt>
<rscale>  0 0.53727945E+03</rscale>
<asrwt>0</asrwt>
<pdfrwt beam="1">  1        2 0.14296554E+00 0.68931082E+03</pdfrwt>
<pdfrwt beam="2">  1       -2 0.41561871E-01 0.68931082E+03</pdfrwt>
<totfact> 0.15602683E+02</totfact>
</mgrwt>
</event>
<event>
 4    2  0.3855935E-007  0.8814424E+03  0.7818608E-02  0.9556504E-01
         -2   -1    0    0    0  501 -0.00000000000E+00  0.00000000000E+00  0.61918683521E+03  0.61918683521E+03  0.25500000000E-02 0.  1.
          2   -1    0    0  501    0  0.00000000000E+00 -0.00000000000E+00 -0.11737814362E+04  0.11737814362E+04  0.25500000000E-02 0. -1.
    8880023    1    1    2    0    0  0.58567165505E+03 -0.10919115630E+02  0.11654643328E+03  0.88911404892E+03  0.65864270000E+03 0.  0.
    8880022    1    1    2    0    0 -0.58567165505E+03  0.10919115630E+02 -0.67114103428E+03  0.90385422250E+03  0.15294330000E+03 0.  0.
<mgrwt>
<rscale>  0 0.80243153E+03</rscale>
<asrwt>0</asrwt>
<pdfrwt beam="1">  1        2 0.18058176E+00 0.88144241E+03</pdfrwt>
<pdfrwt beam="2">  1       -2 0.95259513E-01 0.88144241E+03</pdfrwt>
<totfact> 0.18280323E+01</totfact>
</mgrwt>
</event>
<event>
 4    2  0.3855935E-007  0.1270524E+04  0.7818608E-02  0.9091442E-01
          2   -1    0    0  501    0  0.00000000000E+00  0.00000000000E+00  0.17982314648E+04  0.17982314648E+04  0.25500000000E-02 0. -1.
         -2   -1    0    0    0  501 -0.00000000000E+00 -0.00000000000E+00 -0.15222690464E+04  0.15222690464E+04  0.25500000000E-02 0.  1.
    8880023    1    1    2    0    0  0.47857090765E+03 -0.97539227234E+03 -0.10150707708E+04  0.16262223324E+04  0.65864270000E+03 0.  1.
    8880022    1    1    2    0    0 -0.47857090765E+03  0.97539227234E+03  0.12910331892E+04  0.16942781788E+04  0.15294330000E+03 0.  0.
<mgrwt>
<rscale>  0 0.12247766E+04</rscale>
<asrwt>0</asrwt>
<pdfrwt beam="1">  1        2 0.27665099E+00 0.12705237E+04</pdfrwt>
<pdfrwt beam="2">  1       -2 0.23419524E+00 0.12705237E+04</pdfrwt>
<totfact> 0.67012511E-01</totfact>
</mgrwt>
</event>
<event>
 4    2  0.3855935E-007  0.6733212E+03  0.7818608E-02  0.1013386E+00
         -2   -1    0    0    0  501 -0.00000000000E+00  0.00000000000E+00  0.27532511226E+03  0.27532511228E+03  0.25500000000E-02 0.  1.
          2   -1    0    0  501    0  0.00000000000E+00 -0.00000000000E+00 -0.95454400159E+03  0.95454400160E+03  0.25500000000E-02 0. -1.
    8880023    1    1    2    0    0  0.83210715374E+02 -0.11237106295E+03 -0.19161220916E+03  0.70005480064E+03  0.65864270000E+03 0.  1.
    8880022    1    1    2    0    0 -0.83210715374E+02  0.11237106295E+03 -0.48760668017E+03  0.52981431323E+03  0.15294330000E+03 0.  0.
<mgrwt>
<rscale>  0 0.50150838E+03</rscale>
<asrwt>0</asrwt>
<pdfrwt beam="1">  1        2 0.14685292E+00 0.67332123E+03</pdfrwt>
<pdfrwt beam="2">  1       -2 0.42357710E-01 0.67332123E+03</pdfrwt>
<totfact> 0.14485840E+02</totfact>
</mgrwt>
</event>
<event>
 4    2  0.3855935E-007  0.6655712E+03  0.7818608E-02  0.1019059E+00
         -2   -1    0    0    0  501 -0.00000000000E+00  0.00000000000E+00  0.16131809046E+04  0.16131809046E+04  0.25500000000E-02 0.  1.
          2   -1    0    0  501    0  0.00000000000E+00 -0.00000000000E+00 -0.11315536021E+04  0.11315536021E+04  0.25500000000E-02 0. -1.
    8880023    1    1    2    0    0 -0.38667188560E+02 -0.87633906488E+02  0.15365402448E+04  0.16744972330E+04  0.65864270000E+03 0.  1.
    8880022    1    1    2    0    0  0.38667188560E+02  0.87633906488E+02 -0.10549129423E+04  0.10702372737E+04  0.15294330000E+03 0.  0.
<mgrwt>
<rscale>  0 0.48027757E+03</rscale>
<asrwt>0</asrwt>
<pdfrwt beam="1">  1        2 0.17408517E+00 0.66557123E+03</pdfrwt>
<pdfrwt beam="2">  1       -2 0.24818168E+00 0.66557123E+03</pdfrwt>
<totfact> 0.14456319E+00</totfact>
</mgrwt>
</event>
<event>
 4    2  0.3855935E-007  0.1016335E+04  0.7818608E-02  0.9360492E-01
          2   -1    0    0  501    0  0.00000000000E+00  0.00000000000E+00  0.53397611994E+03  0.53397611995E+03  0.25500000000E-02 0. -1.
         -2   -1    0    0    0  501 -0.00000000000E+00 -0.00000000000E+00 -0.17281819474E+04  0.17281819474E+04  0.25500000000E-02 0.  1.
    8880023    1    1    2    0    0  0.72588104817E+03  0.26874357701E+03 -0.10477216636E+04  0.14596771208E+04  0.65864270000E+03 0.  0.
    8880022    1    1    2    0    0 -0.72588104817E+03 -0.26874357701E+03 -0.14648416380E+03  0.80248094652E+03  0.15294330000E+03 0.  0.
<mgrwt>
<rscale>  0 0.95399615E+03</rscale>
<asrwt>0</asrwt>
<pdfrwt beam="1">  1        2 0.82150173E-01 0.10163349E+04</pdfrwt>
<pdfrwt beam="2">  1       -2 0.26587414E+00 0.10163349E+04</pdfrwt>
<totfact> 0.29283638E+00</totfact>
</mgrwt>
</event>
<event>
 4    2  0.3855935E-007  0.6773916E+03  0.7818608E-02  0.1010839E+00
         -2   -1    0    0    0  501 -0.00000000000E+00  0.00000000000E+00  0.49610929907E+03  0.49610929908E+03  0.25500000000E-02 0.  1.
          2   -1    0    0  501    0  0.00000000000E+00 -0.00000000000E+00 -0.93212027178E+03  0.93212027179E+03  0.25500000000E-02 0. -1.
    8880023    1    1    2    0    0 -0.11834292882E+03  0.10509127569E+03  0.23894186617E+03  0.71829843846E+03  0.65864270000E+03 0.  0.
    8880022    1    1    2    0    0  0.11834292882E+03 -0.10509127569E+03 -0.67495283888E+03  0.70993113240E+03  0.15294330000E+03 0.  0.
<mgrwt>
<rscale>  0 0.51142432E+03</rscale>
<asrwt>0</asrwt>
<pdfrwt beam="1">  1        2 0.14340312E+00 0.67739164E+03</pdfrwt>
<pdfrwt beam="2">  1       -2 0.76324508E-01 0.67739164E+03</pdfrwt>
<totfact> 0.43783698E+01</totfact>
</mgrwt>
</event>
<event>
 4    2  0.3855935E-007  0.1104274E+04  0.7818608E-02  0.9256312E-01
         -2   -1    0    0    0  501 -0.00000000000E+00  0.00000000000E+00  0.10071681040E+04  0.10071681040E+04  0.25500000000E-02 0.  1.
          2   -1    0    0  501    0  0.00000000000E+00 -0.00000000000E+00 -0.14724944728E+04  0.14724944728E+04  0.25500000000E-02 0. -1.
    8880023    1    1    2    0    0 -0.66619004637E+03 -0.58463867932E+03  0.45359862635E+03  0.11938063006E+04  0.65864270000E+03 0.  1.
    8880022    1    1    2    0    0  0.66619004637E+03  0.58463867932E+03 -0.91892499515E+03  0.12858562762E+04  0.15294330000E+03 0.  0.
<mgrwt>
<rscale>  0 0.10490629E+04</rscale>
<asrwt>0</asrwt>
<pdfrwt beam="1">  1        2 0.22653761E+00 0.11042743E+04</pdfrwt>
<pdfrwt beam="2">  1       -2 0.15494894E+00 0.11042743E+04</pdfrwt>
<totfact> 0.35467956E+00</totfact>
</mgrwt>
</event>
<event>
 4    2  0.3855935E-007  0.7820384E+03  0.7818608E-02  0.9751070E-01
         -2   -1    0    0    0  501 -0.00000000000E+00  0.00000000000E+00  0.17230410610E+03  0.17230410612E+03  0.25500000000E-02 0.  1.
          2   -1    0    0  501    0  0.00000000000E+00 -0.00000000000E+00 -0.28097905151E+04  0.28097905151E+04  0.25500000000E-02 0. -1.
    8880023    1    1    2    0    0  0.41345212337E+03 -0.82651174674E+02 -0.92224185304E+03  0.12091791086E+04  0.65864270000E+03 0.  0.
    8880022    1    1    2    0    0 -0.41345212337E+03  0.82651174674E+02 -0.17152445559E+04  0.17729155125E+04  0.15294330000E+03 0.  0.
<mgrwt>
<rscale>  0 0.68055818E+03</rscale>
<asrwt>0</asrwt>
<pdfrwt beam="1">  1        2 0.43227543E+00 0.78203841E+03</pdfrwt>
<pdfrwt beam="2">  1       -2 0.26508326E-01 0.78203841E+03</pdfrwt>
<totfact> 0.30755597E+01</totfact>
</mgrwt>
</event>
<event>
 4    2  0.3855935E-007  0.8134966E+03  0.7818608E-02  0.9682339E-01
          2   -1    0    0  501    0  0.00000000000E+00  0.00000000000E+00  0.69699494136E+03  0.69699494137E+03  0.25500000000E-02 0. -1.
         -2   -1    0    0    0  501 -0.00000000000E+00 -0.00000000000E+00 -0.14546623598E+04  0.14546623598E+04  0.25500000000E-02 0.  1.
    8880023    1    1    2    0    0 -0.47373346610E+03 -0.59524625305E+02 -0.12221970080E+04  0.14681765257E+04  0.65864270000E+03 0.  0.
    8880022    1    1    2    0    0  0.47373346610E+03  0.59524625305E+02  0.46452958955E+03  0.68348077551E+03  0.15294330000E+03 0.  0.
<mgrwt>
<rscale>  0 0.72078122E+03</rscale>
<asrwt>0</asrwt>
<pdfrwt beam="1">  1        2 0.10722999E+00 0.81349664E+03</pdfrwt>
<pdfrwt beam="2">  1       -2 0.22379421E+00 0.81349664E+03</pdfrwt>
<totfact> 0.39170332E+00</totfact>
</mgrwt>
</event>
<event>
 4    2  0.3855935E-007  0.7630293E+03  0.7818608E-02  0.9797327E-01
          2   -1    0    0  501    0  0.00000000000E+00  0.00000000000E+00  0.95837306597E+03  0.95837306597E+03  0.25500000000E-02 0. -1.
         -2   -1    0    0    0  501 -0.00000000000E+00 -0.00000000000E+00 -0.53862262397E+03  0.53862262398E+03  0.25500000000E-02 0.  1.
    8880023    1    1    2    0    0 -0.29741988828E+03  0.24483642712E+03 -0.16459274306E+03  0.78057955604E+03  0.65864270000E+03 0.  0.
    8880022    1    1    2    0    0  0.29741988828E+03 -0.24483642712E+03  0.58434318506E+03  0.71641613391E+03  0.15294330000E+03 0.  0.
<mgrwt>
<rscale>  0 0.65506177E+03</rscale>
<asrwt>0</asrwt>
<pdfrwt beam="1">  1        2 0.14744201E+00 0.76302927E+03</pdfrwt>
<pdfrwt beam="2">  1       -2 0.82865020E-01 0.76302927E+03</pdfrwt>
<totfact> 0.34713770E+01</totfact>
</mgrwt>
</event>
<event>
 4    2  0.3855935E-007  0.6589476E+03  0.7818608E-02  0.1025261E+00
          2   -1    0    0  501    0  0.00000000000E+00  0.00000000000E+00  0.31529606482E+03  0.31529606483E+03  0.25500000000E-02 0. -1.
         -2   -1    0    0    0  501 -0.00000000000E+00 -0.00000000000E+00 -0.19034584202E+04  0.19034584202E+04  0.25500000000E-02 0.  1.
    8880023    1    1    2    0    0 -0.18184210490E+02 -0.84320869322E+01 -0.18226341814E+04  0.19380937364E+04  0.65864270000E+03 0.  1.
    8880022    1    1    2    0    0  0.18184210490E+02  0.84320869322E+01  0.23447182602E+03  0.28066074862E+03  0.15294330000E+03 0.  0.
<mgrwt>
<rscale>  0 0.45834793E+03</rscale>
<asrwt>0</asrwt>
<pdfrwt beam="1">  1        2 0.48507088E-01 0.65894762E+03</pdfrwt>
<pdfrwt beam="2">  1       -2 0.29283975E+00 0.65894762E+03</pdfrwt>
<totfact> 0.38400946E+00</totfact>
</mgrwt>
</event>
<event>
 4    2  0.3855935E-007  0.7088581E+03  0.7818608E-02  0.9962266E-01
         -2   -1    0    0    0  501 -0.00000000000E+00  0.00000000000E+00  0.40919816270E+03  0.40919816271E+03  0.25500000000E-02 0.  1.
          2   -1    0    0  501    0  0.00000000000E+00 -0.00000000000E+00 -0.66907148686E+03  0.66907148687E+03  0.25500000000E-02 0. -1.
    8880023    1    1    2    0    0  0.61511235545E+02 -0.25472722886E+03 -0.52585179506E+02  0.71080588109E+03  0.65864270000E+03 0.  0.
    8880022    1    1    2    0    0 -0.61511235545E+02  0.25472722886E+03 -0.20728814465E+03  0.36746376849E+03  0.15294330000E+03 0. -1.
<mgrwt>
<rscale>  0 0.57336223E+03</rscale>
<asrwt>0</asrwt>
<pdfrwt beam="1">  1        2 0.10293408E+00 0.70885810E+03</pdfrwt>
<pdfrwt beam="2">  1       -2 0.62953563E-01 0.70885810E+03</pdfrwt>
<totfact> 0.10285885E+02</totfact>
</mgrwt>
</event>
<event>
 4    2  0.3855935E-007  0.7192979E+03  0.7818608E-02  0.9924969E-01
          2   -1    0    0  501    0  0.00000000000E+00  0.00000000000E+00  0.41304801102E+03  0.41304801103E+03  0.25500000000E-02 0. -1.
         -2   -1    0    0    0  501 -0.00000000000E+00 -0.00000000000E+00 -0.75636455211E+03  0.75636455211E+03  0.25500000000E-02 0.  1.
    8880023    1    1    2    0    0  0.28312728393E+03 -0.58465010511E+02 -0.42073442754E+03  0.83331079505E+03  0.65864270000E+03 0.  0.
    8880022    1    1    2    0    0 -0.28312728393E+03  0.58465010511E+02  0.77417886453E+02  0.33610176810E+03  0.15294330000E+03 0.  0.
<mgrwt>
<rscale>  0 0.59066300E+03</rscale>
<asrwt>0</asrwt>
<pdfrwt beam="1">  1        2 0.63545848E-01 0.71929787E+03</pdfrwt>
<pdfrwt beam="2">  1       -2 0.11636378E+00 0.71929787E+03</pdfrwt>
<totfact> 0.44521015E+01</totfact>
</mgrwt>
</event>
<event>
 4    2  0.3855935E-007  0.9301543E+03  0.7818608E-02  0.9479262E-01
          2   -1    0    0  501    0  0.00000000000E+00  0.00000000000E+00  0.14443329737E+04  0.14443329737E+04  0.25500000000E-02 0. -1.
         -2   -1    0    0    0  501 -0.00000000000E+00 -0.00000000000E+00 -0.44719427777E+03  0.44719427778E+03  0.25500000000E-02 0.  1.
    8880023    1    1    2    0    0 -0.64610338660E+03  0.11801331785E+03  0.52233391518E+03  0.10667800404E+04  0.65864270000E+03 0.  1.
    8880022    1    1    2    0    0  0.64610338660E+03 -0.11801331785E+03  0.47480478075E+03  0.82474721109E+03  0.15294330000E+03 0. -1.
<mgrwt>
<rscale>  0 0.85830178E+03</rscale>
<asrwt>0</asrwt>
<pdfrwt beam="1">  1        2 0.22220507E+00 0.93015425E+03</pdfrwt>
<pdfrwt beam="2">  1       -2 0.68799121E-01 0.93015425E+03</pdfrwt>
<totfact> 0.26454635E+01</totfact>
</mgrwt>
</event>
<event>
 4    2  0.3855935E-007  0.7821279E+03  0.7818608E-02  0.9750862E-01
          2   -1    0    0  501    0  0.00000000000E+00  0.00000000000E+00  0.29882219724E+04  0.29882219724E+04  0.25500000000E-02 0. -1.
         -2   -1    0    0    0  501 -0.00000000000E+00 -0.00000000000E+00 -0.25348503711E+03  0.25348503712E+03  0.25500000000E-02 0.  1.
    8880023    1    1    2    0    0  0.42168484662E+03 -0.97815185999E+01  0.42767158088E+03  0.89141851861E+03  0.65864270000E+03 0.  1.
    8880022    1    1    2    0    0 -0.42168484662E+03  0.97815185999E+01  0.23070653544E+04  0.23502884909E+04  0.15294330000E+03 0.  0.
<mgrwt>
<rscale>  0 0.68067572E+03</rscale>
<asrwt>0</asrwt>
<pdfrwt beam="1">  1        2 0.45972647E+00 0.78212786E+03</pdfrwt>
<pdfrwt beam="2">  1       -2 0.38997697E-01 0.78212786E+03</pdfrwt>
<totfact> 0.11625417E+01</totfact>
</mgrwt>
</event>
<event>
 4    2  0.3855935E-007  0.1375160E+04  0.7818608E-02  0.9003228E-01
          2   -1    0    0  501    0  0.00000000000E+00  0.00000000000E+00  0.32015072351E+04  0.32015072351E+04  0.25500000000E-02 0. -1.
         -2   -1    0    0    0  501 -0.00000000000E+00 -0.00000000000E+00 -0.13014559245E+04  0.13014559245E+04  0.25500000000E-02 0.  1.
    8880023    1    1    2    0    0  0.70687740949E+03  0.97855976956E+03  0.27115824608E+04  0.30403527004E+04  0.65864270000E+03 0.  0.
    8880022    1    1    2    0    0 -0.70687740949E+03 -0.97855976956E+03 -0.81153115021E+03  0.14626104592E+04  0.15294330000E+03 0.  0.
<mgrwt>
<rscale>  0 0.13337405E+04</rscale>
<asrwt>0</asrwt>
<pdfrwt beam="1">  1        2 0.49253958E+00 0.13751600E+04</pdfrwt>
<pdfrwt beam="2">  1       -2 0.20022399E+00 0.13751600E+04</pdfrwt>
<totfact> 0.16473510E-01</totfact>
</mgrwt>
</event>
<event>
 4    2  0.3855935E-007  0.6838068E+03  0.7818608E-02  0.1007247E+00
          2   -1    0    0  501    0  0.00000000000E+00  0.00000000000E+00  0.66106245533E+03  0.66106245534E+03  0.25500000000E-02 0. -1.
         -2   -1    0    0    0  501 -0.00000000000E+00 -0.00000000000E+00 -0.46746535236E+03  0.46746535237E+03  0.25500000000E-02 0.  1.
    8880023    1    1    2    0    0  0.18089176469E+03 -0.32552038301E+02 -0.15942981385E+03  0.70214637900E+03  0.65864270000E+03 0.  1.
    8880022    1    1    2    0    0 -0.18089176469E+03  0.32552038301E+02  0.35302691683E+03  0.42638142871E+03  0.15294330000E+03 0.  0.
<mgrwt>
<rscale>  0 0.52583444E+03</rscale>
<asrwt>0</asrwt>
<pdfrwt beam="1">  1        2 0.10170192E+00 0.68380675E+03</pdfrwt>
<pdfrwt beam="2">  1       -2 0.71917747E-01 0.68380675E+03</pdfrwt>
<totfact> 0.78424436E+01</totfact>
</mgrwt>
</event>
<event>
 4    2  0.3855935E-007  0.6946944E+03  0.7818608E-02  0.1001997E+00
         -2   -1    0    0    0  501 -0.00000000000E+00  0.00000000000E+00  0.32383791871E+03  0.32383791872E+03  0.25500000000E-02 0.  1.
          2   -1    0    0  501    0  0.00000000000E+00 -0.00000000000E+00 -0.72872818356E+03  0.72872818357E+03  0.25500000000E-02 0. -1.
    8880023    1    1    2    0    0  0.22059546685E+03  0.11302246991E+02 -0.35184160079E+03  0.77871228261E+03  0.65864270000E+03 0. -1.
    8880022    1    1    2    0    0 -0.22059546685E+03 -0.11302246991E+02 -0.53048664055E+02  0.27385381968E+03  0.15294330000E+03 0.  1.
<mgrwt>
<rscale>  0 0.54783374E+03</rscale>
<asrwt>0</asrwt>
<pdfrwt beam="1">  1        2 0.11211203E+00 0.69469440E+03</pdfrwt>
<pdfrwt beam="2">  1       -2 0.49821218E-01 0.69469440E+03</pdfrwt>
<totfact> 0.15043173E+02</totfact>
</mgrwt>
</event>
<event>
 4    2  0.3855935E-007  0.8722416E+03  0.7818608E-02  0.9572148E-01
         -2   -1    0    0    0  501 -0.00000000000E+00  0.00000000000E+00  0.97900420285E+03  0.97900420285E+03  0.25500000000E-02 0.  1.
          2   -1    0    0  501    0  0.00000000000E+00 -0.00000000000E+00 -0.72208518707E+03  0.72208518708E+03  0.25500000000E-02 0. -1.
    8880023    1    1    2    0    0 -0.54309035726E+03  0.17901971936E+03  0.55953706893E+03  0.10362852570E+04  0.65864270000E+03 0.  1.
    8880022    1    1    2    0    0  0.54309035726E+03 -0.17901971936E+03 -0.30261805315E+03  0.66480413295E+03  0.15294330000E+03 0.  0.
<mgrwt>
<rscale>  0 0.79167343E+03</rscale>
<asrwt>0</asrwt>
<pdfrwt beam="1">  1        2 0.11109003E+00 0.87224160E+03</pdfrwt>
<pdfrwt beam="2">  1       -2 0.15061603E+00 0.87224160E+03</pdfrwt>
<totfact> 0.11710244E+01</totfact>
</mgrwt>
</event>
<event>
 4    2  0.3855935E-007  0.1003720E+04  0.7818608E-02  0.9376706E-01
         -2   -1    0    0    0  501 -0.00000000000E+00  0.00000000000E+00  0.57331421626E+03  0.57331421626E+03  0.25500000000E-02 0.  1.
          2   -1    0    0  501    0  0.00000000000E+00 -0.00000000000E+00 -0.18236190265E+04  0.18236190265E+04  0.25500000000E-02 0. -1.
    8880023    1    1    2    0    0 -0.73958359325E+03  0.16328101847E+03 -0.96565954433E+02  0.10083549832E+04  0.65864270000E+03 0.  0.
    8880022    1    1    2    0    0  0.73958359325E+03 -0.16328101847E+03 -0.11537388558E+04  0.13885782595E+04  0.15294330000E+03 0.  0.
<mgrwt>
<rscale>  0 0.94017711E+03</rscale>
<asrwt>0</asrwt>
<pdfrwt beam="1">  1        2 0.28055677E+00 0.10037205E+04</pdfrwt>
<pdfrwt beam="2">  1       -2 0.88202188E-01 0.10037205E+04</pdfrwt>
<totfact> 0.92588927E+00</totfact>
</mgrwt>
</event>
<event>
 4    2  0.3855935E-007  0.8621090E+03  0.7818608E-02  0.9589823E-01
          2   -1    0    0  501    0  0.00000000000E+00  0.00000000000E+00  0.35616570410E+03  0.35616570411E+03  0.25500000000E-02 0. -1.
         -2   -1    0    0    0  501 -0.00000000000E+00 -0.00000000000E+00 -0.14947489722E+04  0.14947489722E+04  0.25500000000E-02 0.  1.
    8880023    1    1    2    0    0  0.16033320863E+03  0.53264898060E+03 -0.82978447831E+03  0.11965676584E+04  0.65864270000E+03 0.  1.
    8880022    1    1    2    0    0 -0.16033320863E+03 -0.53264898060E+03 -0.30879878979E+03  0.65434701796E+03  0.15294330000E+03 0. -1.
<mgrwt>
<rscale>  0 0.77973443E+03</rscale>
<asrwt>0</asrwt>
<pdfrwt beam="1">  1        2 0.54794724E-01 0.86210897E+03</pdfrwt>
<pdfrwt beam="2">  1       -2 0.22996138E+00 0.86210897E+03</pdfrwt>
<totfact> 0.78436986E+00</totfact>
</mgrwt>
</event>
<event>
 4    2  0.3855935E-007  0.7179936E+03  0.7818608E-02  0.9929434E-01
         -2   -1    0    0    0  501 -0.00000000000E+00  0.00000000000E+00  0.48849171891E+03  0.48849171892E+03  0.25500000000E-02 0.  1.
          2   -1    0    0  501    0  0.00000000000E+00 -0.00000000000E+00 -0.19285907318E+04  0.19285907319E+04  0.25500000000E-02 0. -1.
    8880023    1    1    2    0    0 -0.20796720211E+03 -0.19609772397E+03  0.19993763327E+03  0.74531197358E+03  0.65864270000E+03 0.  1.
    8880022    1    1    2    0    0  0.20796720211E+03  0.19609772397E+03 -0.16400366462E+04  0.16717704772E+04  0.15294330000E+03 0.  0.
<mgrwt>
<rscale>  0 0.58855750E+03</rscale>
<asrwt>0</asrwt>
<pdfrwt beam="1">  1        2 0.29670626E+00 0.71799365E+03</pdfrwt>
<pdfrwt beam="2">  1       -2 0.75152573E-01 0.71799365E+03</pdfrwt>
<totfact> 0.12083997E+01</totfact>
</mgrwt>
</event>
<event>
 4    2  0.3855935E-007  0.9156556E+03  0.7818608E-02  0.9501353E-01
         -2   -1    0    0    0  501 -0.00000000000E+00  0.00000000000E+00  0.13033905980E+04  0.13033905980E+04  0.25500000000E-02 0.  1.
          2   -1    0    0  501    0  0.00000000000E+00 -0.00000000000E+00 -0.10515976341E+04  0.10515976341E+04  0.25500000000E-02 0. -1.
    8880023    1    1    2    0    0  0.63605341727E+03 -0.71478351880E+01  0.10034935490E+04  0.13584640408E+04  0.65864270000E+03 0.  1.
    8880022    1    1    2    0    0 -0.63605341727E+03  0.71478351880E+01 -0.75170058504E+03  0.99652419125E+03  0.15294330000E+03 0.  0.
<mgrwt>
<rscale>  0 0.84184173E+03</rscale>
<asrwt>0</asrwt>
<pdfrwt beam="1">  1        2 0.16178425E+00 0.91565564E+03</pdfrwt>
<pdfrwt beam="2">  1       -2 0.20052163E+00 0.91565564E+03</pdfrwt>
<totfact> 0.30880632E+00</totfact>
</mgrwt>
</event>
<event>
 4    2  0.3855935E-007  0.8729400E+03  0.7818608E-02  0.9570948E-01
          2   -1    0    0  501    0  0.00000000000E+00  0.00000000000E+00  0.88021553542E+03  0.88021553543E+03  0.25500000000E-02 0. -1.
         -2   -1    0    0    0  501 -0.00000000000E+00 -0.00000000000E+00 -0.61908935506E+03  0.61908935506E+03  0.25500000000E-02 0.  1.
    8880023    1    1    2    0    0  0.54375742010E+03 -0.18039359606E+03  0.24272004774E+03  0.90605585328E+03  0.65864270000E+03 0.  1.
    8880022    1    1    2    0    0 -0.54375742010E+03  0.18039359606E+03  0.18406132621E+02  0.59324903721E+03  0.15294330000E+03 0. -1.
<mgrwt>
<rscale>  0 0.79249268E+03</rscale>
<asrwt>0</asrwt>
<pdfrwt beam="1">  1        2 0.13541777E+00 0.87293997E+03</pdfrwt>
<pdfrwt beam="2">  1       -2 0.95244517E-01 0.87293997E+03</pdfrwt>
<totfact> 0.28139057E+01</totfact>
</mgrwt>
</event>
<event>
 4    2  0.3855935E-007  0.6778757E+03  0.7818608E-02  0.1010552E+00
          2   -1    0    0  501    0  0.00000000000E+00  0.00000000000E+00  0.27903089604E+04  0.27903089604E+04  0.25500000000E-02 0. -1.
         -2   -1    0    0    0  501 -0.00000000000E+00 -0.00000000000E+00 -0.12386427369E+03  0.12386427371E+03  0.25500000000E-02 0.  1.
    8880023    1    1    2    0    0  0.15729576023E+03 -0.31036772585E+02  0.86412360973E+03  0.10982827762E+04  0.65864270000E+03 0.  1.
    8880022    1    1    2    0    0 -0.15729576023E+03  0.31036772585E+02  0.18023210770E+04  0.18158904579E+04  0.15294330000E+03 0.  0.
<mgrwt>
<rscale>  0 0.51255950E+03</rscale>
<asrwt>0</asrwt>
<pdfrwt beam="1">  1        2 0.42927824E+00 0.67787568E+03</pdfrwt>
<pdfrwt beam="2">  1       -2 0.19056045E-01 0.67787568E+03</pdfrwt>
<totfact> 0.57666232E+01</totfact>
</mgrwt>
</event>
<event>
 4    2  0.3855935E-007  0.7948325E+03  0.7818608E-02  0.9722083E-01
          2   -1    0    0  501    0  0.00000000000E+00  0.00000000000E+00  0.40433467988E+03  0.40433467989E+03  0.25500000000E-02 0. -1.
         -2   -1    0    0    0  501 -0.00000000000E+00 -0.00000000000E+00 -0.10146156091E+04  0.10146156091E+04  0.25500000000E-02 0.  1.
    8880023    1    1    2    0    0  0.29977408858E+03 -0.32876122129E+03 -0.48860579623E+03  0.93300282700E+03  0.65864270000E+03 0.  0.
    8880022    1    1    2    0    0 -0.29977408858E+03  0.32876122129E+03 -0.12167513298E+03  0.48594746199E+03  0.15294330000E+03 0.  0.
<mgrwt>
<rscale>  0 0.69717084E+03</rscale>
<asrwt>0</asrwt>
<pdfrwt beam="1">  1        2 0.62205336E-01 0.79483247E+03</pdfrwt>
<pdfrwt beam="2">  1       -2 0.15609471E+00 0.79483247E+03</pdfrwt>
<totfact> 0.21366177E+01</totfact>
</mgrwt>
</event>
<event>
 4    2  0.3855935E-007  0.8608499E+03  0.7818608E-02  0.9592053E-01
         -2   -1    0    0    0  501 -0.00000000000E+00  0.00000000000E+00  0.32533936547E+03  0.32533936548E+03  0.25500000000E-02 0.  1.
          2   -1    0    0  501    0  0.00000000000E+00 -0.00000000000E+00 -0.16049163164E+04  0.16049163164E+04  0.25500000000E-02 0. -1.
    8880023    1    1    2    0    0 -0.22405546665E+03 -0.50700241251E+03 -0.87279398062E+03  0.12259004190E+04  0.65864270000E+03 0.  0.
    8880022    1    1    2    0    0  0.22405546665E+03  0.50700241251E+03 -0.40678297034E+03  0.70435526292E+03  0.15294330000E+03 0. -1.
<mgrwt>
<rscale>  0 0.77824374E+03</rscale>
<asrwt>0</asrwt>
<pdfrwt beam="1">  1        2 0.24691020E+00 0.86084987E+03</pdfrwt>
<pdfrwt beam="2">  1       -2 0.50052211E-01 0.86084987E+03</pdfrwt>
<totfact> 0.42357438E+01</totfact>
</mgrwt>
</event>
<event>
 4    2  0.3855935E-007  0.1344632E+04  0.7818608E-02  0.9027945E-01
          2   -1    0    0  501    0  0.00000000000E+00  0.00000000000E+00  0.17887726068E+04  0.17887726068E+04  0.25500000000E-02 0. -1.
         -2   -1    0    0    0  501 -0.00000000000E+00 -0.00000000000E+00 -0.10456629878E+04  0.10456629878E+04  0.25500000000E-02 0.  1.
    8880023    1    1    2    0    0 -0.19598640572E+03  0.11557740406E+04 -0.14975037016E+03  0.13529448192E+04  0.65864270000E+03 0.  0.
    8880022    1    1    2    0    0  0.19598640572E+03 -0.11557740406E+04  0.89285998921E+03  0.14814907754E+04  0.15294330000E+03 0.  0.
<mgrwt>
<rscale>  0 0.13020450E+04</rscale>
<asrwt>0</asrwt>
<pdfrwt beam="1">  1        2 0.27519578E+00 0.13446317E+04</pdfrwt>
<pdfrwt beam="2">  1       -2 0.16087123E+00 0.13446317E+04</pdfrwt>
<totfact> 0.20799814E+00</totfact>
</mgrwt>
</event>
<event>
 4    2  0.3855935E-007  0.6852378E+03  0.7818608E-02  0.1006504E+00
          2   -1    0    0  501    0  0.00000000000E+00  0.00000000000E+00  0.92021595514E+03  0.92021595515E+03  0.25500000000E-02 0. -1.
         -2   -1    0    0    0  501 -0.00000000000E+00 -0.00000000000E+00 -0.38170953843E+03  0.38170953844E+03  0.25500000000E-02 0.  1.
    8880023    1    1    2    0    0  0.10874767998E+01  0.18904886261E+03 -0.27608413475E+02  0.68579376333E+03  0.65864270000E+03 0.  0.
    8880022    1    1    2    0    0 -0.10874767998E+01 -0.18904886261E+03  0.56611483019E+03  0.61613173026E+03  0.15294330000E+03 0.  0.
<mgrwt>
<rscale>  0 0.52888238E+03</rscale>
<asrwt>0</asrwt>
<pdfrwt beam="1">  1        2 0.14157168E+00 0.68523781E+03</pdfrwt>
<pdfrwt beam="2">  1       -2 0.58724545E-01 0.68523781E+03</pdfrwt>
<totfact> 0.78473195E+01</totfact>
</mgrwt>
</event>
<event>
 4    2  0.3855935E-007  0.7406144E+03  0.7818608E-02  0.9858161E-01
         -2   -1    0    0    0  501 -0.00000000000E+00  0.00000000000E+00  0.44431945769E+03  0.44431945770E+03  0.25500000000E-02 0.  1.
          2   -1    0    0  501    0  0.00000000000E+00 -0.00000000000E+00 -0.21000347213E+04  0.21000347213E+04  0.25500000000E-02 0. -1.
    8880023    1    1    2    0    0 -0.37750481346E+02  0.33656261556E+03  0.10216284654E+03  0.74762754531E+03  0.65864270000E+03 0.  1.
    8880022    1    1    2    0    0  0.37750481346E+02 -0.33656261556E+03 -0.17578781101E+04  0.17967266337E+04  0.15294330000E+03 0.  0.
<mgrwt>
<rscale>  0 0.62332543E+03</rscale>
<asrwt>0</asrwt>
<pdfrwt beam="1">  1        2 0.32308226E+00 0.74061441E+03</pdfrwt>
<pdfrwt beam="2">  1       -2 0.68356841E-01 0.74061441E+03</pdfrwt>
<totfact> 0.11952250E+01</totfact>
</mgrwt>
</event>
<event>
 4    2  0.3855935E-007  0.9824517E+03  0.7818608E-02  0.9404885E-01
         -2   -1    0    0    0  501 -0.00000000000E+00  0.00000000000E+00  0.26473770881E+03  0.26473770882E+03  0.25500000000E-02 0.  1.
          2   -1    0    0  501    0  0.00000000000E+00 -0.00000000000E+00 -0.34459859937E+04  0.34459859937E+04  0.25500000000E-02 0. -1.
    8880023    1    1    2    0    0  0.71827633568E+03 -0.12441943234E+03 -0.98329507096E+03  0.13899929829E+04  0.65864270000E+03 0.  1.
    8880022    1    1    2    0    0 -0.71827633568E+03  0.12441943234E+03 -0.21979532139E+04  0.23207307196E+04  0.15294330000E+03 0.  0.
<mgrwt>
<rscale>  0 0.91674752E+03</rscale>
<asrwt>0</asrwt>
<pdfrwt beam="1">  1        2 0.53015166E+00 0.98245168E+03</pdfrwt>
<pdfrwt beam="2">  1       -2 0.40728881E-01 0.98245168E+03</pdfrwt>
<totfact> 0.52533659E+00</totfact>
</mgrwt>
</event>
<event>
 4    2  0.3855935E-007  0.7648031E+03  0.7818608E-02  0.9792828E-01
         -2   -1    0    0    0  501 -0.00000000000E+00  0.00000000000E+00  0.75867448262E+03  0.75867448262E+03  0.25500000000E-02 0.  1.
          2   -1    0    0  501    0  0.00000000000E+00 -0.00000000000E+00 -0.25828835748E+04  0.25828835748E+04  0.25500000000E-02 0. -1.
    8880023    1    1    2    0    0  0.38794708573E+03  0.24710569521E+02  0.54287891527E+03  0.93789193219E+03  0.65864270000E+03 0.  1.
    8880022    1    1    2    0    0 -0.38794708573E+03 -0.24710569521E+02 -0.23670880074E+04  0.24036661252E+04  0.15294330000E+03 0.  0.
<mgrwt>
<rscale>  0 0.65748867E+03</rscale>
<asrwt>0</asrwt>
<pdfrwt beam="1">  1        2 0.39736670E+00 0.76480309E+03</pdfrwt>
<pdfrwt beam="2">  1       -2 0.11671915E+00 0.76480309E+03</pdfrwt>
<totfact> 0.18600787E+00</totfact>
</mgrwt>
</event>
<event>
 4    2  0.3855935E-007  0.7989040E+03  0.7818608E-02  0.9713171E-01
          2   -1    0    0  501    0  0.00000000000E+00  0.00000000000E+00  0.23325044365E+04  0.23325044365E+04  0.25500000000E-02 0. -1.
         -2   -1    0    0    0  501 -0.00000000000E+00 -0.00000000000E+00 -0.72758175428E+03  0.72758175429E+03  0.25500000000E-02 0.  1.
    8880023    1    1    2    0    0 -0.24083077237E+03 -0.38267203050E+03  0.21746989902E+04  0.23168002175E+04  0.65864270000E+03 0.  0.
    8880022    1    1    2    0    0  0.24083077237E+03  0.38267203050E+03 -0.56977630798E+03  0.74328597323E+03  0.15294330000E+03 0.  0.
<mgrwt>
<rscale>  0 0.70237987E+03</rscale>
<asrwt>0</asrwt>
<pdfrwt beam="1">  1        2 0.35884684E+00 0.79890397E+03</pdfrwt>
<pdfrwt beam="2">  1       -2 0.11193565E+00 0.79890397E+03</pdfrwt>
<totfact> 0.28356402E+00</totfact>
</mgrwt>
</event>
<event>
 4    2  0.3855935E-007  0.7037675E+03  0.7818608E-02  0.9981917E-01
         -2   -1    0    0    0  501 -0.00000000000E+00  0.00000000000E+00  0.20052908098E+03  0.20052908100E+03  0.25500000000E-02 0.  1.
          2   -1    0    0  501    0  0.00000000000E+00 -0.00000000000E+00 -0.27555551918E+04  0.27555551918E+04  0.25500000000E-02 0. -1.
    8880023    1    1    2    0    0 -0.16165212083E+03  0.18800807058E+03 -0.45969942374E+03  0.84060228957E+03  0.65864270000E+03 0.  1.
    8880022    1    1    2    0    0  0.16165212083E+03 -0.18800807058E+03 -0.20953266871E+04  0.21154819832E+04  0.15294330000E+03 0.  0.
<mgrwt>
<rscale>  0 0.56450296E+03</rscale>
<asrwt>0</asrwt>
<pdfrwt beam="1">  1        2 0.42393154E+00 0.70376747E+03</pdfrwt>
<pdfrwt beam="2">  1       -2 0.30850630E-01 0.70376747E+03</pdfrwt>
<totfact> 0.25337520E+01</totfact>
</mgrwt>
</event>
<event>
 4    2  0.3855935E-007  0.7527783E+03  0.7818608E-02  0.9824176E-01
          2   -1    0    0  501    0  0.00000000000E+00  0.00000000000E+00  0.23933668382E+04  0.23933668382E+04  0.25500000000E-02 0. -1.
         -2   -1    0    0    0  501 -0.00000000000E+00 -0.00000000000E+00 -0.40588986946E+03  0.40588986947E+03  0.25500000000E-02 0.  1.
    8880023    1    1    2    0    0 -0.10658643414E+03  0.34857473086E+03 -0.20185759307E+02  0.75304892409E+03  0.65864270000E+03 0.  1.
    8880022    1    1    2    0    0  0.10658643414E+03 -0.34857473086E+03  0.20076627281E+04  0.20462077836E+04  0.15294330000E+03 0.  0.
<mgrwt>
<rscale>  0 0.64081128E+03</rscale>
<asrwt>0</asrwt>
<pdfrwt beam="1">  1        2 0.36821029E+00 0.75277833E+03</pdfrwt>
<pdfrwt beam="2">  1       -2 0.62444595E-01 0.75277833E+03</pdfrwt>
<totfact> 0.99719412E+00</totfact>
</mgrwt>
</event>
<event>
 4    2  0.3855935E-007  0.7083545E+03  0.7818608E-02  0.9964163E-01
         -2   -1    0    0    0  501 -0.00000000000E+00  0.00000000000E+00  0.30750943902E+03  0.30750943903E+03  0.25500000000E-02 0.  1.
          2   -1    0    0  501    0  0.00000000000E+00 -0.00000000000E+00 -0.12306890589E+04  0.12306890589E+04  0.25500000000E-02 0. -1.
    8880023    1    1    2    0    0 -0.76083467446E+02 -0.24933363363E+03 -0.17263920009E+03  0.72908878372E+03  0.65864270000E+03 0.  1.
    8880022    1    1    2    0    0  0.76083467446E+02  0.24933363363E+03 -0.75054041981E+03  0.80910971423E+03  0.15294330000E+03 0.  0.
<mgrwt>
<rscale>  0 0.57249956E+03</rscale>
<asrwt>0</asrwt>
<pdfrwt beam="1">  1        2 0.18933678E+00 0.70835454E+03</pdfrwt>
<pdfrwt beam="2">  1       -2 0.47309145E-01 0.70835454E+03</pdfrwt>
<totfact> 0.78460158E+01</totfact>
</mgrwt>
</event>
<event>
 4    2  0.3855935E-007  0.7415233E+03  0.7818608E-02  0.9855532E-01
          2   -1    0    0  501    0  0.00000000000E+00  0.00000000000E+00  0.28001445454E+04  0.28001445454E+04  0.25500000000E-02 0. -1.
         -2   -1    0    0    0  501 -0.00000000000E+00 -0.00000000000E+00 -0.31616094248E+03  0.31616094249E+03  0.25500000000E-02 0.  1.
    8880023    1    1    2    0    0  0.29627761815E+03  0.16812529862E+03  0.15496603687E+03  0.75754288453E+03  0.65864270000E+03 0.  1.
    8880022    1    1    2    0    0 -0.29627761815E+03 -0.16812529862E+03  0.23290175661E+04  0.23587626034E+04  0.15294330000E+03 0.  0.
<mgrwt>
<rscale>  0 0.62465656E+03</rscale>
<asrwt>0</asrwt>
<pdfrwt beam="1">  1        2 0.43079146E+00 0.74152326E+03</pdfrwt>
<pdfrwt beam="2">  1       -2 0.48640146E-01 0.74152326E+03</pdfrwt>
<totfact> 0.97993352E+00</totfact>
</mgrwt>
</event>
<event>
 4    2  0.3855935E-007  0.6640921E+03  0.7818608E-02  0.1020308E+00
          2   -1    0    0  501    0  0.00000000000E+00  0.00000000000E+00  0.28616733956E+03  0.28616733957E+03  0.25500000000E-02 0. -1.
         -2   -1    0    0    0  501 -0.00000000000E+00 -0.00000000000E+00 -0.11486630057E+04  0.11486630057E+04  0.25500000000E-02 0.  1.
    8880023    1    1    2    0    0 -0.40489034159E+02  0.74624010478E+02 -0.10081360873E+04  0.12072102889E+04  0.65864270000E+03 0.  1.
    8880022    1    1    2    0    0  0.40489034159E+02 -0.74624010478E+02  0.14564042109E+03  0.22762005645E+03  0.15294330000E+03 0.  0.
<mgrwt>
<rscale>  0 0.47575787E+03</rscale>
<asrwt>0</asrwt>
<pdfrwt beam="1">  1        2 0.44025745E-01 0.66409210E+03</pdfrwt>
<pdfrwt beam="2">  1       -2 0.17671738E+00 0.66409210E+03</pdfrwt>
<totfact> 0.22589194E+01</totfact>
</mgrwt>
</event>
<event>
 4    2  0.3855935E-007  0.1230550E+04  0.7818608E-02  0.9127983E-01
          2   -1    0    0  501    0  0.00000000000E+00  0.00000000000E+00  0.31755953173E+04  0.31755953173E+04  0.25500000000E-02 0. -1.
         -2   -1    0    0    0  501 -0.00000000000E+00 -0.00000000000E+00 -0.43199109872E+03  0.43199109873E+03  0.25500000000E-02 0.  1.
    8880023    1    1    2    0    0 -0.10282445956E+04  0.15217021481E+03  0.10656089001E+04  0.16278130289E+04  0.65864270000E+03 0.  0.
    8880022    1    1    2    0    0  0.10282445956E+04 -0.15217021481E+03  0.16779953185E+04  0.19797733872E+04  0.15294330000E+03 0.  0.
<mgrwt>
<rscale>  0 0.11828710E+04</rscale>
<asrwt>0</asrwt>
<pdfrwt beam="1">  1        2 0.48855315E+00 0.12305498E+04</pdfrwt>
<pdfrwt beam="2">  1       -2 0.66460165E-01 0.12305498E+04</pdfrwt>
<totfact> 0.27849794E+00</totfact>
</mgrwt>
</event>
<event>
 4    2  0.3855935E-007  0.9422245E+03  0.7818608E-02  0.9461391E-01
          2   -1    0    0  501    0  0.00000000000E+00  0.00000000000E+00  0.20732461818E+04  0.20732461818E+04  0.25500000000E-02 0. -1.
         -2   -1    0    0    0  501 -0.00000000000E+00 -0.00000000000E+00 -0.56476912326E+03  0.56476912327E+03  0.25500000000E-02 0.  1.
    8880023    1    1    2    0    0 -0.63724235835E+03  0.21885853728E+03 -0.39283347047E+02  0.94304309034E+03  0.65864270000E+03 0.  1.
    8880022    1    1    2    0    0  0.63724235835E+03 -0.21885853728E+03  0.15477604055E+04  0.16949722147E+04  0.15294330000E+03 0. -1.
<mgrwt>
<rscale>  0 0.87191176E+03</rscale>
<asrwt>0</asrwt>
<pdfrwt beam="1">  1        2 0.31896095E+00 0.94222454E+03</pdfrwt>
<pdfrwt beam="2">  1       -2 0.86887558E-01 0.94222454E+03</pdfrwt>
<totfact> 0.70367084E+00</totfact>
</mgrwt>
</event>
<event>
 4    2  0.3855935E-007  0.7129761E+03  0.7818608E-02  0.9947111E-01
         -2   -1    0    0    0  501 -0.00000000000E+00  0.00000000000E+00  0.95632137034E+03  0.95632137034E+03  0.25500000000E-02 0.  1.
          2   -1    0    0  501    0  0.00000000000E+00 -0.00000000000E+00 -0.86069503294E+03  0.86069503294E+03  0.25500000000E-02 0. -1.
    8880023    1    1    2    0    0  0.27297053985E+03  0.34418574072E+01  0.78469428809E+03  0.10602264353E+04  0.65864270000E+03 0.  1.
    8880022    1    1    2    0    0 -0.27297053985E+03 -0.34418574072E+01 -0.68906795069E+03  0.75678996802E+03  0.15294330000E+03 0.  0.
<mgrwt>
<rscale>  0 0.58031418E+03</rscale>
<asrwt>0</asrwt>
<pdfrwt beam="1">  1        2 0.13241462E+00 0.71297613E+03</pdfrwt>
<pdfrwt beam="2">  1       -2 0.14712636E+00 0.71297613E+03</pdfrwt>
<totfact> 0.10045846E+01</totfact>
</mgrwt>
</event>
<event>
 4    2  0.3855935E-007  0.8140808E+03  0.7818608E-02  0.9681139E-01
         -2   -1    0    0    0  501 -0.00000000000E+00  0.00000000000E+00  0.50966455358E+03  0.50966455359E+03  0.25500000000E-02 0.  1.
          2   -1    0    0  501    0  0.00000000000E+00 -0.00000000000E+00 -0.21031676358E+04  0.21031676358E+04  0.25500000000E-02 0. -1.
    8880023    1    1    2    0    0 -0.29682066648E+03  0.37525309300E+03  0.12392186468E+03  0.82345869761E+03  0.65864270000E+03 0.  1.
    8880022    1    1    2    0    0  0.29682066648E+03 -0.37525309300E+03 -0.17174249469E+04  0.17893734918E+04  0.15294330000E+03 0.  0.
<mgrwt>
<rscale>  0 0.72150982E+03</rscale>
<asrwt>0</asrwt>
<pdfrwt beam="1">  1        2 0.32356425E+00 0.81408083E+03</pdfrwt>
<pdfrwt beam="2">  1       -2 0.78409932E-01 0.81408083E+03</pdfrwt>
<totfact> 0.87005142E+00</totfact>
</mgrwt>
</event>
<event>
 4    2  0.3855935E-007  0.6837237E+03  0.7818608E-02  0.1007291E+00
         -2   -1    0    0    0  501 -0.00000000000E+00  0.00000000000E+00  0.31800271107E+03  0.31800271108E+03  0.25500000000E-02 0.  1.
          2   -1    0    0  501    0  0.00000000000E+00 -0.00000000000E+00 -0.16763852779E+04  0.16763852779E+04  0.25500000000E-02 0. -1.
    8880023    1    1    2    0    0 -0.71552893742E+02 -0.16896188903E+03 -0.15461323822E+04  0.16905630677E+04  0.65864270000E+03 0.  0.
    8880022    1    1    2    0    0  0.71552893742E+02  0.16896188903E+03  0.18774981539E+03  0.30382492120E+03  0.15294330000E+03 0.  1.
<mgrwt>
<rscale>  0 0.52565593E+03</rscale>
<asrwt>0</asrwt>
<pdfrwt beam="1">  1        2 0.25790542E+00 0.68372373E+03</pdfrwt>
<pdfrwt beam="2">  1       -2 0.48923495E-01 0.68372373E+03</pdfrwt>
<totfact> 0.41325360E+01</totfact>
</mgrwt>
</event>
<event>
 4    2  0.3855935E-007  0.7383771E+03  0.7818608E-02  0.9864700E-01
         -2   -1    0    0    0  501 -0.00000000000E+00  0.00000000000E+00  0.14460842958E+04  0.14460842958E+04  0.25500000000E-02 0.  1.
          2   -1    0    0  501    0  0.00000000000E+00 -0.00000000000E+00 -0.42252171901E+03  0.42252171902E+03  0.25500000000E-02 0. -1.
    8880023    1    1    2    0    0 -0.12614733553E+03  0.30899413917E+03  0.12394418406E+04  0.14427116173E+04  0.65864270000E+03 0.  0.
    8880022    1    1    2    0    0  0.12614733553E+03 -0.30899413917E+03 -0.21587926377E+03  0.42589439752E+03  0.15294330000E+03 0.  0.
<mgrwt>
<rscale>  0 0.62003003E+03</rscale>
<asrwt>0</asrwt>
<pdfrwt beam="1">  1        2 0.65003343E-01 0.73837710E+03</pdfrwt>
<pdfrwt beam="2">  1       -2 0.22247450E+00 0.73837710E+03</pdfrwt>
<totfact> 0.72962572E+00</totfact>
</mgrwt>
</event>
<event>
 4    2  0.3855935E-007  0.9908037E+03  0.7818608E-02  0.9393689E-01
         -2   -1    0    0    0  501 -0.00000000000E+00  0.00000000000E+00  0.31687658679E+04  0.31687658679E+04  0.25500000000E-02 0.  1.
          2   -1    0    0  501    0  0.00000000000E+00 -0.00000000000E+00 -0.29594190683E+03  0.29594190684E+03  0.25500000000E-02 0. -1.
    8880023    1    1    2    0    0 -0.15576971004E+03  0.72361428104E+03  0.85055432273E+03  0.13058080611E+04  0.65864270000E+03 0.  0.
    8880022    1    1    2    0    0  0.15576971004E+03 -0.72361428104E+03  0.20222696383E+04  0.21588997136E+04  0.15294330000E+03 0.  0.
<mgrwt>
<rscale>  0 0.92596854E+03</rscale>
<asrwt>0</asrwt>
<pdfrwt beam="1">  1        2 0.45529522E-01 0.99080373E+03</pdfrwt>
<pdfrwt beam="2">  1       -2 0.48750247E+00 0.99080373E+03</pdfrwt>
<totfact> 0.22468073E-01</totfact>
</mgrwt>
</event>
<event>
 4    2  0.3855935E-007  0.7372230E+03  0.7818608E-02  0.9868111E-01
          2   -1    0    0  501    0  0.00000000000E+00  0.00000000000E+00  0.19621843297E+04  0.19621843297E+04  0.25500000000E-02 0. -1.
         -2   -1    0    0    0  501 -0.00000000000E+00 -0.00000000000E+00 -0.57052061079E+03  0.57052061080E+03  0.25500000000E-02 0.  1.
    8880023    1    1    2    0    0 -0.21938635961E+03 -0.24810724154E+03 -0.30459006129E+03  0.79766715476E+03  0.65864270000E+03 0.  1.
    8880022    1    1    2    0    0  0.21938635961E+03  0.24810724154E+03  0.16962537802E+04  0.17350377857E+04  0.15294330000E+03 0.  0.
<mgrwt>
<rscale>  0 0.61831951E+03</rscale>
<asrwt>0</asrwt>
<pdfrwt beam="1">  1        2 0.30187451E+00 0.73722302E+03</pdfrwt>
<pdfrwt beam="2">  1       -2 0.87772402E-01 0.73722302E+03</pdfrwt>
<totfact> 0.81401465E+00</totfact>
</mgrwt>
</event>
<event>
 4    2  0.3855935E-007  0.1002405E+04  0.7818608E-02  0.9378418E-01
          2   -1    0    0  501    0  0.00000000000E+00  0.00000000000E+00  0.13468969500E+04  0.13468969500E+04  0.25500000000E-02 0. -1.
         -2   -1    0    0    0  501 -0.00000000000E+00 -0.00000000000E+00 -0.71471624391E+03  0.71471624391E+03  0.25500000000E-02 0.  1.
    8880023    1    1    2    0    0  0.75449725135E+03 -0.41711114854E+02 -0.88437656382E+02  0.10062988347E+04  0.65864270000E+03 0.  1.
    8880022    1    1    2    0    0 -0.75449725135E+03  0.41711114854E+02  0.72061836246E+03  0.10553143592E+04  0.15294330000E+03 0.  0.
<mgrwt>
<rscale>  0 0.93873304E+03</rscale>
<asrwt>0</asrwt>
<pdfrwt beam="1">  1        2 0.20721491E+00 0.10024052E+04</pdfrwt>
<pdfrwt beam="2">  1       -2 0.10995635E+00 0.10024052E+04</pdfrwt>
<totfact> 0.10145785E+01</totfact>
</mgrwt>
</event>
<event>
 4    2  0.3855935E-007  0.7199960E+03  0.7818608E-02  0.9922599E-01
         -2   -1    0    0    0  501 -0.00000000000E+00  0.00000000000E+00  0.39166034557E+03  0.39166034558E+03  0.25500000000E-02 0.  1.
          2   -1    0    0  501    0  0.00000000000E+00 -0.00000000000E+00 -0.17192267882E+04  0.17192267882E+04  0.25500000000E-02 0. -1.
    8880023    1    1    2    0    0  0.12182145722E+02  0.29057815711E+03  0.23555643302E+02  0.72038124952E+03  0.65864270000E+03 0.  0.
    8880022    1    1    2    0    0 -0.12182145722E+02 -0.29057815711E+03 -0.13511220859E+04  0.13905058842E+04  0.15294330000E+03 0.  0.
<mgrwt>
<rscale>  0 0.59178416E+03</rscale>
<asrwt>0</asrwt>
<pdfrwt beam="1">  1        2 0.26449642E+00 0.71999603E+03</pdfrwt>
<pdfrwt beam="2">  1       -2 0.60255439E-01 0.71999603E+03</pdfrwt>
<totfact> 0.25333459E+01</totfact>
</mgrwt>
</event>
<event>
 4    2  0.3855935E-007  0.8869511E+03  0.7818608E-02  0.9547313E-01
          2   -1    0    0  501    0  0.00000000000E+00  0.00000000000E+00  0.28297653925E+04  0.28297653925E+04  0.25500000000E-02 0. -1.
         -2   -1    0    0    0  501 -0.00000000000E+00 -0.00000000000E+00 -0.23084023391E+03  0.23084023393E+03  0.25500000000E-02 0.  1.
    8880023    1    1    2    0    0  0.55635327868E+03 -0.20818999906E+03  0.94232001363E+03  0.12940824011E+04  0.65864270000E+03 0.  1.
    8880022    1    1    2    0    0 -0.55635327868E+03  0.20818999906E+03  0.16566051449E+04  0.17665232253E+04  0.15294330000E+03 0. -1.
<mgrwt>
<rscale>  0 0.80883754E+03</rscale>
<asrwt>0</asrwt>
<pdfrwt beam="1">  1        2 0.43534852E+00 0.88695110E+03</pdfrwt>
<pdfrwt beam="2">  1       -2 0.35513882E-01 0.88695110E+03</pdfrwt>
<totfact> 0.17080310E+01</totfact>
</mgrwt>
</event>
<event>
 4    2  0.3855935E-007  0.6651241E+03  0.7818608E-02  0.1019430E+00
          2   -1    0    0  501    0  0.00000000000E+00  0.00000000000E+00  0.60150024189E+03  0.60150024189E+03  0.25500000000E-02 0. -1.
         -2   -1    0    0    0  501 -0.00000000000E+00 -0.00000000000E+00 -0.31667642594E+03  0.31667642595E+03  0.25500000000E-02 0.  1.
    8880023    1    1    2    0    0 -0.23451619426E+02 -0.89609327649E+02  0.31649774738E+03  0.73658729314E+03  0.65864270000E+03 0. -1.
    8880022    1    1    2    0    0  0.23451619426E+02  0.89609327649E+02 -0.31673931438E+02  0.18158937470E+03  0.15294330000E+03 0.  0.
<mgrwt>
<rscale>  0 0.47893029E+03</rscale>
<asrwt>0</asrwt>
<pdfrwt beam="1">  1        2 0.92538497E-01 0.66512406E+03</pdfrwt>
<pdfrwt beam="2">  1       -2 0.48719451E-01 0.66512406E+03</pdfrwt>
<totfact> 0.19993609E+02</totfact>
</mgrwt>
</event>
<event>
 4    2  0.3855935E-007  0.7772340E+03  0.7818608E-02  0.9762375E-01
         -2   -1    0    0    0  501 -0.00000000000E+00  0.00000000000E+00  0.54822764642E+03  0.54822764642E+03  0.25500000000E-02 0.  1.
          2   -1    0    0  501    0  0.00000000000E+00 -0.00000000000E+00 -0.15958298691E+04  0.15958298691E+04  0.25500000000E-02 0. -1.
    8880023    1    1    2    0    0  0.36253575078E+03 -0.19710478609E+03  0.21544087563E+03  0.80654041712E+03  0.65864270000E+03 0.  0.
    8880022    1    1    2    0    0 -0.36253575078E+03  0.19710478609E+03 -0.12630430983E+04  0.13375170984E+04  0.15294330000E+03 0.  0.
<mgrwt>
<rscale>  0 0.67421403E+03</rscale>
<asrwt>0</asrwt>
<pdfrwt beam="1">  1        2 0.24551229E+00 0.77723399E+03</pdfrwt>
<pdfrwt beam="2">  1       -2 0.84342715E-01 0.77723399E+03</pdfrwt>
<totfact> 0.14060607E+01</totfact>
</mgrwt>
</event>
<event>
 4    2  0.3855935E-007  0.7228202E+03  0.7818608E-02  0.9913157E-01
          2   -1    0    0  501    0  0.00000000000E+00  0.00000000000E+00  0.35507974416E+04  0.35507974416E+04  0.25500000000E-02 0. -1.
         -2   -1    0    0    0  501 -0.00000000000E+00 -0.00000000000E+00 -0.24279132771E+03  0.24279132772E+03  0.25500000000E-02 0.  1.
    8880023    1    1    2    0    0 -0.22085838990E+03 -0.19970066144E+03  0.32613853966E+03  0.79299138450E+03  0.65864270000E+03 0.  1.
    8880022    1    1    2    0    0  0.22085838990E+03  0.19970066144E+03  0.29818675742E+04  0.30005973848E+04  0.15294330000E+03 0.  0.
<mgrwt>
<rscale>  0 0.59627883E+03</rscale>
<asrwt>0</asrwt>
<pdfrwt beam="1">  1        2 0.54627653E+00 0.72282016E+03</pdfrwt>
<pdfrwt beam="2">  1       -2 0.37352512E-01 0.72282016E+03</pdfrwt>
<totfact> 0.55213281E+00</totfact>
</mgrwt>
</event>
<event>
 4    2  0.3855935E-007  0.6634848E+03  0.7818608E-02  0.1020840E+00
          2   -1    0    0  501    0  0.00000000000E+00  0.00000000000E+00  0.32630389862E+03  0.32630389863E+03  0.25500000000E-02 0. -1.
         -2   -1    0    0    0  501 -0.00000000000E+00 -0.00000000000E+00 -0.78779065117E+03  0.78779065117E+03  0.25500000000E-02 0.  1.
    8880023    1    1    2    0    0  0.48163483189E+02  0.63891863658E+02 -0.59863691364E+03  0.89363205627E+03  0.65864270000E+03 0.  1.
    8880022    1    1    2    0    0 -0.48163483189E+02 -0.63891863658E+02  0.13715016109E+03  0.22046249354E+03  0.15294330000E+03 0.  0.
<mgrwt>
<rscale>  0 0.47384741E+03</rscale>
<asrwt>0</asrwt>
<pdfrwt beam="1">  1        2 0.50200600E-01 0.66348481E+03</pdfrwt>
<pdfrwt beam="2">  1       -2 0.12119856E+00 0.66348481E+03</pdfrwt>
<totfact> 0.52610702E+01</totfact>
</mgrwt>
</event>
<event>
 4    2  0.3855935E-007  0.7389455E+03  0.7818608E-02  0.9863029E-01
         -2   -1    0    0    0  501 -0.00000000000E+00  0.00000000000E+00  0.16462656735E+03  0.16462656737E+03  0.25500000000E-02 0.  1.
          2   -1    0    0  501    0  0.00000000000E+00 -0.00000000000E+00 -0.31049227638E+04  0.31049227638E+04  0.25500000000E-02 0. -1.
    8880023    1    1    2    0    0 -0.32164918203E+03  0.93659343737E+02 -0.76616155629E+03  0.10644453981E+04  0.65864270000E+03 0.  1.
    8880022    1    1    2    0    0  0.32164918203E+03 -0.93659343737E+02 -0.21741346402E+04  0.22051039331E+04  0.15294330000E+03 0.  0.
<mgrwt>
<rscale>  0 0.62086982E+03</rscale>
<asrwt>0</asrwt>
<pdfrwt beam="1">  1        2 0.47768038E+00 0.73894552E+03</pdfrwt>
<pdfrwt beam="2">  1       -2 0.25327167E-01 0.73894552E+03</pdfrwt>
<totfact> 0.22253412E+01</totfact>
</mgrwt>
</event>
<event>
 4    2  0.3855935E-007  0.1090157E+04  0.7818608E-02  0.9272095E-01
         -2   -1    0    0    0  501 -0.00000000000E+00  0.00000000000E+00  0.13232625041E+04  0.13232625041E+04  0.25500000000E-02 0.  1.
          2   -1    0    0  501    0  0.00000000000E+00 -0.00000000000E+00 -0.12302366826E+04  0.12302366826E+04  0.25500000000E-02 0. -1.
    8880023    1    1    2    0    0 -0.53865960147E+03 -0.68152550426E+03  0.85692596034E+03  0.13866374750E+04  0.65864270000E+03 0.  1.
    8880022    1    1    2    0    0  0.53865960147E+03  0.68152550426E+03 -0.76390013888E+03  0.11668617118E+04  0.15294330000E+03 0. -1.
<mgrwt>
<rscale>  0 0.10339290E+04</rscale>
<asrwt>0</asrwt>
<pdfrwt beam="1">  1        2 0.18926718E+00 0.10901566E+04</pdfrwt>
<pdfrwt beam="2">  1       -2 0.20357885E+00 0.10901566E+04</pdfrwt>
<totfact> 0.22491135E+00</totfact>
</mgrwt>
</event>
<event>
 4    2  0.3855935E-007  0.6626050E+03  0.7818608E-02  0.1021633E+00
          2   -1    0    0  501    0  0.00000000000E+00  0.00000000000E+00  0.85503647108E+03  0.85503647108E+03  0.25500000000E-02 0. -1.
         -2   -1    0    0    0  501 -0.00000000000E+00 -0.00000000000E+00 -0.26340918896E+04  0.26340918896E+04  0.25500000000E-02 0.  1.
    8880023    1    1    2    0    0  0.68538236601E+02  0.23187399603E+02 -0.25834823214E+04  0.26671007211E+04  0.65864270000E+03 0.  1.
    8880022    1    1    2    0    0 -0.68538236601E+02 -0.23187399603E+02  0.80442690279E+03  0.82202763964E+03  0.15294330000E+03 0.  0.
<mgrwt>
<rscale>  0 0.47101812E+03</rscale>
<asrwt>0</asrwt>
<pdfrwt beam="1">  1        2 0.13154407E+00 0.66260497E+03</pdfrwt>
<pdfrwt beam="2">  1       -2 0.40524490E+00 0.66260497E+03</pdfrwt>
<totfact> 0.23542498E-01</totfact>
</mgrwt>
</event>
<event>
 4    2  0.3855935E-007  0.6743247E+03  0.7818608E-02  0.1012735E+00
         -2   -1    0    0    0  501 -0.00000000000E+00  0.00000000000E+00  0.34729540422E+03  0.34729540423E+03  0.25500000000E-02 0.  1.
          2   -1    0    0  501    0  0.00000000000E+00 -0.00000000000E+00 -0.10507031811E+04  0.10507031811E+04  0.25500000000E-02 0. -1.
    8880023    1    1    2    0    0 -0.14367320601E+03  0.16174663299E+02 -0.11110034176E+02  0.67441622829E+03  0.65864270000E+03 0.  1.
    8880022    1    1    2    0    0  0.14367320601E+03 -0.16174663299E+02 -0.69229774267E+03  0.72358235701E+03  0.15294330000E+03 0.  0.
<mgrwt>
<rscale>  0 0.50401849E+03</rscale>
<asrwt>0</asrwt>
<pdfrwt beam="1">  1        2 0.16164664E+00 0.67432471E+03</pdfrwt>
<pdfrwt beam="2">  1       -2 0.53430063E-01 0.67432471E+03</pdfrwt>
<totfact> 0.78852215E+01</totfact>
</mgrwt>
</event>
<event>
 4    2  0.3855935E-007  0.7754625E+03  0.7818608E-02  0.9766606E-01
          2   -1    0    0  501    0  0.00000000000E+00  0.00000000000E+00  0.53253944818E+03  0.53253944818E+03  0.25500000000E-02 0. -1.
         -2   -1    0    0    0  501 -0.00000000000E+00 -0.00000000000E+00 -0.79166157183E+03  0.79166157183E+03  0.25500000000E-02 0.  1.
    8880023    1    1    2    0    0 -0.36118887689E+03  0.19254729556E+03 -0.39008534620E+03  0.86804875981E+03  0.65864270000E+03 0.  1.
    8880022    1    1    2    0    0  0.36118887689E+03 -0.19254729556E+03  0.13096322255E+03  0.45615226021E+03  0.15294330000E+03 0.  0.
<mgrwt>
<rscale>  0 0.67185882E+03</rscale>
<asrwt>0</asrwt>
<pdfrwt beam="1">  1        2 0.81929145E-01 0.77546249E+03</pdfrwt>
<pdfrwt beam="2">  1       -2 0.12179409E+00 0.77546249E+03</pdfrwt>
<totfact> 0.29573477E+01</totfact>
</mgrwt>
</event>
<event>
 4    2  0.3855935E-007  0.9350251E+03  0.7818608E-02  0.9471995E-01
          2   -1    0    0  501    0  0.00000000000E+00  0.00000000000E+00  0.13900410342E+04  0.13900410342E+04  0.25500000000E-02 0. -1.
         -2   -1    0    0    0  501 -0.00000000000E+00 -0.00000000000E+00 -0.50162638957E+03  0.50162638958E+03  0.25500000000E-02 0.  1.
    8880023    1    1    2    0    0  0.57997312532E+03 -0.32263424856E+03  0.27382893079E+03  0.97429675871E+03  0.65864270000E+03 0.  0.
    8880022    1    1    2    0    0 -0.57997312532E+03  0.32263424856E+03  0.61458571380E+03  0.91737066503E+03  0.15294330000E+03 0.  0.
<mgrwt>
<rscale>  0 0.86380364E+03</rscale>
<asrwt>0</asrwt>
<pdfrwt beam="1">  1        2 0.21385246E+00 0.93502507E+03</pdfrwt>
<pdfrwt beam="2">  1       -2 0.77173293E-01 0.93502507E+03</pdfrwt>
<totfact> 0.22025591E+01</totfact>
</mgrwt>
</event>
<event>
 4    2  0.3855935E-007  0.8309898E+03  0.7818608E-02  0.9647410E-01
         -2   -1    0    0    0  501 -0.00000000000E+00  0.00000000000E+00  0.24883923115E+03  0.24883923116E+03  0.25500000000E-02 0.  1.
          2   -1    0    0  501    0  0.00000000000E+00 -0.00000000000E+00 -0.21284978315E+04  0.21284978315E+04  0.25500000000E-02 0. -1.
    8880023    1    1    2    0    0  0.18606366614E+03 -0.47128993833E+03 -0.70806783581E+03  0.10917436330E+04  0.65864270000E+03 0.  0.
    8880022    1    1    2    0    0 -0.18606366614E+03  0.47128993833E+03 -0.11715907646E+04  0.12855934297E+04  0.15294330000E+03 0.  0.
<mgrwt>
<rscale>  0 0.74236224E+03</rscale>
<asrwt>0</asrwt>
<pdfrwt beam="1">  1        2 0.32746119E+00 0.83098983E+03</pdfrwt>
<pdfrwt beam="2">  1       -2 0.38282960E-01 0.83098983E+03</pdfrwt>
<totfact> 0.37361397E+01</totfact>
</mgrwt>
</event>
<event>
 4    2  0.3855935E-007  0.6768665E+03  0.7818608E-02  0.1011155E+00
          2   -1    0    0  501    0  0.00000000000E+00  0.00000000000E+00  0.14304905808E+03  0.14304905810E+03  0.25500000000E-02 0. -1.
         -2   -1    0    0    0  501 -0.00000000000E+00 -0.00000000000E+00 -0.14030244136E+04  0.14030244136E+04  0.25500000000E-02 0.  1.
    8880023    1    1    2    0    0 -0.10795753523E+03 -0.11261999962E+03 -0.92664255803E+03  0.11475254813E+04  0.65864270000E+03 0.  0.
    8880022    1    1    2    0    0  0.10795753523E+03  0.11261999962E+03 -0.33333279752E+03  0.39854799039E+03  0.15294330000E+03 0.  1.
<mgrwt>
<rscale>  0 0.51018293E+03</rscale>
<asrwt>0</asrwt>
<pdfrwt beam="1">  1        2 0.22007548E-01 0.67686653E+03</pdfrwt>
<pdfrwt beam="2">  1       -2 0.21584990E+00 0.67686653E+03</pdfrwt>
<totfact> 0.27346705E+01</totfact>
</mgrwt>
</event>
<event>
 4    2  0.3855935E-007  0.9071402E+03  0.7818608E-02  0.9514665E-01
          2   -1    0    0  501    0  0.00000000000E+00  0.00000000000E+00  0.25422872474E+03  0.25422872475E+03  0.25500000000E-02 0. -1.
         -2   -1    0    0    0  501 -0.00000000000E+00 -0.00000000000E+00 -0.30987349713E+04  0.30987349713E+04  0.25500000000E-02 0.  1.
    8880023    1    1    2    0    0  0.32325256188E+03  0.53348006827E+03 -0.24165171748E+04  0.25811738927E+04  0.65864270000E+03 0.  1.
    8880022    1    1    2    0    0 -0.32325256188E+03 -0.53348006827E+03 -0.42798907176E+03  0.77178980335E+03  0.15294330000E+03 0.  0.
<mgrwt>
<rscale>  0 0.83211207E+03</rscale>
<asrwt>0</asrwt>
<pdfrwt beam="1">  1        2 0.39112114E-01 0.90714024E+03</pdfrwt>
<pdfrwt beam="2">  1       -2 0.47672843E+00 0.90714024E+03</pdfrwt>
<totfact> 0.31669678E-01</totfact>
</mgrwt>
</event>
<event>
 4    2  0.3855935E-007  0.7254899E+03  0.7818608E-02  0.9904430E-01
          2   -1    0    0  501    0  0.00000000000E+00  0.00000000000E+00  0.13371949410E+04  0.13371949410E+04  0.25500000000E-02 0. -1.
         -2   -1    0    0    0  501 -0.00000000000E+00 -0.00000000000E+00 -0.41805706678E+03  0.41805706679E+03  0.25500000000E-02 0.  1.
    8880023    1    1    2    0    0  0.19591529746E+03 -0.23268566234E+03 -0.50827868940E+02  0.72726824471E+03  0.65864270000E+03 0.  1.
    8880022    1    1    2    0    0 -0.19591529746E+03  0.23268566234E+03  0.96996574316E+03  0.10279837631E+04  0.15294330000E+03 0.  0.
<mgrwt>
<rscale>  0 0.60047090E+03</rscale>
<asrwt>0</asrwt>
<pdfrwt beam="1">  1        2 0.20572230E+00 0.72548992E+03</pdfrwt>
<pdfrwt beam="2">  1       -2 0.64316470E-01 0.72548992E+03</pdfrwt>
<totfact> 0.35934048E+01</totfact>
</mgrwt>
</event>
<event>
 4    2  0.3855935E-007  0.1529821E+04  0.7818608E-02  0.8888860E-01
          2   -1    0    0  501    0  0.00000000000E+00  0.00000000000E+00  0.20393026948E+04  0.20393026948E+04  0.25500000000E-02 0. -1.
         -2   -1    0    0    0  501 -0.00000000000E+00 -0.00000000000E+00 -0.12489801913E+04  0.12489801913E+04  0.25500000000E-02 0.  1.
    8880023    1    1    2    0    0 -0.12990943304E+04  0.46786364225E+03  0.10755681456E+04  0.18700800810E+04  0.65864270000E+03 0.  0.
    8880022    1    1    2    0    0  0.12990943304E+04 -0.46786364225E+03 -0.28524564212E+03  0.14182028051E+04  0.15294330000E+03 0.  0.
<mgrwt>
<rscale>  0 0.14933902E+04</rscale>
<asrwt>0</asrwt>
<pdfrwt beam="1">  1        2 0.31373888E+00 0.15298211E+04</pdfrwt>
<pdfrwt beam="2">  1       -2 0.19215080E+00 0.15298211E+04</pdfrwt>
<totfact> 0.89266414E-01</totfact>
</mgrwt>
</event>
<event>
 4    2  0.3855935E-007  0.9949584E+03  0.7818608E-02  0.9388183E-01
          2   -1    0    0  501    0  0.00000000000E+00  0.00000000000E+00  0.21430440905E+04  0.21430440905E+04  0.25500000000E-02 0. -1.
         -2   -1    0    0    0  501 -0.00000000000E+00 -0.00000000000E+00 -0.58459389202E+03  0.58459389203E+03  0.25500000000E-02 0.  1.
    8880023    1    1    2    0    0  0.42471615941E+03  0.61298310649E+03  0.16841221505E+04  0.19560699703E+04  0.65864270000E+03 0.  0.
    8880022    1    1    2    0    0 -0.42471615941E+03 -0.61298310649E+03 -0.12567195199E+03  0.77156801219E+03  0.15294330000E+03 0.  0.
<mgrwt>
<rscale>  0 0.93054550E+03</rscale>
<asrwt>0</asrwt>
<pdfrwt beam="1">  1        2 0.32969910E+00 0.99495845E+03</pdfrwt>
<pdfrwt beam="2">  1       -2 0.89937520E-01 0.99495845E+03</pdfrwt>
<totfact> 0.59072135E+00</totfact>
</mgrwt>
</event>
<event>
 4    2  0.3855935E-007  0.1252230E+04  0.7818608E-02  0.9107951E-01
          2   -1    0    0  501    0  0.00000000000E+00  0.00000000000E+00  0.42988446660E+04  0.42988446660E+04  0.25500000000E-02 0. -1.
         -2   -1    0    0    0  501 -0.00000000000E+00 -0.00000000000E+00 -0.48146339046E+03  0.48146339046E+03  0.25500000000E-02 0.  1.
    8880023    1    1    2    0    0 -0.10013441866E+04  0.36273887477E+03  0.34051366434E+04  0.36280897781E+04  0.65864270000E+03 0. -1.
    8880022    1    1    2    0    0  0.10013441866E+04 -0.36273887477E+03  0.41224463213E+03  0.11522182784E+04  0.15294330000E+03 0.  0.
<mgrwt>
<rscale>  0 0.12056209E+04</rscale>
<asrwt>0</asrwt>
<pdfrwt beam="1">  1        2 0.66136073E+00 0.12522300E+04</pdfrwt>
<pdfrwt beam="2">  1       -2 0.74071289E-01 0.12522300E+04</pdfrwt>
<totfact> 0.31769900E-01</totfact>
</mgrwt>
</event>
<event>
 4    2  0.3855935E-007  0.7100698E+03  0.7818608E-02  0.9957742E-01
         -2   -1    0    0    0  501 -0.00000000000E+00  0.00000000000E+00  0.26405960365E+03  0.26405960366E+03  0.25500000000E-02 0.  1.
          2   -1    0    0  501    0  0.00000000000E+00 -0.00000000000E+00 -0.10269494476E+04  0.10269494476E+04  0.25500000000E-02 0. -1.
    8880023    1    1    2    0    0  0.31479598278E+02  0.26343490389E+03 -0.65583006164E+03  0.96659825662E+03  0.65864270000E+03 0.  1.
    8880022    1    1    2    0    0 -0.31479598278E+02 -0.26343490389E+03 -0.10705978235E+03  0.32441079468E+03  0.15294330000E+03 0. -1.
<mgrwt>
<rscale>  0 0.57542654E+03</rscale>
<asrwt>0</asrwt>
<pdfrwt beam="1">  1        2 0.15799222E+00 0.71006980E+03</pdfrwt>
<pdfrwt beam="2">  1       -2 0.40624555E-01 0.71006980E+03</pdfrwt>
<totfact> 0.14095883E+02</totfact>
</mgrwt>
</event>
<event>
 4    2  0.3855935E-007  0.8804685E+03  0.7818608E-02  0.9558143E-01
          2   -1    0    0  501    0  0.00000000000E+00  0.00000000000E+00  0.26528745533E+04  0.26528745533E+04  0.25500000000E-02 0. -1.
         -2   -1    0    0    0  501 -0.00000000000E+00 -0.00000000000E+00 -0.26233280375E+03  0.26233280376E+03  0.25500000000E-02 0.  1.
    8880023    1    1    2    0    0 -0.74700233202E+02  0.57951225507E+03  0.71529154873E+03  0.11344015094E+04  0.65864270000E+03 0.  1.
    8880022    1    1    2    0    0  0.74700233202E+02 -0.57951225507E+03  0.16752502008E+04  0.17808058476E+04  0.15294330000E+03 0.  0.
<mgrwt>
<rscale>  0 0.80129632E+03</rscale>
<asrwt>0</asrwt>
<pdfrwt beam="1">  1        2 0.40813455E+00 0.88046850E+03</pdfrwt>
<pdfrwt beam="2">  1       -2 0.40358892E-01 0.88046850E+03</pdfrwt>
<totfact> 0.16962237E+01</totfact>
</mgrwt>
</event>
<event>
 4    2  0.3855935E-007  0.7221289E+03  0.7818608E-02  0.9915447E-01
          2   -1    0    0  501    0  0.00000000000E+00  0.00000000000E+00  0.13090041710E+04  0.13090041710E+04  0.25500000000E-02 0. -1.
         -2   -1    0    0    0  501 -0.00000000000E+00 -0.00000000000E+00 -0.61577564068E+03  0.61577564069E+03  0.25500000000E-02 0.  1.
    8880023    1    1    2    0    0  0.28990408530E+03 -0.60129301264E+02 -0.36939756588E+03  0.81112556333E+03  0.65864270000E+03 0.  1.
    8880022    1    1    2    0    0 -0.28990408530E+03  0.60129301264E+02  0.10626260962E+04  0.11136542483E+04  0.15294330000E+03 0.  0.
<mgrwt>
<rscale>  0 0.59518451E+03</rscale>
<asrwt>0</asrwt>
<pdfrwt beam="1">  1        2 0.20138526E+00 0.72212888E+03</pdfrwt>
<pdfrwt beam="2">  1       -2 0.94734715E-01 0.72212888E+03</pdfrwt>
<totfact> 0.15696933E+01</totfact>
</mgrwt>
</event>
<event>
 4    2  0.3855935E-007  0.1147455E+04  0.7818608E-02  0.9209974E-01
          2   -1    0    0  501    0  0.00000000000E+00  0.00000000000E+00  0.26326649927E+04  0.26326649927E+04  0.25500000000E-02 0. -1.
         -2   -1    0    0    0  501 -0.00000000000E+00 -0.00000000000E+00 -0.57240392898E+03  0.57240392898E+03  0.25500000000E-02 0.  1.
    8880023    1    1    2    0    0  0.34252343408E+03 -0.87493978950E+03  0.27206757037E+03  0.11792679540E+04  0.65864270000E+03 0.  0.
    8880022    1    1    2    0    0 -0.34252343408E+03  0.87493978950E+03  0.17881934934E+04  0.20258009678E+04  0.15294330000E+03 0.  0.
<mgrwt>
<rscale>  0 0.10951073E+04</rscale>
<asrwt>0</asrwt>
<pdfrwt beam="1">  1        2 0.40502538E+00 0.11474546E+04</pdfrwt>
<pdfrwt beam="2">  1       -2 0.88062144E-01 0.11474546E+04</pdfrwt>
<totfact> 0.32121160E+00</totfact>
</mgrwt>
</event>
<event>
 4    2  0.3855935E-007  0.8298841E+03  0.7818608E-02  0.9649558E-01
         -2   -1    0    0    0  501 -0.00000000000E+00  0.00000000000E+00  0.14941526936E+04  0.14941526936E+04  0.25500000000E-02 0.  1.
          2   -1    0    0  501    0  0.00000000000E+00 -0.00000000000E+00 -0.87578363575E+03  0.87578363575E+03  0.25500000000E-02 0. -1.
    8880023    1    1    2    0    0 -0.47804425658E+03 -0.16239166568E+03  0.12789239760E+04  0.15245832568E+04  0.65864270000E+03 0.  1.
    8880022    1    1    2    0    0  0.47804425658E+03  0.16239166568E+03 -0.66055491815E+03  0.84535307253E+03  0.15294330000E+03 0.  0.
<mgrwt>
<rscale>  0 0.74101172E+03</rscale>
<asrwt>0</asrwt>
<pdfrwt beam="1">  1        2 0.13473594E+00 0.82988407E+03</pdfrwt>
<pdfrwt beam="2">  1       -2 0.22986964E+00 0.82988407E+03</pdfrwt>
<totfact> 0.26515933E+00</totfact>
</mgrwt>
</event>
<event>
 4    2  0.3855935E-007  0.7131288E+03  0.7818608E-02  0.9946561E-01
          2   -1    0    0  501    0  0.00000000000E+00  0.00000000000E+00  0.54586023567E+03  0.54586023567E+03  0.25500000000E-02 0. -1.
         -2   -1    0    0    0  501 -0.00000000000E+00 -0.00000000000E+00 -0.56572040729E+03  0.56572040730E+03  0.25500000000E-02 0.  1.
    8880023    1    1    2    0    0  0.13081044066E+03 -0.24006472542E+03 -0.21214000726E+03  0.74401346273E+03  0.65864270000E+03 0.  1.
    8880022    1    1    2    0    0 -0.13081044066E+03  0.24006472542E+03  0.19227983564E+03  0.36756718024E+03  0.15294330000E+03 0.  0.
<mgrwt>
<rscale>  0 0.58056849E+03</rscale>
<asrwt>0</asrwt>
<pdfrwt beam="1">  1        2 0.83978498E-01 0.71312878E+03</pdfrwt>
<pdfrwt beam="2">  1       -2 0.87033909E-01 0.71312878E+03</pdfrwt>
<totfact> 0.64307058E+01</totfact>
</mgrwt>
</event>
<event>
 4    2  0.3855935E-007  0.8596105E+03  0.7818608E-02  0.9594257E-01
         -2   -1    0    0    0  501 -0.00000000000E+00  0.00000000000E+00  0.12778186048E+04  0.12778186048E+04  0.25500000000E-02 0.  1.
          2   -1    0    0  501    0  0.00000000000E+00 -0.00000000000E+00 -0.60936123052E+03  0.60936123053E+03  0.25500000000E-02 0. -1.
    8880023    1    1    2    0    0 -0.54378427182E+03 -0.97049616779E+02 -0.16535728019E+03  0.87537032093E+03  0.65864270000E+03 0. -1.
    8880022    1    1    2    0    0  0.54378427182E+03  0.97049616779E+02  0.83381465444E+03  0.10118095144E+04  0.15294330000E+03 0.  0.
<mgrwt>
<rscale>  0 0.77677478E+03</rscale>
<asrwt>0</asrwt>
<pdfrwt beam="1">  1        2 0.93747883E-01 0.85961047E+03</pdfrwt>
<pdfrwt beam="2">  1       -2 0.19658748E+00 0.85961047E+03</pdfrwt>
<totfact> 0.68685428E+00</totfact>
</mgrwt>
</event>
<event>
 4    2  0.3855935E-007  0.6910971E+03  0.7818608E-02  0.1003635E+00
         -2   -1    0    0    0  501 -0.00000000000E+00  0.00000000000E+00  0.23330910869E+03  0.23330910870E+03  0.25500000000E-02 0.  1.
          2   -1    0    0  501    0  0.00000000000E+00 -0.00000000000E+00 -0.18104567599E+04  0.18104567599E+04  0.25500000000E-02 0. -1.
    8880023    1    1    2    0    0  0.16058063559E+03 -0.13423425295E+03 -0.32253973995E+03  0.76265789533E+03  0.65864270000E+03 0.  1.
    8880022    1    1    2    0    0 -0.16058063559E+03  0.13423425295E+03 -0.12546079112E+04  0.12811079732E+04  0.15294330000E+03 0.  0.
<mgrwt>
<rscale>  0 0.54084489E+03</rscale>
<asrwt>0</asrwt>
<pdfrwt beam="1">  1        2 0.27853180E+00 0.69109709E+03</pdfrwt>
<pdfrwt beam="2">  1       -2 0.35893710E-01 0.69109709E+03</pdfrwt>
<totfact> 0.64138819E+01</totfact>
</mgrwt>
</event>
<event>
 4    2  0.3855935E-007  0.9181756E+03  0.7818608E-02  0.9497462E-01
         -2   -1    0    0    0  501 -0.00000000000E+00  0.00000000000E+00  0.52205067022E+03  0.52205067022E+03  0.25500000000E-02 0.  1.
          2   -1    0    0  501    0  0.00000000000E+00 -0.00000000000E+00 -0.18679464217E+04  0.18679464217E+04  0.25500000000E-02 0. -1.
    8880023    1    1    2    0    0 -0.21934521700E+03  0.60093581665E+03 -0.14577475160E+04  0.17228099740E+04  0.65864270000E+03 0.  0.
    8880022    1    1    2    0    0  0.21934521700E+03 -0.60093581665E+03  0.11185176458E+03  0.66718711784E+03  0.15294330000E+03 0.  0.
<mgrwt>
<rscale>  0 0.84471189E+03</rscale>
<asrwt>0</asrwt>
<pdfrwt beam="1">  1        2 0.28737637E+00 0.91817557E+03</pdfrwt>
<pdfrwt beam="2">  1       -2 0.80315489E-01 0.91817557E+03</pdfrwt>
<totfact> 0.10944557E+01</totfact>
</mgrwt>
</event>
<event>
 4    2  0.3855935E-007  0.9006188E+03  0.7818608E-02  0.9525039E-01
         -2   -1    0    0    0  501 -0.00000000000E+00  0.00000000000E+00  0.89765980178E+03  0.89765980178E+03  0.25500000000E-02 0.  1.
          2   -1    0    0  501    0  0.00000000000E+00 -0.00000000000E+00 -0.74554065474E+03  0.74554065474E+03  0.25500000000E-02 0. -1.
    8880023    1    1    2    0    0  0.21565441843E+02  0.61387209679E+03  0.37012318818E+03  0.97370704023E+03  0.65864270000E+03 0.  0.
    8880022    1    1    2    0    0 -0.21565441843E+02 -0.61387209679E+03 -0.21800404114E+03  0.66949341630E+03  0.15294330000E+03 0.  0.
<mgrwt>
<rscale>  0 0.82462707E+03</rscale>
<asrwt>0</asrwt>
<pdfrwt beam="1">  1        2 0.11469856E+00 0.90061880E+03</pdfrwt>
<pdfrwt beam="2">  1       -2 0.13810151E+00 0.90061880E+03</pdfrwt>
<totfact> 0.14072444E+01</totfact>
</mgrwt>
</event>
<event>
 4    2  0.3855935E-007  0.9321010E+03  0.7818608E-02  0.9476348E-01
         -2   -1    0    0    0  501 -0.00000000000E+00  0.00000000000E+00  0.13262534660E+04  0.13262534660E+04  0.25500000000E-02 0.  1.
          2   -1    0    0  501    0  0.00000000000E+00 -0.00000000000E+00 -0.72203912944E+03  0.72203912944E+03  0.25500000000E-02 0. -1.
    8880023    1    1    2    0    0  0.63833562224E+03 -0.16592081485E+03  0.91246209044E+03  0.13043769993E+04  0.65864270000E+03 0.  1.
    8880022    1    1    2    0    0 -0.63833562224E+03  0.16592081485E+03 -0.30824775390E+03  0.74391559617E+03  0.15294330000E+03 0.  0.
<mgrwt>
<rscale>  0 0.86050236E+03</rscale>
<asrwt>0</asrwt>
<pdfrwt beam="1">  1        2 0.11108294E+00 0.93210101E+03</pdfrwt>
<pdfrwt beam="2">  1       -2 0.20403899E+00 0.93210101E+03</pdfrwt>
<totfact> 0.49309599E+00</totfact>
</mgrwt>
</event>
<event>
 4    2  0.3855935E-007  0.7212017E+03  0.7818608E-02  0.9918540E-01
          2   -1    0    0  501    0  0.00000000000E+00  0.00000000000E+00  0.14895807215E+04  0.14895807215E+04  0.25500000000E-02 0. -1.
         -2   -1    0    0    0  501 -0.00000000000E+00 -0.00000000000E+00 -0.38591686776E+03  0.38591686777E+03  0.25500000000E-02 0.  1.
    8880023    1    1    2    0    0 -0.22530420656E+03  0.18857298789E+03 -0.20840938756E+01  0.72120476078E+03  0.65864270000E+03 0.  0.
    8880022    1    1    2    0    0  0.22530420656E+03 -0.18857298789E+03  0.11057479476E+04  0.11542928285E+04  0.15294330000E+03 0.  0.
<mgrwt>
<rscale>  0 0.59371093E+03</rscale>
<asrwt>0</asrwt>
<pdfrwt beam="1">  1        2 0.22916626E+00 0.72120175E+03</pdfrwt>
<pdfrwt beam="2">  1       -2 0.59371827E-01 0.72120175E+03</pdfrwt>
<totfact> 0.34963510E+01</totfact>
</mgrwt>
</event>
<event>
 4    2  0.3855935E-007  0.1023431E+04  0.7818608E-02  0.9351524E-01
         -2   -1    0    0    0  501 -0.00000000000E+00  0.00000000000E+00  0.37008066063E+03  0.37008066064E+03  0.25500000000E-02 0.  1.
          2   -1    0    0  501    0  0.00000000000E+00 -0.00000000000E+00 -0.27135067915E+04  0.27135067915E+04  0.25500000000E-02 0. -1.
    8880023    1    1    2    0    0 -0.23173022161E+03 -0.74826656932E+03 -0.65242735694E+03  0.12137023592E+04  0.65864270000E+03 0.  0.
    8880022    1    1    2    0    0  0.23173022161E+03  0.74826656932E+03 -0.16909987740E+04  0.18698850930E+04  0.15294330000E+03 0.  0.
<mgrwt>
<rscale>  0 0.96174722E+03</rscale>
<asrwt>0</asrwt>
<pdfrwt beam="1">  1        2 0.41746257E+00 0.10234315E+04</pdfrwt>
<pdfrwt beam="2">  1       -2 0.56935488E-01 0.10234315E+04</pdfrwt>
<totfact> 0.76385998E+00</totfact>
</mgrwt>
</event>
<event>
 4    2  0.3855935E-007  0.7475253E+03  0.7818608E-02  0.9838545E-01
          2   -1    0    0  501    0  0.00000000000E+00  0.00000000000E+00  0.13673482002E+04  0.13673482003E+04  0.25500000000E-02 0. -1.
         -2   -1    0    0    0  501 -0.00000000000E+00 -0.00000000000E+00 -0.34032698074E+03  0.34032698075E+03  0.25500000000E-02 0.  1.
    8880023    1    1    2    0    0  0.32221135947E+03  0.14547756771E+03  0.16789503133E+03  0.76614804750E+03  0.65864270000E+03 0.  1.
    8880022    1    1    2    0    0 -0.32221135947E+03 -0.14547756771E+03  0.85912618818E+03  0.94152713350E+03  0.15294330000E+03 0.  0.
<mgrwt>
<rscale>  0 0.63334408E+03</rscale>
<asrwt>0</asrwt>
<pdfrwt beam="1">  1        2 0.21036126E+00 0.74752531E+03</pdfrwt>
<pdfrwt beam="2">  1       -2 0.52357998E-01 0.74752531E+03</pdfrwt>
<totfact> 0.53053564E+01</totfact>
</mgrwt>
</event>
<event>
 4    2  0.3855935E-007  0.7098456E+03  0.7818608E-02  0.9958575E-01
          2   -1    0    0  501    0  0.00000000000E+00  0.00000000000E+00  0.17559455050E+04  0.17559455050E+04  0.25500000000E-02 0. -1.
         -2   -1    0    0    0  501 -0.00000000000E+00 -0.00000000000E+00 -0.35002870193E+03  0.35002870194E+03  0.25500000000E-02 0.  1.
    8880023    1    1    2    0    0  0.25307101549E+03  0.77625173869E+02  0.45140886576E+02  0.71127948966E+03  0.65864270000E+03 0.  1.
    8880022    1    1    2    0    0 -0.25307101549E+03 -0.77625173869E+02  0.13607759165E+04  0.13946947173E+04  0.15294330000E+03 0.  0.
<mgrwt>
<rscale>  0 0.57504584E+03</rscale>
<asrwt>0</asrwt>
<pdfrwt beam="1">  1        2 0.27014546E+00 0.70984563E+03</pdfrwt>
<pdfrwt beam="2">  1       -2 0.53850569E-01 0.70984563E+03</pdfrwt>
<totfact> 0.30631394E+01</totfact>
</mgrwt>
</event>
<event>
 4    2  0.3855935E-007  0.7720066E+03  0.7818608E-02  0.9774960E-01
          2   -1    0    0  501    0  0.00000000000E+00  0.00000000000E+00  0.11504832339E+04  0.11504832339E+04  0.25500000000E-02 0. -1.
         -2   -1    0    0    0  501 -0.00000000000E+00 -0.00000000000E+00 -0.67642092132E+03  0.67642092133E+03  0.25500000000E-02 0.  1.
    8880023    1    1    2    0    0  0.21097652412E+03  0.34303489432E+03 -0.38738568174E+03  0.86374875116E+03  0.65864270000E+03 0.  1.
    8880022    1    1    2    0    0 -0.21097652412E+03 -0.34303489432E+03  0.86144799429E+03  0.96315540404E+03  0.15294330000E+03 0.  0.
<mgrwt>
<rscale>  0 0.66723821E+03</rscale>
<asrwt>0</asrwt>
<pdfrwt beam="1">  1        2 0.17699742E+00 0.77200663E+03</pdfrwt>
<pdfrwt beam="2">  1       -2 0.10406476E+00 0.77200663E+03</pdfrwt>
<totfact> 0.15483364E+01</totfact>
</mgrwt>
</event>
<event>
 4    2  0.4251576E-007  0.6753997E+03  0.7818608E-02  0.1012056E+00
          2   -1    0    0  501    0  0.00000000000E+00  0.00000000000E+00  0.16897563393E+04  0.16897563393E+04  0.25500000000E-02 0. -1.
         -2   -1    0    0    0  501 -0.00000000000E+00 -0.00000000000E+00 -0.12637577822E+04  0.12637577822E+04  0.25500000000E-02 0.  1.
    8880023    1    1    2    0    0 -0.13646816717E+03  0.61081777335E+02 -0.11658521077E+04  0.13473588563E+04  0.65864270000E+03 0.  1.
    8880022    1    1    2    0    0  0.13646816717E+03 -0.61081777335E+02  0.15918506648E+04  0.16061552653E+04  0.15294330000E+03 0.  0.
<mgrwt>
<rscale>  0 0.50665814E+03</rscale>
<asrwt>0</asrwt>
<pdfrwt beam="1">  1        2 0.25996251E+00 0.67539970E+03</pdfrwt>
<pdfrwt beam="2">  1       -2 0.19442427E+00 0.67539970E+03</pdfrwt>
<totfact> 0.15119524E+00</totfact>
</mgrwt>
</event>
<event>
 4    2  0.3855935E-007  0.7695309E+03  0.7818608E-02  0.9781030E-01
         -2   -1    0    0    0  501 -0.00000000000E+00  0.00000000000E+00  0.10444543987E+04  0.10444543987E+04  0.25500000000E-02 0.  1.
          2   -1    0    0  501    0  0.00000000000E+00 -0.00000000000E+00 -0.67852525934E+03  0.67852525934E+03  0.25500000000E-02 0. -1.
    8880023    1    1    2    0    0  0.39703684902E+03 -0.27006705484E+02  0.80314957413E+03  0.11123070917E+04  0.65864270000E+03 0.  1.
    8880022    1    1    2    0    0 -0.39703684902E+03  0.27006705484E+02 -0.43722043478E+03  0.61067256630E+03  0.15294330000E+03 0.  0.
<mgrwt>
<rscale>  0 0.66390605E+03</rscale>
<asrwt>0</asrwt>
<pdfrwt beam="1">  1        2 0.10438850E+00 0.76953091E+03</pdfrwt>
<pdfrwt beam="2">  1       -2 0.16068529E+00 0.76953091E+03</pdfrwt>
<totfact> 0.10757060E+01</totfact>
</mgrwt>
</event>
<event>
 4    2  0.3855935E-007  0.6853263E+03  0.7818608E-02  0.1006458E+00
          2   -1    0    0  501    0  0.00000000000E+00  0.00000000000E+00  0.14835280423E+04  0.14835280424E+04  0.25500000000E-02 0. -1.
         -2   -1    0    0    0  501 -0.00000000000E+00 -0.00000000000E+00 -0.21745909440E+03  0.21745909442E+03  0.25500000000E-02 0.  1.
    8880023    1    1    2    0    0 -0.24189387509E+02  0.18782131773E+03  0.38321882433E+03  0.78519350956E+03  0.65864270000E+03 0.  1.
    8880022    1    1    2    0    0  0.24189387509E+02 -0.18782131773E+03  0.88285012362E+03  0.91579362721E+03  0.15294330000E+03 0.  0.
<mgrwt>
<rscale>  0 0.52906914E+03</rscale>
<asrwt>0</asrwt>
<pdfrwt beam="1">  1        2 0.22823508E+00 0.68532633E+03</pdfrwt>
<pdfrwt beam="2">  1       -2 0.33455246E-01 0.68532633E+03</pdfrwt>
<totfact> 0.11083551E+02</totfact>
</mgrwt>
</event>
<event>
 4    2  0.3855935E-007  0.6822262E+03  0.7818608E-02  0.1008091E+00
         -2   -1    0    0    0  501 -0.00000000000E+00  0.00000000000E+00  0.14166880777E+03  0.14166880779E+03  0.25500000000E-02 0.  1.
          2   -1    0    0  501    0  0.00000000000E+00 -0.00000000000E+00 -0.16626122740E+04  0.16626122740E+04  0.25500000000E-02 0. -1.
    8880023    1    1    2    0    0 -0.15778387166E+03 -0.82016441668E+02 -0.82877942069E+03  0.10734560919E+04  0.65864270000E+03 0.  0.
    8880022    1    1    2    0    0  0.15778387166E+03  0.82016441668E+02 -0.69216404553E+03  0.73082498985E+03  0.15294330000E+03 0.  0.
<mgrwt>
<rscale>  0 0.52240289E+03</rscale>
<asrwt>0</asrwt>
<pdfrwt beam="1">  1        2 0.25578649E+00 0.68222625E+03</pdfrwt>
<pdfrwt beam="2">  1       -2 0.21795202E-01 0.68222625E+03</pdfrwt>
<totfact> 0.19302521E+02</totfact>
</mgrwt>
</event>
<event>
 4    2  0.3855935E-007  0.1056486E+04  0.7818608E-02  0.9311124E-01
         -2   -1    0    0    0  501 -0.00000000000E+00  0.00000000000E+00  0.57700024092E+03  0.57700024093E+03  0.25500000000E-02 0.  1.
          2   -1    0    0  501    0  0.00000000000E+00 -0.00000000000E+00 -0.16105188076E+04  0.16105188076E+04  0.25500000000E-02 0. -1.
    8880023    1    1    2    0    0 -0.15456677594E+03 -0.81145708851E+03 -0.76917064480E+03  0.13068233170E+04  0.65864270000E+03 0. -1.
    8880022    1    1    2    0    0  0.15456677594E+03  0.81145708851E+03 -0.26434792185E+03  0.88069573152E+03  0.15294330000E+03 0.  1.
<mgrwt>
<rscale>  0 0.99765170E+03</rscale>
<asrwt>0</asrwt>
<pdfrwt beam="1">  1        2 0.24777212E+00 0.10564865E+04</pdfrwt>
<pdfrwt beam="2">  1       -2 0.88769268E-01 0.10564865E+04</pdfrwt>
<totfact> 0.11902426E+01</totfact>
</mgrwt>
</event>
<event>
 4    2  0.3855935E-007  0.6648588E+03  0.7818608E-02  0.1019652E+00
          2   -1    0    0  501    0  0.00000000000E+00  0.00000000000E+00  0.79828844354E+03  0.79828844354E+03  0.25500000000E-02 0. -1.
         -2   -1    0    0    0  501 -0.00000000000E+00 -0.00000000000E+00 -0.13647271816E+04  0.13647271816E+04  0.25500000000E-02 0.  1.
    8880023    1    1    2    0    0 -0.79798402988E+02  0.43118747844E+02 -0.12720620368E+04  0.14353323807E+04  0.65864270000E+03 0.  1.
    8880022    1    1    2    0    0  0.79798402988E+02 -0.43118747844E+02  0.70562329869E+03  0.72768324442E+03  0.15294330000E+03 0.  0.
<mgrwt>
<rscale>  0 0.47812341E+03</rscale>
<asrwt>0</asrwt>
<pdfrwt beam="1">  1        2 0.12281361E+00 0.66485880E+03</pdfrwt>
<pdfrwt beam="2">  1       -2 0.20995803E+00 0.66485880E+03</pdfrwt>
<totfact> 0.41025742E+00</totfact>
</mgrwt>
</event>
<event>
 4    2  0.3963784E-007  0.6763211E+03  0.7818608E-02  0.1011486E+00
          2   -1    0    0  501    0  0.00000000000E+00  0.00000000000E+00  0.40846841566E+04  0.40846841566E+04  0.25500000000E-02 0. -1.
         -2   -1    0    0    0  501 -0.00000000000E+00 -0.00000000000E+00 -0.68887831053E+03  0.68887831053E+03  0.25500000000E-02 0.  1.
    8880023    1    1    2    0    0 -0.94022897177E+02 -0.12148962930E+03 -0.51915593148E+03  0.85260373133E+03  0.65864270000E+03 0.  1.
    8880022    1    1    2    0    0  0.94022897177E+02  0.12148962930E+03  0.39149617776E+04  0.39209587358E+04  0.15294330000E+03 0.  0.
<mgrwt>
<rscale>  0 0.50888229E+03</rscale>
<asrwt>0</asrwt>
<pdfrwt beam="1">  1        2 0.62841295E+00 0.67632111E+03</pdfrwt>
<pdfrwt beam="2">  1       -2 0.10598128E+00 0.67632111E+03</pdfrwt>
<totfact> 0.23971491E-01</totfact>
</mgrwt>
</event>
<event>
 4    2  0.4315367E-007  0.9111097E+03  0.7818608E-02  0.9508427E-01
         -2   -1    0    0    0  501 -0.00000000000E+00  0.00000000000E+00  0.76282871675E+03  0.76282871675E+03  0.25500000000E-02 0.  1.
          2   -1    0    0  501    0  0.00000000000E+00 -0.00000000000E+00 -0.39889647929E+04  0.39889647929E+04  0.25500000000E-02 0. -1.
    8880023    1    1    2    0    0  0.39516754323E+03  0.49005431841E+03  0.45198093801E+03  0.10170583055E+04  0.65864270000E+03 0.  1.
    8880022    1    1    2    0    0 -0.39516754323E+03 -0.49005431841E+03 -0.36781170141E+04  0.37347352041E+04  0.15294330000E+03 0. -1.
<mgrwt>
<rscale>  0 0.83665355E+03</rscale>
<asrwt>0</asrwt>
<pdfrwt beam="1">  1        2 0.61368688E+00 0.91110967E+03</pdfrwt>
<pdfrwt beam="2">  1       -2 0.11735827E+00 0.91110967E+03</pdfrwt>
<totfact> 0.20959789E-01</totfact>
</mgrwt>
</event>
<event>
 4    2  0.3855935E-007  0.8465426E+03  0.7818608E-02  0.9617965E-01
          2   -1    0    0  501    0  0.00000000000E+00  0.00000000000E+00  0.17241924136E+04  0.17241924136E+04  0.25500000000E-02 0. -1.
         -2   -1    0    0    0  501 -0.00000000000E+00 -0.00000000000E+00 -0.47107936843E+03  0.47107936843E+03  0.25500000000E-02 0.  1.
    8880023    1    1    2    0    0 -0.33623261608E+03 -0.41203365749E+03  0.23488709494E+02  0.84686836802E+03  0.65864270000E+03 0.  1.
    8880022    1    1    2    0    0  0.33623261608E+03  0.41203365749E+03  0.12296243357E+04  0.13484034141E+04  0.15294330000E+03 0.  0.
<mgrwt>
<rscale>  0 0.76118469E+03</rscale>
<asrwt>0</asrwt>
<pdfrwt beam="1">  1        2 0.26526037E+00 0.84654256E+03</pdfrwt>
<pdfrwt beam="2">  1       -2 0.72473750E-01 0.84654256E+03</pdfrwt>
<totfact> 0.16641864E+01</totfact>
</mgrwt>
</event>
<event>
 4    2  0.3855935E-007  0.7050034E+03  0.7818608E-02  0.9977046E-01
          2   -1    0    0  501    0  0.00000000000E+00  0.00000000000E+00  0.96933925374E+03  0.96933925374E+03  0.25500000000E-02 0. -1.
         -2   -1    0    0    0  501 -0.00000000000E+00 -0.00000000000E+00 -0.37224080652E+03  0.37224080653E+03  0.25500000000E-02 0.  1.
    8880023    1    1    2    0    0 -0.23773722806E+03 -0.81857009878E+02  0.33534378653E+02  0.70580048207E+03  0.65864270000E+03 0.  0.
    8880022    1    1    2    0    0  0.23773722806E+03  0.81857009878E+02  0.56356406856E+03  0.63577957820E+03  0.15294330000E+03 0.  0.
<mgrwt>
<rscale>  0 0.56668297E+03</rscale>
<asrwt>0</asrwt>
<pdfrwt beam="1">  1        2 0.14912912E+00 0.70500338E+03</pdfrwt>
<pdfrwt beam="2">  1       -2 0.57267816E-01 0.70500338E+03</pdfrwt>
<totfact> 0.76685012E+01</totfact>
</mgrwt>
</event>
<event>
 4    2  0.3855935E-007  0.6745285E+03  0.7818608E-02  0.1012605E+00
         -2   -1    0    0    0  501 -0.00000000000E+00  0.00000000000E+00  0.50956279006E+03  0.50956279007E+03  0.25500000000E-02 0.  1.
          2   -1    0    0  501    0  0.00000000000E+00 -0.00000000000E+00 -0.10665046951E+04  0.10665046951E+04  0.25500000000E-02 0. -1.
    8880023    1    1    2    0    0 -0.65378298971E+02 -0.13001586142E+03  0.26704388663E+03  0.72546611902E+03  0.65864270000E+03 0.  1.
    8880022    1    1    2    0    0  0.65378298971E+02  0.13001586142E+03 -0.82398579167E+03  0.85060136614E+03  0.15294330000E+03 0.  0.
<mgrwt>
<rscale>  0 0.50452264E+03</rscale>
<asrwt>0</asrwt>
<pdfrwt beam="1">  1        2 0.16407764E+00 0.67452847E+03</pdfrwt>
<pdfrwt beam="2">  1       -2 0.78394276E-01 0.67452847E+03</pdfrwt>
<totfact> 0.33882537E+01</totfact>
</mgrwt>
</event>
<event>
 4    2  0.3855935E-007  0.6686023E+03  0.7818608E-02  0.1016685E+00
         -2   -1    0    0    0  501 -0.00000000000E+00  0.00000000000E+00  0.48707692834E+02  0.48707692901E+02  0.25500000000E-02 0.  1.
          2   -1    0    0  501    0  0.00000000000E+00 -0.00000000000E+00 -0.40612287557E+04  0.40612287557E+04  0.25500000000E-02 0. -1.
    8880023    1    1    2    0    0  0.93650139228E+02 -0.66696468940E+02 -0.34904032297E+04  0.35538632050E+04  0.65864270000E+03 0.  0.
    8880022    1    1    2    0    0 -0.93650139228E+02  0.66696468940E+02 -0.52211783314E+03  0.55607324360E+03  0.15294330000E+03 0. -1.
<mgrwt>
<rscale>  0 0.48901983E+03</rscale>
<asrwt>0</asrwt>
<pdfrwt beam="1">  1        2 0.62480416E+00 0.66860225E+03</pdfrwt>
<pdfrwt beam="2">  1       -2 0.74934944E-02 0.66860225E+03</pdfrwt>
<totfact> 0.37336521E+01</totfact>
</mgrwt>
</event>
<event>
 4    2  0.3855935E-007  0.7359084E+03  0.7818608E-02  0.9872030E-01
         -2   -1    0    0    0  501 -0.00000000000E+00  0.00000000000E+00  0.11803731444E+04  0.11803731444E+04  0.25500000000E-02 0.  1.
          2   -1    0    0  501    0  0.00000000000E+00 -0.00000000000E+00 -0.13833688045E+04  0.13833688045E+04  0.25500000000E-02 0. -1.
    8880023    1    1    2    0    0 -0.17587413160E+03 -0.27716299958E+03  0.10372039788E+04  0.12717520743E+04  0.65864270000E+03 0.  0.
    8880022    1    1    2    0    0  0.17587413160E+03  0.27716299958E+03 -0.12401996390E+04  0.12919898746E+04  0.15294330000E+03 0.  0.
<mgrwt>
<rscale>  0 0.61636200E+03</rscale>
<asrwt>0</asrwt>
<pdfrwt beam="1">  1        2 0.21282597E+00 0.73590845E+03</pdfrwt>
<pdfrwt beam="2">  1       -2 0.18159587E+00 0.73590845E+03</pdfrwt>
<totfact> 0.26933423E+00</totfact>
</mgrwt>
</event>
<event>
 4    2  0.3855935E-007  0.9556608E+03  0.7818608E-02  0.9442016E-01
          2   -1    0    0  501    0  0.00000000000E+00  0.00000000000E+00  0.79452480697E+03  0.79452480698E+03  0.25500000000E-02 0. -1.
         -2   -1    0    0    0  501 -0.00000000000E+00 -0.00000000000E+00 -0.10633364458E+04  0.10633364458E+04  0.25500000000E-02 0.  1.
    8880023    1    1    2    0    0  0.37800873618E+03 -0.58016092351E+03 -0.54114033034E+03  0.10982351138E+04  0.65864270000E+03 0.  0.
    8880022    1    1    2    0    0 -0.37800873618E+03  0.58016092351E+03  0.27232869151E+03  0.75962613899E+03  0.15294330000E+03 0.  0.
<mgrwt>
<rscale>  0 0.88697151E+03</rscale>
<asrwt>0</asrwt>
<pdfrwt beam="1">  1        2 0.12223458E+00 0.95566077E+03</pdfrwt>
<pdfrwt beam="2">  1       -2 0.16359022E+00 0.95566077E+03</pdfrwt>
<totfact> 0.82059198E+00</totfact>
</mgrwt>
</event>
<event>
 4    2  0.3855935E-007  0.9413837E+03  0.7818608E-02  0.9462621E-01
         -2   -1    0    0    0  501 -0.00000000000E+00  0.00000000000E+00  0.56735210693E+03  0.56735210693E+03  0.25500000000E-02 0.  1.
          2   -1    0    0  501    0  0.00000000000E+00 -0.00000000000E+00 -0.25994222899E+04  0.25994222899E+04  0.25500000000E-02 0. -1.
    8880023    1    1    2    0    0 -0.50394922000E+03  0.44545292113E+03  0.80140796643E+02  0.94478879906E+03  0.65864270000E+03 0.  0.
    8880022    1    1    2    0    0  0.50394922000E+03 -0.44545292113E+03 -0.21122109796E+04  0.22219855977E+04  0.15294330000E+03 0.  0.
<mgrwt>
<rscale>  0 0.87096626E+03</rscale>
<asrwt>0</asrwt>
<pdfrwt beam="1">  1        2 0.39991111E+00 0.94138373E+03</pdfrwt>
<pdfrwt beam="2">  1       -2 0.87284941E-01 0.94138373E+03</pdfrwt>
<totfact> 0.35234466E+00</totfact>
</mgrwt>
</event>
<event>
 4    2  0.3855935E-007  0.7363511E+03  0.7818608E-02  0.9870706E-01
         -2   -1    0    0    0  501 -0.00000000000E+00  0.00000000000E+00  0.20467717591E+03  0.20467717592E+03  0.25500000000E-02 0.  1.
          2   -1    0    0  501    0  0.00000000000E+00 -0.00000000000E+00 -0.17131371026E+04  0.17131371026E+04  0.25500000000E-02 0. -1.
    8880023    1    1    2    0    0  0.29254227107E+03 -0.15106849813E+03 -0.63656390785E+03  0.97335835463E+03  0.65864270000E+03 0.  0.
    8880022    1    1    2    0    0 -0.29254227107E+03  0.15106849813E+03 -0.87189601887E+03  0.94445592392E+03  0.15294330000E+03 0.  0.
<mgrwt>
<rscale>  0 0.61702218E+03</rscale>
<asrwt>0</asrwt>
<pdfrwt beam="1">  1        2 0.26355954E+00 0.73635106E+03</pdfrwt>
<pdfrwt beam="2">  1       -2 0.31488797E-01 0.73635106E+03</pdfrwt>
<totfact> 0.92360565E+01</totfact>
</mgrwt>
</event>
<event>
 4    2  0.3855935E-007  0.7645758E+03  0.7818608E-02  0.9793402E-01
         -2   -1    0    0    0  501 -0.00000000000E+00  0.00000000000E+00  0.76937111106E+03  0.76937111106E+03  0.25500000000E-02 0.  1.
          2   -1    0    0  501    0  0.00000000000E+00 -0.00000000000E+00 -0.18873141552E+04  0.18873141552E+04  0.25500000000E-02 0. -1.
    8880023    1    1    2    0    0  0.33862605095E+03  0.18999567825E+03  0.54708957317E+03  0.94015060893E+03  0.65864270000E+03 0.  1.
    8880022    1    1    2    0    0 -0.33862605095E+03 -0.18999567825E+03 -0.16650326173E+04  0.17165346573E+04  0.15294330000E+03 0.  0.
<mgrwt>
<rscale>  0 0.65717831E+03</rscale>
<asrwt>0</asrwt>
<pdfrwt beam="1">  1        2 0.29035602E+00 0.76457581E+03</pdfrwt>
<pdfrwt beam="2">  1       -2 0.11836479E+00 0.76457581E+03</pdfrwt>
<totfact> 0.43720606E+00</totfact>
</mgrwt>
</event>
<event>
 4    2  0.3855935E-007  0.1172809E+04  0.7818608E-02  0.9184018E-01
         -2   -1    0    0    0  501 -0.00000000000E+00  0.00000000000E+00  0.59164322057E+03  0.59164322058E+03  0.25500000000E-02 0.  1.
          2   -1    0    0  501    0  0.00000000000E+00 -0.00000000000E+00 -0.25264058765E+04  0.25264058765E+04  0.25500000000E-02 0. -1.
    8880023    1    1    2    0    0 -0.88412135807E+03  0.39999882999E+03 -0.29958450239E+03  0.12104671495E+04  0.65864270000E+03 0.  1.
    8880022    1    1    2    0    0  0.88412135807E+03 -0.39999882999E+03 -0.16351781536E+04  0.19075819476E+04  0.15294330000E+03 0.  0.
<mgrwt>
<rscale>  0 0.11219918E+04</rscale>
<asrwt>0</asrwt>
<pdfrwt beam="1">  1        2 0.38867782E+00 0.11728085E+04</pdfrwt>
<pdfrwt beam="2">  1       -2 0.91022035E-01 0.11728085E+04</pdfrwt>
<totfact> 0.34183469E+00</totfact>
</mgrwt>
</event>
<event>
 4    2  0.3855935E-007  0.7154416E+03  0.7818608E-02  0.9938323E-01
          2   -1    0    0  501    0  0.00000000000E+00  0.00000000000E+00  0.25758592574E+04  0.25758592574E+04  0.25500000000E-02 0. -1.
         -2   -1    0    0    0  501 -0.00000000000E+00 -0.00000000000E+00 -0.26552444803E+03  0.26552444804E+03  0.25500000000E-02 0.  1.
    8880023    1    1    2    0    0 -0.26140498103E+03  0.98559505184E+02  0.25195666132E+03  0.75851097923E+03  0.65864270000E+03 0.  1.
    8880022    1    1    2    0    0  0.26140498103E+03 -0.98559505184E+02  0.20583781481E+04  0.20828727262E+04  0.15294330000E+03 0.  0.
<mgrwt>
<rscale>  0 0.58439414E+03</rscale>
<asrwt>0</asrwt>
<pdfrwt beam="1">  1        2 0.39628604E+00 0.71544164E+03</pdfrwt>
<pdfrwt beam="2">  1       -2 0.40849915E-01 0.71544164E+03</pdfrwt>
<totfact> 0.18802242E+01</totfact>
</mgrwt>
</event>
<event>
 4    2  0.3855935E-007  0.1064898E+04  0.7818608E-02  0.9301183E-01
          2   -1    0    0  501    0  0.00000000000E+00  0.00000000000E+00  0.98633405910E+03  0.98633405911E+03  0.25500000000E-02 0. -1.
         -2   -1    0    0    0  501 -0.00000000000E+00 -0.00000000000E+00 -0.22366848049E+04  0.22366848049E+04  0.25500000000E-02 0.  1.
    8880023    1    1    2    0    0 -0.76571216896E+03  0.33746524330E+03  0.57425621899E+03  0.12098670702E+04  0.65864270000E+03 0. -1.
    8880022    1    1    2    0    0  0.76571216896E+03 -0.33746524330E+03 -0.18246069648E+04  0.20131517939E+04  0.15294330000E+03 0.  0.
<mgrwt>
<rscale>  0 0.10067406E+04</rscale>
<asrwt>0</asrwt>
<pdfrwt beam="1">  1        2 0.15174370E+00 0.10648982E+04</pdfrwt>
<pdfrwt beam="2">  1       -2 0.34410535E+00 0.10648982E+04</pdfrwt>
<totfact> 0.43589136E-01</totfact>
</mgrwt>
</event>
<event>
 4    2  0.3855935E-007  0.9704920E+03  0.7818608E-02  0.9421224E-01
          2   -1    0    0  501    0  0.00000000000E+00  0.00000000000E+00  0.33000574261E+04  0.33000574261E+04  0.25500000000E-02 0. -1.
         -2   -1    0    0    0  501 -0.00000000000E+00 -0.00000000000E+00 -0.24247599794E+03  0.24247599795E+03  0.25500000000E-02 0.  1.
    8880023    1    1    2    0    0 -0.39516751406E+03 -0.59320075984E+03  0.22731932095E+04  0.24716921491E+04  0.65864270000E+03 0.  0.
    8880022    1    1    2    0    0  0.39516751406E+03  0.59320075984E+03  0.78438821860E+03  0.10708412750E+04  0.15294330000E+03 0.  0.
<mgrwt>
<rscale>  0 0.90349417E+03</rscale>
<asrwt>0</asrwt>
<pdfrwt beam="1">  1        2 0.50770109E+00 0.97049199E+03</pdfrwt>
<pdfrwt beam="2">  1       -2 0.37304004E-01 0.97049199E+03</pdfrwt>
<totfact> 0.78127844E+00</totfact>
</mgrwt>
</event>
<event>
 4    2  0.3855935E-007  0.7154448E+03  0.7818608E-02  0.9938312E-01
          2   -1    0    0  501    0  0.00000000000E+00  0.00000000000E+00  0.98461583446E+03  0.98461583446E+03  0.25500000000E-02 0. -1.
         -2   -1    0    0    0  501 -0.00000000000E+00 -0.00000000000E+00 -0.81678620342E+03  0.81678620342E+03  0.25500000000E-02 0.  1.
    8880023    1    1    2    0    0  0.20478401598E+03  0.19003816038E+03 -0.62310508108E+03  0.94874714436E+03  0.65864270000E+03 0.  0.
    8880022    1    1    2    0    0 -0.20478401598E+03 -0.19003816038E+03  0.79093471212E+03  0.85265489353E+03  0.15294330000E+03 0.  0.
<mgrwt>
<rscale>  0 0.58439925E+03</rscale>
<asrwt>0</asrwt>
<pdfrwt beam="1">  1        2 0.15147936E+00 0.71544476E+03</pdfrwt>
<pdfrwt beam="2">  1       -2 0.12565942E+00 0.71544476E+03</pdfrwt>
<totfact> 0.12451310E+01</totfact>
</mgrwt>
</event>
<event>
 4    2  0.3855935E-007  0.7677417E+03  0.7818608E-02  0.9785462E-01
         -2   -1    0    0    0  501 -0.00000000000E+00  0.00000000000E+00  0.14443919547E+03  0.14443919549E+03  0.25500000000E-02 0.  1.
          2   -1    0    0  501    0  0.00000000000E+00 -0.00000000000E+00 -0.33233617149E+04  0.33233617149E+04  0.25500000000E-02 0. -1.
    8880023    1    1    2    0    0  0.57681635083E+02 -0.39024343415E+03 -0.10704905749E+04  0.13173372333E+04  0.65864270000E+03 0.  0.
    8880022    1    1    2    0    0 -0.57681635083E+02  0.39024343415E+03 -0.21084319445E+04  0.21504636771E+04  0.15294330000E+03 0.  0.
<mgrwt>
<rscale>  0 0.66148596E+03</rscale>
<asrwt>0</asrwt>
<pdfrwt beam="1">  1        2 0.51128636E+00 0.76774170E+03</pdfrwt>
<pdfrwt beam="2">  1       -2 0.22221417E-01 0.76774170E+03</pdfrwt>
<totfact> 0.20302535E+01</totfact>
</mgrwt>
</event>
<event>
 4    2  0.3855935E-007  0.9124969E+03  0.7818608E-02  0.9506261E-01
         -2   -1    0    0    0  501 -0.00000000000E+00  0.00000000000E+00  0.17665451725E+04  0.17665451725E+04  0.25500000000E-02 0.  1.
          2   -1    0    0  501    0  0.00000000000E+00 -0.00000000000E+00 -0.42122191449E+03  0.42122191450E+03  0.25500000000E-02 0. -1.
    8880023    1    1    2    0    0 -0.35952809309E+03  0.51921086846E+03  0.12240641121E+04  0.15267558850E+04  0.65864270000E+03 0.  0.
    8880022    1    1    2    0    0  0.35952809309E+03 -0.51921086846E+03  0.12125914590E+03  0.66101120197E+03  0.15294330000E+03 0.  0.
<mgrwt>
<rscale>  0 0.83823819E+03</rscale>
<asrwt>0</asrwt>
<pdfrwt beam="1">  1        2 0.64803372E-01 0.91249689E+03</pdfrwt>
<pdfrwt beam="2">  1       -2 0.27177618E+00 0.91249689E+03</pdfrwt>
<totfact> 0.35920584E+00</totfact>
</mgrwt>
</event>
<event>
 4    2  0.3855935E-007  0.6698277E+03  0.7818608E-02  0.1015787E+00
         -2   -1    0    0    0  501 -0.00000000000E+00  0.00000000000E+00  0.84267773224E+03  0.84267773224E+03  0.25500000000E-02 0.  1.
          2   -1    0    0  501    0  0.00000000000E+00 -0.00000000000E+00 -0.35438885738E+03  0.35438885739E+03  0.25500000000E-02 0. -1.
    8880023    1    1    2    0    0 -0.11541619278E+03 -0.39218279683E+02  0.65738642265E+03  0.93852335398E+03  0.65864270000E+03 0.  1.
    8880022    1    1    2    0    0  0.11541619278E+03  0.39218279683E+02 -0.16909754780E+03  0.25854323566E+03  0.15294330000E+03 0.  0.
<mgrwt>
<rscale>  0 0.49238198E+03</rscale>
<asrwt>0</asrwt>
<pdfrwt beam="1">  1        2 0.54521362E-01 0.66982772E+03</pdfrwt>
<pdfrwt beam="2">  1       -2 0.12964273E+00 0.66982772E+03</pdfrwt>
<totfact> 0.40526967E+01</totfact>
</mgrwt>
</event>
<event>
 4    2  0.3855935E-007  0.6816759E+03  0.7818608E-02  0.1008391E+00
         -2   -1    0    0    0  501 -0.00000000000E+00  0.00000000000E+00  0.13522305972E+04  0.13522305973E+04  0.25500000000E-02 0.  1.
          2   -1    0    0  501    0  0.00000000000E+00 -0.00000000000E+00 -0.62131785472E+03  0.62131785473E+03  0.25500000000E-02 0. -1.
    8880023    1    1    2    0    0  0.15794077909E+03 -0.76983610053E+02  0.12392591392E+04  0.14143709507E+04  0.65864270000E+03 0.  0.
    8880022    1    1    2    0    0 -0.15794077909E+03  0.76983610053E+02 -0.50834639665E+03  0.55917750126E+03  0.15294330000E+03 0.  0.
<mgrwt>
<rscale>  0 0.52119090E+03</rscale>
<asrwt>0</asrwt>
<pdfrwt beam="1">  1        2 0.95587362E-01 0.68167586E+03</pdfrwt>
<pdfrwt beam="2">  1       -2 0.20803548E+00 0.68167586E+03</pdfrwt>
<totfact> 0.57765249E+00</totfact>
</mgrwt>
</event>
<event>
 4    2  0.3855935E-007  0.1040997E+04  0.7818608E-02  0.9329784E-01
         -2   -1    0    0    0  501 -0.00000000000E+00  0.00000000000E+00  0.16266037145E+04  0.16266037145E+04  0.25500000000E-02 0.  1.
          2   -1    0    0  501    0  0.00000000000E+00 -0.00000000000E+00 -0.59343178315E+03  0.59343178315E+03  0.25500000000E-02 0. -1.
    8880023    1    1    2    0    0 -0.68715624446E+03  0.42152138214E+03  0.92467577678E+03  0.13923718894E+04  0.65864270000E+03 0.  0.
    8880022    1    1    2    0    0  0.68715624446E+03 -0.42152138214E+03  0.10849615458E+03  0.82766360828E+03  0.15294330000E+03 0.  0.
<mgrwt>
<rscale>  0 0.98086564E+03</rscale>
<asrwt>0</asrwt>
<pdfrwt beam="1">  1        2 0.91297200E-01 0.10409967E+04</pdfrwt>
<pdfrwt beam="2">  1       -2 0.25024672E+00 0.10409967E+04</pdfrwt>
<totfact> 0.32020695E+00</totfact>
</mgrwt>
</event>
<event>
 4    2  0.3855935E-007  0.7002963E+03  0.7818608E-02  0.9995974E-01
         -2   -1    0    0    0  501 -0.00000000000E+00  0.00000000000E+00  0.44705017347E+03  0.44705017348E+03  0.25500000000E-02 0.  1.
          2   -1    0    0  501    0  0.00000000000E+00 -0.00000000000E+00 -0.80466165002E+03  0.80466165002E+03  0.25500000000E-02 0. -1.
    8880023    1    1    2    0    0  0.67863488274E+02  0.22803332231E+03  0.10636101348E+03  0.70832726940E+03  0.65864270000E+03 0.  1.
    8880022    1    1    2    0    0 -0.67863488274E+02 -0.22803332231E+03 -0.46397249003E+03  0.54338455410E+03  0.15294330000E+03 0.  0.
<mgrwt>
<rscale>  0 0.55827103E+03</rscale>
<asrwt>0</asrwt>
<pdfrwt beam="1">  1        2 0.12379410E+00 0.70029626E+03</pdfrwt>
<pdfrwt beam="2">  1       -2 0.68776950E-01 0.70029626E+03</pdfrwt>
<totfact> 0.67160383E+01</totfact>
</mgrwt>
</event>
<event>
 4    2  0.3855935E-007  0.7249405E+03  0.7818608E-02  0.9906210E-01
          2   -1    0    0  501    0  0.00000000000E+00  0.00000000000E+00  0.96301173976E+03  0.96301173977E+03  0.25500000000E-02 0. -1.
         -2   -1    0    0    0  501 -0.00000000000E+00 -0.00000000000E+00 -0.30999974948E+03  0.30999974949E+03  0.25500000000E-02 0.  1.
    8880023    1    1    2    0    0  0.13137138936E+03  0.27289212788E+03  0.30352726238E+03  0.78591829135E+03  0.65864270000E+03 0.  0.
    8880022    1    1    2    0    0 -0.13137138936E+03 -0.27289212788E+03  0.34948472790E+03  0.48709319791E+03  0.15294330000E+03 0.  1.
<mgrwt>
<rscale>  0 0.59961257E+03</rscale>
<asrwt>0</asrwt>
<pdfrwt beam="1">  1        2 0.14815565E+00 0.72494052E+03</pdfrwt>
<pdfrwt beam="2">  1       -2 0.47692270E-01 0.72494052E+03</pdfrwt>
<totfact> 0.11252324E+02</totfact>
</mgrwt>
</event>
<event>
 4    2  0.3855935E-007  0.7330617E+03  0.7818608E-02  0.9880639E-01
          2   -1    0    0  501    0  0.00000000000E+00  0.00000000000E+00  0.22367127484E+04  0.22367127484E+04  0.25500000000E-02 0. -1.
         -2   -1    0    0    0  501 -0.00000000000E+00 -0.00000000000E+00 -0.69856033505E+03  0.69856033506E+03  0.25500000000E-02 0.  1.
    8880023    1    1    2    0    0 -0.16755577278E+03 -0.27476238780E+03 -0.48630373121E+03  0.87969928498E+03  0.65864270000E+03 0.  0.
    8880022    1    1    2    0    0  0.16755577278E+03  0.27476238780E+03  0.20244561446E+04  0.20555737985E+04  0.15294330000E+03 0.  0.
<mgrwt>
<rscale>  0 0.61208846E+03</rscale>
<asrwt>0</asrwt>
<pdfrwt beam="1">  1        2 0.34410965E+00 0.73306174E+03</pdfrwt>
<pdfrwt beam="2">  1       -2 0.10747082E+00 0.73306174E+03</pdfrwt>
<totfact> 0.35786050E+00</totfact>
</mgrwt>
</event>
<event>
 4    2  0.4309436E-007  0.9161119E+03  0.7818608E-02  0.9500646E-01
         -2   -1    0    0    0  501 -0.00000000000E+00  0.00000000000E+00  0.16108560615E+04  0.16108560615E+04  0.25500000000E-02 0.  1.
          2   -1    0    0  501    0  0.00000000000E+00 -0.00000000000E+00 -0.14686645227E+04  0.14686645227E+04  0.25500000000E-02 0. -1.
    8880023    1    1    2    0    0 -0.44971791142E+03  0.45078226608E+03  0.13932374659E+04  0.16674446599E+04  0.65864270000E+03 0.  1.
    8880022    1    1    2    0    0  0.44971791142E+03 -0.45078226608E+03 -0.12510459271E+04  0.14120759243E+04  0.15294330000E+03 0.  0.
<mgrwt>
<rscale>  0 0.84236173E+03</rscale>
<asrwt>0</asrwt>
<pdfrwt beam="1">  1        2 0.22594839E+00 0.91611192E+03</pdfrwt>
<pdfrwt beam="2">  1       -2 0.24782401E+00 0.91611192E+03</pdfrwt>
<totfact> 0.88579970E-01</totfact>
</mgrwt>
</event>
<event>
 4    2  0.3855935E-007  0.6993650E+03  0.7818608E-02  0.9999846E-01
         -2   -1    0    0    0  501 -0.00000000000E+00  0.00000000000E+00  0.13994052647E+04  0.13994052647E+04  0.25500000000E-02 0.  1.
          2   -1    0    0  501    0  0.00000000000E+00 -0.00000000000E+00 -0.20987706033E+03  0.20987706034E+03  0.25500000000E-02 0. -1.
    8880023    1    1    2    0    0 -0.18562251850E+03 -0.14437958962E+03  0.11197546400E+04  0.13202128030E+04  0.65864270000E+03 0.  1.
    8880022    1    1    2    0    0  0.18562251850E+03  0.14437958962E+03  0.69773564429E+02  0.28906952205E+03  0.15294330000E+03 0.  0.
<mgrwt>
<rscale>  0 0.55657003E+03</rscale>
<asrwt>0</asrwt>
<pdfrwt beam="1">  1        2 0.32288779E-01 0.69936499E+03</pdfrwt>
<pdfrwt beam="2">  1       -2 0.21529311E+00 0.69936499E+03</pdfrwt>
<totfact> 0.17753688E+01</totfact>
</mgrwt>
</event>
<event>
 4    2  0.3855935E-007  0.6624703E+03  0.7818608E-02  0.1021757E+00
         -2   -1    0    0    0  501 -0.00000000000E+00  0.00000000000E+00  0.29129350224E+03  0.29129350225E+03  0.25500000000E-02 0.  1.
          2   -1    0    0  501    0  0.00000000000E+00 -0.00000000000E+00 -0.65177111772E+03  0.65177111773E+03  0.25500000000E-02 0. -1.
    8880023    1    1    2    0    0  0.65103228861E+02  0.28604323911E+02 -0.16084083713E+03  0.68171593711E+03  0.65864270000E+03 0.  1.
    8880022    1    1    2    0    0 -0.65103228861E+02 -0.28604323911E+02 -0.19963677835E+03  0.26134868287E+03  0.15294330000E+03 0.  0.
<mgrwt>
<rscale>  0 0.47057821E+03</rscale>
<asrwt>0</asrwt>
<pdfrwt beam="1">  1        2 0.10027248E+00 0.66247026E+03</pdfrwt>
<pdfrwt beam="2">  1       -2 0.44814385E-01 0.66247026E+03</pdfrwt>
<totfact> 0.21442638E+02</totfact>
</mgrwt>
</event>
<event>
 4    2  0.3855935E-007  0.6608035E+03  0.7818608E-02  0.1023348E+00
         -2   -1    0    0    0  501 -0.00000000000E+00  0.00000000000E+00  0.79054251398E+03  0.79054251398E+03  0.25500000000E-02 0.  1.
          2   -1    0    0  501    0  0.00000000000E+00 -0.00000000000E+00 -0.77769761767E+03  0.77769761767E+03  0.25500000000E-02 0. -1.
    8880023    1    1    2    0    0 -0.37270939169E+02  0.38234935006E+02  0.64034628929E+03  0.92016553382E+03  0.65864270000E+03 0.  1.
    8880022    1    1    2    0    0  0.37270939169E+02 -0.38234935006E+02 -0.62750139297E+03  0.64807459784E+03  0.15294330000E+03 0.  0.
<mgrwt>
<rscale>  0 0.46497572E+03</rscale>
<asrwt>0</asrwt>
<pdfrwt beam="1">  1        2 0.11964579E+00 0.66080348E+03</pdfrwt>
<pdfrwt beam="2">  1       -2 0.12162193E+00 0.66080348E+03</pdfrwt>
<totfact> 0.18805668E+01</totfact>
</mgrwt>
</event>
<event>
 4    2  0.3855935E-007  0.8613822E+03  0.7818608E-02  0.9591109E-01
         -2   -1    0    0    0  501 -0.00000000000E+00  0.00000000000E+00  0.44372867485E+03  0.44372867486E+03  0.25500000000E-02 0.  1.
          2   -1    0    0  501    0  0.00000000000E+00 -0.00000000000E+00 -0.29319223841E+04  0.29319223841E+04  0.25500000000E-02 0. -1.
    8880023    1    1    2    0    0 -0.53317564049E+03  0.15457302506E+03 -0.41789452319E+02  0.86239529699E+03  0.65864270000E+03 0.  0.
    8880022    1    1    2    0    0  0.53317564049E+03 -0.15457302506E+03 -0.24464042569E+04  0.25132557619E+04  0.15294330000E+03 0.  0.
<mgrwt>
<rscale>  0 0.77887418E+03</rscale>
<asrwt>0</asrwt>
<pdfrwt beam="1">  1        2 0.45106497E+00 0.86138220E+03</pdfrwt>
<pdfrwt beam="2">  1       -2 0.68265952E-01 0.86138220E+03</pdfrwt>
<totfact> 0.39308290E+00</totfact>
</mgrwt>
</event>
<event>
 4    2  0.3855935E-007  0.1159212E+04  0.7818608E-02  0.9197828E-01
         -2   -1    0    0    0  501 -0.00000000000E+00  0.00000000000E+00  0.44208811229E+03  0.44208811229E+03  0.25500000000E-02 0.  1.
          2   -1    0    0  501    0  0.00000000000E+00 -0.00000000000E+00 -0.34650898322E+04  0.34650898322E+04  0.25500000000E-02 0. -1.
    8880023    1    1    2    0    0  0.62506239443E+03 -0.72059609186E+03 -0.61423220836E+03  0.13118891480E+04  0.65864270000E+03 0.  0.
    8880022    1    1    2    0    0 -0.62506239443E+03  0.72059609186E+03 -0.24087695115E+04  0.25952887965E+04  0.15294330000E+03 0.  0.
<mgrwt>
<rscale>  0 0.11075870E+04</rscale>
<asrwt>0</asrwt>
<pdfrwt beam="1">  1        2 0.53309072E+00 0.11592118E+04</pdfrwt>
<pdfrwt beam="2">  1       -2 0.68013558E-01 0.11592118E+04</pdfrwt>
<totfact> 0.17194211E+00</totfact>
</mgrwt>
</event>
<event>
 4    2  0.3855935E-007  0.6685367E+03  0.7818608E-02  0.1016734E+00
          2   -1    0    0  501    0  0.00000000000E+00  0.00000000000E+00  0.40096186406E+04  0.40096186406E+04  0.25500000000E-02 0. -1.
         -2   -1    0    0    0  501 -0.00000000000E+00 -0.00000000000E+00 -0.99546429210E+02  0.99546429243E+02  0.25500000000E-02 0.  1.
    8880023    1    1    2    0    0 -0.17001331440E+02  0.11332283613E+03  0.10634293756E+04  0.12561143872E+04  0.65864270000E+03 0.  1.
    8880022    1    1    2    0    0  0.17001331440E+02 -0.11332283613E+03  0.28466428357E+04  0.28530506827E+04  0.15294330000E+03 0.  0.
<mgrwt>
<rscale>  0 0.48883736E+03</rscale>
<asrwt>0</asrwt>
<pdfrwt beam="1">  1        2 0.61686447E+00 0.66853670E+03</pdfrwt>
<pdfrwt beam="2">  1       -2 0.15314834E-01 0.66853670E+03</pdfrwt>
<totfact> 0.12737634E+01</totfact>
</mgrwt>
</event>
<event>
 4    2  0.3855935E-007  0.6807054E+03  0.7818608E-02  0.1008927E+00
          2   -1    0    0  501    0  0.00000000000E+00  0.00000000000E+00  0.12753026181E+04  0.12753026181E+04  0.25500000000E-02 0. -1.
         -2   -1    0    0    0  501 -0.00000000000E+00 -0.00000000000E+00 -0.17538783678E+03  0.17538783680E+03  0.25500000000E-02 0.  1.
    8880023    1    1    2    0    0 -0.16203404777E+03  0.57399159161E+02  0.63015312571E+03  0.92760598543E+03  0.65864270000E+03 0.  0.
    8880022    1    1    2    0    0  0.16203404777E+03 -0.57399159161E+02  0.46976165565E+03  0.52308446951E+03  0.15294330000E+03 0.  0.
<mgrwt>
<rscale>  0 0.51903159E+03</rscale>
<asrwt>0</asrwt>
<pdfrwt beam="1">  1        2 0.19620040E+00 0.68070544E+03</pdfrwt>
<pdfrwt beam="2">  1       -2 0.26982745E-01 0.68070544E+03</pdfrwt>
<totfact> 0.21670641E+02</totfact>
</mgrwt>
</event>
<event>
 4    2  0.3855935E-007  0.9661420E+03  0.7818608E-02  0.9427260E-01
          2   -1    0    0  501    0  0.00000000000E+00  0.00000000000E+00  0.21520886749E+04  0.21520886749E+04  0.25500000000E-02 0. -1.
         -2   -1    0    0    0  501 -0.00000000000E+00 -0.00000000000E+00 -0.34174402741E+03  0.34174402742E+03  0.25500000000E-02 0.  1.
    8880023    1    1    2    0    0 -0.69124726862E+03  0.14763909164E+03  0.81797702024E+03  0.12659054861E+04  0.65864270000E+03 0.  1.
    8880022    1    1    2    0    0  0.69124726862E+03 -0.14763909164E+03  0.99236762721E+03  0.12279272162E+04  0.15294330000E+03 0. -1.
<mgrwt>
<rscale>  0 0.89865840E+03</rscale>
<asrwt>0</asrwt>
<pdfrwt beam="1">  1        2 0.33109057E+00 0.96614196E+03</pdfrwt>
<pdfrwt beam="2">  1       -2 0.52576003E-01 0.96614196E+03</pdfrwt>
<totfact> 0.18937727E+01</totfact>
</mgrwt>
</event>
<event>
 4    2  0.3855935E-007  0.7805499E+03  0.7818608E-02  0.9754547E-01
          2   -1    0    0  501    0  0.00000000000E+00  0.00000000000E+00  0.18415540040E+04  0.18415540040E+04  0.25500000000E-02 0. -1.
         -2   -1    0    0    0  501 -0.00000000000E+00 -0.00000000000E+00 -0.21850757249E+03  0.21850757250E+03  0.25500000000E-02 0.  1.
    8880023    1    1    2    0    0 -0.16362123654E+03  0.38558523962E+03  0.12726488903E+04  0.14929478525E+04  0.65864270000E+03 0.  1.
    8880022    1    1    2    0    0  0.16362123654E+03 -0.38558523962E+03  0.35039754123E+03  0.56711372402E+03  0.15294330000E+03 0. -1.
<mgrwt>
<rscale>  0 0.67859918E+03</rscale>
<asrwt>0</asrwt>
<pdfrwt beam="1">  1        2 0.28331599E+00 0.78054987E+03</pdfrwt>
<pdfrwt beam="2">  1       -2 0.33616551E-01 0.78054987E+03</pdfrwt>
<totfact> 0.69181769E+01</totfact>
</mgrwt>
</event>
<event>
 4    2  0.3855935E-007  0.1132684E+04  0.7818608E-02  0.9225510E-01
          2   -1    0    0  501    0  0.00000000000E+00  0.00000000000E+00  0.24289965353E+04  0.24289965353E+04  0.25500000000E-02 0. -1.
         -2   -1    0    0    0  501 -0.00000000000E+00 -0.00000000000E+00 -0.10594249828E+04  0.10594249828E+04  0.25500000000E-02 0.  1.
    8880023    1    1    2    0    0  0.89029718763E+03 -0.23777022532E+03 -0.61943028365E+03  0.12909949051E+04  0.65864270000E+03 0.  1.
    8880022    1    1    2    0    0 -0.89029718763E+03  0.23777022532E+03  0.19890018362E+04  0.21974266130E+04  0.15294330000E+03 0.  0.
<mgrwt>
<rscale>  0 0.10793960E+04</rscale>
<asrwt>0</asrwt>
<pdfrwt beam="1">  1        2 0.37369177E+00 0.11326844E+04</pdfrwt>
<pdfrwt beam="2">  1       -2 0.16298846E+00 0.11326844E+04</pdfrwt>
<totfact> 0.90234717E-01</totfact>
</mgrwt>
</event>
<event>
 4    2  0.3855935E-007  0.9311812E+03  0.7818608E-02  0.9477723E-01
         -2   -1    0    0    0  501 -0.00000000000E+00  0.00000000000E+00  0.95961704020E+03  0.95961704020E+03  0.25500000000E-02 0.  1.
          2   -1    0    0  501    0  0.00000000000E+00 -0.00000000000E+00 -0.14370761249E+04  0.14370761249E+04  0.25500000000E-02 0. -1.
    8880023    1    1    2    0    0  0.14237094553E+03 -0.64266537339E+03  0.61226659769E+03  0.11144365667E+04  0.65864270000E+03 0.  1.
    8880022    1    1    2    0    0 -0.14237094553E+03  0.64266537339E+03 -0.10897256824E+04  0.12822565984E+04  0.15294330000E+03 0.  0.
<mgrwt>
<rscale>  0 0.85946293E+03</rscale>
<asrwt>0</asrwt>
<pdfrwt beam="1">  1        2 0.22108863E+00 0.93118123E+03</pdfrwt>
<pdfrwt beam="2">  1       -2 0.14763339E+00 0.93118123E+03</pdfrwt>
<totfact> 0.43084980E+00</totfact>
</mgrwt>
</event>
<event>
 4    2  0.3855935E-007  0.8483988E+03  0.7818608E-02  0.9614542E-01
         -2   -1    0    0    0  501 -0.00000000000E+00  0.00000000000E+00  0.86371059213E+03  0.86371059213E+03  0.25500000000E-02 0.  1.
          2   -1    0    0  501    0  0.00000000000E+00 -0.00000000000E+00 -0.87845340393E+03  0.87845340394E+03  0.25500000000E-02 0. -1.
    8880023    1    1    2    0    0  0.47431395492E+03  0.24697481164E+03  0.49962015026E+03  0.98458152849E+03  0.65864270000E+03 0.  0.
    8880022    1    1    2    0    0 -0.47431395492E+03 -0.24697481164E+03 -0.51436296207E+03  0.75758246758E+03  0.15294330000E+03 0.  0.
<mgrwt>
<rscale>  0 0.76341095E+03</rscale>
<asrwt>0</asrwt>
<pdfrwt beam="1">  1        2 0.13514668E+00 0.84839878E+03</pdfrwt>
<pdfrwt beam="2">  1       -2 0.13287855E+00 0.84839878E+03</pdfrwt>
<totfact> 0.12530720E+01</totfact>
</mgrwt>
</event>
<event>
 4    2  0.3855935E-007  0.8979909E+03  0.7818608E-02  0.9529265E-01
         -2   -1    0    0    0  501 -0.00000000000E+00  0.00000000000E+00  0.58257020837E+03  0.58257020838E+03  0.25500000000E-02 0.  1.
          2   -1    0    0  501    0  0.00000000000E+00 -0.00000000000E+00 -0.16870590407E+04  0.16870590407E+04  0.25500000000E-02 0. -1.
    8880023    1    1    2    0    0  0.58194827536E+03 -0.18415638438E+03  0.10712083495E+03  0.90435747835E+03  0.65864270000E+03 0.  1.
    8880022    1    1    2    0    0 -0.58194827536E+03  0.18415638438E+03 -0.12116096673E+04  0.13652717707E+04  0.15294330000E+03 0.  0.
<mgrwt>
<rscale>  0 0.82160219E+03</rscale>
<asrwt>0</asrwt>
<pdfrwt beam="1">  1        2 0.25954754E+00 0.89799085E+03</pdfrwt>
<pdfrwt beam="2">  1       -2 0.89626186E-01 0.89799085E+03</pdfrwt>
<totfact> 0.10735437E+01</totfact>
</mgrwt>
</event>
<event>
 4    2  0.3855935E-007  0.7072146E+03  0.7818608E-02  0.9968493E-01
         -2   -1    0    0    0  501 -0.00000000000E+00  0.00000000000E+00  0.44067823602E+03  0.44067823603E+03  0.25500000000E-02 0.  1.
          2   -1    0    0  501    0  0.00000000000E+00 -0.00000000000E+00 -0.26154592457E+04  0.26154592457E+04  0.25500000000E-02 0. -1.
    8880023    1    1    2    0    0  0.85151220543E+02 -0.24308744955E+03  0.14094017009E+03  0.72112174860E+03  0.65864270000E+03 0.  1.
    8880022    1    1    2    0    0 -0.85151220543E+02  0.24308744955E+03 -0.23157211798E+04  0.23350157331E+04  0.15294330000E+03 0.  0.
<mgrwt>
<rscale>  0 0.57053588E+03</rscale>
<asrwt>0</asrwt>
<pdfrwt beam="1">  1        2 0.40237834E+00 0.70721457E+03</pdfrwt>
<pdfrwt beam="2">  1       -2 0.67796653E-01 0.70721457E+03</pdfrwt>
<totfact> 0.63040751E+00</totfact>
</mgrwt>
</event>
<event>
 4    2  0.3855935E-007  0.9487727E+03  0.7818608E-02  0.9451882E-01
          2   -1    0    0  501    0  0.00000000000E+00  0.00000000000E+00  0.21653297085E+04  0.21653297085E+04  0.25500000000E-02 0. -1.
         -2   -1    0    0    0  501 -0.00000000000E+00 -0.00000000000E+00 -0.69094637525E+03  0.69094637525E+03  0.25500000000E-02 0.  1.
    8880023    1    1    2    0    0 -0.11130321590E+03  0.67377378081E+03 -0.26190569371E+03  0.98425825485E+03  0.65864270000E+03 0.  1.
    8880022    1    1    2    0    0  0.11130321590E+03 -0.67377378081E+03  0.17362890270E+04  0.18720178289E+04  0.15294330000E+03 0.  0.
<mgrwt>
<rscale>  0 0.87926257E+03</rscale>
<asrwt>0</asrwt>
<pdfrwt beam="1">  1        2 0.33312765E+00 0.94877274E+03</pdfrwt>
<pdfrwt beam="2">  1       -2 0.10629944E+00 0.94877274E+03</pdfrwt>
<totfact> 0.38898915E+00</totfact>
</mgrwt>
</event>
<event>
 4    2  0.3855935E-007  0.8501672E+03  0.7818608E-02  0.9611299E-01
         -2   -1    0    0    0  501 -0.00000000000E+00  0.00000000000E+00  0.37794079198E+03  0.37794079199E+03  0.25500000000E-02 0.  1.
          2   -1    0    0  501    0  0.00000000000E+00 -0.00000000000E+00 -0.20399201913E+04  0.20399201913E+04  0.25500000000E-02 0. -1.
    8880023    1    1    2    0    0 -0.23798658264E+03  0.48201297130E+03 -0.23007634955E+03  0.88074936895E+03  0.65864270000E+03 0.  1.
    8880022    1    1    2    0    0  0.23798658264E+03 -0.48201297130E+03 -0.14319030498E+04  0.15371116143E+04  0.15294330000E+03 0.  0.
<mgrwt>
<rscale>  0 0.76552821E+03</rscale>
<asrwt>0</asrwt>
<pdfrwt beam="1">  1        2 0.31383387E+00 0.85016723E+03</pdfrwt>
<pdfrwt beam="2">  1       -2 0.58144738E-01 0.85016723E+03</pdfrwt>
<totfact> 0.17945235E+01</totfact>
</mgrwt>
</event>
<event>
 4    2  0.3855935E-007  0.7885498E+03  0.7818608E-02  0.9736124E-01
         -2   -1    0    0    0  501 -0.00000000000E+00  0.00000000000E+00  0.42122419322E+03  0.42122419323E+03  0.25500000000E-02 0.  1.
          2   -1    0    0  501    0  0.00000000000E+00 -0.00000000000E+00 -0.21385405323E+04  0.21385405323E+04  0.25500000000E-02 0. -1.
    8880023    1    1    2    0    0 -0.10419979849E+03 -0.42088356031E+03 -0.68471606847E+01  0.78857951991E+03  0.65864270000E+03 0.  1.
    8880022    1    1    2    0    0  0.10419979849E+03  0.42088356031E+03 -0.17104691784E+04  0.17711852056E+04  0.15294330000E+03 0.  0.
<mgrwt>
<rscale>  0 0.68906147E+03</rscale>
<asrwt>0</asrwt>
<pdfrwt beam="1">  1        2 0.32900623E+00 0.78854979E+03</pdfrwt>
<pdfrwt beam="2">  1       -2 0.64803723E-01 0.78854979E+03</pdfrwt>
<totfact> 0.12685545E+01</totfact>
</mgrwt>
</event>
<event>
 4    2  0.3855935E-007  0.7624397E+03  0.7818608E-02  0.9798832E-01
          2   -1    0    0  501    0  0.00000000000E+00  0.00000000000E+00  0.29781365477E+03  0.29781365479E+03  0.25500000000E-02 0. -1.
         -2   -1    0    0    0  501 -0.00000000000E+00 -0.00000000000E+00 -0.12893560372E+04  0.12893560372E+04  0.25500000000E-02 0.  1.
    8880023    1    1    2    0    0 -0.30728723675E+03 -0.23038788579E+03 -0.86885870650E+03  0.11559540138E+04  0.65864270000E+03 0.  0.
    8880022    1    1    2    0    0  0.30728723675E+03  0.23038788579E+03 -0.12268367591E+03  0.43121567822E+03  0.15294330000E+03 0.  1.
<mgrwt>
<rscale>  0 0.65425265E+03</rscale>
<asrwt>0</asrwt>
<pdfrwt beam="1">  1        2 0.45817486E-01 0.76243966E+03</pdfrwt>
<pdfrwt beam="2">  1       -2 0.19836246E+00 0.76243966E+03</pdfrwt>
<totfact> 0.15334575E+01</totfact>
</mgrwt>
</event>
<event>
 4    2  0.3855935E-007  0.7514660E+03  0.7818608E-02  0.9827724E-01
         -2   -1    0    0    0  501 -0.00000000000E+00  0.00000000000E+00  0.64078935910E+03  0.64078935910E+03  0.25500000000E-02 0.  1.
          2   -1    0    0  501    0  0.00000000000E+00 -0.00000000000E+00 -0.92472237692E+03  0.92472237693E+03  0.25500000000E-02 0. -1.
    8880023    1    1    2    0    0 -0.21027554404E+03  0.29440635500E+03  0.34272353412E+03  0.82593010200E+03  0.65864270000E+03 0.  1.
    8880022    1    1    2    0    0  0.21027554404E+03 -0.29440635500E+03 -0.62665655194E+03  0.73958163403E+03  0.15294330000E+03 0.  0.
<mgrwt>
<rscale>  0 0.63895695E+03</rscale>
<asrwt>0</asrwt>
<pdfrwt beam="1">  1        2 0.14226498E+00 0.75146598E+03</pdfrwt>
<pdfrwt beam="2">  1       -2 0.98582978E-01 0.75146598E+03</pdfrwt>
<totfact> 0.24480118E+01</totfact>
</mgrwt>
</event>
<event>
 4    2  0.3855935E-007  0.1499941E+04  0.7818608E-02  0.8909678E-01
         -2   -1    0    0    0  501 -0.00000000000E+00  0.00000000000E+00  0.16383759432E+04  0.16383759432E+04  0.25500000000E-02 0.  1.
          2   -1    0    0  501    0  0.00000000000E+00 -0.00000000000E+00 -0.19175406294E+04  0.19175406294E+04  0.25500000000E-02 0. -1.
    8880023    1    1    2    0    0  0.21782631198E+03  0.13298733967E+04  0.90810188136E+03  0.17534168890E+04  0.65864270000E+03 0.  1.
    8880022    1    1    2    0    0 -0.21782631198E+03 -0.13298733967E+04 -0.11872665676E+04  0.18024996835E+04  0.15294330000E+03 0.  0.
<mgrwt>
<rscale>  0 0.14626491E+04</rscale>
<asrwt>0</asrwt>
<pdfrwt beam="1">  1        2 0.29500625E+00 0.14999406E+04</pdfrwt>
<pdfrwt beam="2">  1       -2 0.25205784E+00 0.14999406E+04</pdfrwt>
<totfact> 0.43460632E-01</totfact>
</mgrwt>
</event>
<event>
 4    2  0.3855935E-007  0.9201179E+03  0.7818608E-02  0.9494478E-01
          2   -1    0    0  501    0  0.00000000000E+00  0.00000000000E+00  0.13745034613E+04  0.13745034613E+04  0.25500000000E-02 0. -1.
         -2   -1    0    0    0  501 -0.00000000000E+00 -0.00000000000E+00 -0.86480780266E+03  0.86480780267E+03  0.25500000000E-02 0.  1.
    8880023    1    1    2    0    0  0.26312608457E+03  0.58614971109E+03 -0.48899763433E+03  0.10419864264E+04  0.65864270000E+03 0.  1.
    8880022    1    1    2    0    0 -0.26312608457E+03 -0.58614971109E+03  0.99869329299E+03  0.11973248376E+04  0.15294330000E+03 0.  0.
<mgrwt>
<rscale>  0 0.84692147E+03</rscale>
<asrwt>0</asrwt>
<pdfrwt beam="1">  1        2 0.21146207E+00 0.92011794E+03</pdfrwt>
<pdfrwt beam="2">  1       -2 0.13304736E+00 0.92011794E+03</pdfrwt>
<totfact> 0.61364968E+00</totfact>
</mgrwt>
</event>
<event>
 4    2  0.3855935E-007  0.8937449E+03  0.7818608E-02  0.9536149E-01
         -2   -1    0    0    0  501 -0.00000000000E+00  0.00000000000E+00  0.54934518892E+03  0.54934518892E+03  0.25500000000E-02 0.  1.
          2   -1    0    0  501    0  0.00000000000E+00 -0.00000000000E+00 -0.16826727033E+04  0.16826727033E+04  0.25500000000E-02 0. -1.
    8880023    1    1    2    0    0 -0.21393823588E+03 -0.56497807548E+03  0.49447434094E+02  0.89511175255E+03  0.65864270000E+03 0.  1.
    8880022    1    1    2    0    0  0.21393823588E+03  0.56497807548E+03 -0.11827749485E+04  0.13369061397E+04  0.15294330000E+03 0.  0.
<mgrwt>
<rscale>  0 0.81670405E+03</rscale>
<asrwt>0</asrwt>
<pdfrwt beam="1">  1        2 0.25887272E+00 0.89374493E+03</pdfrwt>
<pdfrwt beam="2">  1       -2 0.84514645E-01 0.89374493E+03</pdfrwt>
<totfact> 0.12359199E+01</totfact>
</mgrwt>
</event>
<event>
 4    2  0.3855935E-007  0.7532334E+03  0.7818608E-02  0.9822951E-01
          2   -1    0    0  501    0  0.00000000000E+00  0.00000000000E+00  0.13627355523E+04  0.13627355523E+04  0.25500000000E-02 0. -1.
         -2   -1    0    0    0  501 -0.00000000000E+00 -0.00000000000E+00 -0.65340909694E+03  0.65340909695E+03  0.25500000000E-02 0.  1.
    8880023    1    1    2    0    0  0.36157910940E+03 -0.53018311567E+02 -0.38957519627E+03  0.84801499605E+03  0.65864270000E+03 0.  1.
    8880022    1    1    2    0    0 -0.36157910940E+03  0.53018311567E+02  0.10989016516E+04  0.11681296532E+04  0.15294330000E+03 0.  0.
<mgrwt>
<rscale>  0 0.64145265E+03</rscale>
<asrwt>0</asrwt>
<pdfrwt beam="1">  1        2 0.20965162E+00 0.75323343E+03</pdfrwt>
<pdfrwt beam="2">  1       -2 0.10052448E+00 0.75323343E+03</pdfrwt>
<totfact> 0.12670331E+01</totfact>
</mgrwt>
</event>
<event>
 4    2  0.3855935E-007  0.7822822E+03  0.7818608E-02  0.9750503E-01
          2   -1    0    0  501    0  0.00000000000E+00  0.00000000000E+00  0.24934925100E+04  0.24934925100E+04  0.25500000000E-02 0. -1.
         -2   -1    0    0    0  501 -0.00000000000E+00 -0.00000000000E+00 -0.23915497046E+03  0.23915497048E+03  0.25500000000E-02 0.  1.
    8880023    1    1    2    0    0  0.38193124205E+02  0.42035281903E+03  0.51566538843E+03  0.93695048230E+03  0.65864270000E+03 0.  0.
    8880022    1    1    2    0    0 -0.38193124205E+02 -0.42035281903E+03  0.17386721511E+04  0.17956969982E+04  0.15294330000E+03 0.  0.
<mgrwt>
<rscale>  0 0.68087844E+03</rscale>
<asrwt>0</asrwt>
<pdfrwt beam="1">  1        2 0.38361423E+00 0.78228218E+03</pdfrwt>
<pdfrwt beam="2">  1       -2 0.36793073E-01 0.78228218E+03</pdfrwt>
<totfact> 0.25398454E+01</totfact>
</mgrwt>
</event>
<event>
 4    2  0.3855935E-007  0.7021942E+03  0.7818608E-02  0.9988218E-01
         -2   -1    0    0    0  501 -0.00000000000E+00  0.00000000000E+00  0.18858789544E+03  0.18858789546E+03  0.25500000000E-02 0.  1.
          2   -1    0    0  501    0  0.00000000000E+00 -0.00000000000E+00 -0.15232402591E+04  0.15232402591E+04  0.25500000000E-02 0. -1.
    8880023    1    1    2    0    0  0.16442152700E+03  0.17953278877E+03 -0.60249103210E+03  0.92524164995E+03  0.65864270000E+03 0.  1.
    8880022    1    1    2    0    0 -0.16442152700E+03 -0.17953278877E+03 -0.73216133158E+03  0.78658650462E+03  0.15294330000E+03 0.  0.
<mgrwt>
<rscale>  0 0.56169894E+03</rscale>
<asrwt>0</asrwt>
<pdfrwt beam="1">  1        2 0.23434465E+00 0.70219418E+03</pdfrwt>
<pdfrwt beam="2">  1       -2 0.29013523E-01 0.70219418E+03</pdfrwt>
<totfact> 0.13719756E+02</totfact>
</mgrwt>
</event>
<event>
 4    2  0.3855935E-007  0.1025024E+04  0.7818608E-02  0.9349526E-01
         -2   -1    0    0    0  501 -0.00000000000E+00  0.00000000000E+00  0.59731379824E+03  0.59731379825E+03  0.25500000000E-02 0.  1.
          2   -1    0    0  501    0  0.00000000000E+00 -0.00000000000E+00 -0.26320027137E+04  0.26320027137E+04  0.25500000000E-02 0. -1.
    8880023    1    1    2    0    0 -0.69179566569E+03  0.37186506810E+03 -0.21865377482E+04  0.24148752354E+04  0.65864270000E+03 0.  0.
    8880022    1    1    2    0    0  0.69179566569E+03 -0.37186506810E+03  0.15184883274E+03  0.81444127656E+03  0.15294330000E+03 0.  0.
<mgrwt>
<rscale>  0 0.96348490E+03</rscale>
<asrwt>0</asrwt>
<pdfrwt beam="1">  1        2 0.40492349E+00 0.10250244E+04</pdfrwt>
<pdfrwt beam="2">  1       -2 0.91894432E-01 0.10250244E+04</pdfrwt>
<totfact> 0.29589292E+00</totfact>
</mgrwt>
</event>
<event>
 4    2  0.3855935E-007  0.6601448E+03  0.7818608E-02  0.1024009E+00
          2   -1    0    0  501    0  0.00000000000E+00  0.00000000000E+00  0.19372176586E+04  0.19372176586E+04  0.25500000000E-02 0. -1.
         -2   -1    0    0    0  501 -0.00000000000E+00 -0.00000000000E+00 -0.24113853289E+03  0.24113853290E+03  0.25500000000E-02 0.  1.
    8880023    1    1    2    0    0  0.37128128444E+02  0.24545092491E+02  0.22315247395E+03  0.69684158342E+03  0.65864270000E+03 0.  1.
    8880022    1    1    2    0    0 -0.37128128444E+02 -0.24545092491E+02  0.14729266517E+04  0.14815146080E+04  0.15294330000E+03 0.  0.
<mgrwt>
<rscale>  0 0.46267396E+03</rscale>
<asrwt>0</asrwt>
<pdfrwt beam="1">  1        2 0.29803349E+00 0.66014481E+03</pdfrwt>
<pdfrwt beam="2">  1       -2 0.37098235E-01 0.66014481E+03</pdfrwt>
<totfact> 0.51585495E+01</totfact>
</mgrwt>
</event>
<event>
 4    2  0.3855935E-007  0.8522180E+03  0.7818608E-02  0.9607559E-01
         -2   -1    0    0    0  501 -0.00000000000E+00  0.00000000000E+00  0.84341727989E+03  0.84341727989E+03  0.25500000000E-02 0.  1.
          2   -1    0    0  501    0  0.00000000000E+00 -0.00000000000E+00 -0.23834178881E+04  0.23834178881E+04  0.25500000000E-02 0. -1.
    8880023    1    1    2    0    0  0.43075034443E+03  0.32698541076E+03  0.58179311691E+03  0.10318714819E+04  0.65864270000E+03 0.  1.
    8880022    1    1    2    0    0 -0.43075034443E+03 -0.32698541076E+03 -0.21217937251E+04  0.21949636860E+04  0.15294330000E+03 0.  0.
<mgrwt>
<rscale>  0 0.76797899E+03</rscale>
<asrwt>0</asrwt>
<pdfrwt beam="1">  1        2 0.36667967E+00 0.85221800E+03</pdfrwt>
<pdfrwt beam="2">  1       -2 0.12975651E+00 0.85221800E+03</pdfrwt>
<totfact> 0.18229239E+00</totfact>
</mgrwt>
</event>
<event>
 4    2  0.5700240E-007  0.9176944E+03  0.7818608E-02  0.9498203E-01
          2   -1    0    0  501    0  0.00000000000E+00  0.00000000000E+00  0.25729216694E+04  0.25729216694E+04  0.25500000000E-02 0. -1.
         -2   -1    0    0    0  501 -0.00000000000E+00 -0.00000000000E+00 -0.11727509129E+04  0.11727509129E+04  0.25500000000E-02 0.  1.
    8880023    1    1    2    0    0  0.63135346129E+03  0.98720000210E+02 -0.94078777008E+03  0.13142468056E+04  0.65864270000E+03 0.  1.
    8880022    1    1    2    0    0 -0.63135346129E+03 -0.98720000210E+02  0.23409585265E+04  0.24314257767E+04  0.15294330000E+03 0.  0.
<mgrwt>
<rscale>  0 0.84416417E+03</rscale>
<asrwt>0</asrwt>
<pdfrwt beam="1">  1        2 0.39583410E+00 0.91769441E+03</pdfrwt>
<pdfrwt beam="2">  1       -2 0.18042322E+00 0.91769441E+03</pdfrwt>
<totfact> 0.58106649E-01</totfact>
</mgrwt>
</event>
<event>
 4    2  0.3855935E-007  0.7907342E+03  0.7818608E-02  0.9731201E-01
          2   -1    0    0  501    0  0.00000000000E+00  0.00000000000E+00  0.22359162111E+04  0.22359162111E+04  0.25500000000E-02 0. -1.
         -2   -1    0    0    0  501 -0.00000000000E+00 -0.00000000000E+00 -0.33924412771E+03  0.33924412772E+03  0.25500000000E-02 0.  1.
    8880023    1    1    2    0    0 -0.28524214035E+03 -0.33179414074E+03  0.19905623895E+03  0.81540420835E+03  0.65864270000E+03 0.  0.
    8880022    1    1    2    0    0  0.28524214035E+03  0.33179414074E+03  0.16976158445E+04  0.17597561305E+04  0.15294330000E+03 0.  0.
<mgrwt>
<rscale>  0 0.69189123E+03</rscale>
<asrwt>0</asrwt>
<pdfrwt beam="1">  1        2 0.34398711E+00 0.79073424E+03</pdfrwt>
<pdfrwt beam="2">  1       -2 0.52191404E-01 0.79073424E+03</pdfrwt>
<totfact> 0.17656792E+01</totfact>
</mgrwt>
</event>
<event>
 4    2  0.3855935E-007  0.1225094E+04  0.7818608E-02  0.9133107E-01
         -2   -1    0    0    0  501 -0.00000000000E+00  0.00000000000E+00  0.87806369526E+03  0.87806369526E+03  0.25500000000E-02 0.  1.
          2   -1    0    0  501    0  0.00000000000E+00 -0.00000000000E+00 -0.19997658671E+04  0.19997658671E+04  0.25500000000E-02 0. -1.
    8880023    1    1    2    0    0 -0.77731166511E+03 -0.68031811276E+03  0.14785968342E+03  0.12339849478E+04  0.65864270000E+03 0.  0.
    8880022    1    1    2    0    0  0.77731166511E+03  0.68031811276E+03 -0.12695618552E+04  0.16438446145E+04  0.15294330000E+03 0.  0.
<mgrwt>
<rscale>  0 0.11771377E+04</rscale>
<asrwt>0</asrwt>
<pdfrwt beam="1">  1        2 0.30765629E+00 0.12250944E+04</pdfrwt>
<pdfrwt beam="2">  1       -2 0.13508672E+00 0.12250944E+04</pdfrwt>
<totfact> 0.25586487E+00</totfact>
</mgrwt>
</event>
<event>
 4    2  0.3855935E-007  0.7834558E+03  0.7818608E-02  0.9747781E-01
         -2   -1    0    0    0  501 -0.00000000000E+00  0.00000000000E+00  0.13163978612E+04  0.13163978612E+04  0.25500000000E-02 0.  1.
          2   -1    0    0  501    0  0.00000000000E+00 -0.00000000000E+00 -0.30624756193E+03  0.30624756194E+03  0.25500000000E-02 0. -1.
    8880023    1    1    2    0    0  0.14269738955E+03  0.39953752830E+03  0.81730621938E+03  0.11321627286E+04  0.65864270000E+03 0. -1.
    8880022    1    1    2    0    0 -0.14269738955E+03 -0.39953752830E+03  0.19284407990E+03  0.49048269457E+03  0.15294330000E+03 0.  1.
<mgrwt>
<rscale>  0 0.68241818E+03</rscale>
<asrwt>0</asrwt>
<pdfrwt beam="1">  1        2 0.47115009E-01 0.78345580E+03</pdfrwt>
<pdfrwt beam="2">  1       -2 0.20252275E+00 0.78345580E+03</pdfrwt>
<totfact> 0.13941714E+01</totfact>
</mgrwt>
</event>
<event>
 4    2  0.3855935E-007  0.6774580E+03  0.7818608E-02  0.1010800E+00
         -2   -1    0    0    0  501 -0.00000000000E+00  0.00000000000E+00  0.28305728126E+03  0.28305728127E+03  0.25500000000E-02 0.  1.
          2   -1    0    0  501    0  0.00000000000E+00 -0.00000000000E+00 -0.17877479769E+04  0.17877479769E+04  0.25500000000E-02 0. -1.
    8880023    1    1    2    0    0 -0.10519367493E+03 -0.11863168287E+03 -0.14425220801E+03  0.69264571839E+03  0.65864270000E+03 0.  1.
    8880022    1    1    2    0    0  0.10519367493E+03  0.11863168287E+03 -0.13604384876E+04  0.13781595397E+04  0.15294330000E+03 0.  0.
<mgrwt>
<rscale>  0 0.51158055E+03</rscale>
<asrwt>0</asrwt>
<pdfrwt beam="1">  1        2 0.27503814E+00 0.67745804E+03</pdfrwt>
<pdfrwt beam="2">  1       -2 0.43547275E-01 0.67745804E+03</pdfrwt>
<totfact> 0.45399207E+01</totfact>
</mgrwt>
</event>
<event>
 4    2  0.3855935E-007  0.7275998E+03  0.7818608E-02  0.9897662E-01
         -2   -1    0    0    0  501 -0.00000000000E+00  0.00000000000E+00  0.99001528163E+03  0.99001528163E+03  0.25500000000E-02 0.  1.
          2   -1    0    0  501    0  0.00000000000E+00 -0.00000000000E+00 -0.81299976813E+03  0.81299976813E+03  0.25500000000E-02 0. -1.
    8880023    1    1    2    0    0 -0.10191679514E+03 -0.29189768901E+03  0.80588930022E+03  0.10857527640E+04  0.65864270000E+03 0.  1.
    8880022    1    1    2    0    0  0.10191679514E+03  0.29189768901E+03 -0.62887378673E+03  0.71726228580E+03  0.15294330000E+03 0.  0.
<mgrwt>
<rscale>  0 0.60374706E+03</rscale>
<asrwt>0</asrwt>
<pdfrwt beam="1">  1        2 0.12507689E+00 0.72759982E+03</pdfrwt>
<pdfrwt beam="2">  1       -2 0.15231004E+00 0.72759982E+03</pdfrwt>
<totfact> 0.98834343E+00</totfact>
</mgrwt>
</event>
<event>
 4    2  0.3855935E-007  0.1061128E+04  0.7818608E-02  0.9305622E-01
         -2   -1    0    0    0  501 -0.00000000000E+00  0.00000000000E+00  0.23235652647E+04  0.23235652647E+04  0.25500000000E-02 0.  1.
          2   -1    0    0  501    0  0.00000000000E+00 -0.00000000000E+00 -0.62372493494E+03  0.62372493494E+03  0.25500000000E-02 0. -1.
    8880023    1    1    2    0    0  0.82882274121E+03  0.72360380148E+02  0.18060724025E+04  0.20947293119E+04  0.65864270000E+03 0.  0.
    8880022    1    1    2    0    0 -0.82882274121E+03 -0.72360380148E+02 -0.10623207272E+03  0.85256088771E+03  0.15294330000E+03 0.  0.
<mgrwt>
<rscale>  0 0.10026695E+04</rscale>
<asrwt>0</asrwt>
<pdfrwt beam="1">  1        2 0.95957684E-01 0.10611283E+04</pdfrwt>
<pdfrwt beam="2">  1       -2 0.35747157E+00 0.10611283E+04</pdfrwt>
<totfact> 0.66402586E-01</totfact>
</mgrwt>
</event>
<event>
 4    2  0.3855935E-007  0.6862091E+03  0.7818608E-02  0.1006009E+00
          2   -1    0    0  501    0  0.00000000000E+00  0.00000000000E+00  0.11065289516E+04  0.11065289516E+04  0.25500000000E-02 0. -1.
         -2   -1    0    0    0  501 -0.00000000000E+00 -0.00000000000E+00 -0.97065847295E+03  0.97065847295E+03  0.25500000000E-02 0.  1.
    8880023    1    1    2    0    0  0.19237142346E+03  0.81251800425E+01 -0.83205466212E+03  0.10785165507E+04  0.65864270000E+03 0.  1.
    8880022    1    1    2    0    0 -0.19237142346E+03 -0.81251800425E+01  0.96792514078E+03  0.99867087385E+03  0.15294330000E+03 0.  0.
<mgrwt>
<rscale>  0 0.53092097E+03</rscale>
<asrwt>0</asrwt>
<pdfrwt beam="1">  1        2 0.17023522E+00 0.68620914E+03</pdfrwt>
<pdfrwt beam="2">  1       -2 0.14933207E+00 0.68620914E+03</pdfrwt>
<totfact> 0.67334538E+00</totfact>
</mgrwt>
</event>
<event>
 4    2  0.3855935E-007  0.9497543E+03  0.7818608E-02  0.9450468E-01
         -2   -1    0    0    0  501 -0.00000000000E+00  0.00000000000E+00  0.67144845427E+03  0.67144845427E+03  0.25500000000E-02 0.  1.
          2   -1    0    0  501    0  0.00000000000E+00 -0.00000000000E+00 -0.23969758124E+04  0.23969758124E+04  0.25500000000E-02 0. -1.
    8880023    1    1    2    0    0  0.35996496205E+03 -0.58193489390E+03 -0.20771934608E+04  0.22840240529E+04  0.65864270000E+03 0. -1.
    8880022    1    1    2    0    0 -0.35996496205E+03  0.58193489390E+03  0.35166610261E+03  0.78440021378E+03  0.15294330000E+03 0.  0.
<mgrwt>
<rscale>  0 0.88036253E+03</rscale>
<asrwt>0</asrwt>
<pdfrwt beam="1">  1        2 0.36876550E+00 0.94975428E+03</pdfrwt>
<pdfrwt beam="2">  1       -2 0.10329976E+00 0.94975428E+03</pdfrwt>
<totfact> 0.30927037E+00</totfact>
</mgrwt>
</event>
<event>
 4    2  0.3855935E-007  0.6597909E+03  0.7818608E-02  0.1024372E+00
         -2   -1    0    0    0  501 -0.00000000000E+00  0.00000000000E+00  0.17593722612E+03  0.17593722613E+03  0.25500000000E-02 0.  1.
          2   -1    0    0  501    0  0.00000000000E+00 -0.00000000000E+00 -0.10964865736E+04  0.10964865736E+04  0.25500000000E-02 0. -1.
    8880023    1    1    2    0    0 -0.16094527718E+02 -0.35423046917E+02 -0.51417212425E+03  0.83647893320E+03  0.65864270000E+03 0.  1.
    8880022    1    1    2    0    0  0.16094527718E+02  0.35423046917E+02 -0.40637722321E+03  0.43594486651E+03  0.15294330000E+03 0.  0.
<mgrwt>
<rscale>  0 0.46141489E+03</rscale>
<asrwt>0</asrwt>
<pdfrwt beam="1">  1        2 0.16869024E+00 0.65979090E+03</pdfrwt>
<pdfrwt beam="2">  1       -2 0.27067266E-01 0.65979090E+03</pdfrwt>
<totfact> 0.27542799E+02</totfact>
</mgrwt>
</event>
<event>
 4    2  0.3855935E-007  0.6666845E+03  0.7818608E-02  0.1018160E+00
          2   -1    0    0  501    0  0.00000000000E+00  0.00000000000E+00  0.68610396530E+03  0.68610396530E+03  0.25500000000E-02 0. -1.
         -2   -1    0    0    0  501 -0.00000000000E+00 -0.00000000000E+00 -0.35126100905E+03  0.35126100906E+03  0.25500000000E-02 0.  1.
    8880023    1    1    2    0    0 -0.99115084771E+02  0.28882868919E+02  0.13513159580E+02  0.66682143929E+03  0.65864270000E+03 0.  0.
    8880022    1    1    2    0    0  0.99115084771E+02 -0.28882868919E+02  0.32132979667E+03  0.37054353508E+03  0.15294330000E+03 0.  0.
<mgrwt>
<rscale>  0 0.48356448E+03</rscale>
<asrwt>0</asrwt>
<pdfrwt beam="1">  1        2 0.10555446E+00 0.66668450E+03</pdfrwt>
<pdfrwt beam="2">  1       -2 0.54040155E-01 0.66668450E+03</pdfrwt>
<totfact> 0.13767019E+02</totfact>
</mgrwt>
</event>
<event>
 4    2  0.3855935E-007  0.7061176E+03  0.7818608E-02  0.9972711E-01
         -2   -1    0    0    0  501 -0.00000000000E+00  0.00000000000E+00  0.38339051471E+03  0.38339051472E+03  0.25500000000E-02 0.  1.
          2   -1    0    0  501    0  0.00000000000E+00 -0.00000000000E+00 -0.69457118583E+03  0.69457118584E+03  0.25500000000E-02 0. -1.
    8880023    1    1    2    0    0 -0.24001949503E+03  0.84749566114E+02 -0.99075947641E+02  0.71303442877E+03  0.65864270000E+03 0.  0.
    8880022    1    1    2    0    0  0.24001949503E+03 -0.84749566114E+02 -0.21210472348E+03  0.36492727178E+03  0.15294330000E+03 0.  1.
<mgrwt>
<rscale>  0 0.56863186E+03</rscale>
<asrwt>0</asrwt>
<pdfrwt beam="1">  1        2 0.10685711E+00 0.70611759E+03</pdfrwt>
<pdfrwt beam="2">  1       -2 0.58983156E-01 0.70611759E+03</pdfrwt>
<totfact> 0.11269594E+02</totfact>
</mgrwt>
</event>
<event>
 4    2  0.3855935E-007  0.8530336E+03  0.7818608E-02  0.9606077E-01
         -2   -1    0    0    0  501 -0.00000000000E+00  0.00000000000E+00  0.43780069183E+03  0.43780069184E+03  0.25500000000E-02 0.  1.
          2   -1    0    0  501    0  0.00000000000E+00 -0.00000000000E+00 -0.27489450689E+04  0.27489450689E+04  0.25500000000E-02 0. -1.
    8880023    1    1    2    0    0 -0.40287560264E+03  0.36269458707E+03 -0.24603814007E+04  0.26040627792E+04  0.65864270000E+03 0. -1.
    8880022    1    1    2    0    0  0.40287560264E+03 -0.36269458707E+03  0.14923702369E+03  0.58268298151E+03  0.15294330000E+03 0.  0.
<mgrwt>
<rscale>  0 0.76895234E+03</rscale>
<asrwt>0</asrwt>
<pdfrwt beam="1">  1        2 0.42291461E+00 0.85303360E+03</pdfrwt>
<pdfrwt beam="2">  1       -2 0.67353955E-01 0.85303360E+03</pdfrwt>
<totfact> 0.52130749E+00</totfact>
</mgrwt>
</event>
<event>
 4    2  0.3855935E-007  0.7665155E+03  0.7818608E-02  0.9788523E-01
          2   -1    0    0  501    0  0.00000000000E+00  0.00000000000E+00  0.57768257174E+03  0.57768257174E+03  0.25500000000E-02 0. -1.
         -2   -1    0    0    0  501 -0.00000000000E+00 -0.00000000000E+00 -0.10666912768E+04  0.10666912768E+04  0.25500000000E-02 0.  1.
    8880023    1    1    2    0    0  0.10024179048E+03 -0.37906112823E+03 -0.80991070938E+03  0.11151239030E+04  0.65864270000E+03 0.  0.
    8880022    1    1    2    0    0 -0.10024179048E+03  0.37906112823E+03  0.32090200434E+03  0.52924994558E+03  0.15294330000E+03 0.  0.
<mgrwt>
<rscale>  0 0.65982142E+03</rscale>
<asrwt>0</asrwt>
<pdfrwt beam="1">  1        2 0.88874242E-01 0.76651547E+03</pdfrwt>
<pdfrwt beam="2">  1       -2 0.16410635E+00 0.76651547E+03</pdfrwt>
<totfact> 0.12368697E+01</totfact>
</mgrwt>
</event>
<event>
 4    2  0.3855935E-007  0.1170639E+04  0.7818608E-02  0.9186206E-01
          2   -1    0    0  501    0  0.00000000000E+00  0.00000000000E+00  0.11845665186E+04  0.11845665186E+04  0.25500000000E-02 0. -1.
         -2   -1    0    0    0  501 -0.00000000000E+00 -0.00000000000E+00 -0.11343111365E+04  0.11343111365E+04  0.25500000000E-02 0.  1.
    8880023    1    1    2    0    0  0.78191888624E+03 -0.57025227661E+03 -0.40469866451E+03  0.12386185930E+04  0.65864270000E+03 0.  0.
    8880022    1    1    2    0    0 -0.78191888624E+03  0.57025227661E+03  0.45495404667E+03  0.10802590621E+04  0.15294330000E+03 0.  0.
<mgrwt>
<rscale>  0 0.11196950E+04</rscale>
<asrwt>0</asrwt>
<pdfrwt beam="1">  1        2 0.18224100E+00 0.11706387E+04</pdfrwt>
<pdfrwt beam="2">  1       -2 0.17450940E+00 0.11706387E+04</pdfrwt>
<totfact> 0.37336048E+00</totfact>
</mgrwt>
</event>
<event>
 4    2  0.3855935E-007  0.8751715E+03  0.7818608E-02  0.9567126E-01
         -2   -1    0    0    0  501 -0.00000000000E+00  0.00000000000E+00  0.28687594711E+03  0.28687594712E+03  0.25500000000E-02 0.  1.
          2   -1    0    0  501    0  0.00000000000E+00 -0.00000000000E+00 -0.22240070839E+04  0.22240070839E+04  0.25500000000E-02 0. -1.
    8880023    1    1    2    0    0 -0.54762412285E+03  0.17950710545E+03 -0.16057005912E+04  0.18287152801E+04  0.65864270000E+03 0.  0.
    8880022    1    1    2    0    0  0.54762412285E+03 -0.17950710545E+03 -0.33143054561E+03  0.68216775093E+03  0.15294330000E+03 0.  0.
<mgrwt>
<rscale>  0 0.79510749E+03</rscale>
<asrwt>0</asrwt>
<pdfrwt beam="1">  1        2 0.34215492E+00 0.87517152E+03</pdfrwt>
<pdfrwt beam="2">  1       -2 0.44134763E-01 0.87517152E+03</pdfrwt>
<totfact> 0.24890054E+01</totfact>
</mgrwt>
</event>
<event>
 4    2  0.3855935E-007  0.8151761E+03  0.7818608E-02  0.9678894E-01
         -2   -1    0    0    0  501 -0.00000000000E+00  0.00000000000E+00  0.61873068480E+03  0.61873068481E+03  0.25500000000E-02 0.  1.
          2   -1    0    0  501    0  0.00000000000E+00 -0.00000000000E+00 -0.20805118955E+04  0.20805118955E+04  0.25500000000E-02 0. -1.
    8880023    1    1    2    0    0 -0.27888304054E+03 -0.39105773479E+03  0.29857621792E+03  0.86813585711E+03  0.65864270000E+03 0.  1.
    8880022    1    1    2    0    0  0.27888304054E+03  0.39105773479E+03 -0.17603574286E+04  0.18311067232E+04  0.15294330000E+03 0.  0.
<mgrwt>
<rscale>  0 0.72287431E+03</rscale>
<asrwt>0</asrwt>
<pdfrwt beam="1">  1        2 0.32007875E+00 0.81517612E+03</pdfrwt>
<pdfrwt beam="2">  1       -2 0.95189337E-01 0.81517612E+03</pdfrwt>
<totfact> 0.57423369E+00</totfact>
</mgrwt>
</event>
<event>
 4    2  0.3855935E-007  0.6685667E+03  0.7818608E-02  0.1016712E+00
          2   -1    0    0  501    0  0.00000000000E+00  0.00000000000E+00  0.32602426459E+04  0.32602426459E+04  0.25500000000E-02 0. -1.
         -2   -1    0    0    0  501 -0.00000000000E+00 -0.00000000000E+00 -0.11886730890E+03  0.11886730893E+03  0.25500000000E-02 0.  1.
    8880023    1    1    2    0    0 -0.11369466886E+03 -0.15646260579E+02  0.85791644763E+03  0.10876590093E+04  0.65864270000E+03 0.  1.
    8880022    1    1    2    0    0  0.11369466886E+03  0.15646260579E+02  0.22834588893E+04  0.22914509455E+04  0.15294330000E+03 0. -1.
<mgrwt>
<rscale>  0 0.48892102E+03</rscale>
<asrwt>0</asrwt>
<pdfrwt beam="1">  1        2 0.50157579E+00 0.66856674E+03</pdfrwt>
<pdfrwt beam="2">  1       -2 0.18287278E-01 0.66856674E+03</pdfrwt>
<totfact> 0.31927226E+01</totfact>
</mgrwt>
</event>
<event>
 4    2  0.3855935E-007  0.1156235E+04  0.7818608E-02  0.9200885E-01
         -2   -1    0    0    0  501 -0.00000000000E+00  0.00000000000E+00  0.25692110503E+03  0.25692110505E+03  0.25500000000E-02 0.  1.
          2   -1    0    0  501    0  0.00000000000E+00 -0.00000000000E+00 -0.45781507058E+04  0.45781507058E+04  0.25500000000E-02 0. -1.
    8880023    1    1    2    0    0  0.21919578645E+03 -0.92467431345E+03 -0.18334819749E+04  0.21676106055E+04  0.65864270000E+03 0.  0.
    8880022    1    1    2    0    0 -0.21919578645E+03  0.92467431345E+03 -0.24877476259E+04  0.26674612053E+04  0.15294330000E+03 0.  0.
<mgrwt>
<rscale>  0 0.11044295E+04</rscale>
<asrwt>0</asrwt>
<pdfrwt beam="1">  1        2 0.70433082E+00 0.11562351E+04</pdfrwt>
<pdfrwt beam="2">  1       -2 0.39526327E-01 0.11562351E+04</pdfrwt>
<totfact> 0.65353754E-01</totfact>
</mgrwt>
</event>
<event>
 4    2  0.3855935E-007  0.9608993E+03  0.7818608E-02  0.9434603E-01
         -2   -1    0    0    0  501 -0.00000000000E+00  0.00000000000E+00  0.10472116343E+04  0.10472116343E+04  0.25500000000E-02 0.  1.
          2   -1    0    0  501    0  0.00000000000E+00 -0.00000000000E+00 -0.75584179709E+03  0.75584179709E+03  0.25500000000E-02 0. -1.
    8880023    1    1    2    0    0  0.69930568399E+03  0.22109657564E+02 -0.13381519258E+03  0.97017214382E+03  0.65864270000E+03 0. -1.
    8880022    1    1    2    0    0 -0.69930568399E+03 -0.22109657564E+02  0.42518502979E+03  0.83288128758E+03  0.15294330000E+03 0.  0.
<mgrwt>
<rscale>  0 0.89281904E+03</rscale>
<asrwt>0</asrwt>
<pdfrwt beam="1">  1        2 0.11628335E+00 0.96089931E+03</pdfrwt>
<pdfrwt beam="2">  1       -2 0.16110948E+00 0.96089931E+03</pdfrwt>
<totfact> 0.91345791E+00</totfact>
</mgrwt>
</event>
<event>
 4    2  0.3855935E-007  0.7405482E+03  0.7818608E-02  0.9858353E-01
         -2   -1    0    0    0  501 -0.00000000000E+00  0.00000000000E+00  0.18790027502E+04  0.18790027502E+04  0.25500000000E-02 0.  1.
          2   -1    0    0  501    0  0.00000000000E+00 -0.00000000000E+00 -0.54898310683E+03  0.54898310684E+03  0.25500000000E-02 0. -1.
    8880023    1    1    2    0    0  0.33792750136E+03  0.20159916764E+02  0.17301667752E+04  0.18819906202E+04  0.65864270000E+03 0.  0.
    8880022    1    1    2    0    0 -0.33792750136E+03 -0.20159916764E+02 -0.40014713186E+03  0.54599523676E+03  0.15294330000E+03 0.  0.
<mgrwt>
<rscale>  0 0.62322828E+03</rscale>
<asrwt>0</asrwt>
<pdfrwt beam="1">  1        2 0.84458939E-01 0.74054819E+03</pdfrwt>
<pdfrwt beam="2">  1       -2 0.28907735E+00 0.74054819E+03</pdfrwt>
<totfact> 0.21281911E+00</totfact>
</mgrwt>
</event>
<event>
 4    2  0.7016810E-007  0.8632678E+03  0.7818608E-02  0.9587777E-01
          2   -1    0    0  501    0  0.00000000000E+00  0.00000000000E+00  0.29980266547E+04  0.29980266547E+04  0.25500000000E-02 0. -1.
         -2   -1    0    0    0  501 -0.00000000000E+00 -0.00000000000E+00 -0.11129081872E+04  0.11129081872E+04  0.25500000000E-02 0.  1.
    8880023    1    1    2    0    0  0.32365319559E+03  0.45460932292E+03 -0.91130631679E+03  0.12552730527E+04  0.65864270000E+03 0.  0.
    8880022    1    1    2    0    0 -0.32365319559E+03 -0.45460932292E+03  0.27964247843E+04  0.28556617892E+04  0.15294330000E+03 0.  0.
<mgrwt>
<rscale>  0 0.78110493E+03</rscale>
<asrwt>0</asrwt>
<pdfrwt beam="1">  1        2 0.46123486E+00 0.86326776E+03</pdfrwt>
<pdfrwt beam="2">  1       -2 0.17121665E+00 0.86326776E+03</pdfrwt>
<totfact> 0.38094852E-01</totfact>
</mgrwt>
</event>
<event>
 4    2  0.3855935E-007  0.8281542E+03  0.7818608E-02  0.9652934E-01
          2   -1    0    0  501    0  0.00000000000E+00  0.00000000000E+00  0.29672456966E+04  0.29672456966E+04  0.25500000000E-02 0. -1.
         -2   -1    0    0    0  501 -0.00000000000E+00 -0.00000000000E+00 -0.47948224118E+03  0.47948224119E+03  0.25500000000E-02 0.  1.
    8880023    1    1    2    0    0  0.24008075104E+02  0.50145069509E+03 -0.74287297968E+02  0.83147940214E+03  0.65864270000E+03 0.  1.
    8880022    1    1    2    0    0 -0.24008075104E+02 -0.50145069509E+03  0.25620507534E+04  0.26152485357E+04  0.15294330000E+03 0.  0.
<mgrwt>
<rscale>  0 0.73889548E+03</rscale>
<asrwt>0</asrwt>
<pdfrwt beam="1">  1        2 0.45649934E+00 0.82815421E+03</pdfrwt>
<pdfrwt beam="2">  1       -2 0.73766499E-01 0.82815421E+03</pdfrwt>
<totfact> 0.31749277E+00</totfact>
</mgrwt>
</event>
<event>
 4    2  0.3855935E-007  0.7024940E+03  0.7818608E-02  0.9987008E-01
          2   -1    0    0  501    0  0.00000000000E+00  0.00000000000E+00  0.19771881111E+04  0.19771881111E+04  0.25500000000E-02 0. -1.
         -2   -1    0    0    0  501 -0.00000000000E+00 -0.00000000000E+00 -0.15025981374E+03  0.15025981376E+03  0.25500000000E-02 0.  1.
    8880023    1    1    2    0    0 -0.22452034353E+03  0.96323671814E+02  0.81846557279E+03  0.10786026769E+04  0.65864270000E+03 0.  1.
    8880022    1    1    2    0    0  0.22452034353E+03 -0.96323671814E+02  0.10084627246E+04  0.10488452480E+04  0.15294330000E+03 0.  0.
<mgrwt>
<rscale>  0 0.56223589E+03</rscale>
<asrwt>0</asrwt>
<pdfrwt beam="1">  1        2 0.30418279E+00 0.70249401E+03</pdfrwt>
<pdfrwt beam="2">  1       -2 0.23116894E-01 0.70249401E+03</pdfrwt>
<totfact> 0.11698501E+02</totfact>
</mgrwt>
</event>
<event>
 4    2  0.3855935E-007  0.8527678E+03  0.7818608E-02  0.9606560E-01
          2   -1    0    0  501    0  0.00000000000E+00  0.00000000000E+00  0.11855510984E+04  0.11855510984E+04  0.25500000000E-02 0. -1.
         -2   -1    0    0    0  501 -0.00000000000E+00 -0.00000000000E+00 -0.10810649320E+04  0.10810649320E+04  0.25500000000E-02 0.  1.
    8880023    1    1    2    0    0  0.43143405012E+03 -0.32751701828E+03 -0.82078795934E+03  0.11835986724E+04  0.65864270000E+03 0.  1.
    8880022    1    1    2    0    0 -0.43143405012E+03  0.32751701828E+03  0.92527412580E+03  0.10830173580E+04  0.15294330000E+03 0.  0.
<mgrwt>
<rscale>  0 0.76863523E+03</rscale>
<asrwt>0</asrwt>
<pdfrwt beam="1">  1        2 0.18239248E+00 0.85276781E+03</pdfrwt>
<pdfrwt beam="2">  1       -2 0.16631768E+00 0.85276781E+03</pdfrwt>
<totfact> 0.44128953E+00</totfact>
</mgrwt>
</event>
<event>
 4    2  0.3855935E-007  0.8596654E+03  0.7818608E-02  0.9594159E-01
          2   -1    0    0  501    0  0.00000000000E+00  0.00000000000E+00  0.16203905639E+04  0.16203905639E+04  0.25500000000E-02 0. -1.
         -2   -1    0    0    0  501 -0.00000000000E+00 -0.00000000000E+00 -0.57926314000E+03  0.57926314000E+03  0.25500000000E-02 0.  1.
    8880023    1    1    2    0    0 -0.50897023267E+03 -0.21485723852E+03 -0.15475021847E+03  0.87348278006E+03  0.65864270000E+03 0.  1.
    8880022    1    1    2    0    0  0.50897023267E+03  0.21485723852E+03  0.11958776424E+04  0.13261709239E+04  0.15294330000E+03 0.  0.
<mgrwt>
<rscale>  0 0.77683987E+03</rscale>
<asrwt>0</asrwt>
<pdfrwt beam="1">  1        2 0.24929085E+00 0.85966536E+03</pdfrwt>
<pdfrwt beam="2">  1       -2 0.89117408E-01 0.85966536E+03</pdfrwt>
<totfact> 0.11892109E+01</totfact>
</mgrwt>
</event>
<event>
 4    2  0.3855935E-007  0.1286006E+04  0.7818608E-02  0.9077740E-01
          2   -1    0    0  501    0  0.00000000000E+00  0.00000000000E+00  0.19537649869E+04  0.19537649869E+04  0.25500000000E-02 0. -1.
         -2   -1    0    0    0  501 -0.00000000000E+00 -0.00000000000E+00 -0.11068737397E+04  0.11068737397E+04  0.25500000000E-02 0.  1.
    8880023    1    1    2    0    0 -0.37276482863E+03  0.10397338288E+04 -0.43875599855E+03  0.13587925098E+04  0.65864270000E+03 0.  0.
    8880022    1    1    2    0    0  0.37276482863E+03 -0.10397338288E+04  0.12856472457E+04  0.17018462168E+04  0.15294330000E+03 0.  0.
<mgrwt>
<rscale>  0 0.12409610E+04</rscale>
<asrwt>0</asrwt>
<pdfrwt beam="1">  1        2 0.30057923E+00 0.12860055E+04</pdfrwt>
<pdfrwt beam="2">  1       -2 0.17028827E+00 0.12860055E+04</pdfrwt>
<totfact> 0.14472992E+00</totfact>
</mgrwt>
</event>
<event>
 4    2  0.3855935E-007  0.1028933E+04  0.7818608E-02  0.9344647E-01
          2   -1    0    0  501    0  0.00000000000E+00  0.00000000000E+00  0.36517721967E+04  0.36517721967E+04  0.25500000000E-02 0. -1.
         -2   -1    0    0    0  501 -0.00000000000E+00 -0.00000000000E+00 -0.34301090745E+03  0.34301090746E+03  0.25500000000E-02 0.  1.
    8880023    1    1    2    0    0  0.33225481132E+03  0.71728569891E+03  0.65062783181E+03  0.12173819513E+04  0.65864270000E+03 0.  0.
    8880022    1    1    2    0    0 -0.33225481132E+03 -0.71728569891E+03  0.26581334574E+04  0.27774011529E+04  0.15294330000E+03 0.  0.
<mgrwt>
<rscale>  0 0.96774475E+03</rscale>
<asrwt>0</asrwt>
<pdfrwt beam="1">  1        2 0.56181108E+00 0.10289326E+04</pdfrwt>
<pdfrwt beam="2">  1       -2 0.52770911E-01 0.10289326E+04</pdfrwt>
<totfact> 0.22246863E+00</totfact>
</mgrwt>
</event>
<event>
 4    2  0.3855935E-007  0.9407035E+03  0.7818608E-02  0.9463618E-01
          2   -1    0    0  501    0  0.00000000000E+00  0.00000000000E+00  0.34600668554E+03  0.34600668555E+03  0.25500000000E-02 0. -1.
         -2   -1    0    0    0  501 -0.00000000000E+00 -0.00000000000E+00 -0.19418541563E+04  0.19418541563E+04  0.25500000000E-02 0.  1.
    8880023    1    1    2    0    0  0.39239830917E+03  0.54510220061E+03 -0.79613150247E+03  0.12323751124E+04  0.65864270000E+03 0.  0.
    8880022    1    1    2    0    0 -0.39239830917E+03 -0.54510220061E+03 -0.79971596828E+03  0.10554857295E+04  0.15294330000E+03 0.  0.
<mgrwt>
<rscale>  0 0.87020106E+03</rscale>
<asrwt>0</asrwt>
<pdfrwt beam="1">  1        2 0.53231799E-01 0.94070349E+03</pdfrwt>
<pdfrwt beam="2">  1       -2 0.29874679E+00 0.94070349E+03</pdfrwt>
<totfact> 0.30744721E+00</totfact>
</mgrwt>
</event>
<event>
 4    2  0.3855935E-007  0.1687183E+04  0.7818608E-02  0.8787652E-01
          2   -1    0    0  501    0  0.00000000000E+00  0.00000000000E+00  0.36880037736E+04  0.36880037736E+04  0.25500000000E-02 0. -1.
         -2   -1    0    0    0  501 -0.00000000000E+00 -0.00000000000E+00 -0.74336667409E+03  0.74336667410E+03  0.25500000000E-02 0.  1.
    8880023    1    1    2    0    0 -0.39255078130E+03  0.15028905988E+04  0.10958709248E+04  0.20118448146E+04  0.65864270000E+03 0.  0.
    8880022    1    1    2    0    0  0.39255078130E+03 -0.15028905988E+04  0.18487661747E+04  0.24195256332E+04  0.15294330000E+03 0.  0.
<mgrwt>
<rscale>  0 0.16546649E+04</rscale>
<asrwt>0</asrwt>
<pdfrwt beam="1">  1        2 0.56738519E+00 0.16871830E+04</pdfrwt>
<pdfrwt beam="2">  1       -2 0.11436411E+00 0.16871830E+04</pdfrwt>
<totfact> 0.33508265E-01</totfact>
</mgrwt>
</event>
<event>
 4    2  0.3855935E-007  0.8395460E+03  0.7818608E-02  0.9631037E-01
         -2   -1    0    0    0  501 -0.00000000000E+00  0.00000000000E+00  0.24690970813E+03  0.24690970814E+03  0.25500000000E-02 0.  1.
          2   -1    0    0  501    0  0.00000000000E+00 -0.00000000000E+00 -0.25433052815E+04  0.25433052815E+04  0.25500000000E-02 0. -1.
    8880023    1    1    2    0    0 -0.36503141168E+03 -0.37118632005E+03 -0.20064263997E+04  0.21749906481E+04  0.65864270000E+03 0.  0.
    8880022    1    1    2    0    0  0.36503141168E+03  0.37118632005E+03 -0.28996917366E+03  0.61522434151E+03  0.15294330000E+03 0.  0.
<mgrwt>
<rscale>  0 0.75275572E+03</rscale>
<asrwt>0</asrwt>
<pdfrwt beam="1">  1        2 0.39127772E+00 0.83954596E+03</pdfrwt>
<pdfrwt beam="2">  1       -2 0.37986111E-01 0.83954596E+03</pdfrwt>
<totfact> 0.22195636E+01</totfact>
</mgrwt>
</event>
<event>
 4    2  0.3855935E-007  0.7736293E+03  0.7818608E-02  0.9771020E-01
          2   -1    0    0  501    0  0.00000000000E+00  0.00000000000E+00  0.16043320173E+04  0.16043320173E+04  0.25500000000E-02 0. -1.
         -2   -1    0    0    0  501 -0.00000000000E+00 -0.00000000000E+00 -0.24977223815E+03  0.24977223816E+03  0.25500000000E-02 0.  1.
    8880023    1    1    2    0    0  0.72839221237E+02 -0.39923250590E+03  0.58186848182E+03  0.96802545541E+03  0.65864270000E+03 0.  0.
    8880022    1    1    2    0    0 -0.72839221237E+02  0.39923250590E+03  0.77269129730E+03  0.88607880003E+03  0.15294330000E+03 0.  0.
<mgrwt>
<rscale>  0 0.66941220E+03</rscale>
<asrwt>0</asrwt>
<pdfrwt beam="1">  1        2 0.24682032E+00 0.77362934E+03</pdfrwt>
<pdfrwt beam="2">  1       -2 0.38426497E-01 0.77362934E+03</pdfrwt>
<totfact> 0.72287363E+01</totfact>
</mgrwt>
</event>
<event>
 4    2  0.3855935E-007  0.7193825E+03  0.7818608E-02  0.9924681E-01
         -2   -1    0    0    0  501 -0.00000000000E+00  0.00000000000E+00  0.38276387896E+03  0.38276387897E+03  0.25500000000E-02 0.  1.
          2   -1    0    0  501    0  0.00000000000E+00 -0.00000000000E+00 -0.16883204630E+04  0.16883204630E+04  0.25500000000E-02 0. -1.
    8880023    1    1    2    0    0  0.27924610251E+03  0.75647444633E+02  0.59081728156E+01  0.71940672392E+03  0.65864270000E+03 0.  0.
    8880022    1    1    2    0    0 -0.27924610251E+03 -0.75647444633E+02 -0.13114647568E+04  0.13516776180E+04  0.15294330000E+03 0.  0.
<mgrwt>
<rscale>  0 0.59079907E+03</rscale>
<asrwt>0</asrwt>
<pdfrwt beam="1">  1        2 0.25974161E+00 0.71938246E+03</pdfrwt>
<pdfrwt beam="2">  1       -2 0.58886751E-01 0.71938246E+03</pdfrwt>
<totfact> 0.27647080E+01</totfact>
</mgrwt>
</event>
<event>
 4    2  0.3855935E-007  0.6730435E+03  0.7818608E-02  0.1013569E+00
         -2   -1    0    0    0  501 -0.00000000000E+00  0.00000000000E+00  0.22523285119E+03  0.22523285121E+03  0.25500000000E-02 0.  1.
          2   -1    0    0  501    0  0.00000000000E+00 -0.00000000000E+00 -0.11267228477E+04  0.11267228477E+04  0.25500000000E-02 0. -1.
    8880023    1    1    2    0    0 -0.13796831711E+03 -0.11919644448E+02 -0.34059305766E+03  0.75431503474E+03  0.65864270000E+03 0.  1.
    8880022    1    1    2    0    0  0.13796831711E+03  0.11919644448E+02 -0.56089693883E+03  0.59764066416E+03  0.15294330000E+03 0.  0.
<mgrwt>
<rscale>  0 0.50080541E+03</rscale>
<asrwt>0</asrwt>
<pdfrwt beam="1">  1        2 0.17334197E+00 0.67304349E+03</pdfrwt>
<pdfrwt beam="2">  1       -2 0.34651209E-01 0.67304349E+03</pdfrwt>
<totfact> 0.16665181E+02</totfact>
</mgrwt>
</event>
<event>
 4    2  0.3855935E-007  0.1059879E+04  0.7818608E-02  0.9307099E-01
          2   -1    0    0  501    0  0.00000000000E+00  0.00000000000E+00  0.12097091453E+04  0.12097091453E+04  0.25500000000E-02 0. -1.
         -2   -1    0    0    0  501 -0.00000000000E+00 -0.00000000000E+00 -0.76669929695E+03  0.76669929696E+03  0.25500000000E-02 0.  1.
    8880023    1    1    2    0    0  0.16321173737E+03 -0.81418389153E+03  0.98379395118E+02  0.10644351517E+04  0.65864270000E+03 0.  0.
    8880022    1    1    2    0    0 -0.16321173737E+03  0.81418389153E+03  0.34463045322E+03  0.91197329059E+03  0.15294330000E+03 0.  0.
<mgrwt>
<rscale>  0 0.10013196E+04</rscale>
<asrwt>0</asrwt>
<pdfrwt beam="1">  1        2 0.18610910E+00 0.10598791E+04</pdfrwt>
<pdfrwt beam="2">  1       -2 0.11795374E+00 0.10598791E+04</pdfrwt>
<totfact> 0.10226502E+01</totfact>
</mgrwt>
</event>
<event>
 4    2  0.3855935E-007  0.1000616E+04  0.7818608E-02  0.9380752E-01
          2   -1    0    0  501    0  0.00000000000E+00  0.00000000000E+00  0.17682552837E+04  0.17682552837E+04  0.25500000000E-02 0. -1.
         -2   -1    0    0    0  501 -0.00000000000E+00 -0.00000000000E+00 -0.60014522700E+03  0.60014522700E+03  0.25500000000E-02 0.  1.
    8880023    1    1    2    0    0 -0.41969825721E+03  0.62552041527E+03  0.37583446783E+02  0.10013216959E+04  0.65864270000E+03 0.  0.
    8880022    1    1    2    0    0  0.41969825721E+03 -0.62552041527E+03  0.11305266099E+04  0.13670788148E+04  0.15294330000E+03 0.  0.
<mgrwt>
<rscale>  0 0.93676785E+03</rscale>
<asrwt>0</asrwt>
<pdfrwt beam="1">  1        2 0.27203927E+00 0.10006161E+04</pdfrwt>
<pdfrwt beam="2">  1       -2 0.92330036E-01 0.10006161E+04</pdfrwt>
<totfact> 0.89358374E+00</totfact>
</mgrwt>
</event>
<event>
 4    2  0.3855935E-007  0.6631510E+03  0.7818608E-02  0.1021138E+00
          2   -1    0    0  501    0  0.00000000000E+00  0.00000000000E+00  0.19801775318E+04  0.19801775318E+04  0.25500000000E-02 0. -1.
         -2   -1    0    0    0  501 -0.00000000000E+00 -0.00000000000E+00 -0.88228687182E+02  0.88228687218E+02  0.25500000000E-02 0.  1.
    8880023    1    1    2    0    0 -0.63363976645E+01  0.76934318859E+02  0.14516052081E+04  0.15959094353E+04  0.65864270000E+03 0.  1.
    8880022    1    1    2    0    0  0.63363976645E+01 -0.76934318859E+02  0.44034363657E+03  0.47249678373E+03  0.15294330000E+03 0. -1.
<mgrwt>
<rscale>  0 0.47278274E+03</rscale>
<asrwt>0</asrwt>
<pdfrwt beam="1">  1        2 0.30464270E+00 0.66315100E+03</pdfrwt>
<pdfrwt beam="2">  1       -2 0.13573644E-01 0.66315100E+03</pdfrwt>
<totfact> 0.29281240E+02</totfact>
</mgrwt>
</event>
<event>
 4    2  0.3855935E-007  0.7915048E+03  0.7818608E-02  0.9729475E-01
          2   -1    0    0  501    0  0.00000000000E+00  0.00000000000E+00  0.10568775280E+04  0.10568775280E+04  0.25500000000E-02 0. -1.
         -2   -1    0    0    0  501 -0.00000000000E+00 -0.00000000000E+00 -0.85939373990E+03  0.85939373991E+03  0.25500000000E-02 0.  1.
    8880023    1    1    2    0    0  0.40490845599E+03  0.16946632089E+03 -0.59999540545E+03  0.99321416848E+03  0.65864270000E+03 0.  0.
    8880022    1    1    2    0    0 -0.40490845599E+03 -0.16946632089E+03  0.79747919353E+03  0.92305709941E+03  0.15294330000E+03 0. -1.
<mgrwt>
<rscale>  0 0.69288684E+03</rscale>
<asrwt>0</asrwt>
<pdfrwt beam="1">  1        2 0.16259654E+00 0.79150483E+03</pdfrwt>
<pdfrwt beam="2">  1       -2 0.13221442E+00 0.79150483E+03</pdfrwt>
<totfact> 0.97700290E+00</totfact>
</mgrwt>
</event>
<event>
 4    2  0.3855935E-007  0.8486596E+03  0.7818608E-02  0.9614063E-01
         -2   -1    0    0    0  501 -0.00000000000E+00  0.00000000000E+00  0.11228645164E+04  0.11228645164E+04  0.25500000000E-02 0.  1.
          2   -1    0    0  501    0  0.00000000000E+00 -0.00000000000E+00 -0.84197552379E+03  0.84197552379E+03  0.25500000000E-02 0. -1.
    8880023    1    1    2    0    0  0.47338211123E+03 -0.24964430734E+03  0.82707183916E+03  0.11850193825E+04  0.65864270000E+03 0.  1.
    8880022    1    1    2    0    0 -0.47338211123E+03  0.24964430734E+03 -0.54618284652E+03  0.77982065776E+03  0.15294330000E+03 0.  0.
<mgrwt>
<rscale>  0 0.76372344E+03</rscale>
<asrwt>0</asrwt>
<pdfrwt beam="1">  1        2 0.12953470E+00 0.84865960E+03</pdfrwt>
<pdfrwt beam="2">  1       -2 0.17274839E+00 0.84865960E+03</pdfrwt>
<totfact> 0.65977333E+00</totfact>
</mgrwt>
</event>
<event>
 4    2  0.3855935E-007  0.6706506E+03  0.7818608E-02  0.1015201E+00
         -2   -1    0    0    0  501 -0.00000000000E+00  0.00000000000E+00  0.12351930778E+04  0.12351930778E+04  0.25500000000E-02 0.  1.
          2   -1    0    0  501    0  0.00000000000E+00 -0.00000000000E+00 -0.70068264658E+03  0.70068264658E+03  0.25500000000E-02 0. -1.
    8880023    1    1    2    0    0 -0.41561529658E+02  0.11930919755E+03  0.11267829268E+04  0.13112635188E+04  0.65864270000E+03 0.  1.
    8880022    1    1    2    0    0  0.41561529658E+02 -0.11930919755E+03 -0.59227249556E+03  0.62461220560E+03  0.15294330000E+03 0.  0.
<mgrwt>
<rscale>  0 0.49459013E+03</rscale>
<asrwt>0</asrwt>
<pdfrwt beam="1">  1        2 0.10779733E+00 0.67065062E+03</pdfrwt>
<pdfrwt beam="2">  1       -2 0.19002971E+00 0.67065062E+03</pdfrwt>
<totfact> 0.65305281E+00</totfact>
</mgrwt>
</event>
<event>
 4    2  0.3855935E-007  0.8344212E+03  0.7818608E-02  0.9640791E-01
         -2   -1    0    0    0  501 -0.00000000000E+00  0.00000000000E+00  0.45156382317E+03  0.45156382317E+03  0.25500000000E-02 0.  1.
          2   -1    0    0  501    0  0.00000000000E+00 -0.00000000000E+00 -0.13651637352E+04  0.13651637352E+04  0.25500000000E-02 0. -1.
    8880023    1    1    2    0    0 -0.49480687554E+03 -0.13272034577E+03 -0.96118598170E+02  0.83993900102E+03  0.65864270000E+03 0.  0.
    8880022    1    1    2    0    0  0.49480687554E+03  0.13272034577E+03 -0.81748131389E+03  0.97678855739E+03  0.15294330000E+03 0.  1.
<mgrwt>
<rscale>  0 0.74654228E+03</rscale>
<asrwt>0</asrwt>
<pdfrwt beam="1">  1        2 0.21002519E+00 0.83442120E+03</pdfrwt>
<pdfrwt beam="2">  1       -2 0.69471358E-01 0.83442120E+03</pdfrwt>
<totfact> 0.28987957E+01</totfact>
</mgrwt>
</event>
<event>
 4    2  0.4249027E-007  0.9155854E+03  0.7818608E-02  0.9501461E-01
          2   -1    0    0  501    0  0.00000000000E+00  0.00000000000E+00  0.29557242429E+04  0.29557242429E+04  0.25500000000E-02 0. -1.
         -2   -1    0    0    0  501 -0.00000000000E+00 -0.00000000000E+00 -0.87232979144E+03  0.87232979145E+03  0.25500000000E-02 0.  1.
    8880023    1    1    2    0    0  0.59088246405E+03 -0.23525390426E+03 -0.58111218517E+03  0.10844298335E+04  0.65864270000E+03 0.  0.
    8880022    1    1    2    0    0 -0.59088246405E+03  0.23525390426E+03  0.26645066366E+04  0.27436242008E+04  0.15294330000E+03 0.  0.
<mgrwt>
<rscale>  0 0.84176172E+03</rscale>
<asrwt>0</asrwt>
<pdfrwt beam="1">  1        2 0.45472681E+00 0.91558544E+03</pdfrwt>
<pdfrwt beam="2">  1       -2 0.13420458E+00 0.91558544E+03</pdfrwt>
<totfact> 0.76660804E-01</totfact>
</mgrwt>
</event>
<event>
 4    2  0.3855935E-007  0.7271749E+03  0.7818608E-02  0.9899016E-01
         -2   -1    0    0    0  501 -0.00000000000E+00  0.00000000000E+00  0.40083172542E+03  0.40083172543E+03  0.25500000000E-02 0.  1.
          2   -1    0    0  501    0  0.00000000000E+00 -0.00000000000E+00 -0.13779631523E+04  0.13779631523E+04  0.25500000000E-02 0. -1.
    8880023    1    1    2    0    0  0.29448789430E+03  0.90829416804E+02  0.16422749423E+02  0.72736030673E+03  0.65864270000E+03 0.  1.
    8880022    1    1    2    0    0 -0.29448789430E+03 -0.90829416804E+02 -0.99355417628E+03  0.10514345710E+04  0.15294330000E+03 0.  0.
<mgrwt>
<rscale>  0 0.60308976E+03</rscale>
<asrwt>0</asrwt>
<pdfrwt beam="1">  1        2 0.21199433E+00 0.72717488E+03</pdfrwt>
<pdfrwt beam="2">  1       -2 0.61666420E-01 0.72717488E+03</pdfrwt>
<totfact> 0.37255816E+01</totfact>
</mgrwt>
</event>
<event>
 4    2  0.3855935E-007  0.8552734E+03  0.7818608E-02  0.9602027E-01
         -2   -1    0    0    0  501 -0.00000000000E+00  0.00000000000E+00  0.73155367566E+03  0.73155367566E+03  0.25500000000E-02 0.  1.
          2   -1    0    0  501    0  0.00000000000E+00 -0.00000000000E+00 -0.12980402524E+04  0.12980402524E+04  0.25500000000E-02 0. -1.
    8880023    1    1    2    0    0 -0.27480078896E+03 -0.47134588879E+03  0.37251112668E+03  0.93287575071E+03  0.65864270000E+03 0.  0.
    8880022    1    1    2    0    0  0.27480078896E+03  0.47134588879E+03 -0.93899770344E+03  0.10967181774E+04  0.15294330000E+03 0.  0.
<mgrwt>
<rscale>  0 0.77162162E+03</rscale>
<asrwt>0</asrwt>
<pdfrwt beam="1">  1        2 0.19969850E+00 0.85527342E+03</pdfrwt>
<pdfrwt beam="2">  1       -2 0.11254672E+00 0.85527342E+03</pdfrwt>
<totfact> 0.10387862E+01</totfact>
</mgrwt>
</event>
<event>
 4    2  0.3855935E-007  0.8421378E+03  0.7818608E-02  0.9626162E-01
         -2   -1    0    0    0  501 -0.00000000000E+00  0.00000000000E+00  0.13161577179E+04  0.13161577179E+04  0.25500000000E-02 0.  1.
          2   -1    0    0  501    0  0.00000000000E+00 -0.00000000000E+00 -0.16362053210E+04  0.16362053210E+04  0.25500000000E-02 0. -1.
    8880023    1    1    2    0    0 -0.41188433014E+03 -0.32517244939E+03  0.11262138141E+04  0.14062551634E+04  0.65864270000E+03 0.  1.
    8880022    1    1    2    0    0  0.41188433014E+03  0.32517244939E+03 -0.14462614171E+04  0.15461078756E+04  0.15294330000E+03 0.  0.
<mgrwt>
<rscale>  0 0.75588520E+03</rscale>
<asrwt>0</asrwt>
<pdfrwt beam="1">  1        2 0.25172390E+00 0.84213777E+03</pdfrwt>
<pdfrwt beam="2">  1       -2 0.20248580E+00 0.84213777E+03</pdfrwt>
<totfact> 0.13892617E+00</totfact>
</mgrwt>
</event>
<event>
 4    2  0.3855935E-007  0.7775913E+03  0.7818608E-02  0.9761526E-01
         -2   -1    0    0    0  501 -0.00000000000E+00  0.00000000000E+00  0.35577601844E+03  0.35577601845E+03  0.25500000000E-02 0.  1.
          2   -1    0    0  501    0  0.00000000000E+00 -0.00000000000E+00 -0.19721393431E+04  0.19721393431E+04  0.25500000000E-02 0. -1.
    8880023    1    1    2    0    0  0.29983765551E+02  0.41223652776E+03 -0.14374755558E+03  0.79076643013E+03  0.65864270000E+03 0.  1.
    8880022    1    1    2    0    0 -0.29983765551E+02 -0.41223652776E+03 -0.14726157691E+04  0.15371489314E+04  0.15294330000E+03 0.  0.
<mgrwt>
<rscale>  0 0.67468797E+03</rscale>
<asrwt>0</asrwt>
<pdfrwt beam="1">  1        2 0.30340605E+00 0.77759127E+03</pdfrwt>
<pdfrwt beam="2">  1       -2 0.54734773E-01 0.77759127E+03</pdfrwt>
<totfact> 0.22381181E+01</totfact>
</mgrwt>
</event>
<event>
 4    2  0.3855935E-007  0.6595657E+03  0.7818608E-02  0.1024606E+00
          2   -1    0    0  501    0  0.00000000000E+00  0.00000000000E+00  0.11258197598E+03  0.11258197601E+03  0.25500000000E-02 0. -1.
         -2   -1    0    0    0  501 -0.00000000000E+00 -0.00000000000E+00 -0.14946344192E+04  0.14946344192E+04  0.25500000000E-02 0.  1.
    8880023    1    1    2    0    0 -0.26513842766E+02 -0.22666893949E+02 -0.11748344521E+04  0.13473169516E+04  0.65864270000E+03 0.  1.
    8880022    1    1    2    0    0  0.26513842766E+02  0.22666893949E+02 -0.20721799114E+03  0.25989944364E+03  0.15294330000E+03 0. -1.
<mgrwt>
<rscale>  0 0.46060542E+03</rscale>
<asrwt>0</asrwt>
<pdfrwt beam="1">  1        2 0.17320305E-01 0.65956575E+03</pdfrwt>
<pdfrwt beam="2">  1       -2 0.22994374E+00 0.65956575E+03</pdfrwt>
<totfact> 0.29695019E+01</totfact>
</mgrwt>
</event>
<event>
 4    2  0.3855935E-007  0.7072710E+03  0.7818608E-02  0.9968278E-01
         -2   -1    0    0    0  501 -0.00000000000E+00  0.00000000000E+00  0.34870204176E+03  0.34870204177E+03  0.25500000000E-02 0.  1.
          2   -1    0    0  501    0  0.00000000000E+00 -0.00000000000E+00 -0.21841136829E+04  0.21841136829E+04  0.25500000000E-02 0. -1.
    8880023    1    1    2    0    0 -0.23869673506E+03  0.97189850649E+02 -0.35538595081E+02  0.70816325547E+03  0.65864270000E+03 0.  1.
    8880022    1    1    2    0    0  0.23869673506E+03 -0.97189850649E+02 -0.17998730461E+04  0.18246524692E+04  0.15294330000E+03 0.  0.
<mgrwt>
<rscale>  0 0.57063337E+03</rscale>
<asrwt>0</asrwt>
<pdfrwt beam="1">  1        2 0.33601748E+00 0.70727096E+03</pdfrwt>
<pdfrwt beam="2">  1       -2 0.53646469E-01 0.70727096E+03</pdfrwt>
<totfact> 0.18039044E+01</totfact>
</mgrwt>
</event>
<event>
 4    2  0.3855935E-007  0.8296057E+03  0.7818608E-02  0.9650100E-01
          2   -1    0    0  501    0  0.00000000000E+00  0.00000000000E+00  0.85920652556E+03  0.85920652556E+03  0.25500000000E-02 0. -1.
         -2   -1    0    0    0  501 -0.00000000000E+00 -0.00000000000E+00 -0.56416450009E+03  0.56416450010E+03  0.25500000000E-02 0.  1.
    8880023    1    1    2    0    0  0.25727839344E+03 -0.43387016583E+03  0.22327106705E+02  0.82990613836E+03  0.65864270000E+03 0.  1.
    8880022    1    1    2    0    0 -0.25727839344E+03  0.43387016583E+03  0.27271491876E+03  0.59346488730E+03  0.15294330000E+03 0. -1.
<mgrwt>
<rscale>  0 0.74067153E+03</rscale>
<asrwt>0</asrwt>
<pdfrwt beam="1">  1        2 0.13218562E+00 0.82960575E+03</pdfrwt>
<pdfrwt beam="2">  1       -2 0.86794538E-01 0.82960575E+03</pdfrwt>
<totfact> 0.36205429E+01</totfact>
</mgrwt>
</event>
<event>
 4    2  0.3855935E-007  0.1038437E+04  0.7818608E-02  0.9332912E-01
         -2   -1    0    0    0  501 -0.00000000000E+00  0.00000000000E+00  0.19592009272E+04  0.19592009272E+04  0.25500000000E-02 0.  1.
          2   -1    0    0  501    0  0.00000000000E+00 -0.00000000000E+00 -0.58901383517E+03  0.58901383517E+03  0.25500000000E-02 0. -1.
    8880023    1    1    2    0    0  0.80249531036E+03  0.23308039114E+02  0.13846894978E+04  0.17308140280E+04  0.65864270000E+03 0.  1.
    8880022    1    1    2    0    0 -0.80249531036E+03 -0.23308039114E+02 -0.14502405760E+02  0.81740073441E+03  0.15294330000E+03 0.  0.
<mgrwt>
<rscale>  0 0.97808568E+03</rscale>
<asrwt>0</asrwt>
<pdfrwt beam="1">  1        2 0.90617514E-01 0.10384374E+04</pdfrwt>
<pdfrwt beam="2">  1       -2 0.30141552E+00 0.10384374E+04</pdfrwt>
<totfact> 0.15828561E+00</totfact>
</mgrwt>
</event>
<event>
 4    2  0.3855935E-007  0.8107707E+03  0.7818608E-02  0.9687974E-01
         -2   -1    0    0    0  501 -0.00000000000E+00  0.00000000000E+00  0.46616283301E+03  0.46616283301E+03  0.25500000000E-02 0.  1.
          2   -1    0    0  501    0  0.00000000000E+00 -0.00000000000E+00 -0.94338322781E+03  0.94338322782E+03  0.25500000000E-02 0. -1.
    8880023    1    1    2    0    0 -0.36291384598E+03 -0.30303862898E+03 -0.17996876816E+03  0.83050456593E+03  0.65864270000E+03 0.  0.
    8880022    1    1    2    0    0  0.36291384598E+03  0.30303862898E+03 -0.29725162664E+03  0.57904149490E+03  0.15294330000E+03 0.  0.
<mgrwt>
<rscale>  0 0.71737356E+03</rscale>
<asrwt>0</asrwt>
<pdfrwt beam="1">  1        2 0.14513588E+00 0.81077067E+03</pdfrwt>
<pdfrwt beam="2">  1       -2 0.71717359E-01 0.81077067E+03</pdfrwt>
<totfact> 0.48820972E+01</totfact>
</mgrwt>
</event>
<event>
 4    2  0.3855935E-007  0.7508197E+03  0.7818608E-02  0.9829482E-01
         -2   -1    0    0    0  501 -0.00000000000E+00  0.00000000000E+00  0.10111532300E+03  0.10111532303E+03  0.25500000000E-02 0.  1.
          2   -1    0    0  501    0  0.00000000000E+00 -0.00000000000E+00 -0.43094584532E+04  0.43094584532E+04  0.25500000000E-02 0. -1.
    8880023    1    1    2    0    0  0.35239717191E+03 -0.75738317890E+02 -0.15358674360E+04  0.17095669179E+04  0.65864270000E+03 0.  0.
    8880022    1    1    2    0    0 -0.35239717191E+03  0.75738317890E+02 -0.26724756943E+04  0.27010068584E+04  0.15294330000E+03 0.  0.
<mgrwt>
<rscale>  0 0.63804113E+03</rscale>
<asrwt>0</asrwt>
<pdfrwt beam="1">  1        2 0.66299347E+00 0.75081973E+03</pdfrwt>
<pdfrwt beam="2">  1       -2 0.15556207E-01 0.75081973E+03</pdfrwt>
<totfact> 0.68552589E+00</totfact>
</mgrwt>
</event>
<event>
 4    2  0.3855935E-007  0.7406031E+03  0.7818608E-02  0.9858194E-01
         -2   -1    0    0    0  501 -0.00000000000E+00  0.00000000000E+00  0.20132149733E+03  0.20132149734E+03  0.25500000000E-02 0.  1.
          2   -1    0    0  501    0  0.00000000000E+00 -0.00000000000E+00 -0.20991705391E+04  0.20991705391E+04  0.25500000000E-02 0. -1.
    8880023    1    1    2    0    0 -0.28142818464E+03  0.18836382662E+03 -0.60805782209E+03  0.95824176258E+03  0.65864270000E+03 0.  0.
    8880022    1    1    2    0    0  0.28142818464E+03 -0.18836382662E+03 -0.12897912197E+04  0.13422502739E+04  0.15294330000E+03 0.  0.
<mgrwt>
<rscale>  0 0.62330885E+03</rscale>
<asrwt>0</asrwt>
<pdfrwt beam="1">  1        2 0.32294930E+00 0.74060311E+03</pdfrwt>
<pdfrwt beam="2">  1       -2 0.30972539E-01 0.74060311E+03</pdfrwt>
<totfact> 0.58628269E+01</totfact>
</mgrwt>
</event>
<event>
 4    2  0.3855935E-007  0.7750328E+03  0.7818608E-02  0.9767637E-01
         -2   -1    0    0    0  501 -0.00000000000E+00  0.00000000000E+00  0.20675822600E+03  0.20675822602E+03  0.25500000000E-02 0.  1.
          2   -1    0    0  501    0  0.00000000000E+00 -0.00000000000E+00 -0.36694310627E+04  0.36694310627E+04  0.25500000000E-02 0. -1.
    8880023    1    1    2    0    0 -0.39227110715E+03 -0.11396915260E+03 -0.59910883865E+03  0.97959542468E+03  0.65864270000E+03 0.  0.
    8880022    1    1    2    0    0  0.39227110715E+03  0.11396915260E+03 -0.28635639980E+04  0.28965938640E+04  0.15294330000E+03 0.  0.
<mgrwt>
<rscale>  0 0.67128617E+03</rscale>
<asrwt>0</asrwt>
<pdfrwt beam="1">  1        2 0.56452781E+00 0.77503277E+03</pdfrwt>
<pdfrwt beam="2">  1       -2 0.31808961E-01 0.77503277E+03</pdfrwt>
<totfact> 0.61188153E+00</totfact>
</mgrwt>
</event>
<event>
 4    2  0.3855935E-007  0.6645136E+03  0.7818608E-02  0.1019945E+00
          2   -1    0    0  501    0  0.00000000000E+00  0.00000000000E+00  0.13072397105E+04  0.13072397105E+04  0.25500000000E-02 0. -1.
         -2   -1    0    0    0  501 -0.00000000000E+00 -0.00000000000E+00 -0.70145136148E+03  0.70145136148E+03  0.25500000000E-02 0.  1.
    8880023    1    1    2    0    0 -0.17416935227E+02  0.86398997152E+02 -0.53575046278E+03  0.85358473567E+03  0.65864270000E+03 0.  1.
    8880022    1    1    2    0    0  0.17416935227E+02 -0.86398997152E+02  0.11415388118E+04  0.11551063363E+04  0.15294330000E+03 0.  0.
<mgrwt>
<rscale>  0 0.47706464E+03</rscale>
<asrwt>0</asrwt>
<pdfrwt beam="1">  1        2 0.20111380E+00 0.66451361E+03</pdfrwt>
<pdfrwt beam="2">  1       -2 0.10791560E+00 0.66451361E+03</pdfrwt>
<totfact> 0.11638887E+01</totfact>
</mgrwt>
</event>
<event>
 4    2  0.3855935E-007  0.1001428E+04  0.7818608E-02  0.9379692E-01
         -2   -1    0    0    0  501 -0.00000000000E+00  0.00000000000E+00  0.13399189090E+04  0.13399189090E+04  0.25500000000E-02 0.  1.
          2   -1    0    0  501    0  0.00000000000E+00 -0.00000000000E+00 -0.12100519864E+04  0.12100519864E+04  0.25500000000E-02 0. -1.
    8880023    1    1    2    0    0  0.73657793963E+03 -0.16278929148E+03 -0.84330339339E+03  0.13092051918E+04  0.65864270000E+03 0. -1.
    8880022    1    1    2    0    0 -0.73657793963E+03  0.16278929148E+03  0.97317031600E+03  0.12407657037E+04  0.15294330000E+03 0.  0.
<mgrwt>
<rscale>  0 0.93765957E+03</rscale>
<asrwt>0</asrwt>
<pdfrwt beam="1">  1        2 0.18616184E+00 0.10014278E+04</pdfrwt>
<pdfrwt beam="2">  1       -2 0.20614137E+00 0.10014278E+04</pdfrwt>
<totfact> 0.22484846E+00</totfact>
</mgrwt>
</event>
<event>
 4    2  0.3855935E-007  0.8518366E+03  0.7818608E-02  0.9608253E-01
         -2   -1    0    0    0  501 -0.00000000000E+00  0.00000000000E+00  0.26092904343E+03  0.26092904344E+03  0.25500000000E-02 0.  1.
          2   -1    0    0  501    0  0.00000000000E+00 -0.00000000000E+00 -0.19254497215E+04  0.19254497215E+04  0.25500000000E-02 0. -1.
    8880023    1    1    2    0    0 -0.32395839961E+03  0.43228038316E+03 -0.10859137415E+04  0.13801573224E+04  0.65864270000E+03 0. -1.
    8880022    1    1    2    0    0  0.32395839961E+03 -0.43228038316E+03 -0.57860693654E+03  0.80622144252E+03  0.15294330000E+03 0.  0.
<mgrwt>
<rscale>  0 0.76752354E+03</rscale>
<asrwt>0</asrwt>
<pdfrwt beam="1">  1        2 0.29622302E+00 0.85183659E+03</pdfrwt>
<pdfrwt beam="2">  1       -2 0.40142931E-01 0.85183659E+03</pdfrwt>
<totfact> 0.43922605E+01</totfact>
</mgrwt>
</event>
<event>
 4    2  0.3855935E-007  0.6662879E+03  0.7818608E-02  0.1018477E+00
          2   -1    0    0  501    0  0.00000000000E+00  0.00000000000E+00  0.21832593213E+04  0.21832593213E+04  0.25500000000E-02 0. -1.
         -2   -1    0    0    0  501 -0.00000000000E+00 -0.00000000000E+00 -0.12448634146E+03  0.12448634149E+03  0.25500000000E-02 0.  1.
    8880023    1    1    2    0    0 -0.30067539191E+02 -0.96048437462E+02  0.82496677834E+03  0.10604290409E+04  0.65864270000E+03 0.  1.
    8880022    1    1    2    0    0  0.30067539191E+02  0.96048437462E+02  0.12338062015E+04  0.12473166218E+04  0.15294330000E+03 0.  0.
<mgrwt>
<rscale>  0 0.48240421E+03</rscale>
<asrwt>0</asrwt>
<pdfrwt beam="1">  1        2 0.33588603E+00 0.66628790E+03</pdfrwt>
<pdfrwt beam="2">  1       -2 0.19151746E-01 0.66628790E+03</pdfrwt>
<totfact> 0.12623177E+02</totfact>
</mgrwt>
</event>
<event>
 4    2  0.3855935E-007  0.7109895E+03  0.7818608E-02  0.9954345E-01
         -2   -1    0    0    0  501 -0.00000000000E+00  0.00000000000E+00  0.54526511441E+03  0.54526511442E+03  0.25500000000E-02 0.  1.
          2   -1    0    0  501    0  0.00000000000E+00 -0.00000000000E+00 -0.95429275881E+03  0.95429275881E+03  0.25500000000E-02 0. -1.
    8880023    1    1    2    0    0 -0.21139833377E+03 -0.16433678341E+03  0.26466045096E+03  0.75865090421E+03  0.65864270000E+03 0.  0.
    8880022    1    1    2    0    0  0.21139833377E+03  0.16433678341E+03 -0.67368809535E+03  0.74090696902E+03  0.15294330000E+03 0.  0.
<mgrwt>
<rscale>  0 0.57698271E+03</rscale>
<asrwt>0</asrwt>
<pdfrwt beam="1">  1        2 0.14681427E+00 0.71098948E+03</pdfrwt>
<pdfrwt beam="2">  1       -2 0.83886941E-01 0.71098948E+03</pdfrwt>
<totfact> 0.34136282E+01</totfact>
</mgrwt>
</event>
<event>
 4    2  0.3855935E-007  0.7217260E+03  0.7818608E-02  0.9916788E-01
          2   -1    0    0  501    0  0.00000000000E+00  0.00000000000E+00  0.15146911254E+04  0.15146911254E+04  0.25500000000E-02 0. -1.
         -2   -1    0    0    0  501 -0.00000000000E+00 -0.00000000000E+00 -0.54610781698E+03  0.54610781698E+03  0.25500000000E-02 0.  1.
    8880023    1    1    2    0    0  0.29151610005E+03  0.45789102151E+02 -0.27592452285E+03  0.77267252251E+03  0.65864270000E+03 0.  1.
    8880022    1    1    2    0    0 -0.29151610005E+03 -0.45789102151E+02  0.12445078313E+04  0.12881264199E+04  0.15294330000E+03 0.  0.
<mgrwt>
<rscale>  0 0.59454509E+03</rscale>
<asrwt>0</asrwt>
<pdfrwt beam="1">  1        2 0.23302940E+00 0.72172605E+03</pdfrwt>
<pdfrwt beam="2">  1       -2 0.84016588E-01 0.72172605E+03</pdfrwt>
<totfact> 0.15843585E+01</totfact>
</mgrwt>
</event>
<event>
 4    2  0.3855935E-007  0.6806604E+03  0.7818608E-02  0.1008953E+00
         -2   -1    0    0    0  501 -0.00000000000E+00  0.00000000000E+00  0.15216574823E+03  0.15216574825E+03  0.25500000000E-02 0.  1.
          2   -1    0    0  501    0  0.00000000000E+00 -0.00000000000E+00 -0.30414470690E+04  0.30414470690E+04  0.25500000000E-02 0. -1.
    8880023    1    1    2    0    0  0.14103072640E+03 -0.97972792975E+02 -0.64546059884E+03  0.93803940475E+03  0.65864270000E+03 0.  1.
    8880022    1    1    2    0    0 -0.14103072640E+03  0.97972792975E+02 -0.22438207219E+04  0.22555734125E+04  0.15294330000E+03 0.  0.
<mgrwt>
<rscale>  0 0.51893058E+03</rscale>
<asrwt>0</asrwt>
<pdfrwt beam="1">  1        2 0.46791489E+00 0.68066037E+03</pdfrwt>
<pdfrwt beam="2">  1       -2 0.23410117E-01 0.68066037E+03</pdfrwt>
<totfact> 0.28343959E+01</totfact>
</mgrwt>
</event>
<event>
 4    2  0.3855935E-007  0.8834707E+03  0.7818608E-02  0.9553105E-01
          2   -1    0    0  501    0  0.00000000000E+00  0.00000000000E+00  0.34702955135E+03  0.34702955136E+03  0.25500000000E-02 0. -1.
         -2   -1    0    0    0  501 -0.00000000000E+00 -0.00000000000E+00 -0.24921464985E+04  0.24921464985E+04  0.25500000000E-02 0.  1.
    8880023    1    1    2    0    0 -0.55568866690E+03 -0.19473161634E+03 -0.20382751004E+04  0.22215053203E+04  0.65864270000E+03 0.  1.
    8880022    1    1    2    0    0  0.55568866690E+03  0.19473161634E+03 -0.10684184674E+03  0.61767072955E+03  0.15294330000E+03 0.  0.
<mgrwt>
<rscale>  0 0.80479318E+03</rscale>
<asrwt>0</asrwt>
<pdfrwt beam="1">  1        2 0.53389163E-01 0.88347071E+03</pdfrwt>
<pdfrwt beam="2">  1       -2 0.38340714E+00 0.88347071E+03</pdfrwt>
<totfact> 0.92092044E-01</totfact>
</mgrwt>
</event>
<event>
 4    2  0.3855935E-007  0.1037600E+04  0.7818608E-02  0.9333939E-01
         -2   -1    0    0    0  501 -0.00000000000E+00  0.00000000000E+00  0.64853201829E+03  0.64853201830E+03  0.25500000000E-02 0.  1.
          2   -1    0    0  501    0  0.00000000000E+00 -0.00000000000E+00 -0.42973724278E+04  0.42973724278E+04  0.25500000000E-02 0. -1.
    8880023    1    1    2    0    0 -0.13233874417E+03  0.79075224141E+03  0.16064455920E+03  0.10499616808E+04  0.65864270000E+03 0.  0.
    8880022    1    1    2    0    0  0.13233874417E+03 -0.79075224141E+03 -0.38094849687E+04  0.38959427653E+04  0.15294330000E+03 0.  0.
<mgrwt>
<rscale>  0 0.97717523E+03</rscale>
<asrwt>0</asrwt>
<pdfrwt beam="1">  1        2 0.66113420E+00 0.10375996E+04</pdfrwt>
<pdfrwt beam="2">  1       -2 0.99774159E-01 0.10375996E+04</pdfrwt>
<totfact> 0.16706792E-01</totfact>
</mgrwt>
</event>
<event>
 4    2  0.3855935E-007  0.6700817E+03  0.7818608E-02  0.1015604E+00
          2   -1    0    0  501    0  0.00000000000E+00  0.00000000000E+00  0.29799480227E+04  0.29799480227E+04  0.25500000000E-02 0. -1.
         -2   -1    0    0    0  501 -0.00000000000E+00 -0.00000000000E+00 -0.22891810300E+03  0.22891810301E+03  0.25500000000E-02 0.  1.
    8880023    1    1    2    0    0  0.67303717647E+02  0.10329326510E+03  0.27380410486E+03  0.72386337325E+03  0.65864270000E+03 0.  0.
    8880022    1    1    2    0    0 -0.67303717647E+02 -0.10329326510E+03  0.24772258148E+04  0.24850027525E+04  0.15294330000E+03 0.  0.
<mgrwt>
<rscale>  0 0.49306763E+03</rscale>
<asrwt>0</asrwt>
<pdfrwt beam="1">  1        2 0.45845351E+00 0.67008171E+03</pdfrwt>
<pdfrwt beam="2">  1       -2 0.35218172E-01 0.67008171E+03</pdfrwt>
<totfact> 0.14599528E+01</totfact>
</mgrwt>
</event>
<event>
 4    2  0.3855935E-007  0.9241707E+03  0.7818608E-02  0.9488294E-01
          2   -1    0    0  501    0  0.00000000000E+00  0.00000000000E+00  0.38144758432E+04  0.38144758432E+04  0.25500000000E-02 0. -1.
         -2   -1    0    0    0  501 -0.00000000000E+00 -0.00000000000E+00 -0.20614710997E+03  0.20614710998E+03  0.25500000000E-02 0.  1.
    8880023    1    1    2    0    0  0.53609891844E+03  0.36452592700E+03  0.11590787093E+04  0.14824152125E+04  0.65864270000E+03 0.  0.
    8880022    1    1    2    0    0 -0.53609891844E+03 -0.36452592700E+03  0.24492500239E+04  0.25382077406E+04  0.15294330000E+03 0.  0.
<mgrwt>
<rscale>  0 0.85152419E+03</rscale>
<asrwt>0</asrwt>
<pdfrwt beam="1">  1        2 0.58684247E+00 0.92417066E+03</pdfrwt>
<pdfrwt beam="2">  1       -2 0.31714939E-01 0.92417066E+03</pdfrwt>
<totfact> 0.46897879E+00</totfact>
</mgrwt>
</event>
<event>
 4    2  0.3855935E-007  0.7242948E+03  0.7818608E-02  0.9908313E-01
         -2   -1    0    0    0  501 -0.00000000000E+00  0.00000000000E+00  0.10981017538E+04  0.10981017538E+04  0.25500000000E-02 0.  1.
          2   -1    0    0  501    0  0.00000000000E+00 -0.00000000000E+00 -0.60976332089E+03  0.60976332090E+03  0.25500000000E-02 0. -1.
    8880023    1    1    2    0    0 -0.25085881876E+03 -0.16692106417E+03  0.91284672837E+03  0.11652862929E+04  0.65864270000E+03 0.  0.
    8880022    1    1    2    0    0  0.25085881876E+03  0.16692106417E+03 -0.42450829543E+03  0.54257878186E+03  0.15294330000E+03 0. -1.
<mgrwt>
<rscale>  0 0.59860095E+03</rscale>
<asrwt>0</asrwt>
<pdfrwt beam="1">  1        2 0.93809743E-01 0.72429483E+03</pdfrwt>
<pdfrwt beam="2">  1       -2 0.16893873E+00 0.72429483E+03</pdfrwt>
<totfact> 0.10747848E+01</totfact>
</mgrwt>
</event>
<event>
 4    2  0.3855935E-007  0.6778080E+03  0.7818608E-02  0.1010592E+00
          2   -1    0    0  501    0  0.00000000000E+00  0.00000000000E+00  0.69869167501E+03  0.69869167501E+03  0.25500000000E-02 0. -1.
         -2   -1    0    0    0  501 -0.00000000000E+00 -0.00000000000E+00 -0.32596306318E+03  0.32596306319E+03  0.25500000000E-02 0.  1.
    8880023    1    1    2    0    0  0.23918852335E+02 -0.15824458104E+03  0.42122830572E+03  0.79803317646E+03  0.65864270000E+03 0. -1.
    8880022    1    1    2    0    0 -0.23918852335E+02  0.15824458104E+03 -0.48499693890E+02  0.22662156174E+03  0.15294330000E+03 0.  0.
<mgrwt>
<rscale>  0 0.51240125E+03</rscale>
<asrwt>0</asrwt>
<pdfrwt beam="1">  1        2 0.10749103E+00 0.67780799E+03</pdfrwt>
<pdfrwt beam="2">  1       -2 0.50148164E-01 0.67780799E+03</pdfrwt>
<totfact> 0.15673204E+02</totfact>
</mgrwt>
</event>
<event>
 4    2  0.3855935E-007  0.7345142E+03  0.7818608E-02  0.9876225E-01
         -2   -1    0    0    0  501 -0.00000000000E+00  0.00000000000E+00  0.50036844778E+03  0.50036844778E+03  0.25500000000E-02 0.  1.
          2   -1    0    0  501    0  0.00000000000E+00 -0.00000000000E+00 -0.96738852293E+03  0.96738852293E+03  0.25500000000E-02 0. -1.
    8880023    1    1    2    0    0 -0.19034246708E+03  0.26357292978E+03  0.15381843800E+03  0.75044737471E+03  0.65864270000E+03 0.  1.
    8880022    1    1    2    0    0  0.19034246708E+03 -0.26357292978E+03 -0.62083851315E+03  0.71730959600E+03  0.15294330000E+03 0.  0.
<mgrwt>
<rscale>  0 0.61427498E+03</rscale>
<asrwt>0</asrwt>
<pdfrwt beam="1">  1        2 0.14882900E+00 0.73451423E+03</pdfrwt>
<pdfrwt beam="2">  1       -2 0.76979762E-01 0.73451423E+03</pdfrwt>
<totfact> 0.40521614E+01</totfact>
</mgrwt>
</event>
<event>
 4    2  0.3855935E-007  0.7338822E+03  0.7818608E-02  0.9878140E-01
          2   -1    0    0  501    0  0.00000000000E+00  0.00000000000E+00  0.40435310497E+03  0.40435310498E+03  0.25500000000E-02 0. -1.
         -2   -1    0    0    0  501 -0.00000000000E+00 -0.00000000000E+00 -0.11134360246E+04  0.11134360246E+04  0.25500000000E-02 0.  1.
    8880023    1    1    2    0    0 -0.19884623305E+03  0.25540768808E+03 -0.85887675864E+03  0.11297134169E+04  0.65864270000E+03 0.  0.
    8880022    1    1    2    0    0  0.19884623305E+03 -0.25540768808E+03  0.14979383904E+03  0.38807571266E+03  0.15294330000E+03 0.  0.
<mgrwt>
<rscale>  0 0.61332515E+03</rscale>
<asrwt>0</asrwt>
<pdfrwt beam="1">  1        2 0.62208171E-01 0.73388222E+03</pdfrwt>
<pdfrwt beam="2">  1       -2 0.17129785E+00 0.73388222E+03</pdfrwt>
<totfact> 0.16657012E+01</totfact>
</mgrwt>
</event>
<event>
 4    2  0.3855935E-007  0.6827691E+03  0.7818608E-02  0.1007799E+00
          2   -1    0    0  501    0  0.00000000000E+00  0.00000000000E+00  0.63767740454E+03  0.63767740454E+03  0.25500000000E-02 0. -1.
         -2   -1    0    0    0  501 -0.00000000000E+00 -0.00000000000E+00 -0.96818275202E+03  0.96818275202E+03  0.25500000000E-02 0.  1.
    8880023    1    1    2    0    0  0.11379085701E+03  0.13933811884E+03 -0.81721247959E+03  0.10648990157E+04  0.65864270000E+03 0.  0.
    8880022    1    1    2    0    0 -0.11379085701E+03 -0.13933811884E+03  0.48670713211E+03  0.54096114090E+03  0.15294330000E+03 0.  0.
<mgrwt>
<rscale>  0 0.52358959E+03</rscale>
<asrwt>0</asrwt>
<pdfrwt beam="1">  1        2 0.98104216E-01 0.68276912E+03</pdfrwt>
<pdfrwt beam="2">  1       -2 0.14895119E+00 0.68276912E+03</pdfrwt>
<totfact> 0.14359359E+01</totfact>
</mgrwt>
</event>
<event>
 4    2  0.3855935E-007  0.8060244E+03  0.7818608E-02  0.9697918E-01
         -2   -1    0    0    0  501 -0.00000000000E+00  0.00000000000E+00  0.39269303748E+03  0.39269303749E+03  0.25500000000E-02 0.  1.
          2   -1    0    0  501    0  0.00000000000E+00 -0.00000000000E+00 -0.46686898836E+04  0.46686898836E+04  0.25500000000E-02 0. -1.
    8880023    1    1    2    0    0  0.46409139813E+03  0.22006728161E+02 -0.50430855155E+02  0.80760051964E+03  0.65864270000E+03 0.  1.
    8880022    1    1    2    0    0 -0.46409139813E+03 -0.22006728161E+02 -0.42255659909E+04  0.42537824014E+04  0.15294330000E+03 0.  0.
<mgrwt>
<rscale>  0 0.71140870E+03</rscale>
<asrwt>0</asrwt>
<pdfrwt beam="1">  1        2 0.71825994E+00 0.80602440E+03</pdfrwt>
<pdfrwt beam="2">  1       -2 0.60414317E-01 0.80602440E+03</pdfrwt>
<totfact> 0.24062412E-01</totfact>
</mgrwt>
</event>
<event>
 4    2  0.3855935E-007  0.6814384E+03  0.7818608E-02  0.1008521E+00
          2   -1    0    0  501    0  0.00000000000E+00  0.00000000000E+00  0.28588244038E+04  0.28588244038E+04  0.25500000000E-02 0. -1.
         -2   -1    0    0    0  501 -0.00000000000E+00 -0.00000000000E+00 -0.19006832551E+03  0.19006832552E+03  0.25500000000E-02 0.  1.
    8880023    1    1    2    0    0 -0.22792959076E+02  0.17328767101E+03  0.44685205168E+03  0.81488348754E+03  0.65864270000E+03 0.  1.
    8880022    1    1    2    0    0  0.22792959076E+02 -0.17328767101E+03  0.22219040266E+04  0.22340092417E+04  0.15294330000E+03 0.  0.
<mgrwt>
<rscale>  0 0.52066529E+03</rscale>
<asrwt>0</asrwt>
<pdfrwt beam="1">  1        2 0.43981913E+00 0.68143844E+03</pdfrwt>
<pdfrwt beam="2">  1       -2 0.29241282E-01 0.68143844E+03</pdfrwt>
<totfact> 0.24411635E+01</totfact>
</mgrwt>
</event>
<event>
 4    2  0.3855935E-007  0.7239493E+03  0.7818608E-02  0.9909443E-01
          2   -1    0    0  501    0  0.00000000000E+00  0.00000000000E+00  0.19807044339E+04  0.19807044339E+04  0.25500000000E-02 0. -1.
         -2   -1    0    0    0  501 -0.00000000000E+00 -0.00000000000E+00 -0.17966734748E+03  0.17966734750E+03  0.25500000000E-02 0.  1.
    8880023    1    1    2    0    0 -0.15956877798E+03 -0.25461772427E+03  0.69301107060E+03  0.10021810868E+04  0.65864270000E+03 0.  1.
    8880022    1    1    2    0    0  0.15956877798E+03  0.25461772427E+03  0.11080260158E+04  0.11581906947E+04  0.15294330000E+03 0.  0.
<mgrwt>
<rscale>  0 0.59805834E+03</rscale>
<asrwt>0</asrwt>
<pdfrwt beam="1">  1        2 0.30472376E+00 0.72394930E+03</pdfrwt>
<pdfrwt beam="2">  1       -2 0.27641131E-01 0.72394930E+03</pdfrwt>
<totfact> 0.84137602E+01</totfact>
</mgrwt>
</event>
<event>
 4    2  0.3855935E-007  0.7621875E+03  0.7818608E-02  0.9799477E-01
         -2   -1    0    0    0  501 -0.00000000000E+00  0.00000000000E+00  0.57944123565E+03  0.57944123566E+03  0.25500000000E-02 0.  1.
          2   -1    0    0  501    0  0.00000000000E+00 -0.00000000000E+00 -0.21497859250E+04  0.21497859250E+04  0.25500000000E-02 0. -1.
    8880023    1    1    2    0    0 -0.38295534708E+03  0.21560378971E+02  0.29607557103E+03  0.81767389455E+03  0.65864270000E+03 0.  1.
    8880022    1    1    2    0    0  0.38295534708E+03 -0.21560378971E+02 -0.18664202604E+04  0.19115532662E+04  0.15294330000E+03 0.  0.
<mgrwt>
<rscale>  0 0.65390632E+03</rscale>
<asrwt>0</asrwt>
<pdfrwt beam="1">  1        2 0.33073629E+00 0.76218755E+03</pdfrwt>
<pdfrwt beam="2">  1       -2 0.89144806E-01 0.76218755E+03</pdfrwt>
<totfact> 0.61772608E+00</totfact>
</mgrwt>
</event>
<event>
 4    2  0.3855935E-007  0.6887334E+03  0.7818608E-02  0.1004760E+00
          2   -1    0    0  501    0  0.00000000000E+00  0.00000000000E+00  0.26250649242E+04  0.26250649242E+04  0.25500000000E-02 0. -1.
         -2   -1    0    0    0  501 -0.00000000000E+00 -0.00000000000E+00 -0.18093732215E+03  0.18093732217E+03  0.25500000000E-02 0.  1.
    8880023    1    1    2    0    0  0.20452429158E+02 -0.20031282930E+03  0.24580974216E+04  0.25527625569E+04  0.65864270000E+03 0. -1.
    8880022    1    1    2    0    0 -0.20452429158E+02  0.20031282930E+03 -0.13969819599E+02  0.25323968946E+03  0.15294330000E+03 0.  0.
<mgrwt>
<rscale>  0 0.53611241E+03</rscale>
<asrwt>0</asrwt>
<pdfrwt beam="1">  1        2 0.40385613E+00 0.68873343E+03</pdfrwt>
<pdfrwt beam="2">  1       -2 0.27836512E-01 0.68873343E+03</pdfrwt>
<totfact> 0.36558846E+01</totfact>
</mgrwt>
</event>
<event>
 4    2  0.3855935E-007  0.7463849E+03  0.7818608E-02  0.9841724E-01
          2   -1    0    0  501    0  0.00000000000E+00  0.00000000000E+00  0.73511506235E+03  0.73511506235E+03  0.25500000000E-02 0. -1.
         -2   -1    0    0    0  501 -0.00000000000E+00 -0.00000000000E+00 -0.86754438639E+03  0.86754438639E+03  0.25500000000E-02 0.  1.
    8880023    1    1    2    0    0  0.58670548654E+02  0.34617613403E+03 -0.62863789668E+03  0.97584627911E+03  0.65864270000E+03 0.  1.
    8880022    1    1    2    0    0 -0.58670548654E+02 -0.34617613403E+03  0.49620857264E+03  0.62681316963E+03  0.15294330000E+03 0.  0.
<mgrwt>
<rscale>  0 0.63170664E+03</rscale>
<asrwt>0</asrwt>
<pdfrwt beam="1">  1        2 0.11309462E+00 0.74638486E+03</pdfrwt>
<pdfrwt beam="2">  1       -2 0.13346837E+00 0.74638486E+03</pdfrwt>
<totfact> 0.15866040E+01</totfact>
</mgrwt>
</event>
<event>
 4    2  0.3855935E-007  0.8547245E+03  0.7818608E-02  0.9603017E-01
          2   -1    0    0  501    0  0.00000000000E+00  0.00000000000E+00  0.19967208955E+04  0.19967208955E+04  0.25500000000E-02 0. -1.
         -2   -1    0    0    0  501 -0.00000000000E+00 -0.00000000000E+00 -0.28255497392E+03  0.28255497393E+03  0.25500000000E-02 0.  1.
    8880023    1    1    2    0    0 -0.38026280850E+03 -0.39005626544E+03  0.13767753700E+04  0.16205135974E+04  0.65864270000E+03 0.  1.
    8880022    1    1    2    0    0  0.38026280850E+03  0.39005626544E+03  0.33739055165E+03  0.65876227206E+03  0.15294330000E+03 0.  0.
<mgrwt>
<rscale>  0 0.77096791E+03</rscale>
<asrwt>0</asrwt>
<pdfrwt beam="1">  1        2 0.30718784E+00 0.85472446E+03</pdfrwt>
<pdfrwt beam="2">  1       -2 0.43469995E-01 0.85472446E+03</pdfrwt>
<totfact> 0.34307943E+01</totfact>
</mgrwt>
</event>
<event>
 4    2  0.3855935E-007  0.9083598E+03  0.7818608E-02  0.9512742E-01
          2   -1    0    0  501    0  0.00000000000E+00  0.00000000000E+00  0.23229067684E+04  0.23229067684E+04  0.25500000000E-02 0. -1.
         -2   -1    0    0    0  501 -0.00000000000E+00 -0.00000000000E+00 -0.36654734339E+03  0.36654734340E+03  0.25500000000E-02 0.  1.
    8880023    1    1    2    0    0 -0.54393830210E+03  0.30893120601E+03  0.18157846877E+04  0.20303181044E+04  0.65864270000E+03 0. -1.
    8880022    1    1    2    0    0  0.54393830210E+03 -0.30893120601E+03  0.14057473732E+03  0.65913600746E+03  0.15294330000E+03 0.  0.
<mgrwt>
<rscale>  0 0.83350856E+03</rscale>
<asrwt>0</asrwt>
<pdfrwt beam="1">  1        2 0.35737027E+00 0.90835983E+03</pdfrwt>
<pdfrwt beam="2">  1       -2 0.56391899E-01 0.90835983E+03</pdfrwt>
<totfact> 0.13242650E+01</totfact>
</mgrwt>
</event>
<event>
 4    2  0.3855935E-007  0.1006263E+04  0.7818608E-02  0.9373409E-01
         -2   -1    0    0    0  501 -0.00000000000E+00  0.00000000000E+00  0.48593068845E+03  0.48593068846E+03  0.25500000000E-02 0.  1.
          2   -1    0    0  501    0  0.00000000000E+00 -0.00000000000E+00 -0.19289132117E+04  0.19289132117E+04  0.25500000000E-02 0. -1.
    8880023    1    1    2    0    0  0.76075481711E+03  0.27656326121E+01 -0.33184807751E+03  0.10595701455E+04  0.65864270000E+03 0.  1.
    8880022    1    1    2    0    0 -0.76075481711E+03 -0.27656326121E+01 -0.11111344457E+04  0.13552737546E+04  0.15294330000E+03 0. -1.
<mgrwt>
<rscale>  0 0.94296711E+03</rscale>
<asrwt>0</asrwt>
<pdfrwt beam="1">  1        2 0.29675587E+00 0.10062633E+04</pdfrwt>
<pdfrwt beam="2">  1       -2 0.74758569E-01 0.10062633E+04</pdfrwt>
<totfact> 0.11780794E+01</totfact>
</mgrwt>
</event>
<event>
 4    2  0.3855935E-007  0.7590747E+03  0.7818608E-02  0.9807509E-01
         -2   -1    0    0    0  501 -0.00000000000E+00  0.00000000000E+00  0.28617850327E+03  0.28617850329E+03  0.25500000000E-02 0.  1.
          2   -1    0    0  501    0  0.00000000000E+00 -0.00000000000E+00 -0.13695763576E+04  0.13695763576E+04  0.25500000000E-02 0. -1.
    8880023    1    1    2    0    0  0.34453097751E+03  0.15389165008E+03 -0.39433799183E+03  0.85539282934E+03  0.65864270000E+03 0.  0.
    8880022    1    1    2    0    0 -0.34453097751E+03 -0.15389165008E+03 -0.68905986253E+03  0.80036203158E+03  0.15294330000E+03 0.  0.
<mgrwt>
<rscale>  0 0.64961130E+03</rscale>
<asrwt>0</asrwt>
<pdfrwt beam="1">  1        2 0.21070405E+00 0.75907473E+03</pdfrwt>
<pdfrwt beam="2">  1       -2 0.44027463E-01 0.75907473E+03</pdfrwt>
<totfact> 0.74984128E+01</totfact>
</mgrwt>
</event>
<event>
 4    2  0.3855935E-007  0.8302704E+03  0.7818608E-02  0.9648806E-01
         -2   -1    0    0    0  501 -0.00000000000E+00  0.00000000000E+00  0.21320876306E+03  0.21320876308E+03  0.25500000000E-02 0.  1.
          2   -1    0    0  501    0  0.00000000000E+00 -0.00000000000E+00 -0.23362187042E+04  0.23362187042E+04  0.25500000000E-02 0. -1.
    8880023    1    1    2    0    0 -0.33197493224E+03  0.38122355838E+03 -0.94179218864E+03  0.12555164236E+04  0.65864270000E+03 0.  0.
    8880022    1    1    2    0    0  0.33197493224E+03 -0.38122355838E+03 -0.11812177525E+04  0.12939110437E+04  0.15294330000E+03 0.  1.
<mgrwt>
<rscale>  0 0.74148378E+03</rscale>
<asrwt>0</asrwt>
<pdfrwt beam="1">  1        2 0.35941824E+00 0.83027042E+03</pdfrwt>
<pdfrwt beam="2">  1       -2 0.32801350E-01 0.83027042E+03</pdfrwt>
<totfact> 0.38511465E+01</totfact>
</mgrwt>
</event>
<event>
 4    2  0.3855935E-007  0.7365764E+03  0.7818608E-02  0.9870034E-01
          2   -1    0    0  501    0  0.00000000000E+00  0.00000000000E+00  0.15484565607E+04  0.15484565607E+04  0.25500000000E-02 0. -1.
         -2   -1    0    0    0  501 -0.00000000000E+00 -0.00000000000E+00 -0.77222278988E+03  0.77222278989E+03  0.25500000000E-02 0.  1.
    8880023    1    1    2    0    0  0.22183340241E+03  0.24397642097E+03 -0.56674488299E+03  0.92937856715E+03  0.65864270000E+03 0.  0.
    8880022    1    1    2    0    0 -0.22183340241E+03 -0.24397642097E+03  0.13429786538E+04  0.13913007835E+04  0.15294330000E+03 0.  0.
<mgrwt>
<rscale>  0 0.61735783E+03</rscale>
<asrwt>0</asrwt>
<pdfrwt beam="1">  1        2 0.23822408E+00 0.73657638E+03</pdfrwt>
<pdfrwt beam="2">  1       -2 0.11880351E+00 0.73657638E+03</pdfrwt>
<totfact> 0.66708983E+00</totfact>
</mgrwt>
</event>
<event>
 4    2  0.3855935E-007  0.6866934E+03  0.7818608E-02  0.1005765E+00
          2   -1    0    0  501    0  0.00000000000E+00  0.00000000000E+00  0.13224421821E+04  0.13224421821E+04  0.25500000000E-02 0. -1.
         -2   -1    0    0    0  501 -0.00000000000E+00 -0.00000000000E+00 -0.19234844495E+03  0.19234844496E+03  0.25500000000E-02 0.  1.
    8880023    1    1    2    0    0  0.18633124059E+03  0.54938756566E+02  0.53539537473E+03  0.87074451577E+03  0.65864270000E+03 0.  0.
    8880022    1    1    2    0    0 -0.18633124059E+03 -0.54938756566E+02  0.59469836242E+03  0.64404611130E+03  0.15294330000E+03 0.  0.
<mgrwt>
<rscale>  0 0.53192853E+03</rscale>
<asrwt>0</asrwt>
<pdfrwt beam="1">  1        2 0.20345265E+00 0.68669338E+03</pdfrwt>
<pdfrwt beam="2">  1       -2 0.29592067E-01 0.68669338E+03</pdfrwt>
<totfact> 0.17177646E+02</totfact>
</mgrwt>
</event>
<event>
 4    2  0.3855935E-007  0.1271780E+04  0.7818608E-02  0.9090321E-01
         -2   -1    0    0    0  501 -0.00000000000E+00  0.00000000000E+00  0.98535480129E+03  0.98535480129E+03  0.25500000000E-02 0.  1.
          2   -1    0    0  501    0  0.00000000000E+00 -0.00000000000E+00 -0.22047458900E+04  0.22047458900E+04  0.25500000000E-02 0. -1.
    8880023    1    1    2    0    0 -0.10825975564E+04 -0.10768210199E+03 -0.15850658563E+04  0.20322049304E+04  0.65864270000E+03 0.  0.
    8880022    1    1    2    0    0  0.10825975564E+04  0.10768210199E+03  0.36567476760E+03  0.11578957608E+04  0.15294330000E+03 0.  0.
<mgrwt>
<rscale>  0 0.12260904E+04</rscale>
<asrwt>0</asrwt>
<pdfrwt beam="1">  1        2 0.33919167E+00 0.12717795E+04</pdfrwt>
<pdfrwt beam="2">  1       -2 0.15159305E+00 0.12717795E+04</pdfrwt>
<totfact> 0.14450829E+00</totfact>
</mgrwt>
</event>
<event>
 4    2  0.3855935E-007  0.1356054E+04  0.7818608E-02  0.9018604E-01
          2   -1    0    0  501    0  0.00000000000E+00  0.00000000000E+00  0.34072755260E+04  0.34072755260E+04  0.25500000000E-02 0. -1.
         -2   -1    0    0    0  501 -0.00000000000E+00 -0.00000000000E+00 -0.71692493028E+03  0.71692493028E+03  0.25500000000E-02 0.  1.
    8880023    1    1    2    0    0 -0.10907520818E+04 -0.46404012163E+03  0.21175025518E+03  0.13724874190E+04  0.65864270000E+03 0.  0.
    8880022    1    1    2    0    0  0.10907520818E+04  0.46404012163E+03  0.24786003405E+04  0.27517130373E+04  0.15294330000E+03 0.  0.
<mgrwt>
<rscale>  0 0.13139128E+04</rscale>
<asrwt>0</asrwt>
<pdfrwt beam="1">  1        2 0.52419624E+00 0.13560544E+04</pdfrwt>
<pdfrwt beam="2">  1       -2 0.11029614E+00 0.13560544E+04</pdfrwt>
<totfact> 0.60036086E-01</totfact>
</mgrwt>
</event>
<event>
 4    2  0.3855935E-007  0.7779592E+03  0.7818608E-02  0.9760653E-01
         -2   -1    0    0    0  501 -0.00000000000E+00  0.00000000000E+00  0.24310990029E+04  0.24310990029E+04  0.25500000000E-02 0.  1.
          2   -1    0    0  501    0  0.00000000000E+00 -0.00000000000E+00 -0.44389520317E+03  0.44389520318E+03  0.25500000000E-02 0. -1.
    8880023    1    1    2    0    0 -0.26348333357E+03  0.31935368195E+03  0.22366034908E+04  0.23680404605E+04  0.65864270000E+03 0.  1.
    8880022    1    1    2    0    0  0.26348333357E+03 -0.31935368195E+03 -0.24939969106E+03  0.50695374558E+03  0.15294330000E+03 0.  0.
<mgrwt>
<rscale>  0 0.67517561E+03</rscale>
<asrwt>0</asrwt>
<pdfrwt beam="1">  1        2 0.68291571E-01 0.77795916E+03</pdfrwt>
<pdfrwt beam="2">  1       -2 0.37401522E+00 0.77795916E+03</pdfrwt>
<totfact> 0.81438102E-01</totfact>
</mgrwt>
</event>
<event>
 4    2  0.3855935E-007  0.7357488E+03  0.7818608E-02  0.9872508E-01
          2   -1    0    0  501    0  0.00000000000E+00  0.00000000000E+00  0.26925030361E+04  0.26925030361E+04  0.25500000000E-02 0. -1.
         -2   -1    0    0    0  501 -0.00000000000E+00 -0.00000000000E+00 -0.19984985353E+03  0.19984985354E+03  0.25500000000E-02 0.  1.
    8880023    1    1    2    0    0  0.14197740978E+03 -0.29556474294E+03  0.55603413680E+03  0.92222571516E+03  0.65864270000E+03 0.  1.
    8880022    1    1    2    0    0 -0.14197740978E+03  0.29556474294E+03  0.19366190458E+04  0.19701271745E+04  0.15294330000E+03 0.  0.
<mgrwt>
<rscale>  0 0.61612360E+03</rscale>
<asrwt>0</asrwt>
<pdfrwt beam="1">  1        2 0.41423120E+00 0.73574881E+03</pdfrwt>
<pdfrwt beam="2">  1       -2 0.30746134E-01 0.73574881E+03</pdfrwt>
<totfact> 0.27611279E+01</totfact>
</mgrwt>
</event>
<event>
 4    2  0.3855935E-007  0.7636834E+03  0.7818608E-02  0.9795663E-01
         -2   -1    0    0    0  501 -0.00000000000E+00  0.00000000000E+00  0.21031818946E+03  0.21031818947E+03  0.25500000000E-02 0.  1.
          2   -1    0    0  501    0  0.00000000000E+00 -0.00000000000E+00 -0.26190489875E+04  0.26190489875E+04  0.25500000000E-02 0. -1.
    8880023    1    1    2    0    0 -0.31262487994E+03 -0.22730564580E+03 -0.59361097076E+03  0.96725713388E+03  0.65864270000E+03 0.  0.
    8880022    1    1    2    0    0  0.31262487994E+03  0.22730564580E+03 -0.18151198273E+04  0.18621100431E+04  0.15294330000E+03 0.  0.
<mgrwt>
<rscale>  0 0.65595803E+03</rscale>
<asrwt>0</asrwt>
<pdfrwt beam="1">  1        2 0.40293059E+00 0.76368343E+03</pdfrwt>
<pdfrwt beam="2">  1       -2 0.32356646E-01 0.76368343E+03</pdfrwt>
<totfact> 0.27560163E+01</totfact>
</mgrwt>
</event>
<event>
 4    2  0.3855935E-007  0.7606533E+03  0.7818608E-02  0.9803419E-01
          2   -1    0    0  501    0  0.00000000000E+00  0.00000000000E+00  0.47618386536E+03  0.47618386536E+03  0.25500000000E-02 0. -1.
         -2   -1    0    0    0  501 -0.00000000000E+00 -0.00000000000E+00 -0.14416254921E+04  0.14416254921E+04  0.25500000000E-02 0.  1.
    8880023    1    1    2    0    0 -0.11715105534E+03  0.36202060183E+03 -0.12181303424E+04  0.14361180394E+04  0.65864270000E+03 0.  1.
    8880022    1    1    2    0    0  0.11715105534E+03 -0.36202060183E+03  0.25268871558E+03  0.48169131808E+03  0.15294330000E+03 0.  0.
<mgrwt>
<rscale>  0 0.65179382E+03</rscale>
<asrwt>0</asrwt>
<pdfrwt beam="1">  1        2 0.73259057E-01 0.76065333E+03</pdfrwt>
<pdfrwt beam="2">  1       -2 0.22178854E+00 0.76065333E+03</pdfrwt>
<totfact> 0.64115248E+00</totfact>
</mgrwt>
</event>
<event>
 4    2  0.3855935E-007  0.8088133E+03  0.7818608E-02  0.9692054E-01
         -2   -1    0    0    0  501 -0.00000000000E+00  0.00000000000E+00  0.10952489442E+04  0.10952489442E+04  0.25500000000E-02 0.  1.
          2   -1    0    0  501    0  0.00000000000E+00 -0.00000000000E+00 -0.13077419755E+04  0.13077419755E+04  0.25500000000E-02 0. -1.
    8880023    1    1    2    0    0  0.28371956773E+02 -0.46857635329E+03 -0.11131029864E+04  0.13759277712E+04  0.65864270000E+03 0. -1.
    8880022    1    1    2    0    0 -0.28371956773E+02  0.46857635329E+03  0.90060995511E+03  0.10270631485E+04  0.15294330000E+03 0.  0.
<mgrwt>
<rscale>  0 0.71491863E+03</rscale>
<asrwt>0</asrwt>
<pdfrwt beam="1">  1        2 0.20119107E+00 0.80881331E+03</pdfrwt>
<pdfrwt beam="2">  1       -2 0.16849984E+00 0.80881331E+03</pdfrwt>
<totfact> 0.36307359E+00</totfact>
</mgrwt>
</event>
<event>
 4    2  0.3855935E-007  0.7556466E+03  0.7818608E-02  0.9816511E-01
          2   -1    0    0  501    0  0.00000000000E+00  0.00000000000E+00  0.13817874736E+04  0.13817874736E+04  0.25500000000E-02 0. -1.
         -2   -1    0    0    0  501 -0.00000000000E+00 -0.00000000000E+00 -0.30967138361E+03  0.30967138362E+03  0.25500000000E-02 0.  1.
    8880023    1    1    2    0    0  0.29365904573E+03 -0.22573415755E+03  0.28388530786E+03  0.80721287112E+03  0.65864270000E+03 0.  1.
    8880022    1    1    2    0    0 -0.29365904573E+03  0.22573415755E+03  0.78823078218E+03  0.88424598614E+03  0.15294330000E+03 0.  0.
<mgrwt>
<rscale>  0 0.64483938E+03</rscale>
<asrwt>0</asrwt>
<pdfrwt beam="1">  1        2 0.21258268E+00 0.75564658E+03</pdfrwt>
<pdfrwt beam="2">  1       -2 0.47641753E-01 0.75564658E+03</pdfrwt>
<totfact> 0.63038675E+01</totfact>
</mgrwt>
</event>
<event>
 4    2  0.3855935E-007  0.1053575E+04  0.7818608E-02  0.9314596E-01
         -2   -1    0    0    0  501 -0.00000000000E+00  0.00000000000E+00  0.80130918141E+03  0.80130918141E+03  0.25500000000E-02 0.  1.
          2   -1    0    0  501    0  0.00000000000E+00 -0.00000000000E+00 -0.13111701860E+04  0.13111701860E+04  0.25500000000E-02 0. -1.
    8880023    1    1    2    0    0  0.26568644166E+03  0.77821633067E+03  0.12699416483E+03  0.10612010492E+04  0.65864270000E+03 0.  0.
    8880022    1    1    2    0    0 -0.26568644166E+03 -0.77821633067E+03 -0.63685516945E+03  0.10512783183E+04  0.15294330000E+03 0.  0.
<mgrwt>
<rscale>  0 0.99450145E+03</rscale>
<asrwt>0</asrwt>
<pdfrwt beam="1">  1        2 0.20171849E+00 0.10535749E+04</pdfrwt>
<pdfrwt beam="2">  1       -2 0.12327834E+00 0.10535749E+04</pdfrwt>
<totfact> 0.79852328E+00</totfact>
</mgrwt>
</event>
<event>
 4    2  0.3855935E-007  0.6890157E+03  0.7818608E-02  0.1004624E+00
          2   -1    0    0  501    0  0.00000000000E+00  0.00000000000E+00  0.17948647456E+04  0.17948647456E+04  0.25500000000E-02 0. -1.
         -2   -1    0    0    0  501 -0.00000000000E+00 -0.00000000000E+00 -0.16181253058E+03  0.16181253060E+03  0.25500000000E-02 0.  1.
    8880023    1    1    2    0    0  0.98431911158E+02 -0.17675865397E+03  0.67101794009E+03  0.96177322954E+03  0.65864270000E+03 0.  0.
    8880022    1    1    2    0    0 -0.98431911158E+02  0.17675865397E+03  0.96203427496E+03  0.99490404668E+03  0.15294330000E+03 0.  0.
<mgrwt>
<rscale>  0 0.53668391E+03</rscale>
<asrwt>0</asrwt>
<pdfrwt beam="1">  1        2 0.27613306E+00 0.68901572E+03</pdfrwt>
<pdfrwt beam="2">  1       -2 0.24894234E-01 0.68901572E+03</pdfrwt>
<totfact> 0.12890092E+02</totfact>
</mgrwt>
</event>
<event>
 4    2  0.3855935E-007  0.7862335E+03  0.7818608E-02  0.9741393E-01
          2   -1    0    0  501    0  0.00000000000E+00  0.00000000000E+00  0.12653853776E+04  0.12653853776E+04  0.25500000000E-02 0. -1.
         -2   -1    0    0    0  501 -0.00000000000E+00 -0.00000000000E+00 -0.42573986466E+03  0.42573986467E+03  0.25500000000E-02 0.  1.
    8880023    1    1    2    0    0  0.23819120931E+03  0.35723635427E+03  0.93893321745E+03  0.12246463400E+04  0.65864270000E+03 0.  0.
    8880022    1    1    2    0    0 -0.23819120931E+03 -0.35723635427E+03 -0.99287704479E+02  0.46647890229E+03  0.15294330000E+03 0.  0.
<mgrwt>
<rscale>  0 0.68604854E+03</rscale>
<asrwt>0</asrwt>
<pdfrwt beam="1">  1        2 0.19467467E+00 0.78623347E+03</pdfrwt>
<pdfrwt beam="2">  1       -2 0.65498441E-01 0.78623347E+03</pdfrwt>
<totfact> 0.37777227E+01</totfact>
</mgrwt>
</event>
<event>
 4    2  0.3855935E-007  0.8286267E+03  0.7818608E-02  0.9652010E-01
         -2   -1    0    0    0  501 -0.00000000000E+00  0.00000000000E+00  0.76852159055E+03  0.76852159055E+03  0.25500000000E-02 0.  1.
          2   -1    0    0  501    0  0.00000000000E+00 -0.00000000000E+00 -0.10360067073E+04  0.10360067073E+04  0.25500000000E-02 0. -1.
    8880023    1    1    2    0    0 -0.24138795626E+03 -0.44107129989E+03  0.42813523962E+03  0.93269610629E+03  0.65864270000E+03 0.  1.
    8880022    1    1    2    0    0  0.24138795626E+03  0.44107129989E+03 -0.69562035635E+03  0.87183219154E+03  0.15294330000E+03 0.  0.
<mgrwt>
<rscale>  0 0.73947396E+03</rscale>
<asrwt>0</asrwt>
<pdfrwt beam="1">  1        2 0.15938565E+00 0.82862672E+03</pdfrwt>
<pdfrwt beam="2">  1       -2 0.11823409E+00 0.82862672E+03</pdfrwt>
<totfact> 0.13275554E+01</totfact>
</mgrwt>
</event>
<event>
 4    2  0.3855935E-007  0.7125092E+03  0.7818608E-02  0.9948799E-01
         -2   -1    0    0    0  501 -0.00000000000E+00  0.00000000000E+00  0.43973073931E+03  0.43973073932E+03  0.25500000000E-02 0.  1.
          2   -1    0    0  501    0  0.00000000000E+00 -0.00000000000E+00 -0.60270894996E+03  0.60270894997E+03  0.25500000000E-02 0. -1.
    8880023    1    1    2    0    0  0.18337150679E+03  0.20058417607E+03 -0.64562308916E+02  0.71542827676E+03  0.65864270000E+03 0.  1.
    8880022    1    1    2    0    0 -0.18337150679E+03 -0.20058417607E+03 -0.98415901735E+02  0.32701141253E+03  0.15294330000E+03 0. -1.
<mgrwt>
<rscale>  0 0.57953475E+03</rscale>
<asrwt>0</asrwt>
<pdfrwt beam="1">  1        2 0.92724454E-01 0.71250918E+03</pdfrwt>
<pdfrwt beam="2">  1       -2 0.67650883E-01 0.71250918E+03</pdfrwt>
<totfact> 0.10012459E+02</totfact>
</mgrwt>
</event>
<event>
 4    2  0.3855935E-007  0.6777613E+03  0.7818608E-02  0.1010619E+00
          2   -1    0    0  501    0  0.00000000000E+00  0.00000000000E+00  0.12378672913E+04  0.12378672913E+04  0.25500000000E-02 0. -1.
         -2   -1    0    0    0  501 -0.00000000000E+00 -0.00000000000E+00 -0.59152716194E+03  0.59152716194E+03  0.25500000000E-02 0.  1.
    8880023    1    1    2    0    0 -0.51947202200E+02 -0.15116775583E+03 -0.38167767295E+03  0.77784204984E+03  0.65864270000E+03 0.  1.
    8880022    1    1    2    0    0  0.51947202200E+02  0.15116775583E+03  0.10280178023E+04  0.10515524034E+04  0.15294330000E+03 0.  0.
<mgrwt>
<rscale>  0 0.51229208E+03</rscale>
<asrwt>0</asrwt>
<pdfrwt beam="1">  1        2 0.19044112E+00 0.67776132E+03</pdfrwt>
<pdfrwt beam="2">  1       -2 0.91004179E-01 0.67776132E+03</pdfrwt>
<totfact> 0.19052882E+01</totfact>
</mgrwt>
</event>
<event>
 4    2  0.3855935E-007  0.9692778E+03  0.7818608E-02  0.9422904E-01
         -2   -1    0    0    0  501 -0.00000000000E+00  0.00000000000E+00  0.10962898848E+04  0.10962898848E+04  0.25500000000E-02 0.  1.
          2   -1    0    0  501    0  0.00000000000E+00 -0.00000000000E+00 -0.98820619805E+03  0.98820619805E+03  0.25500000000E-02 0. -1.
    8880023    1    1    2    0    0 -0.17926076980E+03  0.68815323749E+03  0.65895599982E+03  0.11720590931E+04  0.65864270000E+03 0.  0.
    8880022    1    1    2    0    0  0.17926076980E+03 -0.68815323749E+03 -0.55087231307E+03  0.91243698970E+03  0.15294330000E+03 0.  0.
<mgrwt>
<rscale>  0 0.90214527E+03</rscale>
<asrwt>0</asrwt>
<pdfrwt beam="1">  1        2 0.15203172E+00 0.96927783E+03</pdfrwt>
<pdfrwt beam="2">  1       -2 0.16865998E+00 0.96927783E+03</pdfrwt>
<totfact> 0.55530039E+00</totfact>
</mgrwt>
</event>
<event>
 4    2  0.3855935E-007  0.6626004E+03  0.7818608E-02  0.1021637E+00
          2   -1    0    0  501    0  0.00000000000E+00  0.00000000000E+00  0.10861998491E+04  0.10861998491E+04  0.25500000000E-02 0. -1.
         -2   -1    0    0    0  501 -0.00000000000E+00 -0.00000000000E+00 -0.43458885616E+03  0.43458885617E+03  0.25500000000E-02 0.  1.
    8880023    1    1    2    0    0 -0.58392515759E+02  0.42654457633E+02 -0.16827198815E+03  0.68363349604E+03  0.65864270000E+03 0.  1.
    8880022    1    1    2    0    0  0.58392515759E+02 -0.42654457633E+02  0.81988298112E+03  0.83715520926E+03  0.15294330000E+03 0.  0.
<mgrwt>
<rscale>  0 0.47100323E+03</rscale>
<asrwt>0</asrwt>
<pdfrwt beam="1">  1        2 0.16710767E+00 0.66260040E+03</pdfrwt>
<pdfrwt beam="2">  1       -2 0.66859824E-01 0.66260040E+03</pdfrwt>
<totfact> 0.46793409E+01</totfact>
</mgrwt>
</event>
<event>
 4    2  0.3855935E-007  0.1007279E+04  0.7818608E-02  0.9372096E-01
         -2   -1    0    0    0  501 -0.00000000000E+00  0.00000000000E+00  0.83041555481E+03  0.83041555481E+03  0.25500000000E-02 0.  1.
          2   -1    0    0  501    0  0.00000000000E+00 -0.00000000000E+00 -0.16546656626E+04  0.16546656626E+04  0.25500000000E-02 0. -1.
    8880023    1    1    2    0    0 -0.74609107222E+03 -0.15539871706E+03 -0.12448125764E+04  0.16013023468E+04  0.65864270000E+03 0.  0.
    8880022    1    1    2    0    0  0.74609107222E+03  0.15539871706E+03  0.42056246852E+03  0.88377887067E+03  0.15294330000E+03 0.  0.
<mgrwt>
<rscale>  0 0.94408090E+03</rscale>
<asrwt>0</asrwt>
<pdfrwt beam="1">  1        2 0.25456395E+00 0.10072789E+04</pdfrwt>
<pdfrwt beam="2">  1       -2 0.12775624E+00 0.10072789E+04</pdfrwt>
<totfact> 0.46889325E+00</totfact>
</mgrwt>
</event>
<event>
 4    2  0.3855935E-007  0.7938489E+03  0.7818608E-02  0.9724257E-01
         -2   -1    0    0    0  501 -0.00000000000E+00  0.00000000000E+00  0.60013466576E+03  0.60013466577E+03  0.25500000000E-02 0.  1.
          2   -1    0    0  501    0  0.00000000000E+00 -0.00000000000E+00 -0.27090788861E+04  0.27090788861E+04  0.25500000000E-02 0. -1.
    8880023    1    1    2    0    0 -0.39219193043E+03 -0.20632827461E+03  0.30480906571E+03  0.85035559621E+03  0.65864270000E+03 0.  1.
    8880022    1    1    2    0    0  0.39219193043E+03  0.20632827461E+03 -0.24137532861E+04  0.24588579557E+04  0.15294330000E+03 0.  0.
<mgrwt>
<rscale>  0 0.69590714E+03</rscale>
<asrwt>0</asrwt>
<pdfrwt beam="1">  1        2 0.41678136E+00 0.79384890E+03</pdfrwt>
<pdfrwt beam="2">  1       -2 0.92328412E-01 0.79384890E+03</pdfrwt>
<totfact> 0.27385166E+00</totfact>
</mgrwt>
</event>
<event>
 4    2  0.3855935E-007  0.9761280E+03  0.7818608E-02  0.9413478E-01
          2   -1    0    0  501    0  0.00000000000E+00  0.00000000000E+00  0.16175522546E+04  0.16175522546E+04  0.25500000000E-02 0. -1.
         -2   -1    0    0    0  501 -0.00000000000E+00 -0.00000000000E+00 -0.86059809292E+03  0.86059809292E+03  0.25500000000E-02 0.  1.
    8880023    1    1    2    0    0  0.45870263652E+02  0.71896562189E+03 -0.44162473413E+03  0.10713814720E+04  0.65864270000E+03 0.  1.
    8880022    1    1    2    0    0 -0.45870263652E+02 -0.71896562189E+03  0.11985788958E+04  0.14067688755E+04  0.15294330000E+03 0.  0.
<mgrwt>
<rscale>  0 0.90974728E+03</rscale>
<asrwt>0</asrwt>
<pdfrwt beam="1">  1        2 0.24885419E+00 0.97612799E+03</pdfrwt>
<pdfrwt beam="2">  1       -2 0.13239971E+00 0.97612799E+03</pdfrwt>
<totfact> 0.45064686E+00</totfact>
</mgrwt>
</event>
<event>
 4    2  0.3855935E-007  0.1159612E+04  0.7818608E-02  0.9197418E-01
          2   -1    0    0  501    0  0.00000000000E+00  0.00000000000E+00  0.28824644870E+04  0.28824644870E+04  0.25500000000E-02 0. -1.
         -2   -1    0    0    0  501 -0.00000000000E+00 -0.00000000000E+00 -0.53725232807E+03  0.53725232807E+03  0.25500000000E-02 0.  1.
    8880023    1    1    2    0    0  0.58468157112E+02 -0.95261330296E+03  0.36417818356E+03  0.12154532430E+04  0.65864270000E+03 0.  0.
    8880022    1    1    2    0    0 -0.58468157112E+02  0.95261330296E+03  0.19810339754E+04  0.22042635720E+04  0.15294330000E+03 0.  0.
<mgrwt>
<rscale>  0 0.11080118E+04</rscale>
<asrwt>0</asrwt>
<pdfrwt beam="1">  1        2 0.44345607E+00 0.11596124E+04</pdfrwt>
<pdfrwt beam="2">  1       -2 0.82654205E-01 0.11596124E+04</pdfrwt>
<totfact> 0.26344768E+00</totfact>
</mgrwt>
</event>
<event>
 4    2  0.3855935E-007  0.1133901E+04  0.7818608E-02  0.9224218E-01
          2   -1    0    0  501    0  0.00000000000E+00  0.00000000000E+00  0.29892180161E+04  0.29892180161E+04  0.25500000000E-02 0. -1.
         -2   -1    0    0    0  501 -0.00000000000E+00 -0.00000000000E+00 -0.36445963348E+03  0.36445963349E+03  0.25500000000E-02 0.  1.
    8880023    1    1    2    0    0  0.80268115971E+03  0.45565815897E+03  0.12169355818E+04  0.16633291372E+04  0.65864270000E+03 0.  0.
    8880022    1    1    2    0    0 -0.80268115971E+03 -0.45565815897E+03  0.14078228008E+04  0.16903485124E+04  0.15294330000E+03 0.  0.
<mgrwt>
<rscale>  0 0.10806917E+04</rscale>
<asrwt>0</asrwt>
<pdfrwt beam="1">  1        2 0.45987970E+00 0.11339011E+04</pdfrwt>
<pdfrwt beam="2">  1       -2 0.56070712E-01 0.11339011E+04</pdfrwt>
<totfact> 0.53069541E+00</totfact>
</mgrwt>
</event>
<event>
 4    2  0.3855935E-007  0.6741996E+03  0.7818608E-02  0.1012816E+00
          2   -1    0    0  501    0  0.00000000000E+00  0.00000000000E+00  0.16631763876E+03  0.16631763878E+03  0.25500000000E-02 0. -1.
         -2   -1    0    0    0  501 -0.00000000000E+00 -0.00000000000E+00 -0.15078255785E+04  0.15078255785E+04  0.25500000000E-02 0.  1.
    8880023    1    1    2    0    0  0.71691771765E+02  0.12488091866E+03 -0.12935065763E+04  0.14586652883E+04  0.65864270000E+03 0.  1.
    8880022    1    1    2    0    0 -0.71691771765E+02 -0.12488091866E+03 -0.48001363441E+02  0.21547792901E+03  0.15294330000E+03 0.  0.
<mgrwt>
<rscale>  0 0.50370812E+03</rscale>
<asrwt>0</asrwt>
<pdfrwt beam="1">  1        2 0.25587330E-01 0.67419964E+03</pdfrwt>
<pdfrwt beam="2">  1       -2 0.23197316E+00 0.67419964E+03</pdfrwt>
<totfact> 0.18250769E+01</totfact>
</mgrwt>
</event>
<event>
 4    2  0.3855935E-007  0.1680063E+04  0.7818608E-02  0.8791953E-01
          2   -1    0    0  501    0  0.00000000000E+00  0.00000000000E+00  0.13025047282E+04  0.13025047282E+04  0.25500000000E-02 0. -1.
         -2   -1    0    0    0  501 -0.00000000000E+00 -0.00000000000E+00 -0.26772429488E+04  0.26772429488E+04  0.25500000000E-02 0.  1.
    8880023    1    1    2    0    0  0.15444437715E+04  0.59126844441E+02 -0.17030768989E+04  0.23922967368E+04  0.65864270000E+03 0.  0.
    8880022    1    1    2    0    0 -0.15444437715E+04 -0.59126844441E+02  0.32833867820E+03  0.15874509402E+04  0.15294330000E+03 0.  0.
<mgrwt>
<rscale>  0 0.16473875E+04</rscale>
<asrwt>0</asrwt>
<pdfrwt beam="1">  1        2 0.20038534E+00 0.16800633E+04</pdfrwt>
<pdfrwt beam="2">  1       -2 0.41188353E+00 0.16800633E+04</pdfrwt>
<totfact> 0.94597239E-02</totfact>
</mgrwt>
</event>
<event>
 4    2  0.3855935E-007  0.6993358E+03  0.7818608E-02  0.9999968E-01
          2   -1    0    0  501    0  0.00000000000E+00  0.00000000000E+00  0.14221158184E+04  0.14221158184E+04  0.25500000000E-02 0. -1.
         -2   -1    0    0    0  501 -0.00000000000E+00 -0.00000000000E+00 -0.18777434121E+03  0.18777434123E+03  0.25500000000E-02 0.  1.
    8880023    1    1    2    0    0  0.15439402479E+03 -0.17726474889E+03  0.62013772874E+03  0.93468781685E+03  0.65864270000E+03 0.  0.
    8880022    1    1    2    0    0 -0.15439402479E+03  0.17726474889E+03  0.61420374849E+03  0.67520234283E+03  0.15294330000E+03 0.  0.
<mgrwt>
<rscale>  0 0.55651644E+03</rscale>
<asrwt>0</asrwt>
<pdfrwt beam="1">  1        2 0.21878704E+00 0.69933577E+03</pdfrwt>
<pdfrwt beam="2">  1       -2 0.28888361E-01 0.69933577E+03</pdfrwt>
<totfact> 0.15751549E+02</totfact>
</mgrwt>
</event>
<event>
 4    2  0.3855935E-007  0.7940126E+03  0.7818608E-02  0.9723895E-01
         -2   -1    0    0    0  501 -0.00000000000E+00  0.00000000000E+00  0.73470294340E+03  0.73470294340E+03  0.25500000000E-02 0.  1.
          2   -1    0    0  501    0  0.00000000000E+00 -0.00000000000E+00 -0.71178882186E+03  0.71178882187E+03  0.25500000000E-02 0. -1.
    8880023    1    1    2    0    0  0.16465680348E+03 -0.41174497417E+03  0.35702328123E+03  0.87058693781E+03  0.65864270000E+03 0.  1.
    8880022    1    1    2    0    0 -0.16465680348E+03  0.41174497417E+03 -0.33410915969E+03  0.57590482746E+03  0.15294330000E+03 0.  0.
<mgrwt>
<rscale>  0 0.69611760E+03</rscale>
<asrwt>0</asrwt>
<pdfrwt beam="1">  1        2 0.10950597E+00 0.79401259E+03</pdfrwt>
<pdfrwt beam="2">  1       -2 0.11303122E+00 0.79401259E+03</pdfrwt>
<totfact> 0.24911769E+01</totfact>
</mgrwt>
</event>
<event>
 4    2  0.3855935E-007  0.7800364E+03  0.7818608E-02  0.9755752E-01
         -2   -1    0    0    0  501 -0.00000000000E+00  0.00000000000E+00  0.15671552671E+04  0.15671552671E+04  0.25500000000E-02 0.  1.
          2   -1    0    0  501    0  0.00000000000E+00 -0.00000000000E+00 -0.98685735794E+03  0.98685735794E+03  0.25500000000E-02 0. -1.
    8880023    1    1    2    0    0 -0.31330417946E+03  0.27656288290E+03  0.14106363731E+04  0.16119403588E+04  0.65864270000E+03 0.  1.
    8880022    1    1    2    0    0  0.31330417946E+03 -0.27656288290E+03 -0.83033846393E+03  0.94207226621E+03  0.15294330000E+03 0.  0.
<mgrwt>
<rscale>  0 0.67792205E+03</rscale>
<asrwt>0</asrwt>
<pdfrwt beam="1">  1        2 0.15182421E+00 0.78003637E+03</pdfrwt>
<pdfrwt beam="2">  1       -2 0.24110081E+00 0.78003637E+03</pdfrwt>
<totfact> 0.19233258E+00</totfact>
</mgrwt>
</event>
<event>
 4    2  0.4871374E-007  0.8699107E+03  0.7818608E-02  0.9576172E-01
          2   -1    0    0  501    0  0.00000000000E+00  0.00000000000E+00  0.20163138595E+04  0.20163138595E+04  0.25500000000E-02 0. -1.
         -2   -1    0    0    0  501 -0.00000000000E+00 -0.00000000000E+00 -0.12927207650E+04  0.12927207650E+04  0.25500000000E-02 0.  1.
    8880023    1    1    2    0    0 -0.27335557476E+03 -0.49820802060E+03 -0.10944840542E+04  0.13980844228E+04  0.65864270000E+03 0.  0.
    8880022    1    1    2    0    0  0.27335557476E+03  0.49820802060E+03  0.18180771487E+04  0.19109502017E+04  0.15294330000E+03 0.  0.
<mgrwt>
<rscale>  0 0.78893584E+03</rscale>
<asrwt>0</asrwt>
<pdfrwt beam="1">  1        2 0.31020213E+00 0.86991075E+03</pdfrwt>
<pdfrwt beam="2">  1       -2 0.19888012E+00 0.86991075E+03</pdfrwt>
<totfact> 0.90307485E-01</totfact>
</mgrwt>
</event>
<event>
 4    2  0.3855935E-007  0.8980224E+03  0.7818608E-02  0.9529214E-01
         -2   -1    0    0    0  501 -0.00000000000E+00  0.00000000000E+00  0.87484169843E+03  0.87484169843E+03  0.25500000000E-02 0.  1.
          2   -1    0    0  501    0  0.00000000000E+00 -0.00000000000E+00 -0.14965483431E+04  0.14965483431E+04  0.25500000000E-02 0. -1.
    8880023    1    1    2    0    0 -0.46671320952E+03  0.39346265474E+03  0.54165331340E+03  0.10487290397E+04  0.65864270000E+03 0.  0.
    8880022    1    1    2    0    0  0.46671320952E+03 -0.39346265474E+03 -0.11633599581E+04  0.13226610018E+04  0.15294330000E+03 0. -1.
<mgrwt>
<rscale>  0 0.82163856E+03</rscale>
<asrwt>0</asrwt>
<pdfrwt beam="1">  1        2 0.23023821E+00 0.89802243E+03</pdfrwt>
<pdfrwt beam="2">  1       -2 0.13459103E+00 0.89802243E+03</pdfrwt>
<totfact> 0.50956577E+00</totfact>
</mgrwt>
</event>
<event>
 4    2  0.3855935E-007  0.1122502E+04  0.7818608E-02  0.9236407E-01
          2   -1    0    0  501    0  0.00000000000E+00  0.00000000000E+00  0.77999616373E+03  0.77999616373E+03  0.25500000000E-02 0. -1.
         -2   -1    0    0    0  501 -0.00000000000E+00 -0.00000000000E+00 -0.15596944024E+04  0.15596944024E+04  0.25500000000E-02 0.  1.
    8880023    1    1    2    0    0 -0.29044018287E+03 -0.86130375514E+03 -0.86056201252E+03  0.14144174922E+04  0.65864270000E+03 0.  1.
    8880022    1    1    2    0    0  0.29044018287E+03  0.86130375514E+03  0.80863773877E+02  0.92527307396E+03  0.15294330000E+03 0.  0.
<mgrwt>
<rscale>  0 0.10685417E+04</rscale>
<asrwt>0</asrwt>
<pdfrwt beam="1">  1        2 0.11999941E+00 0.11225016E+04</pdfrwt>
<pdfrwt beam="2">  1       -2 0.23995298E+00 0.11225016E+04</pdfrwt>
<totfact> 0.25974201E+00</totfact>
</mgrwt>
</event>
<event>
 4    2  0.3855935E-007  0.7643691E+03  0.7818608E-02  0.9793925E-01
          2   -1    0    0  501    0  0.00000000000E+00  0.00000000000E+00  0.40419231776E+04  0.40419231776E+04  0.25500000000E-02 0. -1.
         -2   -1    0    0    0  501 -0.00000000000E+00 -0.00000000000E+00 -0.21190676061E+03  0.21190676063E+03  0.25500000000E-02 0.  1.
    8880023    1    1    2    0    0 -0.32081965014E+03  0.21800151208E+03  0.53609762598E+03  0.93362775132E+03  0.65864270000E+03 0.  0.
    8880022    1    1    2    0    0  0.32081965014E+03 -0.21800151208E+03  0.32939187910E+04  0.33202021869E+04  0.15294330000E+03 0.  0.
<mgrwt>
<rscale>  0 0.65689588E+03</rscale>
<asrwt>0</asrwt>
<pdfrwt beam="1">  1        2 0.62183437E+00 0.76436910E+03</pdfrwt>
<pdfrwt beam="2">  1       -2 0.32601038E-01 0.76436910E+03</pdfrwt>
<totfact> 0.30651537E+00</totfact>
</mgrwt>
</event>
<event>
 4    2  0.3855935E-007  0.7855822E+03  0.7818608E-02  0.9742884E-01
         -2   -1    0    0    0  501 -0.00000000000E+00  0.00000000000E+00  0.68284701627E+03  0.68284701627E+03  0.25500000000E-02 0.  1.
          2   -1    0    0  501    0  0.00000000000E+00 -0.00000000000E+00 -0.10533387765E+04  0.10533387765E+04  0.25500000000E-02 0. -1.
    8880023    1    1    2    0    0  0.91225085881E+01 -0.42807235200E+03  0.36913590494E+03  0.86798656746E+03  0.65864270000E+03 0.  0.
    8880022    1    1    2    0    0 -0.91225085881E+01  0.42807235200E+03 -0.73962766515E+03  0.86819922528E+03  0.15294330000E+03 0.  0.
<mgrwt>
<rscale>  0 0.68519904E+03</rscale>
<asrwt>0</asrwt>
<pdfrwt beam="1">  1        2 0.16205212E+00 0.78558218E+03</pdfrwt>
<pdfrwt beam="2">  1       -2 0.10505339E+00 0.78558218E+03</pdfrwt>
<totfact> 0.17333023E+01</totfact>
</mgrwt>
</event>
<event>
 4    2  0.3855935E-007  0.7013656E+03  0.7818608E-02  0.9991583E-01
          2   -1    0    0  501    0  0.00000000000E+00  0.00000000000E+00  0.56628118775E+03  0.56628118775E+03  0.25500000000E-02 0. -1.
         -2   -1    0    0    0  501 -0.00000000000E+00 -0.00000000000E+00 -0.46289906891E+03  0.46289906892E+03  0.25500000000E-02 0.  1.
    8880023    1    1    2    0    0  0.22890740800E+03 -0.75530678756E+02 -0.53564965441E+02  0.70340805843E+03  0.65864270000E+03 0.  1.
    8880022    1    1    2    0    0 -0.22890740800E+03  0.75530678756E+02  0.15694708428E+03  0.32577219824E+03  0.15294330000E+03 0. -1.
<mgrwt>
<rscale>  0 0.56020864E+03</rscale>
<asrwt>0</asrwt>
<pdfrwt beam="1">  1        2 0.87120183E-01 0.70136559E+03</pdfrwt>
<pdfrwt beam="2">  1       -2 0.71215241E-01 0.70136559E+03</pdfrwt>
<totfact> 0.96539980E+01</totfact>
</mgrwt>
</event>
<event>
 4    2  0.3855935E-007  0.1034825E+04  0.7818608E-02  0.9337351E-01
         -2   -1    0    0    0  501 -0.00000000000E+00  0.00000000000E+00  0.17104947260E+03  0.17104947262E+03  0.25500000000E-02 0.  1.
          2   -1    0    0  501    0  0.00000000000E+00 -0.00000000000E+00 -0.51605914055E+04  0.51605914055E+04  0.25500000000E-02 0. -1.
    8880023    1    1    2    0    0 -0.55781189175E+02  0.79620362123E+03 -0.23016462812E+04  0.25235763427E+04  0.65864270000E+03 0.  1.
    8880022    1    1    2    0    0  0.55781189175E+02 -0.79620362123E+03 -0.26878956518E+04  0.28080645355E+04  0.15294330000E+03 0. -1.
<mgrwt>
<rscale>  0 0.97415824E+03</rscale>
<asrwt>0</asrwt>
<pdfrwt beam="1">  1        2 0.79393702E+00 0.10348246E+04</pdfrwt>
<pdfrwt beam="2">  1       -2 0.26315307E-01 0.10348246E+04</pdfrwt>
<totfact> 0.30335587E-01</totfact>
</mgrwt>
</event>
<event>
 4    2  0.3855935E-007  0.7012886E+03  0.7818608E-02  0.9991897E-01
          2   -1    0    0  501    0  0.00000000000E+00  0.00000000000E+00  0.35490119864E+03  0.35490119865E+03  0.25500000000E-02 0. -1.
         -2   -1    0    0    0  501 -0.00000000000E+00 -0.00000000000E+00 -0.79270346209E+03  0.79270346210E+03  0.25500000000E-02 0.  1.
    8880023    1    1    2    0    0 -0.22028123719E+03  0.97322177251E+02 -0.49272918633E+03  0.85708091040E+03  0.65864270000E+03 0.  0.
    8880022    1    1    2    0    0  0.22028123719E+03 -0.97322177251E+02  0.54926922880E+02  0.29052375035E+03  0.15294330000E+03 0.  0.
<mgrwt>
<rscale>  0 0.56006960E+03</rscale>
<asrwt>0</asrwt>
<pdfrwt beam="1">  1        2 0.54600184E-01 0.70128855E+03</pdfrwt>
<pdfrwt beam="2">  1       -2 0.12195438E+00 0.70128855E+03</pdfrwt>
<totfact> 0.47060300E+01</totfact>
</mgrwt>
</event>
<event>
 4    2  0.3855935E-007  0.6833209E+03  0.7818608E-02  0.1007504E+00
         -2   -1    0    0    0  501 -0.00000000000E+00  0.00000000000E+00  0.39713265261E+03  0.39713265262E+03  0.25500000000E-02 0.  1.
          2   -1    0    0  501    0  0.00000000000E+00 -0.00000000000E+00 -0.68004109595E+03  0.68004109596E+03  0.25500000000E-02 0. -1.
    8880023    1    1    2    0    0 -0.48038762211E+02  0.17552646326E+03  0.30274523701E+02  0.68399123900E+03  0.65864270000E+03 0.  1.
    8880022    1    1    2    0    0  0.48038762211E+02 -0.17552646326E+03 -0.31318296704E+03  0.39318250958E+03  0.15294330000E+03 0.  0.
<mgrwt>
<rscale>  0 0.52478710E+03</rscale>
<asrwt>0</asrwt>
<pdfrwt beam="1">  1        2 0.10462171E+00 0.68332091E+03</pdfrwt>
<pdfrwt beam="2">  1       -2 0.61097331E-01 0.68332091E+03</pdfrwt>
<totfact> 0.10758990E+02</totfact>
</mgrwt>
</event>
<event>
 4    2  0.3855935E-007  0.1254920E+04  0.7818608E-02  0.9105501E-01
         -2   -1    0    0    0  501 -0.00000000000E+00  0.00000000000E+00  0.10077257873E+04  0.10077257873E+04  0.25500000000E-02 0.  1.
          2   -1    0    0  501    0  0.00000000000E+00 -0.00000000000E+00 -0.31099497942E+04  0.31099497942E+04  0.25500000000E-02 0. -1.
    8880023    1    1    2    0    0  0.10677309309E+04  0.31038990089E+02  0.46073067379E+03  0.13368229949E+04  0.65864270000E+03 0.  0.
    8880022    1    1    2    0    0 -0.10677309309E+04 -0.31038990089E+02 -0.25629546807E+04  0.27808525866E+04  0.15294330000E+03 0.  0.
<mgrwt>
<rscale>  0 0.12084394E+04</rscale>
<asrwt>0</asrwt>
<pdfrwt beam="1">  1        2 0.47845381E+00 0.12549195E+04</pdfrwt>
<pdfrwt beam="2">  1       -2 0.15503474E+00 0.12549195E+04</pdfrwt>
<totfact> 0.39811289E-01</totfact>
</mgrwt>
</event>
<event>
 4    2  0.3855935E-007  0.7012176E+03  0.7818608E-02  0.9992187E-01
          2   -1    0    0  501    0  0.00000000000E+00  0.00000000000E+00  0.65144660711E+03  0.65144660712E+03  0.25500000000E-02 0. -1.
         -2   -1    0    0    0  501 -0.00000000000E+00 -0.00000000000E+00 -0.21288573288E+04  0.21288573288E+04  0.25500000000E-02 0.  1.
    8880023    1    1    2    0    0 -0.23060464984E+03 -0.68683451312E+02 -0.20358856428E+04  0.21532618229E+04  0.65864270000E+03 0.  1.
    8880022    1    1    2    0    0  0.23060464984E+03  0.68683451312E+02  0.55847492111E+03  0.62704211305E+03  0.15294330000E+03 0.  0.
<mgrwt>
<rscale>  0 0.55994146E+03</rscale>
<asrwt>0</asrwt>
<pdfrwt beam="1">  1        2 0.10022256E+00 0.70121760E+03</pdfrwt>
<pdfrwt beam="2">  1       -2 0.32751651E+00 0.70121760E+03</pdfrwt>
<totfact> 0.10217739E+00</totfact>
</mgrwt>
</event>
<event>
 4    2  0.3855935E-007  0.9602220E+03  0.7818608E-02  0.9435557E-01
         -2   -1    0    0    0  501 -0.00000000000E+00  0.00000000000E+00  0.24467781064E+03  0.24467781066E+03  0.25500000000E-02 0.  1.
          2   -1    0    0  501    0  0.00000000000E+00 -0.00000000000E+00 -0.37048412865E+04  0.37048412865E+04  0.25500000000E-02 0. -1.
    8880023    1    1    2    0    0  0.18745684673E+03  0.67310918724E+03 -0.28564628931E+04  0.30135372095E+04  0.65864270000E+03 0.  0.
    8880022    1    1    2    0    0 -0.18745684673E+03 -0.67310918724E+03 -0.60370058278E+03  0.93598188765E+03  0.15294330000E+03 0.  0.
<mgrwt>
<rscale>  0 0.89206370E+03</rscale>
<asrwt>0</asrwt>
<pdfrwt beam="1">  1        2 0.56997554E+00 0.96022198E+03</pdfrwt>
<pdfrwt beam="2">  1       -2 0.37642743E-01 0.96022198E+03</pdfrwt>
<totfact> 0.40487258E+00</totfact>
</mgrwt>
</event>
<event>
 4    2  0.3855935E-007  0.6786641E+03  0.7818608E-02  0.1010090E+00
         -2   -1    0    0    0  501 -0.00000000000E+00  0.00000000000E+00  0.26384562547E+03  0.26384562548E+03  0.25500000000E-02 0.  1.
          2   -1    0    0  501    0  0.00000000000E+00 -0.00000000000E+00 -0.78572848170E+03  0.78572848170E+03  0.25500000000E-02 0. -1.
    8880023    1    1    2    0    0  0.13466177104E+03  0.92956424033E+02 -0.33000445745E+03  0.75464417943E+03  0.65864270000E+03 0.  1.
    8880022    1    1    2    0    0 -0.13466177104E+03 -0.92956424033E+02 -0.19187839878E+03  0.29492992775E+03  0.15294330000E+03 0.  1.
<mgrwt>
<rscale>  0 0.51439020E+03</rscale>
<asrwt>0</asrwt>
<pdfrwt beam="1">  1        2 0.12088130E+00 0.67866405E+03</pdfrwt>
<pdfrwt beam="2">  1       -2 0.40591635E-01 0.67866405E+03</pdfrwt>
<totfact> 0.20540710E+02</totfact>
</mgrwt>
</event>
<event>
 4    2  0.3855935E-007  0.9682553E+03  0.7818608E-02  0.9424321E-01
          2   -1    0    0  501    0  0.00000000000E+00  0.00000000000E+00  0.16539028851E+04  0.16539028851E+04  0.25500000000E-02 0. -1.
         -2   -1    0    0    0  501 -0.00000000000E+00 -0.00000000000E+00 -0.44535017829E+03  0.44535017830E+03  0.25500000000E-02 0.  1.
    8880023    1    1    2    0    0 -0.79478296386E+02 -0.70525976784E+03  0.52188199188E+03  0.10999450711E+04  0.65864270000E+03 0.  1.
    8880022    1    1    2    0    0  0.79478296386E+02  0.70525976784E+03  0.68667071495E+03  0.99930799232E+03  0.15294330000E+03 0.  0.
<mgrwt>
<rscale>  0 0.90100878E+03</rscale>
<asrwt>0</asrwt>
<pdfrwt beam="1">  1        2 0.25444659E+00 0.96825531E+03</pdfrwt>
<pdfrwt beam="2">  1       -2 0.68515413E-01 0.96825531E+03</pdfrwt>
<totfact> 0.20313364E+01</totfact>
</mgrwt>
</event>
<event>
 4    2  0.3855935E-007  0.7038507E+03  0.7818608E-02  0.9981587E-01
         -2   -1    0    0    0  501 -0.00000000000E+00  0.00000000000E+00  0.18546512630E+03  0.18546512631E+03  0.25500000000E-02 0.  1.
          2   -1    0    0  501    0  0.00000000000E+00 -0.00000000000E+00 -0.20689989557E+04  0.20689989557E+04  0.25500000000E-02 0. -1.
    8880023    1    1    2    0    0 -0.85339377023E+02  0.23305096794E+03 -0.56068738711E+03  0.89987561099E+03  0.65864270000E+03 0.  0.
    8880022    1    1    2    0    0  0.85339377023E+02 -0.23305096794E+03 -0.13228464423E+04  0.13545884710E+04  0.15294330000E+03 0.  0.
<mgrwt>
<rscale>  0 0.56465034E+03</rscale>
<asrwt>0</asrwt>
<pdfrwt beam="1">  1        2 0.31830751E+00 0.70385067E+03</pdfrwt>
<pdfrwt beam="2">  1       -2 0.28533098E-01 0.70385067E+03</pdfrwt>
<totfact> 0.71210093E+01</totfact>
</mgrwt>
</event>
<event>
 4    2  0.3855935E-007  0.8036579E+03  0.7818608E-02  0.9702942E-01
         -2   -1    0    0    0  501 -0.00000000000E+00  0.00000000000E+00  0.47787488339E+03  0.47787488340E+03  0.25500000000E-02 0.  1.
          2   -1    0    0  501    0  0.00000000000E+00 -0.00000000000E+00 -0.11189883610E+04  0.11189883610E+04  0.25500000000E-02 0. -1.
    8880023    1    1    2    0    0 -0.43136438926E+03  0.16118479697E+03 -0.13785991573E+02  0.80377610995E+03  0.65864270000E+03 0.  1.
    8880022    1    1    2    0    0  0.43136438926E+03 -0.16118479697E+03 -0.62732748605E+03  0.79308713447E+03  0.15294330000E+03 0.  0.
<mgrwt>
<rscale>  0 0.70841891E+03</rscale>
<asrwt>0</asrwt>
<pdfrwt beam="1">  1        2 0.17215205E+00 0.80365788E+03</pdfrwt>
<pdfrwt beam="2">  1       -2 0.73519213E-01 0.80365788E+03</pdfrwt>
<totfact> 0.35825820E+01</totfact>
</mgrwt>
</event>
<event>
 4    2  0.3855935E-007  0.6635141E+03  0.7818608E-02  0.1020814E+00
          2   -1    0    0  501    0  0.00000000000E+00  0.00000000000E+00  0.12763207565E+04  0.12763207565E+04  0.25500000000E-02 0. -1.
         -2   -1    0    0    0  501 -0.00000000000E+00 -0.00000000000E+00 -0.24378251690E+03  0.24378251691E+03  0.25500000000E-02 0.  1.
    8880023    1    1    2    0    0  0.69518403988E+02 -0.40098925186E+02  0.23472653210E+03  0.70380926637E+03  0.65864270000E+03 0.  1.
    8880022    1    1    2    0    0 -0.69518403988E+02  0.40098925186E+02  0.79781170747E+03  0.81629400701E+03  0.15294330000E+03 0.  0.
<mgrwt>
<rscale>  0 0.47394026E+03</rscale>
<asrwt>0</asrwt>
<pdfrwt beam="1">  1        2 0.19635704E+00 0.66351408E+03</pdfrwt>
<pdfrwt beam="2">  1       -2 0.37505003E-01 0.66351408E+03</pdfrwt>
<totfact> 0.11701945E+02</totfact>
</mgrwt>
</event>
<event>
 4    2  0.3855935E-007  0.6825636E+03  0.7818608E-02  0.1007909E+00
         -2   -1    0    0    0  501 -0.00000000000E+00  0.00000000000E+00  0.22651099813E+03  0.22651099814E+03  0.25500000000E-02 0.  1.
          2   -1    0    0  501    0  0.00000000000E+00 -0.00000000000E+00 -0.15626506805E+04  0.15626506805E+04  0.25500000000E-02 0. -1.
    8880023    1    1    2    0    0 -0.98088428845E+02 -0.14987159889E+03 -0.33434602662E+03  0.76005283225E+03  0.65864270000E+03 0.  1.
    8880022    1    1    2    0    0  0.98088428845E+02  0.14987159889E+03 -0.10017936558E+04  0.10291088464E+04  0.15294330000E+03 0.  0.
<mgrwt>
<rscale>  0 0.52314129E+03</rscale>
<asrwt>0</asrwt>
<pdfrwt beam="1">  1        2 0.24040779E+00 0.68256358E+03</pdfrwt>
<pdfrwt beam="2">  1       -2 0.34847847E-01 0.68256358E+03</pdfrwt>
<totfact> 0.92778940E+01</totfact>
</mgrwt>
</event>
<event>
 4    2  0.3855935E-007  0.6625536E+03  0.7818608E-02  0.1021680E+00
          2   -1    0    0  501    0  0.00000000000E+00  0.00000000000E+00  0.20507352998E+04  0.20507352998E+04  0.25500000000E-02 0. -1.
         -2   -1    0    0    0  501 -0.00000000000E+00 -0.00000000000E+00 -0.24915850534E+03  0.24915850536E+03  0.25500000000E-02 0.  1.
    8880023    1    1    2    0    0 -0.51334704705E+02 -0.50317362258E+02  0.20377815223E+03  0.69318311465E+03  0.65864270000E+03 0.  1.
    8880022    1    1    2    0    0  0.51334704705E+02  0.50317362258E+02  0.15977986423E+04  0.16067106905E+04  0.15294330000E+03 0.  0.
<mgrwt>
<rscale>  0 0.47085063E+03</rscale>
<asrwt>0</asrwt>
<pdfrwt beam="1">  1        2 0.31549774E+00 0.66255362E+03</pdfrwt>
<pdfrwt beam="2">  1       -2 0.38332078E-01 0.66255362E+03</pdfrwt>
<totfact> 0.42006789E+01</totfact>
</mgrwt>
</event>
<event>
 4    2  0.3855935E-007  0.7190803E+03  0.7818608E-02  0.9925710E-01
         -2   -1    0    0    0  501 -0.00000000000E+00  0.00000000000E+00  0.37468421622E+03  0.37468421623E+03  0.25500000000E-02 0.  1.
          2   -1    0    0  501    0  0.00000000000E+00 -0.00000000000E+00 -0.24647522276E+04  0.24647522276E+04  0.25500000000E-02 0. -1.
    8880023    1    1    2    0    0  0.24191569980E+03  0.15729907697E+03  0.49689120820E+01  0.71909742161E+03  0.65864270000E+03 0.  1.
    8880022    1    1    2    0    0 -0.24191569980E+03 -0.15729907697E+03 -0.20950369235E+04  0.21203390222E+04  0.15294330000E+03 0.  0.
<mgrwt>
<rscale>  0 0.59031270E+03</rscale>
<asrwt>0</asrwt>
<pdfrwt beam="1">  1        2 0.37919264E+00 0.71908025E+03</pdfrwt>
<pdfrwt beam="2">  1       -2 0.57643727E-01 0.71908025E+03</pdfrwt>
<totfact> 0.10824811E+01</totfact>
</mgrwt>
</event>
<event>
 4    2  0.3855935E-007  0.9398771E+03  0.7818608E-02  0.9464831E-01
          2   -1    0    0  501    0  0.00000000000E+00  0.00000000000E+00  0.43392731668E+04  0.43392731668E+04  0.25500000000E-02 0. -1.
         -2   -1    0    0    0  501 -0.00000000000E+00 -0.00000000000E+00 -0.24070635452E+03  0.24070635453E+03  0.25500000000E-02 0.  1.
    8880023    1    1    2    0    0  0.44619535604E+03 -0.50046825052E+03  0.87588023870E+03  0.12847315534E+04  0.65864270000E+03 0.  0.
    8880022    1    1    2    0    0 -0.44619535604E+03  0.50046825052E+03  0.32226865736E+04  0.32952479679E+04  0.15294330000E+03 0.  0.
<mgrwt>
<rscale>  0 0.86927113E+03</rscale>
<asrwt>0</asrwt>
<pdfrwt beam="1">  1        2 0.66758047E+00 0.93987710E+03</pdfrwt>
<pdfrwt beam="2">  1       -2 0.37031748E-01 0.93987710E+03</pdfrwt>
<totfact> 0.12981941E+00</totfact>
</mgrwt>
</event>
<event>
 4    2  0.3855935E-007  0.7250623E+03  0.7818608E-02  0.9905815E-01
         -2   -1    0    0    0  501 -0.00000000000E+00  0.00000000000E+00  0.36622799223E+03  0.36622799224E+03  0.25500000000E-02 0.  1.
          2   -1    0    0  501    0  0.00000000000E+00 -0.00000000000E+00 -0.16756973825E+04  0.16756973825E+04  0.25500000000E-02 0. -1.
    8880023    1    1    2    0    0  0.28918285549E+03 -0.90985874792E+02 -0.38175784632E+02  0.72606662925E+03  0.65864270000E+03 0.  1.
    8880022    1    1    2    0    0 -0.28918285549E+03  0.90985874792E+02 -0.12712936056E+04  0.13158587454E+04  0.15294330000E+03 0.  0.
<mgrwt>
<rscale>  0 0.59980304E+03</rscale>
<asrwt>0</asrwt>
<pdfrwt beam="1">  1        2 0.25779959E+00 0.72506231E+03</pdfrwt>
<pdfrwt beam="2">  1       -2 0.56342769E-01 0.72506231E+03</pdfrwt>
<totfact> 0.30789002E+01</totfact>
</mgrwt>
</event>
<event>
 4    2  0.3855935E-007  0.1055148E+04  0.7818608E-02  0.9312718E-01
          2   -1    0    0  501    0  0.00000000000E+00  0.00000000000E+00  0.18946062447E+04  0.18946062447E+04  0.25500000000E-02 0. -1.
         -2   -1    0    0    0  501 -0.00000000000E+00 -0.00000000000E+00 -0.71755703535E+03  0.71755703536E+03  0.25500000000E-02 0.  1.
    8880023    1    1    2    0    0 -0.70012072848E+03 -0.43515382945E+03 -0.12605062851E+03  0.10626508631E+04  0.65864270000E+03 0.  1.
    8880022    1    1    2    0    0  0.70012072848E+03  0.43515382945E+03  0.13030998378E+04  0.15495124169E+04  0.15294330000E+03 0.  0.
<mgrwt>
<rscale>  0 0.99620417E+03</rscale>
<asrwt>0</asrwt>
<pdfrwt beam="1">  1        2 0.29147788E+00 0.10551484E+04</pdfrwt>
<pdfrwt beam="2">  1       -2 0.11039339E+00 0.10551484E+04</pdfrwt>
<totfact> 0.49403461E+00</totfact>
</mgrwt>
</event>
<event>
 4    2  0.3855935E-007  0.8315171E+03  0.7818608E-02  0.9646388E-01
          2   -1    0    0  501    0  0.00000000000E+00  0.00000000000E+00  0.10070984804E+04  0.10070984804E+04  0.25500000000E-02 0. -1.
         -2   -1    0    0    0  501 -0.00000000000E+00 -0.00000000000E+00 -0.86093942444E+03  0.86093942444E+03  0.25500000000E-02 0.  1.
    8880023    1    1    2    0    0 -0.18889956524E+03 -0.47109177695E+03 -0.54708233237E+03  0.99534908083E+03  0.65864270000E+03 0.  1.
    8880022    1    1    2    0    0  0.18889956524E+03  0.47109177695E+03  0.69324138837E+03  0.87268882405E+03  0.15294330000E+03 0.  0.
<mgrwt>
<rscale>  0 0.74300563E+03</rscale>
<asrwt>0</asrwt>
<pdfrwt beam="1">  1        2 0.15493823E+00 0.83151712E+03</pdfrwt>
<pdfrwt beam="2">  1       -2 0.13245222E+00 0.83151712E+03</pdfrwt>
<totfact> 0.10408212E+01</totfact>
</mgrwt>
</event>
<event>
 4    2  0.3855935E-007  0.7213804E+03  0.7818608E-02  0.9917943E-01
         -2   -1    0    0    0  501 -0.00000000000E+00  0.00000000000E+00  0.28931140047E+03  0.28931140048E+03  0.25500000000E-02 0.  1.
          2   -1    0    0  501    0  0.00000000000E+00 -0.00000000000E+00 -0.14557220017E+04  0.14557220017E+04  0.25500000000E-02 0. -1.
    8880023    1    1    2    0    0 -0.21222221427E+03  0.20381643450E+03 -0.23872067731E+03  0.75985339062E+03  0.65864270000E+03 0.  0.
    8880022    1    1    2    0    0  0.21222221427E+03 -0.20381643450E+03 -0.92768992395E+03  0.98518001158E+03  0.15294330000E+03 0.  0.
<mgrwt>
<rscale>  0 0.59399533E+03</rscale>
<asrwt>0</asrwt>
<pdfrwt beam="1">  1        2 0.22395723E+00 0.72138035E+03</pdfrwt>
<pdfrwt beam="2">  1       -2 0.44509447E-01 0.72138035E+03</pdfrwt>
<totfact> 0.65850355E+01</totfact>
</mgrwt>
</event>
<event>
 4    2  0.3855935E-007  0.7551920E+03  0.7818608E-02  0.9817718E-01
         -2   -1    0    0    0  501 -0.00000000000E+00  0.00000000000E+00  0.31014848035E+03  0.31014848036E+03  0.25500000000E-02 0.  1.
          2   -1    0    0  501    0  0.00000000000E+00 -0.00000000000E+00 -0.25278974533E+04  0.25278974533E+04  0.25500000000E-02 0. -1.
    8880023    1    1    2    0    0 -0.32362237387E+03 -0.17825081904E+03 -0.20023531101E+03  0.78128687522E+03  0.65864270000E+03 0.  1.
    8880022    1    1    2    0    0  0.32362237387E+03  0.17825081904E+03 -0.20175136619E+04  0.20567590584E+04  0.15294330000E+03 0.  0.
<mgrwt>
<rscale>  0 0.64420323E+03</rscale>
<asrwt>0</asrwt>
<pdfrwt beam="1">  1        2 0.38890729E+00 0.75519203E+03</pdfrwt>
<pdfrwt beam="2">  1       -2 0.47715153E-01 0.75519203E+03</pdfrwt>
<totfact> 0.14614802E+01</totfact>
</mgrwt>
</event>
<event>
 4    2  0.3855935E-007  0.6720630E+03  0.7818608E-02  0.1014225E+00
          2   -1    0    0  501    0  0.00000000000E+00  0.00000000000E+00  0.33685799974E+04  0.33685799974E+04  0.25500000000E-02 0. -1.
         -2   -1    0    0    0  501 -0.00000000000E+00 -0.00000000000E+00 -0.78807625075E+02  0.78807625116E+02  0.25500000000E-02 0.  1.
    8880023    1    1    2    0    0 -0.12269120273E+03  0.52965978072E+02  0.14703296559E+04  0.16166440639E+04  0.65864270000E+03 0.  1.
    8880022    1    1    2    0    0  0.12269120273E+03 -0.52965978072E+02  0.18194427164E+04  0.18307435586E+04  0.15294330000E+03 0.  0.
<mgrwt>
<rscale>  0 0.49829409E+03</rscale>
<asrwt>0</asrwt>
<pdfrwt beam="1">  1        2 0.51824304E+00 0.67206304E+03</pdfrwt>
<pdfrwt beam="2">  1       -2 0.12124251E-01 0.67206304E+03</pdfrwt>
<totfact> 0.54284325E+01</totfact>
</mgrwt>
</event>
<event>
 4    2  0.3855935E-007  0.7159611E+03  0.7818608E-02  0.9936497E-01
         -2   -1    0    0    0  501 -0.00000000000E+00  0.00000000000E+00  0.29532429193E+03  0.29532429194E+03  0.25500000000E-02 0.  1.
          2   -1    0    0  501    0  0.00000000000E+00 -0.00000000000E+00 -0.36825471144E+04  0.36825471144E+04  0.25500000000E-02 0. -1.
    8880023    1    1    2    0    0  0.17056304279E+03 -0.22293121471E+03 -0.15841317258E+03  0.73327690375E+03  0.65864270000E+03 0.  1.
    8880022    1    1    2    0    0 -0.17056304279E+03  0.22293121471E+03 -0.32288096499E+04  0.32445945026E+04  0.15294330000E+03 0.  0.
<mgrwt>
<rscale>  0 0.58524636E+03</rscale>
<asrwt>0</asrwt>
<pdfrwt beam="1">  1        2 0.56654568E+00 0.71596109E+03</pdfrwt>
<pdfrwt beam="2">  1       -2 0.45434509E-01 0.71596109E+03</pdfrwt>
<totfact> 0.30437563E+00</totfact>
</mgrwt>
</event>
<event>
 4    2  0.3855935E-007  0.9734841E+03  0.7818608E-02  0.9417101E-01
         -2   -1    0    0    0  501 -0.00000000000E+00  0.00000000000E+00  0.49280306606E+03  0.49280306606E+03  0.25500000000E-02 0.  1.
          2   -1    0    0  501    0  0.00000000000E+00 -0.00000000000E+00 -0.19007719331E+04  0.19007719331E+04  0.25500000000E-02 0. -1.
    8880023    1    1    2    0    0 -0.46250076830E+03  0.54768071155E+03 -0.22056119635E+03  0.99815758780E+03  0.65864270000E+03 0.  1.
    8880022    1    1    2    0    0  0.46250076830E+03 -0.54768071155E+03 -0.11874076707E+04  0.13954174113E+04  0.15294330000E+03 0.  0.
<mgrwt>
<rscale>  0 0.90681561E+03</rscale>
<asrwt>0</asrwt>
<pdfrwt beam="1">  1        2 0.29242645E+00 0.97348412E+03</pdfrwt>
<pdfrwt beam="2">  1       -2 0.75815857E-01 0.97348412E+03</pdfrwt>
<totfact> 0.11874635E+01</totfact>
</mgrwt>
</event>
<event>
 4    2  0.3855935E-007  0.7316251E+03  0.7818608E-02  0.9885050E-01
          2   -1    0    0  501    0  0.00000000000E+00  0.00000000000E+00  0.10629660716E+04  0.10629660716E+04  0.25500000000E-02 0. -1.
         -2   -1    0    0    0  501 -0.00000000000E+00 -0.00000000000E+00 -0.68053939038E+03  0.68053939039E+03  0.25500000000E-02 0.  1.
    8880023    1    1    2    0    0 -0.12599720380E+03  0.29255742383E+03 -0.43625899045E+03  0.85181996608E+03  0.65864270000E+03 0.  0.
    8880022    1    1    2    0    0  0.12599720380E+03 -0.29255742383E+03  0.81868567171E+03  0.89168549595E+03  0.15294330000E+03 0. -1.
<mgrwt>
<rscale>  0 0.60991314E+03</rscale>
<asrwt>0</asrwt>
<pdfrwt beam="1">  1        2 0.16353324E+00 0.73162514E+03</pdfrwt>
<pdfrwt beam="2">  1       -2 0.10469837E+00 0.73162514E+03</pdfrwt>
<totfact> 0.17335904E+01</totfact>
</mgrwt>
</event>
<event>
 4    2  0.3855935E-007  0.6866493E+03  0.7818608E-02  0.1005788E+00
         -2   -1    0    0    0  501 -0.00000000000E+00  0.00000000000E+00  0.13035994114E+03  0.13035994117E+03  0.25500000000E-02 0.  1.
          2   -1    0    0  501    0  0.00000000000E+00 -0.00000000000E+00 -0.19533574697E+04  0.19533574697E+04  0.25500000000E-02 0. -1.
    8880023    1    1    2    0    0  0.18435140254E+03  0.60758692604E+02 -0.16346244762E+04  0.17729874345E+04  0.65864270000E+03 0.  0.
    8880022    1    1    2    0    0 -0.18435140254E+03 -0.60758692604E+02 -0.18837305229E+03  0.31072997633E+03  0.15294330000E+03 0.  0.
<mgrwt>
<rscale>  0 0.53183704E+03</rscale>
<asrwt>0</asrwt>
<pdfrwt beam="1">  1        2 0.30051651E+00 0.68664930E+03</pdfrwt>
<pdfrwt beam="2">  1       -2 0.20055377E-01 0.68664930E+03</pdfrwt>
<totfact> 0.15514084E+02</totfact>
</mgrwt>
</event>
<event>
 4    2  0.3855935E-007  0.7359152E+03  0.7818608E-02  0.9872010E-01
          2   -1    0    0  501    0  0.00000000000E+00  0.00000000000E+00  0.15725062801E+04  0.15725062801E+04  0.25500000000E-02 0. -1.
         -2   -1    0    0    0  501 -0.00000000000E+00 -0.00000000000E+00 -0.38333479532E+03  0.38333479533E+03  0.25500000000E-02 0.  1.
    8880023    1    1    2    0    0  0.11336016444E+03  0.30807542527E+03  0.24672528408E+02  0.73632868643E+03  0.65864270000E+03 0.  1.
    8880022    1    1    2    0    0 -0.11336016444E+03 -0.30807542527E+03  0.11644989564E+04  0.12195123891E+04  0.15294330000E+03 0.  0.
<mgrwt>
<rscale>  0 0.61637209E+03</rscale>
<asrwt>0</asrwt>
<pdfrwt beam="1">  1        2 0.24192405E+00 0.73591521E+03</pdfrwt>
<pdfrwt beam="2">  1       -2 0.58974583E-01 0.73591521E+03</pdfrwt>
<totfact> 0.31844387E+01</totfact>
</mgrwt>
</event>
<event>
 4    2  0.3855935E-007  0.6637088E+03  0.7818608E-02  0.1020642E+00
          2   -1    0    0  501    0  0.00000000000E+00  0.00000000000E+00  0.55706758724E+03  0.55706758725E+03  0.25500000000E-02 0. -1.
         -2   -1    0    0    0  501 -0.00000000000E+00 -0.00000000000E+00 -0.38156163298E+03  0.38156163299E+03  0.25500000000E-02 0.  1.
    8880023    1    1    2    0    0  0.72164903780E+02  0.38619256205E+02 -0.36485457396E+02  0.66471092601E+03  0.65864270000E+03 0.  1.
    8880022    1    1    2    0    0 -0.72164903780E+02 -0.38619256205E+02  0.21199141165E+03  0.27391829424E+03  0.15294330000E+03 0.  1.
<mgrwt>
<rscale>  0 0.47455609E+03</rscale>
<asrwt>0</asrwt>
<pdfrwt beam="1">  1        2 0.85702705E-01 0.66370884E+03</pdfrwt>
<pdfrwt beam="2">  1       -2 0.58701790E-01 0.66370884E+03</pdfrwt>
<totfact> 0.14925765E+02</totfact>
</mgrwt>
</event>
<event>
 4    2  0.3855935E-007  0.1054999E+04  0.7818608E-02  0.9312896E-01
         -2   -1    0    0    0  501 -0.00000000000E+00  0.00000000000E+00  0.81634084454E+03  0.81634084455E+03  0.25500000000E-02 0.  1.
          2   -1    0    0  501    0  0.00000000000E+00 -0.00000000000E+00 -0.17733413980E+04  0.17733413980E+04  0.25500000000E-02 0. -1.
    8880023    1    1    2    0    0 -0.52169185994E+03 -0.63800440254E+03 -0.13084311508E+04  0.16807778845E+04  0.65864270000E+03 0.  0.
    8880022    1    1    2    0    0  0.52169185994E+03  0.63800440254E+03  0.35143059731E+03  0.90890435808E+03  0.15294330000E+03 0.  0.
<mgrwt>
<rscale>  0 0.99604220E+03</rscale>
<asrwt>0</asrwt>
<pdfrwt beam="1">  1        2 0.27282175E+00 0.10549987E+04</pdfrwt>
<pdfrwt beam="2">  1       -2 0.12559090E+00 0.10549987E+04</pdfrwt>
<totfact> 0.41865926E+00</totfact>
</mgrwt>
</event>
<event>
 4    2  0.3855935E-007  0.6866316E+03  0.7818608E-02  0.1005796E+00
          2   -1    0    0  501    0  0.00000000000E+00  0.00000000000E+00  0.17425493696E+04  0.17425493696E+04  0.25500000000E-02 0. -1.
         -2   -1    0    0    0  501 -0.00000000000E+00 -0.00000000000E+00 -0.21089152890E+03  0.21089152892E+03  0.25500000000E-02 0.  1.
    8880023    1    1    2    0    0 -0.56034210031E+02 -0.18577655262E+03  0.39898894791E+03  0.79413798991E+03  0.65864270000E+03 0.  1.
    8880022    1    1    2    0    0  0.56034210031E+02  0.18577655262E+03  0.11326688928E+04  0.11593029086E+04  0.15294330000E+03 0.  0.
<mgrwt>
<rscale>  0 0.53180031E+03</rscale>
<asrwt>0</asrwt>
<pdfrwt beam="1">  1        2 0.26808451E+00 0.68663161E+03</pdfrwt>
<pdfrwt beam="2">  1       -2 0.32444852E-01 0.68663161E+03</pdfrwt>
<totfact> 0.84601504E+01</totfact>
</mgrwt>
</event>
<event>
 4    2  0.3855935E-007  0.1051933E+04  0.7818608E-02  0.9316561E-01
         -2   -1    0    0    0  501 -0.00000000000E+00  0.00000000000E+00  0.88946961177E+03  0.88946961178E+03  0.25500000000E-02 0.  1.
          2   -1    0    0  501    0  0.00000000000E+00 -0.00000000000E+00 -0.13038534216E+04  0.13038534216E+04  0.25500000000E-02 0. -1.
    8880023    1    1    2    0    0 -0.36344484555E+03  0.73529692820E+03 -0.75217361820E+03  0.12931856350E+04  0.65864270000E+03 0.  0.
    8880022    1    1    2    0    0  0.36344484555E+03 -0.73529692820E+03  0.33778980834E+03  0.90013739841E+03  0.15294330000E+03 0.  0.
<mgrwt>
<rscale>  0 0.99272437E+03</rscale>
<asrwt>0</asrwt>
<pdfrwt beam="1">  1        2 0.20059284E+00 0.10519334E+04</pdfrwt>
<pdfrwt beam="2">  1       -2 0.13684148E+00 0.10519334E+04</pdfrwt>
<totfact> 0.61846360E+00</totfact>
</mgrwt>
</event>
<event>
 4    2  0.3855935E-007  0.1020191E+04  0.7818608E-02  0.9355606E-01
          2   -1    0    0  501    0  0.00000000000E+00  0.00000000000E+00  0.12816360344E+04  0.12816360344E+04  0.25500000000E-02 0. -1.
         -2   -1    0    0    0  501 -0.00000000000E+00 -0.00000000000E+00 -0.14653499910E+04  0.14653499910E+04  0.25500000000E-02 0.  1.
    8880023    1    1    2    0    0  0.75458288050E+03 -0.19386508971E+03 -0.11229260942E+04  0.15171526672E+04  0.65864270000E+03 0.  1.
    8880022    1    1    2    0    0 -0.75458288050E+03  0.19386508971E+03  0.93921213749E+03  0.12298333581E+04  0.15294330000E+03 0.  0.
<mgrwt>
<rscale>  0 0.95820965E+03</rscale>
<asrwt>0</asrwt>
<pdfrwt beam="1">  1        2 0.19717477E+00 0.10201908E+04</pdfrwt>
<pdfrwt beam="2">  1       -2 0.22543846E+00 0.10201908E+04</pdfrwt>
<totfact> 0.15348705E+00</totfact>
</mgrwt>
</event>
<event>
 4    2  0.3855935E-007  0.6775955E+03  0.7818608E-02  0.1010718E+00
         -2   -1    0    0    0  501 -0.00000000000E+00  0.00000000000E+00  0.68702303636E+03  0.68702303637E+03  0.25500000000E-02 0.  1.
          2   -1    0    0  501    0  0.00000000000E+00 -0.00000000000E+00 -0.67320049420E+03  0.67320049421E+03  0.25500000000E-02 0. -1.
    8880023    1    1    2    0    0 -0.95742443458E+02 -0.12711743782E+03  0.48944779515E+03  0.83587966175E+03  0.65864270000E+03 0.  1.
    8880022    1    1    2    0    0  0.95742443458E+02  0.12711743782E+03 -0.47562525299E+03  0.52434386883E+03  0.15294330000E+03 0.  0.
<mgrwt>
<rscale>  0 0.51190347E+03</rscale>
<asrwt>0</asrwt>
<pdfrwt beam="1">  1        2 0.10356931E+00 0.67759550E+03</pdfrwt>
<pdfrwt beam="2">  1       -2 0.10569585E+00 0.67759550E+03</pdfrwt>
<totfact> 0.31750334E+01</totfact>
</mgrwt>
</event>
<event>
 4    2  0.3855935E-007  0.1125009E+04  0.7818608E-02  0.9233709E-01
         -2   -1    0    0    0  501 -0.00000000000E+00  0.00000000000E+00  0.15570245408E+04  0.15570245408E+04  0.25500000000E-02 0.  1.
          2   -1    0    0  501    0  0.00000000000E+00 -0.00000000000E+00 -0.94358759940E+03  0.94358759940E+03  0.25500000000E-02 0. -1.
    8880023    1    1    2    0    0  0.82440213003E+03  0.39012432753E+03 -0.33710557922E+03  0.11744301770E+04  0.65864270000E+03 0. -1.
    8880022    1    1    2    0    0 -0.82440213003E+03 -0.39012432753E+03  0.95054252064E+03  0.13261819632E+04  0.15294330000E+03 0.  0.
<mgrwt>
<rscale>  0 0.10712166E+04</rscale>
<asrwt>0</asrwt>
<pdfrwt beam="1">  1        2 0.14516732E+00 0.11250094E+04</pdfrwt>
<pdfrwt beam="2">  1       -2 0.23954224E+00 0.11250094E+04</pdfrwt>
<totfact> 0.20069079E+00</totfact>
</mgrwt>
</event>
<event>
 4    2  0.3855935E-007  0.6818781E+03  0.7818608E-02  0.1008281E+00
         -2   -1    0    0    0  501 -0.00000000000E+00  0.00000000000E+00  0.11759292389E+03  0.11759292392E+03  0.25500000000E-02 0.  1.
          2   -1    0    0  501    0  0.00000000000E+00 -0.00000000000E+00 -0.21420875886E+04  0.21420875886E+04  0.25500000000E-02 0. -1.
    8880023    1    1    2    0    0 -0.16948689250E+03  0.49210979661E+02 -0.10098394647E+04  0.12184964005E+04  0.65864270000E+03 0.  1.
    8880022    1    1    2    0    0  0.16948689250E+03 -0.49210979661E+02 -0.10146552000E+04  0.10411841120E+04  0.15294330000E+03 0.  0.
<mgrwt>
<rscale>  0 0.52163729E+03</rscale>
<asrwt>0</asrwt>
<pdfrwt beam="1">  1        2 0.32955191E+00 0.68187809E+03</pdfrwt>
<pdfrwt beam="2">  1       -2 0.18091221E-01 0.68187809E+03</pdfrwt>
<totfact> 0.14648037E+02</totfact>
</mgrwt>
</event>
<event>
 4    2  0.3855935E-007  0.8321618E+03  0.7818608E-02  0.9645141E-01
         -2   -1    0    0    0  501 -0.00000000000E+00  0.00000000000E+00  0.35043599945E+03  0.35043599946E+03  0.25500000000E-02 0.  1.
          2   -1    0    0  501    0  0.00000000000E+00 -0.00000000000E+00 -0.22461671002E+04  0.22461671002E+04  0.25500000000E-02 0. -1.
    8880023    1    1    2    0    0 -0.50247639127E+03 -0.78743945665E+02 -0.25242720383E+03  0.86960498633E+03  0.65864270000E+03 0.  1.
    8880022    1    1    2    0    0  0.50247639127E+03  0.78743945665E+02 -0.16433038969E+04  0.17269981133E+04  0.15294330000E+03 0.  0.
<mgrwt>
<rscale>  0 0.74379180E+03</rscale>
<asrwt>0</asrwt>
<pdfrwt beam="1">  1        2 0.34556416E+00 0.83216185E+03</pdfrwt>
<pdfrwt beam="2">  1       -2 0.53913232E-01 0.83216185E+03</pdfrwt>
<totfact> 0.16206478E+01</totfact>
</mgrwt>
</event>
<event>
 4    2  0.3855935E-007  0.1182623E+04  0.7818608E-02  0.9174202E-01
         -2   -1    0    0    0  501 -0.00000000000E+00  0.00000000000E+00  0.10394755995E+04  0.10394755995E+04  0.25500000000E-02 0.  1.
          2   -1    0    0  501    0  0.00000000000E+00 -0.00000000000E+00 -0.16224291208E+04  0.16224291208E+04  0.25500000000E-02 0. -1.
    8880023    1    1    2    0    0 -0.26312554545E+03 -0.94633625154E+03  0.41500263264E+03  0.12533254745E+04  0.65864270000E+03 0.  1.
    8880022    1    1    2    0    0  0.26312554545E+03  0.94633625154E+03 -0.99795615394E+03  0.14085792459E+04  0.15294330000E+03 0.  0.
<mgrwt>
<rscale>  0 0.11323723E+04</rscale>
<asrwt>0</asrwt>
<pdfrwt beam="1">  1        2 0.24960448E+00 0.11826232E+04</pdfrwt>
<pdfrwt beam="2">  1       -2 0.15991932E+00 0.11826232E+04</pdfrwt>
<totfact> 0.26593196E+00</totfact>
</mgrwt>
</event>
<event>
 4    2  0.3855935E-007  0.7249426E+03  0.7818608E-02  0.9906204E-01
         -2   -1    0    0    0  501 -0.00000000000E+00  0.00000000000E+00  0.25531449887E+03  0.25531449888E+03  0.25500000000E-02 0.  1.
          2   -1    0    0  501    0  0.00000000000E+00 -0.00000000000E+00 -0.35882295360E+04  0.35882295360E+04  0.25500000000E-02 0. -1.
    8880023    1    1    2    0    0  0.16029159464E+03  0.25697884698E+03 -0.28843530075E+03  0.78021577278E+03  0.65864270000E+03 0.  0.
    8880022    1    1    2    0    0 -0.16029159464E+03 -0.25697884698E+03 -0.30444797364E+04  0.30633282621E+04  0.15294330000E+03 0.  0.
<mgrwt>
<rscale>  0 0.59961577E+03</rscale>
<asrwt>0</asrwt>
<pdfrwt beam="1">  1        2 0.55203528E+00 0.72494257E+03</pdfrwt>
<pdfrwt beam="2">  1       -2 0.39279156E-01 0.72494257E+03</pdfrwt>
<totfact> 0.47166659E+00</totfact>
</mgrwt>
</event>
<event>
 4    2  0.3855935E-007  0.7154009E+03  0.7818608E-02  0.9938467E-01
         -2   -1    0    0    0  501 -0.00000000000E+00  0.00000000000E+00  0.14766469756E+03  0.14766469758E+03  0.25500000000E-02 0.  1.
          2   -1    0    0  501    0  0.00000000000E+00 -0.00000000000E+00 -0.23741956249E+04  0.23741956249E+04  0.25500000000E-02 0. -1.
    8880023    1    1    2    0    0  0.22790593249E+03 -0.16139103615E+03 -0.85967560848E+03  0.11184098259E+04  0.65864270000E+03 0.  1.
    8880022    1    1    2    0    0 -0.22790593249E+03  0.16139103615E+03 -0.13668553189E+04  0.14034504966E+04  0.15294330000E+03 0.  0.
<mgrwt>
<rscale>  0 0.58432711E+03</rscale>
<asrwt>0</asrwt>
<pdfrwt beam="1">  1        2 0.36526084E+00 0.71540086E+03</pdfrwt>
<pdfrwt beam="2">  1       -2 0.22717647E-01 0.71540086E+03</pdfrwt>
<totfact> 0.72872519E+01</totfact>
</mgrwt>
</event>
<event>
 4    2  0.3855935E-007  0.9184569E+03  0.7818608E-02  0.9497029E-01
          2   -1    0    0  501    0  0.00000000000E+00  0.00000000000E+00  0.31141101741E+04  0.31141101741E+04  0.25500000000E-02 0. -1.
         -2   -1    0    0    0  501 -0.00000000000E+00 -0.00000000000E+00 -0.40036726381E+03  0.40036726382E+03  0.25500000000E-02 0.  1.
    8880023    1    1    2    0    0  0.58186243487E+03  0.26681253397E+03  0.23249097422E+03  0.94742550143E+03  0.65864270000E+03 0.  0.
    8880022    1    1    2    0    0 -0.58186243487E+03 -0.26681253397E+03  0.24812519361E+04  0.25670519365E+04  0.15294330000E+03 0.  0.
<mgrwt>
<rscale>  0 0.84503204E+03</rscale>
<asrwt>0</asrwt>
<pdfrwt beam="1">  1        2 0.47909386E+00 0.91845687E+03</pdfrwt>
<pdfrwt beam="2">  1       -2 0.61594965E-01 0.91845687E+03</pdfrwt>
<totfact> 0.37498950E+00</totfact>
</mgrwt>
</event>
<event>
 4    2  0.3855935E-007  0.6611855E+03  0.7818608E-02  0.1022973E+00
          2   -1    0    0  501    0  0.00000000000E+00  0.00000000000E+00  0.14114702413E+04  0.14114702413E+04  0.25500000000E-02 0. -1.
         -2   -1    0    0    0  501 -0.00000000000E+00 -0.00000000000E+00 -0.31260231731E+03  0.31260231732E+03  0.25500000000E-02 0.  1.
    8880023    1    1    2    0    0  0.36081135640E+02 -0.45323937855E+02  0.50595209886E+02  0.66311853331E+03  0.65864270000E+03 0.  1.
    8880022    1    1    2    0    0 -0.36081135640E+02  0.45323937855E+02  0.10482727141E+04  0.10609540254E+04  0.15294330000E+03 0.  0.
<mgrwt>
<rscale>  0 0.46628714E+03</rscale>
<asrwt>0</asrwt>
<pdfrwt beam="1">  1        2 0.21714927E+00 0.66118554E+03</pdfrwt>
<pdfrwt beam="2">  1       -2 0.48092664E-01 0.66118554E+03</pdfrwt>
<totfact> 0.60093622E+01</totfact>
</mgrwt>
</event>
<event>
 4    2  0.3855935E-007  0.9754505E+03  0.7818608E-02  0.9414405E-01
         -2   -1    0    0    0  501 -0.00000000000E+00  0.00000000000E+00  0.30281278376E+03  0.30281278377E+03  0.25500000000E-02 0.  1.
          2   -1    0    0  501    0  0.00000000000E+00 -0.00000000000E+00 -0.31564402242E+04  0.31564402242E+04  0.25500000000E-02 0. -1.
    8880023    1    1    2    0    0 -0.69502922470E+03 -0.18608542092E+03 -0.24107880585E+04  0.26006542785E+04  0.65864270000E+03 0.  0.
    8880022    1    1    2    0    0  0.69502922470E+03  0.18608542092E+03 -0.44283938200E+03  0.85859872952E+03  0.15294330000E+03 0.  0.
<mgrwt>
<rscale>  0 0.90899629E+03</rscale>
<asrwt>0</asrwt>
<pdfrwt beam="1">  1        2 0.48560617E+00 0.97545047E+03</pdfrwt>
<pdfrwt beam="2">  1       -2 0.46586584E-01 0.97545047E+03</pdfrwt>
<totfact> 0.62328383E+00</totfact>
</mgrwt>
</event>
<event>
 4    2  0.3855935E-007  0.6678175E+03  0.7818608E-02  0.1017278E+00
         -2   -1    0    0    0  501 -0.00000000000E+00  0.00000000000E+00  0.70305294829E+02  0.70305294875E+02  0.25500000000E-02 0.  1.
          2   -1    0    0  501    0  0.00000000000E+00 -0.00000000000E+00 -0.30700306374E+04  0.30700306374E+04  0.25500000000E-02 0. -1.
    8880023    1    1    2    0    0  0.93649984693E+02 -0.58307328506E+02 -0.16909792375E+04  0.18180734452E+04  0.65864270000E+03 0.  1.
    8880022    1    1    2    0    0 -0.93649984693E+02  0.58307328506E+02 -0.13087461051E+04  0.13222624871E+04  0.15294330000E+03 0.  0.
<mgrwt>
<rscale>  0 0.48681753E+03</rscale>
<asrwt>0</asrwt>
<pdfrwt beam="1">  1        2 0.47231230E+00 0.66781754E+03</pdfrwt>
<pdfrwt beam="2">  1       -2 0.10816202E-01 0.66781754E+03</pdfrwt>
<totfact> 0.10158069E+02</totfact>
</mgrwt>
</event>
<event>
 4    2  0.3855935E-007  0.9295334E+03  0.7818608E-02  0.9480194E-01
          2   -1    0    0  501    0  0.00000000000E+00  0.00000000000E+00  0.19169585586E+04  0.19169585586E+04  0.25500000000E-02 0. -1.
         -2   -1    0    0    0  501 -0.00000000000E+00 -0.00000000000E+00 -0.52395607595E+03  0.52395607596E+03  0.25500000000E-02 0.  1.
    8880023    1    1    2    0    0  0.59608853698E+03 -0.27367970182E+03  0.40993123648E+02  0.93043686812E+03  0.65864270000E+03 0.  0.
    8880022    1    1    2    0    0 -0.59608853698E+03  0.27367970182E+03  0.13520093590E+04  0.15104777665E+04  0.15294330000E+03 0.  0.
<mgrwt>
<rscale>  0 0.85759951E+03</rscale>
<asrwt>0</asrwt>
<pdfrwt beam="1">  1        2 0.29491670E+00 0.92953339E+03</pdfrwt>
<pdfrwt beam="2">  1       -2 0.80608628E-01 0.92953339E+03</pdfrwt>
<totfact> 0.10189553E+01</totfact>
</mgrwt>
</event>
<event>
 4    2  0.3855935E-007  0.7778007E+03  0.7818608E-02  0.9761029E-01
         -2   -1    0    0    0  501 -0.00000000000E+00  0.00000000000E+00  0.33641509737E+03  0.33641509738E+03  0.25500000000E-02 0.  1.
          2   -1    0    0  501    0  0.00000000000E+00 -0.00000000000E+00 -0.20566612280E+04  0.20566612281E+04  0.25500000000E-02 0. -1.
    8880023    1    1    2    0    0  0.41226376789E+03 -0.34675027554E+02 -0.19019693852E+03  0.80071771152E+03  0.65864270000E+03 0.  0.
    8880022    1    1    2    0    0 -0.41226376789E+03  0.34675027554E+02 -0.15300491922E+04  0.15923586139E+04  0.15294330000E+03 0. -1.
<mgrwt>
<rscale>  0 0.67496566E+03</rscale>
<asrwt>0</asrwt>
<pdfrwt beam="1">  1        2 0.31640941E+00 0.77780073E+03</pdfrwt>
<pdfrwt beam="2">  1       -2 0.51756170E-01 0.77780073E+03</pdfrwt>
<totfact> 0.22582891E+01</totfact>
</mgrwt>
</event>
<event>
 4    2  0.3855935E-007  0.8550391E+03  0.7818608E-02  0.9602450E-01
          2   -1    0    0  501    0  0.00000000000E+00  0.00000000000E+00  0.15873002327E+04  0.15873002327E+04  0.25500000000E-02 0. -1.
         -2   -1    0    0    0  501 -0.00000000000E+00 -0.00000000000E+00 -0.47349012312E+03  0.47349012313E+03  0.25500000000E-02 0.  1.
    8880023    1    1    2    0    0  0.53983130432E+03  0.76575465776E+02  0.51032689274E+02  0.85656066961E+03  0.65864270000E+03 0.  1.
    8880022    1    1    2    0    0 -0.53983130432E+03 -0.76575465776E+02  0.10627774203E+04  0.12042296863E+04  0.15294330000E+03 0.  0.
<mgrwt>
<rscale>  0 0.77134262E+03</rscale>
<asrwt>0</asrwt>
<pdfrwt beam="1">  1        2 0.24420003E+00 0.85503909E+03</pdfrwt>
<pdfrwt beam="2">  1       -2 0.72844635E-01 0.85503909E+03</pdfrwt>
<totfact> 0.19559512E+01</totfact>
</mgrwt>
</event>
<event>
 4    2  0.3855935E-007  0.1214265E+04  0.7818608E-02  0.9143379E-01
         -2   -1    0    0    0  501 -0.00000000000E+00  0.00000000000E+00  0.18651476877E+04  0.18651476877E+04  0.25500000000E-02 0.  1.
          2   -1    0    0  501    0  0.00000000000E+00 -0.00000000000E+00 -0.78686615056E+03  0.78686615056E+03  0.25500000000E-02 0. -1.
    8880023    1    1    2    0    0 -0.98519789651E+03  0.26460006758E+03  0.80567583441E+02  0.12169344406E+04  0.65864270000E+03 0. -1.
    8880022    1    1    2    0    0  0.98519789651E+03 -0.26460006758E+03  0.99771395370E+03  0.14350793976E+04  0.15294330000E+03 0.  1.
<mgrwt>
<rscale>  0 0.11657453E+04</rscale>
<asrwt>0</asrwt>
<pdfrwt beam="1">  1        2 0.12105633E+00 0.12142645E+04</pdfrwt>
<pdfrwt beam="2">  1       -2 0.28694580E+00 0.12142645E+04</pdfrwt>
<totfact> 0.13155859E+00</totfact>
</mgrwt>
</event>
<event>
 4    2  0.3855935E-007  0.6964573E+03  0.7818608E-02  0.1001223E+00
         -2   -1    0    0    0  501 -0.00000000000E+00  0.00000000000E+00  0.26734076120E+04  0.26734076120E+04  0.25500000000E-02 0.  1.
          2   -1    0    0  501    0  0.00000000000E+00 -0.00000000000E+00 -0.28394540068E+03  0.28394540069E+03  0.25500000000E-02 0. -1.
    8880023    1    1    2    0    0 -0.54698295074E+02  0.21966037775E+03  0.25480155886E+04  0.26414837178E+04  0.65864270000E+03 0.  1.
    8880022    1    1    2    0    0  0.54698295074E+02 -0.21966037775E+03 -0.15855337728E+03  0.31586929496E+03  0.15294330000E+03 0.  0.
<mgrwt>
<rscale>  0 0.55117326E+03</rscale>
<asrwt>0</asrwt>
<pdfrwt beam="1">  1        2 0.43683909E-01 0.69645731E+03</pdfrwt>
<pdfrwt beam="2">  1       -2 0.41129347E+00 0.69645731E+03</pdfrwt>
<totfact> 0.78425728E-01</totfact>
</mgrwt>
</event>
<event>
 4    2  0.3855935E-007  0.7038662E+03  0.7818608E-02  0.9981525E-01
          2   -1    0    0  501    0  0.00000000000E+00  0.00000000000E+00  0.14846238646E+04  0.14846238646E+04  0.25500000000E-02 0. -1.
         -2   -1    0    0    0  501 -0.00000000000E+00 -0.00000000000E+00 -0.22343966289E+03  0.22343966291E+03  0.25500000000E-02 0.  1.
    8880023    1    1    2    0    0  0.73830496048E+02  0.23699464545E+03  0.42434231710E+03  0.82188442768E+03  0.65864270000E+03 0.  0.
    8880022    1    1    2    0    0 -0.73830496048E+02 -0.23699464545E+03  0.83684188458E+03  0.88617909980E+03  0.15294330000E+03 0.  0.
<mgrwt>
<rscale>  0 0.56467782E+03</rscale>
<asrwt>0</asrwt>
<pdfrwt beam="1">  1        2 0.22840368E+00 0.70386619E+03</pdfrwt>
<pdfrwt beam="2">  1       -2 0.34375331E-01 0.70386619E+03</pdfrwt>
<totfact> 0.10495598E+02</totfact>
</mgrwt>
</event>
<event>
 4    2  0.3855935E-007  0.7040674E+03  0.7818608E-02  0.9980729E-01
         -2   -1    0    0    0  501 -0.00000000000E+00  0.00000000000E+00  0.23029490996E+03  0.23029490998E+03  0.25500000000E-02 0.  1.
          2   -1    0    0  501    0  0.00000000000E+00 -0.00000000000E+00 -0.17295147106E+04  0.17295147106E+04  0.25500000000E-02 0. -1.
    8880023    1    1    2    0    0  0.95933990960E+02 -0.22955910674E+03 -0.37385947029E+03  0.79717113840E+03  0.65864270000E+03 0.  1.
    8880022    1    1    2    0    0 -0.95933990960E+02  0.22955910674E+03 -0.11253603304E+04  0.11626384822E+04  0.15294330000E+03 0.  1.
<mgrwt>
<rscale>  0 0.56503383E+03</rscale>
<asrwt>0</asrwt>
<pdfrwt beam="1">  1        2 0.26607918E+00 0.70406741E+03</pdfrwt>
<pdfrwt beam="2">  1       -2 0.35429987E-01 0.70406741E+03</pdfrwt>
<totfact> 0.72664275E+01</totfact>
</mgrwt>
</event>
<event>
 4    2  0.3855935E-007  0.8979663E+03  0.7818608E-02  0.9529304E-01
         -2   -1    0    0    0  501 -0.00000000000E+00  0.00000000000E+00  0.35524046030E+03  0.35524046031E+03  0.25500000000E-02 0.  1.
          2   -1    0    0  501    0  0.00000000000E+00 -0.00000000000E+00 -0.24340015143E+04  0.24340015143E+04  0.25500000000E-02 0. -1.
    8880023    1    1    2    0    0 -0.43361052171E+03 -0.42955222731E+03 -0.37521846259E+03  0.97320722431E+03  0.65864270000E+03 0.  1.
    8880022    1    1    2    0    0  0.43361052171E+03  0.42955222731E+03 -0.17035425914E+04  0.18160347503E+04  0.15294330000E+03 0.  0.
<mgrwt>
<rscale>  0 0.82157386E+03</rscale>
<asrwt>0</asrwt>
<pdfrwt beam="1">  1        2 0.37446176E+00 0.89796626E+03</pdfrwt>
<pdfrwt beam="2">  1       -2 0.54652380E-01 0.89796626E+03</pdfrwt>
<totfact> 0.12257443E+01</totfact>
</mgrwt>
</event>
<event>
 4    2  0.3855935E-007  0.1476860E+04  0.7818608E-02  0.8926151E-01
         -2   -1    0    0    0  501 -0.00000000000E+00  0.00000000000E+00  0.13128639090E+04  0.13128639090E+04  0.25500000000E-02 0.  1.
          2   -1    0    0  501    0  0.00000000000E+00 -0.00000000000E+00 -0.21337519101E+04  0.21337519101E+04  0.25500000000E-02 0. -1.
    8880023    1    1    2    0    0  0.40488084860E+03 -0.12583233313E+04  0.51209469997E+03  0.15631242099E+04  0.65864270000E+03 0.  0.
    8880022    1    1    2    0    0 -0.40488084860E+03  0.12583233313E+04 -0.13329827010E+04  0.18834916092E+04  0.15294330000E+03 0.  0.
<mgrwt>
<rscale>  0 0.14388735E+04</rscale>
<asrwt>0</asrwt>
<pdfrwt beam="1">  1        2 0.32826953E+00 0.14768603E+04</pdfrwt>
<pdfrwt beam="2">  1       -2 0.20197906E+00 0.14768603E+04</pdfrwt>
<totfact> 0.68359009E-01</totfact>
</mgrwt>
</event>
<event>
 4    2  0.3855935E-007  0.6592268E+03  0.7818608E-02  0.1024963E+00
         -2   -1    0    0    0  501 -0.00000000000E+00  0.00000000000E+00  0.38513480105E+03  0.38513480105E+03  0.25500000000E-02 0.  1.
          2   -1    0    0  501    0  0.00000000000E+00 -0.00000000000E+00 -0.43334665685E+03  0.43334665686E+03  0.25500000000E-02 0. -1.
    8880023    1    1    2    0    0 -0.25170137938E+02  0.11672237189E+02 -0.14279828007E+02  0.65938145008E+03  0.65864270000E+03 0.  1.
    8880022    1    1    2    0    0  0.25170137938E+02 -0.11672237189E+02 -0.33932027794E+02  0.15910000783E+03  0.15294330000E+03 0. -1.
<mgrwt>
<rscale>  0 0.45937407E+03</rscale>
<asrwt>0</asrwt>
<pdfrwt beam="1">  1        2 0.66668716E-01 0.65922681E+03</pdfrwt>
<pdfrwt beam="2">  1       -2 0.59251508E-01 0.65922681E+03</pdfrwt>
<totfact> 0.19565613E+02</totfact>
</mgrwt>
</event>
<event>
 4    2  0.3855935E-007  0.7555670E+03  0.7818608E-02  0.9816722E-01
         -2   -1    0    0    0  501 -0.00000000000E+00  0.00000000000E+00  0.28905888251E+03  0.28905888252E+03  0.25500000000E-02 0.  1.
          2   -1    0    0  501    0  0.00000000000E+00 -0.00000000000E+00 -0.20530185093E+04  0.20530185093E+04  0.25500000000E-02 0. -1.
    8880023    1    1    2    0    0 -0.12314805464E+03  0.34915023371E+03 -0.28125973233E+03  0.80621868768E+03  0.65864270000E+03 0.  1.
    8880022    1    1    2    0    0  0.12314805464E+03 -0.34915023371E+03 -0.14826998944E+04  0.15358587041E+04  0.15294330000E+03 0.  0.
<mgrwt>
<rscale>  0 0.64472811E+03</rscale>
<asrwt>0</asrwt>
<pdfrwt beam="1">  1        2 0.31584899E+00 0.75556703E+03</pdfrwt>
<pdfrwt beam="2">  1       -2 0.44470599E-01 0.75556703E+03</pdfrwt>
<totfact> 0.30911480E+01</totfact>
</mgrwt>
</event>
<event>
 4    2  0.3855935E-007  0.1057422E+04  0.7818608E-02  0.9310012E-01
         -2   -1    0    0    0  501 -0.00000000000E+00  0.00000000000E+00  0.61534742204E+03  0.61534742204E+03  0.25500000000E-02 0.  1.
          2   -1    0    0  501    0  0.00000000000E+00 -0.00000000000E+00 -0.16559843783E+04  0.16559843783E+04  0.25500000000E-02 0. -1.
    8880023    1    1    2    0    0 -0.78759823870E+03  0.25302016264E+03 -0.18887014348E+03  0.10741565648E+04  0.65864270000E+03 0.  1.
    8880022    1    1    2    0    0  0.78759823870E+03 -0.25302016264E+03 -0.85176681280E+03  0.11971752356E+04  0.15294330000E+03 0.  0.
<mgrwt>
<rscale>  0 0.99866298E+03</rscale>
<asrwt>0</asrwt>
<pdfrwt beam="1">  1        2 0.25476683E+00 0.10574216E+04</pdfrwt>
<pdfrwt beam="2">  1       -2 0.94668835E-01 0.10574216E+04</pdfrwt>
<totfact> 0.96657760E+00</totfact>
</mgrwt>
</event>
<event>
 4    2  0.3855935E-007  0.6958810E+03  0.7818608E-02  0.1001474E+00
         -2   -1    0    0    0  501 -0.00000000000E+00  0.00000000000E+00  0.55016979558E+03  0.55016979559E+03  0.25500000000E-02 0.  1.
          2   -1    0    0  501    0  0.00000000000E+00 -0.00000000000E+00 -0.89929249216E+03  0.89929249217E+03  0.25500000000E-02 0. -1.
    8880023    1    1    2    0    0 -0.22486009241E+02 -0.22346039765E+03  0.29083259103E+03  0.75421082742E+03  0.65864270000E+03 0.  1.
    8880022    1    1    2    0    0  0.22486009241E+02  0.22346039765E+03 -0.63995528761E+03  0.69525146033E+03  0.15294330000E+03 0.  0.
<mgrwt>
<rscale>  0 0.55008739E+03</rscale>
<asrwt>0</asrwt>
<pdfrwt beam="1">  1        2 0.13835269E+00 0.69588101E+03</pdfrwt>
<pdfrwt beam="2">  1       -2 0.84641507E-01 0.69588101E+03</pdfrwt>
<totfact> 0.36424672E+01</totfact>
</mgrwt>
</event>
<event>
 4    2  0.3855935E-007  0.8119017E+03  0.7818608E-02  0.9685629E-01
         -2   -1    0    0    0  501 -0.00000000000E+00  0.00000000000E+00  0.80314454294E+03  0.80314454295E+03  0.25500000000E-02 0.  1.
          2   -1    0    0  501    0  0.00000000000E+00 -0.00000000000E+00 -0.97312638739E+03  0.97312638739E+03  0.25500000000E-02 0. -1.
    8880023    1    1    2    0    0  0.27798298124E+03 -0.38483711235E+03  0.49054404427E+03  0.94858726880E+03  0.65864270000E+03 0.  0.
    8880022    1    1    2    0    0 -0.27798298124E+03  0.38483711235E+03 -0.66052588872E+03  0.82768366154E+03  0.15294330000E+03 0.  0.
<mgrwt>
<rscale>  0 0.71878899E+03</rscale>
<asrwt>0</asrwt>
<pdfrwt beam="1">  1        2 0.14971175E+00 0.81190169E+03</pdfrwt>
<pdfrwt beam="2">  1       -2 0.12356070E+00 0.81190169E+03</pdfrwt>
<totfact> 0.13070766E+01</totfact>
</mgrwt>
</event>
<event>
 4    2  0.3855935E-007  0.1662716E+04  0.7818608E-02  0.8802538E-01
          2   -1    0    0  501    0  0.00000000000E+00  0.00000000000E+00  0.10317204587E+04  0.10317204587E+04  0.25500000000E-02 0. -1.
         -2   -1    0    0    0  501 -0.00000000000E+00 -0.00000000000E+00 -0.30341121572E+04  0.30341121572E+04  0.25500000000E-02 0.  1.
    8880023    1    1    2    0    0  0.13220542068E+04  0.76353578977E+03 -0.19047622048E+04  0.25283875279E+04  0.65864270000E+03 0.  1.
    8880022    1    1    2    0    0 -0.13220542068E+04 -0.76353578977E+03 -0.97629493700E+02  0.15374450881E+04  0.15294330000E+03 0.  0.
<mgrwt>
<rscale>  0 0.16296491E+04</rscale>
<asrwt>0</asrwt>
<pdfrwt beam="1">  1        2 0.15872623E+00 0.16627160E+04</pdfrwt>
<pdfrwt beam="2">  1       -2 0.46678648E+00 0.16627160E+04</pdfrwt>
<totfact> 0.60079671E-02</totfact>
</mgrwt>
</event>
<event>
 4    2  0.3855935E-007  0.8128066E+03  0.7818608E-02  0.9683760E-01
          2   -1    0    0  501    0  0.00000000000E+00  0.00000000000E+00  0.13394690383E+04  0.13394690383E+04  0.25500000000E-02 0. -1.
         -2   -1    0    0    0  501 -0.00000000000E+00 -0.00000000000E+00 -0.12107520859E+04  0.12107520859E+04  0.25500000000E-02 0.  1.
    8880023    1    1    2    0    0  0.88512622423E+02 -0.46798495496E+03 -0.10159158521E+04  0.13010532761E+04  0.65864270000E+03 0.  0.
    8880022    1    1    2    0    0 -0.88512622423E+02  0.46798495496E+03  0.11446328045E+04  0.12491678480E+04  0.15294330000E+03 0.  0.
<mgrwt>
<rscale>  0 0.71991987E+03</rscale>
<asrwt>0</asrwt>
<pdfrwt beam="1">  1        2 0.20607216E+00 0.81280662E+03</pdfrwt>
<pdfrwt beam="2">  1       -2 0.18626955E+00 0.81280662E+03</pdfrwt>
<totfact> 0.26202519E+00</totfact>
</mgrwt>
</event>
<event>
 4    2  0.3855935E-007  0.1378952E+04  0.7818608E-02  0.9000213E-01
          2   -1    0    0  501    0  0.00000000000E+00  0.00000000000E+00  0.18637572705E+04  0.18637572705E+04  0.25500000000E-02 0. -1.
         -2   -1    0    0    0  501 -0.00000000000E+00 -0.00000000000E+00 -0.11953472735E+04  0.11953472735E+04  0.25500000000E-02 0.  1.
    8880023    1    1    2    0    0 -0.20528792175E+03  0.11939662045E+04 -0.40083548882E+03  0.14360284551E+04  0.65864270000E+03 0.  1.
    8880022    1    1    2    0    0  0.20528792175E+03 -0.11939662045E+04  0.10692454858E+04  0.16230760889E+04  0.15294330000E+03 0.  0.
<mgrwt>
<rscale>  0 0.13376727E+04</rscale>
<asrwt>0</asrwt>
<pdfrwt beam="1">  1        2 0.28673189E+00 0.13789520E+04</pdfrwt>
<pdfrwt beam="2">  1       -2 0.18389958E+00 0.13789520E+04</pdfrwt>
<totfact> 0.12911195E+00</totfact>
</mgrwt>
</event>
<event>
 4    2  0.3855935E-007  0.7093640E+03  0.7818608E-02  0.9960370E-01
          2   -1    0    0  501    0  0.00000000000E+00  0.00000000000E+00  0.28226584667E+04  0.28226584667E+04  0.25500000000E-02 0. -1.
         -2   -1    0    0    0  501 -0.00000000000E+00 -0.00000000000E+00 -0.12281820888E+03  0.12281820891E+03  0.25500000000E-02 0.  1.
    8880023    1    1    2    0    0 -0.12452368457E+02 -0.26311975775E+03  0.10461780921E+04  0.12639959949E+04  0.65864270000E+03 0.  1.
    8880022    1    1    2    0    0  0.12452368457E+02  0.26311975775E+03  0.16536621657E+04  0.16814806807E+04  0.15294330000E+03 0.  0.
<mgrwt>
<rscale>  0 0.57422607E+03</rscale>
<asrwt>0</asrwt>
<pdfrwt beam="1">  1        2 0.43425510E+00 0.70936399E+03</pdfrwt>
<pdfrwt beam="2">  1       -2 0.18895111E-01 0.70936399E+03</pdfrwt>
<totfact> 0.55738948E+01</totfact>
</mgrwt>
</event>
<event>
 4    2  0.3855935E-007  0.8409697E+03  0.7818608E-02  0.9628354E-01
          2   -1    0    0  501    0  0.00000000000E+00  0.00000000000E+00  0.22258004924E+04  0.22258004924E+04  0.25500000000E-02 0. -1.
         -2   -1    0    0    0  501 -0.00000000000E+00 -0.00000000000E+00 -0.62363732967E+03  0.62363732968E+03  0.25500000000E-02 0.  1.
    8880023    1    1    2    0    0 -0.48396718398E+03 -0.19797888106E+03 -0.28285936955E+03  0.88726518117E+03  0.65864270000E+03 0.  0.
    8880022    1    1    2    0    0  0.48396718398E+03  0.19797888106E+03  0.18850225323E+04  0.19621726409E+04  0.15294330000E+03 0.  0.
<mgrwt>
<rscale>  0 0.75447589E+03</rscale>
<asrwt>0</asrwt>
<pdfrwt beam="1">  1        2 0.34243084E+00 0.84096973E+03</pdfrwt>
<pdfrwt beam="2">  1       -2 0.95944205E-01 0.84096973E+03</pdfrwt>
<totfact> 0.46689863E+00</totfact>
</mgrwt>
</event>
<event>
 4    2  0.3855935E-007  0.8457633E+03  0.7818608E-02  0.9619407E-01
          2   -1    0    0  501    0  0.00000000000E+00  0.00000000000E+00  0.12918569686E+04  0.12918569686E+04  0.25500000000E-02 0. -1.
         -2   -1    0    0    0  501 -0.00000000000E+00 -0.00000000000E+00 -0.50887191300E+03  0.50887191301E+03  0.25500000000E-02 0.  1.
    8880023    1    1    2    0    0  0.42739315416E+03 -0.31438890429E+03  0.38537322296E+01  0.84577204309E+03  0.65864270000E+03 0.  1.
    8880022    1    1    2    0    0 -0.42739315416E+03  0.31438890429E+03  0.77913132337E+03  0.95495683852E+03  0.15294330000E+03 0.  0.
<mgrwt>
<rscale>  0 0.76024881E+03</rscale>
<asrwt>0</asrwt>
<pdfrwt beam="1">  1        2 0.19874722E+00 0.84576326E+03</pdfrwt>
<pdfrwt beam="2">  1       -2 0.78287987E-01 0.84576326E+03</pdfrwt>
<totfact> 0.24498220E+01</totfact>
</mgrwt>
</event>
<event>
 4    2  0.3855935E-007  0.7033252E+03  0.7818608E-02  0.9983677E-01
         -2   -1    0    0    0  501 -0.00000000000E+00  0.00000000000E+00  0.32630213237E+03  0.32630213238E+03  0.25500000000E-02 0.  1.
          2   -1    0    0  501    0  0.00000000000E+00 -0.00000000000E+00 -0.11889016142E+04  0.11889016142E+04  0.25500000000E-02 0. -1.
    8880023    1    1    2    0    0 -0.54061045976E+02 -0.24069383175E+03 -0.97648405125E+03  0.12034065921E+04  0.65864270000E+03 0. -1.
    8880022    1    1    2    0    0  0.54061045976E+02  0.24069383175E+03  0.11388456945E+03  0.31179715443E+03  0.15294330000E+03 0.  0.
<mgrwt>
<rscale>  0 0.56371804E+03</rscale>
<asrwt>0</asrwt>
<pdfrwt beam="1">  1        2 0.18290794E+00 0.70332519E+03</pdfrwt>
<pdfrwt beam="2">  1       -2 0.50200329E-01 0.70332519E+03</pdfrwt>
<totfact> 0.73678328E+01</totfact>
</mgrwt>
</event>
<event>
 4    2  0.3855935E-007  0.6703977E+03  0.7818608E-02  0.1015379E+00
          2   -1    0    0  501    0  0.00000000000E+00  0.00000000000E+00  0.15751841630E+04  0.15751841630E+04  0.25500000000E-02 0. -1.
         -2   -1    0    0    0  501 -0.00000000000E+00 -0.00000000000E+00 -0.16502902609E+03  0.16502902611E+03  0.25500000000E-02 0.  1.
    8880023    1    1    2    0    0 -0.10294964909E+03  0.70881956227E+02  0.57871193054E+03  0.88563005075E+03  0.65864270000E+03 0.  1.
    8880022    1    1    2    0    0  0.10294964909E+03 -0.70881956227E+02  0.83144320640E+03  0.85458313841E+03  0.15294330000E+03 0.  0.
<mgrwt>
<rscale>  0 0.49391555E+03</rscale>
<asrwt>0</asrwt>
<pdfrwt beam="1">  1        2 0.24233601E+00 0.67039771E+03</pdfrwt>
<pdfrwt beam="2">  1       -2 0.25389082E-01 0.67039771E+03</pdfrwt>
<totfact> 0.16430522E+02</totfact>
</mgrwt>
</event>
<event>
 4    2  0.3855935E-007  0.8556828E+03  0.7818608E-02  0.9601290E-01
          2   -1    0    0  501    0  0.00000000000E+00  0.00000000000E+00  0.14197592978E+04  0.14197592978E+04  0.25500000000E-02 0. -1.
         -2   -1    0    0    0  501 -0.00000000000E+00 -0.00000000000E+00 -0.71123458143E+03  0.71123458144E+03  0.25500000000E-02 0.  1.
    8880023    1    1    2    0    0  0.54273228148E+03  0.61842773861E+02 -0.35440495187E+03  0.92617273455E+03  0.65864270000E+03 0.  0.
    8880022    1    1    2    0    0 -0.54273228148E+03 -0.61842773861E+02  0.10629296682E+04  0.12048211447E+04  0.15294330000E+03 0.  0.
<mgrwt>
<rscale>  0 0.77210890E+03</rscale>
<asrwt>0</asrwt>
<pdfrwt beam="1">  1        2 0.21842450E+00 0.85568281E+03</pdfrwt>
<pdfrwt beam="2">  1       -2 0.10942071E+00 0.85568281E+03</pdfrwt>
<totfact> 0.94747827E+00</totfact>
</mgrwt>
</event>
<event>
 4    2  0.3855935E-007  0.7361023E+03  0.7818608E-02  0.9871450E-01
          2   -1    0    0  501    0  0.00000000000E+00  0.00000000000E+00  0.11809232675E+04  0.11809232675E+04  0.25500000000E-02 0. -1.
         -2   -1    0    0    0  501 -0.00000000000E+00 -0.00000000000E+00 -0.26678665462E+03  0.26678665464E+03  0.25500000000E-02 0.  1.
    8880023    1    1    2    0    0  0.25792414700E+03  0.20374373830E+03  0.46564088876E+03  0.87101551079E+03  0.65864270000E+03 0.  0.
    8880022    1    1    2    0    0 -0.25792414700E+03 -0.20374373830E+03  0.44849572409E+03  0.57669441132E+03  0.15294330000E+03 0.  0.
<mgrwt>
<rscale>  0 0.61665126E+03</rscale>
<asrwt>0</asrwt>
<pdfrwt beam="1">  1        2 0.18168051E+00 0.73610229E+03</pdfrwt>
<pdfrwt beam="2">  1       -2 0.41044100E-01 0.73610229E+03</pdfrwt>
<totfact> 0.11103443E+02</totfact>
</mgrwt>
</event>
<event>
 4    2  0.3855935E-007  0.8341496E+03  0.7818608E-02  0.9641312E-01
         -2   -1    0    0    0  501 -0.00000000000E+00  0.00000000000E+00  0.84749368768E+03  0.84749368769E+03  0.25500000000E-02 0.  1.
          2   -1    0    0  501    0  0.00000000000E+00 -0.00000000000E+00 -0.83531318414E+03  0.83531318415E+03  0.25500000000E-02 0. -1.
    8880023    1    1    2    0    0  0.36826916636E+03 -0.35549012991E+03  0.48885442710E+03  0.96684242176E+03  0.65864270000E+03 0.  0.
    8880022    1    1    2    0    0 -0.36826916636E+03  0.35549012991E+03 -0.47667392356E+03  0.71596445007E+03  0.15294330000E+03 0.  0.
<mgrwt>
<rscale>  0 0.74621205E+03</rscale>
<asrwt>0</asrwt>
<pdfrwt beam="1">  1        2 0.12850972E+00 0.83414964E+03</pdfrwt>
<pdfrwt beam="2">  1       -2 0.13038364E+00 0.83414964E+03</pdfrwt>
<totfact> 0.14106847E+01</totfact>
</mgrwt>
</event>
<event>
 4    2  0.3855935E-007  0.7756307E+03  0.7818608E-02  0.9766202E-01
          2   -1    0    0  501    0  0.00000000000E+00  0.00000000000E+00  0.11569366587E+04  0.11569366587E+04  0.25500000000E-02 0. -1.
         -2   -1    0    0    0  501 -0.00000000000E+00 -0.00000000000E+00 -0.57196628079E+03  0.57196628080E+03  0.25500000000E-02 0.  1.
    8880023    1    1    2    0    0 -0.15243892201E+03  0.38020404582E+03 -0.22572659378E+03  0.80780903858E+03  0.65864270000E+03 0.  1.
    8880022    1    1    2    0    0  0.15243892201E+03 -0.38020404582E+03  0.81069697167E+03  0.92109390091E+03  0.15294330000E+03 0.  0.
<mgrwt>
<rscale>  0 0.67208281E+03</rscale>
<asrwt>0</asrwt>
<pdfrwt beam="1">  1        2 0.17799025E+00 0.77563068E+03</pdfrwt>
<pdfrwt beam="2">  1       -2 0.87994814E-01 0.77563068E+03</pdfrwt>
<totfact> 0.22730558E+01</totfact>
</mgrwt>
</event>
<event>
 4    2  0.3855935E-007  0.7705957E+03  0.7818608E-02  0.9778410E-01
         -2   -1    0    0    0  501 -0.00000000000E+00  0.00000000000E+00  0.78645737653E+03  0.78645737653E+03  0.25500000000E-02 0.  1.
          2   -1    0    0  501    0  0.00000000000E+00 -0.00000000000E+00 -0.84566294086E+03  0.84566294087E+03  0.25500000000E-02 0. -1.
    8880023    1    1    2    0    0  0.39238028522E+03  0.77750848705E+02  0.50683292012E+03  0.92233253108E+03  0.65864270000E+03 0.  0.
    8880022    1    1    2    0    0 -0.39238028522E+03 -0.77750848705E+02 -0.56603848446E+03  0.70978778632E+03  0.15294330000E+03 0.  0.
<mgrwt>
<rscale>  0 0.66534146E+03</rscale>
<asrwt>0</asrwt>
<pdfrwt beam="1">  1        2 0.13010199E+00 0.77059567E+03</pdfrwt>
<pdfrwt beam="2">  1       -2 0.12099344E+00 0.77059567E+03</pdfrwt>
<totfact> 0.16843805E+01</totfact>
</mgrwt>
</event>
<event>
 4    2  0.3855935E-007  0.9326471E+03  0.7818608E-02  0.9475533E-01
         -2   -1    0    0    0  501 -0.00000000000E+00  0.00000000000E+00  0.32339071439E+03  0.32339071440E+03  0.25500000000E-02 0.  1.
          2   -1    0    0  501    0  0.00000000000E+00 -0.00000000000E+00 -0.37606854469E+04  0.37606854469E+04  0.25500000000E-02 0. -1.
    8880023    1    1    2    0    0  0.12430146200E+03 -0.64851340053E+03 -0.47771744255E+03  0.10478762548E+04  0.65864270000E+03 0.  0.
    8880022    1    1    2    0    0 -0.12430146200E+03  0.64851340053E+03 -0.29595772900E+04  0.30361999066E+04  0.15294330000E+03 0.  0.
<mgrwt>
<rscale>  0 0.86111932E+03</rscale>
<asrwt>0</asrwt>
<pdfrwt beam="1">  1        2 0.57856696E+00 0.93264714E+03</pdfrwt>
<pdfrwt beam="2">  1       -2 0.49752420E-01 0.93264714E+03</pdfrwt>
<totfact> 0.21277734E+00</totfact>
</mgrwt>
</event>
<event>
 4    2  0.3855935E-007  0.7231046E+03  0.7818608E-02  0.9912218E-01
         -2   -1    0    0    0  501 -0.00000000000E+00  0.00000000000E+00  0.15840979158E+03  0.15840979160E+03  0.25500000000E-02 0.  1.
          2   -1    0    0  501    0  0.00000000000E+00 -0.00000000000E+00 -0.18250129722E+04  0.18250129722E+04  0.25500000000E-02 0. -1.
    8880023    1    1    2    0    0 -0.28529709523E+03  0.87610744565E+02 -0.12924074488E+04  0.14809447306E+04  0.65864270000E+03 0.  1.
    8880022    1    1    2    0    0  0.28529709523E+03 -0.87610744565E+02 -0.37419573177E+03  0.50247803315E+03  0.15294330000E+03 0. -1.
<mgrwt>
<rscale>  0 0.59672804E+03</rscale>
<asrwt>0</asrwt>
<pdfrwt beam="1">  1        2 0.28077121E+00 0.72310461E+03</pdfrwt>
<pdfrwt beam="2">  1       -2 0.24370738E-01 0.72310461E+03</pdfrwt>
<totfact> 0.12851741E+02</totfact>
</mgrwt>
</event>
<event>
 4    2  0.3855935E-007  0.6810488E+03  0.7818608E-02  0.1008737E+00
          2   -1    0    0  501    0  0.00000000000E+00  0.00000000000E+00  0.13657327718E+04  0.13657327718E+04  0.25500000000E-02 0. -1.
         -2   -1    0    0    0  501 -0.00000000000E+00 -0.00000000000E+00 -0.60865589783E+03  0.60865589784E+03  0.25500000000E-02 0.  1.
    8880023    1    1    2    0    0 -0.15228015055E+03 -0.82631741134E+02 -0.40311085529E+03  0.79140749100E+03  0.65864270000E+03 0.  1.
    8880022    1    1    2    0    0  0.15228015055E+03  0.82631741134E+02  0.11601877292E+04  0.11829811786E+04  0.15294330000E+03 0.  0.
<mgrwt>
<rscale>  0 0.51979892E+03</rscale>
<asrwt>0</asrwt>
<pdfrwt beam="1">  1        2 0.21011273E+00 0.68104879E+03</pdfrwt>
<pdfrwt beam="2">  1       -2 0.93639369E-01 0.68104879E+03</pdfrwt>
<totfact> 0.15050286E+01</totfact>
</mgrwt>
</event>
<event>
 4    2  0.3855935E-007  0.8172889E+03  0.7818608E-02  0.9674590E-01
         -2   -1    0    0    0  501 -0.00000000000E+00  0.00000000000E+00  0.49736424011E+03  0.49736424011E+03  0.25500000000E-02 0.  1.
          2   -1    0    0  501    0  0.00000000000E+00 -0.00000000000E+00 -0.11717666700E+04  0.11717666700E+04  0.25500000000E-02 0. -1.
    8880023    1    1    2    0    0  0.47183434462E+03 -0.10734680279E+03  0.96985088907E+01  0.81734647009E+03  0.65864270000E+03 0.  1.
    8880022    1    1    2    0    0 -0.47183434462E+03  0.10734680279E+03 -0.68410093881E+03  0.85178444006E+03  0.15294330000E+03 0.  0.
<mgrwt>
<rscale>  0 0.72550073E+03</rscale>
<asrwt>0</asrwt>
<pdfrwt beam="1">  1        2 0.18027179E+00 0.81728893E+03</pdfrwt>
<pdfrwt beam="2">  1       -2 0.76517576E-01 0.81728893E+03</pdfrwt>
<totfact> 0.30426930E+01</totfact>
</mgrwt>
</event>
<event>
 4    2  0.3855935E-007  0.7633768E+03  0.7818608E-02  0.9796443E-01
         -2   -1    0    0    0  501 -0.00000000000E+00  0.00000000000E+00  0.24205850845E+03  0.24205850846E+03  0.25500000000E-02 0.  1.
          2   -1    0    0  501    0  0.00000000000E+00 -0.00000000000E+00 -0.18945989731E+04  0.18945989731E+04  0.25500000000E-02 0. -1.
    8880023    1    1    2    0    0 -0.20733557768E+03 -0.32549322587E+03 -0.50232466701E+03  0.91382392134E+03  0.65864270000E+03 0.  0.
    8880022    1    1    2    0    0  0.20733557768E+03  0.32549322587E+03 -0.11502157976E+04  0.12228335602E+04  0.15294330000E+03 0.  0.
<mgrwt>
<rscale>  0 0.65553805E+03</rscale>
<asrwt>0</asrwt>
<pdfrwt beam="1">  1        2 0.29147676E+00 0.76337677E+03</pdfrwt>
<pdfrwt beam="2">  1       -2 0.37239772E-01 0.76337677E+03</pdfrwt>
<totfact> 0.53334479E+01</totfact>
</mgrwt>
</event>
<event>
 4    2  0.3855935E-007  0.1094102E+04  0.7818608E-02  0.9267651E-01
          2   -1    0    0  501    0  0.00000000000E+00  0.00000000000E+00  0.17601498643E+04  0.17601498643E+04  0.25500000000E-02 0. -1.
         -2   -1    0    0    0  501 -0.00000000000E+00 -0.00000000000E+00 -0.69039960847E+03  0.69039960847E+03  0.25500000000E-02 0.  1.
    8880023    1    1    2    0    0 -0.75439467883E+03  0.44061143599E+03  0.44646383597E+02  0.10950129108E+04  0.65864270000E+03 0.  0.
    8880022    1    1    2    0    0  0.75439467883E+03 -0.44061143599E+03  0.10251038722E+04  0.13555365620E+04  0.15294330000E+03 0.  0.
<mgrwt>
<rscale>  0 0.10381631E+04</rscale>
<asrwt>0</asrwt>
<pdfrwt beam="1">  1        2 0.27079229E+00 0.10941024E+04</pdfrwt>
<pdfrwt beam="2">  1       -2 0.10621532E+00 0.10941024E+04</pdfrwt>
<totfact> 0.64090843E+00</totfact>
</mgrwt>
</event>
<event>
 4    2  0.3855935E-007  0.8754904E+03  0.7818608E-02  0.9566582E-01
          2   -1    0    0  501    0  0.00000000000E+00  0.00000000000E+00  0.96075364948E+03  0.96075364949E+03  0.25500000000E-02 0. -1.
         -2   -1    0    0    0  501 -0.00000000000E+00 -0.00000000000E+00 -0.11783443866E+04  0.11783443866E+04  0.25500000000E-02 0.  1.
    8880023    1    1    2    0    0  0.37165655824E+03  0.44107215083E+03  0.64697417251E+03  0.10886041639E+04  0.65864270000E+03 0. -1.
    8880022    1    1    2    0    0 -0.37165655824E+03 -0.44107215083E+03 -0.86456490963E+03  0.10504938722E+04  0.15294330000E+03 0.  0.
<mgrwt>
<rscale>  0 0.79548077E+03</rscale>
<asrwt>0</asrwt>
<pdfrwt beam="1">  1        2 0.14780825E+00 0.87549040E+03</pdfrwt>
<pdfrwt beam="2">  1       -2 0.18128375E+00 0.87549040E+03</pdfrwt>
<totfact> 0.47692575E+00</totfact>
</mgrwt>
</event>
<event>
 4    2  0.3855935E-007  0.7346159E+03  0.7818608E-02  0.9875917E-01
         -2   -1    0    0    0  501 -0.00000000000E+00  0.00000000000E+00  0.97243063316E+03  0.97243063317E+03  0.25500000000E-02 0.  1.
          2   -1    0    0  501    0  0.00000000000E+00 -0.00000000000E+00 -0.69470606669E+03  0.69470606670E+03  0.25500000000E-02 0. -1.
    8880023    1    1    2    0    0  0.23266198762E+03 -0.22741754351E+03  0.76564858641E+03  0.10610741273E+04  0.65864270000E+03 0.  0.
    8880022    1    1    2    0    0 -0.23266198762E+03  0.22741754351E+03 -0.48792401993E+03  0.60606257253E+03  0.15294330000E+03 0.  0.
<mgrwt>
<rscale>  0 0.61442759E+03</rscale>
<asrwt>0</asrwt>
<pdfrwt beam="1">  1        2 0.10687786E+00 0.73461592E+03</pdfrwt>
<pdfrwt beam="2">  1       -2 0.14960471E+00 0.73461592E+03</pdfrwt>
<totfact> 0.12691939E+01</totfact>
</mgrwt>
</event>
<event>
 4    2  0.3855935E-007  0.6825014E+03  0.7818608E-02  0.1007943E+00
          2   -1    0    0  501    0  0.00000000000E+00  0.00000000000E+00  0.97313522895E+03  0.97313522895E+03  0.25500000000E-02 0. -1.
         -2   -1    0    0    0  501 -0.00000000000E+00 -0.00000000000E+00 -0.28768502676E+03  0.28768502677E+03  0.25500000000E-02 0.  1.
    8880023    1    1    2    0    0  0.13437106678E+03  0.11807792188E+03  0.18397237320E+03  0.70686209375E+03  0.65864270000E+03 0.  0.
    8880022    1    1    2    0    0 -0.13437106678E+03 -0.11807792188E+03  0.50147782900E+03  0.55395816197E+03  0.15294330000E+03 0.  0.
<mgrwt>
<rscale>  0 0.52300547E+03</rscale>
<asrwt>0</asrwt>
<pdfrwt beam="1">  1        2 0.14971311E+00 0.68250142E+03</pdfrwt>
<pdfrwt beam="2">  1       -2 0.44259235E-01 0.68250142E+03</pdfrwt>
<totfact> 0.12910053E+02</totfact>
</mgrwt>
</event>
<event>
 4    2  0.3855935E-007  0.7865462E+03  0.7818608E-02  0.9740679E-01
         -2   -1    0    0    0  501 -0.00000000000E+00  0.00000000000E+00  0.80966691712E+03  0.80966691713E+03  0.25500000000E-02 0.  1.
          2   -1    0    0  501    0  0.00000000000E+00 -0.00000000000E+00 -0.16281123660E+04  0.16281123660E+04  0.25500000000E-02 0. -1.
    8880023    1    1    2    0    0  0.83361722464E+02 -0.42177656711E+03  0.57318588744E+03  0.97324042104E+03  0.65864270000E+03 0.  0.
    8880022    1    1    2    0    0 -0.83361722464E+02  0.42177656711E+03 -0.13916313363E+04  0.14645388621E+04  0.15294330000E+03 0.  0.
<mgrwt>
<rscale>  0 0.68645602E+03</rscale>
<asrwt>0</asrwt>
<pdfrwt beam="1">  1        2 0.25047883E+00 0.78654616E+03</pdfrwt>
<pdfrwt beam="2">  1       -2 0.12456414E+00 0.78654616E+03</pdfrwt>
<totfact> 0.53183928E+00</totfact>
</mgrwt>
</event>
<event>
 4    2  0.3855935E-007  0.6874694E+03  0.7818608E-02  0.1005379E+00
          2   -1    0    0  501    0  0.00000000000E+00  0.00000000000E+00  0.11017293138E+04  0.11017293138E+04  0.25500000000E-02 0. -1.
         -2   -1    0    0    0  501 -0.00000000000E+00 -0.00000000000E+00 -0.23065265988E+03  0.23065265990E+03  0.25500000000E-02 0.  1.
    8880023    1    1    2    0    0 -0.46542865816E+02 -0.19140985032E+03  0.38970438476E+03  0.79024279998E+03  0.65864270000E+03 0.  1.
    8880022    1    1    2    0    0  0.46542865816E+02  0.19140985032E+03  0.48137226920E+03  0.54213917376E+03  0.15294330000E+03 0.  0.
<mgrwt>
<rscale>  0 0.53353143E+03</rscale>
<asrwt>0</asrwt>
<pdfrwt beam="1">  1        2 0.16949682E+00 0.68746940E+03</pdfrwt>
<pdfrwt beam="2">  1       -2 0.35485024E-01 0.68746940E+03</pdfrwt>
<totfact> 0.16476659E+02</totfact>
</mgrwt>
</event>
<event>
 4    2  0.3855935E-007  0.6619776E+03  0.7818608E-02  0.1022216E+00
          2   -1    0    0  501    0  0.00000000000E+00  0.00000000000E+00  0.15780450564E+04  0.15780450564E+04  0.25500000000E-02 0. -1.
         -2   -1    0    0    0  501 -0.00000000000E+00 -0.00000000000E+00 -0.16690931159E+03  0.16690931161E+03  0.25500000000E-02 0.  1.
    8880023    1    1    2    0    0 -0.64121078789E+01 -0.66052970995E+02  0.52950093117E+03  0.84769425649E+03  0.65864270000E+03 0.  1.
    8880022    1    1    2    0    0  0.64121078789E+01  0.66052970995E+02  0.88163481365E+03  0.89726011154E+03  0.15294330000E+03 0.  0.
<mgrwt>
<rscale>  0 0.46895350E+03</rscale>
<asrwt>0</asrwt>
<pdfrwt beam="1">  1        2 0.24277616E+00 0.66197758E+03</pdfrwt>
<pdfrwt beam="2">  1       -2 0.25678356E-01 0.66197758E+03</pdfrwt>
<totfact> 0.16052006E+02</totfact>
</mgrwt>
</event>
<event>
 4    2  0.3855935E-007  0.6853606E+03  0.7818608E-02  0.1006441E+00
         -2   -1    0    0    0  501 -0.00000000000E+00  0.00000000000E+00  0.14781826018E+03  0.14781826021E+03  0.25500000000E-02 0.  1.
          2   -1    0    0  501    0  0.00000000000E+00 -0.00000000000E+00 -0.19143431896E+04  0.19143431896E+04  0.25500000000E-02 0. -1.
    8880023    1    1    2    0    0  0.63332307862E+02  0.17860001731E+03 -0.74620273866E+03  0.10131819584E+04  0.65864270000E+03 0.  0.
    8880022    1    1    2    0    0 -0.63332307862E+02 -0.17860001731E+03 -0.10203221907E+04  0.10489794914E+04  0.15294330000E+03 0.  0.
<mgrwt>
<rscale>  0 0.52914139E+03</rscale>
<asrwt>0</asrwt>
<pdfrwt beam="1">  1        2 0.29451432E+00 0.68536060E+03</pdfrwt>
<pdfrwt beam="2">  1       -2 0.22741272E-01 0.68536060E+03</pdfrwt>
<totfact> 0.13054824E+02</totfact>
</mgrwt>
</event>
<event>
 4    2  0.3855935E-007  0.6671457E+03  0.7818608E-02  0.1017797E+00
         -2   -1    0    0    0  501 -0.00000000000E+00  0.00000000000E+00  0.25626853512E+03  0.25626853513E+03  0.25500000000E-02 0.  1.
          2   -1    0    0  501    0  0.00000000000E+00 -0.00000000000E+00 -0.19688098921E+04  0.19688098921E+04  0.25500000000E-02 0. -1.
    8880023    1    1    2    0    0  0.11262187721E+02 -0.10557623472E+03 -0.19345959366E+03  0.69462939677E+03  0.65864270000E+03 0.  1.
    8880022    1    1    2    0    0 -0.11262187721E+02  0.10557623472E+03 -0.15190817633E+04  0.15304490305E+04  0.15294330000E+03 0.  0.
<mgrwt>
<rscale>  0 0.48489941E+03</rscale>
<asrwt>0</asrwt>
<pdfrwt beam="1">  1        2 0.30289382E+00 0.66714570E+03</pdfrwt>
<pdfrwt beam="2">  1       -2 0.39425930E-01 0.66714570E+03</pdfrwt>
<totfact> 0.44048806E+01</totfact>
</mgrwt>
</event>
<event>
 4    2  0.3855935E-007  0.7355546E+03  0.7818608E-02  0.9873091E-01
         -2   -1    0    0    0  501 -0.00000000000E+00  0.00000000000E+00  0.45726533625E+03  0.45726533626E+03  0.25500000000E-02 0.  1.
          2   -1    0    0  501    0  0.00000000000E+00 -0.00000000000E+00 -0.80672094239E+03  0.80672094239E+03  0.25500000000E-02 0. -1.
    8880023    1    1    2    0    0  0.93692406295E+02  0.31377083103E+03  0.34918159670E+02  0.73638297478E+03  0.65864270000E+03 0.  0.
    8880022    1    1    2    0    0 -0.93692406295E+02 -0.31377083103E+03 -0.38437376581E+03  0.52760330388E+03  0.15294330000E+03 0.  0.
<mgrwt>
<rscale>  0 0.61583343E+03</rscale>
<asrwt>0</asrwt>
<pdfrwt beam="1">  1        2 0.12411091E+00 0.73555463E+03</pdfrwt>
<pdfrwt beam="2">  1       -2 0.70348513E-01 0.73555463E+03</pdfrwt>
<totfact> 0.63544190E+01</totfact>
</mgrwt>
</event>
<event>
 4    2  0.3855935E-007  0.6967806E+03  0.7818608E-02  0.1001083E+00
         -2   -1    0    0    0  501 -0.00000000000E+00  0.00000000000E+00  0.20709647625E+03  0.20709647626E+03  0.25500000000E-02 0.  1.
          2   -1    0    0  501    0  0.00000000000E+00 -0.00000000000E+00 -0.23664257301E+04  0.23664257301E+04  0.25500000000E-02 0. -1.
    8880023    1    1    2    0    0  0.41197478477E+02  0.22359734482E+03 -0.42177045542E+03  0.81448973485E+03  0.65864270000E+03 0.  0.
    8880022    1    1    2    0    0 -0.41197478477E+02 -0.22359734482E+03 -0.17375587984E+04  0.17590324715E+04  0.15294330000E+03 0.  0.
<mgrwt>
<rscale>  0 0.55177998E+03</rscale>
<asrwt>0</asrwt>
<pdfrwt beam="1">  1        2 0.36406548E+00 0.69678060E+03</pdfrwt>
<pdfrwt beam="2">  1       -2 0.31860998E-01 0.69678060E+03</pdfrwt>
<totfact> 0.39823499E+01</totfact>
</mgrwt>
</event>
<event>
 4    2  0.3855935E-007  0.7652151E+03  0.7818608E-02  0.9791789E-01
         -2   -1    0    0    0  501 -0.00000000000E+00  0.00000000000E+00  0.49302816975E+03  0.49302816976E+03  0.25500000000E-02 0.  1.
          2   -1    0    0  501    0  0.00000000000E+00 -0.00000000000E+00 -0.73721327349E+03  0.73721327349E+03  0.25500000000E-02 0. -1.
    8880023    1    1    2    0    0 -0.22662652415E+03  0.31683486259E+03 -0.44386928479E+02  0.76650134852E+03  0.65864270000E+03 0.  0.
    8880022    1    1    2    0    0  0.22662652415E+03 -0.31683486259E+03 -0.19979817526E+03  0.46374009472E+03  0.15294330000E+03 0.  0.
<mgrwt>
<rscale>  0 0.65805082E+03</rscale>
<asrwt>0</asrwt>
<pdfrwt beam="1">  1        2 0.11341743E+00 0.76521508E+03</pdfrwt>
<pdfrwt beam="2">  1       -2 0.75850488E-01 0.76521508E+03</pdfrwt>
<totfact> 0.60421575E+01</totfact>
</mgrwt>
</event>
<event>
 4    2  0.3855935E-007  0.6855297E+03  0.7818608E-02  0.1006354E+00
         -2   -1    0    0    0  501 -0.00000000000E+00  0.00000000000E+00  0.90638716079E+03  0.90638716080E+03  0.25500000000E-02 0.  1.
          2   -1    0    0  501    0  0.00000000000E+00 -0.00000000000E+00 -0.51283355304E+03  0.51283355305E+03  0.25500000000E-02 0. -1.
    8880023    1    1    2    0    0  0.45338000952E+02 -0.18462167737E+03  0.73142265890E+03  0.10024619745E+04  0.65864270000E+03 0.  1.
    8880022    1    1    2    0    0 -0.45338000952E+02  0.18462167737E+03 -0.33786905115E+03  0.41675873935E+03  0.15294330000E+03 0.  0.
<mgrwt>
<rscale>  0 0.52949738E+03</rscale>
<asrwt>0</asrwt>
<pdfrwt beam="1">  1        2 0.78897470E-01 0.68552965E+03</pdfrwt>
<pdfrwt beam="2">  1       -2 0.13944418E+00 0.68552965E+03</pdfrwt>
<totfact> 0.22105360E+01</totfact>
</mgrwt>
</event>
<event>
 4    2  0.4350882E-007  0.7982619E+03  0.7818608E-02  0.9714567E-01
         -2   -1    0    0    0  501 -0.00000000000E+00  0.00000000000E+00  0.13422408988E+04  0.13422408988E+04  0.25500000000E-02 0.  1.
          2   -1    0    0  501    0  0.00000000000E+00 -0.00000000000E+00 -0.16354026328E+04  0.16354026328E+04  0.25500000000E-02 0. -1.
    8880023    1    1    2    0    0  0.31544116335E+02  0.44990750852E+03  0.11826783034E+04  0.14268671884E+04  0.65864270000E+03 0.  0.
    8880022    1    1    2    0    0 -0.31544116335E+02 -0.44990750852E+03 -0.14758400375E+04  0.15507763432E+04  0.15294330000E+03 0. -1.
<mgrwt>
<rscale>  0 0.70156069E+03</rscale>
<asrwt>0</asrwt>
<pdfrwt beam="1">  1        2 0.25160040E+00 0.79826186E+03</pdfrwt>
<pdfrwt beam="2">  1       -2 0.20649860E+00 0.79826186E+03</pdfrwt>
<totfact> 0.13201758E+00</totfact>
</mgrwt>
</event>
<event>
 4    2  0.3855935E-007  0.1108950E+04  0.7818608E-02  0.9251157E-01
          2   -1    0    0  501    0  0.00000000000E+00  0.00000000000E+00  0.98679733931E+03  0.98679733932E+03  0.25500000000E-02 0. -1.
         -2   -1    0    0    0  501 -0.00000000000E+00 -0.00000000000E+00 -0.17935804977E+04  0.17935804977E+04  0.25500000000E-02 0.  1.
    8880023    1    1    2    0    0  0.25575754881E+03  0.85472068731E+03  0.47896130210E+03  0.12079625459E+04  0.65864270000E+03 0.  0.
    8880022    1    1    2    0    0 -0.25575754881E+03 -0.85472068731E+03 -0.12857444605E+04  0.15724152911E+04  0.15294330000E+03 0.  0.
<mgrwt>
<rscale>  0 0.10540656E+04</rscale>
<asrwt>0</asrwt>
<pdfrwt beam="1">  1        2 0.15181497E+00 0.11089498E+04</pdfrwt>
<pdfrwt beam="2">  1       -2 0.27593546E+00 0.11089498E+04</pdfrwt>
<totfact> 0.11299377E+00</totfact>
</mgrwt>
</event>
<event>
 4    2  0.3855935E-007  0.7978923E+03  0.7818608E-02  0.9715372E-01
          2   -1    0    0  501    0  0.00000000000E+00  0.00000000000E+00  0.24401574499E+04  0.24401574499E+04  0.25500000000E-02 0. -1.
         -2   -1    0    0    0  501 -0.00000000000E+00 -0.00000000000E+00 -0.28403051971E+03  0.28403051972E+03  0.25500000000E-02 0.  1.
    8880023    1    1    2    0    0 -0.36319176467E+03 -0.26629606836E+03  0.37679712372E+03  0.88238774507E+03  0.65864270000E+03 0.  1.
    8880022    1    1    2    0    0  0.36319176467E+03  0.26629606836E+03  0.17793298064E+04  0.18418002245E+04  0.15294330000E+03 0.  0.
<mgrwt>
<rscale>  0 0.70108876E+03</rscale>
<asrwt>0</asrwt>
<pdfrwt beam="1">  1        2 0.37540885E+00 0.79789226E+03</pdfrwt>
<pdfrwt beam="2">  1       -2 0.43697001E-01 0.79789226E+03</pdfrwt>
<totfact> 0.19416113E+01</totfact>
</mgrwt>
</event>
<event>
 4    2  0.3855935E-007  0.6775014E+03  0.7818608E-02  0.1010774E+00
          2   -1    0    0  501    0  0.00000000000E+00  0.00000000000E+00  0.92319490942E+03  0.92319490942E+03  0.25500000000E-02 0. -1.
         -2   -1    0    0    0  501 -0.00000000000E+00 -0.00000000000E+00 -0.57191481447E+03  0.57191481448E+03  0.25500000000E-02 0.  1.
    8880023    1    1    2    0    0 -0.13834518250E+03 -0.77837035720E+02 -0.34818338850E+03  0.76173477795E+03  0.65864270000E+03 0.  1.
    8880022    1    1    2    0    0  0.13834518250E+03  0.77837035720E+02  0.69946348345E+03  0.73337494595E+03  0.15294330000E+03 0.  0.
<mgrwt>
<rscale>  0 0.51168258E+03</rscale>
<asrwt>0</asrwt>
<pdfrwt beam="1">  1        2 0.14202999E+00 0.67750144E+03</pdfrwt>
<pdfrwt beam="2">  1       -2 0.87986895E-01 0.67750144E+03</pdfrwt>
<totfact> 0.32198711E+01</totfact>
</mgrwt>
</event>
<event>
 4    2  0.3855935E-007  0.9398262E+03  0.7818608E-02  0.9464906E-01
         -2   -1    0    0    0  501 -0.00000000000E+00  0.00000000000E+00  0.92248775535E+03  0.92248775535E+03  0.25500000000E-02 0.  1.
          2   -1    0    0  501    0  0.00000000000E+00 -0.00000000000E+00 -0.77004707381E+03  0.77004707381E+03  0.25500000000E-02 0. -1.
    8880023    1    1    2    0    0 -0.62654171768E+03  0.23855513654E+03 -0.13071663626E+03  0.94887308025E+03  0.65864270000E+03 0.  1.
    8880022    1    1    2    0    0  0.62654171768E+03 -0.23855513654E+03  0.28315731780E+03  0.74366174892E+03  0.15294330000E+03 0.  0.
<mgrwt>
<rscale>  0 0.86921383E+03</rscale>
<asrwt>0</asrwt>
<pdfrwt beam="1">  1        2 0.11846878E+00 0.93982620E+03</pdfrwt>
<pdfrwt beam="2">  1       -2 0.14192119E+00 0.93982620E+03</pdfrwt>
<totfact> 0.12524042E+01</totfact>
</mgrwt>
</event>
<event>
 4    2  0.3855935E-007  0.6673816E+03  0.7818608E-02  0.1017614E+00
          2   -1    0    0  501    0  0.00000000000E+00  0.00000000000E+00  0.12816184766E+04  0.12816184766E+04  0.25500000000E-02 0. -1.
         -2   -1    0    0    0  501 -0.00000000000E+00 -0.00000000000E+00 -0.14945874018E+03  0.14945874020E+03  0.25500000000E-02 0.  1.
    8880023    1    1    2    0    0  0.95531100594E+02 -0.49616265192E+02  0.73932078681E+03  0.99598865306E+03  0.65864270000E+03 0.  1.
    8880022    1    1    2    0    0 -0.95531100594E+02  0.49616265192E+02  0.39283894960E+03  0.43508856373E+03  0.15294330000E+03 0. -1.
<mgrwt>
<rscale>  0 0.48557637E+03</rscale>
<asrwt>0</asrwt>
<pdfrwt beam="1">  1        2 0.19717206E+00 0.66738158E+03</pdfrwt>
<pdfrwt beam="2">  1       -2 0.22993653E-01 0.66738158E+03</pdfrwt>
<totfact> 0.28688884E+02</totfact>
</mgrwt>
</event>
<event>
 4    2  0.3855935E-007  0.9601616E+03  0.7818608E-02  0.9435642E-01
          2   -1    0    0  501    0  0.00000000000E+00  0.00000000000E+00  0.30036477556E+04  0.30036477556E+04  0.25500000000E-02 0. -1.
         -2   -1    0    0    0  501 -0.00000000000E+00 -0.00000000000E+00 -0.26048862886E+03  0.26048862888E+03  0.25500000000E-02 0.  1.
    8880023    1    1    2    0    0  0.56449186415E+03 -0.41164191491E+03  0.10322864633E+04  0.14097963255E+04  0.65864270000E+03 0.  0.
    8880022    1    1    2    0    0 -0.56449186415E+03  0.41164191491E+03  0.17108726635E+04  0.18543400590E+04  0.15294330000E+03 0.  0.
<mgrwt>
<rscale>  0 0.89199638E+03</rscale>
<asrwt>0</asrwt>
<pdfrwt beam="1">  1        2 0.46209968E+00 0.96016162E+03</pdfrwt>
<pdfrwt beam="2">  1       -2 0.40075171E-01 0.96016162E+03</pdfrwt>
<totfact> 0.10498235E+01</totfact>
</mgrwt>
</event>
<event>
 4    2  0.3855935E-007  0.6984525E+03  0.7818608E-02  0.1000368E+00
         -2   -1    0    0    0  501 -0.00000000000E+00  0.00000000000E+00  0.58442237110E+03  0.58442237111E+03  0.25500000000E-02 0.  1.
          2   -1    0    0  501    0  0.00000000000E+00 -0.00000000000E+00 -0.43264602716E+03  0.43264602717E+03  0.25500000000E-02 0. -1.
    8880023    1    1    2    0    0  0.13823705474E+03 -0.18685875836E+03  0.21681052326E+03  0.73132939784E+03  0.65864270000E+03 0. -1.
    8880022    1    1    2    0    0 -0.13823705474E+03  0.18685875836E+03 -0.65034179326E+02  0.28573900044E+03  0.15294330000E+03 0.  0.
<mgrwt>
<rscale>  0 0.55489068E+03</rscale>
<asrwt>0</asrwt>
<pdfrwt beam="1">  1        2 0.66560928E-01 0.69845249E+03</pdfrwt>
<pdfrwt beam="2">  1       -2 0.89911133E-01 0.69845249E+03</pdfrwt>
<totfact> 0.78126174E+01</totfact>
</mgrwt>
</event>
<event>
 4    2  0.3855935E-007  0.8948752E+03  0.7818608E-02  0.9534309E-01
         -2   -1    0    0    0  501 -0.00000000000E+00  0.00000000000E+00  0.28872770491E+03  0.28872770492E+03  0.25500000000E-02 0.  1.
          2   -1    0    0  501    0  0.00000000000E+00 -0.00000000000E+00 -0.23005558952E+04  0.23005558952E+04  0.25500000000E-02 0. -1.
    8880023    1    1    2    0    0  0.18752324930E+03 -0.57604374193E+03 -0.69956079741E+03  0.11358639343E+04  0.65864270000E+03 0.  0.
    8880022    1    1    2    0    0 -0.18752324930E+03  0.57604374193E+03 -0.13122673928E+04  0.14534196658E+04  0.15294330000E+03 0.  0.
<mgrwt>
<rscale>  0 0.81800924E+03</rscale>
<asrwt>0</asrwt>
<pdfrwt beam="1">  1        2 0.35393166E+00 0.89487517E+03</pdfrwt>
<pdfrwt beam="2">  1       -2 0.44419649E-01 0.89487517E+03</pdfrwt>
<totfact> 0.22224345E+01</totfact>
</mgrwt>
</event>
<event>
 4    2  0.3855935E-007  0.7684246E+03  0.7818608E-02  0.9783766E-01
         -2   -1    0    0    0  501 -0.00000000000E+00  0.00000000000E+00  0.70321444544E+03  0.70321444544E+03  0.25500000000E-02 0.  1.
          2   -1    0    0  501    0  0.00000000000E+00 -0.00000000000E+00 -0.13190168054E+04  0.13190168054E+04  0.25500000000E-02 0. -1.
    8880023    1    1    2    0    0 -0.32224588216E+03 -0.22983417280E+03  0.43920523761E+03  0.88508621194E+03  0.65864270000E+03 0.  1.
    8880022    1    1    2    0    0  0.32224588216E+03  0.22983417280E+03 -0.10550075975E+04  0.11371450389E+04  0.15294330000E+03 0.  0.
<mgrwt>
<rscale>  0 0.66241085E+03</rscale>
<asrwt>0</asrwt>
<pdfrwt beam="1">  1        2 0.20292566E+00 0.76842460E+03</pdfrwt>
<pdfrwt beam="2">  1       -2 0.10818684E+00 0.76842460E+03</pdfrwt>
<totfact> 0.11233055E+01</totfact>
</mgrwt>
</event>
<event>
 4    2  0.3855935E-007  0.9216303E+03  0.7818608E-02  0.9492164E-01
          2   -1    0    0  501    0  0.00000000000E+00  0.00000000000E+00  0.23291295542E+04  0.23291295542E+04  0.25500000000E-02 0. -1.
         -2   -1    0    0    0  501 -0.00000000000E+00 -0.00000000000E+00 -0.91177049073E+03  0.91177049073E+03  0.25500000000E-02 0.  1.
    8880023    1    1    2    0    0  0.58471413015E+03 -0.27148043234E+03 -0.61186683004E+03  0.11062474692E+04  0.65864270000E+03 0.  0.
    8880022    1    1    2    0    0 -0.58471413015E+03  0.27148043234E+03  0.20292258935E+04  0.21346525757E+04  0.15294330000E+03 0. -1.
<mgrwt>
<rscale>  0 0.84864027E+03</rscale>
<asrwt>0</asrwt>
<pdfrwt beam="1">  1        2 0.35832762E+00 0.92163032E+03</pdfrwt>
<pdfrwt beam="2">  1       -2 0.14027239E+00 0.92163032E+03</pdfrwt>
<totfact> 0.15829831E+00</totfact>
</mgrwt>
</event>
<event>
 4    2  0.3855935E-007  0.7645415E+03  0.7818608E-02  0.9793489E-01
         -2   -1    0    0    0  501 -0.00000000000E+00  0.00000000000E+00  0.78161627769E+03  0.78161627769E+03  0.25500000000E-02 0.  1.
          2   -1    0    0  501    0  0.00000000000E+00 -0.00000000000E+00 -0.55126939659E+03  0.55126939660E+03  0.25500000000E-02 0. -1.
    8880023    1    1    2    0    0  0.28269564860E+03  0.26607630612E+03  0.42249126199E+03  0.87351159302E+03  0.65864270000E+03 0.  0.
    8880022    1    1    2    0    0 -0.28269564860E+03 -0.26607630612E+03 -0.19214438090E+03  0.45937408127E+03  0.15294330000E+03 0.  0.
<mgrwt>
<rscale>  0 0.65713139E+03</rscale>
<asrwt>0</asrwt>
<pdfrwt beam="1">  1        2 0.84810676E-01 0.76454146E+03</pdfrwt>
<pdfrwt beam="2">  1       -2 0.12024866E+00 0.76454146E+03</pdfrwt>
<totfact> 0.29333188E+01</totfact>
</mgrwt>
</event>
<event>
 4    2  0.3855935E-007  0.8007241E+03  0.7818608E-02  0.9709233E-01
         -2   -1    0    0    0  501 -0.00000000000E+00  0.00000000000E+00  0.40187971731E+03  0.40187971732E+03  0.25500000000E-02 0.  1.
          2   -1    0    0  501    0  0.00000000000E+00 -0.00000000000E+00 -0.25136419187E+04  0.25136419187E+04  0.25500000000E-02 0. -1.
    8880023    1    1    2    0    0  0.29494023484E+03 -0.34692805632E+03 -0.54116529247E+02  0.80255069833E+03  0.65864270000E+03 0.  0.
    8880022    1    1    2    0    0 -0.29494023484E+03  0.34692805632E+03 -0.20576456722E+04  0.21129709377E+04  0.15294330000E+03 0. -1.
<mgrwt>
<rscale>  0 0.70469734E+03</rscale>
<asrwt>0</asrwt>
<pdfrwt beam="1">  1        2 0.38671413E+00 0.80072406E+03</pdfrwt>
<pdfrwt beam="2">  1       -2 0.61827650E-01 0.80072406E+03</pdfrwt>
<totfact> 0.86440133E+00</totfact>
</mgrwt>
</event>
<event>
 4    2  0.3855935E-007  0.7906535E+03  0.7818608E-02  0.9731382E-01
         -2   -1    0    0    0  501 -0.00000000000E+00  0.00000000000E+00  0.53466800094E+03  0.53466800094E+03  0.25500000000E-02 0.  1.
          2   -1    0    0  501    0  0.00000000000E+00 -0.00000000000E+00 -0.11441735189E+04  0.11441735189E+04  0.25500000000E-02 0. -1.
    8880023    1    1    2    0    0  0.43648317102E+03 -0.28376073617E+02  0.13482052464E+03  0.80206579547E+03  0.65864270000E+03 0.  1.
    8880022    1    1    2    0    0 -0.43648317102E+03  0.28376073617E+02 -0.74432604257E+03  0.87677572434E+03  0.15294330000E+03 0.  0.
<mgrwt>
<rscale>  0 0.69178685E+03</rscale>
<asrwt>0</asrwt>
<pdfrwt beam="1">  1        2 0.17602669E+00 0.79065351E+03</pdfrwt>
<pdfrwt beam="2">  1       -2 0.82256616E-01 0.79065351E+03</pdfrwt>
<totfact> 0.26939469E+01</totfact>
</mgrwt>
</event>
<event>
 4    2  0.3855935E-007  0.1040943E+04  0.7818608E-02  0.9329849E-01
          2   -1    0    0  501    0  0.00000000000E+00  0.00000000000E+00  0.10285047162E+04  0.10285047162E+04  0.25500000000E-02 0. -1.
         -2   -1    0    0    0  501 -0.00000000000E+00 -0.00000000000E+00 -0.14018671591E+04  0.14018671591E+04  0.25500000000E-02 0.  1.
    8880023    1    1    2    0    0 -0.56359850720E+03 -0.57628880491E+03  0.56460684945E+03  0.11842057105E+04  0.65864270000E+03 0.  0.
    8880022    1    1    2    0    0  0.56359850720E+03  0.57628880491E+03 -0.93796929236E+03  0.12461661648E+04  0.15294330000E+03 0.  0.
<mgrwt>
<rscale>  0 0.98080727E+03</rscale>
<asrwt>0</asrwt>
<pdfrwt beam="1">  1        2 0.15823150E+00 0.10409430E+04</pdfrwt>
<pdfrwt beam="2">  1       -2 0.21567187E+00 0.10409430E+04</pdfrwt>
<totfact> 0.25144406E+00</totfact>
</mgrwt>
</event>
<event>
 4    2  0.3855935E-007  0.7170518E+03  0.7818608E-02  0.9932691E-01
          2   -1    0    0  501    0  0.00000000000E+00  0.00000000000E+00  0.19940977314E+04  0.19940977314E+04  0.25500000000E-02 0. -1.
         -2   -1    0    0    0  501 -0.00000000000E+00 -0.00000000000E+00 -0.39557169343E+03  0.39557169343E+03  0.25500000000E-02 0.  1.
    8880023    1    1    2    0    0  0.26417946757E+03 -0.10277323656E+03 -0.41559548363E+02  0.71825519947E+03  0.65864270000E+03 0.  0.
    8880022    1    1    2    0    0 -0.26417946757E+03  0.10277323656E+03  0.16400855864E+04  0.16714142254E+04  0.15294330000E+03 0. -1.
<mgrwt>
<rscale>  0 0.58702784E+03</rscale>
<asrwt>0</asrwt>
<pdfrwt beam="1">  1        2 0.30678427E+00 0.71705184E+03</pdfrwt>
<pdfrwt beam="2">  1       -2 0.60857184E-01 0.71705184E+03</pdfrwt>
<totfact> 0.17581021E+01</totfact>
</mgrwt>
</event>
<event>
 4    2  0.3855935E-007  0.6983702E+03  0.7818608E-02  0.1000403E+00
         -2   -1    0    0    0  501 -0.00000000000E+00  0.00000000000E+00  0.44373088596E+03  0.44373088597E+03  0.25500000000E-02 0.  1.
          2   -1    0    0  501    0  0.00000000000E+00 -0.00000000000E+00 -0.24720104967E+04  0.24720104967E+04  0.25500000000E-02 0. -1.
    8880023    1    1    2    0    0 -0.38445187686E+02 -0.22898195716E+03  0.15455763695E+03  0.71526850802E+03  0.65864270000E+03 0.  1.
    8880022    1    1    2    0    0  0.38445187686E+02  0.22898195716E+03 -0.21828372477E+04  0.22004728747E+04  0.15294330000E+03 0.  0.
<mgrwt>
<rscale>  0 0.55473865E+03</rscale>
<asrwt>0</asrwt>
<pdfrwt beam="1">  1        2 0.38030930E+00 0.69837023E+03</pdfrwt>
<pdfrwt beam="2">  1       -2 0.68266292E-01 0.69837023E+03</pdfrwt>
<totfact> 0.75069433E+00</totfact>
</mgrwt>
</event>
<event>
 4    2  0.3855935E-007  0.7336564E+03  0.7818608E-02  0.9878826E-01
         -2   -1    0    0    0  501 -0.00000000000E+00  0.00000000000E+00  0.37937729926E+03  0.37937729927E+03  0.25500000000E-02 0.  1.
          2   -1    0    0  501    0  0.00000000000E+00 -0.00000000000E+00 -0.13512751279E+04  0.13512751279E+04  0.25500000000E-02 0. -1.
    8880023    1    1    2    0    0  0.29058421771E+03 -0.14142978415E+03 -0.42536464210E+02  0.73488851432E+03  0.65864270000E+03 0.  0.
    8880022    1    1    2    0    0 -0.29058421771E+03  0.14142978415E+03 -0.92936136448E+03  0.99576391290E+03  0.15294330000E+03 0.  0.
<mgrwt>
<rscale>  0 0.61298524E+03</rscale>
<asrwt>0</asrwt>
<pdfrwt beam="1">  1        2 0.20788848E+00 0.73365644E+03</pdfrwt>
<pdfrwt beam="2">  1       -2 0.58365739E-01 0.73365644E+03</pdfrwt>
<totfact> 0.43301128E+01</totfact>
</mgrwt>
</event>
<event>
 4    2  0.3855935E-007  0.6869357E+03  0.7818608E-02  0.1005644E+00
          2   -1    0    0  501    0  0.00000000000E+00  0.00000000000E+00  0.55938393492E+03  0.55938393492E+03  0.25500000000E-02 0. -1.
         -2   -1    0    0    0  501 -0.00000000000E+00 -0.00000000000E+00 -0.68124838764E+03  0.68124838764E+03  0.25500000000E-02 0.  1.
    8880023    1    1    2    0    0  0.16060978033E+02 -0.19445430237E+03 -0.45604358668E+03  0.82453404414E+03  0.65864270000E+03 0.  1.
    8880022    1    1    2    0    0 -0.16060978033E+02  0.19445430237E+03  0.33417913396E+03  0.41609827843E+03  0.15294330000E+03 0.  0.
<mgrwt>
<rscale>  0 0.53243055E+03</rscale>
<asrwt>0</asrwt>
<pdfrwt beam="1">  1        2 0.86059066E-01 0.68693569E+03</pdfrwt>
<pdfrwt beam="2">  1       -2 0.10480744E+00 0.68693569E+03</pdfrwt>
<totfact> 0.40520620E+01</totfact>
</mgrwt>
</event>
<event>
 4    2  0.3855935E-007  0.6836289E+03  0.7818608E-02  0.1007341E+00
          2   -1    0    0  501    0  0.00000000000E+00  0.00000000000E+00  0.18587040739E+04  0.18587040739E+04  0.25500000000E-02 0. -1.
         -2   -1    0    0    0  501 -0.00000000000E+00 -0.00000000000E+00 -0.24405447345E+03  0.24405447346E+03  0.25500000000E-02 0.  1.
    8880023    1    1    2    0    0  0.17574206991E+03 -0.51507739662E+02  0.26662859487E+03  0.73378425729E+03  0.65864270000E+03 0.  0.
    8880022    1    1    2    0    0 -0.17574206991E+03  0.51507739662E+02  0.13480210056E+04  0.13689742901E+04  0.15294330000E+03 0.  0.
<mgrwt>
<rscale>  0 0.52545189E+03</rscale>
<asrwt>0</asrwt>
<pdfrwt beam="1">  1        2 0.28595449E+00 0.68362894E+03</pdfrwt>
<pdfrwt beam="2">  1       -2 0.37546839E-01 0.68362894E+03</pdfrwt>
<totfact> 0.55436564E+01</totfact>
</mgrwt>
</event>
<event>
 4    2  0.3855935E-007  0.8830150E+03  0.7818608E-02  0.9553867E-01
          2   -1    0    0  501    0  0.00000000000E+00  0.00000000000E+00  0.17366442980E+04  0.17366442980E+04  0.25500000000E-02 0. -1.
         -2   -1    0    0    0  501 -0.00000000000E+00 -0.00000000000E+00 -0.10659718327E+04  0.10659718327E+04  0.25500000000E-02 0.  1.
    8880023    1    1    2    0    0  0.58447483510E+03  0.65531504831E+02 -0.81239339878E+03  0.11998743483E+04  0.65864270000E+03 0.  1.
    8880022    1    1    2    0    0 -0.58447483510E+03 -0.65531504831E+02  0.14830658641E+04  0.16027417824E+04  0.15294330000E+03 0.  0.
<mgrwt>
<rscale>  0 0.80426283E+03</rscale>
<asrwt>0</asrwt>
<pdfrwt beam="1">  1        2 0.26717604E+00 0.88301496E+03</pdfrwt>
<pdfrwt beam="2">  1       -2 0.16399567E+00 0.88301496E+03</pdfrwt>
<totfact> 0.22268823E+00</totfact>
</mgrwt>
</event>
<event>
 4    2  0.3855935E-007  0.6607984E+03  0.7818608E-02  0.1023353E+00
         -2   -1    0    0    0  501 -0.00000000000E+00  0.00000000000E+00  0.10575191891E+04  0.10575191891E+04  0.25500000000E-02 0.  1.
          2   -1    0    0  501    0  0.00000000000E+00 -0.00000000000E+00 -0.23535289262E+03  0.23535289264E+03  0.25500000000E-02 0. -1.
    8880023    1    1    2    0    0 -0.27300080539E+02 -0.45814463650E+02  0.89726575382E+03  0.11143340158E+04  0.65864270000E+03 0.  1.
    8880022    1    1    2    0    0  0.27300080539E+02  0.45814463650E+02 -0.75099457370E+02  0.17853806594E+03  0.15294330000E+03 0.  0.
<mgrwt>
<rscale>  0 0.46495801E+03</rscale>
<asrwt>0</asrwt>
<pdfrwt beam="1">  1        2 0.36208137E-01 0.66079835E+03</pdfrwt>
<pdfrwt beam="2">  1       -2 0.16269526E+00 0.66079835E+03</pdfrwt>
<totfact> 0.35285320E+01</totfact>
</mgrwt>
</event>
<event>
 4    2  0.3855935E-007  0.7980105E+03  0.7818608E-02  0.9715114E-01
         -2   -1    0    0    0  501 -0.00000000000E+00  0.00000000000E+00  0.20253200035E+03  0.20253200037E+03  0.25500000000E-02 0.  1.
          2   -1    0    0  501    0  0.00000000000E+00 -0.00000000000E+00 -0.40912750116E+04  0.40912750116E+04  0.25500000000E-02 0. -1.
    8880023    1    1    2    0    0  0.10778190127E+03 -0.43748558728E+03 -0.67549650758E+03  0.10455220301E+04  0.65864270000E+03 0.  1.
    8880022    1    1    2    0    0 -0.10778190127E+03  0.43748558728E+03 -0.32132465036E+04  0.32482849819E+04  0.15294330000E+03 0.  0.
<mgrwt>
<rscale>  0 0.70123979E+03</rscale>
<asrwt>0</asrwt>
<pdfrwt beam="1">  1        2 0.62942686E+00 0.79801052E+03</pdfrwt>
<pdfrwt beam="2">  1       -2 0.31158772E-01 0.79801052E+03</pdfrwt>
<totfact> 0.30218535E+00</totfact>
</mgrwt>
</event>
<event>
 4    2  0.3855935E-007  0.1023400E+04  0.7818608E-02  0.9351564E-01
         -2   -1    0    0    0  501 -0.00000000000E+00  0.00000000000E+00  0.52582566435E+03  0.52582566436E+03  0.25500000000E-02 0.  1.
          2   -1    0    0  501    0  0.00000000000E+00 -0.00000000000E+00 -0.22739820286E+04  0.22739820286E+04  0.25500000000E-02 0. -1.
    8880023    1    1    2    0    0 -0.24550412434E+03 -0.74381741355E+03 -0.17841199480E+03  0.10388347635E+04  0.65864270000E+03 0.  0.
    8880022    1    1    2    0    0  0.24550412434E+03  0.74381741355E+03 -0.15697443695E+04  0.17609729295E+04  0.15294330000E+03 0.  0.
<mgrwt>
<rscale>  0 0.96171250E+03</rscale>
<asrwt>0</asrwt>
<pdfrwt beam="1">  1        2 0.34984339E+00 0.10233996E+04</pdfrwt>
<pdfrwt beam="2">  1       -2 0.80896257E-01 0.10233996E+04</pdfrwt>
<totfact> 0.63431742E+00</totfact>
</mgrwt>
</event>
<event>
 4    2  0.3855935E-007  0.7135930E+03  0.7818608E-02  0.9944893E-01
          2   -1    0    0  501    0  0.00000000000E+00  0.00000000000E+00  0.16514700085E+04  0.16514700085E+04  0.25500000000E-02 0. -1.
         -2   -1    0    0    0  501 -0.00000000000E+00 -0.00000000000E+00 -0.69983195526E+03  0.69983195527E+03  0.25500000000E-02 0.  1.
    8880023    1    1    2    0    0  0.24199240919E+03 -0.12978588615E+03 -0.49657702689E+03  0.86936968675E+03  0.65864270000E+03 0.  1.
    8880022    1    1    2    0    0 -0.24199240919E+03  0.12978588615E+03  0.14482150801E+04  0.14819322770E+04  0.15294330000E+03 0.  0.
<mgrwt>
<rscale>  0 0.58134044E+03</rscale>
<asrwt>0</asrwt>
<pdfrwt beam="1">  1        2 0.25407231E+00 0.71359296E+03</pdfrwt>
<pdfrwt beam="2">  1       -2 0.10766646E+00 0.71359296E+03</pdfrwt>
<totfact> 0.74646393E+00</totfact>
</mgrwt>
</event>
<event>
 4    2  0.3855935E-007  0.6948680E+03  0.7818608E-02  0.1001920E+00
          2   -1    0    0  501    0  0.00000000000E+00  0.00000000000E+00  0.15680957207E+04  0.15680957207E+04  0.25500000000E-02 0. -1.
         -2   -1    0    0    0  501 -0.00000000000E+00 -0.00000000000E+00 -0.19290768341E+03  0.19290768342E+03  0.25500000000E-02 0.  1.
    8880023    1    1    2    0    0  0.21145131013E+03 -0.65724259437E+02  0.52976297476E+03  0.87377934887E+03  0.65864270000E+03 0. -1.
    8880022    1    1    2    0    0 -0.21145131013E+03  0.65724259437E+02  0.84542506253E+03  0.88722405525E+03  0.15294330000E+03 0.  0.
<mgrwt>
<rscale>  0 0.54816498E+03</rscale>
<asrwt>0</asrwt>
<pdfrwt beam="1">  1        2 0.24124549E+00 0.69486800E+03</pdfrwt>
<pdfrwt beam="2">  1       -2 0.29678106E-01 0.69486800E+03</pdfrwt>
<totfact> 0.12435933E+02</totfact>
</mgrwt>
</event>
<event>
 4    2  0.3855935E-007  0.6955322E+03  0.7818608E-02  0.1001627E+00
          2   -1    0    0  501    0  0.00000000000E+00  0.00000000000E+00  0.22263019847E+04  0.22263019847E+04  0.25500000000E-02 0. -1.
         -2   -1    0    0    0  501 -0.00000000000E+00 -0.00000000000E+00 -0.14363864593E+03  0.14363864596E+03  0.25500000000E-02 0.  1.
    8880023    1    1    2    0    0 -0.26425101117E+02 -0.22193831662E+03  0.80485098783E+03  0.10637434941E+04  0.65864270000E+03 0.  1.
    8880022    1    1    2    0    0  0.26425101117E+02  0.22193831662E+03  0.12778123510E+04  0.13061971366E+04  0.15294330000E+03 0.  0.
<mgrwt>
<rscale>  0 0.54942753E+03</rscale>
<asrwt>0</asrwt>
<pdfrwt beam="1">  1        2 0.34250795E+00 0.69553225E+03</pdfrwt>
<pdfrwt beam="2">  1       -2 0.22098256E-01 0.69553225E+03</pdfrwt>
<totfact> 0.92677264E+01</totfact>
</mgrwt>
</event>
<event>
 4    2  0.3855935E-007  0.7603982E+03  0.7818608E-02  0.9804078E-01
          2   -1    0    0  501    0  0.00000000000E+00  0.00000000000E+00  0.91707919924E+03  0.91707919924E+03  0.25500000000E-02 0. -1.
         -2   -1    0    0    0  501 -0.00000000000E+00 -0.00000000000E+00 -0.71753607762E+03  0.71753607762E+03  0.25500000000E-02 0.  1.
    8880023    1    1    2    0    0 -0.30001399224E+03 -0.23320990447E+03 -0.43747694003E+03  0.87726366299E+03  0.65864270000E+03 0.  0.
    8880022    1    1    2    0    0  0.30001399224E+03  0.23320990447E+03  0.63702006165E+03  0.75735161387E+03  0.15294330000E+03 0. -1.
<mgrwt>
<rscale>  0 0.65144174E+03</rscale>
<asrwt>0</asrwt>
<pdfrwt beam="1">  1        2 0.14108911E+00 0.76039823E+03</pdfrwt>
<pdfrwt beam="2">  1       -2 0.11039017E+00 0.76039823E+03</pdfrwt>
<totfact> 0.18872281E+01</totfact>
</mgrwt>
</event>
<event>
 4    2  0.3855935E-007  0.9052989E+03  0.7818608E-02  0.9517578E-01
          2   -1    0    0  501    0  0.00000000000E+00  0.00000000000E+00  0.25726928464E+04  0.25726928464E+04  0.25500000000E-02 0. -1.
         -2   -1    0    0    0  501 -0.00000000000E+00 -0.00000000000E+00 -0.25064023048E+03  0.25064023049E+03  0.25500000000E-02 0.  1.
    8880023    1    1    2    0    0 -0.51558146840E+03 -0.34631149665E+03  0.17260381810E+04  0.19490443586E+04  0.65864270000E+03 0.  0.
    8880022    1    1    2    0    0  0.51558146840E+03  0.34631149665E+03  0.59601443492E+03  0.87428871829E+03  0.15294330000E+03 0.  0.
<mgrwt>
<rscale>  0 0.83000172E+03</rscale>
<asrwt>0</asrwt>
<pdfrwt beam="1">  1        2 0.39579890E+00 0.90529891E+03</pdfrwt>
<pdfrwt beam="2">  1       -2 0.38560035E-01 0.90529891E+03</pdfrwt>
<totfact> 0.20562192E+01</totfact>
</mgrwt>
</event>
<event>
 4    2  0.3855935E-007  0.6961492E+03  0.7818608E-02  0.1001357E+00
         -2   -1    0    0    0  501 -0.00000000000E+00  0.00000000000E+00  0.58192854229E+03  0.58192854230E+03  0.25500000000E-02 0.  1.
          2   -1    0    0  501    0  0.00000000000E+00 -0.00000000000E+00 -0.42983149830E+03  0.42983149830E+03  0.25500000000E-02 0. -1.
    8880023    1    1    2    0    0 -0.22496610894E+03 -0.14276519852E+02  0.22170589596E+03  0.73060062945E+03  0.65864270000E+03 0.  0.
    8880022    1    1    2    0    0  0.22496610894E+03  0.14276519852E+02 -0.69608851960E+02  0.28115941115E+03  0.15294330000E+03 0.  0.
<mgrwt>
<rscale>  0 0.55059350E+03</rscale>
<asrwt>0</asrwt>
<pdfrwt beam="1">  1        2 0.66127923E-01 0.69614925E+03</pdfrwt>
<pdfrwt beam="2">  1       -2 0.89527468E-01 0.69614925E+03</pdfrwt>
<totfact> 0.79496154E+01</totfact>
</mgrwt>
</event>
<event>
 4    2  0.3855935E-007  0.7194865E+03  0.7818608E-02  0.9924327E-01
          2   -1    0    0  501    0  0.00000000000E+00  0.00000000000E+00  0.26446151324E+04  0.26446151324E+04  0.25500000000E-02 0. -1.
         -2   -1    0    0    0  501 -0.00000000000E+00 -0.00000000000E+00 -0.24393629244E+03  0.24393629245E+03  0.25500000000E-02 0.  1.
    8880023    1    1    2    0    0 -0.19351129396E+03  0.21541599823E+03  0.32898299808E+03  0.79113253787E+03  0.65864270000E+03 0.  1.
    8880022    1    1    2    0    0  0.19351129396E+03 -0.21541599823E+03  0.20716958419E+04  0.20974188870E+04  0.15294330000E+03 0.  0.
<mgrwt>
<rscale>  0 0.59096639E+03</rscale>
<asrwt>0</asrwt>
<pdfrwt beam="1">  1        2 0.40686386E+00 0.71948654E+03</pdfrwt>
<pdfrwt beam="2">  1       -2 0.37528661E-01 0.71948654E+03</pdfrwt>
<totfact> 0.20227398E+01</totfact>
</mgrwt>
</event>
<event>
 4    2  0.3855935E-007  0.7506126E+03  0.7818608E-02  0.9830046E-01
         -2   -1    0    0    0  501 -0.00000000000E+00  0.00000000000E+00  0.34955951523E+03  0.34955951524E+03  0.25500000000E-02 0.  1.
          2   -1    0    0  501    0  0.00000000000E+00 -0.00000000000E+00 -0.15935348188E+04  0.15935348188E+04  0.25500000000E-02 0. -1.
    8880023    1    1    2    0    0 -0.31389103999E+03 -0.17629931055E+03 -0.12915392748E+03  0.76164294465E+03  0.65864270000E+03 0.  1.
    8880022    1    1    2    0    0  0.31389103999E+03  0.17629931055E+03 -0.11148213761E+04  0.11814513894E+04  0.15294330000E+03 0.  0.
<mgrwt>
<rscale>  0 0.63774718E+03</rscale>
<asrwt>0</asrwt>
<pdfrwt beam="1">  1        2 0.24515920E+00 0.75061258E+03</pdfrwt>
<pdfrwt beam="2">  1       -2 0.53778388E-01 0.75061258E+03</pdfrwt>
<totfact> 0.37515010E+01</totfact>
</mgrwt>
</event>
<event>
 4    2  0.3855935E-007  0.9817838E+03  0.7818608E-02  0.9405788E-01
          2   -1    0    0  501    0  0.00000000000E+00  0.00000000000E+00  0.16765595729E+04  0.16765595729E+04  0.25500000000E-02 0. -1.
         -2   -1    0    0    0  501 -0.00000000000E+00 -0.00000000000E+00 -0.74183979934E+03  0.74183979935E+03  0.25500000000E-02 0.  1.
    8880023    1    1    2    0    0 -0.16597384352E+02  0.72788304032E+03  0.12676136109E+04  0.16033538806E+04  0.65864270000E+03 0.  0.
    8880022    1    1    2    0    0  0.16597384352E+02 -0.72788304032E+03 -0.33289383735E+03  0.81504549168E+03  0.15294330000E+03 0.  0.
<mgrwt>
<rscale>  0 0.91600895E+03</rscale>
<asrwt>0</asrwt>
<pdfrwt beam="1">  1        2 0.25793224E+00 0.98178378E+03</pdfrwt>
<pdfrwt beam="2">  1       -2 0.11412920E+00 0.98178378E+03</pdfrwt>
<totfact> 0.60579054E+00</totfact>
</mgrwt>
</event>
<event>
 4    2  0.3855935E-007  0.8040429E+03  0.7818608E-02  0.9702122E-01
          2   -1    0    0  501    0  0.00000000000E+00  0.00000000000E+00  0.14683337406E+04  0.14683337406E+04  0.25500000000E-02 0. -1.
         -2   -1    0    0    0  501 -0.00000000000E+00 -0.00000000000E+00 -0.40015089391E+03  0.40015089392E+03  0.25500000000E-02 0.  1.
    8880023    1    1    2    0    0 -0.12972916766E+03  0.44254389183E+03  0.13348347743E+03  0.81504772753E+03  0.65864270000E+03 0.  0.
    8880022    1    1    2    0    0  0.12972916766E+03 -0.44254389183E+03  0.93469936927E+03  0.10534369070E+04  0.15294330000E+03 0.  0.
<mgrwt>
<rscale>  0 0.70890605E+03</rscale>
<asrwt>0</asrwt>
<pdfrwt beam="1">  1        2 0.22589750E+00 0.80404288E+03</pdfrwt>
<pdfrwt beam="2">  1       -2 0.61561675E-01 0.80404288E+03</pdfrwt>
<totfact> 0.32981971E+01</totfact>
</mgrwt>
</event>
<event>
 4    2  0.3855935E-007  0.6779932E+03  0.7818608E-02  0.1010482E+00
         -2   -1    0    0    0  501 -0.00000000000E+00  0.00000000000E+00  0.25816631788E+03  0.25816631789E+03  0.25500000000E-02 0.  1.
          2   -1    0    0  501    0  0.00000000000E+00 -0.00000000000E+00 -0.20998439296E+04  0.20998439296E+04  0.25500000000E-02 0. -1.
    8880023    1    1    2    0    0 -0.88428685096E+01  0.16058158187E+03 -0.20779295586E+03  0.70912111767E+03  0.65864270000E+03 0.  1.
    8880022    1    1    2    0    0  0.88428685096E+01 -0.16058158187E+03 -0.16338846559E+04  0.16488891298E+04  0.15294330000E+03 0.  0.
<mgrwt>
<rscale>  0 0.51283392E+03</rscale>
<asrwt>0</asrwt>
<pdfrwt beam="1">  1        2 0.32305290E+00 0.67799325E+03</pdfrwt>
<pdfrwt beam="2">  1       -2 0.39717896E-01 0.67799325E+03</pdfrwt>
<totfact> 0.36786375E+01</totfact>
</mgrwt>
</event>
<event>
 4    2  0.3855935E-007  0.7067288E+03  0.7818608E-02  0.9970355E-01
          2   -1    0    0  501    0  0.00000000000E+00  0.00000000000E+00  0.23309368785E+04  0.23309368785E+04  0.25500000000E-02 0. -1.
         -2   -1    0    0    0  501 -0.00000000000E+00 -0.00000000000E+00 -0.34364302509E+03  0.34364302510E+03  0.25500000000E-02 0.  1.
    8880023    1    1    2    0    0 -0.22560448414E+03 -0.12148271019E+03  0.43556472731E+02  0.70806977391E+03  0.65864270000E+03 0.  0.
    8880022    1    1    2    0    0  0.22560448414E+03  0.12148271019E+03  0.19437373807E+04  0.19665101297E+04  0.15294330000E+03 0. -1.
<mgrwt>
<rscale>  0 0.56969456E+03</rscale>
<asrwt>0</asrwt>
<pdfrwt beam="1">  1        2 0.35860568E+00 0.70672883E+03</pdfrwt>
<pdfrwt beam="2">  1       -2 0.52868156E-01 0.70672883E+03</pdfrwt>
<totfact> 0.15423611E+01</totfact>
</mgrwt>
</event>
<event>
 4    2  0.3855935E-007  0.8467824E+03  0.7818608E-02  0.9617522E-01
         -2   -1    0    0    0  501 -0.00000000000E+00  0.00000000000E+00  0.16481357690E+03  0.16481357692E+03  0.25500000000E-02 0.  1.
          2   -1    0    0  501    0  0.00000000000E+00 -0.00000000000E+00 -0.53927448702E+04  0.53927448702E+04  0.25500000000E-02 0. -1.
    8880023    1    1    2    0    0  0.29460993427E+03  0.44321019067E+03 -0.10778266551E+04  0.13706753048E+04  0.65864270000E+03 0. -1.
    8880022    1    1    2    0    0 -0.29460993427E+03 -0.44321019067E+03 -0.41501046381E+04  0.41868831423E+04  0.15294330000E+03 0.  0.
<mgrwt>
<rscale>  0 0.76147261E+03</rscale>
<asrwt>0</asrwt>
<pdfrwt beam="1">  1        2 0.82965292E+00 0.84678244E+03</pdfrwt>
<pdfrwt beam="2">  1       -2 0.25355939E-01 0.84678244E+03</pdfrwt>
<totfact> 0.15262616E-01</totfact>
</mgrwt>
</event>
<event>
 4    2  0.3855935E-007  0.6826859E+03  0.7818608E-02  0.1007843E+00
         -2   -1    0    0    0  501 -0.00000000000E+00  0.00000000000E+00  0.14936966991E+03  0.14936966993E+03  0.25500000000E-02 0.  1.
          2   -1    0    0  501    0  0.00000000000E+00 -0.00000000000E+00 -0.22459802153E+04  0.22459802153E+04  0.25500000000E-02 0. -1.
    8880023    1    1    2    0    0  0.70220218034E+02 -0.16528443239E+03 -0.69566458924E+03  0.97468417941E+03  0.65864270000E+03 0. -1.
    8880022    1    1    2    0    0 -0.70220218034E+02  0.16528443239E+03 -0.14009459561E+04  0.14206657058E+04  0.15294330000E+03 0.  0.
<mgrwt>
<rscale>  0 0.52340821E+03</rscale>
<asrwt>0</asrwt>
<pdfrwt beam="1">  1        2 0.34553539E+00 0.68268589E+03</pdfrwt>
<pdfrwt beam="2">  1       -2 0.22979951E-01 0.68268589E+03</pdfrwt>
<totfact> 0.84460970E+01</totfact>
</mgrwt>
</event>
<event>
 4    2  0.3855935E-007  0.1340179E+04  0.7818608E-02  0.9031617E-01
         -2   -1    0    0    0  501 -0.00000000000E+00  0.00000000000E+00  0.10076770458E+04  0.10076770458E+04  0.25500000000E-02 0.  1.
          2   -1    0    0  501    0  0.00000000000E+00 -0.00000000000E+00 -0.21229400735E+04  0.21229400735E+04  0.25500000000E-02 0. -1.
    8880023    1    1    2    0    0  0.10422898496E+03  0.11625000888E+04  0.21168325092E+03  0.13567940680E+04  0.65864270000E+03 0.  0.
    8880022    1    1    2    0    0 -0.10422898496E+03 -0.11625000888E+04 -0.13269462786E+04  0.17738230513E+04  0.15294330000E+03 0.  0.
<mgrwt>
<rscale>  0 0.12974162E+04</rscale>
<asrwt>0</asrwt>
<pdfrwt beam="1">  1        2 0.32660616E+00 0.13401792E+04</pdfrwt>
<pdfrwt beam="2">  1       -2 0.15502724E+00 0.13401792E+04</pdfrwt>
<totfact> 0.15007696E+00</totfact>
</mgrwt>
</event>
<event>
 4    2  0.3855935E-007  0.8222812E+03  0.7818608E-02  0.9664542E-01
         -2   -1    0    0    0  501 -0.00000000000E+00  0.00000000000E+00  0.11551093670E+04  0.11551093671E+04  0.25500000000E-02 0.  1.
          2   -1    0    0  501    0  0.00000000000E+00 -0.00000000000E+00 -0.91397029887E+03  0.91397029887E+03  0.25500000000E-02 0. -1.
    8880023    1    1    2    0    0 -0.49089018811E+03  0.36918883304E+02  0.90879253556E+03  0.12255816006E+04  0.65864270000E+03 0.  1.
    8880022    1    1    2    0    0  0.49089018811E+03 -0.36918883304E+02 -0.66765346737E+03  0.84349806534E+03  0.15294330000E+03 0.  0.
<mgrwt>
<rscale>  0 0.73167785E+03</rscale>
<asrwt>0</asrwt>
<pdfrwt beam="1">  1        2 0.14061082E+00 0.82228121E+03</pdfrwt>
<pdfrwt beam="2">  1       -2 0.17770913E+00 0.82228121E+03</pdfrwt>
<totfact> 0.54548582E+00</totfact>
</mgrwt>
</event>
<event>
 4    2  0.3855935E-007  0.7539499E+03  0.7818608E-02  0.9821030E-01
          2   -1    0    0  501    0  0.00000000000E+00  0.00000000000E+00  0.71459199627E+03  0.71459199628E+03  0.25500000000E-02 0. -1.
         -2   -1    0    0    0  501 -0.00000000000E+00 -0.00000000000E+00 -0.82986217164E+03  0.82986217165E+03  0.25500000000E-02 0.  1.
    8880023    1    1    2    0    0 -0.34856875400E+03 -0.11458683275E+03 -0.56652721791E+03  0.94307667419E+03  0.65864270000E+03 0.  1.
    8880022    1    1    2    0    0  0.34856875400E+03  0.11458683275E+03  0.45125704254E+03  0.60137749373E+03  0.15294330000E+03 0.  0.
<mgrwt>
<rscale>  0 0.64246071E+03</rscale>
<asrwt>0</asrwt>
<pdfrwt beam="1">  1        2 0.10993723E+00 0.75394995E+03</pdfrwt>
<pdfrwt beam="2">  1       -2 0.12767110E+00 0.75394995E+03</pdfrwt>
<totfact> 0.18394277E+01</totfact>
</mgrwt>
</event>
<event>
 4    2  0.3855935E-007  0.6652464E+03  0.7818608E-02  0.1019328E+00
          2   -1    0    0  501    0  0.00000000000E+00  0.00000000000E+00  0.23322841475E+04  0.23322841475E+04  0.25500000000E-02 0. -1.
         -2   -1    0    0    0  501 -0.00000000000E+00 -0.00000000000E+00 -0.13957645217E+03  0.13957645219E+03  0.25500000000E-02 0.  1.
    8880023    1    1    2    0    0 -0.48984431998E+02  0.79643221478E+02  0.68987237233E+03  0.95837185563E+03  0.65864270000E+03 0.  0.
    8880022    1    1    2    0    0  0.48984431998E+02 -0.79643221478E+02  0.15028353230E+04  0.15134887440E+04  0.15294330000E+03 0. -1.
<mgrwt>
<rscale>  0 0.47930037E+03</rscale>
<asrwt>0</asrwt>
<pdfrwt beam="1">  1        2 0.35881293E+00 0.66524636E+03</pdfrwt>
<pdfrwt beam="2">  1       -2 0.21473302E-01 0.66524636E+03</pdfrwt>
<totfact> 0.85521182E+01</totfact>
</mgrwt>
</event>
<event>
 4    2  0.3855935E-007  0.6758940E+03  0.7818608E-02  0.1011749E+00
          2   -1    0    0  501    0  0.00000000000E+00  0.00000000000E+00  0.39836647764E+04  0.39836647764E+04  0.25500000000E-02 0. -1.
         -2   -1    0    0    0  501 -0.00000000000E+00 -0.00000000000E+00 -0.81154750679E+02  0.81154750719E+02  0.25500000000E-02 0.  1.
    8880023    1    1    2    0    0 -0.49248603160E+02  0.14351655823E+03  0.14165001204E+04  0.15694920276E+04  0.65864270000E+03 0.  1.
    8880022    1    1    2    0    0  0.49248603160E+02 -0.14351655823E+03  0.24860099054E+04  0.24953274995E+04  0.15294330000E+03 0.  0.
<mgrwt>
<rscale>  0 0.50785548E+03</rscale>
<asrwt>0</asrwt>
<pdfrwt beam="1">  1        2 0.61287133E+00 0.67589395E+03</pdfrwt>
<pdfrwt beam="2">  1       -2 0.12485350E-01 0.67589395E+03</pdfrwt>
<totfact> 0.18763570E+01</totfact>
</mgrwt>
</event>
<event>
 4    2  0.3855935E-007  0.6732792E+03  0.7818608E-02  0.1013414E+00
          2   -1    0    0  501    0  0.00000000000E+00  0.00000000000E+00  0.26032558551E+04  0.26032558551E+04  0.25500000000E-02 0. -1.
         -2   -1    0    0    0  501 -0.00000000000E+00 -0.00000000000E+00 -0.75619214365E+02  0.75619214408E+02  0.25500000000E-02 0.  1.
    8880023    1    1    2    0    0  0.82067577724E+02 -0.11295820595E+03  0.17796672815E+04  0.19027665339E+04  0.65864270000E+03 0.  1.
    8880022    1    1    2    0    0 -0.82067577724E+02  0.11295820595E+03  0.74796935932E+03  0.77610853565E+03  0.15294330000E+03 0. -1.
<mgrwt>
<rscale>  0 0.50140217E+03</rscale>
<asrwt>0</asrwt>
<pdfrwt beam="1">  1        2 0.40050087E+00 0.67327918E+03</pdfrwt>
<pdfrwt beam="2">  1       -2 0.11633726E-01 0.67327918E+03</pdfrwt>
<totfact> 0.17044452E+02</totfact>
</mgrwt>
</event>
<event>
 4    2  0.3855935E-007  0.7941835E+03  0.7818608E-02  0.9723517E-01
          2   -1    0    0  501    0  0.00000000000E+00  0.00000000000E+00  0.21615284052E+04  0.21615284052E+04  0.25500000000E-02 0. -1.
         -2   -1    0    0    0  501 -0.00000000000E+00 -0.00000000000E+00 -0.20222161402E+03  0.20222161404E+03  0.25500000000E-02 0.  1.
    8880023    1    1    2    0    0 -0.18424329437E+03 -0.40369738542E+03  0.87197038273E+03  0.11794319502E+04  0.65864270000E+03 0.  0.
    8880022    1    1    2    0    0  0.18424329437E+03  0.40369738542E+03  0.10873364085E+04  0.11843180691E+04  0.15294330000E+03 0. -1.
<mgrwt>
<rscale>  0 0.69633723E+03</rscale>
<asrwt>0</asrwt>
<pdfrwt beam="1">  1        2 0.33254281E+00 0.79418347E+03</pdfrwt>
<pdfrwt beam="2">  1       -2 0.31111020E-01 0.79418347E+03</pdfrwt>
<totfact> 0.53394829E+01</totfact>
</mgrwt>
</event>
<event>
 4    2  0.3855935E-007  0.8288115E+03  0.7818608E-02  0.9651649E-01
          2   -1    0    0  501    0  0.00000000000E+00  0.00000000000E+00  0.16123776297E+04  0.16123776297E+04  0.25500000000E-02 0. -1.
         -2   -1    0    0    0  501 -0.00000000000E+00 -0.00000000000E+00 -0.47966308476E+03  0.47966308477E+03  0.25500000000E-02 0.  1.
    8880023    1    1    2    0    0  0.32245090118E+03  0.38619138132E+03 -0.15702696958E+02  0.82896028110E+03  0.65864270000E+03 0.  0.
    8880022    1    1    2    0    0 -0.32245090118E+03 -0.38619138132E+03  0.11484172419E+04  0.12630804334E+04  0.15294330000E+03 0.  0.
<mgrwt>
<rscale>  0 0.73970014E+03</rscale>
<asrwt>0</asrwt>
<pdfrwt beam="1">  1        2 0.24805810E+00 0.82881154E+03</pdfrwt>
<pdfrwt beam="2">  1       -2 0.73794319E-01 0.82881154E+03</pdfrwt>
<totfact> 0.18464654E+01</totfact>
</mgrwt>
</event>
<event>
 4    2  0.3855935E-007  0.1390656E+04  0.7818608E-02  0.8990977E-01
         -2   -1    0    0    0  501 -0.00000000000E+00  0.00000000000E+00  0.81030804500E+03  0.81030804500E+03  0.25500000000E-02 0.  1.
          2   -1    0    0  501    0  0.00000000000E+00 -0.00000000000E+00 -0.31003020426E+04  0.31003020426E+04  0.25500000000E-02 0. -1.
    8880023    1    1    2    0    0  0.11577735262E+04 -0.39959263386E+03 -0.96895181936E+02  0.13940275081E+04  0.65864270000E+03 0. -1.
    8880022    1    1    2    0    0 -0.11577735262E+04  0.39959263386E+03 -0.21930988156E+04  0.25165825794E+04  0.15294330000E+03 0.  0.
<mgrwt>
<rscale>  0 0.13498027E+04</rscale>
<asrwt>0</asrwt>
<pdfrwt beam="1">  1        2 0.47696954E+00 0.13906560E+04</pdfrwt>
<pdfrwt beam="2">  1       -2 0.12466278E+00 0.13906560E+04</pdfrwt>
<totfact> 0.70064442E-01</totfact>
</mgrwt>
</event>
<event>
 4    2  0.3855935E-007  0.8505968E+03  0.7818608E-02  0.9610514E-01
         -2   -1    0    0    0  501 -0.00000000000E+00  0.00000000000E+00  0.77321886371E+03  0.77321886372E+03  0.25500000000E-02 0.  1.
          2   -1    0    0  501    0  0.00000000000E+00 -0.00000000000E+00 -0.14726784238E+04  0.14726784238E+04  0.25500000000E-02 0. -1.
    8880023    1    1    2    0    0  0.37564970734E+03 -0.38547635226E+03  0.45378654825E+03  0.96407321216E+03  0.65864270000E+03 0.  1.
    8880022    1    1    2    0    0 -0.37564970734E+03  0.38547635226E+03 -0.11532461083E+04  0.12818240754E+04  0.15294330000E+03 0.  0.
<mgrwt>
<rscale>  0 0.76604197E+03</rscale>
<asrwt>0</asrwt>
<pdfrwt beam="1">  1        2 0.22656591E+00 0.85059681E+03</pdfrwt>
<pdfrwt beam="2">  1       -2 0.11895675E+00 0.85059681E+03</pdfrwt>
<totfact> 0.72162350E+00</totfact>
</mgrwt>
</event>
<event>
 4    2  0.3855935E-007  0.6767823E+03  0.7818608E-02  0.1011206E+00
          2   -1    0    0  501    0  0.00000000000E+00  0.00000000000E+00  0.15344389394E+04  0.15344389394E+04  0.25500000000E-02 0. -1.
         -2   -1    0    0    0  501 -0.00000000000E+00 -0.00000000000E+00 -0.25082476376E+03  0.25082476377E+03  0.25500000000E-02 0.  1.
    8880023    1    1    2    0    0  0.19555594486E+02 -0.15440747742E+03  0.13873702490E+04  0.15436419612E+04  0.65864270000E+03 0. -1.
    8880022    1    1    2    0    0 -0.19555594486E+02  0.15440747742E+03 -0.10375607344E+03  0.24162174188E+03  0.15294330000E+03 0.  0.
<mgrwt>
<rscale>  0 0.50998285E+03</rscale>
<asrwt>0</asrwt>
<pdfrwt beam="1">  1        2 0.23606753E+00 0.67678231E+03</pdfrwt>
<pdfrwt beam="2">  1       -2 0.38588425E-01 0.67678231E+03</pdfrwt>
<totfact> 0.79140474E+01</totfact>
</mgrwt>
</event>
<event>
 4    2  0.3855935E-007  0.7164732E+03  0.7818608E-02  0.9934705E-01
         -2   -1    0    0    0  501 -0.00000000000E+00  0.00000000000E+00  0.21711239251E+03  0.21711239252E+03  0.25500000000E-02 0.  1.
          2   -1    0    0  501    0  0.00000000000E+00 -0.00000000000E+00 -0.12735305609E+04  0.12735305609E+04  0.25500000000E-02 0. -1.
    8880023    1    1    2    0    0  0.18323762344E+03 -0.21435388561E+03 -0.61038657408E+03  0.94122557923E+03  0.65864270000E+03 0.  0.
    8880022    1    1    2    0    0 -0.18323762344E+03  0.21435388561E+03 -0.44603159430E+03  0.54941737418E+03  0.15294330000E+03 0.  0.
<mgrwt>
<rscale>  0 0.58608409E+03</rscale>
<asrwt>0</asrwt>
<pdfrwt beam="1">  1        2 0.19592777E+00 0.71647318E+03</pdfrwt>
<pdfrwt beam="2">  1       -2 0.33401907E-01 0.71647318E+03</pdfrwt>
<totfact> 0.14582100E+02</totfact>
</mgrwt>
</event>
<event>
 4    2  0.3855935E-007  0.6599453E+03  0.7818608E-02  0.1024213E+00
          2   -1    0    0  501    0  0.00000000000E+00  0.00000000000E+00  0.26238998145E+04  0.26238998145E+04  0.25500000000E-02 0. -1.
         -2   -1    0    0    0  501 -0.00000000000E+00 -0.00000000000E+00 -0.10917346607E+03  0.10917346610E+03  0.25500000000E-02 0.  1.
    8880023    1    1    2    0    0  0.18877347636E+01 -0.41400359287E+02  0.92954677586E+03  0.11399934070E+04  0.65864270000E+03 0.  1.
    8880022    1    1    2    0    0 -0.18877347636E+01  0.41400359287E+02  0.15851795726E+04  0.15930798736E+04  0.15294330000E+03 0.  0.
<mgrwt>
<rscale>  0 0.46196605E+03</rscale>
<asrwt>0</asrwt>
<pdfrwt beam="1">  1        2 0.40367686E+00 0.65994527E+03</pdfrwt>
<pdfrwt beam="2">  1       -2 0.16795919E-01 0.65994527E+03</pdfrwt>
<totfact> 0.89773640E+01</totfact>
</mgrwt>
</event>
<event>
 4    2  0.4415509E-007  0.1425911E+04  0.7818608E-02  0.8963806E-01
          2   -1    0    0  501    0  0.00000000000E+00  0.00000000000E+00  0.28543169706E+04  0.28543169706E+04  0.25500000000E-02 0. -1.
         -2   -1    0    0    0  501 -0.00000000000E+00 -0.00000000000E+00 -0.17747309596E+04  0.17747309596E+04  0.25500000000E-02 0.  1.
    8880023    1    1    2    0    0 -0.31742869942E+03  0.12241942586E+04 -0.13002348416E+04  0.19297236620E+04  0.65864270000E+03 0.  1.
    8880022    1    1    2    0    0  0.31742869942E+03 -0.12241942586E+04  0.23798208525E+04  0.26993242682E+04  0.15294330000E+03 0.  0.
<mgrwt>
<rscale>  0 0.13862853E+04</rscale>
<asrwt>0</asrwt>
<pdfrwt beam="1">  1        2 0.43912569E+00 0.14259112E+04</pdfrwt>
<pdfrwt beam="2">  1       -2 0.27303553E+00 0.14259112E+04</pdfrwt>
<totfact> 0.94496446E-02</totfact>
</mgrwt>
</event>
<event>
 4    2  0.3855935E-007  0.1045018E+04  0.7818608E-02  0.9324894E-01
          2   -1    0    0  501    0  0.00000000000E+00  0.00000000000E+00  0.14061834420E+04  0.14061834420E+04  0.25500000000E-02 0. -1.
         -2   -1    0    0    0  501 -0.00000000000E+00 -0.00000000000E+00 -0.81162494238E+03  0.81162494239E+03  0.25500000000E-02 0.  1.
    8880023    1    1    2    0    0  0.81089490560E+03  0.26503364553E+02 -0.20898683823E+03  0.10657104115E+04  0.65864270000E+03 0.  0.
    8880022    1    1    2    0    0 -0.81089490560E+03 -0.26503364553E+02  0.80354533785E+03  0.11520979729E+04  0.15294330000E+03 0.  0.
<mgrwt>
<rscale>  0 0.98523008E+03</rscale>
<asrwt>0</asrwt>
<pdfrwt beam="1">  1        2 0.21633591E+00 0.10450183E+04</pdfrwt>
<pdfrwt beam="2">  1       -2 0.12486538E+00 0.10450183E+04</pdfrwt>
<totfact> 0.68220976E+00</totfact>
</mgrwt>
</event>
<event>
 4    2  0.3855935E-007  0.7449703E+03  0.7818608E-02  0.9845698E-01
          2   -1    0    0  501    0  0.00000000000E+00  0.00000000000E+00  0.90572301493E+03  0.90572301493E+03  0.25500000000E-02 0. -1.
         -2   -1    0    0    0  501 -0.00000000000E+00 -0.00000000000E+00 -0.38249593968E+03  0.38249593969E+03  0.25500000000E-02 0.  1.
    8880023    1    1    2    0    0 -0.34695549948E+03  0.28150472959E+02  0.15910448750E+03  0.76177097080E+03  0.65864270000E+03 0.  1.
    8880022    1    1    2    0    0  0.34695549948E+03 -0.28150472959E+02  0.36412258775E+03  0.52644798382E+03  0.15294330000E+03 0. -1.
<mgrwt>
<rscale>  0 0.62966721E+03</rscale>
<asrwt>0</asrwt>
<pdfrwt beam="1">  1        2 0.13934200E+00 0.74497032E+03</pdfrwt>
<pdfrwt beam="2">  1       -2 0.58845529E-01 0.74497032E+03</pdfrwt>
<totfact> 0.79519109E+01</totfact>
</mgrwt>
</event>
<event>
 4    2  0.3855935E-007  0.6676054E+03  0.7818608E-02  0.1017441E+00
          2   -1    0    0  501    0  0.00000000000E+00  0.00000000000E+00  0.79354714411E+03  0.79354714412E+03  0.25500000000E-02 0. -1.
         -2   -1    0    0    0  501 -0.00000000000E+00 -0.00000000000E+00 -0.30423633641E+03  0.30423633642E+03  0.25500000000E-02 0.  1.
    8880023    1    1    2    0    0 -0.69896583926E+02 -0.83673402648E+02  0.11286060487E+03  0.67707790774E+03  0.65864270000E+03 0.  1.
    8880022    1    1    2    0    0  0.69896583926E+02  0.83673402648E+02  0.37645020283E+03  0.42070557280E+03  0.15294330000E+03 0. -1.
<mgrwt>
<rscale>  0 0.48621520E+03</rscale>
<asrwt>0</asrwt>
<pdfrwt beam="1">  1        2 0.12208418E+00 0.66760541E+03</pdfrwt>
<pdfrwt beam="2">  1       -2 0.46805590E-01 0.66760541E+03</pdfrwt>
<totfact> 0.15305382E+02</totfact>
</mgrwt>
</event>
<event>
 4    2  0.3855935E-007  0.6911993E+03  0.7818608E-02  0.1003588E+00
         -2   -1    0    0    0  501 -0.00000000000E+00  0.00000000000E+00  0.18066807183E+03  0.18066807185E+03  0.25500000000E-02 0.  1.
          2   -1    0    0  501    0  0.00000000000E+00 -0.00000000000E+00 -0.15279939173E+04  0.15279939173E+04  0.25500000000E-02 0. -1.
    8880023    1    1    2    0    0 -0.38235878230E+02 -0.20611710059E+03 -0.59221159862E+03  0.91020383725E+03  0.65864270000E+03 0.  1.
    8880022    1    1    2    0    0  0.38235878230E+02  0.20611710059E+03 -0.75511424685E+03  0.79845815191E+03  0.15294330000E+03 0. -1.
<mgrwt>
<rscale>  0 0.54104688E+03</rscale>
<asrwt>0</asrwt>
<pdfrwt beam="1">  1        2 0.23507598E+00 0.69119928E+03</pdfrwt>
<pdfrwt beam="2">  1       -2 0.27795089E-01 0.69119928E+03</pdfrwt>
<totfact> 0.14770346E+02</totfact>
</mgrwt>
</event>
<event>
 4    2  0.3855935E-007  0.9885745E+03  0.7818608E-02  0.9396661E-01
         -2   -1    0    0    0  501 -0.00000000000E+00  0.00000000000E+00  0.65624991602E+03  0.65624991603E+03  0.25500000000E-02 0.  1.
          2   -1    0    0  501    0  0.00000000000E+00 -0.00000000000E+00 -0.13712778141E+04  0.13712778141E+04  0.25500000000E-02 0. -1.
    8880023    1    1    2    0    0 -0.73098208375E+03  0.95574410078E+02  0.90651748321E+00  0.98857488470E+03  0.65864270000E+03 0.  0.
    8880022    1    1    2    0    0  0.73098208375E+03 -0.95574410078E+02 -0.71593441558E+03  0.10389528454E+04  0.15294330000E+03 0.  0.
<mgrwt>
<rscale>  0 0.92351001E+03</rscale>
<asrwt>0</asrwt>
<pdfrwt beam="1">  1        2 0.21096582E+00 0.98857447E+03</pdfrwt>
<pdfrwt beam="2">  1       -2 0.10096153E+00 0.98857447E+03</pdfrwt>
<totfact> 0.12084630E+01</totfact>
</mgrwt>
</event>
<event>
 4    2  0.3855935E-007  0.7020534E+03  0.7818608E-02  0.9988787E-01
          2   -1    0    0  501    0  0.00000000000E+00  0.00000000000E+00  0.94139068952E+03  0.94139068952E+03  0.25500000000E-02 0. -1.
         -2   -1    0    0    0  501 -0.00000000000E+00 -0.00000000000E+00 -0.29189014434E+03  0.29189014436E+03  0.25500000000E-02 0.  1.
    8880023    1    1    2    0    0  0.23953738586E+03  0.41117704195E+02  0.25843818192E+03  0.74811050317E+03  0.65864270000E+03 0.  1.
    8880022    1    1    2    0    0 -0.23953738586E+03 -0.41117704195E+02  0.39106236326E+03  0.48517033070E+03  0.15294330000E+03 0.  1.
<mgrwt>
<rscale>  0 0.56144647E+03</rscale>
<asrwt>0</asrwt>
<pdfrwt beam="1">  1        2 0.14482934E+00 0.70205344E+03</pdfrwt>
<pdfrwt beam="2">  1       -2 0.44906176E-01 0.70205344E+03</pdfrwt>
<totfact> 0.13134863E+02</totfact>
</mgrwt>
</event>
<event>
 4    2  0.3855935E-007  0.1070134E+04  0.7818608E-02  0.9295060E-01
          2   -1    0    0  501    0  0.00000000000E+00  0.00000000000E+00  0.11786562637E+04  0.11786562637E+04  0.25500000000E-02 0. -1.
         -2   -1    0    0    0  501 -0.00000000000E+00 -0.00000000000E+00 -0.16964170020E+04  0.16964170020E+04  0.25500000000E-02 0.  1.
    8880023    1    1    2    0    0  0.73888221029E+03  0.40673160207E+03  0.77686730390E+03  0.13223881922E+04  0.65864270000E+03 0. -1.
    8880022    1    1    2    0    0 -0.73888221029E+03 -0.40673160207E+03 -0.12946280422E+04  0.15526850735E+04  0.15294330000E+03 0.  0.
<mgrwt>
<rscale>  0 0.10123895E+04</rscale>
<asrwt>0</asrwt>
<pdfrwt beam="1">  1        2 0.18133173E+00 0.10701344E+04</pdfrwt>
<pdfrwt beam="2">  1       -2 0.26098723E+00 0.10701344E+04</pdfrwt>
<totfact> 0.10615106E+00</totfact>
</mgrwt>
</event>
<event>
 4    2  0.3855935E-007  0.9493085E+03  0.7818608E-02  0.9451110E-01
          2   -1    0    0  501    0  0.00000000000E+00  0.00000000000E+00  0.20815011532E+04  0.20815011532E+04  0.25500000000E-02 0. -1.
         -2   -1    0    0    0  501 -0.00000000000E+00 -0.00000000000E+00 -0.53554384848E+03  0.53554384849E+03  0.25500000000E-02 0.  1.
    8880023    1    1    2    0    0  0.27814640829E+03  0.62450855542E+03  0.33128847609E+02  0.94988635480E+03  0.65864270000E+03 0.  0.
    8880022    1    1    2    0    0 -0.27814640829E+03 -0.62450855542E+03  0.15128284571E+04  0.16671586469E+04  0.15294330000E+03 0.  0.
<mgrwt>
<rscale>  0 0.87986298E+03</rscale>
<asrwt>0</asrwt>
<pdfrwt beam="1">  1        2 0.32023095E+00 0.94930847E+03</pdfrwt>
<pdfrwt beam="2">  1       -2 0.82391359E-01 0.94930847E+03</pdfrwt>
<totfact> 0.78543427E+00</totfact>
</mgrwt>
</event>
<event>
 4    2  0.3855935E-007  0.1118066E+04  0.7818608E-02  0.9241204E-01
         -2   -1    0    0    0  501 -0.00000000000E+00  0.00000000000E+00  0.14797779825E+04  0.14797779825E+04  0.25500000000E-02 0.  1.
          2   -1    0    0  501    0  0.00000000000E+00 -0.00000000000E+00 -0.79657126676E+03  0.79657126677E+03  0.25500000000E-02 0. -1.
    8880023    1    1    2    0    0 -0.46540561477E+03 -0.77437654549E+03  0.76751517832E+03  0.13561530797E+04  0.65864270000E+03 0.  1.
    8880022    1    1    2    0    0  0.46540561477E+03  0.77437654549E+03 -0.84308462620E+02  0.92019616949E+03  0.15294330000E+03 0.  0.
<mgrwt>
<rscale>  0 0.10638076E+04</rscale>
<asrwt>0</asrwt>
<pdfrwt beam="1">  1        2 0.12254943E+00 0.11180660E+04</pdfrwt>
<pdfrwt beam="2">  1       -2 0.22765815E+00 0.11180660E+04</pdfrwt>
<totfact> 0.30119947E+00</totfact>
</mgrwt>
</event>
<event>
 4    2  0.3855935E-007  0.8024070E+03  0.7818608E-02  0.9705615E-01
          2   -1    0    0  501    0  0.00000000000E+00  0.00000000000E+00  0.22093175511E+04  0.22093175511E+04  0.25500000000E-02 0. -1.
         -2   -1    0    0    0  501 -0.00000000000E+00 -0.00000000000E+00 -0.30700616874E+03  0.30700616875E+03  0.25500000000E-02 0.  1.
    8880023    1    1    2    0    0  0.41011208012E+03 -0.20458482182E+03  0.32337342729E+03  0.86511701366E+03  0.65864270000E+03 0.  0.
    8880022    1    1    2    0    0 -0.41011208012E+03  0.20458482182E+03  0.15789379551E+04  0.16512067062E+04  0.15294330000E+03 0.  0.
<mgrwt>
<rscale>  0 0.70683430E+03</rscale>
<asrwt>0</asrwt>
<pdfrwt beam="1">  1        2 0.33989501E+00 0.80240705E+03</pdfrwt>
<pdfrwt beam="2">  1       -2 0.47231719E-01 0.80240705E+03</pdfrwt>
<totfact> 0.22344186E+01</totfact>
</mgrwt>
</event>
<event>
 4    2  0.3855935E-007  0.8091830E+03  0.7818608E-02  0.9691281E-01
          2   -1    0    0  501    0  0.00000000000E+00  0.00000000000E+00  0.20838756268E+04  0.20838756268E+04  0.25500000000E-02 0. -1.
         -2   -1    0    0    0  501 -0.00000000000E+00 -0.00000000000E+00 -0.20549444962E+03  0.20549444963E+03  0.25500000000E-02 0.  1.
    8880023    1    1    2    0    0 -0.46637568263E+03 -0.58827029156E+02  0.10646318944E+04  0.13372427504E+04  0.65864270000E+03 0. -1.
    8880022    1    1    2    0    0  0.46637568263E+03  0.58827029156E+02  0.81374928277E+03  0.95212732601E+03  0.15294330000E+03 0.  0.
<mgrwt>
<rscale>  0 0.71538281E+03</rscale>
<asrwt>0</asrwt>
<pdfrwt beam="1">  1        2 0.32059627E+00 0.80918298E+03</pdfrwt>
<pdfrwt beam="2">  1       -2 0.31614529E-01 0.80918298E+03</pdfrwt>
<totfact> 0.57069713E+01</totfact>
</mgrwt>
</event>
<event>
 4    2  0.3855935E-007  0.6797656E+03  0.7818608E-02  0.1009457E+00
          2   -1    0    0  501    0  0.00000000000E+00  0.00000000000E+00  0.15021040230E+04  0.15021040230E+04  0.25500000000E-02 0. -1.
         -2   -1    0    0    0  501 -0.00000000000E+00 -0.00000000000E+00 -0.22992439658E+03  0.22992439659E+03  0.25500000000E-02 0.  1.
    8880023    1    1    2    0    0  0.12984620855E+03  0.10682212343E+03  0.31676209802E+03  0.74994628936E+03  0.65864270000E+03 0.  1.
    8880022    1    1    2    0    0 -0.12984620855E+03 -0.10682212343E+03  0.95541752839E+03  0.98208213022E+03  0.15294330000E+03 0.  0.
<mgrwt>
<rscale>  0 0.51691181E+03</rscale>
<asrwt>0</asrwt>
<pdfrwt beam="1">  1        2 0.23109292E+00 0.67976556E+03</pdfrwt>
<pdfrwt beam="2">  1       -2 0.35372985E-01 0.67976556E+03</pdfrwt>
<totfact> 0.97431421E+01</totfact>
</mgrwt>
</event>
<event>
 4    2  0.3855935E-007  0.8831875E+03  0.7818608E-02  0.9553579E-01
         -2   -1    0    0    0  501 -0.00000000000E+00  0.00000000000E+00  0.28326015832E+03  0.28326015833E+03  0.25500000000E-02 0.  1.
          2   -1    0    0  501    0  0.00000000000E+00 -0.00000000000E+00 -0.30017565694E+04  0.30017565694E+04  0.25500000000E-02 0. -1.
    8880023    1    1    2    0    0  0.54136802446E+03 -0.23050092333E+03 -0.56759856298E+03  0.10498515840E+04  0.65864270000E+03 0.  0.
    8880022    1    1    2    0    0 -0.54136802446E+03  0.23050092333E+03 -0.21508978481E+04  0.22351651437E+04  0.15294330000E+03 0.  0.
<mgrwt>
<rscale>  0 0.80446367E+03</rscale>
<asrwt>0</asrwt>
<pdfrwt beam="1">  1        2 0.46180868E+00 0.88318753E+03</pdfrwt>
<pdfrwt beam="2">  1       -2 0.43578488E-01 0.88318753E+03</pdfrwt>
<totfact> 0.90218587E+00</totfact>
</mgrwt>
</event>
<event>
 4    2  0.3855935E-007  0.1174196E+04  0.7818608E-02  0.9182623E-01
          2   -1    0    0  501    0  0.00000000000E+00  0.00000000000E+00  0.32650822755E+04  0.32650822755E+04  0.25500000000E-02 0. -1.
         -2   -1    0    0    0  501 -0.00000000000E+00 -0.00000000000E+00 -0.48257426350E+03  0.48257426350E+03  0.25500000000E-02 0.  1.
    8880023    1    1    2    0    0 -0.25888585396E+03  0.93696544985E+03  0.52739591046E+03  0.12871995930E+04  0.65864270000E+03 0.  1.
    8880022    1    1    2    0    0  0.25888585396E+03 -0.93696544985E+03  0.22551121015E+04  0.24604569460E+04  0.15294330000E+03 0.  0.
<mgrwt>
<rscale>  0 0.11234602E+04</rscale>
<asrwt>0</asrwt>
<pdfrwt beam="1">  1        2 0.50232035E+00 0.11741960E+04</pdfrwt>
<pdfrwt beam="2">  1       -2 0.74242195E-01 0.11741960E+04</pdfrwt>
<totfact> 0.19243731E+00</totfact>
</mgrwt>
</event>
<event>
 4    2  0.3855935E-007  0.9073638E+03  0.7818608E-02  0.9514312E-01
         -2   -1    0    0    0  501 -0.00000000000E+00  0.00000000000E+00  0.13370324054E+04  0.13370324055E+04  0.25500000000E-02 0.  1.
          2   -1    0    0  501    0  0.00000000000E+00 -0.00000000000E+00 -0.67623654997E+03  0.67623654997E+03  0.25500000000E-02 0. -1.
    8880023    1    1    2    0    0 -0.57227437784E+03 -0.24899975003E+03  0.94550473125E+03  0.13104534490E+04  0.65864270000E+03 0.  1.
    8880022    1    1    2    0    0  0.57227437784E+03  0.24899975003E+03 -0.28470887577E+03  0.70281550638E+03  0.15294330000E+03 0.  0.
<mgrwt>
<rscale>  0 0.83236813E+03</rscale>
<asrwt>0</asrwt>
<pdfrwt beam="1">  1        2 0.10403639E+00 0.90736379E+03</pdfrwt>
<pdfrwt beam="2">  1       -2 0.20569729E+00 0.90736379E+03</pdfrwt>
<totfact> 0.52418652E+00</totfact>
</mgrwt>
</event>
<event>
 4    2  0.3855935E-007  0.7339574E+03  0.7818608E-02  0.9877912E-01
         -2   -1    0    0    0  501 -0.00000000000E+00  0.00000000000E+00  0.42943643669E+03  0.42943643669E+03  0.25500000000E-02 0.  1.
          2   -1    0    0  501    0  0.00000000000E+00 -0.00000000000E+00 -0.21827322333E+04  0.21827322333E+04  0.25500000000E-02 0. -1.
    8880023    1    1    2    0    0 -0.21238198208E+03  0.24449355285E+03  0.85405972803E+02  0.73890973072E+03  0.65864270000E+03 0.  1.
    8880022    1    1    2    0    0  0.21238198208E+03 -0.24449355285E+03 -0.18387017694E+04  0.18732589392E+04  0.15294330000E+03 0.  0.
<mgrwt>
<rscale>  0 0.61343820E+03</rscale>
<asrwt>0</asrwt>
<pdfrwt beam="1">  1        2 0.33580495E+00 0.73395736E+03</pdfrwt>
<pdfrwt beam="2">  1       -2 0.66067145E-01 0.73395736E+03</pdfrwt>
<totfact> 0.11601334E+01</totfact>
</mgrwt>
</event>
<event>
 4    2  0.3855935E-007  0.1219550E+04  0.7818608E-02  0.9138349E-01
          2   -1    0    0  501    0  0.00000000000E+00  0.00000000000E+00  0.91413735254E+03  0.91413735254E+03  0.25500000000E-02 0. -1.
         -2   -1    0    0    0  501 -0.00000000000E+00 -0.00000000000E+00 -0.18138128312E+04  0.18138128312E+04  0.25500000000E-02 0.  1.
    8880023    1    1    2    0    0  0.64449484127E+03  0.79882246036E+03 -0.11326492641E+04  0.16643904246E+04  0.65864270000E+03 0. -1.
    8880022    1    1    2    0    0 -0.64449484127E+03 -0.79882246036E+03  0.23297378548E+03  0.10635597592E+04  0.15294330000E+03 0.  1.
<mgrwt>
<rscale>  0 0.11713067E+04</rscale>
<asrwt>0</asrwt>
<pdfrwt beam="1">  1        2 0.14063652E+00 0.12195496E+04</pdfrwt>
<pdfrwt beam="2">  1       -2 0.27904813E+00 0.12195496E+04</pdfrwt>
<totfact> 0.11938629E+00</totfact>
</mgrwt>
</event>
<event>
 4    2  0.3855935E-007  0.1158622E+04  0.7818608E-02  0.9198433E-01
          2   -1    0    0  501    0  0.00000000000E+00  0.00000000000E+00  0.19097552712E+04  0.19097552712E+04  0.25500000000E-02 0. -1.
         -2   -1    0    0    0  501 -0.00000000000E+00 -0.00000000000E+00 -0.11108899311E+04  0.11108899311E+04  0.25500000000E-02 0.  1.
    8880023    1    1    2    0    0  0.10525170709E+03 -0.94737330634E+03 -0.61260462673E+03  0.13106062484E+04  0.65864270000E+03 0.  1.
    8880022    1    1    2    0    0 -0.10525170709E+03  0.94737330634E+03  0.14114699668E+04  0.17100389538E+04  0.15294330000E+03 0.  0.
<mgrwt>
<rscale>  0 0.11069612E+04</rscale>
<asrwt>0</asrwt>
<pdfrwt beam="1">  1        2 0.29380850E+00 0.11586217E+04</pdfrwt>
<pdfrwt beam="2">  1       -2 0.17090614E+00 0.11586217E+04</pdfrwt>
<totfact> 0.15375306E+00</totfact>
</mgrwt>
</event>
<event>
 4    2  0.3855935E-007  0.9145427E+03  0.7818608E-02  0.9503078E-01
          2   -1    0    0  501    0  0.00000000000E+00  0.00000000000E+00  0.22936131694E+04  0.22936131694E+04  0.25500000000E-02 0. -1.
         -2   -1    0    0    0  501 -0.00000000000E+00 -0.00000000000E+00 -0.58018078316E+03  0.58018078316E+03  0.25500000000E-02 0.  1.
    8880023    1    1    2    0    0  0.62079651636E+03  0.13111001910E+03 -0.12490851558E+03  0.92303331216E+03  0.65864270000E+03 0.  0.
    8880022    1    1    2    0    0 -0.62079651636E+03 -0.13111001910E+03  0.18383409019E+04  0.19507606404E+04  0.15294330000E+03 0.  0.
<mgrwt>
<rscale>  0 0.84057282E+03</rscale>
<asrwt>0</asrwt>
<pdfrwt beam="1">  1        2 0.35286357E+00 0.91454270E+03</pdfrwt>
<pdfrwt beam="2">  1       -2 0.89258581E-01 0.91454270E+03</pdfrwt>
<totfact> 0.50100002E+00</totfact>
</mgrwt>
</event>
<event>
 4    2  0.3855935E-007  0.1065999E+04  0.7818608E-02  0.9299891E-01
         -2   -1    0    0    0  501 -0.00000000000E+00  0.00000000000E+00  0.18754899882E+04  0.18754899882E+04  0.25500000000E-02 0.  1.
          2   -1    0    0  501    0  0.00000000000E+00 -0.00000000000E+00 -0.10162891103E+04  0.10162891103E+04  0.25500000000E-02 0. -1.
    8880023    1    1    2    0    0 -0.81417637566E+03 -0.19915109354E+03 -0.58426410029E+03  0.12156146897E+04  0.65864270000E+03 0. -1.
    8880022    1    1    2    0    0  0.81417637566E+03  0.19915109354E+03  0.14434649782E+04  0.16761644088E+04  0.15294330000E+03 0.  0.
<mgrwt>
<rscale>  0 0.10079291E+04</rscale>
<asrwt>0</asrwt>
<pdfrwt beam="1">  1        2 0.15635217E+00 0.10659993E+04</pdfrwt>
<pdfrwt beam="2">  1       -2 0.28853692E+00 0.10659993E+04</pdfrwt>
<totfact> 0.91218003E-01</totfact>
</mgrwt>
</event>
<event>
 4    2  0.3855935E-007  0.8890429E+03  0.7818608E-02  0.9543855E-01
         -2   -1    0    0    0  501 -0.00000000000E+00  0.00000000000E+00  0.21591442804E+03  0.21591442805E+03  0.25500000000E-02 0.  1.
          2   -1    0    0  501    0  0.00000000000E+00 -0.00000000000E+00 -0.31819874504E+04  0.31819874504E+04  0.25500000000E-02 0. -1.
    8880023    1    1    2    0    0  0.14407215804E+03  0.57950864762E+03 -0.10028963655E+04  0.13402232596E+04  0.65864270000E+03 0.  0.
    8880022    1    1    2    0    0 -0.14407215804E+03 -0.57950864762E+03 -0.19631766568E+04  0.20576786188E+04  0.15294330000E+03 0.  0.
<mgrwt>
<rscale>  0 0.81126351E+03</rscale>
<asrwt>0</asrwt>
<pdfrwt beam="1">  1        2 0.48953650E+00 0.88904289E+03</pdfrwt>
<pdfrwt beam="2">  1       -2 0.33217607E-01 0.88904289E+03</pdfrwt>
<totfact> 0.11767130E+01</totfact>
</mgrwt>
</event>
<event>
 4    2  0.3855935E-007  0.7937643E+03  0.7818608E-02  0.9724445E-01
          2   -1    0    0  501    0  0.00000000000E+00  0.00000000000E+00  0.10898015089E+04  0.10898015089E+04  0.25500000000E-02 0. -1.
         -2   -1    0    0    0  501 -0.00000000000E+00 -0.00000000000E+00 -0.41000610421E+03  0.41000610422E+03  0.25500000000E-02 0.  1.
    8880023    1    1    2    0    0  0.92180485546E+02 -0.43330634229E+03  0.17855969493E+03  0.81360026985E+03  0.65864270000E+03 0. -1.
    8880022    1    1    2    0    0 -0.92180485546E+02  0.43330634229E+03  0.50123570971E+03  0.68620734322E+03  0.15294330000E+03 0.  0.
<mgrwt>
<rscale>  0 0.69579841E+03</rscale>
<asrwt>0</asrwt>
<pdfrwt beam="1">  1        2 0.16766177E+00 0.79376434E+03</pdfrwt>
<pdfrwt beam="2">  1       -2 0.63077862E-01 0.79376434E+03</pdfrwt>
<totfact> 0.52111960E+01</totfact>
</mgrwt>
</event>
<event>
 4    2  0.3855935E-007  0.1214189E+04  0.7818608E-02  0.9143451E-01
          2   -1    0    0  501    0  0.00000000000E+00  0.00000000000E+00  0.20964579760E+04  0.20964579760E+04  0.25500000000E-02 0. -1.
         -2   -1    0    0    0  501 -0.00000000000E+00 -0.00000000000E+00 -0.69685669207E+03  0.69685669208E+03  0.25500000000E-02 0.  1.
    8880023    1    1    2    0    0 -0.57198166930E+03 -0.84456054573E+03  0.12645343059E+04  0.17530837865E+04  0.65864270000E+03 0.  0.
    8880022    1    1    2    0    0  0.57198166930E+03  0.84456054573E+03  0.13506697801E+03  0.10402308816E+04  0.15294330000E+03 0.  0.
<mgrwt>
<rscale>  0 0.11656662E+04</rscale>
<asrwt>0</asrwt>
<pdfrwt beam="1">  1        2 0.32253200E+00 0.12141893E+04</pdfrwt>
<pdfrwt beam="2">  1       -2 0.10720872E+00 0.12141893E+04</pdfrwt>
<totfact> 0.40325190E+00</totfact>
</mgrwt>
</event>
<event>
 4    2  0.3855935E-007  0.1535318E+04  0.7818608E-02  0.8885091E-01
         -2   -1    0    0    0  501 -0.00000000000E+00  0.00000000000E+00  0.99071264515E+03  0.99071264515E+03  0.25500000000E-02 0.  1.
          2   -1    0    0  501    0  0.00000000000E+00 -0.00000000000E+00 -0.42915513877E+04  0.42915513877E+04  0.25500000000E-02 0. -1.
    8880023    1    1    2    0    0 -0.49195119926E+03  0.12966784271E+04  0.16688842540E+03  0.15443616411E+04  0.65864270000E+03 0.  0.
    8880022    1    1    2    0    0  0.49195119926E+03 -0.12966784271E+04 -0.34677271679E+04  0.37379023917E+04  0.15294330000E+03 0.  0.
<mgrwt>
<rscale>  0 0.14990407E+04</rscale>
<asrwt>0</asrwt>
<pdfrwt beam="1">  1        2 0.66023867E+00 0.15353179E+04</pdfrwt>
<pdfrwt beam="2">  1       -2 0.15241733E+00 0.15353179E+04</pdfrwt>
<totfact> 0.53283865E-02</totfact>
</mgrwt>
</event>
<event>
 4    2  0.3855935E-007  0.1061550E+04  0.7818608E-02  0.9305125E-01
          2   -1    0    0  501    0  0.00000000000E+00  0.00000000000E+00  0.13569135147E+04  0.13569135147E+04  0.25500000000E-02 0. -1.
         -2   -1    0    0    0  501 -0.00000000000E+00 -0.00000000000E+00 -0.93625859137E+03  0.93625859138E+03  0.25500000000E-02 0.  1.
    8880023    1    1    2    0    0  0.76352946127E+03 -0.33181305664E+03 -0.38052019546E+03  0.11276892161E+04  0.65864270000E+03 0.  0.
    8880022    1    1    2    0    0 -0.76352946127E+03  0.33181305664E+03  0.80117511878E+03  0.11654828899E+04  0.15294330000E+03 0.  0.
<mgrwt>
<rscale>  0 0.10031245E+04</rscale>
<asrwt>0</asrwt>
<pdfrwt beam="1">  1        2 0.20875592E+00 0.10615495E+04</pdfrwt>
<pdfrwt beam="2">  1       -2 0.14403978E+00 0.10615495E+04</pdfrwt>
<totfact> 0.50353057E+00</totfact>
</mgrwt>
</event>
<event>
 4    2  0.3855935E-007  0.7435969E+03  0.7818608E-02  0.9849591E-01
         -2   -1    0    0    0  501 -0.00000000000E+00  0.00000000000E+00  0.73111022976E+03  0.73111022977E+03  0.25500000000E-02 0.  1.
          2   -1    0    0  501    0  0.00000000000E+00 -0.00000000000E+00 -0.18357069732E+04  0.18357069732E+04  0.25500000000E-02 0. -1.
    8880023    1    1    2    0    0 -0.25334363556E+03  0.23439956573E+03  0.51453451604E+03  0.90425777771E+03  0.65864270000E+03 0.  1.
    8880022    1    1    2    0    0  0.25334363556E+03 -0.23439956573E+03 -0.16191312594E+04  0.16625594252E+04  0.15294330000E+03 0.  0.
<mgrwt>
<rscale>  0 0.62767788E+03</rscale>
<asrwt>0</asrwt>
<pdfrwt beam="1">  1        2 0.28241646E+00 0.74359691E+03</pdfrwt>
<pdfrwt beam="2">  1       -2 0.11247850E+00 0.74359691E+03</pdfrwt>
<totfact> 0.53015744E+00</totfact>
</mgrwt>
</event>
<event>
 4    2  0.3855935E-007  0.8574402E+03  0.7818608E-02  0.9598133E-01
          2   -1    0    0  501    0  0.00000000000E+00  0.00000000000E+00  0.35450755633E+04  0.35450755633E+04  0.25500000000E-02 0. -1.
         -2   -1    0    0    0  501 -0.00000000000E+00 -0.00000000000E+00 -0.22709103724E+03  0.22709103725E+03  0.25500000000E-02 0.  1.
    8880023    1    1    2    0    0  0.39971662214E+03  0.37632437263E+03  0.74207065705E+03  0.11339631730E+04  0.65864270000E+03 0.  0.
    8880022    1    1    2    0    0 -0.39971662214E+03 -0.37632437263E+03  0.25759138690E+04  0.26382034275E+04  0.15294330000E+03 0.  0.
<mgrwt>
<rscale>  0 0.77419858E+03</rscale>
<asrwt>0</asrwt>
<pdfrwt beam="1">  1        2 0.54539621E+00 0.85744015E+03</pdfrwt>
<pdfrwt beam="2">  1       -2 0.34937085E-01 0.85744015E+03</pdfrwt>
<totfact> 0.61706778E+00</totfact>
</mgrwt>
</event>
<event>
 4    2  0.3855935E-007  0.1640905E+04  0.7818608E-02  0.8816057E-01
         -2   -1    0    0    0  501 -0.00000000000E+00  0.00000000000E+00  0.58976382986E+03  0.58976382987E+03  0.25500000000E-02 0.  1.
          2   -1    0    0  501    0  0.00000000000E+00 -0.00000000000E+00 -0.50829523780E+04  0.50829523780E+04  0.25500000000E-02 0. -1.
    8880023    1    1    2    0    0  0.44011780265E+03 -0.14370295332E+04 -0.34978487785E+04  0.38636140909E+04  0.65864270000E+03 0.  0.
    8880022    1    1    2    0    0 -0.44011780265E+03  0.14370295332E+04 -0.99533976960E+03  0.18091021170E+04  0.15294330000E+03 0.  0.
<mgrwt>
<rscale>  0 0.16073316E+04</rscale>
<asrwt>0</asrwt>
<pdfrwt beam="1">  1        2 0.78199264E+00 0.16409046E+04</pdfrwt>
<pdfrwt beam="2">  1       -2 0.90732900E-01 0.16409046E+04</pdfrwt>
<totfact> 0.27185737E-02</totfact>
</mgrwt>
</event>
<event>
 4    2  0.3855935E-007  0.6884515E+03  0.7818608E-02  0.1004897E+00
          2   -1    0    0  501    0  0.00000000000E+00  0.00000000000E+00  0.23855152417E+04  0.23855152417E+04  0.25500000000E-02 0. -1.
         -2   -1    0    0    0  501 -0.00000000000E+00 -0.00000000000E+00 -0.14476643462E+03  0.14476643465E+03  0.25500000000E-02 0.  1.
    8880023    1    1    2    0    0  0.94609315842E+02  0.17664757834E+03  0.74879871840E+03  0.10171848487E+04  0.65864270000E+03 0.  1.
    8880022    1    1    2    0    0 -0.94609315842E+02 -0.17664757834E+03  0.14919500886E+04  0.15130968276E+04  0.15294330000E+03 0.  0.
<mgrwt>
<rscale>  0 0.53553993E+03</rscale>
<asrwt>0</asrwt>
<pdfrwt beam="1">  1        2 0.36700235E+00 0.68845152E+03</pdfrwt>
<pdfrwt beam="2">  1       -2 0.22271759E-01 0.68845152E+03</pdfrwt>
<totfact> 0.74656519E+01</totfact>
</mgrwt>
</event>
<event>
 4    2  0.3855935E-007  0.7435651E+03  0.7818608E-02  0.9849681E-01
          2   -1    0    0  501    0  0.00000000000E+00  0.00000000000E+00  0.72390514679E+03  0.72390514679E+03  0.25500000000E-02 0. -1.
         -2   -1    0    0    0  501 -0.00000000000E+00 -0.00000000000E+00 -0.47449623761E+03  0.47449623762E+03  0.25500000000E-02 0.  1.
    8880023    1    1    2    0    0  0.10562534849E+03 -0.32851503273E+03 -0.43507792249E+01  0.74357782142E+03  0.65864270000E+03 0.  0.
    8880022    1    1    2    0    0 -0.10562534849E+03  0.32851503273E+03  0.25375968840E+03  0.45482356298E+03  0.15294330000E+03 0.  0.
<mgrwt>
<rscale>  0 0.62763169E+03</rscale>
<asrwt>0</asrwt>
<pdfrwt beam="1">  1        2 0.11137002E+00 0.74356509E+03</pdfrwt>
<pdfrwt beam="2">  1       -2 0.72999421E-01 0.74356509E+03</pdfrwt>
<totfact> 0.67424438E+01</totfact>
</mgrwt>
</event>
<event>
 4    2  0.3855935E-007  0.1077551E+04  0.7818608E-02  0.9286472E-01
         -2   -1    0    0    0  501 -0.00000000000E+00  0.00000000000E+00  0.12906256805E+04  0.12906256805E+04  0.25500000000E-02 0.  1.
          2   -1    0    0  501    0  0.00000000000E+00 -0.00000000000E+00 -0.15488327520E+04  0.15488327520E+04  0.25500000000E-02 0. -1.
    8880023    1    1    2    0    0 -0.23963269964E+03 -0.81846295067E+03  0.89240621849E+03  0.13991084652E+04  0.65864270000E+03 0.  0.
    8880022    1    1    2    0    0  0.23963269964E+03  0.81846295067E+03 -0.11506132900E+04  0.14403499674E+04  0.15294330000E+03 0.  0.
<mgrwt>
<rscale>  0 0.10203787E+04</rscale>
<asrwt>0</asrwt>
<pdfrwt beam="1">  1        2 0.23828196E+00 0.10775508E+04</pdfrwt>
<pdfrwt beam="2">  1       -2 0.19855780E+00 0.10775508E+04</pdfrwt>
<totfact> 0.15936821E+00</totfact>
</mgrwt>
</event>
<event>
 4    2  0.3855935E-007  0.1457260E+04  0.7818608E-02  0.8940421E-01
         -2   -1    0    0    0  501 -0.00000000000E+00  0.00000000000E+00  0.17556154671E+04  0.17556154671E+04  0.25500000000E-02 0.  1.
          2   -1    0    0  501    0  0.00000000000E+00 -0.00000000000E+00 -0.12976016096E+04  0.12976016096E+04  0.25500000000E-02 0. -1.
    8880023    1    1    2    0    0 -0.97385722903E+03 -0.86104496546E+03  0.84981327073E+03  0.16869466905E+04  0.65864270000E+03 0. -1.
    8880022    1    1    2    0    0  0.97385722903E+03  0.86104496546E+03 -0.39179941330E+03  0.13662703863E+04  0.15294330000E+03 0.  0.
<mgrwt>
<rscale>  0 0.14186602E+04</rscale>
<asrwt>0</asrwt>
<pdfrwt beam="1">  1        2 0.19963102E+00 0.14572599E+04</pdfrwt>
<pdfrwt beam="2">  1       -2 0.27009469E+00 0.14572599E+04</pdfrwt>
<totfact> 0.75993279E-01</totfact>
</mgrwt>
</event>
<event>
 4    2  0.3855935E-007  0.6720045E+03  0.7818608E-02  0.1014265E+00
          2   -1    0    0  501    0  0.00000000000E+00  0.00000000000E+00  0.90772926833E+03  0.90772926833E+03  0.25500000000E-02 0. -1.
         -2   -1    0    0    0  501 -0.00000000000E+00 -0.00000000000E+00 -0.88152882875E+03  0.88152882876E+03  0.25500000000E-02 0.  1.
    8880023    1    1    2    0    0 -0.13030938832E+03  0.28271692733E+02 -0.73827171251E+03  0.99831615887E+03  0.65864270000E+03 0.  1.
    8880022    1    1    2    0    0  0.13030938832E+03 -0.28271692733E+02  0.76447215209E+03  0.79094193822E+03  0.15294330000E+03 0.  0.
<mgrwt>
<rscale>  0 0.49814261E+03</rscale>
<asrwt>0</asrwt>
<pdfrwt beam="1">  1        2 0.13965066E+00 0.67200449E+03</pdfrwt>
<pdfrwt beam="2">  1       -2 0.13561982E+00 0.67200449E+03</pdfrwt>
<totfact> 0.11589757E+01</totfact>
</mgrwt>
</event>
<event>
 4    2  0.3855935E-007  0.1125181E+04  0.7818608E-02  0.9233524E-01
          2   -1    0    0  501    0  0.00000000000E+00  0.00000000000E+00  0.24768366319E+04  0.24768366319E+04  0.25500000000E-02 0. -1.
         -2   -1    0    0    0  501 -0.00000000000E+00 -0.00000000000E+00 -0.56412475439E+03  0.56412475440E+03  0.25500000000E-02 0.  1.
    8880023    1    1    2    0    0 -0.60199217602E+03  0.68544025963E+03  0.27219466074E+03  0.11576368468E+04  0.65864270000E+03 0.  0.
    8880022    1    1    2    0    0  0.60199217602E+03 -0.68544025963E+03  0.16405172168E+04  0.18833245395E+04  0.15294330000E+03 0. -1.
<mgrwt>
<rscale>  0 0.10714001E+04</rscale>
<asrwt>0</asrwt>
<pdfrwt beam="1">  1        2 0.38105179E+00 0.11251814E+04</pdfrwt>
<pdfrwt beam="2">  1       -2 0.86788423E-01 0.11251814E+04</pdfrwt>
<totfact> 0.40981978E+00</totfact>
</mgrwt>
</event>
<event>
 4    2  0.3855935E-007  0.6961432E+03  0.7818608E-02  0.1001359E+00
          2   -1    0    0  501    0  0.00000000000E+00  0.00000000000E+00  0.16349914743E+04  0.16349914743E+04  0.25500000000E-02 0. -1.
         -2   -1    0    0    0  501 -0.00000000000E+00 -0.00000000000E+00 -0.38368223675E+03  0.38368223676E+03  0.25500000000E-02 0.  1.
    8880023    1    1    2    0    0 -0.20357483588E+03  0.96759878156E+02 -0.41597266600E+02  0.69738492002E+03  0.65864270000E+03 0.  1.
    8880022    1    1    2    0    0  0.20357483588E+03 -0.96759878156E+02  0.12929065041E+04  0.13212887910E+04  0.15294330000E+03 0.  0.
<mgrwt>
<rscale>  0 0.55058215E+03</rscale>
<asrwt>0</asrwt>
<pdfrwt beam="1">  1        2 0.25153716E+00 0.69614323E+03</pdfrwt>
<pdfrwt beam="2">  1       -2 0.59028035E-01 0.69614323E+03</pdfrwt>
<totfact> 0.29509777E+01</totfact>
</mgrwt>
</event>
<event>
 4    2  0.3855935E-007  0.9329364E+03  0.7818608E-02  0.9475102E-01
         -2   -1    0    0    0  501 -0.00000000000E+00  0.00000000000E+00  0.40866678598E+03  0.40866678599E+03  0.25500000000E-02 0.  1.
          2   -1    0    0  501    0  0.00000000000E+00 -0.00000000000E+00 -0.20533519703E+04  0.20533519703E+04  0.25500000000E-02 0. -1.
    8880023    1    1    2    0    0 -0.44018281500E+02 -0.65925899690E+03 -0.34251748279E+03  0.99382516892E+03  0.65864270000E+03 0.  1.
    8880022    1    1    2    0    0  0.44018281500E+02  0.65925899690E+03 -0.13021677016E+04  0.14681935874E+04  0.15294330000E+03 0.  0.
<mgrwt>
<rscale>  0 0.86144596E+03</rscale>
<asrwt>0</asrwt>
<pdfrwt beam="1">  1        2 0.31590030E+00 0.93293635E+03</pdfrwt>
<pdfrwt beam="2">  1       -2 0.62871814E-01 0.93293635E+03</pdfrwt>
<totfact> 0.14800961E+01</totfact>
</mgrwt>
</event>
<event>
 4    2  0.3855935E-007  0.6789822E+03  0.7818608E-02  0.1009905E+00
         -2   -1    0    0    0  501 -0.00000000000E+00  0.00000000000E+00  0.64700624027E+03  0.64700624027E+03  0.25500000000E-02 0.  1.
          2   -1    0    0  501    0  0.00000000000E+00 -0.00000000000E+00 -0.99291836667E+03  0.99291836668E+03  0.25500000000E-02 0. -1.
    8880023    1    1    2    0    0 -0.11498595877E+03 -0.11825729954E+03  0.44885839082E+03  0.81393526823E+03  0.65864270000E+03 0.  1.
    8880022    1    1    2    0    0  0.11498595877E+03  0.11825729954E+03 -0.79477051722E+03  0.82598933871E+03  0.15294330000E+03 0.  0.
<mgrwt>
<rscale>  0 0.51512267E+03</rscale>
<asrwt>0</asrwt>
<pdfrwt beam="1">  1        2 0.15275667E+00 0.67898215E+03</pdfrwt>
<pdfrwt beam="2">  1       -2 0.99539421E-01 0.67898215E+03</pdfrwt>
<totfact> 0.21771400E+01</totfact>
</mgrwt>
</event>
<event>
 4    2  0.3855935E-007  0.7498461E+03  0.7818608E-02  0.9832142E-01
         -2   -1    0    0    0  501 -0.00000000000E+00  0.00000000000E+00  0.11074675401E+04  0.11074675401E+04  0.25500000000E-02 0.  1.
          2   -1    0    0  501    0  0.00000000000E+00 -0.00000000000E+00 -0.45376338910E+03  0.45376338911E+03  0.25500000000E-02 0. -1.
    8880023    1    1    2    0    0  0.21544546912E+03  0.28643016183E+03  0.84280535675E+03  0.11280913365E+04  0.65864270000E+03 0.  0.
    8880022    1    1    2    0    0 -0.21544546912E+03 -0.28643016183E+03 -0.18910120576E+03  0.43313959275E+03  0.15294330000E+03 0.  1.
<mgrwt>
<rscale>  0 0.63665798E+03</rscale>
<asrwt>0</asrwt>
<pdfrwt beam="1">  1        2 0.69809752E-01 0.74984611E+03</pdfrwt>
<pdfrwt beam="2">  1       -2 0.17037962E+00 0.74984611E+03</pdfrwt>
<totfact> 0.14812016E+01</totfact>
</mgrwt>
</event>
<event>
 4    2  0.3855935E-007  0.6669180E+03  0.7818608E-02  0.1017976E+00
          2   -1    0    0  501    0  0.00000000000E+00  0.00000000000E+00  0.15265601184E+04  0.15265601184E+04  0.25500000000E-02 0. -1.
         -2   -1    0    0    0  501 -0.00000000000E+00 -0.00000000000E+00 -0.19597661597E+03  0.19597661599E+03  0.25500000000E-02 0.  1.
    8880023    1    1    2    0    0 -0.19166900343E+02 -0.10296643276E+03  0.40866666665E+03  0.78216884816E+03  0.65864270000E+03 0.  1.
    8880022    1    1    2    0    0  0.19166900343E+02  0.10296643276E+03  0.92191683576E+03  0.94036788621E+03  0.15294330000E+03 0.  0.
<mgrwt>
<rscale>  0 0.48424232E+03</rscale>
<asrwt>0</asrwt>
<pdfrwt beam="1">  1        2 0.23485539E+00 0.66691803E+03</pdfrwt>
<pdfrwt beam="2">  1       -2 0.30150250E-01 0.66691803E+03</pdfrwt>
<totfact> 0.12766676E+02</totfact>
</mgrwt>
</event>
<event>
 4    2  0.3855935E-007  0.7163891E+03  0.7818608E-02  0.9934999E-01
         -2   -1    0    0    0  501 -0.00000000000E+00  0.00000000000E+00  0.54499112027E+03  0.54499112028E+03  0.25500000000E-02 0.  1.
          2   -1    0    0  501    0  0.00000000000E+00 -0.00000000000E+00 -0.90962781859E+03  0.90962781859E+03  0.25500000000E-02 0. -1.
    8880023    1    1    2    0    0  0.72998692287E+01  0.28169115816E+03  0.25215759894E+03  0.75947143307E+03  0.65864270000E+03 0.  0.
    8880022    1    1    2    0    0 -0.72998692287E+01 -0.28169115816E+03 -0.61679429726E+03  0.69514750580E+03  0.15294330000E+03 0.  0.
<mgrwt>
<rscale>  0 0.58594677E+03</rscale>
<asrwt>0</asrwt>
<pdfrwt beam="1">  1        2 0.13994274E+00 0.71638914E+03</pdfrwt>
<pdfrwt beam="2">  1       -2 0.83844788E-01 0.71638914E+03</pdfrwt>
<totfact> 0.36555400E+01</totfact>
</mgrwt>
</event>
<event>
 4    2  0.3855935E-007  0.6702794E+03  0.7818608E-02  0.1015463E+00
          2   -1    0    0  501    0  0.00000000000E+00  0.00000000000E+00  0.81746877263E+03  0.81746877264E+03  0.25500000000E-02 0. -1.
         -2   -1    0    0    0  501 -0.00000000000E+00 -0.00000000000E+00 -0.45093676112E+03  0.45093676112E+03  0.25500000000E-02 0.  1.
    8880023    1    1    2    0    0 -0.71095538650E+02  0.10202789384E+03 -0.17446760237E+03  0.69261346888E+03  0.65864270000E+03 0.  1.
    8880022    1    1    2    0    0  0.71095538650E+02 -0.10202789384E+03  0.54099961389E+03  0.57579206488E+03  0.15294330000E+03 0.  0.
<mgrwt>
<rscale>  0 0.49359875E+03</rscale>
<asrwt>0</asrwt>
<pdfrwt beam="1">  1        2 0.12576443E+00 0.67027940E+03</pdfrwt>
<pdfrwt beam="2">  1       -2 0.69374887E-01 0.67027940E+03</pdfrwt>
<totfact> 0.64697576E+01</totfact>
</mgrwt>
</event>
<event>
 4    2  0.3855935E-007  0.7135096E+03  0.7818608E-02  0.9945192E-01
          2   -1    0    0  501    0  0.00000000000E+00  0.00000000000E+00  0.13558798400E+04  0.13558798400E+04  0.25500000000E-02 0. -1.
         -2   -1    0    0    0  501 -0.00000000000E+00 -0.00000000000E+00 -0.22609776189E+03  0.22609776191E+03  0.25500000000E-02 0.  1.
    8880023    1    1    2    0    0 -0.21032405763E+03 -0.17620861359E+03  0.47910042075E+03  0.85943766740E+03  0.65864270000E+03 0. -1.
    8880022    1    1    2    0    0  0.21032405763E+03  0.17620861359E+03  0.65068165734E+03  0.72253993449E+03  0.15294330000E+03 0.  0.
<mgrwt>
<rscale>  0 0.58120190E+03</rscale>
<asrwt>0</asrwt>
<pdfrwt beam="1">  1        2 0.20859690E+00 0.71350956E+03</pdfrwt>
<pdfrwt beam="2">  1       -2 0.34784271E-01 0.71350956E+03</pdfrwt>
<totfact> 0.12114221E+02</totfact>
</mgrwt>
</event>
<event>
 4    2  0.3855935E-007  0.7436386E+03  0.7818608E-02  0.9849472E-01
          2   -1    0    0  501    0  0.00000000000E+00  0.00000000000E+00  0.13748086763E+04  0.13748086763E+04  0.25500000000E-02 0. -1.
         -2   -1    0    0    0  501 -0.00000000000E+00 -0.00000000000E+00 -0.96812853040E+03  0.96812853040E+03  0.25500000000E-02 0.  1.
    8880023    1    1    2    0    0 -0.31966258681E+03 -0.13039908575E+03 -0.79187586500E+03  0.10863082817E+04  0.65864270000E+03 0.  1.
    8880022    1    1    2    0    0  0.31966258681E+03  0.13039908575E+03  0.11985560109E+04  0.12566289250E+04  0.15294330000E+03 0.  0.
<mgrwt>
<rscale>  0 0.62773834E+03</rscale>
<asrwt>0</asrwt>
<pdfrwt beam="1">  1        2 0.21150903E+00 0.74363855E+03</pdfrwt>
<pdfrwt beam="2">  1       -2 0.14894285E+00 0.74363855E+03</pdfrwt>
<totfact> 0.46821954E+00</totfact>
</mgrwt>
</event>
<event>
 4    2  0.3855935E-007  0.8168856E+03  0.7818608E-02  0.9675409E-01
         -2   -1    0    0    0  501 -0.00000000000E+00  0.00000000000E+00  0.39638386293E+03  0.39638386293E+03  0.25500000000E-02 0.  1.
          2   -1    0    0  501    0  0.00000000000E+00 -0.00000000000E+00 -0.15628496327E+04  0.15628496327E+04  0.25500000000E-02 0. -1.
    8880023    1    1    2    0    0 -0.33026706328E+03 -0.35272585717E+03 -0.16007584241E+03  0.83242197532E+03  0.65864270000E+03 0.  0.
    8880022    1    1    2    0    0  0.33026706328E+03  0.35272585717E+03 -0.10063899274E+04  0.11268115203E+04  0.15294330000E+03 0.  0.
<mgrwt>
<rscale>  0 0.72499992E+03</rscale>
<asrwt>0</asrwt>
<pdfrwt beam="1">  1        2 0.24043840E+00 0.81688559E+03</pdfrwt>
<pdfrwt beam="2">  1       -2 0.60982133E-01 0.81688559E+03</pdfrwt>
<totfact> 0.29766160E+01</totfact>
</mgrwt>
</event>
<event>
 4    2  0.3855935E-007  0.7712699E+03  0.7818608E-02  0.9776759E-01
         -2   -1    0    0    0  501 -0.00000000000E+00  0.00000000000E+00  0.16695582619E+03  0.16695582621E+03  0.25500000000E-02 0.  1.
          2   -1    0    0  501    0  0.00000000000E+00 -0.00000000000E+00 -0.25556540160E+04  0.25556540160E+04  0.25500000000E-02 0. -1.
    8880023    1    1    2    0    0  0.17938505708E+02 -0.40090557709E+03 -0.96386543480E+03  0.12344609570E+04  0.65864270000E+03 0. -1.
    8880022    1    1    2    0    0 -0.17938505708E+02  0.40090557709E+03 -0.14248327550E+04  0.14881488852E+04  0.15294330000E+03 0.  0.
<mgrwt>
<rscale>  0 0.66624859E+03</rscale>
<asrwt>0</asrwt>
<pdfrwt beam="1">  1        2 0.39317751E+00 0.77126991E+03</pdfrwt>
<pdfrwt beam="2">  1       -2 0.25685514E-01 0.77126991E+03</pdfrwt>
<totfact> 0.45838855E+01</totfact>
</mgrwt>
</event>
<event>
 4    2  0.3855935E-007  0.7145887E+03  0.7818608E-02  0.9941340E-01
          2   -1    0    0  501    0  0.00000000000E+00  0.00000000000E+00  0.15678530635E+04  0.15678530635E+04  0.25500000000E-02 0. -1.
         -2   -1    0    0    0  501 -0.00000000000E+00 -0.00000000000E+00 -0.48316960894E+03  0.48316960895E+03  0.25500000000E-02 0.  1.
    8880023    1    1    2    0    0 -0.18267523413E+03  0.20846226247E+03 -0.18853214875E+03  0.73904081985E+03  0.65864270000E+03 0.  1.
    8880022    1    1    2    0    0  0.18267523413E+03 -0.20846226247E+03  0.12732156033E+04  0.13119818526E+04  0.15294330000E+03 0.  0.
<mgrwt>
<rscale>  0 0.58298923E+03</rscale>
<asrwt>0</asrwt>
<pdfrwt beam="1">  1        2 0.24120816E+00 0.71458867E+03</pdfrwt>
<pdfrwt beam="2">  1       -2 0.74333787E-01 0.71458867E+03</pdfrwt>
<totfact> 0.19499013E+01</totfact>
</mgrwt>
</event>
<event>
 4    2  0.8114368E-007  0.1112852E+04  0.7818608E-02  0.9246880E-01
         -2   -1    0    0    0  501 -0.00000000000E+00  0.00000000000E+00  0.12660352444E+04  0.12660352444E+04  0.25500000000E-02 0.  1.
          2   -1    0    0  501    0  0.00000000000E+00 -0.00000000000E+00 -0.34306762106E+04  0.34306762106E+04  0.25500000000E-02 0. -1.
    8880023    1    1    2    0    0  0.85727771693E+03 -0.26401526528E+03  0.94295438186E+03  0.14586302879E+04  0.65864270000E+03 0.  0.
    8880022    1    1    2    0    0 -0.85727771693E+03  0.26401526528E+03 -0.31075953480E+04  0.32380811671E+04  0.15294330000E+03 0.  0.
<mgrwt>
<rscale>  0 0.10582376E+04</rscale>
<asrwt>0</asrwt>
<pdfrwt beam="1">  1        2 0.52779634E+00 0.11128519E+04</pdfrwt>
<pdfrwt beam="2">  1       -2 0.19477465E+00 0.11128519E+04</pdfrwt>
<totfact> 0.13168679E-01</totfact>
</mgrwt>
</event>
<event>
 4    2  0.3855935E-007  0.7528777E+03  0.7818608E-02  0.9823908E-01
         -2   -1    0    0    0  501 -0.00000000000E+00  0.00000000000E+00  0.41967026333E+03  0.41967026334E+03  0.25500000000E-02 0.  1.
          2   -1    0    0  501    0  0.00000000000E+00 -0.00000000000E+00 -0.20886958685E+04  0.20886958685E+04  0.25500000000E-02 0. -1.
    8880023    1    1    2    0    0 -0.56424009585E+02 -0.36032052915E+03  0.40232485660E+02  0.75395186302E+03  0.65864270000E+03 0.  1.
    8880022    1    1    2    0    0  0.56424009585E+02  0.36032052915E+03 -0.17092580908E+04  0.17544142688E+04  0.15294330000E+03 0.  0.
<mgrwt>
<rscale>  0 0.64095133E+03</rscale>
<asrwt>0</asrwt>
<pdfrwt beam="1">  1        2 0.32133782E+00 0.75287765E+03</pdfrwt>
<pdfrwt beam="2">  1       -2 0.64564657E-01 0.75287765E+03</pdfrwt>
<totfact> 0.13688601E+01</totfact>
</mgrwt>
</event>
<event>
 4    2  0.3855935E-007  0.7322249E+03  0.7818608E-02  0.9883203E-01
         -2   -1    0    0    0  501 -0.00000000000E+00  0.00000000000E+00  0.61925731262E+03  0.61925731262E+03  0.25500000000E-02 0.  1.
          2   -1    0    0  501    0  0.00000000000E+00 -0.00000000000E+00 -0.11914978392E+04  0.11914978392E+04  0.25500000000E-02 0. -1.
    8880023    1    1    2    0    0 -0.90030043779E+02  0.30698151406E+03  0.35812190316E+03  0.81511015363E+03  0.65864270000E+03 0.  1.
    8880022    1    1    2    0    0  0.90030043779E+02 -0.30698151406E+03 -0.93036242976E+03  0.99564499822E+03  0.15294330000E+03 0.  0.
<mgrwt>
<rscale>  0 0.61082282E+03</rscale>
<asrwt>0</asrwt>
<pdfrwt beam="1">  1        2 0.18330736E+00 0.73222487E+03</pdfrwt>
<pdfrwt beam="2">  1       -2 0.95270356E-01 0.73222487E+03</pdfrwt>
<totfact> 0.18118314E+01</totfact>
</mgrwt>
</event>
<event>
 4    2  0.3855935E-007  0.6812188E+03  0.7818608E-02  0.1008642E+00
         -2   -1    0    0    0  501 -0.00000000000E+00  0.00000000000E+00  0.16858468172E+03  0.16858468174E+03  0.25500000000E-02 0.  1.
          2   -1    0    0  501    0  0.00000000000E+00 -0.00000000000E+00 -0.13219264198E+04  0.13219264198E+04  0.25500000000E-02 0. -1.
    8880023    1    1    2    0    0 -0.12929673104E+02 -0.17344068082E+03 -0.67475538583E+03  0.95882943383E+03  0.65864270000E+03 0.  0.
    8880022    1    1    2    0    0  0.12929673104E+02  0.17344068082E+03 -0.47858635220E+03  0.53168166767E+03  0.15294330000E+03 0. -1.
<mgrwt>
<rscale>  0 0.52017751E+03</rscale>
<asrwt>0</asrwt>
<pdfrwt beam="1">  1        2 0.20337329E+00 0.68121880E+03</pdfrwt>
<pdfrwt beam="2">  1       -2 0.25936106E-01 0.68121880E+03</pdfrwt>
<totfact> 0.21890515E+02</totfact>
</mgrwt>
</event>
<event>
 4    2  0.3855935E-007  0.7589396E+03  0.7818608E-02  0.9807860E-01
         -2   -1    0    0    0  501 -0.00000000000E+00  0.00000000000E+00  0.12824631487E+04  0.12824631487E+04  0.25500000000E-02 0.  1.
          2   -1    0    0  501    0  0.00000000000E+00 -0.00000000000E+00 -0.98027708973E+03  0.98027708973E+03  0.25500000000E-02 0. -1.
    8880023    1    1    2    0    0 -0.33055815950E+03  0.18141237049E+03  0.11178937698E+04  0.13511757220E+04  0.65864270000E+03 0.  1.
    8880022    1    1    2    0    0  0.33055815950E+03 -0.18141237049E+03 -0.81570771085E+03  0.91156451639E+03  0.15294330000E+03 0.  0.
<mgrwt>
<rscale>  0 0.64942408E+03</rscale>
<asrwt>0</asrwt>
<pdfrwt beam="1">  1        2 0.15081186E+00 0.75893962E+03</pdfrwt>
<pdfrwt beam="2">  1       -2 0.19730202E+00 0.75893962E+03</pdfrwt>
<totfact> 0.36739060E+00</totfact>
</mgrwt>
</event>
<event>
 4    2  0.3855935E-007  0.6863394E+03  0.7818608E-02  0.1005943E+00
         -2   -1    0    0    0  501 -0.00000000000E+00  0.00000000000E+00  0.78669750750E+03  0.78669750751E+03  0.25500000000E-02 0.  1.
          2   -1    0    0  501    0  0.00000000000E+00 -0.00000000000E+00 -0.95745251158E+03  0.95745251159E+03  0.25500000000E-02 0. -1.
    8880023    1    1    2    0    0  0.13929729547E+03 -0.13359598714E+03  0.61447079718E+03  0.92121451962E+03  0.65864270000E+03 0.  1.
    8880022    1    1    2    0    0 -0.13929729547E+03  0.13359598714E+03 -0.78522580127E+03  0.82293549947E+03  0.15294330000E+03 0.  0.
<mgrwt>
<rscale>  0 0.53119264E+03</rscale>
<asrwt>0</asrwt>
<pdfrwt beam="1">  1        2 0.14730039E+00 0.68633944E+03</pdfrwt>
<pdfrwt beam="2">  1       -2 0.12103039E+00 0.68633944E+03</pdfrwt>
<totfact> 0.14288416E+01</totfact>
</mgrwt>
</event>
<event>
 4    2  0.3855935E-007  0.7272788E+03  0.7818608E-02  0.9898685E-01
          2   -1    0    0  501    0  0.00000000000E+00  0.00000000000E+00  0.72808660990E+03  0.72808660990E+03  0.25500000000E-02 0. -1.
         -2   -1    0    0    0  501 -0.00000000000E+00 -0.00000000000E+00 -0.88568911592E+03  0.88568911592E+03  0.25500000000E-02 0.  1.
    8880023    1    1    2    0    0 -0.25855394325E+03  0.16814915061E+03 -0.67504174095E+03  0.99227810452E+03  0.65864270000E+03 0.  1.
    8880022    1    1    2    0    0  0.25855394325E+03 -0.16814915061E+03  0.51743923493E+03  0.62149762130E+03  0.15294330000E+03 0. -1.
<mgrwt>
<rscale>  0 0.60325065E+03</rscale>
<asrwt>0</asrwt>
<pdfrwt beam="1">  1        2 0.11201333E+00 0.72727882E+03</pdfrwt>
<pdfrwt beam="2">  1       -2 0.13625986E+00 0.72727882E+03</pdfrwt>
<totfact> 0.15266218E+01</totfact>
</mgrwt>
</event>
<event>
 4    2  0.3855935E-007  0.6762208E+03  0.7818608E-02  0.1011548E+00
          2   -1    0    0  501    0  0.00000000000E+00  0.00000000000E+00  0.53852768758E+03  0.53852768758E+03  0.25500000000E-02 0. -1.
         -2   -1    0    0    0  501 -0.00000000000E+00 -0.00000000000E+00 -0.62020969490E+03  0.62020969490E+03  0.25500000000E-02 0.  1.
    8880023    1    1    2    0    0 -0.13265053369E+03 -0.76603897415E+02 -0.39105806294E+03  0.78115359312E+03  0.65864270000E+03 0.  1.
    8880022    1    1    2    0    0  0.13265053369E+03  0.76603897415E+02  0.30937605562E+03  0.37758378937E+03  0.15294330000E+03 0.  0.
<mgrwt>
<rscale>  0 0.50864174E+03</rscale>
<asrwt>0</asrwt>
<pdfrwt beam="1">  1        2 0.82850414E-01 0.67622077E+03</pdfrwt>
<pdfrwt beam="2">  1       -2 0.95416876E-01 0.67622077E+03</pdfrwt>
<totfact> 0.52963697E+01</totfact>
</mgrwt>
</event>
<event>
 4    2  0.3855935E-007  0.7109889E+03  0.7818608E-02  0.9954347E-01
          2   -1    0    0  501    0  0.00000000000E+00  0.00000000000E+00  0.17635652351E+04  0.17635652351E+04  0.25500000000E-02 0. -1.
         -2   -1    0    0    0  501 -0.00000000000E+00 -0.00000000000E+00 -0.18768941396E+03  0.18768941398E+03  0.25500000000E-02 0.  1.
    8880023    1    1    2    0    0 -0.69584612542E+02  0.25855931913E+03  0.60819887628E+03  0.93563401989E+03  0.65864270000E+03 0.  1.
    8880022    1    1    2    0    0  0.69584612542E+02 -0.25855931913E+03  0.96767694489E+03  0.10156206292E+04  0.15294330000E+03 0.  1.
<mgrwt>
<rscale>  0 0.57698165E+03</rscale>
<asrwt>0</asrwt>
<pdfrwt beam="1">  1        2 0.27131775E+00 0.71098885E+03</pdfrwt>
<pdfrwt beam="2">  1       -2 0.28875293E-01 0.71098885E+03</pdfrwt>
<totfact> 0.10208269E+02</totfact>
</mgrwt>
</event>
<event>
 4    2  0.3855935E-007  0.1626900E+04  0.7818608E-02  0.8824864E-01
         -2   -1    0    0    0  501 -0.00000000000E+00  0.00000000000E+00  0.30733535384E+04  0.30733535384E+04  0.25500000000E-02 0.  1.
          2   -1    0    0  501    0  0.00000000000E+00 -0.00000000000E+00 -0.44137393987E+04  0.44137393987E+04  0.25500000000E-02 0. -1.
    8880023    1    1    2    0    0  0.24435035504E+03 -0.14674084667E+04 -0.40653213885E+04  0.43787718486E+04  0.65864270000E+03 0. -1.
    8880022    1    1    2    0    0 -0.24435035504E+03  0.14674084667E+04  0.27249355281E+04  0.31083210885E+04  0.15294330000E+03 0.  0.
<mgrwt>
<rscale>  0 0.15929938E+04</rscale>
<asrwt>0</asrwt>
<pdfrwt beam="1">  1        2 0.67903683E+00 0.16269004E+04</pdfrwt>
<pdfrwt beam="2">  1       -2 0.47282362E+00 0.16269004E+04</pdfrwt>
<totfact> 0.34276025E-04</totfact>
</mgrwt>
</event>
<event>
 4    2  0.3855935E-007  0.7179787E+03  0.7818608E-02  0.9929486E-01
         -2   -1    0    0    0  501 -0.00000000000E+00  0.00000000000E+00  0.23323472093E+03  0.23323472095E+03  0.25500000000E-02 0.  1.
          2   -1    0    0  501    0  0.00000000000E+00 -0.00000000000E+00 -0.32434533171E+04  0.32434533171E+04  0.25500000000E-02 0. -1.
    8880023    1    1    2    0    0 -0.15451142730E+00  0.28580268653E+03 -0.35353184473E+03  0.80029880108E+03  0.65864270000E+03 0.  1.
    8880022    1    1    2    0    0  0.15451142730E+00 -0.28580268653E+03 -0.26566867514E+04  0.26763892370E+04  0.15294330000E+03 0.  0.
<mgrwt>
<rscale>  0 0.58853327E+03</rscale>
<asrwt>0</asrwt>
<pdfrwt beam="1">  1        2 0.49899279E+00 0.71797869E+03</pdfrwt>
<pdfrwt beam="2">  1       -2 0.35882267E-01 0.71797869E+03</pdfrwt>
<totfact> 0.95574340E+00</totfact>
</mgrwt>
</event>
<event>
 4    2  0.3855935E-007  0.6762181E+03  0.7818608E-02  0.1011549E+00
          2   -1    0    0  501    0  0.00000000000E+00  0.00000000000E+00  0.25450169807E+04  0.25450169807E+04  0.25500000000E-02 0. -1.
         -2   -1    0    0    0  501 -0.00000000000E+00 -0.00000000000E+00 -0.13317586243E+03  0.13317586246E+03  0.25500000000E-02 0.  1.
    8880023    1    1    2    0    0 -0.14593998451E+03  0.46499537839E+02  0.78108158988E+03  0.10331308448E+04  0.65864270000E+03 0.  1.
    8880022    1    1    2    0    0  0.14593998451E+03 -0.46499537839E+02  0.16307595284E+04  0.16450619984E+04  0.15294330000E+03 0.  0.
<mgrwt>
<rscale>  0 0.50863530E+03</rscale>
<asrwt>0</asrwt>
<pdfrwt beam="1">  1        2 0.39154107E+00 0.67621808E+03</pdfrwt>
<pdfrwt beam="2">  1       -2 0.20488594E-01 0.67621808E+03</pdfrwt>
<totfact> 0.70445710E+01</totfact>
</mgrwt>
</event>
<event>
 4    2  0.3855935E-007  0.7944779E+03  0.7818608E-02  0.9722866E-01
          2   -1    0    0  501    0  0.00000000000E+00  0.00000000000E+00  0.22704956024E+04  0.22704956024E+04  0.25500000000E-02 0. -1.
         -2   -1    0    0    0  501 -0.00000000000E+00 -0.00000000000E+00 -0.39464733514E+03  0.39464733515E+03  0.25500000000E-02 0.  1.
    8880023    1    1    2    0    0 -0.29872024375E+03 -0.32886334148E+03  0.68170903000E+02  0.79739724082E+03  0.65864270000E+03 0.  1.
    8880022    1    1    2    0    0  0.29872024375E+03  0.32886334148E+03  0.18076773643E+04  0.18677456968E+04  0.15294330000E+03 0.  0.
<mgrwt>
<rscale>  0 0.69671549E+03</rscale>
<asrwt>0</asrwt>
<pdfrwt beam="1">  1        2 0.34930701E+00 0.79447787E+03</pdfrwt>
<pdfrwt beam="2">  1       -2 0.60714975E-01 0.79447787E+03</pdfrwt>
<totfact> 0.12314846E+01</totfact>
</mgrwt>
</event>
<event>
 4    2  0.3855935E-007  0.8089709E+03  0.7818608E-02  0.9691725E-01
          2   -1    0    0  501    0  0.00000000000E+00  0.00000000000E+00  0.82800708921E+03  0.82800708922E+03  0.25500000000E-02 0. -1.
         -2   -1    0    0    0  501 -0.00000000000E+00 -0.00000000000E+00 -0.14023094710E+04  0.14023094710E+04  0.25500000000E-02 0.  1.
    8880023    1    1    2    0    0  0.44457024386E+03  0.15159488552E+03 -0.11912538050E+04  0.14399720641E+04  0.65864270000E+03 0.  1.
    8880022    1    1    2    0    0 -0.44457024386E+03 -0.15159488552E+03  0.61695142321E+03  0.79034449619E+03  0.15294330000E+03 0.  0.
<mgrwt>
<rscale>  0 0.71511654E+03</rscale>
<asrwt>0</asrwt>
<pdfrwt beam="1">  1        2 0.12738571E+00 0.80897090E+03</pdfrwt>
<pdfrwt beam="2">  1       -2 0.21573992E+00 0.80897090E+03</pdfrwt>
<totfact> 0.35175214E+00</totfact>
</mgrwt>
</event>
<event>
 4    2  0.3855935E-007  0.6653867E+03  0.7818608E-02  0.1019211E+00
          2   -1    0    0  501    0  0.00000000000E+00  0.00000000000E+00  0.18769036802E+04  0.18769036802E+04  0.25500000000E-02 0. -1.
         -2   -1    0    0    0  501 -0.00000000000E+00 -0.00000000000E+00 -0.12634203817E+03  0.12634203820E+03  0.25500000000E-02 0.  1.
    8880023    1    1    2    0    0 -0.36110662901E+02 -0.87323020168E+02  0.82256273283E+03  0.10579928854E+04  0.65864270000E+03 0.  1.
    8880022    1    1    2    0    0  0.36110662901E+02  0.87323020168E+02  0.92799890923E+03  0.94525283304E+03  0.15294330000E+03 0.  0.
<mgrwt>
<rscale>  0 0.47972362E+03</rscale>
<asrwt>0</asrwt>
<pdfrwt beam="1">  1        2 0.28875442E+00 0.66538673E+03</pdfrwt>
<pdfrwt beam="2">  1       -2 0.19437236E-01 0.66538673E+03</pdfrwt>
<totfact> 0.18067751E+02</totfact>
</mgrwt>
</event>
<event>
 4    2  0.3855935E-007  0.7650343E+03  0.7818608E-02  0.9792244E-01
          2   -1    0    0  501    0  0.00000000000E+00  0.00000000000E+00  0.58548612690E+03  0.58548612691E+03  0.25500000000E-02 0. -1.
         -2   -1    0    0    0  501 -0.00000000000E+00 -0.00000000000E+00 -0.12532636019E+04  0.12532636019E+04  0.25500000000E-02 0.  1.
    8880023    1    1    2    0    0 -0.97558461414E+02  0.37676211846E+03 -0.10317033446E+04  0.12844023298E+04  0.65864270000E+03 0.  1.
    8880022    1    1    2    0    0  0.97558461414E+02 -0.37676211846E+03  0.36392586954E+03  0.55434739905E+03  0.15294330000E+03 0.  0.
<mgrwt>
<rscale>  0 0.65780429E+03</rscale>
<asrwt>0</asrwt>
<pdfrwt beam="1">  1        2 0.90074789E-01 0.76503435E+03</pdfrwt>
<pdfrwt beam="2">  1       -2 0.19280978E+00 0.76503435E+03</pdfrwt>
<totfact> 0.77129684E+00</totfact>
</mgrwt>
</event>
<event>
 4    2  0.3855935E-007  0.8691477E+03  0.7818608E-02  0.9577494E-01
         -2   -1    0    0    0  501 -0.00000000000E+00  0.00000000000E+00  0.16835286031E+04  0.16835286031E+04  0.25500000000E-02 0.  1.
          2   -1    0    0  501    0  0.00000000000E+00 -0.00000000000E+00 -0.74305223551E+03  0.74305223551E+03  0.25500000000E-02 0. -1.
    8880023    1    1    2    0    0  0.50541162650E+03 -0.25722861666E+03  0.14223235744E+04  0.16668599312E+04  0.65864270000E+03 0.  0.
    8880022    1    1    2    0    0 -0.50541162650E+03  0.25722861666E+03 -0.48184720686E+03  0.75972090744E+03  0.15294330000E+03 0.  0.
<mgrwt>
<rscale>  0 0.78803849E+03</rscale>
<asrwt>0</asrwt>
<pdfrwt beam="1">  1        2 0.11431573E+00 0.86914767E+03</pdfrwt>
<pdfrwt beam="2">  1       -2 0.25900440E+00 0.86914767E+03</pdfrwt>
<totfact> 0.21807831E+00</totfact>
</mgrwt>
</event>
<event>
 4    2  0.3855935E-007  0.7772822E+03  0.7818608E-02  0.9762260E-01
          2   -1    0    0  501    0  0.00000000000E+00  0.00000000000E+00  0.10309191988E+04  0.10309191988E+04  0.25500000000E-02 0. -1.
         -2   -1    0    0    0  501 -0.00000000000E+00 -0.00000000000E+00 -0.15900047288E+04  0.15900047288E+04  0.25500000000E-02 0.  1.
    8880023    1    1    2    0    0 -0.29081059033E+03  0.29289340557E+03 -0.14398713898E+04  0.16362753962E+04  0.65864270000E+03 0.  1.
    8880022    1    1    2    0    0  0.29081059033E+03 -0.29289340557E+03  0.88078585987E+03  0.98464853143E+03  0.15294330000E+03 0.  0.
<mgrwt>
<rscale>  0 0.67427795E+03</rscale>
<asrwt>0</asrwt>
<pdfrwt beam="1">  1        2 0.15860295E+00 0.77728216E+03</pdfrwt>
<pdfrwt beam="2">  1       -2 0.24461611E+00 0.77728216E+03</pdfrwt>
<totfact> 0.17170790E+00</totfact>
</mgrwt>
</event>
<event>
 4    2  0.3855935E-007  0.7839176E+03  0.7818608E-02  0.9746714E-01
         -2   -1    0    0    0  501 -0.00000000000E+00  0.00000000000E+00  0.32213190795E+03  0.32213190796E+03  0.25500000000E-02 0.  1.
          2   -1    0    0  501    0  0.00000000000E+00 -0.00000000000E+00 -0.16821639352E+04  0.16821639352E+04  0.25500000000E-02 0. -1.
    8880023    1    1    2    0    0  0.38171519009E+03 -0.18710979590E+03 -0.27803012863E+03  0.83176169710E+03  0.65864270000E+03 0.  0.
    8880022    1    1    2    0    0 -0.38171519009E+03  0.18710979590E+03 -0.10820018986E+04  0.11725341460E+04  0.15294330000E+03 0.  0.
<mgrwt>
<rscale>  0 0.68302305E+03</rscale>
<asrwt>0</asrwt>
<pdfrwt beam="1">  1        2 0.25879445E+00 0.78391758E+03</pdfrwt>
<pdfrwt beam="2">  1       -2 0.49558756E-01 0.78391758E+03</pdfrwt>
<totfact> 0.39498622E+01</totfact>
</mgrwt>
</event>
<event>
 4    2  0.3855935E-007  0.1014307E+04  0.7818608E-02  0.9363075E-01
          2   -1    0    0  501    0  0.00000000000E+00  0.00000000000E+00  0.17584173479E+04  0.17584173479E+04  0.25500000000E-02 0. -1.
         -2   -1    0    0    0  501 -0.00000000000E+00 -0.00000000000E+00 -0.52809928415E+03  0.52809928416E+03  0.25500000000E-02 0.  1.
    8880023    1    1    2    0    0 -0.68995340732E+03  0.34492286092E+03  0.27845608903E+03  0.10518343425E+04  0.65864270000E+03 0.  0.
    8880022    1    1    2    0    0  0.68995340732E+03 -0.34492286092E+03  0.95186197472E+03  0.12346822896E+04  0.15294330000E+03 0.  0.
<mgrwt>
<rscale>  0 0.95177768E+03</rscale>
<asrwt>0</asrwt>
<pdfrwt beam="1">  1        2 0.27052574E+00 0.10143065E+04</pdfrwt>
<pdfrwt beam="2">  1       -2 0.81246044E-01 0.10143065E+04</pdfrwt>
<totfact> 0.12120649E+01</totfact>
</mgrwt>
</event>
<event>
 4    2  0.3855935E-007  0.7560864E+03  0.7818608E-02  0.9815347E-01
          2   -1    0    0  501    0  0.00000000000E+00  0.00000000000E+00  0.17770638319E+04  0.17770638319E+04  0.25500000000E-02 0. -1.
         -2   -1    0    0    0  501 -0.00000000000E+00 -0.00000000000E+00 -0.54106599862E+03  0.54106599863E+03  0.25500000000E-02 0.  1.
    8880023    1    1    2    0    0  0.36342633990E+03  0.76011105530E+02 -0.23622226583E+03  0.79212849831E+03  0.65864270000E+03 0.  1.
    8880022    1    1    2    0    0 -0.36342633990E+03 -0.76011105530E+02  0.14722200991E+04  0.15260013322E+04  0.15294330000E+03 0.  0.
<mgrwt>
<rscale>  0 0.64545410E+03</rscale>
<asrwt>0</asrwt>
<pdfrwt beam="1">  1        2 0.27339444E+00 0.75608637E+03</pdfrwt>
<pdfrwt beam="2">  1       -2 0.83240921E-01 0.75608637E+03</pdfrwt>
<totfact> 0.11555954E+01</totfact>
</mgrwt>
</event>
<event>
 4    2  0.3855935E-007  0.8589664E+03  0.7818608E-02  0.9595405E-01
          2   -1    0    0  501    0  0.00000000000E+00  0.00000000000E+00  0.67724939252E+03  0.67724939252E+03  0.25500000000E-02 0. -1.
         -2   -1    0    0    0  501 -0.00000000000E+00 -0.00000000000E+00 -0.13236194045E+04  0.13236194045E+04  0.25500000000E-02 0.  1.
    8880023    1    1    2    0    0 -0.36681457273E+03  0.41165541917E+03 -0.10077174079E+04  0.13241290328E+04  0.65864270000E+03 0.  1.
    8880022    1    1    2    0    0  0.36681457273E+03 -0.41165541917E+03  0.36134739598E+03  0.67673976424E+03  0.15294330000E+03 0.  0.
<mgrwt>
<rscale>  0 0.77601080E+03</rscale>
<asrwt>0</asrwt>
<pdfrwt beam="1">  1        2 0.10419221E+00 0.85896643E+03</pdfrwt>
<pdfrwt beam="2">  1       -2 0.20363375E+00 0.85896643E+03</pdfrwt>
<totfact> 0.54231346E+00</totfact>
</mgrwt>
</event>
<event>
 4    2  0.3855935E-007  0.7359372E+03  0.7818608E-02  0.9871944E-01
         -2   -1    0    0    0  501 -0.00000000000E+00  0.00000000000E+00  0.66966401323E+03  0.66966401323E+03  0.25500000000E-02 0.  1.
          2   -1    0    0  501    0  0.00000000000E+00 -0.00000000000E+00 -0.79235063090E+03  0.79235063090E+03  0.25500000000E-02 0. -1.
    8880023    1    1    2    0    0  0.10321820339E+03 -0.31167180653E+03  0.39109339101E+03  0.83340119945E+03  0.65864270000E+03 0.  0.
    8880022    1    1    2    0    0 -0.10321820339E+03  0.31167180653E+03 -0.51378000868E+03  0.62861344468E+03  0.15294330000E+03 0.  0.
<mgrwt>
<rscale>  0 0.61640487E+03</rscale>
<asrwt>0</asrwt>
<pdfrwt beam="1">  1        2 0.12190010E+00 0.73593717E+03</pdfrwt>
<pdfrwt beam="2">  1       -2 0.10302523E+00 0.73593717E+03</pdfrwt>
<totfact> 0.27257358E+01</totfact>
</mgrwt>
</event>
<event>
 4    2  0.3855935E-007  0.9184001E+03  0.7818608E-02  0.9497117E-01
         -2   -1    0    0    0  501 -0.00000000000E+00  0.00000000000E+00  0.43685799406E+03  0.43685799406E+03  0.25500000000E-02 0.  1.
          2   -1    0    0  501    0  0.00000000000E+00 -0.00000000000E+00 -0.15032723590E+04  0.15032723591E+04  0.25500000000E-02 0. -1.
    8880023    1    1    2    0    0 -0.14739349640E+03 -0.62283520338E+03 -0.83885012803E+03  0.12438361134E+04  0.65864270000E+03 0. -1.
    8880022    1    1    2    0    0  0.14739349640E+03  0.62283520338E+03 -0.22756423696E+03  0.69629423975E+03  0.15294330000E+03 0.  0.
<mgrwt>
<rscale>  0 0.84496742E+03</rscale>
<asrwt>0</asrwt>
<pdfrwt beam="1">  1        2 0.23127267E+00 0.91840010E+03</pdfrwt>
<pdfrwt beam="2">  1       -2 0.67208923E-01 0.91840010E+03</pdfrwt>
<totfact> 0.25816530E+01</totfact>
</mgrwt>
</event>
<event>
 4    2  0.3855935E-007  0.6719021E+03  0.7818608E-02  0.1014334E+00
         -2   -1    0    0    0  501 -0.00000000000E+00  0.00000000000E+00  0.22202246370E+03  0.22202246371E+03  0.25500000000E-02 0.  1.
          2   -1    0    0  501    0  0.00000000000E+00 -0.00000000000E+00 -0.15575163366E+04  0.15575163366E+04  0.25500000000E-02 0. -1.
    8880023    1    1    2    0    0  0.49077585013E+02 -0.12342461827E+03 -0.32031705051E+03  0.74434902086E+03  0.65864270000E+03 0.  0.
    8880022    1    1    2    0    0 -0.49077585013E+02  0.12342461827E+03 -0.10151768224E+04  0.10351897794E+04  0.15294330000E+03 0.  0.
<mgrwt>
<rscale>  0 0.49787733E+03</rscale>
<asrwt>0</asrwt>
<pdfrwt beam="1">  1        2 0.23961789E+00 0.67190211E+03</pdfrwt>
<pdfrwt beam="2">  1       -2 0.34157303E-01 0.67190211E+03</pdfrwt>
<totfact> 0.97106078E+01</totfact>
</mgrwt>
</event>
<event>
 4    2  0.3855935E-007  0.9261556E+03  0.7818608E-02  0.9485284E-01
          2   -1    0    0  501    0  0.00000000000E+00  0.00000000000E+00  0.24454688615E+04  0.24454688615E+04  0.25500000000E-02 0. -1.
         -2   -1    0    0    0  501 -0.00000000000E+00 -0.00000000000E+00 -0.73347510671E+03  0.73347510672E+03  0.25500000000E-02 0.  1.
    8880023    1    1    2    0    0  0.45625125387E+03 -0.46453061467E+03 -0.36608494481E+03  0.99588266964E+03  0.65864270000E+03 0.  1.
    8880022    1    1    2    0    0 -0.45625125387E+03  0.46453061467E+03  0.20780786996E+04  0.21830612985E+04  0.15294330000E+03 0.  0.
<mgrwt>
<rscale>  0 0.85377482E+03</rscale>
<asrwt>0</asrwt>
<pdfrwt beam="1">  1        2 0.37622598E+00 0.92615555E+03</pdfrwt>
<pdfrwt beam="2">  1       -2 0.11284232E+00 0.92615555E+03</pdfrwt>
<totfact> 0.23524439E+00</totfact>
</mgrwt>
</event>
<event>
 4    2  0.3855935E-007  0.1129309E+04  0.7818608E-02  0.9229105E-01
          2   -1    0    0  501    0  0.00000000000E+00  0.00000000000E+00  0.33672086256E+04  0.33672086256E+04  0.25500000000E-02 0. -1.
         -2   -1    0    0    0  501 -0.00000000000E+00 -0.00000000000E+00 -0.41383505204E+03  0.41383505205E+03  0.25500000000E-02 0.  1.
    8880023    1    1    2    0    0 -0.89657408564E+03  0.19411994521E+03  0.66416699603E+03  0.13101357369E+04  0.65864270000E+03 0.  0.
    8880022    1    1    2    0    0  0.89657408564E+03 -0.19411994521E+03  0.22892065775E+04  0.24709079408E+04  0.15294330000E+03 0.  0.
<mgrwt>
<rscale>  0 0.10757997E+04</rscale>
<asrwt>0</asrwt>
<pdfrwt beam="1">  1        2 0.51803210E+00 0.11293086E+04</pdfrwt>
<pdfrwt beam="2">  1       -2 0.63666930E-01 0.11293086E+04</pdfrwt>
<totfact> 0.23201356E+00</totfact>
</mgrwt>
</event>
<event>
 4    2  0.3855935E-007  0.9415881E+03  0.7818608E-02  0.9462322E-01
         -2   -1    0    0    0  501 -0.00000000000E+00  0.00000000000E+00  0.91856200105E+03  0.91856200105E+03  0.25500000000E-02 0.  1.
          2   -1    0    0  501    0  0.00000000000E+00 -0.00000000000E+00 -0.78902904655E+03  0.78902904656E+03  0.25500000000E-02 0. -1.
    8880023    1    1    2    0    0  0.42402549935E+03  0.52247513019E+03 -0.16742339806E+03  0.95635698682E+03  0.65864270000E+03 0. -1.
    8880022    1    1    2    0    0 -0.42402549935E+03 -0.52247513019E+03  0.29695635255E+03  0.75123406079E+03  0.15294330000E+03 0.  0.
<mgrwt>
<rscale>  0 0.87119608E+03</rscale>
<asrwt>0</asrwt>
<pdfrwt beam="1">  1        2 0.12138908E+00 0.94158807E+03</pdfrwt>
<pdfrwt beam="2">  1       -2 0.14131723E+00 0.94158807E+03</pdfrwt>
<totfact> 0.12261437E+01</totfact>
</mgrwt>
</event>
<event>
 4    2  0.3855935E-007  0.7069587E+03  0.7818608E-02  0.9969473E-01
         -2   -1    0    0    0  501 -0.00000000000E+00  0.00000000000E+00  0.10281410785E+04  0.10281410785E+04  0.25500000000E-02 0.  1.
          2   -1    0    0  501    0  0.00000000000E+00 -0.00000000000E+00 -0.38854226554E+03  0.38854226555E+03  0.25500000000E-02 0. -1.
    8880023    1    1    2    0    0 -0.21280829506E+03  0.14385061144E+03  0.80795684181E+03  0.10735850378E+04  0.65864270000E+03 0.  1.
    8880022    1    1    2    0    0  0.21280829506E+03 -0.14385061144E+03 -0.16835802886E+03  0.34309830625E+03  0.15294330000E+03 0.  0.
<mgrwt>
<rscale>  0 0.57009302E+03</rscale>
<asrwt>0</asrwt>
<pdfrwt beam="1">  1        2 0.59775733E-01 0.70695868E+03</pdfrwt>
<pdfrwt beam="2">  1       -2 0.15817555E+00 0.70695868E+03</pdfrwt>
<totfact> 0.21718380E+01</totfact>
</mgrwt>
</event>
<event>
 4    2  0.3855935E-007  0.6986105E+03  0.7818608E-02  0.1000301E+00
         -2   -1    0    0    0  501 -0.00000000000E+00  0.00000000000E+00  0.15472364518E+03  0.15472364520E+03  0.25500000000E-02 0.  1.
          2   -1    0    0  501    0  0.00000000000E+00 -0.00000000000E+00 -0.23367732770E+04  0.23367732770E+04  0.25500000000E-02 0. -1.
    8880023    1    1    2    0    0  0.15673547065E+03 -0.17228024562E+03 -0.72034092029E+03  0.10034678562E+04  0.65864270000E+03 0.  1.
    8880022    1    1    2    0    0 -0.15673547065E+03  0.17228024562E+03 -0.14617087116E+04  0.14880290660E+04  0.15294330000E+03 0.  0.
<mgrwt>
<rscale>  0 0.55518247E+03</rscale>
<asrwt>0</asrwt>
<pdfrwt beam="1">  1        2 0.35950356E+00 0.69861055E+03</pdfrwt>
<pdfrwt beam="2">  1       -2 0.23803639E-01 0.69861055E+03</pdfrwt>
<totfact> 0.70500155E+01</totfact>
</mgrwt>
</event>
<event>
 4    2  0.3855935E-007  0.7583426E+03  0.7818608E-02  0.9809417E-01
         -2   -1    0    0    0  501 -0.00000000000E+00  0.00000000000E+00  0.23233266192E+04  0.23233266192E+04  0.25500000000E-02 0.  1.
          2   -1    0    0  501    0  0.00000000000E+00 -0.00000000000E+00 -0.18163921285E+03  0.18163921287E+03  0.25500000000E-02 0. -1.
    8880023    1    1    2    0    0  0.34243994274E+03 -0.15494563242E+03  0.18664844174E+04  0.20146581720E+04  0.65864270000E+03 0.  0.
    8880022    1    1    2    0    0 -0.34243994274E+03  0.15494563242E+03  0.27520298902E+03  0.49030766012E+03  0.15294330000E+03 0.  0.
<mgrwt>
<rscale>  0 0.64859593E+03</rscale>
<asrwt>0</asrwt>
<pdfrwt beam="1">  1        2 0.27944494E-01 0.75834258E+03</pdfrwt>
<pdfrwt beam="2">  1       -2 0.35743486E+00 0.75834258E+03</pdfrwt>
<totfact> 0.28320074E+00</totfact>
</mgrwt>
</event>
<event>
 4    2  0.3855935E-007  0.1080176E+04  0.7818608E-02  0.9283456E-01
         -2   -1    0    0    0  501 -0.00000000000E+00  0.00000000000E+00  0.10710373716E+04  0.10710373716E+04  0.25500000000E-02 0.  1.
          2   -1    0    0  501    0  0.00000000000E+00 -0.00000000000E+00 -0.13035101433E+04  0.13035101433E+04  0.25500000000E-02 0. -1.
    8880023    1    1    2    0    0  0.69996376746E+03 -0.49297064277E+03 -0.79287838648E+03  0.13399386823E+04  0.65864270000E+03 0. -1.
    8880022    1    1    2    0    0 -0.69996376746E+03  0.49297064277E+03  0.56040561477E+03  0.10346088326E+04  0.15294330000E+03 0.  0.
<mgrwt>
<rscale>  0 0.10232033E+04</rscale>
<asrwt>0</asrwt>
<pdfrwt beam="1">  1        2 0.20054002E+00 0.10801757E+04</pdfrwt>
<pdfrwt beam="2">  1       -2 0.16477498E+00 0.10801757E+04</pdfrwt>
<totfact> 0.37586660E+00</totfact>
</mgrwt>
</event>
<event>
 4    2  0.3855935E-007  0.8445529E+03  0.7818608E-02  0.9621654E-01
         -2   -1    0    0    0  501 -0.00000000000E+00  0.00000000000E+00  0.52646699038E+03  0.52646699038E+03  0.25500000000E-02 0.  1.
          2   -1    0    0  501    0  0.00000000000E+00 -0.00000000000E+00 -0.17005995239E+04  0.17005995239E+04  0.25500000000E-02 0. -1.
    8880023    1    1    2    0    0 -0.48663851042E+03  0.20650007677E+03  0.89028565717E+02  0.84923236709E+03  0.65864270000E+03 0.  0.
    8880022    1    1    2    0    0  0.48663851042E+03 -0.20650007677E+03 -0.12631610992E+04  0.13778341472E+04  0.15294330000E+03 0.  0.
<mgrwt>
<rscale>  0 0.75879376E+03</rscale>
<asrwt>0</asrwt>
<pdfrwt beam="1">  1        2 0.26163069E+00 0.84455286E+03</pdfrwt>
<pdfrwt beam="2">  1       -2 0.80994923E-01 0.84455286E+03</pdfrwt>
<totfact> 0.13383167E+01</totfact>
</mgrwt>
</event>
<event>
 4    2  0.3855935E-007  0.7669005E+03  0.7818608E-02  0.9787560E-01
          2   -1    0    0  501    0  0.00000000000E+00  0.00000000000E+00  0.26841461683E+04  0.26841461683E+04  0.25500000000E-02 0. -1.
         -2   -1    0    0    0  501 -0.00000000000E+00 -0.00000000000E+00 -0.62625636759E+03  0.62625636760E+03  0.25500000000E-02 0.  1.
    8880023    1    1    2    0    0  0.33348346536E+03 -0.20764132790E+03 -0.36625849895E+03  0.84987154149E+03  0.65864270000E+03 0.  0.
    8880022    1    1    2    0    0 -0.33348346536E+03  0.20764132790E+03  0.24241482997E+04  0.24605309944E+04  0.15294330000E+03 0.  0.
<mgrwt>
<rscale>  0 0.66034459E+03</rscale>
<asrwt>0</asrwt>
<pdfrwt beam="1">  1        2 0.41294556E+00 0.76690048E+03</pdfrwt>
<pdfrwt beam="2">  1       -2 0.96347133E-01 0.76690048E+03</pdfrwt>
<totfact> 0.25766302E+00</totfact>
</mgrwt>
</event>
<event>
 4    2  0.3855935E-007  0.6874026E+03  0.7818608E-02  0.1005412E+00
          2   -1    0    0  501    0  0.00000000000E+00  0.00000000000E+00  0.47875604904E+03  0.47875604904E+03  0.25500000000E-02 0. -1.
         -2   -1    0    0    0  501 -0.00000000000E+00 -0.00000000000E+00 -0.70334325885E+03  0.70334325885E+03  0.25500000000E-02 0.  1.
    8880023    1    1    2    0    0 -0.16819544299E+03 -0.10209010990E+03 -0.46970035484E+03  0.83255073550E+03  0.65864270000E+03 0.  1.
    8880022    1    1    2    0    0  0.16819544299E+03  0.10209010990E+03  0.24511314503E+03  0.34954857239E+03  0.15294330000E+03 0.  0.
<mgrwt>
<rscale>  0 0.53339396E+03</rscale>
<asrwt>0</asrwt>
<pdfrwt beam="1">  1        2 0.73654776E-01 0.68740258E+03</pdfrwt>
<pdfrwt beam="2">  1       -2 0.10820666E+00 0.68740258E+03</pdfrwt>
<totfact> 0.44996258E+01</totfact>
</mgrwt>
</event>
<event>
 4    2  0.3855935E-007  0.8057304E+03  0.7818608E-02  0.9698540E-01
          2   -1    0    0  501    0  0.00000000000E+00  0.00000000000E+00  0.26362117626E+04  0.26362117626E+04  0.25500000000E-02 0. -1.
         -2   -1    0    0    0  501 -0.00000000000E+00 -0.00000000000E+00 -0.16296414204E+03  0.16296414206E+03  0.25500000000E-02 0.  1.
    8880023    1    1    2    0    0  0.19990509047E+03  0.41884274257E+03  0.13171483776E+04  0.15440470663E+04  0.65864270000E+03 0.  0.
    8880022    1    1    2    0    0 -0.19990509047E+03 -0.41884274257E+03  0.11560992430E+04  0.12551288384E+04  0.15294330000E+03 0.  1.
<mgrwt>
<rscale>  0 0.71103786E+03</rscale>
<asrwt>0</asrwt>
<pdfrwt beam="1">  1        2 0.40557098E+00 0.80573041E+03</pdfrwt>
<pdfrwt beam="2">  1       -2 0.25071410E-01 0.80573041E+03</pdfrwt>
<totfact> 0.42854877E+01</totfact>
</mgrwt>
</event>
<event>
 4    2  0.3855935E-007  0.8275596E+03  0.7818608E-02  0.9654099E-01
          2   -1    0    0  501    0  0.00000000000E+00  0.00000000000E+00  0.70822616376E+03  0.70822616376E+03  0.25500000000E-02 0. -1.
         -2   -1    0    0    0  501 -0.00000000000E+00 -0.00000000000E+00 -0.64473777582E+03  0.64473777582E+03  0.25500000000E-02 0.  1.
    8880023    1    1    2    0    0  0.12158773208E+03  0.48606703108E+03  0.33373188946E+02  0.82823228100E+03  0.65864270000E+03 0. -1.
    8880022    1    1    2    0    0 -0.12158773208E+03 -0.48606703108E+03  0.30115198996E+02  0.52473165858E+03  0.15294330000E+03 0.  1.
<mgrwt>
<rscale>  0 0.73816710E+03</rscale>
<asrwt>0</asrwt>
<pdfrwt beam="1">  1        2 0.10895787E+00 0.82755963E+03</pdfrwt>
<pdfrwt beam="2">  1       -2 0.99190427E-01 0.82755963E+03</pdfrwt>
<totfact> 0.34236255E+01</totfact>
</mgrwt>
</event>
<event>
 4    2  0.3855935E-007  0.6858353E+03  0.7818608E-02  0.1006198E+00
          2   -1    0    0  501    0  0.00000000000E+00  0.00000000000E+00  0.30352988191E+04  0.30352988191E+04  0.25500000000E-02 0. -1.
         -2   -1    0    0    0  501 -0.00000000000E+00 -0.00000000000E+00 -0.14591167917E+03  0.14591167919E+03  0.25500000000E-02 0.  1.
    8880023    1    1    2    0    0  0.18002243894E+03 -0.64434013923E+02  0.70651453305E+03  0.98464857302E+03  0.65864270000E+03 0. -1.
    8880022    1    1    2    0    0 -0.18002243894E+03  0.64434013923E+02  0.21828726068E+04  0.21965619252E+04  0.15294330000E+03 0. -1.
<mgrwt>
<rscale>  0 0.53013911E+03</rscale>
<asrwt>0</asrwt>
<pdfrwt beam="1">  1        2 0.46696901E+00 0.68583528E+03</pdfrwt>
<pdfrwt beam="2">  1       -2 0.22447953E-01 0.68583528E+03</pdfrwt>
<totfact> 0.30780824E+01</totfact>
</mgrwt>
</event>
<event>
 4    2  0.3855935E-007  0.9279410E+03  0.7818608E-02  0.9482589E-01
          2   -1    0    0  501    0  0.00000000000E+00  0.00000000000E+00  0.74876595668E+03  0.74876595669E+03  0.25500000000E-02 0. -1.
         -2   -1    0    0    0  501 -0.00000000000E+00 -0.00000000000E+00 -0.12265096845E+04  0.12265096845E+04  0.25500000000E-02 0.  1.
    8880023    1    1    2    0    0 -0.33018449975E+03  0.56412991207E+03 -0.80499367908E+03  0.12284499954E+04  0.65864270000E+03 0.  0.
    8880022    1    1    2    0    0  0.33018449975E+03 -0.56412991207E+03  0.32724995127E+03  0.74682564578E+03  0.15294330000E+03 0.  0.
<mgrwt>
<rscale>  0 0.85579734E+03</rscale>
<asrwt>0</asrwt>
<pdfrwt beam="1">  1        2 0.11519476E+00 0.92794104E+03</pdfrwt>
<pdfrwt beam="2">  1       -2 0.18869380E+00 0.92794104E+03</pdfrwt>
<totfact> 0.59415453E+00</totfact>
</mgrwt>
</event>
<event>
 4    2  0.3855935E-007  0.1135964E+04  0.7818608E-02  0.9222033E-01
          2   -1    0    0  501    0  0.00000000000E+00  0.00000000000E+00  0.10372882611E+04  0.10372882611E+04  0.25500000000E-02 0. -1.
         -2   -1    0    0    0  501 -0.00000000000E+00 -0.00000000000E+00 -0.14796620889E+04  0.14796620890E+04  0.25500000000E-02 0.  1.
    8880023    1    1    2    0    0 -0.69076277579E+03  0.61599510628E+03 -0.92229841893E+03  0.14632319581E+04  0.65864270000E+03 0.  1.
    8880022    1    1    2    0    0  0.69076277579E+03 -0.61599510628E+03  0.47992459109E+03  0.10537183920E+04  0.15294330000E+03 0.  0.
<mgrwt>
<rscale>  0 0.10828875E+04</rscale>
<asrwt>0</asrwt>
<pdfrwt beam="1">  1        2 0.15958281E+00 0.11359636E+04</pdfrwt>
<pdfrwt beam="2">  1       -2 0.22764032E+00 0.11359636E+04</pdfrwt>
<totfact> 0.20654818E+00</totfact>
</mgrwt>
</event>
<event>
 4    2  0.3855935E-007  0.8747439E+03  0.7818608E-02  0.9567857E-01
         -2   -1    0    0    0  501 -0.00000000000E+00  0.00000000000E+00  0.28803488235E+03  0.28803488236E+03  0.25500000000E-02 0.  1.
          2   -1    0    0  501    0  0.00000000000E+00 -0.00000000000E+00 -0.30565695048E+04  0.30565695048E+04  0.25500000000E-02 0. -1.
    8880023    1    1    2    0    0 -0.54597035141E+03  0.18243642585E+03 -0.51805542292E+03  0.10166406944E+04  0.65864270000E+03 0.  0.
    8880022    1    1    2    0    0  0.54597035141E+03 -0.18243642585E+03 -0.22504791995E+04  0.23279636927E+04  0.15294330000E+03 0.  0.
<mgrwt>
<rscale>  0 0.79460678E+03</rscale>
<asrwt>0</asrwt>
<pdfrwt beam="1">  1        2 0.47024144E+00 0.87474389E+03</pdfrwt>
<pdfrwt beam="2">  1       -2 0.44313061E-01 0.87474389E+03</pdfrwt>
<totfact> 0.80823821E+00</totfact>
</mgrwt>
</event>
<event>
 4    2  0.3855935E-007  0.8176845E+03  0.7818608E-02  0.9673787E-01
          2   -1    0    0  501    0  0.00000000000E+00  0.00000000000E+00  0.15681167388E+04  0.15681167388E+04  0.25500000000E-02 0. -1.
         -2   -1    0    0    0  501 -0.00000000000E+00 -0.00000000000E+00 -0.76464189229E+03  0.76464189229E+03  0.25500000000E-02 0.  1.
    8880023    1    1    2    0    0 -0.19167004526E+03 -0.44503971181E+03 -0.48292273032E+03  0.94964325990E+03  0.65864270000E+03 0.  1.
    8880022    1    1    2    0    0  0.19167004526E+03  0.44503971181E+03  0.12863975768E+04  0.13831153712E+04  0.15294330000E+03 0.  0.
<mgrwt>
<rscale>  0 0.72599166E+03</rscale>
<asrwt>0</asrwt>
<pdfrwt beam="1">  1        2 0.24124873E+00 0.81768451E+03</pdfrwt>
<pdfrwt beam="2">  1       -2 0.11763721E+00 0.81768451E+03</pdfrwt>
<totfact> 0.65901737E+00</totfact>
</mgrwt>
</event>
<event>
 4    2  0.3855935E-007  0.1004663E+04  0.7818608E-02  0.9375482E-01
         -2   -1    0    0    0  501 -0.00000000000E+00  0.00000000000E+00  0.17643928789E+04  0.17643928789E+04  0.25500000000E-02 0.  1.
          2   -1    0    0  501    0  0.00000000000E+00 -0.00000000000E+00 -0.61605117861E+03  0.61605117862E+03  0.25500000000E-02 0. -1.
    8880023    1    1    2    0    0 -0.64544213060E+03  0.39867616518E+03  0.10941703299E+02  0.10047229249E+04  0.65864270000E+03 0. -1.
    8880022    1    1    2    0    0  0.64544213060E+03 -0.39867616518E+03  0.11373999970E+04  0.13757211327E+04  0.15294330000E+03 0.  1.
<mgrwt>
<rscale>  0 0.94121191E+03</rscale>
<asrwt>0</asrwt>
<pdfrwt beam="1">  1        2 0.94777105E-01 0.10046633E+04</pdfrwt>
<pdfrwt beam="2">  1       -2 0.27144506E+00 0.10046633E+04</pdfrwt>
<totfact> 0.22836267E+00</totfact>
</mgrwt>
</event>
<event>
 4    2  0.3855935E-007  0.6609814E+03  0.7818608E-02  0.1023173E+00
          2   -1    0    0  501    0  0.00000000000E+00  0.00000000000E+00  0.88301247313E+03  0.88301247313E+03  0.25500000000E-02 0. -1.
         -2   -1    0    0    0  501 -0.00000000000E+00 -0.00000000000E+00 -0.22720584361E+03  0.22720584363E+03  0.25500000000E-02 0.  1.
    8880023    1    1    2    0    0  0.49627926425E+02 -0.24965141749E+02  0.31424852757E+03  0.73188013549E+03  0.65864270000E+03 0.  1.
    8880022    1    1    2    0    0 -0.49627926425E+02  0.24965141749E+02  0.34155810195E+03  0.37833818127E+03  0.15294330000E+03 0.  0.
<mgrwt>
<rscale>  0 0.46558850E+03</rscale>
<asrwt>0</asrwt>
<pdfrwt beam="1">  1        2 0.13584808E+00 0.66098139E+03</pdfrwt>
<pdfrwt beam="2">  1       -2 0.34954745E-01 0.66098139E+03</pdfrwt>
<totfact> 0.23443331E+02</totfact>
</mgrwt>
</event>
<event>
 4    2  0.3855935E-007  0.7720529E+03  0.7818608E-02  0.9774847E-01
          2   -1    0    0  501    0  0.00000000000E+00  0.00000000000E+00  0.18812321845E+04  0.18812321845E+04  0.25500000000E-02 0. -1.
         -2   -1    0    0    0  501 -0.00000000000E+00 -0.00000000000E+00 -0.29528178237E+03  0.29528178238E+03  0.25500000000E-02 0.  1.
    8880023    1    1    2    0    0 -0.25041418944E+01  0.40280161660E+03  0.31381771661E+03  0.83339497153E+03  0.65864270000E+03 0.  0.
    8880022    1    1    2    0    0  0.25041418944E+01 -0.40280161660E+03  0.12721326855E+04  0.13431189953E+04  0.15294330000E+03 0.  0.
<mgrwt>
<rscale>  0 0.66730025E+03</rscale>
<asrwt>0</asrwt>
<pdfrwt beam="1">  1        2 0.28942035E+00 0.77205286E+03</pdfrwt>
<pdfrwt beam="2">  1       -2 0.45427965E-01 0.77205286E+03</pdfrwt>
<totfact> 0.36691047E+01</totfact>
</mgrwt>
</event>
<event>
 4    2  0.3855935E-007  0.7420926E+03  0.7818608E-02  0.9853893E-01
         -2   -1    0    0    0  501 -0.00000000000E+00  0.00000000000E+00  0.66558975193E+03  0.66558975193E+03  0.25500000000E-02 0.  1.
          2   -1    0    0  501    0  0.00000000000E+00 -0.00000000000E+00 -0.70694687107E+03  0.70694687108E+03  0.25500000000E-02 0. -1.
    8880023    1    1    2    0    0 -0.22162250681E+03  0.26033570517E+03  0.35893761447E+03  0.82434072583E+03  0.65864270000E+03 0.  1.
    8880022    1    1    2    0    0  0.22162250681E+03 -0.26033570517E+03 -0.40029473362E+03  0.54819589718E+03  0.15294330000E+03 0.  0.
<mgrwt>
<rscale>  0 0.62548825E+03</rscale>
<asrwt>0</asrwt>
<pdfrwt beam="1">  1        2 0.10876106E+00 0.74209260E+03</pdfrwt>
<pdfrwt beam="2">  1       -2 0.10239842E+00 0.74209260E+03</pdfrwt>
<totfact> 0.32030670E+01</totfact>
</mgrwt>
</event>
<event>
 4    2  0.3855935E-007  0.9047057E+03  0.7818608E-02  0.9518519E-01
         -2   -1    0    0    0  501 -0.00000000000E+00  0.00000000000E+00  0.79859913505E+03  0.79859913506E+03  0.25500000000E-02 0.  1.
          2   -1    0    0  501    0  0.00000000000E+00 -0.00000000000E+00 -0.17062274068E+04  0.17062274068E+04  0.25500000000E-02 0. -1.
    8880023    1    1    2    0    0  0.22030452454E+03  0.57978287929E+03  0.44553117463E+03  0.10084594709E+04  0.65864270000E+03 0.  1.
    8880022    1    1    2    0    0 -0.22030452454E+03 -0.57978287929E+03 -0.13531594463E+04  0.14963670709E+04  0.15294330000E+03 0.  0.
<mgrwt>
<rscale>  0 0.82932139E+03</rscale>
<asrwt>0</asrwt>
<pdfrwt beam="1">  1        2 0.26249652E+00 0.90470574E+03</pdfrwt>
<pdfrwt beam="2">  1       -2 0.12286141E+00 0.90470574E+03</pdfrwt>
<totfact> 0.49059924E+00</totfact>
</mgrwt>
</event>
<event>
 4    2  0.3855935E-007  0.1094400E+04  0.7818608E-02  0.9267317E-01
          2   -1    0    0  501    0  0.00000000000E+00  0.00000000000E+00  0.18161428842E+04  0.18161428842E+04  0.25500000000E-02 0. -1.
         -2   -1    0    0    0  501 -0.00000000000E+00 -0.00000000000E+00 -0.88739272611E+03  0.88739272611E+03  0.25500000000E-02 0.  1.
    8880023    1    1    2    0    0  0.50020811464E+03  0.71672373593E+03  0.13361859332E+04  0.17271665021E+04  0.65864270000E+03 0.  0.
    8880022    1    1    2    0    0 -0.50020811464E+03 -0.71672373593E+03 -0.40743577513E+03  0.97636910821E+03  0.15294330000E+03 0.  0.
<mgrwt>
<rscale>  0 0.10384823E+04</rscale>
<asrwt>0</asrwt>
<pdfrwt beam="1">  1        2 0.27940660E+00 0.10944000E+04</pdfrwt>
<pdfrwt beam="2">  1       -2 0.13652196E+00 0.10944000E+04</pdfrwt>
<totfact> 0.31910446E+00</totfact>
</mgrwt>
</event>
<event>
 4    2  0.4856732E-007  0.1012780E+04  0.7818608E-02  0.9365025E-01
         -2   -1    0    0    0  501 -0.00000000000E+00  0.00000000000E+00  0.18128182710E+04  0.18128182710E+04  0.25500000000E-02 0.  1.
          2   -1    0    0  501    0  0.00000000000E+00 -0.00000000000E+00 -0.15036777145E+04  0.15036777145E+04  0.25500000000E-02 0. -1.
    8880023    1    1    2    0    0  0.18600574401E+03  0.74653590045E+03  0.15481837127E+04  0.18500262166E+04  0.65864270000E+03 0.  1.
    8880022    1    1    2    0    0 -0.18600574401E+03 -0.74653590045E+03 -0.12390431561E+04  0.14664697689E+04  0.15294330000E+03 0.  0.
<mgrwt>
<rscale>  0 0.95010770E+03</rscale>
<asrwt>0</asrwt>
<pdfrwt beam="1">  1        2 0.23133503E+00 0.10127804E+04</pdfrwt>
<pdfrwt beam="2">  1       -2 0.27889512E+00 0.10127804E+04</pdfrwt>
<totfact> 0.54041786E-01</totfact>
</mgrwt>
</event>
<event>
 4    2  0.7051481E-007  0.8651074E+03  0.7818608E-02  0.9584542E-01
          2   -1    0    0  501    0  0.00000000000E+00  0.00000000000E+00  0.24469861261E+04  0.24469861261E+04  0.25500000000E-02 0. -1.
         -2   -1    0    0    0  501 -0.00000000000E+00 -0.00000000000E+00 -0.11925327717E+04  0.11925327717E+04  0.25500000000E-02 0.  1.
    8880023    1    1    2    0    0  0.55993270342E+03 -0.32803226595E+02 -0.99363846501E+03  0.13174704131E+04  0.65864270000E+03 0.  1.
    8880022    1    1    2    0    0 -0.55993270342E+03  0.32803226595E+02  0.22480918194E+04  0.23220484847E+04  0.15294330000E+03 0.  0.
<mgrwt>
<rscale>  0 0.78327794E+03</rscale>
<asrwt>0</asrwt>
<pdfrwt beam="1">  1        2 0.37645940E+00 0.86510744E+03</pdfrwt>
<pdfrwt beam="2">  1       -2 0.18346658E+00 0.86510744E+03</pdfrwt>
<totfact> 0.65997566E-01</totfact>
</mgrwt>
</event>
<event>
 4    2  0.3855935E-007  0.1499552E+04  0.7818608E-02  0.8909952E-01
         -2   -1    0    0    0  501 -0.00000000000E+00  0.00000000000E+00  0.16176154070E+04  0.16176154070E+04  0.25500000000E-02 0.  1.
          2   -1    0    0  501    0  0.00000000000E+00 -0.00000000000E+00 -0.13641451589E+04  0.13641451589E+04  0.25500000000E-02 0. -1.
    8880023    1    1    2    0    0 -0.83226163506E+03 -0.10593334919E+04  0.54397703961E+03  0.15951702424E+04  0.65864270000E+03 0.  0.
    8880022    1    1    2    0    0  0.83226163506E+03  0.10593334919E+04 -0.29050679147E+03  0.13865903235E+04  0.15294330000E+03 0.  0.
<mgrwt>
<rscale>  0 0.14622494E+04</rscale>
<asrwt>0</asrwt>
<pdfrwt beam="1">  1        2 0.20986849E+00 0.14995523E+04</pdfrwt>
<pdfrwt beam="2">  1       -2 0.24886391E+00 0.14995523E+04</pdfrwt>
<totfact> 0.93342404E-01</totfact>
</mgrwt>
</event>
<event>
 4    2  0.3855935E-007  0.8644268E+03  0.7818608E-02  0.9585737E-01
          2   -1    0    0  501    0  0.00000000000E+00  0.00000000000E+00  0.13282590520E+04  0.13282590520E+04  0.25500000000E-02 0. -1.
         -2   -1    0    0    0  501 -0.00000000000E+00 -0.00000000000E+00 -0.48101196913E+03  0.48101196914E+03  0.25500000000E-02 0.  1.
    8880023    1    1    2    0    0 -0.26093875878E+03 -0.49531249915E+03  0.11059992582E+03  0.87147349788E+03  0.65864270000E+03 0.  0.
    8880022    1    1    2    0    0  0.26093875878E+03  0.49531249915E+03  0.73664715706E+03  0.93779752328E+03  0.15294330000E+03 0.  0.
<mgrwt>
<rscale>  0 0.78247438E+03</rscale>
<asrwt>0</asrwt>
<pdfrwt beam="1">  1        2 0.20434755E+00 0.86442681E+03</pdfrwt>
<pdfrwt beam="2">  1       -2 0.74001841E-01 0.86442681E+03</pdfrwt>
<totfact> 0.26410946E+01</totfact>
</mgrwt>
</event>
<event>
 4    2  0.3855935E-007  0.6700547E+03  0.7818608E-02  0.1015624E+00
         -2   -1    0    0    0  501 -0.00000000000E+00  0.00000000000E+00  0.27825428443E+03  0.27825428444E+03  0.25500000000E-02 0.  1.
          2   -1    0    0  501    0  0.00000000000E+00 -0.00000000000E+00 -0.18958818548E+04  0.18958818548E+04  0.25500000000E-02 0. -1.
    8880023    1    1    2    0    0  0.20868599073E+02 -0.12135721802E+03 -0.14127837236E+03  0.68478672413E+03  0.65864270000E+03 0.  1.
    8880022    1    1    2    0    0 -0.20868599073E+02  0.12135721802E+03 -0.14763491980E+04  0.14893494151E+04  0.15294330000E+03 0.  0.
<mgrwt>
<rscale>  0 0.49299486E+03</rscale>
<asrwt>0</asrwt>
<pdfrwt beam="1">  1        2 0.29167412E+00 0.67005468E+03</pdfrwt>
<pdfrwt beam="2">  1       -2 0.42808353E-01 0.67005468E+03</pdfrwt>
<totfact> 0.41060476E+01</totfact>
</mgrwt>
</event>
<event>
 4    2  0.3884268E-007  0.6798318E+03  0.7818608E-02  0.1009419E+00
         -2   -1    0    0    0  501 -0.00000000000E+00  0.00000000000E+00  0.98922845341E+03  0.98922845341E+03  0.25500000000E-02 0.  1.
          2   -1    0    0  501    0  0.00000000000E+00 -0.00000000000E+00 -0.21015708904E+04  0.21015708904E+04  0.25500000000E-02 0. -1.
    8880023    1    1    2    0    0 -0.72987384901E+02 -0.15176912867E+03  0.86513115231E+03  0.11002832107E+04  0.65864270000E+03 0.  1.
    8880022    1    1    2    0    0  0.72987384901E+02  0.15176912867E+03 -0.19774735893E+04  0.19905161331E+04  0.15294330000E+03 0.  0.
<mgrwt>
<rscale>  0 0.51706209E+03</rscale>
<asrwt>0</asrwt>
<pdfrwt beam="1">  1        2 0.32331860E+00 0.67983177E+03</pdfrwt>
<pdfrwt beam="2">  1       -2 0.15218899E+00 0.67983177E+03</pdfrwt>
<totfact> 0.17846360E+00</totfact>
</mgrwt>
</event>
<event>
 4    2  0.3855935E-007  0.8661253E+03  0.7818608E-02  0.9582759E-01
         -2   -1    0    0    0  501 -0.00000000000E+00  0.00000000000E+00  0.35612472071E+03  0.35612472072E+03  0.25500000000E-02 0.  1.
          2   -1    0    0  501    0  0.00000000000E+00 -0.00000000000E+00 -0.23499447975E+04  0.23499447975E+04  0.25500000000E-02 0. -1.
    8880023    1    1    2    0    0  0.52930049025E+03  0.19027310765E+03 -0.30299493071E+03  0.91759413619E+03  0.65864270000E+03 0.  1.
    8880022    1    1    2    0    0 -0.52930049025E+03 -0.19027310765E+03 -0.16908251461E+04  0.17884753821E+04  0.15294330000E+03 0.  0.
<mgrwt>
<rscale>  0 0.78447879E+03</rscale>
<asrwt>0</asrwt>
<pdfrwt beam="1">  1        2 0.36152996E+00 0.86612532E+03</pdfrwt>
<pdfrwt beam="2">  1       -2 0.54788420E-01 0.86612532E+03</pdfrwt>
<totfact> 0.13655859E+01</totfact>
</mgrwt>
</event>
<event>
 4    2  0.3855935E-007  0.1390332E+04  0.7818608E-02  0.8991232E-01
          2   -1    0    0  501    0  0.00000000000E+00  0.00000000000E+00  0.20641769623E+04  0.20641769623E+04  0.25500000000E-02 0. -1.
         -2   -1    0    0    0  501 -0.00000000000E+00 -0.00000000000E+00 -0.10324258329E+04  0.10324258329E+04  0.25500000000E-02 0.  1.
    8880023    1    1    2    0    0 -0.45016220829E+03  0.11386682974E+04  0.12183683591E+04  0.18486327840E+04  0.65864270000E+03 0.  0.
    8880022    1    1    2    0    0  0.45016220829E+03 -0.11386682974E+04 -0.18661722969E+03  0.12479700112E+04  0.15294330000E+03 0.  0.
<mgrwt>
<rscale>  0 0.13494665E+04</rscale>
<asrwt>0</asrwt>
<pdfrwt beam="1">  1        2 0.31756569E+00 0.13903315E+04</pdfrwt>
<pdfrwt beam="2">  1       -2 0.15883474E+00 0.13903315E+04</pdfrwt>
<totfact> 0.15072480E+00</totfact>
</mgrwt>
</event>
<event>
 4    2  0.3855935E-007  0.7603138E+03  0.7818608E-02  0.9804296E-01
         -2   -1    0    0    0  501 -0.00000000000E+00  0.00000000000E+00  0.73348429503E+03  0.73348429503E+03  0.25500000000E-02 0.  1.
          2   -1    0    0  501    0  0.00000000000E+00 -0.00000000000E+00 -0.95323571916E+03  0.95323571917E+03  0.25500000000E-02 0. -1.
    8880023    1    1    2    0    0 -0.13295764600E+03 -0.35579373971E+03  0.46329388463E+03  0.89034732023E+03  0.65864270000E+03 0.  1.
    8880022    1    1    2    0    0  0.13295764600E+03  0.35579373971E+03 -0.68304530877E+03  0.79637269396E+03  0.15294330000E+03 0.  0.
<mgrwt>
<rscale>  0 0.65132521E+03</rscale>
<asrwt>0</asrwt>
<pdfrwt beam="1">  1        2 0.14665165E+00 0.76031383E+03</pdfrwt>
<pdfrwt beam="2">  1       -2 0.11284374E+00 0.76031383E+03</pdfrwt>
<totfact> 0.16934971E+01</totfact>
</mgrwt>
</event>
<event>
 4    2  0.3855935E-007  0.1000374E+04  0.7818608E-02  0.9381068E-01
         -2   -1    0    0    0  501 -0.00000000000E+00  0.00000000000E+00  0.34240114595E+03  0.34240114596E+03  0.25500000000E-02 0.  1.
          2   -1    0    0  501    0  0.00000000000E+00 -0.00000000000E+00 -0.23992576276E+04  0.23992576276E+04  0.25500000000E-02 0. -1.
    8880023    1    1    2    0    0  0.69286421398E+02  0.74975869448E+03 -0.85902246900E+03  0.13185858018E+04  0.65864270000E+03 0.  0.
    8880022    1    1    2    0    0 -0.69286421398E+02 -0.74975869448E+03 -0.11978340127E+04  0.14230729718E+04  0.15294330000E+03 0.  0.
<mgrwt>
<rscale>  0 0.93650222E+03</rscale>
<asrwt>0</asrwt>
<pdfrwt beam="1">  1        2 0.36911655E+00 0.10003744E+04</pdfrwt>
<pdfrwt beam="2">  1       -2 0.52677101E-01 0.10003744E+04</pdfrwt>
<totfact> 0.13667106E+01</totfact>
</mgrwt>
</event>
<event>
 4    2  0.3855935E-007  0.9170333E+03  0.7818608E-02  0.9499223E-01
         -2   -1    0    0    0  501 -0.00000000000E+00  0.00000000000E+00  0.13215611977E+04  0.13215611977E+04  0.25500000000E-02 0.  1.
          2   -1    0    0  501    0  0.00000000000E+00 -0.00000000000E+00 -0.67807706400E+03  0.67807706400E+03  0.25500000000E-02 0. -1.
    8880023    1    1    2    0    0  0.60784207161E+03  0.19408222364E+03  0.90954684921E+03  0.12915980686E+04  0.65864270000E+03 0.  1.
    8880022    1    1    2    0    0 -0.60784207161E+03 -0.19408222364E+03 -0.26606271548E+03  0.70804019317E+03  0.15294330000E+03 0.  0.
<mgrwt>
<rscale>  0 0.84341138E+03</rscale>
<asrwt>0</asrwt>
<pdfrwt beam="1">  1        2 0.10431955E+00 0.91703331E+03</pdfrwt>
<pdfrwt beam="2">  1       -2 0.20331711E+00 0.91703331E+03</pdfrwt>
<totfact> 0.54069859E+00</totfact>
</mgrwt>
</event>
<event>
 4    2  0.3855935E-007  0.6957081E+03  0.7818608E-02  0.1001549E+00
          2   -1    0    0  501    0  0.00000000000E+00  0.00000000000E+00  0.39243507062E+03  0.39243507063E+03  0.25500000000E-02 0. -1.
         -2   -1    0    0    0  501 -0.00000000000E+00 -0.00000000000E+00 -0.12647432605E+04  0.12647432605E+04  0.25500000000E-02 0.  1.
    8880023    1    1    2    0    0  0.20914034511E+03 -0.80373327567E+02 -0.11009868008E+04  0.13023754057E+04  0.65864270000E+03 0.  1.
    8880022    1    1    2    0    0 -0.20914034511E+03  0.80373327567E+02  0.22867861092E+03  0.35480292536E+03  0.15294330000E+03 0.  0.
<mgrwt>
<rscale>  0 0.54976051E+03</rscale>
<asrwt>0</asrwt>
<pdfrwt beam="1">  1        2 0.60374627E-01 0.69570810E+03</pdfrwt>
<pdfrwt beam="2">  1       -2 0.19457589E+00 0.69570810E+03</pdfrwt>
<totfact> 0.12010774E+01</totfact>
</mgrwt>
</event>
<event>
 4    2  0.3855935E-007  0.7788400E+03  0.7818608E-02  0.9758569E-01
         -2   -1    0    0    0  501 -0.00000000000E+00  0.00000000000E+00  0.67904695889E+03  0.67904695889E+03  0.25500000000E-02 0.  1.
          2   -1    0    0  501    0  0.00000000000E+00 -0.00000000000E+00 -0.11557069446E+04  0.11557069446E+04  0.25500000000E-02 0. -1.
    8880023    1    1    2    0    0 -0.20066139837E+03  0.36402825302E+03  0.38283833357E+03  0.86784616247E+03  0.65864270000E+03 0.  1.
    8880022    1    1    2    0    0  0.20066139837E+03 -0.36402825302E+03 -0.85949831925E+03  0.96690774099E+03  0.15294330000E+03 0.  0.
<mgrwt>
<rscale>  0 0.67634169E+03</rscale>
<asrwt>0</asrwt>
<pdfrwt beam="1">  1        2 0.17780107E+00 0.77884002E+03</pdfrwt>
<pdfrwt beam="2">  1       -2 0.10446876E+00 0.77884002E+03</pdfrwt>
<totfact> 0.15218039E+01</totfact>
</mgrwt>
</event>
<event>
 4    2  0.3855935E-007  0.1068636E+04  0.7818608E-02  0.9296807E-01
         -2   -1    0    0    0  501 -0.00000000000E+00  0.00000000000E+00  0.68825719812E+03  0.68825719813E+03  0.25500000000E-02 0.  1.
          2   -1    0    0  501    0  0.00000000000E+00 -0.00000000000E+00 -0.23457179346E+04  0.23457179346E+04  0.25500000000E-02 0. -1.
    8880023    1    1    2    0    0 -0.43921910495E+03  0.71781580694E+03  0.10615657860E+03  0.10738958889E+04  0.65864270000E+03 0.  1.
    8880022    1    1    2    0    0  0.43921910495E+03 -0.71781580694E+03 -0.17636173150E+04  0.19600792437E+04  0.15294330000E+03 0.  0.
<mgrwt>
<rscale>  0 0.10107738E+04</rscale>
<asrwt>0</asrwt>
<pdfrwt beam="1">  1        2 0.36087968E+00 0.10686361E+04</pdfrwt>
<pdfrwt beam="2">  1       -2 0.10588572E+00 0.10686361E+04</pdfrwt>
<totfact> 0.30647079E+00</totfact>
</mgrwt>
</event>
<event>
 4    2  0.3855935E-007  0.7061880E+03  0.7818608E-02  0.9972439E-01
         -2   -1    0    0    0  501 -0.00000000000E+00  0.00000000000E+00  0.17315809431E+03  0.17315809432E+03  0.25500000000E-02 0.  1.
          2   -1    0    0  501    0  0.00000000000E+00 -0.00000000000E+00 -0.31765187905E+04  0.31765187905E+04  0.25500000000E-02 0. -1.
    8880023    1    1    2    0    0  0.68336117718E+02  0.24540055242E+03 -0.59607796571E+03  0.92412683306E+03  0.65864270000E+03 0.  1.
    8880022    1    1    2    0    0 -0.68336117718E+02 -0.24540055242E+03 -0.24072827305E+04  0.24255500518E+04  0.15294330000E+03 0.  0.
<mgrwt>
<rscale>  0 0.56875447E+03</rscale>
<asrwt>0</asrwt>
<pdfrwt beam="1">  1        2 0.48869515E+00 0.70618798E+03</pdfrwt>
<pdfrwt beam="2">  1       -2 0.26639709E-01 0.70618798E+03</pdfrwt>
<totfact> 0.18412740E+01</totfact>
</mgrwt>
</event>
<event>
 4    2  0.3855935E-007  0.8520973E+03  0.7818608E-02  0.9607778E-01
          2   -1    0    0  501    0  0.00000000000E+00  0.00000000000E+00  0.14866059501E+04  0.14866059501E+04  0.25500000000E-02 0. -1.
         -2   -1    0    0    0  501 -0.00000000000E+00 -0.00000000000E+00 -0.48090011730E+03  0.48090011730E+03  0.25500000000E-02 0.  1.
    8880023    1    1    2    0    0  0.52890981621E+02 -0.53801679057E+03  0.43405334542E+02  0.85320205825E+03  0.65864270000E+03 0.  0.
    8880022    1    1    2    0    0 -0.52890981621E+02  0.53801679057E+03  0.96230049831E+03  0.11143040092E+04  0.15294330000E+03 0. -1.
<mgrwt>
<rscale>  0 0.76783482E+03</rscale>
<asrwt>0</asrwt>
<pdfrwt beam="1">  1        2 0.22870861E+00 0.85209725E+03</pdfrwt>
<pdfrwt beam="2">  1       -2 0.73984634E-01 0.85209725E+03</pdfrwt>
<totfact> 0.21512239E+01</totfact>
</mgrwt>
</event>
<event>
 4    2  0.3855935E-007  0.8690146E+03  0.7818608E-02  0.9577725E-01
          2   -1    0    0  501    0  0.00000000000E+00  0.00000000000E+00  0.10639130354E+04  0.10639130354E+04  0.25500000000E-02 0. -1.
         -2   -1    0    0    0  501 -0.00000000000E+00 -0.00000000000E+00 -0.99510203566E+03  0.99510203566E+03  0.25500000000E-02 0.  1.
    8880023    1    1    2    0    0  0.50037835078E+03 -0.26645377370E+03 -0.68284934368E+03  0.11052011310E+04  0.65864270000E+03 0.  1.
    8880022    1    1    2    0    0 -0.50037835078E+03  0.26645377370E+03  0.75166034345E+03  0.95381394012E+03  0.15294330000E+03 0.  0.
<mgrwt>
<rscale>  0 0.78788190E+03</rscale>
<asrwt>0</asrwt>
<pdfrwt beam="1">  1        2 0.16367893E+00 0.86901456E+03</pdfrwt>
<pdfrwt beam="2">  1       -2 0.15309262E+00 0.86901456E+03</pdfrwt>
<totfact> 0.65419664E+00</totfact>
</mgrwt>
</event>
<event>
 4    2  0.3855935E-007  0.7817900E+03  0.7818608E-02  0.9751649E-01
         -2   -1    0    0    0  501 -0.00000000000E+00  0.00000000000E+00  0.40423352299E+03  0.40423352300E+03  0.25500000000E-02 0.  1.
          2   -1    0    0  501    0  0.00000000000E+00 -0.00000000000E+00 -0.15554637795E+04  0.15554637795E+04  0.25500000000E-02 0. -1.
    8880023    1    1    2    0    0  0.31849580866E+03  0.27558275636E+03 -0.64775149810E+02  0.78446890444E+03  0.65864270000E+03 0.  0.
    8880022    1    1    2    0    0 -0.31849580866E+03 -0.27558275636E+03 -0.10864551067E+04  0.11752283981E+04  0.15294330000E+03 0.  0.
<mgrwt>
<rscale>  0 0.68023169E+03</rscale>
<asrwt>0</asrwt>
<pdfrwt beam="1">  1        2 0.23930212E+00 0.78179002E+03</pdfrwt>
<pdfrwt beam="2">  1       -2 0.62189774E-01 0.78179002E+03</pdfrwt>
<totfact> 0.28932529E+01</totfact>
</mgrwt>
</event>
<event>
 4    2  0.3855935E-007  0.7034954E+03  0.7818608E-02  0.9982999E-01
          2   -1    0    0  501    0  0.00000000000E+00  0.00000000000E+00  0.18203942660E+04  0.18203942660E+04  0.25500000000E-02 0. -1.
         -2   -1    0    0    0  501 -0.00000000000E+00 -0.00000000000E+00 -0.41189464520E+03  0.41189464520E+03  0.25500000000E-02 0.  1.
    8880023    1    1    2    0    0 -0.96618253681E+02  0.22750935341E+03 -0.86954183214E+02  0.70884894658E+03  0.65864270000E+03 0.  1.
    8880022    1    1    2    0    0  0.96618253681E+02 -0.22750935341E+03  0.14954538040E+04  0.15234399646E+04  0.15294330000E+03 0.  0.
<mgrwt>
<rscale>  0 0.56402045E+03</rscale>
<asrwt>0</asrwt>
<pdfrwt beam="1">  1        2 0.28006065E+00 0.70349542E+03</pdfrwt>
<pdfrwt beam="2">  1       -2 0.63368408E-01 0.70349542E+03</pdfrwt>
<totfact> 0.20095427E+01</totfact>
</mgrwt>
</event>
<event>
 4    2  0.3855935E-007  0.9284267E+03  0.7818608E-02  0.9481857E-01
         -2   -1    0    0    0  501 -0.00000000000E+00  0.00000000000E+00  0.25177465696E+04  0.25177465696E+04  0.25500000000E-02 0.  1.
          2   -1    0    0  501    0  0.00000000000E+00 -0.00000000000E+00 -0.52763218858E+03  0.52763218858E+03  0.25500000000E-02 0. -1.
    8880023    1    1    2    0    0  0.61637007911E+03 -0.21966754340E+03  0.21610103232E+04  0.23520080203E+04  0.65864270000E+03 0.  0.
    8880022    1    1    2    0    0 -0.61637007911E+03  0.21966754340E+03 -0.17089594225E+03  0.69337073787E+03  0.15294330000E+03 0.  0.
<mgrwt>
<rscale>  0 0.85634714E+03</rscale>
<asrwt>0</asrwt>
<pdfrwt beam="1">  1        2 0.81174184E-01 0.92842669E+03</pdfrwt>
<pdfrwt beam="2">  1       -2 0.38734562E+00 0.92842669E+03</pdfrwt>
<totfact> 0.53432730E-01</totfact>
</mgrwt>
</event>
<event>
 4    2  0.3855935E-007  0.7302866E+03  0.7818608E-02  0.9889202E-01
          2   -1    0    0  501    0  0.00000000000E+00  0.00000000000E+00  0.27304476179E+04  0.27304476179E+04  0.25500000000E-02 0. -1.
         -2   -1    0    0    0  501 -0.00000000000E+00 -0.00000000000E+00 -0.27189174062E+03  0.27189174064E+03  0.25500000000E-02 0.  1.
    8880023    1    1    2    0    0 -0.29903529076E+03  0.10042984829E+03  0.25874478155E+03  0.77476920937E+03  0.65864270000E+03 0.  1.
    8880022    1    1    2    0    0  0.29903529076E+03 -0.10042984829E+03  0.21998110958E+04  0.22275701492E+04  0.15294330000E+03 0.  0.
<mgrwt>
<rscale>  0 0.60787451E+03</rscale>
<asrwt>0</asrwt>
<pdfrwt beam="1">  1        2 0.42006884E+00 0.73028656E+03</pdfrwt>
<pdfrwt beam="2">  1       -2 0.41829501E-01 0.73028656E+03</pdfrwt>
<totfact> 0.14576367E+01</totfact>
</mgrwt>
</event>
<event>
 4    2  0.5660656E-007  0.6616222E+03  0.7818608E-02  0.1022553E+00
         -2   -1    0    0    0  501 -0.00000000000E+00  0.00000000000E+00  0.14429738468E+04  0.14429738468E+04  0.25500000000E-02 0.  1.
          2   -1    0    0  501    0  0.00000000000E+00 -0.00000000000E+00 -0.14805240559E+04  0.14805240559E+04  0.25500000000E-02 0. -1.
    8880023    1    1    2    0    0 -0.47984547020E+02  0.40387824819E+02  0.13620126037E+04  0.15142067997E+04  0.65864270000E+03 0.  1.
    8880022    1    1    2    0    0  0.47984547020E+02 -0.40387824819E+02 -0.13995628128E+04  0.14092911030E+04  0.15294330000E+03 0.  0.
<mgrwt>
<rscale>  0 0.46776556E+03</rscale>
<asrwt>0</asrwt>
<pdfrwt beam="1">  1        2 0.22777293E+00 0.66162217E+03</pdfrwt>
<pdfrwt beam="2">  1       -2 0.22199598E+00 0.66162217E+03</pdfrwt>
<totfact> 0.13180265E+00</totfact>
</mgrwt>
</event>
<event>
 4    2  0.3855935E-007  0.7070060E+03  0.7818608E-02  0.9969292E-01
          2   -1    0    0  501    0  0.00000000000E+00  0.00000000000E+00  0.35383562580E+04  0.35383562580E+04  0.25500000000E-02 0. -1.
         -2   -1    0    0    0  501 -0.00000000000E+00 -0.00000000000E+00 -0.34050475667E+03  0.34050475668E+03  0.25500000000E-02 0.  1.
    8880023    1    1    2    0    0  0.18379181616E+02 -0.25633854196E+03  0.41339741087E+02  0.70821354327E+03  0.65864270000E+03 0.  1.
    8880022    1    1    2    0    0 -0.18379181616E+02  0.25633854196E+03  0.31565117603E+04  0.31706474714E+04  0.15294330000E+03 0.  0.
<mgrwt>
<rscale>  0 0.57017493E+03</rscale>
<asrwt>0</asrwt>
<pdfrwt beam="1">  1        2 0.54436250E+00 0.70700597E+03</pdfrwt>
<pdfrwt beam="2">  1       -2 0.52385347E-01 0.70700597E+03</pdfrwt>
<totfact> 0.28860228E+00</totfact>
</mgrwt>
</event>
<event>
 4    2  0.3855935E-007  0.7726166E+03  0.7818608E-02  0.9773476E-01
         -2   -1    0    0    0  501 -0.00000000000E+00  0.00000000000E+00  0.32926472778E+03  0.32926472779E+03  0.25500000000E-02 0.  1.
          2   -1    0    0  501    0  0.00000000000E+00 -0.00000000000E+00 -0.23344542642E+04  0.23344542642E+04  0.25500000000E-02 0. -1.
    8880023    1    1    2    0    0 -0.39003045890E+03  0.10489247552E+03 -0.18697795053E+03  0.79491958747E+03  0.65864270000E+03 0.  1.
    8880022    1    1    2    0    0  0.39003045890E+03 -0.10489247552E+03 -0.18182115859E+04  0.18687994046E+04  0.15294330000E+03 0.  0.
<mgrwt>
<rscale>  0 0.66805631E+03</rscale>
<asrwt>0</asrwt>
<pdfrwt beam="1">  1        2 0.35914680E+00 0.77261659E+03</pdfrwt>
<pdfrwt beam="2">  1       -2 0.50656113E-01 0.77261659E+03</pdfrwt>
<totfact> 0.16590236E+01</totfact>
</mgrwt>
</event>
<event>
 4    2  0.3855935E-007  0.6874425E+03  0.7818608E-02  0.1005393E+00
         -2   -1    0    0    0  501 -0.00000000000E+00  0.00000000000E+00  0.23425111166E+03  0.23425111168E+03  0.25500000000E-02 0.  1.
          2   -1    0    0  501    0  0.00000000000E+00 -0.00000000000E+00 -0.18659180095E+04  0.18659180095E+04  0.25500000000E-02 0. -1.
    8880023    1    1    2    0    0 -0.19689021996E+03 -0.11153775196E+01 -0.30810422175E+03  0.75332955637E+03  0.65864270000E+03 0. -1.
    8880022    1    1    2    0    0  0.19689021996E+03  0.11153775196E+01 -0.13235626760E+04  0.13468395648E+04  0.15294330000E+03 0.  0.
<mgrwt>
<rscale>  0 0.53347613E+03</rscale>
<asrwt>0</asrwt>
<pdfrwt beam="1">  1        2 0.28706430E+00 0.68744251E+03</pdfrwt>
<pdfrwt beam="2">  1       -2 0.36038634E-01 0.68744251E+03</pdfrwt>
<totfact> 0.59405369E+01</totfact>
</mgrwt>
</event>
<event>
 4    2  0.3855935E-007  0.7241260E+03  0.7818608E-02  0.9908865E-01
          2   -1    0    0  501    0  0.00000000000E+00  0.00000000000E+00  0.12638739887E+04  0.12638739887E+04  0.25500000000E-02 0. -1.
         -2   -1    0    0    0  501 -0.00000000000E+00 -0.00000000000E+00 -0.57471141133E+03  0.57471141134E+03  0.25500000000E-02 0.  1.
    8880023    1    1    2    0    0  0.12571829216E+03  0.27339190732E+03 -0.30720264472E+03  0.78659512785E+03  0.65864270000E+03 0.  0.
    8880022    1    1    2    0    0 -0.12571829216E+03 -0.27339190732E+03  0.99636522212E+03  0.10519902722E+04  0.15294330000E+03 0.  0.
<mgrwt>
<rscale>  0 0.59833590E+03</rscale>
<asrwt>0</asrwt>
<pdfrwt beam="1">  1        2 0.19444215E+00 0.72412598E+03</pdfrwt>
<pdfrwt beam="2">  1       -2 0.88417140E-01 0.72412598E+03</pdfrwt>
<totfact> 0.19551790E+01</totfact>
</mgrwt>
</event>
<event>
 4    2  0.3855935E-007  0.8355910E+03  0.7818608E-02  0.9638550E-01
          2   -1    0    0  501    0  0.00000000000E+00  0.00000000000E+00  0.12455065646E+04  0.12455065646E+04  0.25500000000E-02 0. -1.
         -2   -1    0    0    0  501 -0.00000000000E+00 -0.00000000000E+00 -0.92782327097E+03  0.92782327098E+03  0.25500000000E-02 0.  1.
    8880023    1    1    2    0    0 -0.51304447312E+03 -0.34460275059E+02 -0.65553725786E+03  0.10620458769E+04  0.65864270000E+03 0.  1.
    8880022    1    1    2    0    0  0.51304447312E+03  0.34460275059E+02  0.97322055147E+03  0.11112839587E+04  0.15294330000E+03 0.  0.
<mgrwt>
<rscale>  0 0.74796366E+03</rscale>
<asrwt>0</asrwt>
<pdfrwt beam="1">  1        2 0.19161639E+00 0.83559102E+03</pdfrwt>
<pdfrwt beam="2">  1       -2 0.14274204E+00 0.83559102E+03</pdfrwt>
<totfact> 0.61382621E+00</totfact>
</mgrwt>
</event>
<event>
 4    2  0.3855935E-007  0.7672087E+03  0.7818608E-02  0.9786790E-01
         -2   -1    0    0    0  501 -0.00000000000E+00  0.00000000000E+00  0.12703164370E+03  0.12703164373E+03  0.25500000000E-02 0.  1.
          2   -1    0    0  501    0  0.00000000000E+00 -0.00000000000E+00 -0.40151151680E+04  0.40151151680E+04  0.25500000000E-02 0. -1.
    8880023    1    1    2    0    0  0.39298162874E+03  0.19088515162E+02 -0.12221746884E+04  0.14430246384E+04  0.65864270000E+03 0.  1.
    8880022    1    1    2    0    0 -0.39298162874E+03 -0.19088515162E+02 -0.26659088359E+04  0.26991221733E+04  0.15294330000E+03 0.  0.
<mgrwt>
<rscale>  0 0.66076300E+03</rscale>
<asrwt>0</asrwt>
<pdfrwt beam="1">  1        2 0.61770993E+00 0.76720867E+03</pdfrwt>
<pdfrwt beam="2">  1       -2 0.19543333E-01 0.76720867E+03</pdfrwt>
<totfact> 0.81235453E+00</totfact>
</mgrwt>
</event>
<event>
 4    2  0.3855935E-007  0.6846144E+03  0.7818608E-02  0.1006825E+00
          2   -1    0    0  501    0  0.00000000000E+00  0.00000000000E+00  0.10921569898E+04  0.10921569898E+04  0.25500000000E-02 0. -1.
         -2   -1    0    0    0  501 -0.00000000000E+00 -0.00000000000E+00 -0.19769402801E+03  0.19769402803E+03  0.25500000000E-02 0.  1.
    8880023    1    1    2    0    0 -0.17495610259E+03 -0.65399437497E+02  0.61199716400E+03  0.91827961933E+03  0.65864270000E+03 0.  0.
    8880022    1    1    2    0    0  0.17495610259E+03  0.65399437497E+02  0.28246579782E+03  0.37157139854E+03  0.15294330000E+03 0. -1.
<mgrwt>
<rscale>  0 0.52756135E+03</rscale>
<asrwt>0</asrwt>
<pdfrwt beam="1">  1        2 0.16802415E+00 0.68461444E+03</pdfrwt>
<pdfrwt beam="2">  1       -2 0.30414466E-01 0.68461444E+03</pdfrwt>
<totfact> 0.22325332E+02</totfact>
</mgrwt>
</event>
<event>
 4    2  0.3855935E-007  0.7746622E+03  0.7818608E-02  0.9768528E-01
         -2   -1    0    0    0  501 -0.00000000000E+00  0.00000000000E+00  0.49781375443E+03  0.49781375443E+03  0.25500000000E-02 0.  1.
          2   -1    0    0  501    0  0.00000000000E+00 -0.00000000000E+00 -0.77713797151E+03  0.77713797151E+03  0.25500000000E-02 0. -1.
    8880023    1    1    2    0    0 -0.32031665349E+03  0.25236592606E+03 -0.34724743951E+02  0.77544009004E+03  0.65864270000E+03 0.  1.
    8880022    1    1    2    0    0  0.32031665349E+03 -0.25236592606E+03 -0.24459947313E+03  0.49951163591E+03  0.15294330000E+03 0.  0.
<mgrwt>
<rscale>  0 0.67079191E+03</rscale>
<asrwt>0</asrwt>
<pdfrwt beam="1">  1        2 0.11955969E+00 0.77466220E+03</pdfrwt>
<pdfrwt beam="2">  1       -2 0.76586731E-01 0.77466220E+03</pdfrwt>
<totfact> 0.55184458E+01</totfact>
</mgrwt>
</event>
<event>
 4    2  0.3855935E-007  0.6713484E+03  0.7818608E-02  0.1014714E+00
          2   -1    0    0  501    0  0.00000000000E+00  0.00000000000E+00  0.26844943562E+04  0.26844943562E+04  0.25500000000E-02 0. -1.
         -2   -1    0    0    0  501 -0.00000000000E+00 -0.00000000000E+00 -0.11325435602E+03  0.11325435605E+03  0.25500000000E-02 0.  1.
    8880023    1    1    2    0    0  0.30358464363E+02  0.12639956185E+03  0.94515378867E+03  0.11593206528E+04  0.65864270000E+03 0.  0.
    8880022    1    1    2    0    0 -0.30358464363E+02 -0.12639956185E+03  0.16260862115E+04  0.16384280594E+04  0.15294330000E+03 0. -1.
<mgrwt>
<rscale>  0 0.49643320E+03</rscale>
<asrwt>0</asrwt>
<pdfrwt beam="1">  1        2 0.41299910E+00 0.67134841E+03</pdfrwt>
<pdfrwt beam="2">  1       -2 0.17423749E-01 0.67134841E+03</pdfrwt>
<totfact> 0.77665371E+01</totfact>
</mgrwt>
</event>
<event>
 4    2  0.3855935E-007  0.6713305E+03  0.7818608E-02  0.1014727E+00
         -2   -1    0    0    0  501 -0.00000000000E+00  0.00000000000E+00  0.41397932657E+03  0.41397932657E+03  0.25500000000E-02 0.  1.
          2   -1    0    0  501    0  0.00000000000E+00 -0.00000000000E+00 -0.76112287301E+03  0.76112287302E+03  0.25500000000E-02 0. -1.
    8880023    1    1    2    0    0  0.94194530795E+02 -0.89452694668E+02  0.10587774079E+03  0.67962835173E+03  0.65864270000E+03 0.  0.
    8880022    1    1    2    0    0 -0.94194530795E+02  0.89452694668E+02 -0.45302128723E+03  0.49547384786E+03  0.15294330000E+03 0.  0.
<mgrwt>
<rscale>  0 0.49638614E+03</rscale>
<asrwt>0</asrwt>
<pdfrwt beam="1">  1        2 0.11709583E+00 0.67133047E+03</pdfrwt>
<pdfrwt beam="2">  1       -2 0.63689127E-01 0.67133047E+03</pdfrwt>
<totfact> 0.85432348E+01</totfact>
</mgrwt>
</event>
<event>
 4    2  0.3855935E-007  0.8299865E+03  0.7818608E-02  0.9649359E-01
         -2   -1    0    0    0  501 -0.00000000000E+00  0.00000000000E+00  0.89855398624E+03  0.89855398625E+03  0.25500000000E-02 0.  1.
          2   -1    0    0  501    0  0.00000000000E+00 -0.00000000000E+00 -0.58354501613E+03  0.58354501614E+03  0.25500000000E-02 0. -1.
    8880023    1    1    2    0    0  0.49548634490E+03 -0.97778975893E+02  0.44057609033E+03  0.93967278546E+03  0.65864270000E+03 0.  1.
    8880022    1    1    2    0    0 -0.49548634490E+03  0.97778975893E+02 -0.12556712022E+03  0.54242621692E+03  0.15294330000E+03 0.  0.
<mgrwt>
<rscale>  0 0.74113694E+03</rscale>
<asrwt>0</asrwt>
<pdfrwt beam="1">  1        2 0.89776156E-01 0.82998654E+03</pdfrwt>
<pdfrwt beam="2">  1       -2 0.13823907E+00 0.82998654E+03</pdfrwt>
<totfact> 0.19162826E+01</totfact>
</mgrwt>
</event>
<event>
 4    2  0.3855935E-007  0.6648419E+03  0.7818608E-02  0.1019666E+00
         -2   -1    0    0    0  501 -0.00000000000E+00  0.00000000000E+00  0.19359155105E+03  0.19359155107E+03  0.25500000000E-02 0.  1.
          2   -1    0    0  501    0  0.00000000000E+00 -0.00000000000E+00 -0.29243381744E+04  0.29243381744E+04  0.25500000000E-02 0. -1.
    8880023    1    1    2    0    0 -0.47628391718E+02  0.77046093231E+02 -0.39070246398E+03  0.77114407591E+03  0.65864270000E+03 0.  1.
    8880022    1    1    2    0    0  0.47628391718E+02 -0.77046093231E+02 -0.23400441594E+04  0.23467856496E+04  0.15294330000E+03 0.  0.
<mgrwt>
<rscale>  0 0.47807186E+03</rscale>
<asrwt>0</asrwt>
<pdfrwt beam="1">  1        2 0.44989815E+00 0.66484191E+03</pdfrwt>
<pdfrwt beam="2">  1       -2 0.29783318E-01 0.66484191E+03</pdfrwt>
<totfact> 0.21625249E+01</totfact>
</mgrwt>
</event>
<event>
 4    2  0.3855935E-007  0.6917746E+03  0.7818608E-02  0.1003320E+00
         -2   -1    0    0    0  501 -0.00000000000E+00  0.00000000000E+00  0.13210165072E+03  0.13210165074E+03  0.25500000000E-02 0.  1.
          2   -1    0    0  501    0  0.00000000000E+00 -0.00000000000E+00 -0.30500730079E+04  0.30500730079E+04  0.25500000000E-02 0. -1.
    8880023    1    1    2    0    0  0.15196998750E+03 -0.14712917656E+03 -0.84142855998E+03  0.10892906405E+04  0.65864270000E+03 0.  1.
    8880022    1    1    2    0    0 -0.15196998750E+03  0.14712917656E+03 -0.20765427972E+04  0.20928840181E+04  0.15294330000E+03 0.  0.
<mgrwt>
<rscale>  0 0.54218008E+03</rscale>
<asrwt>0</asrwt>
<pdfrwt beam="1">  1        2 0.46924195E+00 0.69177459E+03</pdfrwt>
<pdfrwt beam="2">  1       -2 0.20323333E-01 0.69177459E+03</pdfrwt>
<totfact> 0.35881762E+01</totfact>
</mgrwt>
</event>
<event>
 4    2  0.3855935E-007  0.7266392E+03  0.7818608E-02  0.9900730E-01
         -2   -1    0    0    0  501 -0.00000000000E+00  0.00000000000E+00  0.62947880850E+03  0.62947880851E+03  0.25500000000E-02 0.  1.
          2   -1    0    0  501    0  0.00000000000E+00 -0.00000000000E+00 -0.83821700472E+03  0.83821700472E+03  0.25500000000E-02 0. -1.
    8880023    1    1    2    0    0  0.65758348054E+02 -0.29978343990E+03  0.35433213640E+03  0.80842794380E+03  0.65864270000E+03 0.  1.
    8880022    1    1    2    0    0 -0.65758348054E+02  0.29978343990E+03 -0.56307033262E+03  0.65926786943E+03  0.15294330000E+03 0.  0.
<mgrwt>
<rscale>  0 0.60225931E+03</rscale>
<asrwt>0</asrwt>
<pdfrwt beam="1">  1        2 0.12895646E+00 0.72663917E+03</pdfrwt>
<pdfrwt beam="2">  1       -2 0.96842893E-01 0.72663917E+03</pdfrwt>
<totfact> 0.29302820E+01</totfact>
</mgrwt>
</event>
<event>
 4    2  0.3855935E-007  0.6626165E+03  0.7818608E-02  0.1021623E+00
          2   -1    0    0  501    0  0.00000000000E+00  0.00000000000E+00  0.30362899455E+04  0.30362899455E+04  0.25500000000E-02 0. -1.
         -2   -1    0    0    0  501 -0.00000000000E+00 -0.00000000000E+00 -0.21946440185E+03  0.21946440186E+03  0.25500000000E-02 0.  1.
    8880023    1    1    2    0    0  0.61266096391E+02 -0.38689495442E+02  0.29005174668E+03  0.72331917826E+03  0.65864270000E+03 0.  1.
    8880022    1    1    2    0    0 -0.61266096391E+02  0.38689495442E+02  0.25267737969E+04  0.25324351691E+04  0.15294330000E+03 0.  0.
<mgrwt>
<rscale>  0 0.47105565E+03</rscale>
<asrwt>0</asrwt>
<pdfrwt beam="1">  1        2 0.46712155E+00 0.66261649E+03</pdfrwt>
<pdfrwt beam="2">  1       -2 0.33763753E-01 0.66261649E+03</pdfrwt>
<totfact> 0.14631711E+01</totfact>
</mgrwt>
</event>
<event>
 4    2  0.3855935E-007  0.6764784E+03  0.7818608E-02  0.1011390E+00
         -2   -1    0    0    0  501 -0.00000000000E+00  0.00000000000E+00  0.43886351250E+03  0.43886351250E+03  0.25500000000E-02 0.  1.
          2   -1    0    0  501    0  0.00000000000E+00 -0.00000000000E+00 -0.11041896260E+04  0.11041896260E+04  0.25500000000E-02 0. -1.
    8880023    1    1    2    0    0 -0.15369059263E+03  0.13857181569E+02  0.15536478621E+03  0.69409022670E+03  0.65864270000E+03 0.  1.
    8880022    1    1    2    0    0  0.15369059263E+03 -0.13857181569E+02 -0.82069089970E+03  0.84896291180E+03  0.15294330000E+03 0.  0.
<mgrwt>
<rscale>  0 0.50925857E+03</rscale>
<asrwt>0</asrwt>
<pdfrwt beam="1">  1        2 0.16987533E+00 0.67647840E+03</pdfrwt>
<pdfrwt beam="2">  1       -2 0.67517464E-01 0.67647840E+03</pdfrwt>
<totfact> 0.44606016E+01</totfact>
</mgrwt>
</event>
<event>
 4    2  0.3855935E-007  0.9225481E+03  0.7818608E-02  0.9490763E-01
         -2   -1    0    0    0  501 -0.00000000000E+00  0.00000000000E+00  0.26985864376E+03  0.26985864377E+03  0.25500000000E-02 0.  1.
          2   -1    0    0  501    0  0.00000000000E+00 -0.00000000000E+00 -0.26641750489E+04  0.26641750489E+04  0.25500000000E-02 0. -1.
    8880023    1    1    2    0    0 -0.63058805264E+03  0.14015499377E+03 -0.85561409428E+03  0.12582409940E+04  0.65864270000E+03 0.  0.
    8880022    1    1    2    0    0  0.63058805264E+03 -0.14015499377E+03 -0.15387023109E+04  0.16757926986E+04  0.15294330000E+03 0.  0.
<mgrwt>
<rscale>  0 0.84968259E+03</rscale>
<asrwt>0</asrwt>
<pdfrwt beam="1">  1        2 0.40987307E+00 0.92254806E+03</pdfrwt>
<pdfrwt beam="2">  1       -2 0.41516716E-01 0.92254806E+03</pdfrwt>
<totfact> 0.15717567E+01</totfact>
</mgrwt>
</event>
<event>
 4    2  0.3855935E-007  0.8926490E+03  0.7818608E-02  0.9537937E-01
         -2   -1    0    0    0  501 -0.00000000000E+00  0.00000000000E+00  0.22601401592E+03  0.22601401593E+03  0.25500000000E-02 0.  1.
          2   -1    0    0  501    0  0.00000000000E+00 -0.00000000000E+00 -0.45699978784E+04  0.45699978784E+04  0.25500000000E-02 0. -1.
    8880023    1    1    2    0    0 -0.60044316412E+03 -0.49800090027E+02 -0.39731419388E+04  0.40721835807E+04  0.65864270000E+03 0.  0.
    8880022    1    1    2    0    0  0.60044316412E+03  0.49800090027E+02 -0.37084192364E+03  0.72382831366E+03  0.15294330000E+03 0.  0.
<mgrwt>
<rscale>  0 0.81543754E+03</rscale>
<asrwt>0</asrwt>
<pdfrwt beam="1">  1        2 0.70307653E+00 0.89264901E+03</pdfrwt>
<pdfrwt beam="2">  1       -2 0.34771391E-01 0.89264901E+03</pdfrwt>
<totfact> 0.89783828E-01</totfact>
</mgrwt>
</event>
<event>
 4    2  0.3855935E-007  0.6628216E+03  0.7818608E-02  0.1021435E+00
         -2   -1    0    0    0  501 -0.00000000000E+00  0.00000000000E+00  0.14919851325E+03  0.14919851327E+03  0.25500000000E-02 0.  1.
          2   -1    0    0  501    0  0.00000000000E+00 -0.00000000000E+00 -0.15512564799E+04  0.15512564799E+04  0.25500000000E-02 0. -1.
    8880023    1    1    2    0    0 -0.68947423955E+02 -0.27722239075E+02 -0.64615007588E+03  0.92565781833E+03  0.65864270000E+03 0.  1.
    8880022    1    1    2    0    0  0.68947423955E+02  0.27722239075E+02 -0.75590789080E+03  0.77479717488E+03  0.15294330000E+03 0.  0.
<mgrwt>
<rscale>  0 0.47172171E+03</rscale>
<asrwt>0</asrwt>
<pdfrwt beam="1">  1        2 0.23865483E+00 0.66282160E+03</pdfrwt>
<pdfrwt beam="2">  1       -2 0.22953619E-01 0.66282160E+03</pdfrwt>
<totfact> 0.20304651E+02</totfact>
</mgrwt>
</event>
<event>
 4    2  0.3855935E-007  0.6594077E+03  0.7818608E-02  0.1024772E+00
          2   -1    0    0  501    0  0.00000000000E+00  0.00000000000E+00  0.96450530599E+03  0.96450530599E+03  0.25500000000E-02 0. -1.
         -2   -1    0    0    0  501 -0.00000000000E+00 -0.00000000000E+00 -0.26581151705E+03  0.26581151707E+03  0.25500000000E-02 0.  1.
    8880023    1    1    2    0    0  0.25532002818E+02  0.18879193408E+02  0.17274108250E+03  0.68165826846E+03  0.65864270000E+03 0.  1.
    8880022    1    1    2    0    0 -0.25532002818E+02 -0.18879193408E+02  0.52595270644E+03  0.54865855460E+03  0.15294330000E+03 0.  0.
<mgrwt>
<rscale>  0 0.46003317E+03</rscale>
<asrwt>0</asrwt>
<pdfrwt beam="1">  1        2 0.14838543E+00 0.65940770E+03</pdfrwt>
<pdfrwt beam="2">  1       -2 0.40894081E-01 0.65940770E+03</pdfrwt>
<totfact> 0.15306201E+02</totfact>
</mgrwt>
</event>
<event>
 4    2  0.3855935E-007  0.7290421E+03  0.7818608E-02  0.9893100E-01
          2   -1    0    0  501    0  0.00000000000E+00  0.00000000000E+00  0.13913955065E+04  0.13913955065E+04  0.25500000000E-02 0. -1.
         -2   -1    0    0    0  501 -0.00000000000E+00 -0.00000000000E+00 -0.64414783207E+03  0.64414783208E+03  0.25500000000E-02 0.  1.
    8880023    1    1    2    0    0 -0.30807822988E+03 -0.52725208309E+02 -0.40355546040E+03  0.83328228063E+03  0.65864270000E+03 0.  1.
    8880022    1    1    2    0    0  0.30807822988E+03  0.52725208309E+02  0.11508031349E+04  0.12022610580E+04  0.15294330000E+03 0.  0.
<mgrwt>
<rscale>  0 0.60596871E+03</rscale>
<asrwt>0</asrwt>
<pdfrwt beam="1">  1        2 0.21406085E+00 0.72904208E+03</pdfrwt>
<pdfrwt beam="2">  1       -2 0.99099667E-01 0.72904208E+03</pdfrwt>
<totfact> 0.12663401E+01</totfact>
</mgrwt>
</event>
<event>
 4    2  0.3855935E-007  0.7265313E+03  0.7818608E-02  0.9901076E-01
          2   -1    0    0  501    0  0.00000000000E+00  0.00000000000E+00  0.50606887150E+03  0.50606887151E+03  0.25500000000E-02 0. -1.
         -2   -1    0    0    0  501 -0.00000000000E+00 -0.00000000000E+00 -0.58206025326E+03  0.58206025326E+03  0.25500000000E-02 0.  1.
    8880023    1    1    2    0    0 -0.30116162102E+03 -0.57785990412E+02 -0.13899070075E+03  0.73970680937E+03  0.65864270000E+03 0.  0.
    8880022    1    1    2    0    0  0.30116162102E+03  0.57785990412E+02  0.62999318999E+02  0.34842231541E+03  0.15294330000E+03 0.  1.
<mgrwt>
<rscale>  0 0.60209187E+03</rscale>
<asrwt>0</asrwt>
<pdfrwt beam="1">  1        2 0.77856749E-01 0.72653131E+03</pdfrwt>
<pdfrwt beam="2">  1       -2 0.89547732E-01 0.72653131E+03</pdfrwt>
<totfact> 0.65762967E+01</totfact>
</mgrwt>
</event>
<event>
 4    2  0.3855935E-007  0.6680232E+03  0.7818608E-02  0.1017121E+00
         -2   -1    0    0    0  501 -0.00000000000E+00  0.00000000000E+00  0.40100960235E+03  0.40100960236E+03  0.25500000000E-02 0.  1.
          2   -1    0    0  501    0  0.00000000000E+00 -0.00000000000E+00 -0.14405182459E+04  0.14405182459E+04  0.25500000000E-02 0. -1.
    8880023    1    1    2    0    0 -0.89295031837E+02  0.66866609868E+02  0.10957925270E+03  0.67695093257E+03  0.65864270000E+03 0.  1.
    8880022    1    1    2    0    0  0.89295031837E+02 -0.66866609868E+02 -0.11490878963E+04  0.11645769157E+04  0.15294330000E+03 0.  0.
<mgrwt>
<rscale>  0 0.48739850E+03</rscale>
<asrwt>0</asrwt>
<pdfrwt beam="1">  1        2 0.22161819E+00 0.66802317E+03</pdfrwt>
<pdfrwt beam="2">  1       -2 0.61693786E-01 0.66802317E+03</pdfrwt>
<totfact> 0.34559303E+01</totfact>
</mgrwt>
</event>
<event>
 4    2  0.3855935E-007  0.6606085E+03  0.7818608E-02  0.1023541E+00
          2   -1    0    0  501    0  0.00000000000E+00  0.00000000000E+00  0.17244046161E+04  0.17244046161E+04  0.25500000000E-02 0. -1.
         -2   -1    0    0    0  501 -0.00000000000E+00 -0.00000000000E+00 -0.16046266182E+03  0.16046266184E+03  0.25500000000E-02 0.  1.
    8880023    1    1    2    0    0 -0.28182249631E+02  0.42416268735E+02  0.55405283461E+03  0.86219378845E+03  0.65864270000E+03 0.  1.
    8880022    1    1    2    0    0  0.28182249631E+02 -0.42416268735E+02  0.10098891197E+04  0.10226734895E+04  0.15294330000E+03 0.  0.
<mgrwt>
<rscale>  0 0.46429983E+03</rscale>
<asrwt>0</asrwt>
<pdfrwt beam="1">  1        2 0.26529301E+00 0.66060850E+03</pdfrwt>
<pdfrwt beam="2">  1       -2 0.24686564E-01 0.66060850E+03</pdfrwt>
<totfact> 0.14334861E+02</totfact>
</mgrwt>
</event>
<event>
 4    2  0.3855935E-007  0.6734523E+03  0.7818608E-02  0.1013300E+00
          2   -1    0    0  501    0  0.00000000000E+00  0.00000000000E+00  0.86322247782E+03  0.86322247783E+03  0.25500000000E-02 0. -1.
         -2   -1    0    0    0  501 -0.00000000000E+00 -0.00000000000E+00 -0.35722033641E+03  0.35722033642E+03  0.25500000000E-02 0.  1.
    8880023    1    1    2    0    0  0.13730433765E+03  0.29586751571E+02 -0.40406446123E-01  0.67345234791E+03  0.65864270000E+03 0.  1.
    8880022    1    1    2    0    0 -0.13730433765E+03 -0.29586751571E+02  0.50604254786E+03  0.54699046634E+03  0.15294330000E+03 0.  0.
<mgrwt>
<rscale>  0 0.50183897E+03</rscale>
<asrwt>0</asrwt>
<pdfrwt beam="1">  1        2 0.13280346E+00 0.67345235E+03</pdfrwt>
<pdfrwt beam="2">  1       -2 0.54956975E-01 0.67345235E+03</pdfrwt>
<totfact> 0.98539401E+01</totfact>
</mgrwt>
</event>
<event>
 4    2  0.3855935E-007  0.1206609E+04  0.7818608E-02  0.9150724E-01
          2   -1    0    0  501    0  0.00000000000E+00  0.00000000000E+00  0.26561973309E+04  0.26561973309E+04  0.25500000000E-02 0. -1.
         -2   -1    0    0    0  501 -0.00000000000E+00 -0.00000000000E+00 -0.85204558366E+03  0.85204558366E+03  0.25500000000E-02 0.  1.
    8880023    1    1    2    0    0  0.53050070844E+03 -0.86061907707E+03 -0.23298555684E+03  0.12288973405E+04  0.65864270000E+03 0.  0.
    8880022    1    1    2    0    0 -0.53050070844E+03  0.86061907707E+03  0.20371373041E+04  0.22793455741E+04  0.15294330000E+03 0.  0.
<mgrwt>
<rscale>  0 0.11576837E+04</rscale>
<asrwt>0</asrwt>
<pdfrwt beam="1">  1        2 0.40864574E+00 0.12066095E+04</pdfrwt>
<pdfrwt beam="2">  1       -2 0.13108394E+00 0.12066095E+04</pdfrwt>
<totfact> 0.11757706E+00</totfact>
</mgrwt>
</event>
<event>
 4    2  0.3855935E-007  0.7801568E+03  0.7818608E-02  0.9755469E-01
          2   -1    0    0  501    0  0.00000000000E+00  0.00000000000E+00  0.32394657405E+04  0.32394657405E+04  0.25500000000E-02 0. -1.
         -2   -1    0    0    0  501 -0.00000000000E+00 -0.00000000000E+00 -0.38151233713E+03  0.38151233713E+03  0.25500000000E-02 0.  1.
    8880023    1    1    2    0    0 -0.32769533662E+03  0.25971177568E+03  0.54137539130E+02  0.78203294015E+03  0.65864270000E+03 0.  0.
    8880022    1    1    2    0    0  0.32769533662E+03 -0.25971177568E+03  0.28038158643E+04  0.28389451375E+04  0.15294330000E+03 0.  0.
<mgrwt>
<rscale>  0 0.67808093E+03</rscale>
<asrwt>0</asrwt>
<pdfrwt beam="1">  1        2 0.49837932E+00 0.78015681E+03</pdfrwt>
<pdfrwt beam="2">  1       -2 0.58694209E-01 0.78015681E+03</pdfrwt>
<totfact> 0.35435945E+00</totfact>
</mgrwt>
</event>
<event>
 4    2  0.4320283E-007  0.8511548E+03  0.7818608E-02  0.9609495E-01
          2   -1    0    0  501    0  0.00000000000E+00  0.00000000000E+00  0.31600445954E+04  0.31600445954E+04  0.25500000000E-02 0. -1.
         -2   -1    0    0    0  501 -0.00000000000E+00 -0.00000000000E+00 -0.80947505022E+03  0.80947505022E+03  0.25500000000E-02 0.  1.
    8880023    1    1    2    0    0 -0.88381199357E+02 -0.53182993137E+03 -0.55125786173E+03  0.10140758101E+04  0.65864270000E+03 0.  1.
    8880022    1    1    2    0    0  0.88381199357E+02  0.53182993137E+03  0.29018274069E+04  0.29554438355E+04  0.15294330000E+03 0.  0.
<mgrwt>
<rscale>  0 0.76670902E+03</rscale>
<asrwt>0</asrwt>
<pdfrwt beam="1">  1        2 0.48616070E+00 0.85115481E+03</pdfrwt>
<pdfrwt beam="2">  1       -2 0.12453462E+00 0.85115481E+03</pdfrwt>
<totfact> 0.70031146E-01</totfact>
</mgrwt>
</event>
<event>
 4    2  0.3855935E-007  0.1085687E+04  0.7818608E-02  0.9277161E-01
          2   -1    0    0  501    0  0.00000000000E+00  0.00000000000E+00  0.10417643748E+04  0.10417643748E+04  0.25500000000E-02 0. -1.
         -2   -1    0    0    0  501 -0.00000000000E+00 -0.00000000000E+00 -0.11933848812E+04  0.11933848812E+04  0.25500000000E-02 0.  1.
    8880023    1    1    2    0    0 -0.46008562927E+03  0.73022440541E+03 -0.61071855259E+03  0.12456700306E+04  0.65864270000E+03 0.  1.
    8880022    1    1    2    0    0  0.46008562927E+03 -0.73022440541E+03  0.45909804613E+03  0.98947922540E+03  0.15294330000E+03 0.  0.
<mgrwt>
<rscale>  0 0.10291289E+04</rscale>
<asrwt>0</asrwt>
<pdfrwt beam="1">  1        2 0.16027144E+00 0.10856872E+04</pdfrwt>
<pdfrwt beam="2">  1       -2 0.18359767E+00 0.10856872E+04</pdfrwt>
<totfact> 0.39879933E+00</totfact>
</mgrwt>
</event>
<event>
 4    2  0.3855935E-007  0.1579461E+04  0.7818608E-02  0.8855472E-01
          2   -1    0    0  501    0  0.00000000000E+00  0.00000000000E+00  0.30358401356E+04  0.30358401356E+04  0.25500000000E-02 0. -1.
         -2   -1    0    0    0  501 -0.00000000000E+00 -0.00000000000E+00 -0.15147020353E+04  0.15147020353E+04  0.25500000000E-02 0.  1.
    8880023    1    1    2    0    0  0.13882962796E+04 -0.36540477605E+03 -0.83551216996E+03  0.17868346322E+04  0.65864270000E+03 0.  0.
    8880022    1    1    2    0    0 -0.13882962796E+04  0.36540477605E+03  0.23566502702E+04  0.27637075387E+04  0.15294330000E+03 0.  0.
<mgrwt>
<rscale>  0 0.15443694E+04</rscale>
<asrwt>0</asrwt>
<pdfrwt beam="1">  1        2 0.46705233E+00 0.15794611E+04</pdfrwt>
<pdfrwt beam="2">  1       -2 0.23303108E+00 0.15794611E+04</pdfrwt>
<totfact> 0.12606451E-01</totfact>
</mgrwt>
</event>
<event>
 4    2  0.3855935E-007  0.7751292E+03  0.7818608E-02  0.9767405E-01
          2   -1    0    0  501    0  0.00000000000E+00  0.00000000000E+00  0.25754578372E+04  0.25754578372E+04  0.25500000000E-02 0. -1.
         -2   -1    0    0    0  501 -0.00000000000E+00 -0.00000000000E+00 -0.74522420338E+03  0.74522420339E+03  0.25500000000E-02 0.  1.
    8880023    1    1    2    0    0  0.26264434929E+03 -0.31310226232E+03 -0.51797931431E+03  0.93227027047E+03  0.65864270000E+03 0.  1.
    8880022    1    1    2    0    0 -0.26264434929E+03  0.31310226232E+03  0.23482129481E+04  0.23884117701E+04  0.15294330000E+03 0.  0.
<mgrwt>
<rscale>  0 0.67141473E+03</rscale>
<asrwt>0</asrwt>
<pdfrwt beam="1">  1        2 0.39622429E+00 0.77512921E+03</pdfrwt>
<pdfrwt beam="2">  1       -2 0.11464988E+00 0.77512921E+03</pdfrwt>
<totfact> 0.19584395E+00</totfact>
</mgrwt>
</event>
<event>
 4    2  0.3855935E-007  0.6970684E+03  0.7818608E-02  0.1000959E+00
          2   -1    0    0  501    0  0.00000000000E+00  0.00000000000E+00  0.40571228421E+03  0.40571228422E+03  0.25500000000E-02 0. -1.
         -2   -1    0    0    0  501 -0.00000000000E+00 -0.00000000000E+00 -0.95676876566E+03  0.95676876566E+03  0.25500000000E-02 0.  1.
    8880023    1    1    2    0    0  0.19083916357E+03 -0.12519812290E+03 -0.74950964312E+03  0.10235570662E+04  0.65864270000E+03 0.  1.
    8880022    1    1    2    0    0 -0.19083916357E+03  0.12519812290E+03  0.19845316168E+03  0.33892398370E+03  0.15294330000E+03 0.  0.
<mgrwt>
<rscale>  0 0.55231866E+03</rscale>
<asrwt>0</asrwt>
<pdfrwt beam="1">  1        2 0.62417275E-01 0.69706841E+03</pdfrwt>
<pdfrwt beam="2">  1       -2 0.14719519E+00 0.69706841E+03</pdfrwt>
<totfact> 0.25068484E+01</totfact>
</mgrwt>
</event>
<event>
 4    2  0.3855935E-007  0.8658067E+03  0.7818608E-02  0.9583317E-01
          2   -1    0    0  501    0  0.00000000000E+00  0.00000000000E+00  0.12083920897E+04  0.12083920897E+04  0.25500000000E-02 0. -1.
         -2   -1    0    0    0  501 -0.00000000000E+00 -0.00000000000E+00 -0.18560312826E+04  0.18560312826E+04  0.25500000000E-02 0.  1.
    8880023    1    1    2    0    0 -0.43925499243E+03  0.35052251748E+03 -0.16738195354E+04  0.18844874706E+04  0.65864270000E+03 0.  0.
    8880022    1    1    2    0    0  0.43925499243E+03 -0.35052251748E+03  0.10261803426E+04  0.11799359017E+04  0.15294330000E+03 0. -1.
<mgrwt>
<rscale>  0 0.78410297E+03</rscale>
<asrwt>0</asrwt>
<pdfrwt beam="1">  1        2 0.18590647E+00 0.86580667E+03</pdfrwt>
<pdfrwt beam="2">  1       -2 0.28554328E+00 0.86580667E+03</pdfrwt>
<totfact> 0.74648653E-01</totfact>
</mgrwt>
</event>
<event>
 4    2  0.3855935E-007  0.7362962E+03  0.7818608E-02  0.9870870E-01
         -2   -1    0    0    0  501 -0.00000000000E+00  0.00000000000E+00  0.69934305866E+03  0.69934305866E+03  0.25500000000E-02 0.  1.
          2   -1    0    0  501    0  0.00000000000E+00 -0.00000000000E+00 -0.10182424769E+04  0.10182424769E+04  0.25500000000E-02 0. -1.
    8880023    1    1    2    0    0  0.23872578178E+03  0.22656550100E+03  0.45309495805E+03  0.86453870498E+03  0.65864270000E+03 0.  1.
    8880022    1    1    2    0    0 -0.23872578178E+03 -0.22656550100E+03 -0.77199437632E+03  0.85304683061E+03  0.15294330000E+03 0.  0.
<mgrwt>
<rscale>  0 0.61694045E+03</rscale>
<asrwt>0</asrwt>
<pdfrwt beam="1">  1        2 0.15665269E+00 0.73629623E+03</pdfrwt>
<pdfrwt beam="2">  1       -2 0.10759124E+00 0.73629623E+03</pdfrwt>
<totfact> 0.17308805E+01</totfact>
</mgrwt>
</event>
<event>
 4    2  0.3855935E-007  0.7554057E+03  0.7818608E-02  0.9817150E-01
         -2   -1    0    0    0  501 -0.00000000000E+00  0.00000000000E+00  0.24452163008E+03  0.24452163009E+03  0.25500000000E-02 0.  1.
          2   -1    0    0  501    0  0.00000000000E+00 -0.00000000000E+00 -0.22484269461E+04  0.22484269461E+04  0.25500000000E-02 0. -1.
    8880023    1    1    2    0    0 -0.27455175027E+03  0.24788879730E+03 -0.43057921255E+03  0.86950341227E+03  0.65864270000E+03 0.  0.
    8880022    1    1    2    0    0  0.27455175027E+03 -0.24788879730E+03 -0.15733261034E+04  0.16234451639E+04  0.15294330000E+03 0. -1.
<mgrwt>
<rscale>  0 0.64450233E+03</rscale>
<asrwt>0</asrwt>
<pdfrwt beam="1">  1        2 0.34591182E+00 0.75540567E+03</pdfrwt>
<pdfrwt beam="2">  1       -2 0.37618714E-01 0.75540567E+03</pdfrwt>
<totfact> 0.33499579E+01</totfact>
</mgrwt>
</event>
<event>
 4    2  0.3855935E-007  0.8689239E+03  0.7818608E-02  0.9577882E-01
         -2   -1    0    0    0  501 -0.00000000000E+00  0.00000000000E+00  0.14211595045E+04  0.14211595045E+04  0.25500000000E-02 0.  1.
          2   -1    0    0  501    0  0.00000000000E+00 -0.00000000000E+00 -0.67981642960E+03  0.67981642961E+03  0.25500000000E-02 0. -1.
    8880023    1    1    2    0    0 -0.44098179013E+03  0.35602478187E+03  0.11085786481E+04  0.14085366199E+04  0.65864270000E+03 0.  0.
    8880022    1    1    2    0    0  0.44098179013E+03 -0.35602478187E+03 -0.36723557319E+03  0.69243931414E+03  0.15294330000E+03 0.  0.
<mgrwt>
<rscale>  0 0.78777526E+03</rscale>
<asrwt>0</asrwt>
<pdfrwt beam="1">  1        2 0.10458715E+00 0.86892393E+03</pdfrwt>
<pdfrwt beam="2">  1       -2 0.21863992E+00 0.86892393E+03</pdfrwt>
<totfact> 0.43249518E+00</totfact>
</mgrwt>
</event>
<event>
 4    2  0.3855935E-007  0.6901559E+03  0.7818608E-02  0.1004079E+00
         -2   -1    0    0    0  501 -0.00000000000E+00  0.00000000000E+00  0.24675749282E+03  0.24675749284E+03  0.25500000000E-02 0.  1.
          2   -1    0    0  501    0  0.00000000000E+00 -0.00000000000E+00 -0.16139993211E+04  0.16139993211E+04  0.25500000000E-02 0. -1.
    8880023    1    1    2    0    0  0.72405876721E+02 -0.19303458490E+03 -0.28196365629E+03  0.74553247527E+03  0.65864270000E+03 0.  1.
    8880022    1    1    2    0    0 -0.72405876721E+02  0.19303458490E+03 -0.10852781720E+04  0.11152243387E+04  0.15294330000E+03 0. -1.
<mgrwt>
<rscale>  0 0.53897459E+03</rscale>
<asrwt>0</asrwt>
<pdfrwt beam="1">  1        2 0.24830758E+00 0.69015590E+03</pdfrwt>
<pdfrwt beam="2">  1       -2 0.37962692E-01 0.69015590E+03</pdfrwt>
<totfact> 0.73734078E+01</totfact>
</mgrwt>
</event>
<event>
 4    2  0.3855935E-007  0.1429193E+04  0.7818608E-02  0.8961325E-01
         -2   -1    0    0    0  501 -0.00000000000E+00  0.00000000000E+00  0.14894224589E+04  0.14894224589E+04  0.25500000000E-02 0.  1.
          2   -1    0    0  501    0  0.00000000000E+00 -0.00000000000E+00 -0.13566677158E+04  0.13566677158E+04  0.25500000000E-02 0. -1.
    8880023    1    1    2    0    0 -0.98962086852E+03  0.79336738988E+03  0.50436286917E+03  0.15155769162E+04  0.65864270000E+03 0.  1.
    8880022    1    1    2    0    0  0.98962086852E+03 -0.79336738988E+03 -0.37160812611E+03  0.13305132585E+04  0.15294330000E+03 0.  0.
<mgrwt>
<rscale>  0 0.13896769E+04</rscale>
<asrwt>0</asrwt>
<pdfrwt beam="1">  1        2 0.20871811E+00 0.14291926E+04</pdfrwt>
<pdfrwt beam="2">  1       -2 0.22914192E+00 0.14291926E+04</pdfrwt>
<totfact> 0.12583431E+00</totfact>
</mgrwt>
</event>
<event>
 4    2  0.3855935E-007  0.6614499E+03  0.7818608E-02  0.1022718E+00
          2   -1    0    0  501    0  0.00000000000E+00  0.00000000000E+00  0.85823486045E+03  0.85823486046E+03  0.25500000000E-02 0. -1.
         -2   -1    0    0    0  501 -0.00000000000E+00 -0.00000000000E+00 -0.15922736900E+04  0.15922736900E+04  0.25500000000E-02 0.  1.
    8880023    1    1    2    0    0 -0.32947826418E+01  0.60785835311E+02 -0.15146235914E+04  0.16527554578E+04  0.65864270000E+03 0.  1.
    8880022    1    1    2    0    0  0.32947826418E+01 -0.60785835311E+02  0.78058476187E+03  0.79775309266E+03  0.15294330000E+03 0.  0.
<mgrwt>
<rscale>  0 0.46718482E+03</rscale>
<asrwt>0</asrwt>
<pdfrwt beam="1">  1        2 0.13203613E+00 0.66144991E+03</pdfrwt>
<pdfrwt beam="2">  1       -2 0.24496518E+00 0.66144991E+03</pdfrwt>
<totfact> 0.22631378E+00</totfact>
</mgrwt>
</event>
<event>
 4    2  0.3855935E-007  0.6618254E+03  0.7818608E-02  0.1022360E+00
         -2   -1    0    0    0  501 -0.00000000000E+00  0.00000000000E+00  0.15375286641E+03  0.15375286643E+03  0.25500000000E-02 0.  1.
          2   -1    0    0  501    0  0.00000000000E+00 -0.00000000000E+00 -0.18810469532E+04  0.18810469532E+04  0.25500000000E-02 0. -1.
    8880023    1    1    2    0    0  0.37988040020E+02 -0.52532058972E+02 -0.59369164568E+03  0.88909093169E+03  0.65864270000E+03 0.  1.
    8880022    1    1    2    0    0 -0.37988040020E+02  0.52532058972E+02 -0.11336024411E+04  0.11457088880E+04  0.15294330000E+03 0.  0.
<mgrwt>
<rscale>  0 0.46844665E+03</rscale>
<asrwt>0</asrwt>
<pdfrwt beam="1">  1        2 0.28939182E+00 0.66182544E+03</pdfrwt>
<pdfrwt beam="2">  1       -2 0.23654289E-01 0.66182544E+03</pdfrwt>
<totfact> 0.12720099E+02</totfact>
</mgrwt>
</event>
<event>
 4    2  0.3855935E-007  0.7299424E+03  0.7818608E-02  0.9890276E-01
         -2   -1    0    0    0  501 -0.00000000000E+00  0.00000000000E+00  0.16479320699E+04  0.16479320699E+04  0.25500000000E-02 0.  1.
          2   -1    0    0  501    0  0.00000000000E+00 -0.00000000000E+00 -0.82337169087E+03  0.82337169087E+03  0.25500000000E-02 0. -1.
    8880023    1    1    2    0    0 -0.10304145908E+03 -0.29730153701E+03  0.15236972677E+04  0.16895174803E+04  0.65864270000E+03 0.  1.
    8880022    1    1    2    0    0  0.10304145908E+03  0.29730153701E+03 -0.69913688870E+03  0.78178628049E+03  0.15294330000E+03 0.  0.
<mgrwt>
<rscale>  0 0.60734852E+03</rscale>
<asrwt>0</asrwt>
<pdfrwt beam="1">  1        2 0.12667257E+00 0.72994243E+03</pdfrwt>
<pdfrwt beam="2">  1       -2 0.25352801E+00 0.72994243E+03</pdfrwt>
<totfact> 0.20991524E+00</totfact>
</mgrwt>
</event>
<event>
 4    2  0.3855935E-007  0.9716737E+03  0.7818608E-02  0.9419593E-01
          2   -1    0    0  501    0  0.00000000000E+00  0.00000000000E+00  0.15587745637E+04  0.15587745637E+04  0.25500000000E-02 0. -1.
         -2   -1    0    0    0  501 -0.00000000000E+00 -0.00000000000E+00 -0.47169738681E+03  0.47169738682E+03  0.25500000000E-02 0.  1.
    8880023    1    1    2    0    0  0.61225053549E+03  0.36808811701E+03  0.74155874186E+03  0.12223171250E+04  0.65864270000E+03 0.  0.
    8880022    1    1    2    0    0 -0.61225053549E+03 -0.36808811701E+03  0.34551843499E+03  0.80815482552E+03  0.15294330000E+03 0.  0.
<mgrwt>
<rscale>  0 0.90480640E+03</rscale>
<asrwt>0</asrwt>
<pdfrwt beam="1">  1        2 0.23981147E+00 0.97167370E+03</pdfrwt>
<pdfrwt beam="2">  1       -2 0.72568829E-01 0.97167370E+03</pdfrwt>
<totfact> 0.20217045E+01</totfact>
</mgrwt>
</event>
<event>
 4    2  0.3855935E-007  0.6961802E+03  0.7818608E-02  0.1001343E+00
          2   -1    0    0  501    0  0.00000000000E+00  0.00000000000E+00  0.10075690794E+04  0.10075690794E+04  0.25500000000E-02 0. -1.
         -2   -1    0    0    0  501 -0.00000000000E+00 -0.00000000000E+00 -0.28282426095E+03  0.28282426096E+03  0.25500000000E-02 0.  1.
    8880023    1    1    2    0    0  0.19179064873E+03 -0.11862967117E+03  0.24382409058E+03  0.73764289818E+03  0.65864270000E+03 0.  1.
    8880022    1    1    2    0    0 -0.19179064873E+03  0.11862967117E+03  0.48092072783E+03  0.55275044214E+03  0.15294330000E+03 0.  0.
<mgrwt>
<rscale>  0 0.55065180E+03</rscale>
<asrwt>0</asrwt>
<pdfrwt beam="1">  1        2 0.15501063E+00 0.69618019E+03</pdfrwt>
<pdfrwt beam="2">  1       -2 0.43511425E-01 0.69618019E+03</pdfrwt>
<totfact> 0.12680658E+02</totfact>
</mgrwt>
</event>
<event>
 4    2  0.3855935E-007  0.6624290E+03  0.7818608E-02  0.1021795E+00
          2   -1    0    0  501    0  0.00000000000E+00  0.00000000000E+00  0.22426421282E+04  0.22426421282E+04  0.25500000000E-02 0. -1.
         -2   -1    0    0    0  501 -0.00000000000E+00 -0.00000000000E+00 -0.10428579382E+03  0.10428579385E+03  0.25500000000E-02 0.  1.
    8880023    1    1    2    0    0 -0.37143649321E+02  0.60185381241E+02  0.10218685644E+04  0.12177961652E+04  0.65864270000E+03 0.  1.
    8880022    1    1    2    0    0  0.37143649321E+02 -0.60185381241E+02  0.11164877699E+04  0.11291317568E+04  0.15294330000E+03 0.  0.
<mgrwt>
<rscale>  0 0.47044300E+03</rscale>
<asrwt>0</asrwt>
<pdfrwt beam="1">  1        2 0.34502184E+00 0.66242897E+03</pdfrwt>
<pdfrwt beam="2">  1       -2 0.16043970E-01 0.66242897E+03</pdfrwt>
<totfact> 0.15879453E+02</totfact>
</mgrwt>
</event>
<event>
 4    2  0.3855935E-007  0.9336897E+03  0.7818608E-02  0.9473980E-01
         -2   -1    0    0    0  501 -0.00000000000E+00  0.00000000000E+00  0.56079771303E+03  0.56079771304E+03  0.25500000000E-02 0.  1.
          2   -1    0    0  501    0  0.00000000000E+00 -0.00000000000E+00 -0.25685283916E+04  0.25685283916E+04  0.25500000000E-02 0. -1.
    8880023    1    1    2    0    0  0.31332476867E+03 -0.58291843419E+03  0.76878644359E+02  0.93684942429E+03  0.65864270000E+03 0.  0.
    8880022    1    1    2    0    0 -0.31332476867E+03  0.58291843419E+03 -0.20846093229E+04  0.21924766803E+04  0.15294330000E+03 0.  0.
<mgrwt>
<rscale>  0 0.86229663E+03</rscale>
<asrwt>0</asrwt>
<pdfrwt beam="1">  1        2 0.39515821E+00 0.93368973E+03</pdfrwt>
<pdfrwt beam="2">  1       -2 0.86276572E-01 0.93368973E+03</pdfrwt>
<totfact> 0.37745176E+00</totfact>
</mgrwt>
</event>
<event>
 4    2  0.3855935E-007  0.7935003E+03  0.7818608E-02  0.9725030E-01
         -2   -1    0    0    0  501 -0.00000000000E+00  0.00000000000E+00  0.67629215747E+03  0.67629215747E+03  0.25500000000E-02 0.  1.
          2   -1    0    0  501    0  0.00000000000E+00 -0.00000000000E+00 -0.10901988957E+04  0.10901988957E+04  0.25500000000E-02 0. -1.
    8880023    1    1    2    0    0  0.13589123272E+02 -0.44232095460E+03  0.35258454384E+03  0.86830787050E+03  0.65864270000E+03 0.  1.
    8880022    1    1    2    0    0 -0.13589123272E+02  0.44232095460E+03 -0.76649128211E+03  0.89818318272E+03  0.15294330000E+03 0.  0.
<mgrwt>
<rscale>  0 0.69545873E+03</rscale>
<asrwt>0</asrwt>
<pdfrwt beam="1">  1        2 0.16772291E+00 0.79350028E+03</pdfrwt>
<pdfrwt beam="2">  1       -2 0.10404495E+00 0.79350028E+03</pdfrwt>
<totfact> 0.16816102E+01</totfact>
</mgrwt>
</event>
<event>
 4    2  0.3855935E-007  0.8898984E+03  0.7818608E-02  0.9542446E-01
          2   -1    0    0  501    0  0.00000000000E+00  0.00000000000E+00  0.15818842012E+04  0.15818842012E+04  0.25500000000E-02 0. -1.
         -2   -1    0    0    0  501 -0.00000000000E+00 -0.00000000000E+00 -0.36879360733E+03  0.36879360734E+03  0.25500000000E-02 0.  1.
    8880023    1    1    2    0    0 -0.36336002686E+03 -0.47547716338E+03  0.55827024836E+03  0.10505165008E+04  0.65864270000E+03 0.  0.
    8880022    1    1    2    0    0  0.36336002686E+03  0.47547716338E+03  0.65482034549E+03  0.90016130771E+03  0.15294330000E+03 0.  0.
<mgrwt>
<rscale>  0 0.81225474E+03</rscale>
<asrwt>0</asrwt>
<pdfrwt beam="1">  1        2 0.24336680E+00 0.88989845E+03</pdfrwt>
<pdfrwt beam="2">  1       -2 0.56737477E-01 0.88989845E+03</pdfrwt>
<totfact> 0.33570851E+01</totfact>
</mgrwt>
</event>
<event>
 4    2  0.3855935E-007  0.1224189E+04  0.7818608E-02  0.9133960E-01
         -2   -1    0    0    0  501 -0.00000000000E+00  0.00000000000E+00  0.63071633826E+03  0.63071633826E+03  0.25500000000E-02 0.  1.
          2   -1    0    0  501    0  0.00000000000E+00 -0.00000000000E+00 -0.36873910939E+04  0.36873910940E+04  0.25500000000E-02 0. -1.
    8880023    1    1    2    0    0 -0.24913654147E+03  0.10013790519E+04 -0.15420279662E+03  0.12338629302E+04  0.65864270000E+03 0.  0.
    8880022    1    1    2    0    0  0.24913654147E+03 -0.10013790519E+04 -0.29024719591E+04  0.30842445020E+04  0.15294330000E+03 0.  0.
<mgrwt>
<rscale>  0 0.11761861E+04</rscale>
<asrwt>0</asrwt>
<pdfrwt beam="1">  1        2 0.56729093E+00 0.12241892E+04</pdfrwt>
<pdfrwt beam="2">  1       -2 0.97033285E-01 0.12241892E+04</pdfrwt>
<totfact> 0.52977340E-01</totfact>
</mgrwt>
</event>
<event>
 4    2  0.3855935E-007  0.1071222E+04  0.7818608E-02  0.9293794E-01
         -2   -1    0    0    0  501 -0.00000000000E+00  0.00000000000E+00  0.60244746645E+03  0.60244746646E+03  0.25500000000E-02 0.  1.
          2   -1    0    0  501    0  0.00000000000E+00 -0.00000000000E+00 -0.23632145826E+04  0.23632145826E+04  0.25500000000E-02 0. -1.
    8880023    1    1    2    0    0  0.84375782555E+03  0.42172872911E+02 -0.74978395924E+02  0.10738425329E+04  0.65864270000E+03 0.  0.
    8880022    1    1    2    0    0 -0.84375782555E+03 -0.42172872911E+02 -0.16857887202E+04  0.18918195161E+04  0.15294330000E+03 0.  0.
<mgrwt>
<rscale>  0 0.10135616E+04</rscale>
<asrwt>0</asrwt>
<pdfrwt beam="1">  1        2 0.36357147E+00 0.10712217E+04</pdfrwt>
<pdfrwt beam="2">  1       -2 0.92684227E-01 0.10712217E+04</pdfrwt>
<totfact> 0.41097664E+00</totfact>
</mgrwt>
</event>
<event>
 4    2  0.3855935E-007  0.7162636E+03  0.7818608E-02  0.9935438E-01
         -2   -1    0    0    0  501 -0.00000000000E+00  0.00000000000E+00  0.15068174097E+03  0.15068174099E+03  0.25500000000E-02 0.  1.
          2   -1    0    0  501    0  0.00000000000E+00 -0.00000000000E+00 -0.27035813667E+04  0.27035813667E+04  0.25500000000E-02 0. -1.
    8880023    1    1    2    0    0  0.25478099027E+03  0.11962428003E+03 -0.80615175261E+03  0.10783849850E+04  0.65864270000E+03 0.  1.
    8880022    1    1    2    0    0 -0.25478099027E+03 -0.11962428003E+03 -0.17467478731E+04  0.17758781227E+04  0.15294330000E+03 0.  0.
<mgrwt>
<rscale>  0 0.58574150E+03</rscale>
<asrwt>0</asrwt>
<pdfrwt beam="1">  1        2 0.41593556E+00 0.71626359E+03</pdfrwt>
<pdfrwt beam="2">  1       -2 0.23181808E-01 0.71626359E+03</pdfrwt>
<totfact> 0.45641683E+01</totfact>
</mgrwt>
</event>
<event>
 4    2  0.3855935E-007  0.9828709E+03  0.7818608E-02  0.9404319E-01
         -2   -1    0    0    0  501 -0.00000000000E+00  0.00000000000E+00  0.60033549777E+03  0.60033549778E+03  0.25500000000E-02 0.  1.
          2   -1    0    0  501    0  0.00000000000E+00 -0.00000000000E+00 -0.18054888785E+04  0.18054888785E+04  0.25500000000E-02 0. -1.
    8880023    1    1    2    0    0  0.65288718051E+03 -0.32552012635E+03  0.69153682804E+01  0.98289523944E+03  0.65864270000E+03 0.  0.
    8880022    1    1    2    0    0 -0.65288718051E+03  0.32552012635E+03 -0.12120687490E+04  0.14229291369E+04  0.15294330000E+03 0.  0.
<mgrwt>
<rscale>  0 0.91721103E+03</rscale>
<asrwt>0</asrwt>
<pdfrwt beam="1">  1        2 0.27776752E+00 0.98287091E+03</pdfrwt>
<pdfrwt beam="2">  1       -2 0.92359308E-01 0.98287091E+03</pdfrwt>
<totfact> 0.85342375E+00</totfact>
</mgrwt>
</event>
<event>
 4    2  0.3855935E-007  0.8680142E+03  0.7818608E-02  0.9579464E-01
         -2   -1    0    0    0  501 -0.00000000000E+00  0.00000000000E+00  0.50371855614E+03  0.50371855614E+03  0.25500000000E-02 0.  1.
          2   -1    0    0  501    0  0.00000000000E+00 -0.00000000000E+00 -0.18140628134E+04  0.18140628134E+04  0.25500000000E-02 0. -1.
    8880023    1    1    2    0    0 -0.25121226102E+03  0.50648873014E+03  0.15696217093E+02  0.86815609849E+03  0.65864270000E+03 0.  0.
    8880022    1    1    2    0    0  0.25121226102E+03 -0.50648873014E+03 -0.13260404744E+04  0.14496252711E+04  0.15294330000E+03 0.  0.
<mgrwt>
<rscale>  0 0.78670452E+03</rscale>
<asrwt>0</asrwt>
<pdfrwt beam="1">  1        2 0.27908658E+00 0.86801419E+03</pdfrwt>
<pdfrwt beam="2">  1       -2 0.77495163E-01 0.86801419E+03</pdfrwt>
<totfact> 0.12770395E+01</totfact>
</mgrwt>
</event>
<event>
 4    2  0.3855935E-007  0.7300750E+03  0.7818608E-02  0.9889862E-01
          2   -1    0    0  501    0  0.00000000000E+00  0.00000000000E+00  0.47221354308E+03  0.47221354309E+03  0.25500000000E-02 0. -1.
         -2   -1    0    0    0  501 -0.00000000000E+00 -0.00000000000E+00 -0.15000315082E+04  0.15000315082E+04  0.25500000000E-02 0.  1.
    8880023    1    1    2    0    0 -0.31189787017E+03  0.43806082085E+02 -0.13251145247E+04  0.15129236478E+04  0.65864270000E+03 0.  0.
    8880022    1    1    2    0    0  0.31189787017E+03 -0.43806082085E+02  0.29729655965E+03  0.45932140342E+03  0.15294330000E+03 0.  0.
<mgrwt>
<rscale>  0 0.60755119E+03</rscale>
<asrwt>0</asrwt>
<pdfrwt beam="1">  1        2 0.72648238E-01 0.73007497E+03</pdfrwt>
<pdfrwt beam="2">  1       -2 0.23077408E+00 0.73007497E+03</pdfrwt>
<totfact> 0.57153063E+00</totfact>
</mgrwt>
</event>
<event>
 4    2  0.3855935E-007  0.9692950E+03  0.7818608E-02  0.9422880E-01
         -2   -1    0    0    0  501 -0.00000000000E+00  0.00000000000E+00  0.15273843874E+04  0.15273843874E+04  0.25500000000E-02 0.  1.
          2   -1    0    0  501    0  0.00000000000E+00 -0.00000000000E+00 -0.84699830379E+03  0.84699830379E+03  0.25500000000E-02 0. -1.
    8880023    1    1    2    0    0  0.47735662717E+03 -0.52711782546E+03  0.11534784585E+04  0.15066669545E+04  0.65864270000E+03 0.  0.
    8880022    1    1    2    0    0 -0.47735662717E+03  0.52711782546E+03 -0.47309237489E+03  0.86771573664E+03  0.15294330000E+03 0.  0.
<mgrwt>
<rscale>  0 0.90216433E+03</rscale>
<asrwt>0</asrwt>
<pdfrwt beam="1">  1        2 0.13030743E+00 0.96929498E+03</pdfrwt>
<pdfrwt beam="2">  1       -2 0.23498221E+00 0.96929498E+03</pdfrwt>
<totfact> 0.25359772E+00</totfact>
</mgrwt>
</event>
<event>
 4    2  0.3855935E-007  0.6916777E+03  0.7818608E-02  0.1003365E+00
          2   -1    0    0  501    0  0.00000000000E+00  0.00000000000E+00  0.11941216853E+04  0.11941216853E+04  0.25500000000E-02 0. -1.
         -2   -1    0    0    0  501 -0.00000000000E+00 -0.00000000000E+00 -0.34561750777E+03  0.34561750778E+03  0.25500000000E-02 0.  1.
    8880023    1    1    2    0    0 -0.21120295989E+03 -0.10631627313E+01  0.42927772165E+02  0.69300852842E+03  0.65864270000E+03 0.  0.
    8880022    1    1    2    0    0  0.21120295989E+03  0.10631627313E+01  0.80557640536E+03  0.84673066465E+03  0.15294330000E+03 0.  0.
<mgrwt>
<rscale>  0 0.54198968E+03</rscale>
<asrwt>0</asrwt>
<pdfrwt beam="1">  1        2 0.18371103E+00 0.69167769E+03</pdfrwt>
<pdfrwt beam="2">  1       -2 0.53171925E-01 0.69167769E+03</pdfrwt>
<totfact> 0.65104091E+01</totfact>
</mgrwt>
</event>
<event>
 4    2  0.3855935E-007  0.9359611E+03  0.7818608E-02  0.9470607E-01
          2   -1    0    0  501    0  0.00000000000E+00  0.00000000000E+00  0.18766151567E+04  0.18766151567E+04  0.25500000000E-02 0. -1.
         -2   -1    0    0    0  501 -0.00000000000E+00 -0.00000000000E+00 -0.39572026397E+03  0.39572026398E+03  0.25500000000E-02 0.  1.
    8880023    1    1    2    0    0  0.55029927053E+02  0.66271008789E+03  0.45616087194E+03  0.10412040630E+04  0.65864270000E+03 0.  1.
    8880022    1    1    2    0    0 -0.55029927053E+02 -0.66271008789E+03  0.10247340208E+04  0.12311313576E+04  0.15294330000E+03 0.  0.
<mgrwt>
<rscale>  0 0.86485939E+03</rscale>
<asrwt>0</asrwt>
<pdfrwt beam="1">  1        2 0.28871002E+00 0.93596109E+03</pdfrwt>
<pdfrwt beam="2">  1       -2 0.60880041E-01 0.93596109E+03</pdfrwt>
<totfact> 0.19817975E+01</totfact>
</mgrwt>
</event>
<event>
 4    2  0.3855935E-007  0.1014932E+04  0.7818608E-02  0.9362277E-01
          2   -1    0    0  501    0  0.00000000000E+00  0.00000000000E+00  0.13698177808E+04  0.13698177808E+04  0.25500000000E-02 0. -1.
         -2   -1    0    0    0  501 -0.00000000000E+00 -0.00000000000E+00 -0.59614480851E+03  0.59614480852E+03  0.25500000000E-02 0.  1.
    8880023    1    1    2    0    0 -0.76790257870E+03  0.81260308142E+02  0.50940343710E+03  0.11355966168E+04  0.65864270000E+03 0.  0.
    8880022    1    1    2    0    0  0.76790257870E+03 -0.81260308142E+02  0.26426953515E+03  0.83036597249E+03  0.15294330000E+03 0. -1.
<mgrwt>
<rscale>  0 0.95246239E+03</rscale>
<asrwt>0</asrwt>
<pdfrwt beam="1">  1        2 0.21074119E+00 0.10149324E+04</pdfrwt>
<pdfrwt beam="2">  1       -2 0.91714587E-01 0.10149324E+04</pdfrwt>
<totfact> 0.15144765E+01</totfact>
</mgrwt>
</event>
<event>
 4    2  0.3855935E-007  0.7389806E+03  0.7818608E-02  0.9862926E-01
         -2   -1    0    0    0  501 -0.00000000000E+00  0.00000000000E+00  0.21842920201E+03  0.21842920203E+03  0.25500000000E-02 0.  1.
          2   -1    0    0  501    0  0.00000000000E+00 -0.00000000000E+00 -0.27612902134E+04  0.27612902134E+04  0.25500000000E-02 0. -1.
    8880023    1    1    2    0    0  0.32921792991E+03  0.62431567249E+02 -0.47312224967E+03  0.87746054917E+03  0.65864270000E+03 0.  1.
    8880022    1    1    2    0    0 -0.32921792991E+03 -0.62431567249E+02 -0.20697387617E+04  0.21022588662E+04  0.15294330000E+03 0.  0.
<mgrwt>
<rscale>  0 0.62092162E+03</rscale>
<asrwt>0</asrwt>
<pdfrwt beam="1">  1        2 0.42481385E+00 0.73898062E+03</pdfrwt>
<pdfrwt beam="2">  1       -2 0.33604495E-01 0.73898062E+03</pdfrwt>
<totfact> 0.21292611E+01</totfact>
</mgrwt>
</event>
<event>
 4    2  0.3855935E-007  0.7467540E+03  0.7818608E-02  0.9840692E-01
          2   -1    0    0  501    0  0.00000000000E+00  0.00000000000E+00  0.11765753727E+04  0.11765753727E+04  0.25500000000E-02 0. -1.
         -2   -1    0    0    0  501 -0.00000000000E+00 -0.00000000000E+00 -0.31820223755E+03  0.31820223757E+03  0.25500000000E-02 0.  1.
    8880023    1    1    2    0    0  0.27008633144E+03 -0.22557652839E+03  0.27347020803E+03  0.79525314054E+03  0.65864270000E+03 0.  1.
    8880022    1    1    2    0    0 -0.27008633144E+03  0.22557652839E+03  0.58490292710E+03  0.69952446972E+03  0.15294330000E+03 0.  0.
<mgrwt>
<rscale>  0 0.63223737E+03</rscale>
<asrwt>0</asrwt>
<pdfrwt beam="1">  1        2 0.18101160E+00 0.74675404E+03</pdfrwt>
<pdfrwt beam="2">  1       -2 0.48954190E-01 0.74675404E+03</pdfrwt>
<totfact> 0.78554524E+01</totfact>
</mgrwt>
</event>
<event>
 4    2  0.3855935E-007  0.6729455E+03  0.7818608E-02  0.1013634E+00
          2   -1    0    0  501    0  0.00000000000E+00  0.00000000000E+00  0.25309571691E+04  0.25309571691E+04  0.25500000000E-02 0. -1.
         -2   -1    0    0    0  501 -0.00000000000E+00 -0.00000000000E+00 -0.46972168207E+03  0.46972168208E+03  0.25500000000E-02 0.  1.
    8880023    1    1    2    0    0  0.13231584349E+03  0.39217224290E+02 -0.22165688315E+03  0.70851072908E+03  0.65864270000E+03 0.  1.
    8880022    1    1    2    0    0 -0.13231584349E+03 -0.39217224290E+02  0.22828923702E+04  0.22921681221E+04  0.15294330000E+03 0.  0.
<mgrwt>
<rscale>  0 0.50055658E+03</rscale>
<asrwt>0</asrwt>
<pdfrwt beam="1">  1        2 0.38937802E+00 0.67294552E+03</pdfrwt>
<pdfrwt beam="2">  1       -2 0.72264875E-01 0.67294552E+03</pdfrwt>
<totfact> 0.61704760E+00</totfact>
</mgrwt>
</event>
<event>
 4    2  0.3855935E-007  0.7635070E+03  0.7818608E-02  0.9796111E-01
         -2   -1    0    0    0  501 -0.00000000000E+00  0.00000000000E+00  0.15978677882E+04  0.15978677882E+04  0.25500000000E-02 0.  1.
          2   -1    0    0  501    0  0.00000000000E+00 -0.00000000000E+00 -0.31605564741E+03  0.31605564742E+03  0.25500000000E-02 0. -1.
    8880023    1    1    2    0    0 -0.21561792034E+03 -0.32037726268E+03  0.12893954340E+04  0.14984937335E+04  0.65864270000E+03 0.  0.
    8880022    1    1    2    0    0  0.21561792034E+03  0.32037726268E+03 -0.75832932084E+01  0.41542970207E+03  0.15294330000E+03 0.  0.
<mgrwt>
<rscale>  0 0.65571640E+03</rscale>
<asrwt>0</asrwt>
<pdfrwt beam="1">  1        2 0.48623946E-01 0.76350696E+03</pdfrwt>
<pdfrwt beam="2">  1       -2 0.24582581E+00 0.76350696E+03</pdfrwt>
<totfact> 0.72389000E+00</totfact>
</mgrwt>
</event>
<event>
 4    2  0.3855935E-007  0.7529797E+03  0.7818608E-02  0.9823633E-01
          2   -1    0    0  501    0  0.00000000000E+00  0.00000000000E+00  0.37696306411E+04  0.37696306411E+04  0.25500000000E-02 0. -1.
         -2   -1    0    0    0  501 -0.00000000000E+00 -0.00000000000E+00 -0.36510186070E+03  0.36510186071E+03  0.25500000000E-02 0.  1.
    8880023    1    1    2    0    0 -0.24456132307E+03 -0.27084680799E+03  0.47511297014E+02  0.75447714594E+03  0.65864270000E+03 0.  1.
    8880022    1    1    2    0    0  0.24456132307E+03  0.27084680799E+03  0.33570174834E+04  0.33802553559E+04  0.15294330000E+03 0.  0.
<mgrwt>
<rscale>  0 0.64109519E+03</rscale>
<asrwt>0</asrwt>
<pdfrwt beam="1">  1        2 0.57994316E+00 0.75297971E+03</pdfrwt>
<pdfrwt beam="2">  1       -2 0.56169518E-01 0.75297971E+03</pdfrwt>
<totfact> 0.16933523E+00</totfact>
</mgrwt>
</event>
<event>
 4    2  0.3855935E-007  0.7313833E+03  0.7818608E-02  0.9885797E-01
          2   -1    0    0  501    0  0.00000000000E+00  0.00000000000E+00  0.26148583349E+04  0.26148583349E+04  0.25500000000E-02 0. -1.
         -2   -1    0    0    0  501 -0.00000000000E+00 -0.00000000000E+00 -0.29653675049E+03  0.29653675050E+03  0.25500000000E-02 0.  1.
    8880023    1    1    2    0    0 -0.29649892743E+03  0.11488991925E+03  0.19223112524E+03  0.75622372304E+03  0.65864270000E+03 0.  1.
    8880022    1    1    2    0    0  0.29649892743E+03 -0.11488991925E+03  0.21260904592E+04  0.21551713624E+04  0.15294330000E+03 0.  0.
<mgrwt>
<rscale>  0 0.60954565E+03</rscale>
<asrwt>0</asrwt>
<pdfrwt beam="1">  1        2 0.40228589E+00 0.73138329E+03</pdfrwt>
<pdfrwt beam="2">  1       -2 0.45621039E-01 0.73138329E+03</pdfrwt>
<totfact> 0.14317352E+01</totfact>
</mgrwt>
</event>
<event>
 4    2  0.3855935E-007  0.7233011E+03  0.7818608E-02  0.9911570E-01
         -2   -1    0    0    0  501 -0.00000000000E+00  0.00000000000E+00  0.99768795047E+03  0.99768795047E+03  0.25500000000E-02 0.  1.
          2   -1    0    0  501    0  0.00000000000E+00 -0.00000000000E+00 -0.96060337301E+03  0.96060337301E+03  0.25500000000E-02 0. -1.
    8880023    1    1    2    0    0 -0.24622466221E+02  0.29790603357E+03  0.82777322805E+03  0.10992602031E+04  0.65864270000E+03 0.  1.
    8880022    1    1    2    0    0  0.24622466221E+02 -0.29790603357E+03 -0.79068865059E+03  0.85903112043E+03  0.15294330000E+03 0.  0.
<mgrwt>
<rscale>  0 0.59703797E+03</rscale>
<asrwt>0</asrwt>
<pdfrwt beam="1">  1        2 0.14778513E+00 0.72330110E+03</pdfrwt>
<pdfrwt beam="2">  1       -2 0.15349045E+00 0.72330110E+03</pdfrwt>
<totfact> 0.76923518E+00</totfact>
</mgrwt>
</event>
<event>
 4    2  0.3855935E-007  0.9188111E+03  0.7818608E-02  0.9496484E-01
         -2   -1    0    0    0  501 -0.00000000000E+00  0.00000000000E+00  0.64899816409E+03  0.64899816409E+03  0.25500000000E-02 0.  1.
          2   -1    0    0  501    0  0.00000000000E+00 -0.00000000000E+00 -0.31342315419E+04  0.31342315419E+04  0.25500000000E-02 0. -1.
    8880023    1    1    2    0    0  0.22100059846E+03 -0.60130062739E+03  0.26417355789E+03  0.95603430063E+03  0.65864270000E+03 0.  1.
    8880022    1    1    2    0    0 -0.22100059846E+03  0.60130062739E+03 -0.27494069357E+04  0.28271954054E+04  0.15294330000E+03 0.  0.
<mgrwt>
<rscale>  0 0.84543516E+03</rscale>
<asrwt>0</asrwt>
<pdfrwt beam="1">  1        2 0.48218946E+00 0.91881114E+03</pdfrwt>
<pdfrwt beam="2">  1       -2 0.99845873E-01 0.91881114E+03</pdfrwt>
<totfact> 0.12303791E+00</totfact>
</mgrwt>
</event>
<event>
 4    2  0.3855935E-007  0.1145169E+04  0.7818608E-02  0.9212358E-01
          2   -1    0    0  501    0  0.00000000000E+00  0.00000000000E+00  0.58951403640E+03  0.58951403641E+03  0.25500000000E-02 0. -1.
         -2   -1    0    0    0  501 -0.00000000000E+00 -0.00000000000E+00 -0.30412981919E+04  0.30412981919E+04  0.25500000000E-02 0.  1.
    8880023    1    1    2    0    0 -0.54273259884E+03 -0.76357222200E+03 -0.24243499149E+04  0.26812094152E+04  0.65864270000E+03 0.  0.
    8880022    1    1    2    0    0  0.54273259884E+03  0.76357222200E+03 -0.27434240588E+02  0.94960281309E+03  0.15294330000E+03 0.  0.
<mgrwt>
<rscale>  0 0.10926782E+04</rscale>
<asrwt>0</asrwt>
<pdfrwt beam="1">  1        2 0.90694469E-01 0.11451687E+04</pdfrwt>
<pdfrwt beam="2">  1       -2 0.46789202E+00 0.11451687E+04</pdfrwt>
<totfact> 0.13366249E-01</totfact>
</mgrwt>
</event>
<event>
 4    2  0.3855935E-007  0.7063855E+03  0.7818608E-02  0.9971676E-01
          2   -1    0    0  501    0  0.00000000000E+00  0.00000000000E+00  0.15531676448E+04  0.15531676448E+04  0.25500000000E-02 0. -1.
         -2   -1    0    0    0  501 -0.00000000000E+00 -0.00000000000E+00 -0.19125311193E+03  0.19125311194E+03  0.25500000000E-02 0.  1.
    8880023    1    1    2    0    0  0.20234552199E+03  0.15564877884E+03  0.60127538756E+03  0.92763815714E+03  0.65864270000E+03 0.  1.
    8880022    1    1    2    0    0 -0.20234552199E+03 -0.15564877884E+03  0.76063914529E+03  0.81678259959E+03  0.15294330000E+03 0.  0.
<mgrwt>
<rscale>  0 0.56909818E+03</rscale>
<asrwt>0</asrwt>
<pdfrwt beam="1">  1        2 0.23894886E+00 0.70638549E+03</pdfrwt>
<pdfrwt beam="2">  1       -2 0.29423557E-01 0.70638549E+03</pdfrwt>
<totfact> 0.12863743E+02</totfact>
</mgrwt>
</event>
<event>
 4    2  0.3855935E-007  0.6949872E+03  0.7818608E-02  0.1001867E+00
          2   -1    0    0  501    0  0.00000000000E+00  0.00000000000E+00  0.13995861430E+04  0.13995861430E+04  0.25500000000E-02 0. -1.
         -2   -1    0    0    0  501 -0.00000000000E+00 -0.00000000000E+00 -0.18470889233E+03  0.18470889235E+03  0.25500000000E-02 0.  1.
    8880023    1    1    2    0    0 -0.19591362657E+03  0.10399473717E+03  0.10766649564E+04  0.12814892466E+04  0.65864270000E+03 0.  0.
    8880022    1    1    2    0    0  0.19591362657E+03 -0.10399473717E+03  0.13821229429E+03  0.30280578882E+03  0.15294330000E+03 0.  0.
<mgrwt>
<rscale>  0 0.54839218E+03</rscale>
<asrwt>0</asrwt>
<pdfrwt beam="1">  1        2 0.21532095E+00 0.69498724E+03</pdfrwt>
<pdfrwt beam="2">  1       -2 0.28416752E-01 0.69498724E+03</pdfrwt>
<totfact> 0.16723162E+02</totfact>
</mgrwt>
</event>
<event>
 4    2  0.3855935E-007  0.1223101E+04  0.7818608E-02  0.9134987E-01
         -2   -1    0    0    0  501 -0.00000000000E+00  0.00000000000E+00  0.10924350994E+04  0.10924350994E+04  0.25500000000E-02 0.  1.
          2   -1    0    0  501    0  0.00000000000E+00 -0.00000000000E+00 -0.20395386069E+04  0.20395386069E+04  0.25500000000E-02 0. -1.
    8880023    1    1    2    0    0  0.36569994339E+03  0.96355045455E+03 -0.15136101732E+04  0.19460194988E+04  0.65864270000E+03 0.  1.
    8880022    1    1    2    0    0 -0.36569994339E+03 -0.96355045455E+03  0.56650666572E+03  0.11859542075E+04  0.15294330000E+03 0.  0.
<mgrwt>
<rscale>  0 0.11750419E+04</rscale>
<asrwt>0</asrwt>
<pdfrwt beam="1">  1        2 0.31377517E+00 0.12231010E+04</pdfrwt>
<pdfrwt beam="2">  1       -2 0.16806694E+00 0.12231010E+04</pdfrwt>
<totfact> 0.13551046E+00</totfact>
</mgrwt>
</event>
<event>
 4    2  0.3855935E-007  0.9049017E+03  0.7818608E-02  0.9518208E-01
          2   -1    0    0  501    0  0.00000000000E+00  0.00000000000E+00  0.28390215702E+04  0.28390215702E+04  0.25500000000E-02 0. -1.
         -2   -1    0    0    0  501 -0.00000000000E+00 -0.00000000000E+00 -0.50421489579E+03  0.50421489579E+03  0.25500000000E-02 0.  1.
    8880023    1    1    2    0    0  0.91543068304E+02 -0.61372372701E+03 -0.18098997188E+02  0.90508271799E+03  0.65864270000E+03 0.  0.
    8880022    1    1    2    0    0 -0.91543068304E+02  0.61372372701E+03  0.23529056716E+04  0.24381537480E+04  0.15294330000E+03 0.  0.
<mgrwt>
<rscale>  0 0.82954621E+03</rscale>
<asrwt>0</asrwt>
<pdfrwt beam="1">  1        2 0.43677255E+00 0.90490174E+03</pdfrwt>
<pdfrwt beam="2">  1       -2 0.77571522E-01 0.90490174E+03</pdfrwt>
<totfact> 0.33486049E+00</totfact>
</mgrwt>
</event>
<event>
 4    2  0.3855935E-007  0.1505403E+04  0.7818608E-02  0.8905830E-01
         -2   -1    0    0    0  501 -0.00000000000E+00  0.00000000000E+00  0.79535335434E+03  0.79535335435E+03  0.25500000000E-02 0.  1.
          2   -1    0    0  501    0  0.00000000000E+00 -0.00000000000E+00 -0.30681341169E+04  0.30681341169E+04  0.25500000000E-02 0. -1.
    8880023    1    1    2    0    0  0.70795550379E+03 -0.11537880477E+04 -0.41833649676E+03  0.15624479144E+04  0.65864270000E+03 0.  0.
    8880022    1    1    2    0    0 -0.70795550379E+03  0.11537880477E+04 -0.18544442658E+04  0.23010395569E+04  0.15294330000E+03 0.  0.
<mgrwt>
<rscale>  0 0.14682721E+04</rscale>
<asrwt>0</asrwt>
<pdfrwt beam="1">  1        2 0.47202063E+00 0.15054030E+04</pdfrwt>
<pdfrwt beam="2">  1       -2 0.12236206E+00 0.15054030E+04</pdfrwt>
<totfact> 0.75951845E-01</totfact>
</mgrwt>
</event>
<event>
 4    2  0.3855935E-007  0.8054604E+03  0.7818608E-02  0.9699112E-01
          2   -1    0    0  501    0  0.00000000000E+00  0.00000000000E+00  0.95680629637E+03  0.95680629637E+03  0.25500000000E-02 0. -1.
         -2   -1    0    0    0  501 -0.00000000000E+00 -0.00000000000E+00 -0.50470069281E+03  0.50470069281E+03  0.25500000000E-02 0.  1.
    8880023    1    1    2    0    0  0.37921730564E+03 -0.26674047038E+03  0.14054961004E+02  0.80558301349E+03  0.65864270000E+03 0.  0.
    8880022    1    1    2    0    0 -0.37921730564E+03  0.26674047038E+03  0.43805064256E+03  0.65592397570E+03  0.15294330000E+03 0.  0.
<mgrwt>
<rscale>  0 0.71069713E+03</rscale>
<asrwt>0</asrwt>
<pdfrwt beam="1">  1        2 0.14720097E+00 0.80546040E+03</pdfrwt>
<pdfrwt beam="2">  1       -2 0.77646260E-01 0.80546040E+03</pdfrwt>
<totfact> 0.40135561E+01</totfact>
</mgrwt>
</event>
<event>
 4    2  0.3855935E-007  0.7476697E+03  0.7818608E-02  0.9838144E-01
          2   -1    0    0  501    0  0.00000000000E+00  0.00000000000E+00  0.40084750712E+03  0.40084750713E+03  0.25500000000E-02 0. -1.
         -2   -1    0    0    0  501 -0.00000000000E+00 -0.00000000000E+00 -0.12657057251E+04  0.12657057251E+04  0.25500000000E-02 0.  1.
    8880023    1    1    2    0    0  0.39590850032E+02  0.35161387691E+03 -0.10082944954E+04  0.12552560494E+04  0.65864270000E+03 0.  1.
    8880022    1    1    2    0    0 -0.39590850032E+02 -0.35161387691E+03  0.14343627748E+03  0.41129718277E+03  0.15294330000E+03 0.  0.
<mgrwt>
<rscale>  0 0.63355094E+03</rscale>
<asrwt>0</asrwt>
<pdfrwt beam="1">  1        2 0.61668848E-01 0.74766969E+03</pdfrwt>
<pdfrwt beam="2">  1       -2 0.19472396E+00 0.74766969E+03</pdfrwt>
<totfact> 0.11639256E+01</totfact>
</mgrwt>
</event>
<event>
 4    2  0.3855935E-007  0.7415622E+03  0.7818608E-02  0.9855420E-01
         -2   -1    0    0    0  501 -0.00000000000E+00  0.00000000000E+00  0.48066449933E+03  0.48066449934E+03  0.25500000000E-02 0.  1.
          2   -1    0    0  501    0  0.00000000000E+00 -0.00000000000E+00 -0.10450090183E+04  0.10450090183E+04  0.25500000000E-02 0. -1.
    8880023    1    1    2    0    0  0.18221404979E+03 -0.28792765264E+03  0.11500216979E+03  0.75042654432E+03  0.65864270000E+03 0.  1.
    8880022    1    1    2    0    0 -0.18221404979E+03  0.28792765264E+03 -0.67934668872E+03  0.77524697329E+03  0.15294330000E+03 0.  0.
<mgrwt>
<rscale>  0 0.62471349E+03</rscale>
<asrwt>0</asrwt>
<pdfrwt beam="1">  1        2 0.16077062E+00 0.74156220E+03</pdfrwt>
<pdfrwt beam="2">  1       -2 0.73948385E-01 0.74156220E+03</pdfrwt>
<totfact> 0.39513037E+01</totfact>
</mgrwt>
</event>
<event>
 4    2  0.3855935E-007  0.1068834E+04  0.7818608E-02  0.9296576E-01
         -2   -1    0    0    0  501 -0.00000000000E+00  0.00000000000E+00  0.40557026099E+03  0.40557026099E+03  0.25500000000E-02 0.  1.
          2   -1    0    0  501    0  0.00000000000E+00 -0.00000000000E+00 -0.35610921138E+04  0.35610921138E+04  0.25500000000E-02 0. -1.
    8880023    1    1    2    0    0  0.83774244447E+03 -0.82359892536E+02 -0.50624424545E+03  0.11826618272E+04  0.65864270000E+03 0.  1.
    8880022    1    1    2    0    0 -0.83774244447E+03  0.82359892536E+02 -0.26492776074E+04  0.27840005476E+04  0.15294330000E+03 0.  0.
<mgrwt>
<rscale>  0 0.10109870E+04</rscale>
<asrwt>0</asrwt>
<pdfrwt beam="1">  1        2 0.54786031E+00 0.10688338E+04</pdfrwt>
<pdfrwt beam="2">  1       -2 0.62395427E-01 0.10688338E+04</pdfrwt>
<totfact> 0.18016573E+00</totfact>
</mgrwt>
</event>
<event>
 4    2  0.3855935E-007  0.7710146E+03  0.7818608E-02  0.9777384E-01
          2   -1    0    0  501    0  0.00000000000E+00  0.00000000000E+00  0.10373521973E+04  0.10373521973E+04  0.25500000000E-02 0. -1.
         -2   -1    0    0    0  501 -0.00000000000E+00 -0.00000000000E+00 -0.77100510719E+03  0.77100510720E+03  0.25500000000E-02 0.  1.
    8880023    1    1    2    0    0  0.40702235240E+01  0.40079511048E+03 -0.50785145679E+03  0.92324243606E+03  0.65864270000E+03 0.  0.
    8880022    1    1    2    0    0 -0.40702235240E+01 -0.40079511048E+03  0.77419854690E+03  0.88511486845E+03  0.15294330000E+03 0.  0.
<mgrwt>
<rscale>  0 0.66590524E+03</rscale>
<asrwt>0</asrwt>
<pdfrwt beam="1">  1        2 0.15959264E+00 0.77101459E+03</pdfrwt>
<pdfrwt beam="2">  1       -2 0.11861617E+00 0.77101459E+03</pdfrwt>
<totfact> 0.13225900E+01</totfact>
</mgrwt>
</event>
<event>
 4    2  0.3855935E-007  0.8408542E+03  0.7818608E-02  0.9628572E-01
         -2   -1    0    0    0  501 -0.00000000000E+00  0.00000000000E+00  0.15891186600E+03  0.15891186602E+03  0.25500000000E-02 0.  1.
          2   -1    0    0  501    0  0.00000000000E+00 -0.00000000000E+00 -0.35856523472E+04  0.35856523473E+04  0.25500000000E-02 0. -1.
    8880023    1    1    2    0    0  0.77582260910E+02 -0.51692026153E+03 -0.12926126681E+04  0.15420386765E+04  0.65864270000E+03 0. -1.
    8880022    1    1    2    0    0 -0.77582260910E+02  0.51692026153E+03 -0.21341278132E+04  0.22025255367E+04  0.15294330000E+03 0.  1.
<mgrwt>
<rscale>  0 0.75433640E+03</rscale>
<asrwt>0</asrwt>
<pdfrwt beam="1">  1        2 0.55163876E+00 0.84085419E+03</pdfrwt>
<pdfrwt beam="2">  1       -2 0.24447982E-01 0.84085419E+03</pdfrwt>
<totfact> 0.11236655E+01</totfact>
</mgrwt>
</event>
<event>
 4    2  0.3855935E-007  0.8983832E+03  0.7818608E-02  0.9528632E-01
         -2   -1    0    0    0  501 -0.00000000000E+00  0.00000000000E+00  0.10195633733E+04  0.10195633733E+04  0.25500000000E-02 0.  1.
          2   -1    0    0  501    0  0.00000000000E+00 -0.00000000000E+00 -0.19354492284E+04  0.19354492284E+04  0.25500000000E-02 0. -1.
    8880023    1    1    2    0    0 -0.51138069450E+03  0.33432307885E+03 -0.17158851957E+04  0.19368413324E+04  0.65864270000E+03 0.  0.
    8880022    1    1    2    0    0  0.51138069450E+03 -0.33432307885E+03  0.79999934059E+03  0.10181712693E+04  0.15294330000E+03 0.  0.
<mgrwt>
<rscale>  0 0.82205410E+03</rscale>
<asrwt>0</asrwt>
<pdfrwt beam="1">  1        2 0.29776142E+00 0.89838318E+03</pdfrwt>
<pdfrwt beam="2">  1       -2 0.15685590E+00 0.89838318E+03</pdfrwt>
<totfact> 0.19512747E+00</totfact>
</mgrwt>
</event>
<event>
 4    2  0.3855935E-007  0.7125323E+03  0.7818608E-02  0.9948715E-01
         -2   -1    0    0    0  501 -0.00000000000E+00  0.00000000000E+00  0.45745556976E+03  0.45745556977E+03  0.25500000000E-02 0.  1.
          2   -1    0    0  501    0  0.00000000000E+00 -0.00000000000E+00 -0.69828142184E+03  0.69828142184E+03  0.25500000000E-02 0. -1.
    8880023    1    1    2    0    0 -0.10129804026E+03 -0.25225150566E+03  0.69299548167E+02  0.71589436980E+03  0.65864270000E+03 0.  1.
    8880022    1    1    2    0    0  0.10129804026E+03  0.25225150566E+03 -0.31012540025E+03  0.43984262181E+03  0.15294330000E+03 0.  0.
<mgrwt>
<rscale>  0 0.57957345E+03</rscale>
<asrwt>0</asrwt>
<pdfrwt beam="1">  1        2 0.10742791E+00 0.71253233E+03</pdfrwt>
<pdfrwt beam="2">  1       -2 0.70377780E-01 0.71253233E+03</pdfrwt>
<totfact> 0.76640109E+01</totfact>
</mgrwt>
</event>
<event>
 4    2  0.3855935E-007  0.7930340E+03  0.7818608E-02  0.9726065E-01
          2   -1    0    0  501    0  0.00000000000E+00  0.00000000000E+00  0.55418960761E+03  0.55418960762E+03  0.25500000000E-02 0. -1.
         -2   -1    0    0    0  501 -0.00000000000E+00 -0.00000000000E+00 -0.10048054834E+04  0.10048054834E+04  0.25500000000E-02 0.  1.
    8880023    1    1    2    0    0 -0.17115432899E+03  0.40718420653E+03 -0.67416446737E+03  0.10408653696E+04  0.65864270000E+03 0.  0.
    8880022    1    1    2    0    0  0.17115432899E+03 -0.40718420653E+03  0.22354859157E+03  0.51812972139E+03  0.15294330000E+03 0.  0.
<mgrwt>
<rscale>  0 0.69485860E+03</rscale>
<asrwt>0</asrwt>
<pdfrwt beam="1">  1        2 0.85259940E-01 0.79303404E+03</pdfrwt>
<pdfrwt beam="2">  1       -2 0.15458546E+00 0.79303404E+03</pdfrwt>
<totfact> 0.15241935E+01</totfact>
</mgrwt>
</event>
<event>
 4    2  0.3855935E-007  0.8804154E+03  0.7818608E-02  0.9558232E-01
          2   -1    0    0  501    0  0.00000000000E+00  0.00000000000E+00  0.17472774290E+04  0.17472774290E+04  0.25500000000E-02 0. -1.
         -2   -1    0    0    0  501 -0.00000000000E+00 -0.00000000000E+00 -0.43320801406E+03  0.43320801406E+03  0.25500000000E-02 0.  1.
    8880023    1    1    2    0    0 -0.31498304083E+03 -0.49204352355E+03  0.18439489989E+03  0.89951811013E+03  0.65864270000E+03 0.  0.
    8880022    1    1    2    0    0  0.31498304083E+03  0.49204352355E+03  0.11296745150E+04  0.12809673329E+04  0.15294330000E+03 0. -1.
<mgrwt>
<rscale>  0 0.80123445E+03</rscale>
<asrwt>0</asrwt>
<pdfrwt beam="1">  1        2 0.26881191E+00 0.88041544E+03</pdfrwt>
<pdfrwt beam="2">  1       -2 0.66647388E-01 0.88041544E+03</pdfrwt>
<totfact> 0.19334849E+01</totfact>
</mgrwt>
</event>
<event>
 4    2  0.3855935E-007  0.9591654E+03  0.7818608E-02  0.9437048E-01
          2   -1    0    0  501    0  0.00000000000E+00  0.00000000000E+00  0.17016805649E+04  0.17016805649E+04  0.25500000000E-02 0. -1.
         -2   -1    0    0    0  501 -0.00000000000E+00 -0.00000000000E+00 -0.66883511334E+03  0.66883511335E+03  0.25500000000E-02 0.  1.
    8880023    1    1    2    0    0  0.55722969774E+03 -0.41914569178E+03  0.12937136106E+04  0.16104946941E+04  0.65864270000E+03 0.  0.
    8880022    1    1    2    0    0 -0.55722969774E+03  0.41914569178E+03 -0.26086815907E+03  0.76002098420E+03  0.15294330000E+03 0.  0.
<mgrwt>
<rscale>  0 0.89088499E+03</rscale>
<asrwt>0</asrwt>
<pdfrwt beam="1">  1        2 0.26179701E+00 0.95916539E+03</pdfrwt>
<pdfrwt beam="2">  1       -2 0.10289771E+00 0.95916539E+03</pdfrwt>
<totfact> 0.75617988E+00</totfact>
</mgrwt>
</event>
<event>
 4    2  0.3855935E-007  0.7483652E+03  0.7818608E-02  0.9836217E-01
          2   -1    0    0  501    0  0.00000000000E+00  0.00000000000E+00  0.91861939092E+03  0.91861939092E+03  0.25500000000E-02 0. -1.
         -2   -1    0    0    0  501 -0.00000000000E+00 -0.00000000000E+00 -0.73516633502E+03  0.73516633503E+03  0.25500000000E-02 0.  1.
    8880023    1    1    2    0    0 -0.88389498410E+02 -0.34413304101E+03 -0.47766647484E+03  0.88781513886E+03  0.65864270000E+03 0.  1.
    8880022    1    1    2    0    0  0.88389498410E+02  0.34413304101E+03  0.66111953074E+03  0.76597058709E+03  0.15294330000E+03 0.  0.
<mgrwt>
<rscale>  0 0.63454615E+03</rscale>
<asrwt>0</asrwt>
<pdfrwt beam="1">  1        2 0.14132606E+00 0.74836519E+03</pdfrwt>
<pdfrwt beam="2">  1       -2 0.11310251E+00 0.74836519E+03</pdfrwt>
<totfact> 0.17771838E+01</totfact>
</mgrwt>
</event>
<event>
 4    2  0.3855935E-007  0.8529786E+03  0.7818608E-02  0.9606177E-01
         -2   -1    0    0    0  501 -0.00000000000E+00  0.00000000000E+00  0.45275416915E+03  0.45275416915E+03  0.25500000000E-02 0.  1.
          2   -1    0    0  501    0  0.00000000000E+00 -0.00000000000E+00 -0.30720238500E+04  0.30720238500E+04  0.25500000000E-02 0. -1.
    8880023    1    1    2    0    0  0.13383744649E+03  0.52521408420E+03 -0.75306968875E+01  0.85301184868E+03  0.65864270000E+03 0.  1.
    8880022    1    1    2    0    0 -0.13383744649E+03 -0.52521408420E+03 -0.26117389840E+04  0.26717661705E+04  0.15294330000E+03 0.  0.
<mgrwt>
<rscale>  0 0.76888674E+03</rscale>
<asrwt>0</asrwt>
<pdfrwt beam="1">  1        2 0.47261904E+00 0.85297861E+03</pdfrwt>
<pdfrwt beam="2">  1       -2 0.69654490E-01 0.85297861E+03</pdfrwt>
<totfact> 0.30901332E+00</totfact>
</mgrwt>
</event>
<event>
 4    2  0.3855935E-007  0.6630937E+03  0.7818608E-02  0.1021189E+00
          2   -1    0    0  501    0  0.00000000000E+00  0.00000000000E+00  0.78696117121E+03  0.78696117121E+03  0.25500000000E-02 0. -1.
         -2   -1    0    0    0  501 -0.00000000000E+00 -0.00000000000E+00 -0.44770557129E+03  0.44770557130E+03  0.25500000000E-02 0.  1.
    8880023    1    1    2    0    0  0.51151519835E+02 -0.57153622025E+02 -0.18070767754E+03  0.68727613481E+03  0.65864270000E+03 0.  1.
    8880022    1    1    2    0    0 -0.51151519835E+02  0.57153622025E+02  0.51996327745E+03  0.54739060771E+03  0.15294330000E+03 0.  0.
<mgrwt>
<rscale>  0 0.47259885E+03</rscale>
<asrwt>0</asrwt>
<pdfrwt beam="1">  1        2 0.12107095E+00 0.66309367E+03</pdfrwt>
<pdfrwt beam="2">  1       -2 0.68877781E-01 0.66309367E+03</pdfrwt>
<totfact> 0.69145736E+01</totfact>
</mgrwt>
</event>
<event>
 4    2  0.3855935E-007  0.7030587E+03  0.7818608E-02  0.9984742E-01
         -2   -1    0    0    0  501 -0.00000000000E+00  0.00000000000E+00  0.48052481709E+03  0.48052481710E+03  0.25500000000E-02 0.  1.
          2   -1    0    0  501    0  0.00000000000E+00 -0.00000000000E+00 -0.92818923120E+03  0.92818923121E+03  0.25500000000E-02 0. -1.
    8880023    1    1    2    0    0 -0.14602105643E+03 -0.19788674318E+03  0.17280483405E+03  0.72398413587E+03  0.65864270000E+03 0.  1.
    8880022    1    1    2    0    0  0.14602105643E+03  0.19788674318E+03 -0.62046924817E+03  0.68472991244E+03  0.15294330000E+03 0.  0.
<mgrwt>
<rscale>  0 0.56324382E+03</rscale>
<asrwt>0</asrwt>
<pdfrwt beam="1">  1        2 0.14279834E+00 0.70305869E+03</pdfrwt>
<pdfrwt beam="2">  1       -2 0.73926895E-01 0.70305869E+03</pdfrwt>
<totfact> 0.47158356E+01</totfact>
</mgrwt>
</event>
<event>
 4    2  0.3855935E-007  0.6930651E+03  0.7818608E-02  0.1002728E+00
          2   -1    0    0  501    0  0.00000000000E+00  0.00000000000E+00  0.21709955365E+04  0.21709955365E+04  0.25500000000E-02 0. -1.
         -2   -1    0    0    0  501 -0.00000000000E+00 -0.00000000000E+00 -0.17546727573E+03  0.17546727574E+03  0.25500000000E-02 0.  1.
    8880023    1    1    2    0    0 -0.10547657623E+03  0.18815891574E+03  0.57211290206E+03  0.89869486739E+03  0.65864270000E+03 0.  1.
    8880022    1    1    2    0    0  0.10547657623E+03 -0.18815891574E+03  0.14234153587E+04  0.14477679448E+04  0.15294330000E+03 0.  0.
<mgrwt>
<rscale>  0 0.54469864E+03</rscale>
<asrwt>0</asrwt>
<pdfrwt beam="1">  1        2 0.33399930E+00 0.69306514E+03</pdfrwt>
<pdfrwt beam="2">  1       -2 0.26994967E-01 0.69306514E+03</pdfrwt>
<totfact> 0.69403292E+01</totfact>
</mgrwt>
</event>
<event>
 4    2  0.3855935E-007  0.8498216E+03  0.7818608E-02  0.9611932E-01
         -2   -1    0    0    0  501 -0.00000000000E+00  0.00000000000E+00  0.40124860718E+03  0.40124860719E+03  0.25500000000E-02 0.  1.
          2   -1    0    0  501    0  0.00000000000E+00 -0.00000000000E+00 -0.14791027572E+04  0.14791027572E+04  0.25500000000E-02 0. -1.
    8880023    1    1    2    0    0  0.48441063505E+03 -0.23180357341E+03 -0.25745504621E+03  0.88796388839E+03  0.65864270000E+03 0.  1.
    8880022    1    1    2    0    0 -0.48441063505E+03  0.23180357341E+03 -0.82039910377E+03  0.99238747598E+03  0.15294330000E+03 0.  0.
<mgrwt>
<rscale>  0 0.76511470E+03</rscale>
<asrwt>0</asrwt>
<pdfrwt beam="1">  1        2 0.22755427E+00 0.84982161E+03</pdfrwt>
<pdfrwt beam="2">  1       -2 0.61730556E-01 0.84982161E+03</pdfrwt>
<totfact> 0.32187456E+01</totfact>
</mgrwt>
</event>
<event>
 4    2  0.3855935E-007  0.6875138E+03  0.7818608E-02  0.1005357E+00
          2   -1    0    0  501    0  0.00000000000E+00  0.00000000000E+00  0.92539695027E+03  0.92539695027E+03  0.25500000000E-02 0. -1.
         -2   -1    0    0    0  501 -0.00000000000E+00 -0.00000000000E+00 -0.10981971478E+04  0.10981971478E+04  0.25500000000E-02 0.  1.
    8880023    1    1    2    0    0  0.34223156110E+02 -0.19414893292E+03 -0.96961618894E+03  0.11886255898E+04  0.65864270000E+03 0.  1.
    8880022    1    1    2    0    0 -0.34223156110E+02  0.19414893292E+03  0.79681599144E+03  0.83496850826E+03  0.15294330000E+03 0.  0.
<mgrwt>
<rscale>  0 0.53362273E+03</rscale>
<asrwt>0</asrwt>
<pdfrwt beam="1">  1        2 0.14236876E+00 0.68751381E+03</pdfrwt>
<pdfrwt beam="2">  1       -2 0.16895341E+00 0.68751381E+03</pdfrwt>
<totfact> 0.62826034E+00</totfact>
</mgrwt>
</event>
<event>
 4    2  0.3855935E-007  0.8536497E+03  0.7818608E-02  0.9604961E-01
         -2   -1    0    0    0  501 -0.00000000000E+00  0.00000000000E+00  0.31313787813E+04  0.31313787813E+04  0.25500000000E-02 0.  1.
          2   -1    0    0  501    0  0.00000000000E+00 -0.00000000000E+00 -0.19182813930E+03  0.19182813932E+03  0.25500000000E-02 0. -1.
    8880023    1    1    2    0    0  0.34036867571E+03  0.42315095147E+03  0.23805941401E+04  0.25290208044E+04  0.65864270000E+03 0. -1.
    8880022    1    1    2    0    0 -0.34036867571E+03 -0.42315095147E+03  0.55895650194E+03  0.79418611622E+03  0.15294330000E+03 0.  0.
<mgrwt>
<rscale>  0 0.76968710E+03</rscale>
<asrwt>0</asrwt>
<pdfrwt beam="1">  1        2 0.29512022E-01 0.85364968E+03</pdfrwt>
<pdfrwt beam="2">  1       -2 0.48175058E+00 0.85364968E+03</pdfrwt>
<totfact> 0.40662995E-01</totfact>
</mgrwt>
</event>
<event>
 4    2  0.3855935E-007  0.7130055E+03  0.7818608E-02  0.9947005E-01
          2   -1    0    0  501    0  0.00000000000E+00  0.00000000000E+00  0.25497094315E+04  0.25497094315E+04  0.25500000000E-02 0. -1.
         -2   -1    0    0    0  501 -0.00000000000E+00 -0.00000000000E+00 -0.24443579279E+03  0.24443579281E+03  0.25500000000E-02 0.  1.
    8880023    1    1    2    0    0  0.75179038112E+01  0.27296552550E+03  0.31512956036E+03  0.77954059744E+03  0.65864270000E+03 0.  0.
    8880022    1    1    2    0    0 -0.75179038112E+01 -0.27296552550E+03  0.19901440783E+04  0.20146046269E+04  0.15294330000E+03 0. -1.
<mgrwt>
<rscale>  0 0.58036319E+03</rscale>
<asrwt>0</asrwt>
<pdfrwt beam="1">  1        2 0.39226298E+00 0.71300554E+03</pdfrwt>
<pdfrwt beam="2">  1       -2 0.37605507E-01 0.71300554E+03</pdfrwt>
<totfact> 0.22860298E+01</totfact>
</mgrwt>
</event>
<event>
 4    2  0.3855935E-007  0.7239389E+03  0.7818608E-02  0.9909477E-01
         -2   -1    0    0    0  501 -0.00000000000E+00  0.00000000000E+00  0.28226767193E+03  0.28226767194E+03  0.25500000000E-02 0.  1.
          2   -1    0    0  501    0  0.00000000000E+00 -0.00000000000E+00 -0.11819797207E+04  0.11819797207E+04  0.25500000000E-02 0. -1.
    8880023    1    1    2    0    0 -0.26382811530E+03  0.14377762220E+03 -0.31543625546E+03  0.78967557680E+03  0.65864270000E+03 0.  0.
    8880022    1    1    2    0    0  0.26382811530E+03 -0.14377762220E+03 -0.58427579333E+03  0.67457181586E+03  0.15294330000E+03 0.  0.
<mgrwt>
<rscale>  0 0.59804194E+03</rscale>
<asrwt>0</asrwt>
<pdfrwt beam="1">  1        2 0.18184303E+00 0.72393887E+03</pdfrwt>
<pdfrwt beam="2">  1       -2 0.43425796E-01 0.72393887E+03</pdfrwt>
<totfact> 0.99315449E+01</totfact>
</mgrwt>
</event>
<event>
 4    2  0.3855935E-007  0.6663177E+03  0.7818608E-02  0.1018453E+00
         -2   -1    0    0    0  501 -0.00000000000E+00  0.00000000000E+00  0.92778019651E+02  0.92778019686E+02  0.25500000000E-02 0.  1.
          2   -1    0    0  501    0  0.00000000000E+00 -0.00000000000E+00 -0.26392107396E+04  0.26392107396E+04  0.25500000000E-02 0. -1.
    8880023    1    1    2    0    0 -0.44833764910E+02  0.90326930659E+02 -0.11951377984E+04  0.13683324100E+04  0.65864270000E+03 0.  1.
    8880022    1    1    2    0    0  0.44833764910E+02 -0.90326930659E+02 -0.13512949216E+04  0.13636563493E+04  0.15294330000E+03 0.  0.
<mgrwt>
<rscale>  0 0.48249168E+03</rscale>
<asrwt>0</asrwt>
<pdfrwt beam="1">  1        2 0.40603236E+00 0.66631766E+03</pdfrwt>
<pdfrwt beam="2">  1       -2 0.14273544E-01 0.66631766E+03</pdfrwt>
<totfact> 0.11579504E+02</totfact>
</mgrwt>
</event>
<event>
 4    2  0.3855935E-007  0.6995266E+03  0.7818608E-02  0.9999171E-01
         -2   -1    0    0    0  501 -0.00000000000E+00  0.00000000000E+00  0.36194275145E+03  0.36194275146E+03  0.25500000000E-02 0.  1.
          2   -1    0    0  501    0  0.00000000000E+00 -0.00000000000E+00 -0.18912312923E+04  0.18912312923E+04  0.25500000000E-02 0. -1.
    8880023    1    1    2    0    0 -0.15398068334E+03  0.17837373458E+03 -0.12512216347E+01  0.69952770628E+03  0.65864270000E+03 0.  1.
    8880022    1    1    2    0    0  0.15398068334E+03 -0.17837373458E+03 -0.15280373193E+04  0.15536463375E+04  0.15294330000E+03 0.  0.
<mgrwt>
<rscale>  0 0.55686612E+03</rscale>
<asrwt>0</asrwt>
<pdfrwt beam="1">  1        2 0.29095866E+00 0.69952659E+03</pdfrwt>
<pdfrwt beam="2">  1       -2 0.55683501E-01 0.69952659E+03</pdfrwt>
<totfact> 0.24157689E+01</totfact>
</mgrwt>
</event>
<event>
 4    2  0.3855935E-007  0.7256807E+03  0.7818608E-02  0.9903813E-01
         -2   -1    0    0    0  501 -0.00000000000E+00  0.00000000000E+00  0.32966950170E+03  0.32966950171E+03  0.25500000000E-02 0.  1.
          2   -1    0    0  501    0  0.00000000000E+00 -0.00000000000E+00 -0.13260896321E+04  0.13260896321E+04  0.25500000000E-02 0. -1.
    8880023    1    1    2    0    0  0.25200153510E+03  0.17116508267E+03 -0.14689694259E+03  0.74039933632E+03  0.65864270000E+03 0.  1.
    8880022    1    1    2    0    0 -0.25200153510E+03 -0.17116508267E+03 -0.84952318776E+03  0.91535979745E+03  0.15294330000E+03 0.  0.
<mgrwt>
<rscale>  0 0.60076842E+03</rscale>
<asrwt>0</asrwt>
<pdfrwt beam="1">  1        2 0.20401379E+00 0.72568069E+03</pdfrwt>
<pdfrwt beam="2">  1       -2 0.50718386E-01 0.72568069E+03</pdfrwt>
<totfact> 0.59907589E+01</totfact>
</mgrwt>
</event>
<event>
 4    2  0.3855935E-007  0.1085206E+04  0.7818608E-02  0.9277709E-01
         -2   -1    0    0    0  501 -0.00000000000E+00  0.00000000000E+00  0.90410390547E+03  0.90410390548E+03  0.25500000000E-02 0.  1.
          2   -1    0    0  501    0  0.00000000000E+00 -0.00000000000E+00 -0.14771730692E+04  0.14771730692E+04  0.25500000000E-02 0. -1.
    8880023    1    1    2    0    0  0.37493216026E+03 -0.77671593137E+03  0.31894017419E+03  0.11311033568E+04  0.65864270000E+03 0.  0.
    8880022    1    1    2    0    0 -0.37493216026E+03  0.77671593137E+03 -0.89200933788E+03  0.12501736178E+04  0.15294330000E+03 0.  0.
<mgrwt>
<rscale>  0 0.10286117E+04</rscale>
<asrwt>0</asrwt>
<pdfrwt beam="1">  1        2 0.22725739E+00 0.10852060E+04</pdfrwt>
<pdfrwt beam="2">  1       -2 0.13909291E+00 0.10852060E+04</pdfrwt>
<totfact> 0.46998394E+00</totfact>
</mgrwt>
</event>
<event>
 4    2  0.3855935E-007  0.7203711E+03  0.7818608E-02  0.9921332E-01
          2   -1    0    0  501    0  0.00000000000E+00  0.00000000000E+00  0.12707781013E+04  0.12707781013E+04  0.25500000000E-02 0. -1.
         -2   -1    0    0    0  501 -0.00000000000E+00 -0.00000000000E+00 -0.37019806829E+03  0.37019806830E+03  0.25500000000E-02 0.  1.
    8880023    1    1    2    0    0 -0.92669327794E+02 -0.27665279555E+03  0.42256587214E+02  0.72160945048E+03  0.65864270000E+03 0.  1.
    8880022    1    1    2    0    0  0.92669327794E+02  0.27665279555E+03  0.85832344584E+03  0.91936671916E+03  0.15294330000E+03 0.  0.
<mgrwt>
<rscale>  0 0.59238488E+03</rscale>
<asrwt>0</asrwt>
<pdfrwt beam="1">  1        2 0.19550433E+00 0.72037114E+03</pdfrwt>
<pdfrwt beam="2">  1       -2 0.56953548E-01 0.72037114E+03</pdfrwt>
<totfact> 0.50772272E+01</totfact>
</mgrwt>
</event>
<event>
 4    2  0.3855935E-007  0.8748744E+03  0.7818608E-02  0.9567633E-01
          2   -1    0    0  501    0  0.00000000000E+00  0.00000000000E+00  0.94249627926E+03  0.94249627926E+03  0.25500000000E-02 0. -1.
         -2   -1    0    0    0  501 -0.00000000000E+00 -0.00000000000E+00 -0.80909705435E+03  0.80909705435E+03  0.25500000000E-02 0.  1.
    8880023    1    1    2    0    0  0.18183778682E+03  0.54637906299E+03 -0.39063235761E+03  0.95812259459E+03  0.65864270000E+03 0.  0.
    8880022    1    1    2    0    0 -0.18183778682E+03 -0.54637906299E+03  0.52403158251E+03  0.79347073902E+03  0.15294330000E+03 0.  0.
<mgrwt>
<rscale>  0 0.79475964E+03</rscale>
<asrwt>0</asrwt>
<pdfrwt beam="1">  1        2 0.14499943E+00 0.87487443E+03</pdfrwt>
<pdfrwt beam="2">  1       -2 0.12447647E+00 0.87487443E+03</pdfrwt>
<totfact> 0.13353009E+01</totfact>
</mgrwt>
</event>
<event>
 4    2  0.3855935E-007  0.7662875E+03  0.7818608E-02  0.9789093E-01
         -2   -1    0    0    0  501 -0.00000000000E+00  0.00000000000E+00  0.15473886012E+03  0.15473886014E+03  0.25500000000E-02 0.  1.
          2   -1    0    0  501    0  0.00000000000E+00 -0.00000000000E+00 -0.23293065485E+04  0.23293065485E+04  0.25500000000E-02 0. -1.
    8880023    1    1    2    0    0  0.25529418967E+03  0.29700378443E+03 -0.12157918571E+04  0.14371313153E+04  0.65864270000E+03 0.  0.
    8880022    1    1    2    0    0 -0.25529418967E+03 -0.29700378443E+03 -0.95877583128E+03  0.10469140934E+04  0.15294330000E+03 0.  1.
<mgrwt>
<rscale>  0 0.65951147E+03</rscale>
<asrwt>0</asrwt>
<pdfrwt beam="1">  1        2 0.35835483E+00 0.76628753E+03</pdfrwt>
<pdfrwt beam="2">  1       -2 0.23805980E-01 0.76628753E+03</pdfrwt>
<totfact> 0.70570435E+01</totfact>
</mgrwt>
</event>
<event>
 4    2  0.3855935E-007  0.7073651E+03  0.7818608E-02  0.9967919E-01
         -2   -1    0    0    0  501 -0.00000000000E+00  0.00000000000E+00  0.56738324229E+03  0.56738324230E+03  0.25500000000E-02 0.  1.
          2   -1    0    0  501    0  0.00000000000E+00 -0.00000000000E+00 -0.46328389989E+03  0.46328389989E+03  0.25500000000E-02 0. -1.
    8880023    1    1    2    0    0 -0.23749580365E+03 -0.10075200425E+03 -0.16143143275E+02  0.70754931309E+03  0.65864270000E+03 0. -1.
    8880022    1    1    2    0    0  0.23749580365E+03  0.10075200425E+03  0.12024248568E+03  0.32311782911E+03  0.15294330000E+03 0.  1.
<mgrwt>
<rscale>  0 0.57079610E+03</rscale>
<asrwt>0</asrwt>
<pdfrwt beam="1">  1        2 0.71274446E-01 0.70736513E+03</pdfrwt>
<pdfrwt beam="2">  1       -2 0.87289729E-01 0.70736513E+03</pdfrwt>
<totfact> 0.77307838E+01</totfact>
</mgrwt>
</event>
<event>
 4    2  0.3855935E-007  0.8964876E+03  0.7818608E-02  0.9531694E-01
          2   -1    0    0  501    0  0.00000000000E+00  0.00000000000E+00  0.66175734684E+03  0.66175734684E+03  0.25500000000E-02 0. -1.
         -2   -1    0    0    0  501 -0.00000000000E+00 -0.00000000000E+00 -0.12982404255E+04  0.12982404255E+04  0.25500000000E-02 0.  1.
    8880023    1    1    2    0    0  0.10271381357E+03 -0.59944117292E+03  0.19607649709E+03  0.91767970789E+03  0.65864270000E+03 0.  0.
    8880022    1    1    2    0    0 -0.10271381357E+03  0.59944117292E+03 -0.83255957573E+03  0.10423180644E+04  0.15294330000E+03 0.  0.
<mgrwt>
<rscale>  0 0.81986960E+03</rscale>
<asrwt>0</asrwt>
<pdfrwt beam="1">  1        2 0.10180882E+00 0.89648762E+03</pdfrwt>
<pdfrwt beam="2">  1       -2 0.19972930E+00 0.89648762E+03</pdfrwt>
<totfact> 0.58949253E+00</totfact>
</mgrwt>
</event>
<event>
 4    2  0.3855935E-007  0.6965790E+03  0.7818608E-02  0.1001170E+00
          2   -1    0    0  501    0  0.00000000000E+00  0.00000000000E+00  0.14536797921E+04  0.14536797921E+04  0.25500000000E-02 0. -1.
         -2   -1    0    0    0  501 -0.00000000000E+00 -0.00000000000E+00 -0.17391128655E+03  0.17391128657E+03  0.25500000000E-02 0.  1.
    8880023    1    1    2    0    0 -0.20503825610E+03 -0.96805852703E+02  0.70508666522E+03  0.99114553488E+03  0.65864270000E+03 0.  1.
    8880022    1    1    2    0    0  0.20503825610E+03  0.96805852703E+02  0.57468184034E+03  0.63644554380E+03  0.15294330000E+03 0.  0.
<mgrwt>
<rscale>  0 0.55140178E+03</rscale>
<asrwt>0</asrwt>
<pdfrwt beam="1">  1        2 0.22364304E+00 0.69657897E+03</pdfrwt>
<pdfrwt beam="2">  1       -2 0.26755583E-01 0.69657897E+03</pdfrwt>
<totfact> 0.17407949E+02</totfact>
</mgrwt>
</event>
<event>
 4    2  0.3855935E-007  0.1845142E+04  0.7818608E-02  0.8697968E-01
          2   -1    0    0  501    0  0.00000000000E+00  0.00000000000E+00  0.29952217031E+04  0.29952217031E+04  0.25500000000E-02 0. -1.
         -2   -1    0    0    0  501 -0.00000000000E+00 -0.00000000000E+00 -0.14692582010E+04  0.14692582010E+04  0.25500000000E-02 0.  1.
    8880023    1    1    2    0    0 -0.14644027036E+02  0.17235214146E+04 -0.38672507270E+03  0.18852339383E+04  0.65864270000E+03 0.  0.
    8880022    1    1    2    0    0  0.14644027036E+02 -0.17235214146E+04  0.19126885748E+04  0.25792459657E+04  0.15294330000E+03 0.  0.
<mgrwt>
<rscale>  0 0.18157510E+04</rscale>
<asrwt>0</asrwt>
<pdfrwt beam="1">  1        2 0.46080333E+00 0.18451425E+04</pdfrwt>
<pdfrwt beam="2">  1       -2 0.22603973E+00 0.18451425E+04</pdfrwt>
<totfact> 0.14352470E-01</totfact>
</mgrwt>
</event>
<event>
 4    2  0.3855935E-007  0.7192004E+03  0.7818608E-02  0.9925301E-01
         -2   -1    0    0    0  501 -0.00000000000E+00  0.00000000000E+00  0.34389469464E+03  0.34389469465E+03  0.25500000000E-02 0.  1.
          2   -1    0    0  501    0  0.00000000000E+00 -0.00000000000E+00 -0.19160170990E+04  0.19160170990E+04  0.25500000000E-02 0. -1.
    8880023    1    1    2    0    0 -0.26100799750E+03  0.12374886976E+03 -0.69952478689E+02  0.72259429355E+03  0.65864270000E+03 0.  0.
    8880022    1    1    2    0    0  0.26100799750E+03 -0.12374886976E+03 -0.15021699257E+04  0.15373175001E+04  0.15294330000E+03 0.  0.
<mgrwt>
<rscale>  0 0.59050610E+03</rscale>
<asrwt>0</asrwt>
<pdfrwt beam="1">  1        2 0.29477185E+00 0.71920036E+03</pdfrwt>
<pdfrwt beam="2">  1       -2 0.52906877E-01 0.71920036E+03</pdfrwt>
<totfact> 0.25960515E+01</totfact>
</mgrwt>
</event>
<event>
 4    2  0.3855935E-007  0.9863041E+03  0.7818608E-02  0.9399699E-01
          2   -1    0    0  501    0  0.00000000000E+00  0.00000000000E+00  0.71643253736E+03  0.71643253736E+03  0.25500000000E-02 0. -1.
         -2   -1    0    0    0  501 -0.00000000000E+00 -0.00000000000E+00 -0.19777826821E+04  0.19777826821E+04  0.25500000000E-02 0.  1.
    8880023    1    1    2    0    0  0.66004248528E+03 -0.32144902672E+03 -0.15934909471E+04  0.18740355290E+04  0.65864270000E+03 0.  0.
    8880022    1    1    2    0    0 -0.66004248528E+03  0.32144902672E+03  0.33214080232E+03  0.82017969052E+03  0.15294330000E+03 0.  0.
<mgrwt>
<rscale>  0 0.92100416E+03</rscale>
<asrwt>0</asrwt>
<pdfrwt beam="1">  1        2 0.11022039E+00 0.98630409E+03</pdfrwt>
<pdfrwt beam="2">  1       -2 0.30427426E+00 0.98630409E+03</pdfrwt>
<totfact> 0.11993301E+00</totfact>
</mgrwt>
</event>
<event>
 4    2  0.3855935E-007  0.8032262E+03  0.7818608E-02  0.9703863E-01
          2   -1    0    0  501    0  0.00000000000E+00  0.00000000000E+00  0.64235120931E+03  0.64235120931E+03  0.25500000000E-02 0. -1.
         -2   -1    0    0    0  501 -0.00000000000E+00 -0.00000000000E+00 -0.76389879910E+03  0.76389879910E+03  0.25500000000E-02 0.  1.
    8880023    1    1    2    0    0  0.40436051112E+03  0.21875701099E+03 -0.34316027414E+03  0.87345934812E+03  0.65864270000E+03 0.  1.
    8880022    1    1    2    0    0 -0.40436051112E+03 -0.21875701099E+03  0.22161268435E+03  0.53279066029E+03  0.15294330000E+03 0.  0.
<mgrwt>
<rscale>  0 0.70787233E+03</rscale>
<asrwt>0</asrwt>
<pdfrwt beam="1">  1        2 0.98823263E-01 0.80322616E+03</pdfrwt>
<pdfrwt beam="2">  1       -2 0.11752289E+00 0.80322616E+03</pdfrwt>
<totfact> 0.25733029E+01</totfact>
</mgrwt>
</event>
<event>
 4    2  0.3855935E-007  0.1140927E+04  0.7818608E-02  0.9216801E-01
         -2   -1    0    0    0  501 -0.00000000000E+00  0.00000000000E+00  0.45611827116E+03  0.45611827116E+03  0.25500000000E-02 0.  1.
          2   -1    0    0  501    0  0.00000000000E+00 -0.00000000000E+00 -0.31885266428E+04  0.31885266428E+04  0.25500000000E-02 0. -1.
    8880023    1    1    2    0    0 -0.57192223160E+03  0.73539765512E+03 -0.54956153799E+03  0.12663857392E+04  0.65864270000E+03 0.  0.
    8880022    1    1    2    0    0  0.57192223160E+03 -0.73539765512E+03 -0.21828468337E+04  0.23782591748E+04  0.15294330000E+03 0.  0.
<mgrwt>
<rscale>  0 0.10881687E+04</rscale>
<asrwt>0</asrwt>
<pdfrwt beam="1">  1        2 0.49054255E+00 0.11409272E+04</pdfrwt>
<pdfrwt beam="2">  1       -2 0.70172044E-01 0.11409272E+04</pdfrwt>
<totfact> 0.24545818E+00</totfact>
</mgrwt>
</event>
<event>
 4    2  0.3855935E-007  0.7407822E+03  0.7818608E-02  0.9857674E-01
         -2   -1    0    0    0  501 -0.00000000000E+00  0.00000000000E+00  0.41114286995E+03  0.41114286996E+03  0.25500000000E-02 0.  1.
          2   -1    0    0  501    0  0.00000000000E+00 -0.00000000000E+00 -0.10357527215E+04  0.10357527215E+04  0.25500000000E-02 0. -1.
    8880023    1    1    2    0    0 -0.33845785636E+03  0.19858354376E+02 -0.24888000546E+02  0.74120017108E+03  0.65864270000E+03 0.  0.
    8880022    1    1    2    0    0  0.33845785636E+03 -0.19858354376E+02 -0.59972185103E+03  0.70569542041E+03  0.15294330000E+03 0.  0.
<mgrwt>
<rscale>  0 0.62357152E+03</rscale>
<asrwt>0</asrwt>
<pdfrwt beam="1">  1        2 0.15934657E+00 0.74078221E+03</pdfrwt>
<pdfrwt beam="2">  1       -2 0.63252750E-01 0.74078221E+03</pdfrwt>
<totfact> 0.56224381E+01</totfact>
</mgrwt>
</event>
<event>
 4    2  0.3855935E-007  0.1046438E+04  0.7818608E-02  0.9323176E-01
         -2   -1    0    0    0  501 -0.00000000000E+00  0.00000000000E+00  0.50670281274E+03  0.50670281274E+03  0.25500000000E-02 0.  1.
          2   -1    0    0  501    0  0.00000000000E+00 -0.00000000000E+00 -0.19434941861E+04  0.19434941861E+04  0.25500000000E-02 0. -1.
    8880023    1    1    2    0    0 -0.41753995189E+03 -0.69776981534E+03 -0.11945001048E+04  0.15880374785E+04  0.65864270000E+03 0.  0.
    8880022    1    1    2    0    0  0.41753995189E+03  0.69776981534E+03 -0.24229126858E+03  0.86215952031E+03  0.15294330000E+03 0.  0.
<mgrwt>
<rscale>  0 0.98676981E+03</rscale>
<asrwt>0</asrwt>
<pdfrwt beam="1">  1        2 0.29899910E+00 0.10464380E+04</pdfrwt>
<pdfrwt beam="2">  1       -2 0.77954280E-01 0.10464380E+04</pdfrwt>
<totfact> 0.10486936E+01</totfact>
</mgrwt>
</event>
<event>
 4    2  0.3855935E-007  0.7744592E+03  0.7818608E-02  0.9769017E-01
          2   -1    0    0  501    0  0.00000000000E+00  0.00000000000E+00  0.28520501475E+04  0.28520501475E+04  0.25500000000E-02 0. -1.
         -2   -1    0    0    0  501 -0.00000000000E+00 -0.00000000000E+00 -0.40054724406E+03  0.40054724406E+03  0.25500000000E-02 0.  1.
    8880023    1    1    2    0    0  0.42178391635E+02  0.40521327027E+03  0.11965560863E+02  0.77455160708E+03  0.65864270000E+03 0.  0.
    8880022    1    1    2    0    0 -0.42178391635E+02 -0.40521327027E+03  0.24395373426E+04  0.24780457845E+04  0.15294330000E+03 0.  0.
<mgrwt>
<rscale>  0 0.67052096E+03</rscale>
<asrwt>0</asrwt>
<pdfrwt beam="1">  1        2 0.43877694E+00 0.77445918E+03</pdfrwt>
<pdfrwt beam="2">  1       -2 0.61622653E-01 0.77445918E+03</pdfrwt>
<totfact> 0.55561289E+00</totfact>
</mgrwt>
</event>
<event>
 4    2  0.3855935E-007  0.6602611E+03  0.7818608E-02  0.1023891E+00
          2   -1    0    0  501    0  0.00000000000E+00  0.00000000000E+00  0.10932807031E+04  0.10932807031E+04  0.25500000000E-02 0. -1.
         -2   -1    0    0    0  501 -0.00000000000E+00 -0.00000000000E+00 -0.15668506420E+03  0.15668506422E+03  0.25500000000E-02 0.  1.
    8880023    1    1    2    0    0  0.13324572463E+02  0.44237165296E+02  0.68088047761E+03  0.94844235570E+03  0.65864270000E+03 0.  0.
    8880022    1    1    2    0    0 -0.13324572463E+02 -0.44237165296E+02  0.25571516124E+03  0.30152341158E+03  0.15294330000E+03 0.  0.
<mgrwt>
<rscale>  0 0.46308411E+03</rscale>
<asrwt>0</asrwt>
<pdfrwt beam="1">  1        2 0.16819703E+00 0.66026107E+03</pdfrwt>
<pdfrwt beam="2">  1       -2 0.24105395E-01 0.66026107E+03</pdfrwt>
<totfact> 0.34108146E+02</totfact>
</mgrwt>
</event>
<event>
 4    2  0.3855935E-007  0.1330450E+04  0.7818608E-02  0.9039700E-01
          2   -1    0    0  501    0  0.00000000000E+00  0.00000000000E+00  0.10283982152E+04  0.10283982152E+04  0.25500000000E-02 0. -1.
         -2   -1    0    0    0  501 -0.00000000000E+00 -0.00000000000E+00 -0.15196028656E+04  0.15196028656E+04  0.25500000000E-02 0.  1.
    8880023    1    1    2    0    0 -0.11246390309E+04 -0.26734742378E+03 -0.33088488230E+03  0.13709787038E+04  0.65864270000E+03 0. -1.
    8880022    1    1    2    0    0  0.11246390309E+04  0.26734742378E+03 -0.16031976811E+03  0.11770223769E+04  0.15294330000E+03 0.  1.
<mgrwt>
<rscale>  0 0.12872963E+04</rscale>
<asrwt>0</asrwt>
<pdfrwt beam="1">  1        2 0.15821511E+00 0.13304502E+04</pdfrwt>
<pdfrwt beam="2">  1       -2 0.23378506E+00 0.13304502E+04</pdfrwt>
<totfact> 0.18796951E+00</totfact>
</mgrwt>
</event>
<event>
 4    2  0.3855935E-007  0.7451047E+03  0.7818608E-02  0.9845319E-01
         -2   -1    0    0    0  501 -0.00000000000E+00  0.00000000000E+00  0.74397180097E+03  0.74397180098E+03  0.25500000000E-02 0.  1.
          2   -1    0    0  501    0  0.00000000000E+00 -0.00000000000E+00 -0.12395384774E+04  0.12395384774E+04  0.25500000000E-02 0. -1.
    8880023    1    1    2    0    0  0.32703048529E+02  0.34684470475E+03  0.51362315298E+03  0.90498049047E+03  0.65864270000E+03 0.  1.
    8880022    1    1    2    0    0 -0.32703048529E+02 -0.34684470475E+03 -0.10091898294E+04  0.10785297879E+04  0.15294330000E+03 0.  0.
<mgrwt>
<rscale>  0 0.62986130E+03</rscale>
<asrwt>0</asrwt>
<pdfrwt beam="1">  1        2 0.19069823E+00 0.74510465E+03</pdfrwt>
<pdfrwt beam="2">  1       -2 0.11445720E+00 0.74510465E+03</pdfrwt>
<totfact> 0.10925940E+01</totfact>
</mgrwt>
</event>
<event>
 4    2  0.3855935E-007  0.6846971E+03  0.7818608E-02  0.1006782E+00
         -2   -1    0    0    0  501 -0.00000000000E+00  0.00000000000E+00  0.19997877306E+03  0.19997877308E+03  0.25500000000E-02 0.  1.
          2   -1    0    0  501    0  0.00000000000E+00 -0.00000000000E+00 -0.19467753555E+04  0.19467753555E+04  0.25500000000E-02 0. -1.
    8880023    1    1    2    0    0  0.16872386257E+03  0.80821845648E+02 -0.43122813621E+03  0.80917725145E+03  0.65864270000E+03 0.  1.
    8880022    1    1    2    0    0 -0.16872386257E+03 -0.80821845648E+02 -0.13155684462E+04  0.13375768771E+04  0.15294330000E+03 0.  0.
<mgrwt>
<rscale>  0 0.52773711E+03</rscale>
<asrwt>0</asrwt>
<pdfrwt beam="1">  1        2 0.29950389E+00 0.68469710E+03</pdfrwt>
<pdfrwt beam="2">  1       -2 0.30765966E-01 0.68469710E+03</pdfrwt>
<totfact> 0.72374901E+01</totfact>
</mgrwt>
</event>
<event>
 4    2  0.3855935E-007  0.6867432E+03  0.7818608E-02  0.1005741E+00
          2   -1    0    0  501    0  0.00000000000E+00  0.00000000000E+00  0.11676957247E+04  0.11676957247E+04  0.25500000000E-02 0. -1.
         -2   -1    0    0    0  501 -0.00000000000E+00 -0.00000000000E+00 -0.18855770811E+03  0.18855770813E+03  0.25500000000E-02 0.  1.
    8880023    1    1    2    0    0 -0.35421589787E+02  0.19118393736E+03  0.66016414740E+03  0.95259272237E+03  0.65864270000E+03 0.  0.
    8880022    1    1    2    0    0  0.35421589787E+02 -0.19118393736E+03  0.31897386914E+03  0.40366071042E+03  0.15294330000E+03 0.  1.
<mgrwt>
<rscale>  0 0.53203181E+03</rscale>
<asrwt>0</asrwt>
<pdfrwt beam="1">  1        2 0.17964550E+00 0.68674318E+03</pdfrwt>
<pdfrwt beam="2">  1       -2 0.29008878E-01 0.68674318E+03</pdfrwt>
<totfact> 0.21936594E+02</totfact>
</mgrwt>
</event>
<event>
 4    2  0.3855935E-007  0.8677270E+03  0.7818608E-02  0.9579964E-01
         -2   -1    0    0    0  501 -0.00000000000E+00  0.00000000000E+00  0.19965358696E+03  0.19965358698E+03  0.25500000000E-02 0.  1.
          2   -1    0    0  501    0  0.00000000000E+00 -0.00000000000E+00 -0.26741314578E+04  0.26741314578E+04  0.25500000000E-02 0. -1.
    8880023    1    1    2    0    0 -0.53816225205E+03 -0.17181763511E+03 -0.13242479481E+04  0.15832191079E+04  0.65864270000E+03 0.  1.
    8880022    1    1    2    0    0  0.53816225205E+03  0.17181763511E+03 -0.11502299227E+04  0.12905659369E+04  0.15294330000E+03 0.  0.
<mgrwt>
<rscale>  0 0.78636631E+03</rscale>
<asrwt>0</asrwt>
<pdfrwt beam="1">  1        2 0.41140482E+00 0.86772698E+03</pdfrwt>
<pdfrwt beam="2">  1       -2 0.30715938E-01 0.86772698E+03</pdfrwt>
<totfact> 0.27829531E+01</totfact>
</mgrwt>
</event>
<event>
 4    2  0.3855935E-007  0.6605555E+03  0.7818608E-02  0.1023594E+00
          2   -1    0    0  501    0  0.00000000000E+00  0.00000000000E+00  0.24758720418E+04  0.24758720418E+04  0.25500000000E-02 0. -1.
         -2   -1    0    0    0  501 -0.00000000000E+00 -0.00000000000E+00 -0.13916658508E+03  0.13916658510E+03  0.25500000000E-02 0.  1.
    8880023    1    1    2    0    0 -0.49928364440E+02 -0.55302433158E+01  0.67103070474E+03  0.94160280275E+03  0.65864270000E+03 0.  1.
    8880022    1    1    2    0    0  0.49928364440E+02  0.55302433158E+01  0.16656747520E+04  0.16734358241E+04  0.15294330000E+03 0.  0.
<mgrwt>
<rscale>  0 0.46411550E+03</rscale>
<asrwt>0</asrwt>
<pdfrwt beam="1">  1        2 0.38090338E+00 0.66055555E+03</pdfrwt>
<pdfrwt beam="2">  1       -2 0.21410244E-01 0.66055555E+03</pdfrwt>
<totfact> 0.71507563E+01</totfact>
</mgrwt>
</event>
<event>
 4    2  0.3855935E-007  0.6600017E+03  0.7818608E-02  0.1024155E+00
         -2   -1    0    0    0  501 -0.00000000000E+00  0.00000000000E+00  0.13856668388E+03  0.13856668390E+03  0.25500000000E-02 0.  1.
          2   -1    0    0  501    0  0.00000000000E+00 -0.00000000000E+00 -0.12434195365E+04  0.12434195365E+04  0.25500000000E-02 0. -1.
    8880023    1    1    2    0    0 -0.84938058164E+01 -0.41471829897E+02 -0.97267068475E+03  0.11754533273E+04  0.65864270000E+03 0. -1.
    8880022    1    1    2    0    0  0.84938058164E+01  0.41471829897E+02 -0.13218216784E+03  0.20653289308E+03  0.15294330000E+03 0.  0.
<mgrwt>
<rscale>  0 0.46216682E+03</rscale>
<asrwt>0</asrwt>
<pdfrwt beam="1">  1        2 0.19129531E+00 0.66000171E+03</pdfrwt>
<pdfrwt beam="2">  1       -2 0.21317952E-01 0.66000171E+03</pdfrwt>
<totfact> 0.34532680E+02</totfact>
</mgrwt>
</event>
<event>
 4    2  0.3855935E-007  0.6710583E+03  0.7818608E-02  0.1014915E+00
         -2   -1    0    0    0  501 -0.00000000000E+00  0.00000000000E+00  0.30377775048E+03  0.30377775049E+03  0.25500000000E-02 0.  1.
          2   -1    0    0  501    0  0.00000000000E+00 -0.00000000000E+00 -0.17749243278E+04  0.17749243278E+04  0.25500000000E-02 0. -1.
    8880023    1    1    2    0    0 -0.12791776437E+03  0.12086361832E+02 -0.82901448887E+02  0.67615966389E+03  0.65864270000E+03 0.  1.
    8880022    1    1    2    0    0  0.12791776437E+03 -0.12086361832E+02 -0.13882451285E+04  0.14025424144E+04  0.15294330000E+03 0.  0.
<mgrwt>
<rscale>  0 0.49567012E+03</rscale>
<asrwt>0</asrwt>
<pdfrwt beam="1">  1        2 0.27306528E+00 0.67105830E+03</pdfrwt>
<pdfrwt beam="2">  1       -2 0.46735040E-01 0.67105830E+03</pdfrwt>
<totfact> 0.40111992E+01</totfact>
</mgrwt>
</event>
<event>
 4    2  0.3855935E-007  0.1159652E+04  0.7818608E-02  0.9197377E-01
         -2   -1    0    0    0  501 -0.00000000000E+00  0.00000000000E+00  0.57773680792E+03  0.57773680792E+03  0.25500000000E-02 0.  1.
          2   -1    0    0  501    0  0.00000000000E+00 -0.00000000000E+00 -0.41282296333E+04  0.41282296333E+04  0.25500000000E-02 0. -1.
    8880023    1    1    2    0    0  0.90587502508E+03  0.30062210241E+03 -0.14827307226E+03  0.11690929474E+04  0.65864270000E+03 0.  1.
    8880022    1    1    2    0    0 -0.90587502508E+03 -0.30062210241E+03 -0.34022197532E+04  0.35368734938E+04  0.15294330000E+03 0.  0.
<mgrwt>
<rscale>  0 0.11080541E+04</rscale>
<asrwt>0</asrwt>
<pdfrwt beam="1">  1        2 0.63511223E+00 0.11596523E+04</pdfrwt>
<pdfrwt beam="2">  1       -2 0.88882589E-01 0.11596523E+04</pdfrwt>
<totfact> 0.29903732E-01</totfact>
</mgrwt>
</event>
<event>
 4    2  0.3855935E-007  0.8420252E+03  0.7818608E-02  0.9626373E-01
         -2   -1    0    0    0  501 -0.00000000000E+00  0.00000000000E+00  0.35470440446E+03  0.35470440446E+03  0.25500000000E-02 0.  1.
          2   -1    0    0  501    0  0.00000000000E+00 -0.00000000000E+00 -0.31014403752E+04  0.31014403752E+04  0.25500000000E-02 0. -1.
    8880023    1    1    2    0    0  0.21341589665E+03  0.47921803758E+03 -0.21902472965E+03  0.87004500513E+03  0.65864270000E+03 0.  1.
    8880022    1    1    2    0    0 -0.21341589665E+03 -0.47921803758E+03 -0.25277112411E+04  0.25860997745E+04  0.15294330000E+03 0. -1.
<mgrwt>
<rscale>  0 0.75574948E+03</rscale>
<asrwt>0</asrwt>
<pdfrwt beam="1">  1        2 0.47714465E+00 0.84202522E+03</pdfrwt>
<pdfrwt beam="2">  1       -2 0.54569911E-01 0.84202522E+03</pdfrwt>
<totfact> 0.49897623E+00</totfact>
</mgrwt>
</event>
<event>
 4    2  0.3855935E-007  0.7579952E+03  0.7818608E-02  0.9810326E-01
         -2   -1    0    0    0  501 -0.00000000000E+00  0.00000000000E+00  0.18102359162E+03  0.18102359164E+03  0.25500000000E-02 0.  1.
          2   -1    0    0  501    0  0.00000000000E+00 -0.00000000000E+00 -0.22078426606E+04  0.22078426606E+04  0.25500000000E-02 0. -1.
    8880023    1    1    2    0    0  0.19579395614E+03 -0.32001753794E+03 -0.82382774267E+03  0.11194859775E+04  0.65864270000E+03 0.  0.
    8880022    1    1    2    0    0 -0.19579395614E+03  0.32001753794E+03 -0.12029913263E+04  0.12693802748E+04  0.15294330000E+03 0.  0.
<mgrwt>
<rscale>  0 0.64811344E+03</rscale>
<asrwt>0</asrwt>
<pdfrwt beam="1">  1        2 0.33966808E+00 0.75799519E+03</pdfrwt>
<pdfrwt beam="2">  1       -2 0.27849785E-01 0.75799519E+03</pdfrwt>
<totfact> 0.62067583E+01</totfact>
</mgrwt>
</event>
<event>
 4    2  0.3855935E-007  0.7068494E+03  0.7818608E-02  0.9969892E-01
         -2   -1    0    0    0  501 -0.00000000000E+00  0.00000000000E+00  0.31093964645E+03  0.31093964646E+03  0.25500000000E-02 0.  1.
          2   -1    0    0  501    0  0.00000000000E+00 -0.00000000000E+00 -0.81599092601E+03  0.81599092601E+03  0.25500000000E-02 0. -1.
    8880023    1    1    2    0    0 -0.19847359669E+02 -0.25579673916E+03 -0.38608483619E+03  0.80541765342E+03  0.65864270000E+03 0. -1.
    8880022    1    1    2    0    0  0.19847359669E+02  0.25579673916E+03 -0.11896644338E+03  0.32151291905E+03  0.15294330000E+03 0.  1.
<mgrwt>
<rscale>  0 0.56990368E+03</rscale>
<asrwt>0</asrwt>
<pdfrwt beam="1">  1        2 0.12553706E+00 0.70684942E+03</pdfrwt>
<pdfrwt beam="2">  1       -2 0.47836869E-01 0.70684942E+03</pdfrwt>
<totfact> 0.14082700E+02</totfact>
</mgrwt>
</event>
<event>
 4    2  0.3855935E-007  0.1231234E+04  0.7818608E-02  0.9127343E-01
          2   -1    0    0  501    0  0.00000000000E+00  0.00000000000E+00  0.32596729005E+04  0.32596729005E+04  0.25500000000E-02 0. -1.
         -2   -1    0    0    0  501 -0.00000000000E+00 -0.00000000000E+00 -0.73714592372E+03  0.73714592372E+03  0.25500000000E-02 0.  1.
    8880023    1    1    2    0    0 -0.10211738653E+04 -0.19831902808E+03 -0.34857215002E+02  0.12317271336E+04  0.65864270000E+03 0.  0.
    8880022    1    1    2    0    0  0.10211738653E+04  0.19831902808E+03  0.25573841918E+04  0.27650916906E+04  0.15294330000E+03 0.  0.
<mgrwt>
<rscale>  0 0.11835896E+04</rscale>
<asrwt>0</asrwt>
<pdfrwt beam="1">  1        2 0.50148815E+00 0.12312338E+04</pdfrwt>
<pdfrwt beam="2">  1       -2 0.11340706E+00 0.12312338E+04</pdfrwt>
<totfact> 0.71492825E-01</totfact>
</mgrwt>
</event>
<event>
 4    2  0.3904950E-007  0.1127670E+04  0.7818608E-02  0.9230857E-01
         -2   -1    0    0    0  501 -0.00000000000E+00  0.00000000000E+00  0.12229428769E+04  0.12229428769E+04  0.25500000000E-02 0.  1.
          2   -1    0    0  501    0  0.00000000000E+00 -0.00000000000E+00 -0.30954046386E+04  0.30954046386E+04  0.25500000000E-02 0. -1.
    8880023    1    1    2    0    0  0.73096176387E+03  0.55092986511E+03  0.86926599600E+03  0.14238196496E+04  0.65864270000E+03 0.  1.
    8880022    1    1    2    0    0 -0.73096176387E+03 -0.55092986511E+03 -0.27417277577E+04  0.28945278660E+04  0.15294330000E+03 0.  0.
<mgrwt>
<rscale>  0 0.10740531E+04</rscale>
<asrwt>0</asrwt>
<pdfrwt beam="1">  1        2 0.47621610E+00 0.11276697E+04</pdfrwt>
<pdfrwt beam="2">  1       -2 0.18814506E+00 0.11276697E+04</pdfrwt>
<totfact> 0.24081790E-01</totfact>
</mgrwt>
</event>
<event>
 4    2  0.3855935E-007  0.6941664E+03  0.7818608E-02  0.1002232E+00
          2   -1    0    0  501    0  0.00000000000E+00  0.00000000000E+00  0.20679925140E+03  0.20679925141E+03  0.25500000000E-02 0. -1.
         -2   -1    0    0    0  501 -0.00000000000E+00 -0.00000000000E+00 -0.14586972662E+04  0.14586972663E+04  0.25500000000E-02 0.  1.
    8880023    1    1    2    0    0  0.18216581010E+03 -0.12195272820E+03 -0.12099368448E+04  0.13949244513E+04  0.65864270000E+03 0.  1.
    8880022    1    1    2    0    0 -0.18216581010E+03  0.12195272820E+03 -0.41961170087E+02  0.27057206636E+03  0.15294330000E+03 0.  0.
<mgrwt>
<rscale>  0 0.54682310E+03</rscale>
<asrwt>0</asrwt>
<pdfrwt beam="1">  1        2 0.31815270E-01 0.69416645E+03</pdfrwt>
<pdfrwt beam="2">  1       -2 0.22441496E+00 0.69416645E+03</pdfrwt>
<totfact> 0.15838161E+01</totfact>
</mgrwt>
</event>
<event>
 4    2  0.3855935E-007  0.7776614E+03  0.7818608E-02  0.9761359E-01
          2   -1    0    0  501    0  0.00000000000E+00  0.00000000000E+00  0.35497897283E+03  0.35497897284E+03  0.25500000000E-02 0. -1.
         -2   -1    0    0    0  501 -0.00000000000E+00 -0.00000000000E+00 -0.12962745487E+04  0.12962745487E+04  0.25500000000E-02 0.  1.
    8880023    1    1    2    0    0 -0.27373791928E+03 -0.30986218772E+03 -0.92725730996E+03  0.12101914514E+04  0.65864270000E+03 0.  1.
    8880022    1    1    2    0    0  0.27373791928E+03  0.30986218772E+03 -0.14038265926E+02  0.44106207019E+03  0.15294330000E+03 0.  0.
<mgrwt>
<rscale>  0 0.67478094E+03</rscale>
<asrwt>0</asrwt>
<pdfrwt beam="1">  1        2 0.54612150E-01 0.77766139E+03</pdfrwt>
<pdfrwt beam="2">  1       -2 0.19942685E+00 0.77766139E+03</pdfrwt>
<totfact> 0.12390503E+01</totfact>
</mgrwt>
</event>
<event>
 4    2  0.3855935E-007  0.7151155E+03  0.7818608E-02  0.9939474E-01
          2   -1    0    0  501    0  0.00000000000E+00  0.00000000000E+00  0.90115222471E+03  0.90115222472E+03  0.25500000000E-02 0. -1.
         -2   -1    0    0    0  501 -0.00000000000E+00 -0.00000000000E+00 -0.33030705834E+03  0.33030705835E+03  0.25500000000E-02 0.  1.
    8880023    1    1    2    0    0 -0.28918137165E+02 -0.27702663280E+03  0.19889987270E+03  0.74226099154E+03  0.65864270000E+03 0.  0.
    8880022    1    1    2    0    0  0.28918137165E+02  0.27702663280E+03  0.37194529367E+03  0.48919829153E+03  0.15294330000E+03 0.  0.
<mgrwt>
<rscale>  0 0.58385781E+03</rscale>
<asrwt>0</asrwt>
<pdfrwt beam="1">  1        2 0.13863881E+00 0.71511553E+03</pdfrwt>
<pdfrwt beam="2">  1       -2 0.50816470E-01 0.71511553E+03</pdfrwt>
<totfact> 0.10876382E+02</totfact>
</mgrwt>
</event>
<event>
 4    2  0.3855935E-007  0.1369420E+04  0.7818608E-02  0.9007816E-01
         -2   -1    0    0    0  501 -0.00000000000E+00  0.00000000000E+00  0.90844870249E+03  0.90844870249E+03  0.25500000000E-02 0.  1.
          2   -1    0    0  501    0  0.00000000000E+00 -0.00000000000E+00 -0.20045351903E+04  0.20045351903E+04  0.25500000000E-02 0. -1.
    8880023    1    1    2    0    0  0.89111932184E+02 -0.11973138215E+04 -0.15167410861E+03  0.13777940939E+04  0.65864270000E+03 0.  0.
    8880022    1    1    2    0    0 -0.89111932184E+02  0.11973138215E+04 -0.94441237923E+03  0.15351897989E+04  0.15294330000E+03 0.  0.
<mgrwt>
<rscale>  0 0.13277866E+04</rscale>
<asrwt>0</asrwt>
<pdfrwt beam="1">  1        2 0.30839003E+00 0.13694201E+04</pdfrwt>
<pdfrwt beam="2">  1       -2 0.13976134E+00 0.13694201E+04</pdfrwt>
<totfact> 0.22944373E+00</totfact>
</mgrwt>
</event>
<event>
 4    2  0.3855935E-007  0.7178023E+03  0.7818608E-02  0.9930094E-01
         -2   -1    0    0    0  501 -0.00000000000E+00  0.00000000000E+00  0.29812963523E+03  0.29812963524E+03  0.25500000000E-02 0.  1.
          2   -1    0    0  501    0  0.00000000000E+00 -0.00000000000E+00 -0.25337544637E+04  0.25337544637E+04  0.25500000000E-02 0. -1.
    8880023    1    1    2    0    0 -0.19204957038E+03 -0.21106125059E+03 -0.16555231951E+03  0.73664622835E+03  0.65864270000E+03 0.  0.
    8880022    1    1    2    0    0  0.19204957038E+03  0.21106125059E+03 -0.20700725090E+04  0.20952378706E+04  0.15294330000E+03 0.  0.
<mgrwt>
<rscale>  0 0.58824729E+03</rscale>
<asrwt>0</asrwt>
<pdfrwt beam="1">  1        2 0.38980837E+00 0.71780227E+03</pdfrwt>
<pdfrwt beam="2">  1       -2 0.45866099E-01 0.71780227E+03</pdfrwt>
<totfact> 0.15795866E+01</totfact>
</mgrwt>
</event>
<event>
 4    2  0.3855935E-007  0.7004709E+03  0.7818608E-02  0.9995253E-01
         -2   -1    0    0    0  501 -0.00000000000E+00  0.00000000000E+00  0.22833411347E+03  0.22833411348E+03  0.25500000000E-02 0.  1.
          2   -1    0    0  501    0  0.00000000000E+00 -0.00000000000E+00 -0.16918425015E+04  0.16918425015E+04  0.25500000000E-02 0. -1.
    8880023    1    1    2    0    0 -0.15083966674E+03 -0.18465293713E+03 -0.37322912539E+03  0.79369987940E+03  0.65864270000E+03 0.  0.
    8880022    1    1    2    0    0  0.15083966674E+03  0.18465293713E+03 -0.10902792626E+04  0.11264767356E+04  0.15294330000E+03 0.  0.
<mgrwt>
<rscale>  0 0.55858865E+03</rscale>
<asrwt>0</asrwt>
<pdfrwt beam="1">  1        2 0.26028345E+00 0.70047093E+03</pdfrwt>
<pdfrwt beam="2">  1       -2 0.35128326E-01 0.70047093E+03</pdfrwt>
<totfact> 0.77469926E+01</totfact>
</mgrwt>
</event>
<event>
 4    2  0.3855935E-007  0.7609907E+03  0.7818608E-02  0.9802549E-01
          2   -1    0    0  501    0  0.00000000000E+00  0.00000000000E+00  0.11541148825E+04  0.11541148825E+04  0.25500000000E-02 0. -1.
         -2   -1    0    0    0  501 -0.00000000000E+00 -0.00000000000E+00 -0.59509814855E+03  0.59509814856E+03  0.25500000000E-02 0.  1.
    8880023    1    1    2    0    0 -0.31639556107E+03 -0.21258047830E+03 -0.28336733085E+03  0.81203685955E+03  0.65864270000E+03 0.  1.
    8880022    1    1    2    0    0  0.31639556107E+03  0.21258047830E+03  0.84238406479E+03  0.93717617150E+03  0.15294330000E+03 0.  0.
<mgrwt>
<rscale>  0 0.65225905E+03</rscale>
<asrwt>0</asrwt>
<pdfrwt beam="1">  1        2 0.17755613E+00 0.76099068E+03</pdfrwt>
<pdfrwt beam="2">  1       -2 0.91553562E-01 0.76099068E+03</pdfrwt>
<totfact> 0.20857274E+01</totfact>
</mgrwt>
</event>
<event>
 4    2  0.3855935E-007  0.8945206E+03  0.7818608E-02  0.9534886E-01
          2   -1    0    0  501    0  0.00000000000E+00  0.00000000000E+00  0.28270297085E+04  0.28270297085E+04  0.25500000000E-02 0. -1.
         -2   -1    0    0    0  501 -0.00000000000E+00 -0.00000000000E+00 -0.26000577416E+03  0.26000577418E+03  0.25500000000E-02 0.  1.
    8880023    1    1    2    0    0  0.60159564352E+03 -0.66630502990E+02  0.75523506403E+03  0.11707036988E+04  0.65864270000E+03 0.  1.
    8880022    1    1    2    0    0 -0.60159564352E+03  0.66630502990E+02  0.18117888704E+04  0.19163317839E+04  0.15294330000E+03 0.  0.
<mgrwt>
<rscale>  0 0.81759992E+03</rscale>
<asrwt>0</asrwt>
<pdfrwt beam="1">  1        2 0.43492764E+00 0.89452062E+03</pdfrwt>
<pdfrwt beam="2">  1       -2 0.40000889E-01 0.89452062E+03</pdfrwt>
<totfact> 0.13605540E+01</totfact>
</mgrwt>
</event>
<event>
 4    2  0.3855935E-007  0.6709733E+03  0.7818608E-02  0.1014975E+00
         -2   -1    0    0    0  501 -0.00000000000E+00  0.00000000000E+00  0.53145850219E+03  0.53145850220E+03  0.25500000000E-02 0.  1.
          2   -1    0    0  501    0  0.00000000000E+00 -0.00000000000E+00 -0.65314678967E+03  0.65314678967E+03  0.25500000000E-02 0. -1.
    8880023    1    1    2    0    0 -0.98677700959E+02  0.81594179568E+02  0.28704793651E+03  0.72979560352E+03  0.65864270000E+03 0.  1.
    8880022    1    1    2    0    0  0.98677700959E+02 -0.81594179568E+02 -0.40873622398E+03  0.45480968835E+03  0.15294330000E+03 0.  0.
<mgrwt>
<rscale>  0 0.49544556E+03</rscale>
<asrwt>0</asrwt>
<pdfrwt beam="1">  1        2 0.10048412E+00 0.67097325E+03</pdfrwt>
<pdfrwt beam="2">  1       -2 0.81762846E-01 0.67097325E+03</pdfrwt>
<totfact> 0.59893850E+01</totfact>
</mgrwt>
</event>
<event>
 4    2  0.3855935E-007  0.6898443E+03  0.7818608E-02  0.1004227E+00
          2   -1    0    0  501    0  0.00000000000E+00  0.00000000000E+00  0.83525613400E+03  0.83525613400E+03  0.25500000000E-02 0. -1.
         -2   -1    0    0    0  501 -0.00000000000E+00 -0.00000000000E+00 -0.57767715870E+03  0.57767715870E+03  0.25500000000E-02 0.  1.
    8880023    1    1    2    0    0  0.60508158538E+02  0.19599421441E+03 -0.33543649851E+03  0.76707419467E+03  0.65864270000E+03 0.  1.
    8880022    1    1    2    0    0 -0.60508158538E+02 -0.19599421441E+03  0.59301547380E+03  0.64585909804E+03  0.15294330000E+03 0.  0.
<mgrwt>
<rscale>  0 0.53835135E+03</rscale>
<asrwt>0</asrwt>
<pdfrwt beam="1">  1        2 0.12850094E+00 0.68984431E+03</pdfrwt>
<pdfrwt beam="2">  1       -2 0.88873409E-01 0.68984431E+03</pdfrwt>
<totfact> 0.36065708E+01</totfact>
</mgrwt>
</event>
<event>
 4    2  0.3855935E-007  0.7820849E+03  0.7818608E-02  0.9750962E-01
          2   -1    0    0  501    0  0.00000000000E+00  0.00000000000E+00  0.67556331742E+03  0.67556331743E+03  0.25500000000E-02 0. -1.
         -2   -1    0    0    0  501 -0.00000000000E+00 -0.00000000000E+00 -0.84665272555E+03  0.84665272555E+03  0.25500000000E-02 0.  1.
    8880023    1    1    2    0    0  0.10998510633E+03 -0.40712394172E+03 -0.53249133280E+03  0.94615213011E+03  0.65864270000E+03 0.  1.
    8880022    1    1    2    0    0 -0.10998510633E+03  0.40712394172E+03  0.36140192468E+03  0.57606391287E+03  0.15294330000E+03 0.  0.
<mgrwt>
<rscale>  0 0.68061930E+03</rscale>
<asrwt>0</asrwt>
<pdfrwt beam="1">  1        2 0.10393282E+00 0.78208493E+03</pdfrwt>
<pdfrwt beam="2">  1       -2 0.13025427E+00 0.78208493E+03</pdfrwt>
<totfact> 0.18720861E+01</totfact>
</mgrwt>
</event>
<event>
 4    2  0.3855935E-007  0.9389229E+03  0.7818608E-02  0.9466234E-01
          2   -1    0    0  501    0  0.00000000000E+00  0.00000000000E+00  0.16515552090E+04  0.16515552090E+04  0.25500000000E-02 0. -1.
         -2   -1    0    0    0  501 -0.00000000000E+00 -0.00000000000E+00 -0.54981438909E+03  0.54981438909E+03  0.25500000000E-02 0.  1.
    8880023    1    1    2    0    0 -0.64958922593E+03 -0.16062347050E+03  0.43400817631E+02  0.93992547521E+03  0.65864270000E+03 0.  1.
    8880022    1    1    2    0    0  0.64958922593E+03  0.16062347050E+03  0.10583400023E+04  0.12614441229E+04  0.15294330000E+03 0.  0.
<mgrwt>
<rscale>  0 0.86819693E+03</rscale>
<asrwt>0</asrwt>
<pdfrwt beam="1">  1        2 0.25408542E+00 0.93892293E+03</pdfrwt>
<pdfrwt beam="2">  1       -2 0.84586829E-01 0.93892293E+03</pdfrwt>
<totfact> 0.12769082E+01</totfact>
</mgrwt>
</event>
<event>
 4    2  0.3855935E-007  0.6746938E+03  0.7818608E-02  0.1012500E+00
          2   -1    0    0  501    0  0.00000000000E+00  0.00000000000E+00  0.64029652908E+03  0.64029652908E+03  0.25500000000E-02 0. -1.
         -2   -1    0    0    0  501 -0.00000000000E+00 -0.00000000000E+00 -0.49534477706E+03  0.49534477706E+03  0.25500000000E-02 0.  1.
    8880023    1    1    2    0    0  0.14337410580E+03 -0.29075437575E+02 -0.22348377779E+03  0.71074377977E+03  0.65864270000E+03 0.  1.
    8880022    1    1    2    0    0 -0.14337410580E+03  0.29075437575E+02  0.36843552981E+03  0.42489752638E+03  0.15294330000E+03 0.  0.
<mgrwt>
<rscale>  0 0.50493039E+03</rscale>
<asrwt>0</asrwt>
<pdfrwt beam="1">  1        2 0.98507158E-01 0.67469380E+03</pdfrwt>
<pdfrwt beam="2">  1       -2 0.76206889E-01 0.67469380E+03</pdfrwt>
<totfact> 0.71824254E+01</totfact>
</mgrwt>
</event>
<event>
 4    2  0.3855935E-007  0.7267141E+03  0.7818608E-02  0.9900490E-01
         -2   -1    0    0    0  501 -0.00000000000E+00  0.00000000000E+00  0.11037950934E+03  0.11037950937E+03  0.25500000000E-02 0.  1.
          2   -1    0    0  501    0  0.00000000000E+00 -0.00000000000E+00 -0.28436817925E+04  0.28436817925E+04  0.25500000000E-02 0. -1.
    8880023    1    1    2    0    0  0.14138414575E+03  0.27260539603E+03 -0.14005657084E+04  0.15778775898E+04  0.65864270000E+03 0.  1.
    8880022    1    1    2    0    0 -0.14138414575E+03 -0.27260539603E+03 -0.13327365748E+04  0.13761837121E+04  0.15294330000E+03 0. -1.
<mgrwt>
<rscale>  0 0.60237559E+03</rscale>
<asrwt>0</asrwt>
<pdfrwt beam="1">  1        2 0.43748945E+00 0.72671410E+03</pdfrwt>
<pdfrwt beam="2">  1       -2 0.16981465E-01 0.72671410E+03</pdfrwt>
<totfact> 0.64949485E+01</totfact>
</mgrwt>
</event>
<event>
 4    2  0.3855935E-007  0.8774480E+03  0.7818608E-02  0.9563250E-01
          2   -1    0    0  501    0  0.00000000000E+00  0.00000000000E+00  0.20276806780E+04  0.20276806780E+04  0.25500000000E-02 0. -1.
         -2   -1    0    0    0  501 -0.00000000000E+00 -0.00000000000E+00 -0.51894542336E+03  0.51894542337E+03  0.25500000000E-02 0.  1.
    8880023    1    1    2    0    0  0.83762399860E+02  0.57366242448E+03 -0.47652990260E+02  0.87874099178E+03  0.65864270000E+03 0.  1.
    8880022    1    1    2    0    0 -0.83762399860E+02 -0.57366242448E+03  0.15563882449E+04  0.16678851096E+04  0.15294330000E+03 0.  0.
<mgrwt>
<rscale>  0 0.79777026E+03</rscale>
<asrwt>0</asrwt>
<pdfrwt beam="1">  1        2 0.31195088E+00 0.87744796E+03</pdfrwt>
<pdfrwt beam="2">  1       -2 0.79837756E-01 0.87744796E+03</pdfrwt>
<totfact> 0.91116838E+00</totfact>
</mgrwt>
</event>
<event>
 4    2  0.3855935E-007  0.6930651E+03  0.7818608E-02  0.1002728E+00
         -2   -1    0    0    0  501 -0.00000000000E+00  0.00000000000E+00  0.29566619855E+03  0.29566619856E+03  0.25500000000E-02 0.  1.
          2   -1    0    0  501    0  0.00000000000E+00 -0.00000000000E+00 -0.12947009267E+04  0.12947009267E+04  0.25500000000E-02 0. -1.
    8880023    1    1    2    0    0  0.13882893736E+03 -0.16509256642E+03 -0.16088270854E+03  0.71149313525E+03  0.65864270000E+03 0.  0.
    8880022    1    1    2    0    0 -0.13882893736E+03  0.16509256642E+03 -0.83815201959E+03  0.87887399000E+03  0.15294330000E+03 0.  0.
<mgrwt>
<rscale>  0 0.54469856E+03</rscale>
<asrwt>0</asrwt>
<pdfrwt beam="1">  1        2 0.19918476E+00 0.69306510E+03</pdfrwt>
<pdfrwt beam="2">  1       -2 0.45487108E-01 0.69306510E+03</pdfrwt>
<totfact> 0.78034306E+01</totfact>
</mgrwt>
</event>
<event>
 4    2  0.3855935E-007  0.7852612E+03  0.7818608E-02  0.9743620E-01
          2   -1    0    0  501    0  0.00000000000E+00  0.00000000000E+00  0.44802823328E+04  0.44802823328E+04  0.25500000000E-02 0. -1.
         -2   -1    0    0    0  501 -0.00000000000E+00 -0.00000000000E+00 -0.17716342928E+03  0.17716342929E+03  0.25500000000E-02 0.  1.
    8880023    1    1    2    0    0  0.14956886409E+03 -0.40056720334E+03  0.78571046755E+03  0.11108447572E+04  0.65864270000E+03 0.  1.
    8880022    1    1    2    0    0 -0.14956886409E+03  0.40056720334E+03  0.35174084360E+04  0.35466010049E+04  0.15294330000E+03 0.  0.
<mgrwt>
<rscale>  0 0.68477997E+03</rscale>
<asrwt>0</asrwt>
<pdfrwt beam="1">  1        2 0.68927416E+00 0.78526119E+03</pdfrwt>
<pdfrwt beam="2">  1       -2 0.27255914E-01 0.78526119E+03</pdfrwt>
<totfact> 0.17710436E+00</totfact>
</mgrwt>
</event>
<event>
 4    2  0.3855935E-007  0.6837323E+03  0.7818608E-02  0.1007287E+00
          2   -1    0    0  501    0  0.00000000000E+00  0.00000000000E+00  0.12213215952E+04  0.12213215952E+04  0.25500000000E-02 0. -1.
         -2   -1    0    0    0  501 -0.00000000000E+00 -0.00000000000E+00 -0.27316187331E+03  0.27316187332E+03  0.25500000000E-02 0.  1.
    8880023    1    1    2    0    0  0.18334463481E+03  0.80241133424E+01  0.20489963335E+03  0.71377426930E+03  0.65864270000E+03 0.  1.
    8880022    1    1    2    0    0 -0.18334463481E+03 -0.80241133424E+01  0.74326008858E+03  0.78070919925E+03  0.15294330000E+03 0.  0.
<mgrwt>
<rscale>  0 0.52567435E+03</rscale>
<asrwt>0</asrwt>
<pdfrwt beam="1">  1        2 0.18789563E+00 0.68373229E+03</pdfrwt>
<pdfrwt beam="2">  1       -2 0.42024903E-01 0.68373229E+03</pdfrwt>
<totfact> 0.10078184E+02</totfact>
</mgrwt>
</event>
<event>
 4    2  0.3855935E-007  0.7434521E+03  0.7818608E-02  0.9850003E-01
          2   -1    0    0  501    0  0.00000000000E+00  0.00000000000E+00  0.29216588643E+03  0.29216588644E+03  0.25500000000E-02 0. -1.
         -2   -1    0    0    0  501 -0.00000000000E+00 -0.00000000000E+00 -0.15487879512E+04  0.15487879512E+04  0.25500000000E-02 0.  1.
    8880023    1    1    2    0    0  0.29706430489E+03 -0.17511034805E+03 -0.12608321063E+04  0.14637003251E+04  0.65864270000E+03 0.  1.
    8880022    1    1    2    0    0 -0.29706430489E+03  0.17511034805E+03  0.42100415421E+01  0.37725351250E+03  0.15294330000E+03 0.  0.
<mgrwt>
<rscale>  0 0.62746761E+03</rscale>
<asrwt>0</asrwt>
<pdfrwt beam="1">  1        2 0.44948599E-01 0.74345211E+03</pdfrwt>
<pdfrwt beam="2">  1       -2 0.23827507E+00 0.74345211E+03</pdfrwt>
<totfact> 0.88024242E+00</totfact>
</mgrwt>
</event>
<event>
 4    2  0.3855935E-007  0.6892068E+03  0.7818608E-02  0.1004532E+00
          2   -1    0    0  501    0  0.00000000000E+00  0.00000000000E+00  0.15042120563E+04  0.15042120563E+04  0.25500000000E-02 0. -1.
         -2   -1    0    0    0  501 -0.00000000000E+00 -0.00000000000E+00 -0.44451405352E+03  0.44451405353E+03  0.25500000000E-02 0.  1.
    8880023    1    1    2    0    0 -0.15884189161E+03 -0.12635315324E+03 -0.15608901442E+03  0.70666105917E+03  0.65864270000E+03 0.  1.
    8880022    1    1    2    0    0  0.15884189161E+03  0.12635315324E+03  0.12157870172E+04  0.12420650507E+04  0.15294330000E+03 0.  0.
<mgrwt>
<rscale>  0 0.53706984E+03</rscale>
<asrwt>0</asrwt>
<pdfrwt beam="1">  1        2 0.23141724E+00 0.68920684E+03</pdfrwt>
<pdfrwt beam="2">  1       -2 0.68386778E-01 0.68920684E+03</pdfrwt>
<totfact> 0.25466953E+01</totfact>
</mgrwt>
</event>
<event>
 4    2  0.3855935E-007  0.9268121E+03  0.7818608E-02  0.9484292E-01
         -2   -1    0    0    0  501 -0.00000000000E+00  0.00000000000E+00  0.31293269690E+03  0.31293269691E+03  0.25500000000E-02 0.  1.
          2   -1    0    0  501    0  0.00000000000E+00 -0.00000000000E+00 -0.20369216740E+04  0.20369216740E+04  0.25500000000E-02 0. -1.
    8880023    1    1    2    0    0 -0.33394815216E+03  0.56004381338E+03 -0.10196044094E+04  0.13778874407E+04  0.65864270000E+03 0.  1.
    8880022    1    1    2    0    0  0.33394815216E+03 -0.56004381338E+03 -0.70438456771E+03  0.97196693024E+03  0.15294330000E+03 0. -1.
<mgrwt>
<rscale>  0 0.85451873E+03</rscale>
<asrwt>0</asrwt>
<pdfrwt beam="1">  1        2 0.31337256E+00 0.92681209E+03</pdfrwt>
<pdfrwt beam="2">  1       -2 0.48143493E-01 0.92681209E+03</pdfrwt>
<totfact> 0.26361696E+01</totfact>
</mgrwt>
</event>
<event>
 4    2  0.3855935E-007  0.1065873E+04  0.7818608E-02  0.9300039E-01
         -2   -1    0    0    0  501 -0.00000000000E+00  0.00000000000E+00  0.11245893007E+04  0.11245893007E+04  0.25500000000E-02 0.  1.
          2   -1    0    0  501    0  0.00000000000E+00 -0.00000000000E+00 -0.17799352455E+04  0.17799352455E+04  0.25500000000E-02 0. -1.
    8880023    1    1    2    0    0  0.83501900811E+03 -0.70840065378E+02  0.72033119466E+03  0.12864533785E+04  0.65864270000E+03 0.  0.
    8880022    1    1    2    0    0 -0.83501900811E+03  0.70840065378E+02 -0.13756771395E+04  0.16180711677E+04  0.15294330000E+03 0.  0.
<mgrwt>
<rscale>  0 0.10077928E+04</rscale>
<asrwt>0</asrwt>
<pdfrwt beam="1">  1        2 0.27383619E+00 0.10658730E+04</pdfrwt>
<pdfrwt beam="2">  1       -2 0.17301374E+00 0.10658730E+04</pdfrwt>
<totfact> 0.17721038E+00</totfact>
</mgrwt>
</event>
<event>
 4    2  0.3855935E-007  0.9595962E+03  0.7818608E-02  0.9436440E-01
         -2   -1    0    0    0  501 -0.00000000000E+00  0.00000000000E+00  0.52434889599E+03  0.52434889600E+03  0.25500000000E-02 0.  1.
          2   -1    0    0  501    0  0.00000000000E+00 -0.00000000000E+00 -0.20993303439E+04  0.20993303439E+04  0.25500000000E-02 0. -1.
    8880023    1    1    2    0    0 -0.53001353678E+03  0.45398272100E+03 -0.75331899199E+02  0.96254857614E+03  0.65864270000E+03 0.  0.
    8880022    1    1    2    0    0  0.53001353678E+03 -0.45398272100E+03 -0.14996495487E+04  0.16611306637E+04  0.15294330000E+03 0. -1.
<mgrwt>
<rscale>  0 0.89136565E+03</rscale>
<asrwt>0</asrwt>
<pdfrwt beam="1">  1        2 0.32297389E+00 0.95959620E+03</pdfrwt>
<pdfrwt beam="2">  1       -2 0.80669062E-01 0.95959620E+03</pdfrwt>
<totfact> 0.80446952E+00</totfact>
</mgrwt>
</event>
<event>
 4    2  0.3855935E-007  0.7779815E+03  0.7818608E-02  0.9760600E-01
          2   -1    0    0  501    0  0.00000000000E+00  0.00000000000E+00  0.15238938841E+04  0.15238938841E+04  0.25500000000E-02 0. -1.
         -2   -1    0    0    0  501 -0.00000000000E+00 -0.00000000000E+00 -0.39596636512E+03  0.39596636512E+03  0.25500000000E-02 0.  1.
    8880023    1    1    2    0    0  0.24758460089E+03  0.33188391495E+03  0.79171011845E+02  0.78199956712E+03  0.65864270000E+03 0.  1.
    8880022    1    1    2    0    0 -0.24758460089E+03 -0.33188391495E+03  0.10487565071E+04  0.11378606821E+04  0.15294330000E+03 0.  0.
<mgrwt>
<rscale>  0 0.67520526E+03</rscale>
<asrwt>0</asrwt>
<pdfrwt beam="1">  1        2 0.23444522E+00 0.77798154E+03</pdfrwt>
<pdfrwt beam="2">  1       -2 0.60917901E-01 0.77798154E+03</pdfrwt>
<totfact> 0.31489061E+01</totfact>
</mgrwt>
</event>
<event>
 4    2  0.3855935E-007  0.8100346E+03  0.7818608E-02  0.9689505E-01
          2   -1    0    0  501    0  0.00000000000E+00  0.00000000000E+00  0.70396202834E+03  0.70396202835E+03  0.25500000000E-02 0. -1.
         -2   -1    0    0    0  501 -0.00000000000E+00 -0.00000000000E+00 -0.92761152218E+03  0.92761152218E+03  0.25500000000E-02 0.  1.
    8880023    1    1    2    0    0 -0.27805327790E+03  0.38083100307E+03 -0.60094239698E+03  0.10086068853E+04  0.65864270000E+03 0.  1.
    8880022    1    1    2    0    0  0.27805327790E+03 -0.38083100307E+03  0.37729290315E+03  0.62296666527E+03  0.15294330000E+03 0.  0.
<mgrwt>
<rscale>  0 0.71645121E+03</rscale>
<asrwt>0</asrwt>
<pdfrwt beam="1">  1        2 0.10830185E+00 0.81003462E+03</pdfrwt>
<pdfrwt beam="2">  1       -2 0.14270947E+00 0.81003462E+03</pdfrwt>
<totfact> 0.14021380E+01</totfact>
</mgrwt>
</event>
<event>
 4    2  0.3855935E-007  0.8253549E+03  0.7818608E-02  0.9658439E-01
         -2   -1    0    0    0  501 -0.00000000000E+00  0.00000000000E+00  0.32843363444E+03  0.32843363445E+03  0.25500000000E-02 0.  1.
          2   -1    0    0  501    0  0.00000000000E+00 -0.00000000000E+00 -0.14137946399E+04  0.14137946399E+04  0.25500000000E-02 0. -1.
    8880023    1    1    2    0    0 -0.45760326702E+03 -0.19493518562E+03 -0.79672743229E+03  0.11471640180E+04  0.65864270000E+03 0.  0.
    8880022    1    1    2    0    0  0.45760326702E+03  0.19493518562E+03 -0.28863357314E+03  0.59506425631E+03  0.15294330000E+03 0.  0.
<mgrwt>
<rscale>  0 0.73546168E+03</rscale>
<asrwt>0</asrwt>
<pdfrwt beam="1">  1        2 0.21750686E+00 0.82535488E+03</pdfrwt>
<pdfrwt beam="2">  1       -2 0.50528252E-01 0.82535488E+03</pdfrwt>
<totfact> 0.53310217E+01</totfact>
</mgrwt>
</event>
<event>
 4    2  0.3855935E-007  0.9818668E+03  0.7818608E-02  0.9405676E-01
         -2   -1    0    0    0  501 -0.00000000000E+00  0.00000000000E+00  0.33093536085E+03  0.33093536086E+03  0.25500000000E-02 0.  1.
          2   -1    0    0  501    0  0.00000000000E+00 -0.00000000000E+00 -0.24230309706E+04  0.24230309706E+04  0.25500000000E-02 0. -1.
    8880023    1    1    2    0    0  0.24820147289E+03 -0.68457885786E+03 -0.81554321263E+03  0.12763906619E+04  0.65864270000E+03 0. -1.
    8880022    1    1    2    0    0 -0.24820147289E+03  0.68457885786E+03 -0.12765523971E+04  0.14775756696E+04  0.15294330000E+03 0.  0.
<mgrwt>
<rscale>  0 0.91610075E+03</rscale>
<asrwt>0</asrwt>
<pdfrwt beam="1">  1        2 0.37277398E+00 0.98186679E+03</pdfrwt>
<pdfrwt beam="2">  1       -2 0.50913134E-01 0.98186679E+03</pdfrwt>
<totfact> 0.14243188E+01</totfact>
</mgrwt>
</event>
<event>
 4    2  0.3855935E-007  0.6641230E+03  0.7818608E-02  0.1020281E+00
          2   -1    0    0  501    0  0.00000000000E+00  0.00000000000E+00  0.32460147795E+03  0.32460147796E+03  0.25500000000E-02 0. -1.
         -2   -1    0    0    0  501 -0.00000000000E+00 -0.00000000000E+00 -0.14130030747E+04  0.14130030747E+04  0.25500000000E-02 0.  1.
    8880023    1    1    2    0    0  0.29406825816E+01 -0.85091114067E+02 -0.13019081019E+04  0.14615143028E+04  0.65864270000E+03 0.  1.
    8880022    1    1    2    0    0 -0.29406825816E+01  0.85091114067E+02  0.21350650514E+03  0.27609024985E+03  0.15294330000E+03 0.  0.
<mgrwt>
<rscale>  0 0.47585419E+03</rscale>
<asrwt>0</asrwt>
<pdfrwt beam="1">  1        2 0.49938689E-01 0.66412299E+03</pdfrwt>
<pdfrwt beam="2">  1       -2 0.21738509E+00 0.66412299E+03</pdfrwt>
<totfact> 0.10636719E+01</totfact>
</mgrwt>
</event>
<event>
 4    2  0.3855935E-007  0.8785747E+03  0.7818608E-02  0.9561340E-01
          2   -1    0    0  501    0  0.00000000000E+00  0.00000000000E+00  0.97589124350E+03  0.97589124350E+03  0.25500000000E-02 0. -1.
         -2   -1    0    0    0  501 -0.00000000000E+00 -0.00000000000E+00 -0.90979652514E+03  0.90979652515E+03  0.25500000000E-02 0.  1.
    8880023    1    1    2    0    0  0.44789717423E+03 -0.37077127595E+03 -0.54058082689E+03  0.10315624336E+04  0.65864270000E+03 0.  1.
    8880022    1    1    2    0    0 -0.44789717423E+03  0.37077127595E+03  0.60667554525E+03  0.85412533505E+03  0.15294330000E+03 0.  0.
<mgrwt>
<rscale>  0 0.79908645E+03</rscale>
<asrwt>0</asrwt>
<pdfrwt beam="1">  1        2 0.15013711E+00 0.87857465E+03</pdfrwt>
<pdfrwt beam="2">  1       -2 0.13996870E+00 0.87857465E+03</pdfrwt>
<totfact> 0.94126339E+00</totfact>
</mgrwt>
</event>
<event>
 4    2  0.3855935E-007  0.7696325E+03  0.7818608E-02  0.9780779E-01
          2   -1    0    0  501    0  0.00000000000E+00  0.00000000000E+00  0.22268838167E+04  0.22268838167E+04  0.25500000000E-02 0. -1.
         -2   -1    0    0    0  501 -0.00000000000E+00 -0.00000000000E+00 -0.27793032015E+03  0.27793032016E+03  0.25500000000E-02 0.  1.
    8880023    1    1    2    0    0  0.39730663266E+03  0.25912176564E+02  0.34195934394E+03  0.84218192834E+03  0.65864270000E+03 0. -1.
    8880022    1    1    2    0    0 -0.39730663266E+03 -0.25912176564E+02  0.16069941526E+04  0.16626322085E+04  0.15294330000E+03 0.  0.
<mgrwt>
<rscale>  0 0.66404317E+03</rscale>
<asrwt>0</asrwt>
<pdfrwt beam="1">  1        2 0.34259751E+00 0.76963251E+03</pdfrwt>
<pdfrwt beam="2">  1       -2 0.42758511E-01 0.76963251E+03</pdfrwt>
<totfact> 0.26764781E+01</totfact>
</mgrwt>
</event>
<event>
 4    2  0.3855935E-007  0.9123160E+03  0.7818608E-02  0.9506543E-01
         -2   -1    0    0    0  501 -0.00000000000E+00  0.00000000000E+00  0.52485224111E+03  0.52485224112E+03  0.25500000000E-02 0.  1.
          2   -1    0    0  501    0  0.00000000000E+00 -0.00000000000E+00 -0.24763917035E+04  0.24763917035E+04  0.25500000000E-02 0. -1.
    8880023    1    1    2    0    0 -0.52448931818E+03  0.35131361516E+03 -0.21387998885E+04  0.23252495502E+04  0.65864270000E+03 0.  0.
    8880022    1    1    2    0    0  0.52448931818E+03 -0.35131361516E+03  0.18726042617E+03  0.67599439443E+03  0.15294330000E+03 0.  0.
<mgrwt>
<rscale>  0 0.83803164E+03</rscale>
<asrwt>0</asrwt>
<pdfrwt beam="1">  1        2 0.38098333E+00 0.91231601E+03</pdfrwt>
<pdfrwt beam="2">  1       -2 0.80746500E-01 0.91231601E+03</pdfrwt>
<totfact> 0.49704128E+00</totfact>
</mgrwt>
</event>
<event>
 4    2  0.3855935E-007  0.1100796E+04  0.7818608E-02  0.9260170E-01
         -2   -1    0    0    0  501 -0.00000000000E+00  0.00000000000E+00  0.16887167940E+04  0.16887167940E+04  0.25500000000E-02 0.  1.
          2   -1    0    0  501    0  0.00000000000E+00 -0.00000000000E+00 -0.99440476114E+03  0.99440476114E+03  0.25500000000E-02 0. -1.
    8880023    1    1    2    0    0  0.55841082821E+03 -0.68272975056E+03  0.12214347089E+04  0.16442796355E+04  0.65864270000E+03 0.  1.
    8880022    1    1    2    0    0 -0.55841082821E+03  0.68272975056E+03 -0.52712267605E+03  0.10388419196E+04  0.15294330000E+03 0.  0.
<mgrwt>
<rscale>  0 0.10453386E+04</rscale>
<asrwt>0</asrwt>
<pdfrwt beam="1">  1        2 0.15298535E+00 0.11007964E+04</pdfrwt>
<pdfrwt beam="2">  1       -2 0.25980258E+00 0.11007964E+04</pdfrwt>
<totfact> 0.14008130E+00</totfact>
</mgrwt>
</event>
<event>
 4    2  0.3855935E-007  0.8423881E+03  0.7818608E-02  0.9625694E-01
          2   -1    0    0  501    0  0.00000000000E+00  0.00000000000E+00  0.25966811297E+04  0.25966811297E+04  0.25500000000E-02 0. -1.
         -2   -1    0    0    0  501 -0.00000000000E+00 -0.00000000000E+00 -0.40335531733E+03  0.40335531734E+03  0.25500000000E-02 0.  1.
    8880023    1    1    2    0    0  0.50660125727E+03  0.13842906456E+03  0.11411884393E+03  0.85008279396E+03  0.65864270000E+03 0.  1.
    8880022    1    1    2    0    0 -0.50660125727E+03 -0.13842906456E+03  0.20792069685E+04  0.21499536531E+04  0.15294330000E+03 0.  0.
<mgrwt>
<rscale>  0 0.75618696E+03</rscale>
<asrwt>0</asrwt>
<pdfrwt beam="1">  1        2 0.39948940E+00 0.84238806E+03</pdfrwt>
<pdfrwt beam="2">  1       -2 0.62054665E-01 0.84238806E+03</pdfrwt>
<totfact> 0.76375916E+00</totfact>
</mgrwt>
</event>
<event>
 4    2  0.3855935E-007  0.6913912E+03  0.7818608E-02  0.1003498E+00
          2   -1    0    0  501    0  0.00000000000E+00  0.00000000000E+00  0.12680490644E+04  0.12680490644E+04  0.25500000000E-02 0. -1.
         -2   -1    0    0    0  501 -0.00000000000E+00 -0.00000000000E+00 -0.66131986915E+03  0.66131986916E+03  0.25500000000E-02 0.  1.
    8880023    1    1    2    0    0  0.17169121309E+03 -0.12138243001E+03 -0.46063905494E+03  0.83078884933E+03  0.65864270000E+03 0.  1.
    8880022    1    1    2    0    0 -0.17169121309E+03  0.12138243001E+03  0.10673682501E+04  0.10985800842E+04  0.15294330000E+03 0.  0.
<mgrwt>
<rscale>  0 0.54142562E+03</rscale>
<asrwt>0</asrwt>
<pdfrwt beam="1">  1        2 0.19508447E+00 0.69139119E+03</pdfrwt>
<pdfrwt beam="2">  1       -2 0.10174152E+00 0.69139119E+03</pdfrwt>
<totfact> 0.14066058E+01</totfact>
</mgrwt>
</event>
<event>
 4    2  0.3855935E-007  0.6606432E+03  0.7818608E-02  0.1023507E+00
          2   -1    0    0  501    0  0.00000000000E+00  0.00000000000E+00  0.13602968522E+04  0.13602968522E+04  0.25500000000E-02 0. -1.
         -2   -1    0    0    0  501 -0.00000000000E+00 -0.00000000000E+00 -0.29848990968E+03  0.29848990969E+03  0.25500000000E-02 0.  1.
    8880023    1    1    2    0    0  0.43703955264E+02 -0.27004196300E+02  0.81916376623E+02  0.66570245707E+03  0.65864270000E+03 0.  0.
    8880022    1    1    2    0    0 -0.43703955264E+02  0.27004196300E+02  0.97989056590E+03  0.99308430482E+03  0.15294330000E+03 0. -1.
<mgrwt>
<rscale>  0 0.46442054E+03</rscale>
<asrwt>0</asrwt>
<pdfrwt beam="1">  1        2 0.20927644E+00 0.66064322E+03</pdfrwt>
<pdfrwt beam="2">  1       -2 0.45921524E-01 0.66064322E+03</pdfrwt>
<totfact> 0.70468221E+01</totfact>
</mgrwt>
</event>
<event>
 4    2  0.3855935E-007  0.8485066E+03  0.7818608E-02  0.9614344E-01
          2   -1    0    0  501    0  0.00000000000E+00  0.00000000000E+00  0.68315669566E+03  0.68315669566E+03  0.25500000000E-02 0. -1.
         -2   -1    0    0    0  501 -0.00000000000E+00 -0.00000000000E+00 -0.98863701272E+03  0.98863701272E+03  0.25500000000E-02 0.  1.
    8880023    1    1    2    0    0 -0.29794334639E+03  0.44427801567E+03 -0.60292737098E+03  0.10409057661E+04  0.65864270000E+03 0.  0.
    8880022    1    1    2    0    0  0.29794334639E+03 -0.44427801567E+03  0.29744705392E+03  0.63088794232E+03  0.15294330000E+03 0.  0.
<mgrwt>
<rscale>  0 0.76354011E+03</rscale>
<asrwt>0</asrwt>
<pdfrwt beam="1">  1        2 0.10510103E+00 0.84850657E+03</pdfrwt>
<pdfrwt beam="2">  1       -2 0.15209800E+00 0.84850657E+03</pdfrwt>
<totfact> 0.12267957E+01</totfact>
</mgrwt>
</event>
<event>
 4    2  0.3855935E-007  0.9820278E+03  0.7818608E-02  0.9405458E-01
          2   -1    0    0  501    0  0.00000000000E+00  0.00000000000E+00  0.47182230801E+03  0.47182230802E+03  0.25500000000E-02 0. -1.
         -2   -1    0    0    0  501 -0.00000000000E+00 -0.00000000000E+00 -0.21111028193E+04  0.21111028193E+04  0.25500000000E-02 0.  1.
    8880023    1    1    2    0    0 -0.56717026277E+03 -0.45704089972E+03 -0.26035427019E+03  0.10159542525E+04  0.65864270000E+03 0.  0.
    8880022    1    1    2    0    0  0.56717026277E+03  0.45704089972E+03 -0.13789262411E+04  0.15669708747E+04  0.15294330000E+03 0.  0.
<mgrwt>
<rscale>  0 0.91627886E+03</rscale>
<asrwt>0</asrwt>
<pdfrwt beam="1">  1        2 0.72588049E-01 0.98202785E+03</pdfrwt>
<pdfrwt beam="2">  1       -2 0.32478504E+00 0.98202785E+03</pdfrwt>
<totfact> 0.14929509E+00</totfact>
</mgrwt>
</event>
<event>
 4    2  0.3855935E-007  0.1034270E+04  0.7818608E-02  0.9338035E-01
         -2   -1    0    0    0  501 -0.00000000000E+00  0.00000000000E+00  0.62117069547E+03  0.62117069547E+03  0.25500000000E-02 0.  1.
          2   -1    0    0  501    0  0.00000000000E+00 -0.00000000000E+00 -0.17278571005E+04  0.17278571005E+04  0.25500000000E-02 0. -1.
    8880023    1    1    2    0    0  0.46328133909E+03  0.64905620137E+03 -0.76184896843E+02  0.10370717894E+04  0.65864270000E+03 0.  0.
    8880022    1    1    2    0    0 -0.46328133909E+03 -0.64905620137E+03 -0.10305015082E+04  0.13119560066E+04  0.15294330000E+03 0.  0.
<mgrwt>
<rscale>  0 0.97355464E+03</rscale>
<asrwt>0</asrwt>
<pdfrwt beam="1">  1        2 0.26582417E+00 0.10342697E+04</pdfrwt>
<pdfrwt beam="2">  1       -2 0.95564723E-01 0.10342697E+04</pdfrwt>
<totfact> 0.86467149E+00</totfact>
</mgrwt>
</event>
<event>
 4    2  0.3855935E-007  0.7165406E+03  0.7818608E-02  0.9934470E-01
          2   -1    0    0  501    0  0.00000000000E+00  0.00000000000E+00  0.19023468881E+04  0.19023468881E+04  0.25500000000E-02 0. -1.
         -2   -1    0    0    0  501 -0.00000000000E+00 -0.00000000000E+00 -0.18729494027E+03  0.18729494029E+03  0.25500000000E-02 0.  1.
    8880023    1    1    2    0    0 -0.26024946397E+03  0.10904345531E+03  0.61678676053E+03  0.94543977750E+03  0.65864270000E+03 0.  0.
    8880022    1    1    2    0    0  0.26024946397E+03 -0.10904345531E+03  0.10982651873E+04  0.11442020509E+04  0.15294330000E+03 0.  0.
<mgrwt>
<rscale>  0 0.58619424E+03</rscale>
<asrwt>0</asrwt>
<pdfrwt beam="1">  1        2 0.29266873E+00 0.71654062E+03</pdfrwt>
<pdfrwt beam="2">  1       -2 0.28814609E-01 0.71654062E+03</pdfrwt>
<totfact> 0.86067214E+01</totfact>
</mgrwt>
</event>
<event>
 4    2  0.3855935E-007  0.8282598E+03  0.7818608E-02  0.9652728E-01
          2   -1    0    0  501    0  0.00000000000E+00  0.00000000000E+00  0.16693142165E+04  0.16693142165E+04  0.25500000000E-02 0. -1.
         -2   -1    0    0    0  501 -0.00000000000E+00 -0.00000000000E+00 -0.42442460702E+03  0.42442460703E+03  0.25500000000E-02 0.  1.
    8880023    1    1    2    0    0  0.50205022686E+03 -0.12231903996E+02  0.10005937182E+03  0.83428180726E+03  0.65864270000E+03 0.  0.
    8880022    1    1    2    0    0 -0.50205022686E+03  0.12231903996E+02  0.11448302377E+04  0.12594570163E+04  0.15294330000E+03 0.  0.
<mgrwt>
<rscale>  0 0.73902475E+03</rscale>
<asrwt>0</asrwt>
<pdfrwt beam="1">  1        2 0.25681757E+00 0.82825978E+03</pdfrwt>
<pdfrwt beam="2">  1       -2 0.65296094E-01 0.82825978E+03</pdfrwt>
<totfact> 0.22435704E+01</totfact>
</mgrwt>
</event>
<event>
 4    2  0.3855935E-007  0.7658187E+03  0.7818608E-02  0.9790270E-01
         -2   -1    0    0    0  501 -0.00000000000E+00  0.00000000000E+00  0.17190868744E+03  0.17190868746E+03  0.25500000000E-02 0.  1.
          2   -1    0    0  501    0  0.00000000000E+00 -0.00000000000E+00 -0.23595998574E+04  0.23595998574E+04  0.25500000000E-02 0. -1.
    8880023    1    1    2    0    0  0.35679742440E+03 -0.15925969353E+03 -0.92471796341E+03  0.12006588067E+04  0.65864270000E+03 0.  1.
    8880022    1    1    2    0    0 -0.35679742440E+03  0.15925969353E+03 -0.12629732066E+04  0.13308497382E+04  0.15294330000E+03 0.  0.
<mgrwt>
<rscale>  0 0.65887339E+03</rscale>
<asrwt>0</asrwt>
<pdfrwt beam="1">  1        2 0.36301534E+00 0.76581869E+03</pdfrwt>
<pdfrwt beam="2">  1       -2 0.26447492E-01 0.76581869E+03</pdfrwt>
<totfact> 0.56132153E+01</totfact>
</mgrwt>
</event>
<event>
 4    2  0.3855935E-007  0.1111659E+04  0.7818608E-02  0.9248185E-01
          2   -1    0    0  501    0  0.00000000000E+00  0.00000000000E+00  0.15698943080E+04  0.15698943080E+04  0.25500000000E-02 0. -1.
         -2   -1    0    0    0  501 -0.00000000000E+00 -0.00000000000E+00 -0.74593965422E+03  0.74593965423E+03  0.25500000000E-02 0.  1.
    8880023    1    1    2    0    0  0.41054972386E+03  0.79587995507E+03  0.86174213100E+03  0.14065509892E+04  0.65864270000E+03 0.  0.
    8880022    1    1    2    0    0 -0.41054972386E+03 -0.79587995507E+03 -0.37787477186E+02  0.90928297306E+03  0.15294330000E+03 0.  0.
<mgrwt>
<rscale>  0 0.10569627E+04</rscale>
<asrwt>0</asrwt>
<pdfrwt beam="1">  1        2 0.24152220E+00 0.11116592E+04</pdfrwt>
<pdfrwt beam="2">  1       -2 0.11475995E+00 0.11116592E+04</pdfrwt>
<totfact> 0.67589066E+00</totfact>
</mgrwt>
</event>
<event>
 4    2  0.3855935E-007  0.7000829E+03  0.7818608E-02  0.9996857E-01
          2   -1    0    0  501    0  0.00000000000E+00  0.00000000000E+00  0.43037029107E+04  0.43037029107E+04  0.25500000000E-02 0. -1.
         -2   -1    0    0    0  501 -0.00000000000E+00 -0.00000000000E+00 -0.43056434953E+03  0.43056434954E+03  0.25500000000E-02 0.  1.
    8880023    1    1    2    0    0  0.15936479407E+03  0.17580883322E+03 -0.13770765707E+03  0.71349806482E+03  0.65864270000E+03 0.  1.
    8880022    1    1    2    0    0 -0.15936479407E+03 -0.17580883322E+03  0.40108462183E+04  0.40207691955E+04  0.15294330000E+03 0.  0.
<mgrwt>
<rscale>  0 0.55788248E+03</rscale>
<asrwt>0</asrwt>
<pdfrwt beam="1">  1        2 0.66210812E+00 0.70008292E+03</pdfrwt>
<pdfrwt beam="2">  1       -2 0.66240671E-01 0.70008292E+03</pdfrwt>
<totfact> 0.45257648E-01</totfact>
</mgrwt>
</event>
<event>
 4    2  0.3855935E-007  0.1052324E+04  0.7818608E-02  0.9316093E-01
         -2   -1    0    0    0  501 -0.00000000000E+00  0.00000000000E+00  0.33674902197E+04  0.33674902197E+04  0.25500000000E-02 0.  1.
          2   -1    0    0  501    0  0.00000000000E+00 -0.00000000000E+00 -0.35790262929E+03  0.35790262930E+03  0.25500000000E-02 0. -1.
    8880023    1    1    2    0    0 -0.12301185976E+03  0.81144498759E+03  0.25803141044E+04  0.27866478014E+04  0.65864270000E+03 0.  0.
    8880022    1    1    2    0    0  0.12301185976E+03 -0.81144498759E+03  0.42927348598E+03  0.93874504755E+03  0.15294330000E+03 0.  0.
<mgrwt>
<rscale>  0 0.99314690E+03</rscale>
<asrwt>0</asrwt>
<pdfrwt beam="1">  1        2 0.55061942E-01 0.10523237E+04</pdfrwt>
<pdfrwt beam="2">  1       -2 0.51807543E+00 0.10523237E+04</pdfrwt>
<totfact> 0.11577448E-01</totfact>
</mgrwt>
</event>
<event>
 4    2  0.3855935E-007  0.8027017E+03  0.7818608E-02  0.9704985E-01
         -2   -1    0    0    0  501 -0.00000000000E+00  0.00000000000E+00  0.55487208536E+03  0.55487208536E+03  0.25500000000E-02 0.  1.
          2   -1    0    0  501    0  0.00000000000E+00 -0.00000000000E+00 -0.11393364491E+04  0.11393364491E+04  0.25500000000E-02 0. -1.
    8880023    1    1    2    0    0  0.17079566084E+03 -0.42585058607E+03  0.14823985594E+03  0.81627516229E+03  0.65864270000E+03 0.  0.
    8880022    1    1    2    0    0 -0.17079566084E+03  0.42585058607E+03 -0.73270421966E+03  0.87793337216E+03  0.15294330000E+03 0. -1.
<mgrwt>
<rscale>  0 0.70720791E+03</rscale>
<asrwt>0</asrwt>
<pdfrwt beam="1">  1        2 0.17528253E+00 0.80270174E+03</pdfrwt>
<pdfrwt beam="2">  1       -2 0.85364937E-01 0.80270174E+03</pdfrwt>
<totfact> 0.24899522E+01</totfact>
</mgrwt>
</event>
<event>
 4    2  0.3855935E-007  0.1004249E+04  0.7818608E-02  0.9376019E-01
          2   -1    0    0  501    0  0.00000000000E+00  0.00000000000E+00  0.17176804701E+04  0.17176804701E+04  0.25500000000E-02 0. -1.
         -2   -1    0    0    0  501 -0.00000000000E+00 -0.00000000000E+00 -0.59743978133E+03  0.59743978133E+03  0.25500000000E-02 0.  1.
    8880023    1    1    2    0    0 -0.73929353376E+03  0.16778422142E+03  0.64358290961E+02  0.10063094305E+04  0.65864270000E+03 0.  0.
    8880022    1    1    2    0    0  0.73929353376E+03 -0.16778422142E+03  0.10558823978E+04  0.13088108209E+04  0.15294330000E+03 0. -1.
<mgrwt>
<rscale>  0 0.94075755E+03</rscale>
<asrwt>0</asrwt>
<pdfrwt beam="1">  1        2 0.26425853E+00 0.10042493E+04</pdfrwt>
<pdfrwt beam="2">  1       -2 0.91913814E-01 0.10042493E+04</pdfrwt>
<totfact> 0.96257004E+00</totfact>
</mgrwt>
</event>
<event>
 4    2  0.3855935E-007  0.7269108E+03  0.7818608E-02  0.9899860E-01
         -2   -1    0    0    0  501 -0.00000000000E+00  0.00000000000E+00  0.10902225460E+03  0.10902225463E+03  0.25500000000E-02 0.  1.
          2   -1    0    0  501    0  0.00000000000E+00 -0.00000000000E+00 -0.32159347388E+04  0.32159347388E+04  0.25500000000E-02 0. -1.
    8880023    1    1    2    0    0 -0.13609167670E+03 -0.27580445935E+03 -0.13351367639E+04  0.15201938787E+04  0.65864270000E+03 0.  1.
    8880022    1    1    2    0    0  0.13609167670E+03  0.27580445935E+03 -0.17717757202E+04  0.18047631147E+04  0.15294330000E+03 0.  0.
<mgrwt>
<rscale>  0 0.60268057E+03</rscale>
<asrwt>0</asrwt>
<pdfrwt beam="1">  1        2 0.49475912E+00 0.72691076E+03</pdfrwt>
<pdfrwt beam="2">  1       -2 0.16772657E-01 0.72691076E+03</pdfrwt>
<totfact> 0.39149840E+01</totfact>
</mgrwt>
</event>
<event>
 4    2  0.3855935E-007  0.7964977E+03  0.7818608E-02  0.9718421E-01
         -2   -1    0    0    0  501 -0.00000000000E+00  0.00000000000E+00  0.23584487515E+03  0.23584487517E+03  0.25500000000E-02 0.  1.
          2   -1    0    0  501    0  0.00000000000E+00 -0.00000000000E+00 -0.18282164167E+04  0.18282164167E+04  0.25500000000E-02 0. -1.
    8880023    1    1    2    0    0 -0.24906529876E+03 -0.37224300730E+03 -0.12409822490E+04  0.14746001248E+04  0.65864270000E+03 0.  0.
    8880022    1    1    2    0    0  0.24906529876E+03  0.37224300730E+03 -0.35138929258E+03  0.58946116708E+03  0.15294330000E+03 0.  0.
<mgrwt>
<rscale>  0 0.69930556E+03</rscale>
<asrwt>0</asrwt>
<pdfrwt beam="1">  1        2 0.28126405E+00 0.79649770E+03</pdfrwt>
<pdfrwt beam="2">  1       -2 0.36283828E-01 0.79649770E+03</pdfrwt>
<totfact> 0.60726120E+01</totfact>
</mgrwt>
</event>
<event>
 4    2  0.3855935E-007  0.8558953E+03  0.7818608E-02  0.9600907E-01
          2   -1    0    0  501    0  0.00000000000E+00  0.00000000000E+00  0.87313389697E+03  0.87313389697E+03  0.25500000000E-02 0. -1.
         -2   -1    0    0    0  501 -0.00000000000E+00 -0.00000000000E+00 -0.16470509886E+04  0.16470509886E+04  0.25500000000E-02 0.  1.
    8880023    1    1    2    0    0 -0.54544001613E+03 -0.35237688939E+02 -0.14213739616E+04  0.16591746897E+04  0.65864270000E+03 0.  0.
    8880022    1    1    2    0    0  0.54544001613E+03  0.35237688939E+02  0.64745686997E+03  0.86101019588E+03  0.15294330000E+03 0.  0.
<mgrwt>
<rscale>  0 0.77236172E+03</rscale>
<asrwt>0</asrwt>
<pdfrwt beam="1">  1        2 0.13432829E+00 0.85589527E+03</pdfrwt>
<pdfrwt beam="2">  1       -2 0.25339246E+00 0.85589527E+03</pdfrwt>
<totfact> 0.19046020E+00</totfact>
</mgrwt>
</event>
<event>
 4    2  0.3855935E-007  0.9325469E+03  0.7818608E-02  0.9475683E-01
         -2   -1    0    0    0  501 -0.00000000000E+00  0.00000000000E+00  0.32906917129E+03  0.32906917130E+03  0.25500000000E-02 0.  1.
          2   -1    0    0  501    0  0.00000000000E+00 -0.00000000000E+00 -0.34542067359E+04  0.34542067359E+04  0.25500000000E-02 0. -1.
    8880023    1    1    2    0    0 -0.39038903926E+03  0.53238143050E+03 -0.47244652934E+03  0.10453944322E+04  0.65864270000E+03 0.  0.
    8880022    1    1    2    0    0  0.39038903926E+03 -0.53238143050E+03 -0.26526910353E+04  0.27378814750E+04  0.15294330000E+03 0.  0.
<mgrwt>
<rscale>  0 0.86100613E+03</rscale>
<asrwt>0</asrwt>
<pdfrwt beam="1">  1        2 0.53141639E+00 0.93254694E+03</pdfrwt>
<pdfrwt beam="2">  1       -2 0.50626029E-01 0.93254694E+03</pdfrwt>
<totfact> 0.33799315E+00</totfact>
</mgrwt>
</event>
<event>
 4    2  0.3855935E-007  0.6630993E+03  0.7818608E-02  0.1021184E+00
          2   -1    0    0  501    0  0.00000000000E+00  0.00000000000E+00  0.16651728861E+04  0.16651728862E+04  0.25500000000E-02 0. -1.
         -2   -1    0    0    0  501 -0.00000000000E+00 -0.00000000000E+00 -0.11356823023E+03  0.11356823026E+03  0.25500000000E-02 0.  1.
    8880023    1    1    2    0    0  0.75683776257E+02 -0.12743595031E+02  0.98927627320E+03  0.11909526373E+04  0.65864270000E+03 0.  1.
    8880022    1    1    2    0    0 -0.75683776257E+02  0.12743595031E+02  0.56232838272E+03  0.58778847915E+03  0.15294330000E+03 0.  0.
<mgrwt>
<rscale>  0 0.47261681E+03</rscale>
<asrwt>0</asrwt>
<pdfrwt beam="1">  1        2 0.25618043E+00 0.66309927E+03</pdfrwt>
<pdfrwt beam="2">  1       -2 0.17472036E-01 0.66309927E+03</pdfrwt>
<totfact> 0.28323685E+02</totfact>
</mgrwt>
</event>
<event>
 4    2  0.3855935E-007  0.6898111E+03  0.7818608E-02  0.1004243E+00
         -2   -1    0    0    0  501 -0.00000000000E+00  0.00000000000E+00  0.15351971248E+03  0.15351971250E+03  0.25500000000E-02 0.  1.
          2   -1    0    0  501    0  0.00000000000E+00 -0.00000000000E+00 -0.17531981589E+04  0.17531981589E+04  0.25500000000E-02 0. -1.
    8880023    1    1    2    0    0 -0.73146945219E+02 -0.19151664311E+03 -0.74825490434E+03  0.10177056098E+04  0.65864270000E+03 0.  1.
    8880022    1    1    2    0    0  0.73146945219E+02  0.19151664311E+03 -0.85142354210E+03  0.88901226158E+03  0.15294330000E+03 0.  0.
<mgrwt>
<rscale>  0 0.53828473E+03</rscale>
<asrwt>0</asrwt>
<pdfrwt beam="1">  1        2 0.26972278E+00 0.68981107E+03</pdfrwt>
<pdfrwt beam="2">  1       -2 0.23618419E-01 0.68981107E+03</pdfrwt>
<totfact> 0.14923905E+02</totfact>
</mgrwt>
</event>
<event>
 4    2  0.3855935E-007  0.7072660E+03  0.7818608E-02  0.9968297E-01
         -2   -1    0    0    0  501 -0.00000000000E+00  0.00000000000E+00  0.24498573745E+03  0.24498573747E+03  0.25500000000E-02 0.  1.
          2   -1    0    0  501    0  0.00000000000E+00 -0.00000000000E+00 -0.13510083519E+04  0.13510083519E+04  0.25500000000E-02 0. -1.
    8880023    1    1    2    0    0 -0.22486034293E+03  0.12590770118E+03 -0.36335352169E+03  0.79514206971E+03  0.65864270000E+03 0.  1.
    8880022    1    1    2    0    0  0.22486034293E+03 -0.12590770118E+03 -0.74266909276E+03  0.80085201966E+03  0.15294330000E+03 0.  0.
<mgrwt>
<rscale>  0 0.57062472E+03</rscale>
<asrwt>0</asrwt>
<pdfrwt beam="1">  1        2 0.20784743E+00 0.70726595E+03</pdfrwt>
<pdfrwt beam="2">  1       -2 0.37690115E-01 0.70726595E+03</pdfrwt>
<totfact> 0.10461941E+02</totfact>
</mgrwt>
</event>
<event>
 4    2  0.3855935E-007  0.7601378E+03  0.7818608E-02  0.9804751E-01
         -2   -1    0    0    0  501 -0.00000000000E+00  0.00000000000E+00  0.70559737955E+03  0.70559737955E+03  0.25500000000E-02 0.  1.
          2   -1    0    0  501    0  0.00000000000E+00 -0.00000000000E+00 -0.11795280063E+04  0.11795280063E+04  0.25500000000E-02 0. -1.
    8880023    1    1    2    0    0  0.36471997481E+03  0.10477893431E+03  0.44388299439E+03  0.88025087565E+03  0.65864270000E+03 0.  1.
    8880022    1    1    2    0    0 -0.36471997481E+03 -0.10477893431E+03 -0.91781362116E+03  0.10048745102E+04  0.15294330000E+03 0.  0.
<mgrwt>
<rscale>  0 0.65108208E+03</rscale>
<asrwt>0</asrwt>
<pdfrwt beam="1">  1        2 0.18146585E+00 0.76013781E+03</pdfrwt>
<pdfrwt beam="2">  1       -2 0.10855344E+00 0.76013781E+03</pdfrwt>
<totfact> 0.13456391E+01</totfact>
</mgrwt>
</event>
<event>
 4    2  0.3855935E-007  0.1035500E+04  0.7818608E-02  0.9336519E-01
          2   -1    0    0  501    0  0.00000000000E+00  0.00000000000E+00  0.25985857208E+04  0.25985857208E+04  0.25500000000E-02 0. -1.
         -2   -1    0    0    0  501 -0.00000000000E+00 -0.00000000000E+00 -0.51000297921E+03  0.51000297922E+03  0.25500000000E-02 0.  1.
    8880023    1    1    2    0    0  0.83199332514E+02 -0.79468760558E+03  0.20469791894E+04  0.22939887811E+04  0.65864270000E+03 0.  0.
    8880022    1    1    2    0    0 -0.83199332514E+02  0.79468760558E+03  0.41603552150E+02  0.81459991896E+03  0.15294330000E+03 0.  0.
<mgrwt>
<rscale>  0 0.97489300E+03</rscale>
<asrwt>0</asrwt>
<pdfrwt beam="1">  1        2 0.39978241E+00 0.10355002E+04</pdfrwt>
<pdfrwt beam="2">  1       -2 0.78461999E-01 0.10355002E+04</pdfrwt>
<totfact> 0.44356709E+00</totfact>
</mgrwt>
</event>
<event>
 4    2  0.3855935E-007  0.9323246E+03  0.7818608E-02  0.9476015E-01
          2   -1    0    0  501    0  0.00000000000E+00  0.00000000000E+00  0.40006232622E+04  0.40006232622E+04  0.25500000000E-02 0. -1.
         -2   -1    0    0    0  501 -0.00000000000E+00 -0.00000000000E+00 -0.34520351104E+03  0.34520351105E+03  0.25500000000E-02 0.  1.
    8880023    1    1    2    0    0 -0.52574947246E+03  0.39875619719E+03  0.38951870565E+03  0.10104227041E+04  0.65864270000E+03 0.  0.
    8880022    1    1    2    0    0  0.52574947246E+03 -0.39875619719E+03  0.32659010455E+04  0.33354040692E+04  0.15294330000E+03 0.  0.
<mgrwt>
<rscale>  0 0.86075501E+03</rscale>
<asrwt>0</asrwt>
<pdfrwt beam="1">  1        2 0.61548049E+00 0.93232463E+03</pdfrwt>
<pdfrwt beam="2">  1       -2 0.53108234E-01 0.93232463E+03</pdfrwt>
<totfact> 0.12204610E+00</totfact>
</mgrwt>
</event>
<event>
 4    2  0.3855935E-007  0.8104830E+03  0.7818608E-02  0.9688572E-01
          2   -1    0    0  501    0  0.00000000000E+00  0.00000000000E+00  0.21649759325E+04  0.21649759325E+04  0.25500000000E-02 0. -1.
         -2   -1    0    0    0  501 -0.00000000000E+00 -0.00000000000E+00 -0.49242788892E+03  0.49242788893E+03  0.25500000000E-02 0.  1.
    8880023    1    1    2    0    0 -0.47084605975E+03  0.37100290585E+02 -0.10001548988E+03  0.81663072929E+03  0.65864270000E+03 0.  0.
    8880022    1    1    2    0    0  0.47084605975E+03 -0.37100290585E+02  0.17725635334E+04  0.18407730921E+04  0.15294330000E+03 0.  0.
<mgrwt>
<rscale>  0 0.71701316E+03</rscale>
<asrwt>0</asrwt>
<pdfrwt beam="1">  1        2 0.33307322E+00 0.81048297E+03</pdfrwt>
<pdfrwt beam="2">  1       -2 0.75758136E-01 0.81048297E+03</pdfrwt>
<totfact> 0.86918916E+00</totfact>
</mgrwt>
</event>
<event>
 4    2  0.3855935E-007  0.7037630E+03  0.7818608E-02  0.9981935E-01
          2   -1    0    0  501    0  0.00000000000E+00  0.00000000000E+00  0.12897578012E+04  0.12897578012E+04  0.25500000000E-02 0. -1.
         -2   -1    0    0    0  501 -0.00000000000E+00 -0.00000000000E+00 -0.45396159205E+03  0.45396159206E+03  0.25500000000E-02 0.  1.
    8880023    1    1    2    0    0 -0.12937432738E+03  0.21150529288E+03 -0.14674697404E+03  0.71889991386E+03  0.65864270000E+03 0.  1.
    8880022    1    1    2    0    0  0.12937432738E+03 -0.21150529288E+03  0.98254318322E+03  0.10248194794E+04  0.15294330000E+03 0.  0.
<mgrwt>
<rscale>  0 0.56449511E+03</rscale>
<asrwt>0</asrwt>
<pdfrwt beam="1">  1        2 0.19842427E+00 0.70376304E+03</pdfrwt>
<pdfrwt beam="2">  1       -2 0.69840247E-01 0.70376304E+03</pdfrwt>
<totfact> 0.32096861E+01</totfact>
</mgrwt>
</event>
<event>
 4    2  0.3855935E-007  0.6954383E+03  0.7818608E-02  0.1001668E+00
         -2   -1    0    0    0  501 -0.00000000000E+00  0.00000000000E+00  0.23801102597E+03  0.23801102598E+03  0.25500000000E-02 0.  1.
          2   -1    0    0  501    0  0.00000000000E+00 -0.00000000000E+00 -0.15434337425E+04  0.15434337425E+04  0.25500000000E-02 0. -1.
    8880023    1    1    2    0    0  0.88246058558E+02  0.20502887845E+03 -0.33107682436E+03  0.77022482285E+03  0.65864270000E+03 0.  0.
    8880022    1    1    2    0    0 -0.88246058558E+02 -0.20502887845E+03 -0.97434589221E+03  0.10112199457E+04  0.15294330000E+03 0.  0.
<mgrwt>
<rscale>  0 0.54924941E+03</rscale>
<asrwt>0</asrwt>
<pdfrwt beam="1">  1        2 0.23745134E+00 0.69543829E+03</pdfrwt>
<pdfrwt beam="2">  1       -2 0.36617082E-01 0.69543829E+03</pdfrwt>
<totfact> 0.86383382E+01</totfact>
</mgrwt>
</event>
<event>
 4    2  0.3855935E-007  0.9319380E+03  0.7818608E-02  0.9476592E-01
         -2   -1    0    0    0  501 -0.00000000000E+00  0.00000000000E+00  0.91840232048E+03  0.91840232049E+03  0.25500000000E-02 0.  1.
          2   -1    0    0  501    0  0.00000000000E+00 -0.00000000000E+00 -0.88657341804E+03  0.88657341804E+03  0.25500000000E-02 0. -1.
    8880023    1    1    2    0    0  0.40765139468E+03  0.51818779812E+03 -0.38694119886E+03  0.10090747997E+04  0.65864270000E+03 0. -1.
    8880022    1    1    2    0    0 -0.40765139468E+03 -0.51818779812E+03  0.41877010130E+03  0.79590093885E+03  0.15294330000E+03 0.  0.
<mgrwt>
<rscale>  0 0.86031820E+03</rscale>
<asrwt>0</asrwt>
<pdfrwt beam="1">  1        2 0.13639591E+00 0.93193801E+03</pdfrwt>
<pdfrwt beam="2">  1       -2 0.14129266E+00 0.93193801E+03</pdfrwt>
<totfact> 0.10477624E+01</totfact>
</mgrwt>
</event>
<event>
 4    2  0.3855935E-007  0.7932998E+03  0.7818608E-02  0.9725475E-01
          2   -1    0    0  501    0  0.00000000000E+00  0.00000000000E+00  0.11010611361E+04  0.11010611361E+04  0.25500000000E-02 0. -1.
         -2   -1    0    0    0  501 -0.00000000000E+00 -0.00000000000E+00 -0.68999880104E+03  0.68999880105E+03  0.25500000000E-02 0.  1.
    8880023    1    1    2    0    0  0.40993902220E+03 -0.16572369357E+03 -0.37408601998E+03  0.87707747727E+03  0.65864270000E+03 0.  0.
    8880022    1    1    2    0    0 -0.40993902220E+03  0.16572369357E+03  0.78514835500E+03  0.91398245984E+03  0.15294330000E+03 0.  0.
<mgrwt>
<rscale>  0 0.69520072E+03</rscale>
<asrwt>0</asrwt>
<pdfrwt beam="1">  1        2 0.16939402E+00 0.79329979E+03</pdfrwt>
<pdfrwt beam="2">  1       -2 0.10615366E+00 0.79329979E+03</pdfrwt>
<totfact> 0.15780772E+01</totfact>
</mgrwt>
</event>
<event>
 4    2  0.3855935E-007  0.6796480E+03  0.7818608E-02  0.1009523E+00
         -2   -1    0    0    0  501 -0.00000000000E+00  0.00000000000E+00  0.30993814717E+03  0.30993814718E+03  0.25500000000E-02 0.  1.
          2   -1    0    0  501    0  0.00000000000E+00 -0.00000000000E+00 -0.91828296322E+03  0.91828296323E+03  0.25500000000E-02 0. -1.
    8880023    1    1    2    0    0  0.13486428897E+03  0.99613484075E+02 -0.12060142105E+03  0.69026526182E+03  0.65864270000E+03 0.  1.
    8880022    1    1    2    0    0 -0.13486428897E+03 -0.99613484075E+02 -0.48774339500E+03  0.53795584859E+03  0.15294330000E+03 0.  0.
<mgrwt>
<rscale>  0 0.51664470E+03</rscale>
<asrwt>0</asrwt>
<pdfrwt beam="1">  1        2 0.14127430E+00 0.67964802E+03</pdfrwt>
<pdfrwt beam="2">  1       -2 0.47682792E-01 0.67964802E+03</pdfrwt>
<totfact> 0.12083600E+02</totfact>
</mgrwt>
</event>
<event>
 4    2  0.3855935E-007  0.8666059E+03  0.7818608E-02  0.9581919E-01
         -2   -1    0    0    0  501 -0.00000000000E+00  0.00000000000E+00  0.37641121561E+03  0.37641121562E+03  0.25500000000E-02 0.  1.
          2   -1    0    0  501    0  0.00000000000E+00 -0.00000000000E+00 -0.17045176357E+04  0.17045176357E+04  0.25500000000E-02 0. -1.
    8880023    1    1    2    0    0 -0.33049921713E+03  0.45603264395E+03 -0.12053738055E+04  0.14845644890E+04  0.65864270000E+03 0. -1.
    8880022    1    1    2    0    0  0.33049921713E+03 -0.45603264395E+03 -0.12273261456E+03  0.59636436226E+03  0.15294330000E+03 0.  0.
<mgrwt>
<rscale>  0 0.78504536E+03</rscale>
<asrwt>0</asrwt>
<pdfrwt beam="1">  1        2 0.26223348E+00 0.86660586E+03</pdfrwt>
<pdfrwt beam="2">  1       -2 0.57909419E-01 0.86660586E+03</pdfrwt>
<totfact> 0.27581913E+01</totfact>
</mgrwt>
</event>
<event>
 4    2  0.3855935E-007  0.7449023E+03  0.7818608E-02  0.9845890E-01
         -2   -1    0    0    0  501 -0.00000000000E+00  0.00000000000E+00  0.10906214232E+03  0.10906214235E+03  0.25500000000E-02 0.  1.
          2   -1    0    0  501    0  0.00000000000E+00 -0.00000000000E+00 -0.49931882309E+04  0.49931882309E+04  0.25500000000E-02 0. -1.
    8880023    1    1    2    0    0  0.33726880447E+03 -0.85551015190E+02 -0.13020886994E+04  0.15001047996E+04  0.65864270000E+03 0.  0.
    8880022    1    1    2    0    0 -0.33726880447E+03  0.85551015190E+02 -0.35820373892E+04  0.36021455736E+04  0.15294330000E+03 0.  0.
<mgrwt>
<rscale>  0 0.62956890E+03</rscale>
<asrwt>0</asrwt>
<pdfrwt beam="1">  1        2 0.76818263E+00 0.74490229E+03</pdfrwt>
<pdfrwt beam="2">  1       -2 0.16778795E-01 0.74490229E+03</pdfrwt>
<totfact> 0.11887562E+00</totfact>
</mgrwt>
</event>
<event>
 4    2  0.3855935E-007  0.7732772E+03  0.7818608E-02  0.9771873E-01
         -2   -1    0    0    0  501 -0.00000000000E+00  0.00000000000E+00  0.72568540880E+03  0.72568540880E+03  0.25500000000E-02 0.  1.
          2   -1    0    0  501    0  0.00000000000E+00 -0.00000000000E+00 -0.98618993300E+03  0.98618993301E+03  0.25500000000E-02 0. -1.
    8880023    1    1    2    0    0  0.32354475255E+03 -0.24385702206E+03  0.43897610543E+03  0.88918933952E+03  0.65864270000E+03 0.  0.
    8880022    1    1    2    0    0 -0.32354475255E+03  0.24385702206E+03 -0.69948062964E+03  0.82268600229E+03  0.15294330000E+03 0.  0.
<mgrwt>
<rscale>  0 0.66894112E+03</rscale>
<asrwt>0</asrwt>
<pdfrwt beam="1">  1        2 0.15172153E+00 0.77327722E+03</pdfrwt>
<pdfrwt beam="2">  1       -2 0.11164391E+00 0.77327722E+03</pdfrwt>
<totfact> 0.16524276E+01</totfact>
</mgrwt>
</event>
<event>
 4    2  0.3855935E-007  0.8115452E+03  0.7818608E-02  0.9686367E-01
         -2   -1    0    0    0  501 -0.00000000000E+00  0.00000000000E+00  0.85153885619E+03  0.85153885619E+03  0.25500000000E-02 0.  1.
          2   -1    0    0  501    0  0.00000000000E+00 -0.00000000000E+00 -0.82486709934E+03  0.82486709934E+03  0.25500000000E-02 0. -1.
    8880023    1    1    2    0    0 -0.11244348730E+03  0.46059938317E+03  0.52915651402E+03  0.96881997926E+03  0.65864270000E+03 0.  1.
    8880022    1    1    2    0    0  0.11244348730E+03 -0.46059938317E+03 -0.50248475718E+03  0.70758597627E+03  0.15294330000E+03 0.  0.
<mgrwt>
<rscale>  0 0.71834304E+03</rscale>
<asrwt>0</asrwt>
<pdfrwt beam="1">  1        2 0.12690263E+00 0.81154515E+03</pdfrwt>
<pdfrwt beam="2">  1       -2 0.13100598E+00 0.81154515E+03</pdfrwt>
<totfact> 0.14207186E+01</totfact>
</mgrwt>
</event>
<event>
 4    2  0.3855935E-007  0.7156787E+03  0.7818608E-02  0.9937489E-01
         -2   -1    0    0    0  501 -0.00000000000E+00  0.00000000000E+00  0.18230029989E+04  0.18230029989E+04  0.25500000000E-02 0.  1.
          2   -1    0    0  501    0  0.00000000000E+00 -0.00000000000E+00 -0.21784677834E+03  0.21784677836E+03  0.25500000000E-02 0. -1.
    8880023    1    1    2    0    0  0.27304704845E+03 -0.61895788945E+02  0.15629890416E+04  0.17190493681E+04  0.65864270000E+03 0.  1.
    8880022    1    1    2    0    0 -0.27304704845E+03  0.61895788945E+02  0.42167178929E+02  0.32180040918E+03  0.15294330000E+03 0.  0.
<mgrwt>
<rscale>  0 0.58478335E+03</rscale>
<asrwt>0</asrwt>
<pdfrwt beam="1">  1        2 0.33514889E-01 0.71567869E+03</pdfrwt>
<pdfrwt beam="2">  1       -2 0.28046200E+00 0.71567869E+03</pdfrwt>
<totfact> 0.68198192E+00</totfact>
</mgrwt>
</event>
<event>
 4    2  0.3855935E-007  0.1573664E+04  0.7818608E-02  0.8859298E-01
          2   -1    0    0  501    0  0.00000000000E+00  0.00000000000E+00  0.17648355737E+04  0.17648355737E+04  0.25500000000E-02 0. -1.
         -2   -1    0    0    0  501 -0.00000000000E+00 -0.00000000000E+00 -0.17528707127E+04  0.17528707128E+04  0.25500000000E-02 0.  1.
    8880023    1    1    2    0    0  0.13890822551E+04 -0.33624229263E+03  0.91487880189E+03  0.18202806979E+04  0.65864270000E+03 0.  0.
    8880022    1    1    2    0    0 -0.13890822551E+04  0.33624229263E+03 -0.90291394097E+03  0.16974255885E+04  0.15294330000E+03 0.  0.
<mgrwt>
<rscale>  0 0.15384214E+04</rscale>
<asrwt>0</asrwt>
<pdfrwt beam="1">  1        2 0.27151317E+00 0.15736641E+04</pdfrwt>
<pdfrwt beam="2">  1       -2 0.26967242E+00 0.15736641E+04</pdfrwt>
<totfact> 0.40924378E-01</totfact>
</mgrwt>
</event>
<event>
 4    2  0.3855935E-007  0.8685807E+03  0.7818608E-02  0.9578478E-01
          2   -1    0    0  501    0  0.00000000000E+00  0.00000000000E+00  0.31406485796E+04  0.31406485796E+04  0.25500000000E-02 0. -1.
         -2   -1    0    0    0  501 -0.00000000000E+00 -0.00000000000E+00 -0.52439321919E+03  0.52439321919E+03  0.25500000000E-02 0.  1.
    8880023    1    1    2    0    0 -0.56125078328E+03  0.74965680516E+02 -0.11080536440E+03  0.87561996895E+03  0.65864270000E+03 0.  0.
    8880022    1    1    2    0    0  0.56125078328E+03 -0.74965680516E+02  0.27270607249E+04  0.27894218299E+04  0.15294330000E+03 0.  0.
<mgrwt>
<rscale>  0 0.78737143E+03</rscale>
<asrwt>0</asrwt>
<pdfrwt beam="1">  1        2 0.48317672E+00 0.86858074E+03</pdfrwt>
<pdfrwt beam="2">  1       -2 0.80675878E-01 0.86858074E+03</pdfrwt>
<totfact> 0.20138947E+00</totfact>
</mgrwt>
</event>
<event>
 4    2  0.3855935E-007  0.6886835E+03  0.7818608E-02  0.1004785E+00
          2   -1    0    0  501    0  0.00000000000E+00  0.00000000000E+00  0.52397849284E+03  0.52397849285E+03  0.25500000000E-02 0. -1.
         -2   -1    0    0    0  501 -0.00000000000E+00 -0.00000000000E+00 -0.60975106455E+03  0.60975106456E+03  0.25500000000E-02 0.  1.
    8880023    1    1    2    0    0  0.58522648353E+02  0.19248353648E+03 -0.34623039629E+03  0.77081807566E+03  0.65864270000E+03 0.  1.
    8880022    1    1    2    0    0 -0.58522648353E+02 -0.19248353648E+03  0.26045782458E+03  0.36291148175E+03  0.15294330000E+03 0.  0.
<mgrwt>
<rscale>  0 0.53601123E+03</rscale>
<asrwt>0</asrwt>
<pdfrwt beam="1">  1        2 0.80612075E-01 0.68868354E+03</pdfrwt>
<pdfrwt beam="2">  1       -2 0.93807857E-01 0.68868354E+03</pdfrwt>
<totfact> 0.56851447E+01</totfact>
</mgrwt>
</event>
<event>
 4    2  0.3855935E-007  0.8667747E+03  0.7818608E-02  0.9581624E-01
          2   -1    0    0  501    0  0.00000000000E+00  0.00000000000E+00  0.25431197483E+04  0.25431197483E+04  0.25500000000E-02 0. -1.
         -2   -1    0    0    0  501 -0.00000000000E+00 -0.00000000000E+00 -0.38378454354E+03  0.38378454355E+03  0.25500000000E-02 0.  1.
    8880023    1    1    2    0    0  0.29112609552E+03  0.48242496220E+03  0.20977772990E+03  0.89179882814E+03  0.65864270000E+03 0.  0.
    8880022    1    1    2    0    0 -0.29112609552E+03 -0.48242496220E+03  0.19495574749E+04  0.20351054637E+04  0.15294330000E+03 0.  0.
<mgrwt>
<rscale>  0 0.78524442E+03</rscale>
<asrwt>0</asrwt>
<pdfrwt beam="1">  1        2 0.39124920E+00 0.86677474E+03</pdfrwt>
<pdfrwt beam="2">  1       -2 0.59043775E-01 0.86677474E+03</pdfrwt>
<totfact> 0.90759577E+00</totfact>
</mgrwt>
</event>
<event>
 4    2  0.3855935E-007  0.1137321E+04  0.7818608E-02  0.9220599E-01
          2   -1    0    0  501    0  0.00000000000E+00  0.00000000000E+00  0.20021439457E+04  0.20021439457E+04  0.25500000000E-02 0. -1.
         -2   -1    0    0    0  501 -0.00000000000E+00 -0.00000000000E+00 -0.97622576771E+03  0.97622576772E+03  0.25500000000E-02 0.  1.
    8880023    1    1    2    0    0 -0.65904267468E+03  0.65218955656E+03 -0.45458992501E+03  0.12248063810E+04  0.65864270000E+03 0.  0.
    8880022    1    1    2    0    0  0.65904267468E+03 -0.65218955656E+03  0.14805081030E+04  0.17535633324E+04  0.15294330000E+03 0.  0.
<mgrwt>
<rscale>  0 0.10843320E+04</rscale>
<asrwt>0</asrwt>
<pdfrwt beam="1">  1        2 0.30802215E+00 0.11373208E+04</pdfrwt>
<pdfrwt beam="2">  1       -2 0.15018858E+00 0.11373208E+04</pdfrwt>
<totfact> 0.19507825E+00</totfact>
</mgrwt>
</event>
<event>
 4    2  0.3855935E-007  0.7264429E+03  0.7818608E-02  0.9901359E-01
          2   -1    0    0  501    0  0.00000000000E+00  0.00000000000E+00  0.14011501592E+04  0.14011501592E+04  0.25500000000E-02 0. -1.
         -2   -1    0    0    0  501 -0.00000000000E+00 -0.00000000000E+00 -0.10558500530E+04  0.10558500530E+04  0.25500000000E-02 0.  1.
    8880023    1    1    2    0    0 -0.10126374218E+03 -0.28923138444E+03 -0.90508389058E+03  0.11605585700E+04  0.65864270000E+03 0.  1.
    8880022    1    1    2    0    0  0.10126374218E+03  0.28923138444E+03  0.12503839968E+04  0.12964416422E+04  0.15294330000E+03 0.  0.
<mgrwt>
<rscale>  0 0.60195462E+03</rscale>
<asrwt>0</asrwt>
<pdfrwt beam="1">  1        2 0.21556156E+00 0.72644294E+03</pdfrwt>
<pdfrwt beam="2">  1       -2 0.16243847E+00 0.72644294E+03</pdfrwt>
<totfact> 0.35954112E+00</totfact>
</mgrwt>
</event>
<event>
 4    2  0.3855935E-007  0.9180434E+03  0.7818608E-02  0.9497666E-01
         -2   -1    0    0    0  501 -0.00000000000E+00  0.00000000000E+00  0.30997186469E+03  0.30997186470E+03  0.25500000000E-02 0.  1.
          2   -1    0    0  501    0  0.00000000000E+00 -0.00000000000E+00 -0.26106492863E+04  0.26106492863E+04  0.25500000000E-02 0. -1.
    8880023    1    1    2    0    0 -0.38013512819E+03 -0.51428671378E+03 -0.59864257769E+03  0.10959820627E+04  0.65864270000E+03 0.  0.
    8880022    1    1    2    0    0  0.38013512819E+03  0.51428671378E+03 -0.17020348439E+04  0.18246390883E+04  0.15294330000E+03 0.  0.
<mgrwt>
<rscale>  0 0.84456149E+03</rscale>
<asrwt>0</asrwt>
<pdfrwt beam="1">  1        2 0.40163834E+00 0.91804343E+03</pdfrwt>
<pdfrwt beam="2">  1       -2 0.47687981E-01 0.91804343E+03</pdfrwt>
<totfact> 0.12811091E+01</totfact>
</mgrwt>
</event>
<event>
 4    2  0.3855935E-007  0.7326576E+03  0.7818608E-02  0.9881875E-01
         -2   -1    0    0    0  501 -0.00000000000E+00  0.00000000000E+00  0.46163325373E+03  0.46163325374E+03  0.25500000000E-02 0.  1.
          2   -1    0    0  501    0  0.00000000000E+00 -0.00000000000E+00 -0.11969578840E+04  0.11969578840E+04  0.25500000000E-02 0. -1.
    8880023    1    1    2    0    0 -0.17792917538E+03  0.26705456768E+03  0.11064709803E+03  0.74096553236E+03  0.65864270000E+03 0.  0.
    8880022    1    1    2    0    0  0.17792917538E+03 -0.26705456768E+03 -0.84597172833E+03  0.91762560542E+03  0.15294330000E+03 0.  0.
<mgrwt>
<rscale>  0 0.61147778E+03</rscale>
<asrwt>0</asrwt>
<pdfrwt beam="1">  1        2 0.18414737E+00 0.73265759E+03</pdfrwt>
<pdfrwt beam="2">  1       -2 0.71020501E-01 0.73265759E+03</pdfrwt>
<totfact> 0.34946719E+01</totfact>
</mgrwt>
</event>
<event>
 4    2  0.3855935E-007  0.7808255E+03  0.7818608E-02  0.9753901E-01
          2   -1    0    0  501    0  0.00000000000E+00  0.00000000000E+00  0.13447742880E+04  0.13447742880E+04  0.25500000000E-02 0. -1.
         -2   -1    0    0    0  501 -0.00000000000E+00 -0.00000000000E+00 -0.35090630037E+03  0.35090630037E+03  0.25500000000E-02 0.  1.
    8880023    1    1    2    0    0 -0.34792634421E+03  0.23414840965E+03  0.23529285767E+03  0.81550668536E+03  0.65864270000E+03 0.  1.
    8880022    1    1    2    0    0  0.34792634421E+03 -0.23414840965E+03  0.75857512999E+03  0.88017390303E+03  0.15294330000E+03 0.  0.
<mgrwt>
<rscale>  0 0.67896234E+03</rscale>
<asrwt>0</asrwt>
<pdfrwt beam="1">  1        2 0.20688835E+00 0.78082548E+03</pdfrwt>
<pdfrwt beam="2">  1       -2 0.53985585E-01 0.78082548E+03</pdfrwt>
<totfact> 0.51142502E+01</totfact>
</mgrwt>
</event>
<event>
 4    2  0.3855935E-007  0.6821714E+03  0.7818608E-02  0.1008121E+00
          2   -1    0    0  501    0  0.00000000000E+00  0.00000000000E+00  0.11298785403E+04  0.11298785403E+04  0.25500000000E-02 0. -1.
         -2   -1    0    0    0  501 -0.00000000000E+00 -0.00000000000E+00 -0.55564099473E+03  0.55564099473E+03  0.25500000000E-02 0.  1.
    8880023    1    1    2    0    0  0.16752927474E+03  0.59004373609E+02 -0.32543078343E+03  0.75581940638E+03  0.65864270000E+03 0.  1.
    8880022    1    1    2    0    0 -0.16752927474E+03 -0.59004373609E+02  0.89966832899E+03  0.92970012865E+03  0.15294330000E+03 0.  0.
<mgrwt>
<rscale>  0 0.52228245E+03</rscale>
<asrwt>0</asrwt>
<pdfrwt beam="1">  1        2 0.17382747E+00 0.68217137E+03</pdfrwt>
<pdfrwt beam="2">  1       -2 0.85483230E-01 0.68217137E+03</pdfrwt>
<totfact> 0.25474176E+01</totfact>
</mgrwt>
</event>
<event>
 4    2  0.3855935E-007  0.7912248E+03  0.7818608E-02  0.9730101E-01
         -2   -1    0    0    0  501 -0.00000000000E+00  0.00000000000E+00  0.34626094085E+03  0.34626094086E+03  0.25500000000E-02 0.  1.
          2   -1    0    0  501    0  0.00000000000E+00 -0.00000000000E+00 -0.25263446368E+04  0.25263446368E+04  0.25500000000E-02 0. -1.
    8880023    1    1    2    0    0  0.43833365319E+03 -0.94907992435E+01 -0.16960333524E+03  0.80919834675E+03  0.65864270000E+03 0.  1.
    8880022    1    1    2    0    0 -0.43833365319E+03  0.94907992435E+01 -0.20104803607E+04  0.20634072309E+04  0.15294330000E+03 0.  0.
<mgrwt>
<rscale>  0 0.69252519E+03</rscale>
<asrwt>0</asrwt>
<pdfrwt beam="1">  1        2 0.38866839E+00 0.79122479E+03</pdfrwt>
<pdfrwt beam="2">  1       -2 0.53270916E-01 0.79122479E+03</pdfrwt>
<totfact> 0.11632002E+01</totfact>
</mgrwt>
</event>
<event>
 4    2  0.3855935E-007  0.7451316E+03  0.7818608E-02  0.9845244E-01
          2   -1    0    0  501    0  0.00000000000E+00  0.00000000000E+00  0.13456651569E+04  0.13456651569E+04  0.25500000000E-02 0. -1.
         -2   -1    0    0    0  501 -0.00000000000E+00 -0.00000000000E+00 -0.29331864841E+03  0.29331864842E+03  0.25500000000E-02 0.  1.
    8880023    1    1    2    0    0  0.23283262805E+03 -0.25922930095E+03  0.31448557210E+03  0.80877824185E+03  0.65864270000E+03 0.  1.
    8880022    1    1    2    0    0 -0.23283262805E+03  0.25922930095E+03  0.73786093639E+03  0.83020556347E+03  0.15294330000E+03 0. -1.
<mgrwt>
<rscale>  0 0.62990019E+03</rscale>
<asrwt>0</asrwt>
<pdfrwt beam="1">  1        2 0.20702541E+00 0.74513158E+03</pdfrwt>
<pdfrwt beam="2">  1       -2 0.45125945E-01 0.74513158E+03</pdfrwt>
<totfact> 0.73763987E+01</totfact>
</mgrwt>
</event>
<event>
 4    2  0.3855935E-007  0.7951997E+03  0.7818608E-02  0.9721273E-01
         -2   -1    0    0    0  501 -0.00000000000E+00  0.00000000000E+00  0.30532054378E+03  0.30532054379E+03  0.25500000000E-02 0.  1.
          2   -1    0    0  501    0  0.00000000000E+00 -0.00000000000E+00 -0.15794698135E+04  0.15794698135E+04  0.25500000000E-02 0. -1.
    8880023    1    1    2    0    0  0.44400657397E+03  0.37289174619E+02 -0.39619439515E+03  0.88843262282E+03  0.65864270000E+03 0.  1.
    8880022    1    1    2    0    0 -0.44400657397E+03 -0.37289174619E+02 -0.87795487455E+03  0.99635773447E+03  0.15294330000E+03 0.  0.
<mgrwt>
<rscale>  0 0.69764209E+03</rscale>
<asrwt>0</asrwt>
<pdfrwt beam="1">  1        2 0.24299535E+00 0.79519968E+03</pdfrwt>
<pdfrwt beam="2">  1       -2 0.46972392E-01 0.79519968E+03</pdfrwt>
<totfact> 0.50085804E+01</totfact>
</mgrwt>
</event>
<event>
 4    2  0.3855935E-007  0.6897660E+03  0.7818608E-02  0.1004264E+00
          2   -1    0    0  501    0  0.00000000000E+00  0.00000000000E+00  0.20963131669E+04  0.20963131669E+04  0.25500000000E-02 0. -1.
         -2   -1    0    0    0  501 -0.00000000000E+00 -0.00000000000E+00 -0.57430474653E+03  0.57430474654E+03  0.25500000000E-02 0.  1.
    8880023    1    1    2    0    0 -0.69755518538E+02 -0.19261629590E+03 -0.35535907523E+03  0.77592341660E+03  0.65864270000E+03 0.  1.
    8880022    1    1    2    0    0  0.69755518538E+02  0.19261629590E+03  0.18773674956E+04  0.18946944968E+04  0.15294330000E+03 0.  0.
<mgrwt>
<rscale>  0 0.53819430E+03</rscale>
<asrwt>0</asrwt>
<pdfrwt beam="1">  1        2 0.32250972E+00 0.68976596E+03</pdfrwt>
<pdfrwt beam="2">  1       -2 0.88354576E-01 0.68976596E+03</pdfrwt>
<totfact> 0.68284515E+00</totfact>
</mgrwt>
</event>
<event>
 4    2  0.3855935E-007  0.7362039E+03  0.7818608E-02  0.9871146E-01
          2   -1    0    0  501    0  0.00000000000E+00  0.00000000000E+00  0.20641575613E+04  0.20641575613E+04  0.25500000000E-02 0. -1.
         -2   -1    0    0    0  501 -0.00000000000E+00 -0.00000000000E+00 -0.19196657319E+03  0.19196657321E+03  0.25500000000E-02 0.  1.
    8880023    1    1    2    0    0  0.23783996987E+03 -0.22719619087E+03  0.65286313085E+03  0.98398497666E+03  0.65864270000E+03 0.  1.
    8880022    1    1    2    0    0 -0.23783996987E+03  0.22719619087E+03  0.12193278572E+04  0.12721391578E+04  0.15294330000E+03 0.  0.
<mgrwt>
<rscale>  0 0.61680279E+03</rscale>
<asrwt>0</asrwt>
<pdfrwt beam="1">  1        2 0.31756273E+00 0.73620389E+03</pdfrwt>
<pdfrwt beam="2">  1       -2 0.29533316E-01 0.73620389E+03</pdfrwt>
<totfact> 0.66971800E+01</totfact>
</mgrwt>
</event>
<event>
 4    2  0.4924600E-007  0.1175699E+04  0.7818608E-02  0.9181114E-01
         -2   -1    0    0    0  501 -0.00000000000E+00  0.00000000000E+00  0.25971644850E+04  0.25971644850E+04  0.25500000000E-02 0.  1.
          2   -1    0    0  501    0  0.00000000000E+00 -0.00000000000E+00 -0.15165478774E+04  0.15165478774E+04  0.25500000000E-02 0. -1.
    8880023    1    1    2    0    0  0.64124573304E+02  0.97177441559E+03  0.22775282271E+04  0.25630845689E+04  0.65864270000E+03 0.  0.
    8880022    1    1    2    0    0 -0.64124573304E+02 -0.97177441559E+03 -0.11969116196E+04  0.15506277935E+04  0.15294330000E+03 0.  0.
<mgrwt>
<rscale>  0 0.11250502E+04</rscale>
<asrwt>0</asrwt>
<pdfrwt beam="1">  1        2 0.23331506E+00 0.11756988E+04</pdfrwt>
<pdfrwt beam="2">  1       -2 0.39956376E+00 0.11756988E+04</pdfrwt>
<totfact> 0.91634437E-02</totfact>
</mgrwt>
</event>
<event>
 4    2  0.3855935E-007  0.1190396E+04  0.7818608E-02  0.9166515E-01
          2   -1    0    0  501    0  0.00000000000E+00  0.00000000000E+00  0.21617097026E+04  0.21617097026E+04  0.25500000000E-02 0. -1.
         -2   -1    0    0    0  501 -0.00000000000E+00 -0.00000000000E+00 -0.57209750007E+03  0.57209750008E+03  0.25500000000E-02 0.  1.
    8880023    1    1    2    0    0 -0.88223770514E+03  0.45264566363E+03  0.10853459187E+04  0.16109057808E+04  0.65864270000E+03 0. -1.
    8880022    1    1    2    0    0  0.88223770514E+03 -0.45264566363E+03  0.50426628379E+03  0.11229014218E+04  0.15294330000E+03 0.  1.
<mgrwt>
<rscale>  0 0.11405829E+04</rscale>
<asrwt>0</asrwt>
<pdfrwt beam="1">  1        2 0.33257072E+00 0.11903956E+04</pdfrwt>
<pdfrwt beam="2">  1       -2 0.88015001E-01 0.11903956E+04</pdfrwt>
<totfact> 0.59324999E+00</totfact>
</mgrwt>
</event>
<event>
 4    2  0.3855935E-007  0.1186401E+04  0.7818608E-02  0.9170456E-01
         -2   -1    0    0    0  501 -0.00000000000E+00  0.00000000000E+00  0.11445965844E+04  0.11445965844E+04  0.25500000000E-02 0.  1.
          2   -1    0    0  501    0  0.00000000000E+00 -0.00000000000E+00 -0.14762658964E+04  0.14762658964E+04  0.25500000000E-02 0. -1.
    8880023    1    1    2    0    0  0.84109841098E+03 -0.51603336044E+03  0.53237175970E+03  0.13003718171E+04  0.65864270000E+03 0. -1.
    8880022    1    1    2    0    0 -0.84109841098E+03  0.51603336044E+03 -0.86404107168E+03  0.13204906636E+04  0.15294330000E+03 0.  0.
<mgrwt>
<rscale>  0 0.11363641E+04</rscale>
<asrwt>0</asrwt>
<pdfrwt beam="1">  1        2 0.22711783E+00 0.11864009E+04</pdfrwt>
<pdfrwt beam="2">  1       -2 0.17609178E+00 0.11864009E+04</pdfrwt>
<totfact> 0.24565130E+00</totfact>
</mgrwt>
</event>
<event>
 4    2  0.3855935E-007  0.6994446E+03  0.7818608E-02  0.9999513E-01
         -2   -1    0    0    0  501 -0.00000000000E+00  0.00000000000E+00  0.10837050429E+04  0.10837050429E+04  0.25500000000E-02 0.  1.
          2   -1    0    0  501    0  0.00000000000E+00 -0.00000000000E+00 -0.45978082168E+03  0.45978082168E+03  0.25500000000E-02 0. -1.
    8880023    1    1    2    0    0 -0.23227155038E+03 -0.38242767113E+02  0.90663253789E+03  0.11450787516E+04  0.65864270000E+03 0.  1.
    8880022    1    1    2    0    0  0.23227155038E+03  0.38242767113E+02 -0.28270831666E+03  0.39840711299E+03  0.15294330000E+03 0.  0.
<mgrwt>
<rscale>  0 0.55671600E+03</rscale>
<asrwt>0</asrwt>
<pdfrwt beam="1">  1        2 0.70735511E-01 0.69944463E+03</pdfrwt>
<pdfrwt beam="2">  1       -2 0.16672385E+00 0.69944463E+03</pdfrwt>
<totfact> 0.15565520E+01</totfact>
</mgrwt>
</event>
<event>
 4    2  0.3855935E-007  0.6648964E+03  0.7818608E-02  0.1019620E+00
         -2   -1    0    0    0  501 -0.00000000000E+00  0.00000000000E+00  0.99358769261E+02  0.99358769293E+02  0.25500000000E-02 0.  1.
          2   -1    0    0  501    0  0.00000000000E+00 -0.00000000000E+00 -0.24985865592E+04  0.24985865592E+04  0.25500000000E-02 0. -1.
    8880023    1    1    2    0    0  0.90854123245E+02  0.47543941904E+01 -0.10907981117E+04  0.12774692962E+04  0.65864270000E+03 0.  1.
    8880022    1    1    2    0    0 -0.90854123245E+02 -0.47543941904E+01 -0.13084296782E+04  0.13204760323E+04  0.15294330000E+03 0.  0.
<mgrwt>
<rscale>  0 0.47823828E+03</rscale>
<asrwt>0</asrwt>
<pdfrwt beam="1">  1        2 0.38439789E+00 0.66489644E+03</pdfrwt>
<pdfrwt beam="2">  1       -2 0.15285966E-01 0.66489644E+03</pdfrwt>
<totfact> 0.12408869E+02</totfact>
</mgrwt>
</event>
<event>
 4    2  0.3855935E-007  0.6835562E+03  0.7818608E-02  0.1007380E+00
         -2   -1    0    0    0  501 -0.00000000000E+00  0.00000000000E+00  0.32556646318E+03  0.32556646319E+03  0.25500000000E-02 0.  1.
          2   -1    0    0  501    0  0.00000000000E+00 -0.00000000000E+00 -0.17456549429E+04  0.17456549429E+04  0.25500000000E-02 0. -1.
    8880023    1    1    2    0    0  0.12019324933E+03  0.13781292361E+03 -0.55322446123E+02  0.68579122071E+03  0.65864270000E+03 0.  0.
    8880022    1    1    2    0    0 -0.12019324933E+03 -0.13781292361E+03 -0.13647660336E+04  0.13854301854E+04  0.15294330000E+03 0.  0.
<mgrwt>
<rscale>  0 0.52529505E+03</rscale>
<asrwt>0</asrwt>
<pdfrwt beam="1">  1        2 0.26856229E+00 0.68355616E+03</pdfrwt>
<pdfrwt beam="2">  1       -2 0.50087149E-01 0.68355616E+03</pdfrwt>
<totfact> 0.36119117E+01</totfact>
</mgrwt>
</event>
<event>
 4    2  0.3855935E-007  0.1115649E+04  0.7818608E-02  0.9243830E-01
          2   -1    0    0  501    0  0.00000000000E+00  0.00000000000E+00  0.14095866952E+04  0.14095866952E+04  0.25500000000E-02 0. -1.
         -2   -1    0    0    0  501 -0.00000000000E+00 -0.00000000000E+00 -0.87857013132E+03  0.87857013132E+03  0.25500000000E-02 0.  1.
    8880023    1    1    2    0    0 -0.36426704348E+03  0.82351233691E+03 -0.18075339747E+03  0.11301969054E+04  0.65864270000E+03 0.  1.
    8880022    1    1    2    0    0  0.36426704348E+03 -0.82351233691E+03  0.71176996133E+03  0.11579599211E+04  0.15294330000E+03 0.  0.
<mgrwt>
<rscale>  0 0.10612265E+04</rscale>
<asrwt>0</asrwt>
<pdfrwt beam="1">  1        2 0.21685949E+00 0.11156493E+04</pdfrwt>
<pdfrwt beam="2">  1       -2 0.13516464E+00 0.11156493E+04</pdfrwt>
<totfact> 0.55133763E+00</totfact>
</mgrwt>
</event>
<event>
 4    2  0.3855935E-007  0.9828601E+03  0.7818608E-02  0.9404334E-01
         -2   -1    0    0    0  501 -0.00000000000E+00  0.00000000000E+00  0.11799005424E+04  0.11799005424E+04  0.25500000000E-02 0.  1.
          2   -1    0    0  501    0  0.00000000000E+00 -0.00000000000E+00 -0.63300188588E+03  0.63300188588E+03  0.25500000000E-02 0. -1.
    8880023    1    1    2    0    0  0.33072392211E+01  0.72951544697E+03  0.32469932513E+03  0.10351055904E+04  0.65864270000E+03 0.  0.
    8880022    1    1    2    0    0 -0.33072392211E+01 -0.72951544697E+03  0.22219933140E+03  0.77779683793E+03  0.15294330000E+03 0. -1.
<mgrwt>
<rscale>  0 0.91719906E+03</rscale>
<asrwt>0</asrwt>
<pdfrwt beam="1">  1        2 0.97384906E-01 0.98286008E+03</pdfrwt>
<pdfrwt beam="2">  1       -2 0.18152316E+00 0.98286008E+03</pdfrwt>
<totfact> 0.81792183E+00</totfact>
</mgrwt>
</event>
<event>
 4    2  0.3855935E-007  0.1065542E+04  0.7818608E-02  0.9300427E-01
         -2   -1    0    0    0  501 -0.00000000000E+00  0.00000000000E+00  0.60455182411E+03  0.60455182411E+03  0.25500000000E-02 0.  1.
          2   -1    0    0  501    0  0.00000000000E+00 -0.00000000000E+00 -0.23058370441E+04  0.23058370441E+04  0.25500000000E-02 0. -1.
    8880023    1    1    2    0    0  0.83475736243E+03  0.68916605177E+02 -0.17594585785E+04  0.20569574736E+04  0.65864270000E+03 0.  0.
    8880022    1    1    2    0    0 -0.83475736243E+03 -0.68916605177E+02  0.58173358506E+02  0.85343139458E+03  0.15294330000E+03 0.  0.
<mgrwt>
<rscale>  0 0.10074355E+04</rscale>
<asrwt>0</asrwt>
<pdfrwt beam="1">  1        2 0.35474416E+00 0.10655419E+04</pdfrwt>
<pdfrwt beam="2">  1       -2 0.93007974E-01 0.10655419E+04</pdfrwt>
<totfact> 0.43943801E+00</totfact>
</mgrwt>
</event>
<event>
 4    2  0.3855935E-007  0.6633706E+03  0.7818608E-02  0.1020941E+00
         -2   -1    0    0    0  501 -0.00000000000E+00  0.00000000000E+00  0.24723368627E+03  0.24723368628E+03  0.25500000000E-02 0.  1.
          2   -1    0    0  501    0  0.00000000000E+00 -0.00000000000E+00 -0.11087496165E+04  0.11087496165E+04  0.25500000000E-02 0. -1.
    8880023    1    1    2    0    0 -0.77238383483E+02  0.16870504693E+02 -0.23108806367E+03  0.70246870482E+03  0.65864270000E+03 0.  1.
    8880022    1    1    2    0    0  0.77238383483E+02 -0.16870504693E+02 -0.63042786657E+03  0.65351459798E+03  0.15294330000E+03 0.  0.
<mgrwt>
<rscale>  0 0.47348441E+03</rscale>
<asrwt>0</asrwt>
<pdfrwt beam="1">  1        2 0.17057686E+00 0.66337063E+03</pdfrwt>
<pdfrwt beam="2">  1       -2 0.38035952E-01 0.66337063E+03</pdfrwt>
<totfact> 0.14308102E+02</totfact>
</mgrwt>
</event>
<event>
 4    2  0.3855935E-007  0.9678929E+03  0.7818608E-02  0.9424824E-01
          2   -1    0    0  501    0  0.00000000000E+00  0.00000000000E+00  0.27880664182E+04  0.27880664182E+04  0.25500000000E-02 0. -1.
         -2   -1    0    0    0  501 -0.00000000000E+00 -0.00000000000E+00 -0.30436794339E+03  0.30436794340E+03  0.25500000000E-02 0.  1.
    8880023    1    1    2    0    0  0.38635384465E+03  0.59475810799E+03  0.78821909193E+03  0.12482411800E+04  0.65864270000E+03 0.  0.
    8880022    1    1    2    0    0 -0.38635384465E+03 -0.59475810799E+03  0.16954793829E+04  0.18441931816E+04  0.15294330000E+03 0.  0.
<mgrwt>
<rscale>  0 0.90060588E+03</rscale>
<asrwt>0</asrwt>
<pdfrwt beam="1">  1        2 0.42893330E+00 0.96789292E+03</pdfrwt>
<pdfrwt beam="2">  1       -2 0.46825837E-01 0.96789292E+03</pdfrwt>
<totfact> 0.10393032E+01</totfact>
</mgrwt>
</event>
<event>
 4    2  0.3855935E-007  0.6680040E+03  0.7818608E-02  0.1017136E+00
          2   -1    0    0  501    0  0.00000000000E+00  0.00000000000E+00  0.63651850548E+03  0.63651850549E+03  0.25500000000E-02 0. -1.
         -2   -1    0    0    0  501 -0.00000000000E+00 -0.00000000000E+00 -0.55405314906E+03  0.55405314907E+03  0.25500000000E-02 0.  1.
    8880023    1    1    2    0    0 -0.79653325351E+02 -0.77938819214E+02 -0.32383741703E+03  0.74236109186E+03  0.65864270000E+03 0.  1.
    8880022    1    1    2    0    0  0.79653325351E+02  0.77938819214E+02  0.40630277345E+03  0.44821056269E+03  0.15294330000E+03 0.  0.
<mgrwt>
<rscale>  0 0.48734441E+03</rscale>
<asrwt>0</asrwt>
<pdfrwt beam="1">  1        2 0.97925923E-01 0.66800398E+03</pdfrwt>
<pdfrwt beam="2">  1       -2 0.85238946E-01 0.66800398E+03</pdfrwt>
<totfact> 0.56269034E+01</totfact>
</mgrwt>
</event>
<event>
 4    2  0.3855935E-007  0.7677945E+03  0.7818608E-02  0.9785331E-01
          2   -1    0    0  501    0  0.00000000000E+00  0.00000000000E+00  0.10135257369E+04  0.10135257369E+04  0.25500000000E-02 0. -1.
         -2   -1    0    0    0  501 -0.00000000000E+00 -0.00000000000E+00 -0.55687413285E+03  0.55687413285E+03  0.25500000000E-02 0.  1.
    8880023    1    1    2    0    0  0.25632412608E+03  0.29999342593E+03 -0.19612650188E+03  0.79244805774E+03  0.65864270000E+03 0.  1.
    8880022    1    1    2    0    0 -0.25632412608E+03 -0.29999342593E+03  0.65277810594E+03  0.77795181202E+03  0.15294330000E+03 0.  0.
<mgrwt>
<rscale>  0 0.66155746E+03</rscale>
<asrwt>0</asrwt>
<pdfrwt beam="1">  1        2 0.15592703E+00 0.76779445E+03</pdfrwt>
<pdfrwt beam="2">  1       -2 0.85672945E-01 0.76779445E+03</pdfrwt>
<totfact> 0.29644515E+01</totfact>
</mgrwt>
</event>
<event>
 4    2  0.3855935E-007  0.9249543E+03  0.7818608E-02  0.9487104E-01
          2   -1    0    0  501    0  0.00000000000E+00  0.00000000000E+00  0.38353046469E+04  0.38353046469E+04  0.25500000000E-02 0. -1.
         -2   -1    0    0    0  501 -0.00000000000E+00 -0.00000000000E+00 -0.28613905784E+03  0.28613905785E+03  0.25500000000E-02 0.  1.
    8880023    1    1    2    0    0  0.35340040902E+03 -0.54482877007E+03  0.61113762022E+03  0.11086160900E+04  0.65864270000E+03 0.  0.
    8880022    1    1    2    0    0 -0.35340040902E+03  0.54482877007E+03  0.29380279688E+04  0.30128276148E+04  0.15294330000E+03 0.  0.
<mgrwt>
<rscale>  0 0.85241302E+03</rscale>
<asrwt>0</asrwt>
<pdfrwt beam="1">  1        2 0.59004688E+00 0.92495429E+03</pdfrwt>
<pdfrwt beam="2">  1       -2 0.44021393E-01 0.92495429E+03</pdfrwt>
<totfact> 0.23995381E+00</totfact>
</mgrwt>
</event>
<event>
 4    2  0.3855935E-007  0.7527868E+03  0.7818608E-02  0.9824153E-01
          2   -1    0    0  501    0  0.00000000000E+00  0.00000000000E+00  0.16422861793E+04  0.16422861793E+04  0.25500000000E-02 0. -1.
         -2   -1    0    0    0  501 -0.00000000000E+00 -0.00000000000E+00 -0.25881949276E+03  0.25881949278E+03  0.25500000000E-02 0.  1.
    8880023    1    1    2    0    0 -0.27743274221E+03  0.23645037199E+03  0.42535634462E+03  0.86464786534E+03  0.65864270000E+03 0.  0.
    8880022    1    1    2    0    0  0.27743274221E+03 -0.23645037199E+03  0.95811034194E+03  0.10364578068E+04  0.15294330000E+03 0.  0.
<mgrwt>
<rscale>  0 0.64082317E+03</rscale>
<asrwt>0</asrwt>
<pdfrwt beam="1">  1        2 0.25265942E+00 0.75278676E+03</pdfrwt>
<pdfrwt beam="2">  1       -2 0.39818383E-01 0.75278676E+03</pdfrwt>
<totfact> 0.64425319E+01</totfact>
</mgrwt>
</event>
<event>
 4    2  0.3855935E-007  0.8484588E+03  0.7818608E-02  0.9614432E-01
          2   -1    0    0  501    0  0.00000000000E+00  0.00000000000E+00  0.55191551131E+03  0.55191551131E+03  0.25500000000E-02 0. -1.
         -2   -1    0    0    0  501 -0.00000000000E+00 -0.00000000000E+00 -0.15913915576E+04  0.15913915576E+04  0.25500000000E-02 0.  1.
    8880023    1    1    2    0    0 -0.94338804879E+02  0.52647150838E+03 -0.12812762183E+04  0.15367338784E+04  0.65864270000E+03 0.  1.
    8880022    1    1    2    0    0  0.94338804879E+02 -0.52647150838E+03  0.24180017200E+03  0.60657319050E+03  0.15294330000E+03 0.  0.
<mgrwt>
<rscale>  0 0.76348282E+03</rscale>
<asrwt>0</asrwt>
<pdfrwt beam="1">  1        2 0.84910079E-01 0.84845876E+03</pdfrwt>
<pdfrwt beam="2">  1       -2 0.24482947E+00 0.84845876E+03</pdfrwt>
<totfact> 0.38504245E+00</totfact>
</mgrwt>
</event>
<event>
 4    2  0.3855935E-007  0.6977741E+03  0.7818608E-02  0.1000656E+00
          2   -1    0    0  501    0  0.00000000000E+00  0.00000000000E+00  0.19148116813E+04  0.19148116813E+04  0.25500000000E-02 0. -1.
         -2   -1    0    0    0  501 -0.00000000000E+00 -0.00000000000E+00 -0.44756342565E+03  0.44756342566E+03  0.25500000000E-02 0.  1.
    8880023    1    1    2    0    0  0.16391222030E+03 -0.16189892126E+03 -0.15661514193E+03  0.71513424307E+03  0.65864270000E+03 0.  0.
    8880022    1    1    2    0    0 -0.16391222030E+03  0.16189892126E+03  0.16238633975E+04  0.16472408638E+04  0.15294330000E+03 0.  0.
<mgrwt>
<rscale>  0 0.55363382E+03</rscale>
<asrwt>0</asrwt>
<pdfrwt beam="1">  1        2 0.29458641E+00 0.69777409E+03</pdfrwt>
<pdfrwt beam="2">  1       -2 0.68855913E-01 0.69777409E+03</pdfrwt>
<totfact> 0.14943511E+01</totfact>
</mgrwt>
</event>
<event>
 4    2  0.3855935E-007  0.8699715E+03  0.7818608E-02  0.9576066E-01
         -2   -1    0    0    0  501 -0.00000000000E+00  0.00000000000E+00  0.69336559591E+03  0.69336559592E+03  0.25500000000E-02 0.  1.
          2   -1    0    0  501    0  0.00000000000E+00 -0.00000000000E+00 -0.15118586353E+04  0.15118586353E+04  0.25500000000E-02 0. -1.
    8880023    1    1    2    0    0 -0.38086895354E+03  0.42187571954E+03  0.31726270138E+03  0.92601625820E+03  0.65864270000E+03 0.  1.
    8880022    1    1    2    0    0  0.38086895354E+03 -0.42187571954E+03 -0.11357557407E+04  0.12792079730E+04  0.15294330000E+03 0.  0.
<mgrwt>
<rscale>  0 0.78900731E+03</rscale>
<asrwt>0</asrwt>
<pdfrwt beam="1">  1        2 0.23259364E+00 0.86997154E+03</pdfrwt>
<pdfrwt beam="2">  1       -2 0.10667163E+00 0.86997154E+03</pdfrwt>
<totfact> 0.89284087E+00</totfact>
</mgrwt>
</event>
<event>
 4    2  0.3855935E-007  0.8231329E+03  0.7818608E-02  0.9662844E-01
         -2   -1    0    0    0  501 -0.00000000000E+00  0.00000000000E+00  0.64879302910E+03  0.64879302911E+03  0.25500000000E-02 0.  1.
          2   -1    0    0  501    0  0.00000000000E+00 -0.00000000000E+00 -0.14601756565E+04  0.14601756565E+04  0.25500000000E-02 0. -1.
    8880023    1    1    2    0    0 -0.28366954812E+02  0.49288216061E+03  0.30573824800E+03  0.87807949009E+03  0.65864270000E+03 0.  0.
    8880022    1    1    2    0    0  0.28366954812E+02 -0.49288216061E+03 -0.11171208754E+04  0.12308891955E+04  0.15294330000E+03 0.  0.
<mgrwt>
<rscale>  0 0.73272772E+03</rscale>
<asrwt>0</asrwt>
<pdfrwt beam="1">  1        2 0.22464241E+00 0.82313287E+03</pdfrwt>
<pdfrwt beam="2">  1       -2 0.99814312E-01 0.82313287E+03</pdfrwt>
<totfact> 0.11253677E+01</totfact>
</mgrwt>
</event>
<event>
 4    2  0.3855935E-007  0.9788548E+03  0.7818608E-02  0.9409760E-01
         -2   -1    0    0    0  501 -0.00000000000E+00  0.00000000000E+00  0.65811017456E+03  0.65811017456E+03  0.25500000000E-02 0.  1.
          2   -1    0    0  501    0  0.00000000000E+00 -0.00000000000E+00 -0.12839386137E+04  0.12839386137E+04  0.25500000000E-02 0. -1.
    8880023    1    1    2    0    0 -0.72392154693E+03  0.16855155470E+02 -0.94547239150E+01  0.97890045481E+03  0.65864270000E+03 0.  0.
    8880022    1    1    2    0    0  0.72392154693E+03 -0.16855155470E+02 -0.61637371519E+03  0.96314833342E+03  0.15294330000E+03 0.  0.
<mgrwt>
<rscale>  0 0.91276784E+03</rscale>
<asrwt>0</asrwt>
<pdfrwt beam="1">  1        2 0.19752902E+00 0.97885479E+03</pdfrwt>
<pdfrwt beam="2">  1       -2 0.10124772E+00 0.97885479E+03</pdfrwt>
<totfact> 0.13496676E+01</totfact>
</mgrwt>
</event>
<event>
 4    2  0.3855935E-007  0.9510853E+03  0.7818608E-02  0.9448554E-01
         -2   -1    0    0    0  501 -0.00000000000E+00  0.00000000000E+00  0.69312295774E+03  0.69312295775E+03  0.25500000000E-02 0.  1.
          2   -1    0    0  501    0  0.00000000000E+00 -0.00000000000E+00 -0.14468176553E+04  0.14468176553E+04  0.25500000000E-02 0. -1.
    8880023    1    1    2    0    0 -0.68609923123E+03 -0.45661923977E+01  0.18328444874E+03  0.96858474107E+03  0.65864270000E+03 0.  0.
    8880022    1    1    2    0    0  0.68609923123E+03  0.45661923977E+01 -0.93697914627E+03  0.11713558720E+04  0.15294330000E+03 0.  0.
<mgrwt>
<rscale>  0 0.88185333E+03</rscale>
<asrwt>0</asrwt>
<pdfrwt beam="1">  1        2 0.22258733E+00 0.95108528E+03</pdfrwt>
<pdfrwt beam="2">  1       -2 0.10663430E+00 0.95108528E+03</pdfrwt>
<totfact> 0.96337324E+00</totfact>
</mgrwt>
</event>
<event>
 4    2  0.3855935E-007  0.9921680E+03  0.7818608E-02  0.9391877E-01
          2   -1    0    0  501    0  0.00000000000E+00  0.00000000000E+00  0.97872743336E+03  0.97872743336E+03  0.25500000000E-02 0. -1.
         -2   -1    0    0    0  501 -0.00000000000E+00 -0.00000000000E+00 -0.17010914174E+04  0.17010914174E+04  0.25500000000E-02 0.  1.
    8880023    1    1    2    0    0 -0.27264905436E+03 -0.69010837484E+03 -0.13642239002E+04  0.16868622149E+04  0.65864270000E+03 0.  0.
    8880022    1    1    2    0    0  0.27264905436E+03  0.69010837484E+03  0.64185991612E+03  0.99295663592E+03  0.15294330000E+03 0.  0.
<mgrwt>
<rscale>  0 0.92747215E+03</rscale>
<asrwt>0</asrwt>
<pdfrwt beam="1">  1        2 0.15057345E+00 0.99216797E+03</pdfrwt>
<pdfrwt beam="2">  1       -2 0.26170637E+00 0.99216797E+03</pdfrwt>
<totfact> 0.14152508E+00</totfact>
</mgrwt>
</event>
<event>
 4    2  0.3855935E-007  0.9767288E+03  0.7818608E-02  0.9412657E-01
          2   -1    0    0  501    0  0.00000000000E+00  0.00000000000E+00  0.89160391444E+03  0.89160391445E+03  0.25500000000E-02 0. -1.
         -2   -1    0    0    0  501 -0.00000000000E+00 -0.00000000000E+00 -0.14896043501E+04  0.14896043501E+04  0.25500000000E-02 0.  1.
    8880023    1    1    2    0    0 -0.74968049599E+02 -0.71733448317E+03 -0.11138095946E+04  0.14814084475E+04  0.65864270000E+03 0.  0.
    8880022    1    1    2    0    0  0.74968049599E+02  0.71733448317E+03  0.51580915893E+03  0.89979981699E+03  0.15294330000E+03 0.  0.
<mgrwt>
<rscale>  0 0.91041309E+03</rscale>
<asrwt>0</asrwt>
<pdfrwt beam="1">  1        2 0.13716983E+00 0.97672881E+03</pdfrwt>
<pdfrwt beam="2">  1       -2 0.22916990E+00 0.97672881E+03</pdfrwt>
<totfact> 0.25641847E+00</totfact>
</mgrwt>
</event>
<event>
 4    2  0.3855935E-007  0.7220726E+03  0.7818608E-02  0.9915634E-01
          2   -1    0    0  501    0  0.00000000000E+00  0.00000000000E+00  0.20747013335E+04  0.20747013335E+04  0.25500000000E-02 0. -1.
         -2   -1    0    0    0  501 -0.00000000000E+00 -0.00000000000E+00 -0.23073700377E+03  0.23073700379E+03  0.25500000000E-02 0.  1.
    8880023    1    1    2    0    0  0.28388110810E+03  0.83607085532E+02  0.40392717303E+03  0.82737294835E+03  0.65864270000E+03 0.  0.
    8880022    1    1    2    0    0 -0.28388110810E+03 -0.83607085532E+02  0.14400371567E+04  0.14780653889E+04  0.15294330000E+03 0. -1.
<mgrwt>
<rscale>  0 0.59509525E+03</rscale>
<asrwt>0</asrwt>
<pdfrwt beam="1">  1        2 0.31918482E+00 0.72207260E+03</pdfrwt>
<pdfrwt beam="2">  1       -2 0.35498000E-01 0.72207260E+03</pdfrwt>
<totfact> 0.46855892E+01</totfact>
</mgrwt>
</event>
<event>
 4    2  0.3855935E-007  0.7145810E+03  0.7818608E-02  0.9941367E-01
          2   -1    0    0  501    0  0.00000000000E+00  0.00000000000E+00  0.83807647055E+03  0.83807647055E+03  0.25500000000E-02 0. -1.
         -2   -1    0    0    0  501 -0.00000000000E+00 -0.00000000000E+00 -0.82281997639E+03  0.82281997640E+03  0.25500000000E-02 0.  1.
    8880023    1    1    2    0    0  0.86443610284E+02 -0.26333120976E+03 -0.62327290845E+03  0.94820627949E+03  0.65864270000E+03 0.  1.
    8880022    1    1    2    0    0 -0.86443610284E+02  0.26333120976E+03  0.63852940260E+03  0.71269016746E+03  0.15294330000E+03 0.  0.
<mgrwt>
<rscale>  0 0.58297660E+03</rscale>
<asrwt>0</asrwt>
<pdfrwt beam="1">  1        2 0.12893484E+00 0.71458102E+03</pdfrwt>
<pdfrwt beam="2">  1       -2 0.12658769E+00 0.71458102E+03</pdfrwt>
<totfact> 0.15317136E+01</totfact>
</mgrwt>
</event>
<event>
 4    2  0.3855935E-007  0.7460973E+03  0.7818608E-02  0.9842529E-01
          2   -1    0    0  501    0  0.00000000000E+00  0.00000000000E+00  0.16923972538E+04  0.16923972538E+04  0.25500000000E-02 0. -1.
         -2   -1    0    0    0  501 -0.00000000000E+00 -0.00000000000E+00 -0.27699439124E+03  0.27699439125E+03  0.25500000000E-02 0.  1.
    8880023    1    1    2    0    0  0.28249620518E+03 -0.20747753056E+03  0.32488193794E+03  0.81376256457E+03  0.65864270000E+03 0.  1.
    8880022    1    1    2    0    0 -0.28249620518E+03  0.20747753056E+03  0.10905209246E+04  0.11556290805E+04  0.15294330000E+03 0.  0.
<mgrwt>
<rscale>  0 0.63129287E+03</rscale>
<asrwt>0</asrwt>
<pdfrwt beam="1">  1        2 0.26036881E+00 0.74609734E+03</pdfrwt>
<pdfrwt beam="2">  1       -2 0.42614522E-01 0.74609734E+03</pdfrwt>
<totfact> 0.52976939E+01</totfact>
</mgrwt>
</event>
<event>
 4    2  0.3855935E-007  0.8826924E+03  0.7818608E-02  0.9554407E-01
          2   -1    0    0  501    0  0.00000000000E+00  0.00000000000E+00  0.16976505981E+04  0.16976505981E+04  0.25500000000E-02 0. -1.
         -2   -1    0    0    0  501 -0.00000000000E+00 -0.00000000000E+00 -0.39005751156E+03  0.39005751157E+03  0.25500000000E-02 0.  1.
    8880023    1    1    2    0    0  0.58757288401E+03 -0.96879689174E+01  0.34113392615E+03  0.94631829349E+03  0.65864270000E+03 0.  1.
    8880022    1    1    2    0    0 -0.58757288401E+03  0.96879689174E+01  0.96645916039E+03  0.11413898162E+04  0.15294330000E+03 0. -1.
<mgrwt>
<rscale>  0 0.80388742E+03</rscale>
<asrwt>0</asrwt>
<pdfrwt beam="1">  1        2 0.26117701E+00 0.88269245E+03</pdfrwt>
<pdfrwt beam="2">  1       -2 0.60008848E-01 0.88269245E+03</pdfrwt>
<totfact> 0.25766720E+01</totfact>
</mgrwt>
</event>
<event>
 4    2  0.3855935E-007  0.8007000E+03  0.7818608E-02  0.9709285E-01
          2   -1    0    0  501    0  0.00000000000E+00  0.00000000000E+00  0.86697738903E+03  0.86697738904E+03  0.25500000000E-02 0. -1.
         -2   -1    0    0    0  501 -0.00000000000E+00 -0.00000000000E+00 -0.64416947549E+03  0.64416947550E+03  0.25500000000E-02 0.  1.
    8880023    1    1    2    0    0 -0.31593077462E+03 -0.32786893452E+03 -0.24834252726E+03  0.83832840205E+03  0.65864270000E+03 0.  0.
    8880022    1    1    2    0    0  0.31593077462E+03  0.32786893452E+03  0.47115044080E+03  0.67281846248E+03  0.15294330000E+03 0.  0.
<mgrwt>
<rscale>  0 0.70466675E+03</rscale>
<asrwt>0</asrwt>
<pdfrwt beam="1">  1        2 0.13338114E+00 0.80070001E+03</pdfrwt>
<pdfrwt beam="2">  1       -2 0.99102996E-01 0.80070001E+03</pdfrwt>
<totfact> 0.26329470E+01</totfact>
</mgrwt>
</event>
<event>
 4    2  0.3855935E-007  0.6660191E+03  0.7818608E-02  0.1018693E+00
          2   -1    0    0  501    0  0.00000000000E+00  0.00000000000E+00  0.31399686348E+04  0.31399686348E+04  0.25500000000E-02 0. -1.
         -2   -1    0    0    0  501 -0.00000000000E+00 -0.00000000000E+00 -0.10346661550E+03  0.10346661554E+03  0.25500000000E-02 0.  1.
    8880023    1    1    2    0    0 -0.70134633564E+02  0.69658971698E+02  0.10166095997E+04  0.12153503708E+04  0.65864270000E+03 0.  0.
    8880022    1    1    2    0    0  0.70134633564E+02 -0.69658971698E+02  0.20198924196E+04  0.20280848796E+04  0.15294330000E+03 0. -1.
<mgrwt>
<rscale>  0 0.48161118E+03</rscale>
<asrwt>0</asrwt>
<pdfrwt beam="1">  1        2 0.48307205E+00 0.66601910E+03</pdfrwt>
<pdfrwt beam="2">  1       -2 0.15917942E-01 0.66601910E+03</pdfrwt>
<totfact> 0.48291607E+01</totfact>
</mgrwt>
</event>
<event>
 4    2  0.3855935E-007  0.8441441E+03  0.7818608E-02  0.9622415E-01
          2   -1    0    0  501    0  0.00000000000E+00  0.00000000000E+00  0.32311388231E+04  0.32311388231E+04  0.25500000000E-02 0. -1.
         -2   -1    0    0    0  501 -0.00000000000E+00 -0.00000000000E+00 -0.37390835852E+03  0.37390835853E+03  0.25500000000E-02 0.  1.
    8880023    1    1    2    0    0 -0.43735924239E+03 -0.29578037412E+03  0.16862169762E+03  0.86082089879E+03  0.65864270000E+03 0.  0.
    8880022    1    1    2    0    0  0.43735924239E+03  0.29578037412E+03  0.26886087669E+04  0.27442262828E+04  0.15294330000E+03 0.  0.
<mgrwt>
<rscale>  0 0.75830204E+03</rscale>
<asrwt>0</asrwt>
<pdfrwt beam="1">  1        2 0.49709828E+00 0.84414415E+03</pdfrwt>
<pdfrwt beam="2">  1       -2 0.57524363E-01 0.84414415E+03</pdfrwt>
<totfact> 0.36972282E+00</totfact>
</mgrwt>
</event>
<event>
 4    2  0.3855935E-007  0.8318779E+03  0.7818608E-02  0.9645690E-01
          2   -1    0    0  501    0  0.00000000000E+00  0.00000000000E+00  0.61119863219E+03  0.61119863219E+03  0.25500000000E-02 0. -1.
         -2   -1    0    0    0  501 -0.00000000000E+00 -0.00000000000E+00 -0.77271605533E+03  0.77271605533E+03  0.25500000000E-02 0.  1.
    8880023    1    1    2    0    0 -0.43499061472E+03 -0.26266672826E+03 -0.18701522048E+03  0.85264033682E+03  0.65864270000E+03 0.  0.
    8880022    1    1    2    0    0  0.43499061472E+03  0.26266672826E+03  0.25497797337E+02  0.53127435070E+03  0.15294330000E+03 0. -1.
<mgrwt>
<rscale>  0 0.74344564E+03</rscale>
<asrwt>0</asrwt>
<pdfrwt beam="1">  1        2 0.94030559E-01 0.83187791E+03</pdfrwt>
<pdfrwt beam="2">  1       -2 0.11887939E+00 0.83187791E+03</pdfrwt>
<totfact> 0.26525798E+01</totfact>
</mgrwt>
</event>
<event>
 4    2  0.3855935E-007  0.9302141E+03  0.7818608E-02  0.9479172E-01
          2   -1    0    0  501    0  0.00000000000E+00  0.00000000000E+00  0.33363604896E+04  0.33363604896E+04  0.25500000000E-02 0. -1.
         -2   -1    0    0    0  501 -0.00000000000E+00 -0.00000000000E+00 -0.40932349191E+03  0.40932349192E+03  0.25500000000E-02 0.  1.
    8880023    1    1    2    0    0 -0.28346964105E+03 -0.59256484072E+03  0.21997549205E+03  0.95587004934E+03  0.65864270000E+03 0.  1.
    8880022    1    1    2    0    0  0.28346964105E+03  0.59256484072E+03  0.27070615056E+04  0.27898139322E+04  0.15294330000E+03 0.  0.
<mgrwt>
<rscale>  0 0.85836950E+03</rscale>
<asrwt>0</asrwt>
<pdfrwt beam="1">  1        2 0.51328622E+00 0.93021413E+03</pdfrwt>
<pdfrwt beam="2">  1       -2 0.62972846E-01 0.93021413E+03</pdfrwt>
<totfact> 0.25677591E+00</totfact>
</mgrwt>
</event>
<event>
 4    2  0.3855935E-007  0.7230058E+03  0.7818608E-02  0.9912543E-01
         -2   -1    0    0    0  501 -0.00000000000E+00  0.00000000000E+00  0.28206235164E+03  0.28206235165E+03  0.25500000000E-02 0.  1.
          2   -1    0    0  501    0  0.00000000000E+00 -0.00000000000E+00 -0.14290903026E+04  0.14290903026E+04  0.25500000000E-02 0. -1.
    8880023    1    1    2    0    0 -0.51673184431E+02 -0.29369558434E+03 -0.26915102677E+03  0.77147890167E+03  0.65864270000E+03 0.  1.
    8880022    1    1    2    0    0  0.51673184431E+02  0.29369558434E+03 -0.87787692423E+03  0.93967375262E+03  0.15294330000E+03 0.  0.
<mgrwt>
<rscale>  0 0.59657210E+03</rscale>
<asrwt>0</asrwt>
<pdfrwt beam="1">  1        2 0.21986004E+00 0.72300582E+03</pdfrwt>
<pdfrwt beam="2">  1       -2 0.43394209E-01 0.72300582E+03</pdfrwt>
<totfact> 0.71661204E+01</totfact>
</mgrwt>
</event>
<event>
 4    2  0.3855935E-007  0.6958764E+03  0.7818608E-02  0.1001476E+00
          2   -1    0    0  501    0  0.00000000000E+00  0.00000000000E+00  0.41472950703E+04  0.41472950703E+04  0.25500000000E-02 0. -1.
         -2   -1    0    0    0  501 -0.00000000000E+00 -0.00000000000E+00 -0.62281103794E+02  0.62281103846E+02  0.25500000000E-02 0.  1.
    8880023    1    1    2    0    0 -0.85157575835E+02 -0.20780280203E+03  0.22678631586E+04  0.23722241314E+04  0.65864270000E+03 0.  0.
    8880022    1    1    2    0    0  0.85157575835E+02  0.20780280203E+03  0.18171508080E+04  0.18373520428E+04  0.15294330000E+03 0.  0.
<mgrwt>
<rscale>  0 0.55007876E+03</rscale>
<asrwt>0</asrwt>
<pdfrwt beam="1">  1        2 0.63804543E+00 0.69587644E+03</pdfrwt>
<pdfrwt beam="2">  1       -2 0.95817077E-02 0.69587644E+03</pdfrwt>
<totfact> 0.21292704E+01</totfact>
</mgrwt>
</event>
<event>
 4    2  0.3855935E-007  0.7624340E+03  0.7818608E-02  0.9798846E-01
          2   -1    0    0  501    0  0.00000000000E+00  0.00000000000E+00  0.39906048531E+03  0.39906048532E+03  0.25500000000E-02 0. -1.
         -2   -1    0    0    0  501 -0.00000000000E+00 -0.00000000000E+00 -0.14730273271E+04  0.14730273271E+04  0.25500000000E-02 0.  1.
    8880023    1    1    2    0    0 -0.38000292693E+03  0.55615983221E+02 -0.12157666974E+04  0.14350589642E+04  0.65864270000E+03 0.  1.
    8880022    1    1    2    0    0  0.38000292693E+03 -0.55615983221E+02  0.14179985563E+03  0.43702884817E+03  0.15294330000E+03 0.  0.
<mgrwt>
<rscale>  0 0.65424485E+03</rscale>
<asrwt>0</asrwt>
<pdfrwt beam="1">  1        2 0.61393922E-01 0.76243398E+03</pdfrwt>
<pdfrwt beam="2">  1       -2 0.22661959E+00 0.76243398E+03</pdfrwt>
<totfact> 0.73146297E+00</totfact>
</mgrwt>
</event>
<event>
 4    2  0.3855935E-007  0.6964982E+03  0.7818608E-02  0.1001205E+00
          2   -1    0    0  501    0  0.00000000000E+00  0.00000000000E+00  0.15367961430E+04  0.15367961430E+04  0.25500000000E-02 0. -1.
         -2   -1    0    0    0  501 -0.00000000000E+00 -0.00000000000E+00 -0.25224314273E+03  0.25224314274E+03  0.25500000000E-02 0.  1.
    8880023    1    1    2    0    0  0.60414192556E+02 -0.21828801166E+03  0.28458169321E+03  0.75239383110E+03  0.65864270000E+03 0.  0.
    8880022    1    1    2    0    0 -0.60414192556E+02  0.21828801166E+03  0.99997130707E+03  0.10366454547E+04  0.15294330000E+03 0.  0.
<mgrwt>
<rscale>  0 0.55125008E+03</rscale>
<asrwt>0</asrwt>
<pdfrwt beam="1">  1        2 0.23643017E+00 0.69649820E+03</pdfrwt>
<pdfrwt beam="2">  1       -2 0.38806638E-01 0.69649820E+03</pdfrwt>
<totfact> 0.77883770E+01</totfact>
</mgrwt>
</event>
<event>
 4    2  0.3855935E-007  0.6977512E+03  0.7818608E-02  0.1000666E+00
         -2   -1    0    0    0  501 -0.00000000000E+00  0.00000000000E+00  0.11447827894E+04  0.11447827894E+04  0.25500000000E-02 0.  1.
          2   -1    0    0  501    0  0.00000000000E+00 -0.00000000000E+00 -0.30004501500E+03  0.30004501501E+03  0.25500000000E-02 0. -1.
    8880023    1    1    2    0    0 -0.20258638498E+03  0.10956891130E+03  0.92340206522E+03  0.11573798728E+04  0.65864270000E+03 0.  0.
    8880022    1    1    2    0    0  0.20258638498E+03 -0.10956891130E+03 -0.78664290829E+02  0.28744793158E+03  0.15294330000E+03 0.  0.
<mgrwt>
<rscale>  0 0.55359136E+03</rscale>
<asrwt>0</asrwt>
<pdfrwt beam="1">  1        2 0.46160771E-01 0.69775124E+03</pdfrwt>
<pdfrwt beam="2">  1       -2 0.17612043E+00 0.69775124E+03</pdfrwt>
<totfact> 0.21575091E+01</totfact>
</mgrwt>
</event>
<event>
 4    2  0.3855935E-007  0.1038695E+04  0.7818608E-02  0.9332597E-01
         -2   -1    0    0    0  501 -0.00000000000E+00  0.00000000000E+00  0.14963122201E+04  0.14963122201E+04  0.25500000000E-02 0.  1.
          2   -1    0    0  501    0  0.00000000000E+00 -0.00000000000E+00 -0.88792158738E+03  0.88792158738E+03  0.25500000000E-02 0. -1.
    8880023    1    1    2    0    0 -0.65504911137E+03  0.46474393419E+03  0.10313148204E+04  0.14637269991E+04  0.65864270000E+03 0.  1.
    8880022    1    1    2    0    0  0.65504911137E+03 -0.46474393419E+03 -0.42292418776E+03  0.92050680838E+03  0.15294330000E+03 0.  0.
<mgrwt>
<rscale>  0 0.97836515E+03</rscale>
<asrwt>0</asrwt>
<pdfrwt beam="1">  1        2 0.13660332E+00 0.10386946E+04</pdfrwt>
<pdfrwt beam="2">  1       -2 0.23020188E+00 0.10386946E+04</pdfrwt>
<totfact> 0.25233482E+00</totfact>
</mgrwt>
</event>
<event>
 4    2  0.3855935E-007  0.7095836E+03  0.7818608E-02  0.9959550E-01
          2   -1    0    0  501    0  0.00000000000E+00  0.00000000000E+00  0.21399342382E+04  0.21399342382E+04  0.25500000000E-02 0. -1.
         -2   -1    0    0    0  501 -0.00000000000E+00 -0.00000000000E+00 -0.18545684539E+03  0.18545684541E+03  0.25500000000E-02 0.  1.
    8880023    1    1    2    0    0 -0.34433257146E+02 -0.26174995608E+03  0.57712064199E+03  0.91464590437E+03  0.65864270000E+03 0.  1.
    8880022    1    1    2    0    0  0.34433257146E+02  0.26174995608E+03  0.13773567508E+04  0.14107451792E+04  0.15294330000E+03 0.  0.
<mgrwt>
<rscale>  0 0.57460018E+03</rscale>
<asrwt>0</asrwt>
<pdfrwt beam="1">  1        2 0.32922066E+00 0.70958361E+03</pdfrwt>
<pdfrwt beam="2">  1       -2 0.28531822E-01 0.70958361E+03</pdfrwt>
<totfact> 0.65081944E+01</totfact>
</mgrwt>
</event>
<event>
 4    2  0.3855935E-007  0.6651500E+03  0.7818608E-02  0.1019408E+00
          2   -1    0    0  501    0  0.00000000000E+00  0.00000000000E+00  0.54056639155E+03  0.54056639156E+03  0.25500000000E-02 0. -1.
         -2   -1    0    0    0  501 -0.00000000000E+00 -0.00000000000E+00 -0.86905851599E+03  0.86905851599E+03  0.25500000000E-02 0.  1.
    8880023    1    1    2    0    0 -0.34849689339E+02  0.86022374456E+02 -0.71936826295E+03  0.97975264928E+03  0.65864270000E+03 0.  1.
    8880022    1    1    2    0    0  0.34849689339E+02 -0.86022374456E+02  0.39087613852E+03  0.42987225827E+03  0.15294330000E+03 0.  0.
<mgrwt>
<rscale>  0 0.47900896E+03</rscale>
<asrwt>0</asrwt>
<pdfrwt beam="1">  1        2 0.83164061E-01 0.66515003E+03</pdfrwt>
<pdfrwt beam="2">  1       -2 0.13370131E+00 0.66515003E+03</pdfrwt>
<totfact> 0.23194618E+01</totfact>
</mgrwt>
</event>
<event>
 4    2  0.3855935E-007  0.1072741E+04  0.7818608E-02  0.9292030E-01
          2   -1    0    0  501    0  0.00000000000E+00  0.00000000000E+00  0.18374201433E+04  0.18374201433E+04  0.25500000000E-02 0. -1.
         -2   -1    0    0    0  501 -0.00000000000E+00 -0.00000000000E+00 -0.69406069618E+03  0.69406069618E+03  0.25500000000E-02 0.  1.
    8880023    1    1    2    0    0  0.61317420023E+03  0.58393612551E+03 -0.33925798614E+02  0.10732777667E+04  0.65864270000E+03 0.  0.
    8880022    1    1    2    0    0 -0.61317420023E+03 -0.58393612551E+03  0.11772852457E+04  0.14582030727E+04  0.15294330000E+03 0.  0.
<mgrwt>
<rscale>  0 0.10151994E+04</rscale>
<asrwt>0</asrwt>
<pdfrwt beam="1">  1        2 0.28268002E+00 0.10727414E+04</pdfrwt>
<pdfrwt beam="2">  1       -2 0.10677857E+00 0.10727414E+04</pdfrwt>
<totfact> 0.57484626E+00</totfact>
</mgrwt>
</event>
<event>
 4    2  0.3855935E-007  0.7000050E+03  0.7818608E-02  0.9997180E-01
          2   -1    0    0  501    0  0.00000000000E+00  0.00000000000E+00  0.31292587564E+04  0.31292587564E+04  0.25500000000E-02 0. -1.
         -2   -1    0    0    0  501 -0.00000000000E+00 -0.00000000000E+00 -0.32372409025E+03  0.32372409026E+03  0.25500000000E-02 0.  1.
    8880023    1    1    2    0    0 -0.23475392526E+03  0.32976390234E+02  0.70622282627E+02  0.70355849849E+03  0.65864270000E+03 0.  1.
    8880022    1    1    2    0    0  0.23475392526E+03 -0.32976390234E+02  0.27349123836E+04  0.27494243482E+04  0.15294330000E+03 0.  0.
<mgrwt>
<rscale>  0 0.55774048E+03</rscale>
<asrwt>0</asrwt>
<pdfrwt beam="1">  1        2 0.48142442E+00 0.70000504E+03</pdfrwt>
<pdfrwt beam="2">  1       -2 0.49803706E-01 0.70000504E+03</pdfrwt>
<totfact> 0.59411742E+00</totfact>
</mgrwt>
</event>
<event>
 4    2  0.3855935E-007  0.1537248E+04  0.7818608E-02  0.8883772E-01
         -2   -1    0    0    0  501 -0.00000000000E+00  0.00000000000E+00  0.20156149243E+04  0.20156149243E+04  0.25500000000E-02 0.  1.
          2   -1    0    0  501    0  0.00000000000E+00 -0.00000000000E+00 -0.19410155809E+04  0.19410155809E+04  0.25500000000E-02 0. -1.
    8880023    1    1    2    0    0  0.12181379186E+04 -0.66742834874E+03  0.13640735740E+04  0.20551952489E+04  0.65864270000E+03 0.  0.
    8880022    1    1    2    0    0 -0.12181379186E+04  0.66742834874E+03 -0.12894742307E+04  0.19014352563E+04  0.15294330000E+03 0.  0.
<mgrwt>
<rscale>  0 0.15010242E+04</rscale>
<asrwt>0</asrwt>
<pdfrwt beam="1">  1        2 0.29861778E+00 0.15372478E+04</pdfrwt>
<pdfrwt beam="2">  1       -2 0.31009460E+00 0.15372478E+04</pdfrwt>
<totfact> 0.18550509E-01</totfact>
</mgrwt>
</event>
<event>
 4    2  0.3855935E-007  0.7864891E+03  0.7818608E-02  0.9740809E-01
          2   -1    0    0  501    0  0.00000000000E+00  0.00000000000E+00  0.73034676932E+03  0.73034676932E+03  0.25500000000E-02 0. -1.
         -2   -1    0    0    0  501 -0.00000000000E+00 -0.00000000000E+00 -0.97169032091E+03  0.97169032092E+03  0.25500000000E-02 0.  1.
    8880023    1    1    2    0    0 -0.83495392061E+02 -0.42164374381E+03 -0.70162023509E+03  0.10539620903E+04  0.65864270000E+03 0.  0.
    8880022    1    1    2    0    0  0.83495392061E+02  0.42164374381E+03  0.46027668349E+03  0.64807499996E+03  0.15294330000E+03 0.  0.
<mgrwt>
<rscale>  0 0.68638170E+03</rscale>
<asrwt>0</asrwt>
<pdfrwt beam="1">  1        2 0.11236104E+00 0.78648912E+03</pdfrwt>
<pdfrwt beam="2">  1       -2 0.14949082E+00 0.78648912E+03</pdfrwt>
<totfact> 0.11870160E+01</totfact>
</mgrwt>
</event>
<event>
 4    2  0.3855935E-007  0.7350070E+03  0.7818608E-02  0.9874737E-01
         -2   -1    0    0    0  501 -0.00000000000E+00  0.00000000000E+00  0.46795594070E+03  0.46795594071E+03  0.25500000000E-02 0.  1.
          2   -1    0    0  501    0  0.00000000000E+00 -0.00000000000E+00 -0.39748321514E+04  0.39748321515E+04  0.25500000000E-02 0. -1.
    8880023    1    1    2    0    0 -0.22737792114E+03 -0.23393244439E+03  0.16498142131E+03  0.75329554837E+03  0.65864270000E+03 0.  1.
    8880022    1    1    2    0    0  0.22737792114E+03  0.23393244439E+03 -0.36718576321E+04  0.36894925438E+04  0.15294330000E+03 0.  0.
<mgrwt>
<rscale>  0 0.61501394E+03</rscale>
<asrwt>0</asrwt>
<pdfrwt beam="1">  1        2 0.61151262E+00 0.73500702E+03</pdfrwt>
<pdfrwt beam="2">  1       -2 0.71993224E-01 0.73500702E+03</pdfrwt>
<totfact> 0.69950633E-01</totfact>
</mgrwt>
</event>
<event>
 4    2  0.3855935E-007  0.8707229E+03  0.7818608E-02  0.9574767E-01
          2   -1    0    0  501    0  0.00000000000E+00  0.00000000000E+00  0.76542941935E+03  0.76542941936E+03  0.25500000000E-02 0. -1.
         -2   -1    0    0    0  501 -0.00000000000E+00 -0.00000000000E+00 -0.12190936456E+04  0.12190936456E+04  0.25500000000E-02 0.  1.
    8880023    1    1    2    0    0  0.45919287031E+03 -0.33688282993E+03 -0.89446250437E+03  0.12482874313E+04  0.65864270000E+03 0.  0.
    8880022    1    1    2    0    0 -0.45919287031E+03  0.33688282993E+03  0.44079827811E+03  0.73623563364E+03  0.15294330000E+03 0.  0.
<mgrwt>
<rscale>  0 0.78989027E+03</rscale>
<asrwt>0</asrwt>
<pdfrwt beam="1">  1        2 0.11775837E+00 0.87072288E+03</pdfrwt>
<pdfrwt beam="2">  1       -2 0.18755287E+00 0.87072288E+03</pdfrwt>
<totfact> 0.59111983E+00</totfact>
</mgrwt>
</event>
<event>
 4    2  0.3855935E-007  0.6699040E+03  0.7818608E-02  0.1015732E+00
          2   -1    0    0  501    0  0.00000000000E+00  0.00000000000E+00  0.12123766885E+04  0.12123766885E+04  0.25500000000E-02 0. -1.
         -2   -1    0    0    0  501 -0.00000000000E+00 -0.00000000000E+00 -0.34135456396E+03  0.34135456397E+03  0.25500000000E-02 0.  1.
    8880023    1    1    2    0    0 -0.11557932402E+03 -0.40032853568E+02  0.92302154861E+01  0.66996762060E+03  0.65864270000E+03 0.  1.
    8880022    1    1    2    0    0  0.11557932402E+03  0.40032853568E+02  0.86179190908E+03  0.88376363190E+03  0.15294330000E+03 0.  0.
<mgrwt>
<rscale>  0 0.49258839E+03</rscale>
<asrwt>0</asrwt>
<pdfrwt beam="1">  1        2 0.18651949E+00 0.66990403E+03</pdfrwt>
<pdfrwt beam="2">  1       -2 0.52516087E-01 0.66990403E+03</pdfrwt>
<totfact> 0.65291973E+01</totfact>
</mgrwt>
</event>
<event>
 4    2  0.3855935E-007  0.6692384E+03  0.7818608E-02  0.1016215E+00
          2   -1    0    0  501    0  0.00000000000E+00  0.00000000000E+00  0.60675047824E+03  0.60675047825E+03  0.25500000000E-02 0. -1.
         -2   -1    0    0    0  501 -0.00000000000E+00 -0.00000000000E+00 -0.47270612471E+03  0.47270612472E+03  0.25500000000E-02 0.  1.
    8880023    1    1    2    0    0 -0.75254200167E+02 -0.91687816372E+02 -0.19555986122E+03  0.69722572808E+03  0.65864270000E+03 0.  1.
    8880022    1    1    2    0    0  0.75254200167E+02  0.91687816372E+02  0.32960421475E+03  0.38223087488E+03  0.15294330000E+03 0.  0.
<mgrwt>
<rscale>  0 0.49077654E+03</rscale>
<asrwt>0</asrwt>
<pdfrwt beam="1">  1        2 0.93346228E-01 0.66923842E+03</pdfrwt>
<pdfrwt beam="2">  1       -2 0.72724019E-01 0.66923842E+03</pdfrwt>
<totfact> 0.85062105E+01</totfact>
</mgrwt>
</event>
<event>
 4    2  0.3855935E-007  0.6823835E+03  0.7818608E-02  0.1008006E+00
         -2   -1    0    0    0  501 -0.00000000000E+00  0.00000000000E+00  0.65230563228E+03  0.65230563229E+03  0.25500000000E-02 0.  1.
          2   -1    0    0  501    0  0.00000000000E+00 -0.00000000000E+00 -0.64940492126E+03  0.64940492126E+03  0.25500000000E-02 0. -1.
    8880023    1    1    2    0    0 -0.16394294041E+03 -0.70425022828E+02  0.43542114046E+03  0.80946818800E+03  0.65864270000E+03 0.  1.
    8880022    1    1    2    0    0  0.16394294041E+03  0.70425022828E+02 -0.43252042944E+03  0.49224236555E+03  0.15294330000E+03 0.  0.
<mgrwt>
<rscale>  0 0.52274742E+03</rscale>
<asrwt>0</asrwt>
<pdfrwt beam="1">  1        2 0.99908450E-01 0.68238345E+03</pdfrwt>
<pdfrwt beam="2">  1       -2 0.10035471E+00 0.68238345E+03</pdfrwt>
<totfact> 0.37552977E+01</totfact>
</mgrwt>
</event>
<event>
 4    2  0.3855935E-007  0.7145331E+03  0.7818608E-02  0.9941538E-01
         -2   -1    0    0    0  501 -0.00000000000E+00  0.00000000000E+00  0.67282724879E+03  0.67282724879E+03  0.25500000000E-02 0.  1.
          2   -1    0    0  501    0  0.00000000000E+00 -0.00000000000E+00 -0.11874235178E+04  0.11874235178E+04  0.25500000000E-02 0. -1.
    8880023    1    1    2    0    0  0.20012426780E+03  0.19156609269E+03  0.45043563398E+03  0.84465955098E+03  0.65864270000E+03 0.  1.
    8880022    1    1    2    0    0 -0.20012426780E+03 -0.19156609269E+03 -0.96503190303E+03  0.10155912157E+04  0.15294330000E+03 0.  0.
<mgrwt>
<rscale>  0 0.58289741E+03</rscale>
<asrwt>0</asrwt>
<pdfrwt beam="1">  1        2 0.18268054E+00 0.71453306E+03</pdfrwt>
<pdfrwt beam="2">  1       -2 0.10351188E+00 0.71453306E+03</pdfrwt>
<totfact> 0.15005731E+01</totfact>
</mgrwt>
</event>
<event>
 4    2  0.3855935E-007  0.7157152E+03  0.7818608E-02  0.9937360E-01
         -2   -1    0    0    0  501 -0.00000000000E+00  0.00000000000E+00  0.62308425018E+03  0.62308425019E+03  0.25500000000E-02 0.  1.
          2   -1    0    0  501    0  0.00000000000E+00 -0.00000000000E+00 -0.13121649211E+04  0.13121649211E+04  0.25500000000E-02 0. -1.
    8880023    1    1    2    0    0  0.79945409821E+02  0.26841541348E+03  0.38644618196E+03  0.81338119019E+03  0.65864270000E+03 0.  1.
    8880022    1    1    2    0    0 -0.79945409821E+02 -0.26841541348E+03 -0.10755268529E+04  0.11218679811E+04  0.15294330000E+03 0.  0.
<mgrwt>
<rscale>  0 0.58484333E+03</rscale>
<asrwt>0</asrwt>
<pdfrwt beam="1">  1        2 0.20187153E+00 0.71571524E+03</pdfrwt>
<pdfrwt beam="2">  1       -2 0.95859116E-01 0.71571524E+03</pdfrwt>
<totfact> 0.15218562E+01</totfact>
</mgrwt>
</event>
<event>
 4    2  0.3855935E-007  0.6769505E+03  0.7818608E-02  0.1011104E+00
         -2   -1    0    0    0  501 -0.00000000000E+00  0.00000000000E+00  0.57865340918E+03  0.57865340918E+03  0.25500000000E-02 0.  1.
          2   -1    0    0  501    0  0.00000000000E+00 -0.00000000000E+00 -0.75579151212E+03  0.75579151213E+03  0.25500000000E-02 0. -1.
    8880023    1    1    2    0    0 -0.75994764085E+02  0.13666213111E+03  0.35119280248E+03  0.76262594568E+03  0.65864270000E+03 0.  1.
    8880022    1    1    2    0    0  0.75994764085E+02 -0.13666213111E+03 -0.52833090542E+03  0.57181897563E+03  0.15294330000E+03 0.  0.
<mgrwt>
<rscale>  0 0.51038209E+03</rscale>
<asrwt>0</asrwt>
<pdfrwt beam="1">  1        2 0.11627562E+00 0.67695048E+03</pdfrwt>
<pdfrwt beam="2">  1       -2 0.89023602E-01 0.67695048E+03</pdfrwt>
<totfact> 0.41035053E+01</totfact>
</mgrwt>
</event>
<event>
 4    2  0.3855935E-007  0.9710846E+03  0.7818608E-02  0.9420406E-01
          2   -1    0    0  501    0  0.00000000000E+00  0.00000000000E+00  0.22740659352E+04  0.22740659352E+04  0.25500000000E-02 0. -1.
         -2   -1    0    0    0  501 -0.00000000000E+00 -0.00000000000E+00 -0.32164098962E+03  0.32164098963E+03  0.25500000000E-02 0.  1.
    8880023    1    1    2    0    0  0.68985767940E+03 -0.18245953806E+03  0.12491416838E+04  0.15822010786E+04  0.65864270000E+03 0.  1.
    8880022    1    1    2    0    0 -0.68985767940E+03  0.18245953806E+03  0.70328326177E+03  0.10135058461E+04  0.15294330000E+03 0.  0.
<mgrwt>
<rscale>  0 0.90415231E+03</rscale>
<asrwt>0</asrwt>
<pdfrwt beam="1">  1        2 0.34985631E+00 0.97108460E+03</pdfrwt>
<pdfrwt beam="2">  1       -2 0.49483228E-01 0.97108460E+03</pdfrwt>
<totfact> 0.18333846E+01</totfact>
</mgrwt>
</event>
<event>
 4    2  0.3855935E-007  0.6916942E+03  0.7818608E-02  0.1003358E+00
         -2   -1    0    0    0  501 -0.00000000000E+00  0.00000000000E+00  0.11190492161E+03  0.11190492164E+03  0.25500000000E-02 0.  1.
          2   -1    0    0  501    0  0.00000000000E+00 -0.00000000000E+00 -0.20701618912E+04  0.20701618912E+04  0.25500000000E-02 0. -1.
    8880023    1    1    2    0    0 -0.16665993784E+03  0.12982725195E+03 -0.12717014744E+04  0.14476413563E+04  0.65864270000E+03 0.  1.
    8880022    1    1    2    0    0  0.16665993784E+03 -0.12982725195E+03 -0.68655549518E+03  0.73442545654E+03  0.15294330000E+03 0. -1.
<mgrwt>
<rscale>  0 0.54202212E+03</rscale>
<asrwt>0</asrwt>
<pdfrwt beam="1">  1        2 0.31848642E+00 0.69169419E+03</pdfrwt>
<pdfrwt beam="2">  1       -2 0.17216143E-01 0.69169419E+03</pdfrwt>
<totfact> 0.17445133E+02</totfact>
</mgrwt>
</event>
<event>
 4    2  0.3855935E-007  0.7468570E+03  0.7818608E-02  0.9840405E-01
         -2   -1    0    0    0  501 -0.00000000000E+00  0.00000000000E+00  0.12677419054E+04  0.12677419054E+04  0.25500000000E-02 0.  1.
          2   -1    0    0  501    0  0.00000000000E+00 -0.00000000000E+00 -0.36073901441E+03  0.36073901442E+03  0.25500000000E-02 0. -1.
    8880023    1    1    2    0    0 -0.41233117140E+02  0.34969277905E+03  0.98561142160E+03  0.12366184902E+04  0.65864270000E+03 0.  0.
    8880022    1    1    2    0    0  0.41233117140E+02 -0.34969277905E+03 -0.78608530580E+02  0.39186242964E+03  0.15294330000E+03 0.  0.
<mgrwt>
<rscale>  0 0.63238530E+03</rscale>
<asrwt>0</asrwt>
<pdfrwt beam="1">  1        2 0.55498309E-01 0.74685703E+03</pdfrwt>
<pdfrwt beam="2">  1       -2 0.19503722E+00 0.74685703E+03</pdfrwt>
<totfact> 0.13040162E+01</totfact>
</mgrwt>
</event>
<event>
 4    2  0.3855935E-007  0.7807900E+03  0.7818608E-02  0.9753984E-01
         -2   -1    0    0    0  501 -0.00000000000E+00  0.00000000000E+00  0.39494267231E+03  0.39494267232E+03  0.25500000000E-02 0.  1.
          2   -1    0    0  501    0  0.00000000000E+00 -0.00000000000E+00 -0.15098821014E+04  0.15098821014E+04  0.25500000000E-02 0. -1.
    8880023    1    1    2    0    0  0.41253425576E+03  0.75089024822E+02 -0.88807073960E+02  0.78582426564E+03  0.65864270000E+03 0.  1.
    8880022    1    1    2    0    0 -0.41253425576E+03 -0.75089024822E+02 -0.10261323551E+04  0.11190005080E+04  0.15294330000E+03 0.  0.
<mgrwt>
<rscale>  0 0.67891565E+03</rscale>
<asrwt>0</asrwt>
<pdfrwt beam="1">  1        2 0.23228955E+00 0.78079004E+03</pdfrwt>
<pdfrwt beam="2">  1       -2 0.60760412E-01 0.78079004E+03</pdfrwt>
<totfact> 0.32226033E+01</totfact>
</mgrwt>
</event>
<event>
 4    2  0.3855935E-007  0.1059062E+04  0.7818608E-02  0.9308066E-01
          2   -1    0    0  501    0  0.00000000000E+00  0.00000000000E+00  0.25083389795E+04  0.25083389795E+04  0.25500000000E-02 0. -1.
         -2   -1    0    0    0  501 -0.00000000000E+00 -0.00000000000E+00 -0.42279987457E+03  0.42279987458E+03  0.25500000000E-02 0.  1.
    8880023    1    1    2    0    0  0.42212801719E+03  0.71386975513E+03  0.58508881056E+03  0.12099343836E+04  0.65864270000E+03 0.  0.
    8880022    1    1    2    0    0 -0.42212801719E+03 -0.71386975513E+03  0.15004502943E+04  0.17212044704E+04  0.15294330000E+03 0.  0.
<mgrwt>
<rscale>  0 0.10004365E+04</rscale>
<asrwt>0</asrwt>
<pdfrwt beam="1">  1        2 0.38589829E+00 0.10590620E+04</pdfrwt>
<pdfrwt beam="2">  1       -2 0.65046136E-01 0.10590620E+04</pdfrwt>
<totfact> 0.75360656E+00</totfact>
</mgrwt>
</event>
<event>
 4    2  0.3855935E-007  0.6942309E+03  0.7818608E-02  0.1002203E+00
         -2   -1    0    0    0  501 -0.00000000000E+00  0.00000000000E+00  0.15994426440E+03  0.15994426442E+03  0.25500000000E-02 0.  1.
          2   -1    0    0  501    0  0.00000000000E+00 -0.00000000000E+00 -0.33474355420E+04  0.33474355420E+04  0.25500000000E-02 0. -1.
    8880023    1    1    2    0    0  0.12260129624E+03  0.18197603784E+03 -0.63477310768E+03  0.94068775940E+03  0.65864270000E+03 0.  1.
    8880022    1    1    2    0    0 -0.12260129624E+03 -0.18197603784E+03 -0.25527181699E+04  0.25666920470E+04  0.15294330000E+03 0.  0.
<mgrwt>
<rscale>  0 0.54694678E+03</rscale>
<asrwt>0</asrwt>
<pdfrwt beam="1">  1        2 0.51499003E+00 0.69423091E+03</pdfrwt>
<pdfrwt beam="2">  1       -2 0.24606812E-01 0.69423091E+03</pdfrwt>
<totfact> 0.16534182E+01</totfact>
</mgrwt>
</event>
<event>
 4    2  0.3855935E-007  0.1238546E+04  0.7818608E-02  0.9120535E-01
         -2   -1    0    0    0  501 -0.00000000000E+00  0.00000000000E+00  0.15607006597E+04  0.15607006597E+04  0.25500000000E-02 0.  1.
          2   -1    0    0  501    0  0.00000000000E+00 -0.00000000000E+00 -0.14931865269E+04  0.14931865269E+04  0.25500000000E-02 0. -1.
    8880023    1    1    2    0    0 -0.10468734373E+04 -0.65121457770E+02  0.10385583349E+04  0.16163534327E+04  0.65864270000E+03 0.  0.
    8880022    1    1    2    0    0  0.10468734373E+04  0.65121457770E+02 -0.97104420217E+03  0.14375337539E+04  0.15294330000E+03 0.  0.
<mgrwt>
<rscale>  0 0.11912675E+04</rscale>
<asrwt>0</asrwt>
<pdfrwt beam="1">  1        2 0.22972101E+00 0.12385455E+04</pdfrwt>
<pdfrwt beam="2">  1       -2 0.24010779E+00 0.12385455E+04</pdfrwt>
<totfact> 0.91569237E-01</totfact>
</mgrwt>
</event>
<event>
 4    2  0.3855935E-007  0.1397413E+04  0.7818608E-02  0.8985696E-01
         -2   -1    0    0    0  501 -0.00000000000E+00  0.00000000000E+00  0.10807092912E+04  0.10807092912E+04  0.25500000000E-02 0.  1.
          2   -1    0    0  501    0  0.00000000000E+00 -0.00000000000E+00 -0.26411625777E+04  0.26411625777E+04  0.25500000000E-02 0. -1.
    8880023    1    1    2    0    0  0.78876568912E+03 -0.94699578734E+03  0.35245771986E+03  0.14411762502E+04  0.65864270000E+03 0.  0.
    8880022    1    1    2    0    0 -0.78876568912E+03  0.94699578734E+03 -0.19129110065E+04  0.22806956187E+04  0.15294330000E+03 0.  0.
<mgrwt>
<rscale>  0 0.13568011E+04</rscale>
<asrwt>0</asrwt>
<pdfrwt beam="1">  1        2 0.40633270E+00 0.13974128E+04</pdfrwt>
<pdfrwt beam="2">  1       -2 0.16626297E+00 0.13974128E+04</pdfrwt>
<totfact> 0.62262794E-01</totfact>
</mgrwt>
</event>
<event>
 4    2  0.3855935E-007  0.7501461E+03  0.7818608E-02  0.9831321E-01
          2   -1    0    0  501    0  0.00000000000E+00  0.00000000000E+00  0.23674827376E+04  0.23674827376E+04  0.25500000000E-02 0. -1.
         -2   -1    0    0    0  501 -0.00000000000E+00 -0.00000000000E+00 -0.17468566566E+03  0.17468566568E+03  0.25500000000E-02 0.  1.
    8880023    1    1    2    0    0  0.23797009980E+03  0.26884784125E+03  0.19327144944E+04  0.20731870281E+04  0.65864270000E+03 0.  0.
    8880022    1    1    2    0    0 -0.23797009980E+03 -0.26884784125E+03  0.26008257748E+03  0.46898137518E+03  0.15294330000E+03 0.  0.
<mgrwt>
<rscale>  0 0.63708456E+03</rscale>
<asrwt>0</asrwt>
<pdfrwt beam="1">  1        2 0.36422812E+00 0.75014608E+03</pdfrwt>
<pdfrwt beam="2">  1       -2 0.26874718E-01 0.75014608E+03</pdfrwt>
<totfact> 0.54072938E+01</totfact>
</mgrwt>
</event>
<event>
 4    2  0.3855935E-007  0.7128971E+03  0.7818608E-02  0.9947396E-01
          2   -1    0    0  501    0  0.00000000000E+00  0.00000000000E+00  0.14183867669E+04  0.14183867669E+04  0.25500000000E-02 0. -1.
         -2   -1    0    0    0  501 -0.00000000000E+00 -0.00000000000E+00 -0.19693530486E+03  0.19693530488E+03  0.25500000000E-02 0.  1.
    8880023    1    1    2    0    0 -0.18412278259E+03  0.20127300491E+03  0.65420237459E+03  0.96757582378E+03  0.65864270000E+03 0.  1.
    8880022    1    1    2    0    0  0.18412278259E+03 -0.20127300491E+03  0.56724908741E+03  0.64774624797E+03  0.15294330000E+03 0.  0.
<mgrwt>
<rscale>  0 0.58018236E+03</rscale>
<asrwt>0</asrwt>
<pdfrwt beam="1">  1        2 0.21821336E+00 0.71289707E+03</pdfrwt>
<pdfrwt beam="2">  1       -2 0.30297738E-01 0.71289707E+03</pdfrwt>
<totfact> 0.14475907E+02</totfact>
</mgrwt>
</event>
<event>
 4    2  0.3855935E-007  0.1061494E+04  0.7818608E-02  0.9305190E-01
         -2   -1    0    0    0  501 -0.00000000000E+00  0.00000000000E+00  0.71248457632E+03  0.71248457632E+03  0.25500000000E-02 0.  1.
          2   -1    0    0  501    0  0.00000000000E+00 -0.00000000000E+00 -0.26844393958E+04  0.26844393958E+04  0.25500000000E-02 0. -1.
    8880023    1    1    2    0    0 -0.70375511871E+03  0.44462061185E+03  0.18713986301E+03  0.10778637623E+04  0.65864270000E+03 0.  0.
    8880022    1    1    2    0    0  0.70375511871E+03 -0.44462061185E+03 -0.21590946825E+04  0.23190602098E+04  0.15294330000E+03 0.  0.
<mgrwt>
<rscale>  0 0.10030643E+04</rscale>
<asrwt>0</asrwt>
<pdfrwt beam="1">  1        2 0.41299067E+00 0.10614937E+04</pdfrwt>
<pdfrwt beam="2">  1       -2 0.10961301E+00 0.10614937E+04</pdfrwt>
<totfact> 0.18021631E+00</totfact>
</mgrwt>
</event>
<event>
 4    2  0.3855935E-007  0.7866541E+03  0.7818608E-02  0.9740432E-01
         -2   -1    0    0    0  501 -0.00000000000E+00  0.00000000000E+00  0.49256790605E+03  0.49256790606E+03  0.25500000000E-02 0.  1.
          2   -1    0    0  501    0  0.00000000000E+00 -0.00000000000E+00 -0.21684293270E+04  0.21684293270E+04  0.25500000000E-02 0. -1.
    8880023    1    1    2    0    0 -0.43012738468E+03 -0.21957470245E+01  0.13088545157E+03  0.79746824141E+03  0.65864270000E+03 0.  1.
    8880022    1    1    2    0    0  0.43012738468E+03  0.21957470245E+01 -0.18067468725E+04  0.18635289917E+04  0.15294330000E+03 0.  0.
<mgrwt>
<rscale>  0 0.68659656E+03</rscale>
<asrwt>0</asrwt>
<pdfrwt beam="1">  1        2 0.33360451E+00 0.78665405E+03</pdfrwt>
<pdfrwt beam="2">  1       -2 0.75779679E-01 0.78665405E+03</pdfrwt>
<totfact> 0.86792434E+00</totfact>
</mgrwt>
</event>
<event>
 4    2  0.3855935E-007  0.6845369E+03  0.7818608E-02  0.1006866E+00
          2   -1    0    0  501    0  0.00000000000E+00  0.00000000000E+00  0.17217891069E+04  0.17217891069E+04  0.25500000000E-02 0. -1.
         -2   -1    0    0    0  501 -0.00000000000E+00 -0.00000000000E+00 -0.68901605124E+03  0.68901605124E+03  0.25500000000E-02 0.  1.
    8880023    1    1    2    0    0  0.19187863006E+02  0.18550571679E+03 -0.50726010138E+03  0.85199974282E+03  0.65864270000E+03 0.  0.
    8880022    1    1    2    0    0 -0.19187863006E+02 -0.18550571679E+03  0.15400331571E+04  0.15588054153E+04  0.15294330000E+03 0. -1.
<mgrwt>
<rscale>  0 0.52739630E+03</rscale>
<asrwt>0</asrwt>
<pdfrwt beam="1">  1        2 0.26489063E+00 0.68453689E+03</pdfrwt>
<pdfrwt beam="2">  1       -2 0.10600247E+00 0.68453689E+03</pdfrwt>
<totfact> 0.71265779E+00</totfact>
</mgrwt>
</event>
<event>
 4    2  0.3855935E-007  0.7661519E+03  0.7818608E-02  0.9789434E-01
          2   -1    0    0  501    0  0.00000000000E+00  0.00000000000E+00  0.25846728883E+04  0.25846728883E+04  0.25500000000E-02 0. -1.
         -2   -1    0    0    0  501 -0.00000000000E+00 -0.00000000000E+00 -0.15983941767E+03  0.15983941769E+03  0.25500000000E-02 0.  1.
    8880023    1    1    2    0    0  0.19296354905E+03 -0.34050480161E+03  0.10045485147E+04  0.12633710364E+04  0.65864270000E+03 0.  0.
    8880022    1    1    2    0    0 -0.19296354905E+03  0.34050480161E+03  0.14202849560E+04  0.14811412695E+04  0.15294330000E+03 0.  0.
<mgrwt>
<rscale>  0 0.65932689E+03</rscale>
<asrwt>0</asrwt>
<pdfrwt beam="1">  1        2 0.39764200E+00 0.76615185E+03</pdfrwt>
<pdfrwt beam="2">  1       -2 0.24590679E-01 0.76615185E+03</pdfrwt>
<totfact> 0.47763172E+01</totfact>
</mgrwt>
</event>
<event>
 4    2  0.3855935E-007  0.7087615E+03  0.7818608E-02  0.9962629E-01
          2   -1    0    0  501    0  0.00000000000E+00  0.00000000000E+00  0.15171985112E+04  0.15171985112E+04  0.25500000000E-02 0. -1.
         -2   -1    0    0    0  501 -0.00000000000E+00 -0.00000000000E+00 -0.36656142749E+03  0.36656142750E+03  0.25500000000E-02 0.  1.
    8880023    1    1    2    0    0 -0.23793418754E+03  0.10917858770E+03  0.15606981356E+02  0.70893330133E+03  0.65864270000E+03 0.  1.
    8880022    1    1    2    0    0  0.23793418754E+03 -0.10917858770E+03  0.11350301024E+04  0.11748266374E+04  0.15294330000E+03 0.  0.
<mgrwt>
<rscale>  0 0.57319695E+03</rscale>
<asrwt>0</asrwt>
<pdfrwt beam="1">  1        2 0.23341515E+00 0.70876149E+03</pdfrwt>
<pdfrwt beam="2">  1       -2 0.56394067E-01 0.70876149E+03</pdfrwt>
<totfact> 0.37645299E+01</totfact>
</mgrwt>
</event>
<event>
 4    2  0.3855935E-007  0.1253328E+04  0.7818608E-02  0.9106950E-01
          2   -1    0    0  501    0  0.00000000000E+00  0.00000000000E+00  0.19044081305E+04  0.19044081305E+04  0.25500000000E-02 0. -1.
         -2   -1    0    0    0  501 -0.00000000000E+00 -0.00000000000E+00 -0.14365782883E+04  0.14365782883E+04  0.25500000000E-02 0.  1.
    8880023    1    1    2    0    0 -0.38273340769E+03  0.99525702549E+03 -0.94117805184E+03  0.15673696883E+04  0.65864270000E+03 0.  0.
    8880022    1    1    2    0    0  0.38273340769E+03 -0.99525702549E+03  0.14090078940E+04  0.17736167305E+04  0.15294330000E+03 0.  0.
<mgrwt>
<rscale>  0 0.12067719E+04</rscale>
<asrwt>0</asrwt>
<pdfrwt beam="1">  1        2 0.29298587E+00 0.12533282E+04</pdfrwt>
<pdfrwt beam="2">  1       -2 0.22101204E+00 0.12533282E+04</pdfrwt>
<totfact> 0.70934950E-01</totfact>
</mgrwt>
</event>
<event>
 4    2  0.3855935E-007  0.7179574E+03  0.7818608E-02  0.9929559E-01
          2   -1    0    0  501    0  0.00000000000E+00  0.00000000000E+00  0.12096423060E+04  0.12096423060E+04  0.25500000000E-02 0. -1.
         -2   -1    0    0    0  501 -0.00000000000E+00 -0.00000000000E+00 -0.22671521788E+03  0.22671521790E+03  0.25500000000E-02 0.  1.
    8880023    1    1    2    0    0  0.23951066243E+03 -0.15584368293E+03  0.60844976834E+03  0.94110251184E+03  0.65864270000E+03 0.  0.
    8880022    1    1    2    0    0 -0.23951066243E+03  0.15584368293E+03  0.37447731975E+03  0.49525501204E+03  0.15294330000E+03 0. -1.
<mgrwt>
<rscale>  0 0.58849875E+03</rscale>
<asrwt>0</asrwt>
<pdfrwt beam="1">  1        2 0.18609882E+00 0.71795739E+03</pdfrwt>
<pdfrwt beam="2">  1       -2 0.34879264E-01 0.71795739E+03</pdfrwt>
<totfact> 0.14637946E+02</totfact>
</mgrwt>
</event>
<event>
 4    2  0.3855935E-007  0.7452584E+03  0.7818608E-02  0.9844886E-01
         -2   -1    0    0    0  501 -0.00000000000E+00  0.00000000000E+00  0.43106701906E+03  0.43106701907E+03  0.25500000000E-02 0.  1.
          2   -1    0    0  501    0  0.00000000000E+00 -0.00000000000E+00 -0.10873241295E+04  0.10873241295E+04  0.25500000000E-02 0. -1.
    8880023    1    1    2    0    0 -0.17130194476E+03 -0.30373602807E+03 -0.81631469779E+03  0.11053414962E+04  0.65864270000E+03 0. -1.
    8880022    1    1    2    0    0  0.17130194476E+03  0.30373602807E+03  0.16005758740E+03  0.41304965237E+03  0.15294330000E+03 0.  0.
<mgrwt>
<rscale>  0 0.63008338E+03</rscale>
<asrwt>0</asrwt>
<pdfrwt beam="1">  1        2 0.16728063E+00 0.74525844E+03</pdfrwt>
<pdfrwt beam="2">  1       -2 0.66318003E-01 0.74525844E+03</pdfrwt>
<totfact> 0.47164482E+01</totfact>
</mgrwt>
</event>
<event>
 4    2  0.3855935E-007  0.8313444E+03  0.7818608E-02  0.9646722E-01
          2   -1    0    0  501    0  0.00000000000E+00  0.00000000000E+00  0.19621312854E+04  0.19621312854E+04  0.25500000000E-02 0. -1.
         -2   -1    0    0    0  501 -0.00000000000E+00 -0.00000000000E+00 -0.58140249107E+03  0.58140249107E+03  0.25500000000E-02 0.  1.
    8880023    1    1    2    0    0 -0.42121684430E+03 -0.28266531696E+03 -0.21787242658E+03  0.85941952030E+03  0.65864270000E+03 0.  0.
    8880022    1    1    2    0    0  0.42121684430E+03  0.28266531696E+03  0.15986012209E+04  0.16841142561E+04  0.15294330000E+03 0.  0.
<mgrwt>
<rscale>  0 0.74279493E+03</rscale>
<asrwt>0</asrwt>
<pdfrwt beam="1">  1        2 0.30186635E+00 0.83134440E+03</pdfrwt>
<pdfrwt beam="2">  1       -2 0.89446538E-01 0.83134440E+03</pdfrwt>
<totfact> 0.76866980E+00</totfact>
</mgrwt>
</event>
<event>
 4    2  0.3855935E-007  0.1111747E+04  0.7818608E-02  0.9248089E-01
          2   -1    0    0  501    0  0.00000000000E+00  0.00000000000E+00  0.15945803048E+04  0.15945803048E+04  0.25500000000E-02 0. -1.
         -2   -1    0    0    0  501 -0.00000000000E+00 -0.00000000000E+00 -0.66850631239E+03  0.66850631239E+03  0.25500000000E-02 0.  1.
    8880023    1    1    2    0    0 -0.42377601233E+02  0.89463685904E+03  0.74032955122E+03  0.13356904661E+04  0.65864270000E+03 0.  1.
    8880022    1    1    2    0    0  0.42377601233E+02 -0.89463685904E+03  0.18574444124E+03  0.92739615111E+03  0.15294330000E+03 0.  0.
<mgrwt>
<rscale>  0 0.10570565E+04</rscale>
<asrwt>0</asrwt>
<pdfrwt beam="1">  1        2 0.24532004E+00 0.11117469E+04</pdfrwt>
<pdfrwt beam="2">  1       -2 0.10284713E+00 0.11117469E+04</pdfrwt>
<totfact> 0.85453979E+00</totfact>
</mgrwt>
</event>
<event>
 4    2  0.3855935E-007  0.7253851E+03  0.7818608E-02  0.9904769E-01
          2   -1    0    0  501    0  0.00000000000E+00  0.00000000000E+00  0.89510759537E+03  0.89510759538E+03  0.25500000000E-02 0. -1.
         -2   -1    0    0    0  501 -0.00000000000E+00 -0.00000000000E+00 -0.14004189344E+04  0.14004189344E+04  0.25500000000E-02 0.  1.
    8880023    1    1    2    0    0 -0.29539834160E+03  0.71506556528E+02 -0.12677541742E+04  0.14606109066E+04  0.65864270000E+03 0.  1.
    8880022    1    1    2    0    0  0.29539834160E+03 -0.71506556528E+02  0.76244283522E+03  0.83491562319E+03  0.15294330000E+03 0.  0.
<mgrwt>
<rscale>  0 0.60030734E+03</rscale>
<asrwt>0</asrwt>
<pdfrwt beam="1">  1        2 0.13770886E+00 0.72538512E+03</pdfrwt>
<pdfrwt beam="2">  1       -2 0.21544907E+00 0.72538512E+03</pdfrwt>
<totfact> 0.32132017E+00</totfact>
</mgrwt>
</event>
<event>
 4    2  0.3855935E-007  0.8512509E+03  0.7818608E-02  0.9609320E-01
         -2   -1    0    0    0  501 -0.00000000000E+00  0.00000000000E+00  0.67096756071E+03  0.67096756071E+03  0.25500000000E-02 0.  1.
          2   -1    0    0  501    0  0.00000000000E+00 -0.00000000000E+00 -0.11684841935E+04  0.11684841935E+04  0.25500000000E-02 0. -1.
    8880023    1    1    2    0    0  0.91932164590E+02 -0.53138153669E+03  0.26637985967E+03  0.89195644306E+03  0.65864270000E+03 0.  1.
    8880022    1    1    2    0    0 -0.91932164590E+02  0.53138153669E+03 -0.76389649243E+03  0.94749531111E+03  0.15294330000E+03 0.  0.
<mgrwt>
<rscale>  0 0.76682383E+03</rscale>
<asrwt>0</asrwt>
<pdfrwt beam="1">  1        2 0.17976680E+00 0.85125088E+03</pdfrwt>
<pdfrwt beam="2">  1       -2 0.10322578E+00 0.85125088E+03</pdfrwt>
<totfact> 0.15268515E+01</totfact>
</mgrwt>
</event>
<event>
 4    2  0.3855935E-007  0.6970152E+03  0.7818608E-02  0.1000982E+00
          2   -1    0    0  501    0  0.00000000000E+00  0.00000000000E+00  0.50034260253E+04  0.50034260253E+04  0.25500000000E-02 0. -1.
         -2   -1    0    0    0  501 -0.00000000000E+00 -0.00000000000E+00 -0.24725916333E+03  0.24725916335E+03  0.25500000000E-02 0.  1.
    8880023    1    1    2    0    0  0.22767666570E+03  0.13539902301E+02  0.25660184282E+03  0.74274807644E+03  0.65864270000E+03 0.  1.
    8880022    1    1    2    0    0 -0.22767666570E+03 -0.13539902301E+02  0.44995650192E+04  0.45079371122E+04  0.15294330000E+03 0.  0.
<mgrwt>
<rscale>  0 0.55221919E+03</rscale>
<asrwt>0</asrwt>
<pdfrwt beam="1">  1        2 0.76975786E+00 0.69701521E+03</pdfrwt>
<pdfrwt beam="2">  1       -2 0.38039871E-01 0.69701521E+03</pdfrwt>
<totfact> 0.26602225E-01</totfact>
</mgrwt>
</event>
<event>
 4    2  0.3855935E-007  0.9889327E+03  0.7818608E-02  0.9396182E-01
         -2   -1    0    0    0  501 -0.00000000000E+00  0.00000000000E+00  0.13870972218E+04  0.13870972218E+04  0.25500000000E-02 0.  1.
          2   -1    0    0  501    0  0.00000000000E+00 -0.00000000000E+00 -0.11679439506E+04  0.11679439506E+04  0.25500000000E-02 0. -1.
    8880023    1    1    2    0    0  0.49476754596E+03  0.54715872864E+03  0.10439320230E+04  0.14379783983E+04  0.65864270000E+03 0.  1.
    8880022    1    1    2    0    0 -0.49476754596E+03 -0.54715872864E+03 -0.82477875183E+03  0.11170627741E+04  0.15294330000E+03 0.  0.
<mgrwt>
<rscale>  0 0.92390517E+03</rscale>
<asrwt>0</asrwt>
<pdfrwt beam="1">  1        2 0.17968368E+00 0.98893266E+03</pdfrwt>
<pdfrwt beam="2">  1       -2 0.21339957E+00 0.98893266E+03</pdfrwt>
<totfact> 0.21441680E+00</totfact>
</mgrwt>
</event>
<event>
 4    2  0.3855935E-007  0.6641736E+03  0.7818608E-02  0.1020237E+00
          2   -1    0    0  501    0  0.00000000000E+00  0.00000000000E+00  0.11356382016E+04  0.11356382016E+04  0.25500000000E-02 0. -1.
         -2   -1    0    0    0  501 -0.00000000000E+00 -0.00000000000E+00 -0.41288296779E+03  0.41288296780E+03  0.25500000000E-02 0.  1.
    8880023    1    1    2    0    0 -0.47570573594E+02  0.71087248394E+02 -0.13099828137E+03  0.67696906306E+03  0.65864270000E+03 0.  1.
    8880022    1    1    2    0    0  0.47570573594E+02 -0.71087248394E+02  0.85375351517E+03  0.87155210632E+03  0.15294330000E+03 0.  0.
<mgrwt>
<rscale>  0 0.47601174E+03</rscale>
<asrwt>0</asrwt>
<pdfrwt beam="1">  1        2 0.17471357E+00 0.66417359E+03</pdfrwt>
<pdfrwt beam="2">  1       -2 0.63520456E-01 0.66417359E+03</pdfrwt>
<totfact> 0.48735886E+01</totfact>
</mgrwt>
</event>
<event>
 4    2  0.3855935E-007  0.9384717E+03  0.7818608E-02  0.9466898E-01
          2   -1    0    0  501    0  0.00000000000E+00  0.00000000000E+00  0.26593799518E+04  0.26593799518E+04  0.25500000000E-02 0. -1.
         -2   -1    0    0    0  501 -0.00000000000E+00 -0.00000000000E+00 -0.41906812735E+03  0.41906812735E+03  0.25500000000E-02 0.  1.
    8880023    1    1    2    0    0 -0.66685343144E+03 -0.47174799600E+02  0.21996140527E+04  0.23914495913E+04  0.65864270000E+03 0.  0.
    8880022    1    1    2    0    0  0.66685343144E+03  0.47174799600E+02  0.40697771831E+02  0.68699848791E+03  0.15294330000E+03 0.  0.
<mgrwt>
<rscale>  0 0.86768880E+03</rscale>
<asrwt>0</asrwt>
<pdfrwt beam="1">  1        2 0.40913536E+00 0.93847172E+03</pdfrwt>
<pdfrwt beam="2">  1       -2 0.64472022E-01 0.93847172E+03</pdfrwt>
<totfact> 0.63823007E+00</totfact>
</mgrwt>
</event>
<event>
 4    2  0.3855935E-007  0.1256186E+04  0.7818608E-02  0.9104351E-01
          2   -1    0    0  501    0  0.00000000000E+00  0.00000000000E+00  0.39251748539E+04  0.39251748539E+04  0.25500000000E-02 0. -1.
         -2   -1    0    0    0  501 -0.00000000000E+00 -0.00000000000E+00 -0.53290770140E+03  0.53290770140E+03  0.25500000000E-02 0.  1.
    8880023    1    1    2    0    0 -0.97210419592E+03 -0.44632493305E+03  0.46794625569E+03  0.13405134904E+04  0.65864270000E+03 0.  0.
    8880022    1    1    2    0    0  0.97210419592E+03  0.44632493305E+03  0.29243208968E+04  0.31175690649E+04  0.15294330000E+03 0.  0.
<mgrwt>
<rscale>  0 0.12097662E+04</rscale>
<asrwt>0</asrwt>
<pdfrwt beam="1">  1        2 0.60387306E+00 0.12561858E+04</pdfrwt>
<pdfrwt beam="2">  1       -2 0.81985800E-01 0.12561858E+04</pdfrwt>
<totfact> 0.51635556E-01</totfact>
</mgrwt>
</event>
<event>
 4    2  0.3855935E-007  0.7971638E+03  0.7818608E-02  0.9716962E-01
         -2   -1    0    0    0  501 -0.00000000000E+00  0.00000000000E+00  0.95463264674E+02  0.95463264708E+02  0.25500000000E-02 0.  1.
          2   -1    0    0  501    0  0.00000000000E+00 -0.00000000000E+00 -0.43835463622E+04  0.43835463622E+04  0.25500000000E-02 0. -1.
    8880023    1    1    2    0    0  0.66624398485E+01  0.44901623650E+03 -0.22695229726E+04  0.24054531170E+04  0.65864270000E+03 0. -1.
    8880022    1    1    2    0    0 -0.66624398485E+01 -0.44901623650E+03 -0.20185601249E+04  0.20735565099E+04  0.15294330000E+03 0.  0.
<mgrwt>
<rscale>  0 0.70015784E+03</rscale>
<asrwt>0</asrwt>
<pdfrwt beam="1">  1        2 0.67439159E+00 0.79716383E+03</pdfrwt>
<pdfrwt beam="2">  1       -2 0.14686660E-01 0.79716383E+03</pdfrwt>
<totfact> 0.64244156E+00</totfact>
</mgrwt>
</event>
<event>
 4    2  0.3855935E-007  0.7827479E+03  0.7818608E-02  0.9749421E-01
         -2   -1    0    0    0  501 -0.00000000000E+00  0.00000000000E+00  0.95111049210E+03  0.95111049211E+03  0.25500000000E-02 0.  1.
          2   -1    0    0  501    0  0.00000000000E+00 -0.00000000000E+00 -0.70868524539E+03  0.70868524540E+03  0.25500000000E-02 0. -1.
    8880023    1    1    2    0    0  0.37693690090E+03  0.19184016518E+03  0.67662081529E+03  0.10346545366E+04  0.65864270000E+03 0.  0.
    8880022    1    1    2    0    0 -0.37693690090E+03 -0.19184016518E+03 -0.43419556858E+03  0.62514120087E+03  0.15294330000E+03 0.  0.
<mgrwt>
<rscale>  0 0.68148987E+03</rscale>
<asrwt>0</asrwt>
<pdfrwt beam="1">  1        2 0.10902850E+00 0.78274790E+03</pdfrwt>
<pdfrwt beam="2">  1       -2 0.14632469E+00 0.78274790E+03</pdfrwt>
<totfact> 0.13055756E+01</totfact>
</mgrwt>
</event>
<event>
 4    2  0.3855935E-007  0.1076365E+04  0.7818608E-02  0.9287838E-01
         -2   -1    0    0    0  501 -0.00000000000E+00  0.00000000000E+00  0.14178013297E+04  0.14178013297E+04  0.25500000000E-02 0.  1.
          2   -1    0    0  501    0  0.00000000000E+00 -0.00000000000E+00 -0.15015695780E+04  0.15015695780E+04  0.25500000000E-02 0. -1.
    8880023    1    1    2    0    0  0.55602122117E+03 -0.64466479844E+03  0.10430618154E+04  0.14988463756E+04  0.65864270000E+03 0.  0.
    8880022    1    1    2    0    0 -0.55602122117E+03  0.64466479844E+03 -0.11268300638E+04  0.14205245321E+04  0.15294330000E+03 0.  0.
<mgrwt>
<rscale>  0 0.10191027E+04</rscale>
<asrwt>0</asrwt>
<pdfrwt beam="1">  1        2 0.23101070E+00 0.10763654E+04</pdfrwt>
<pdfrwt beam="2">  1       -2 0.21812328E+00 0.10763654E+04</pdfrwt>
<totfact> 0.12673742E+00</totfact>
</mgrwt>
</event>
<event>
 4    2  0.3855935E-007  0.8752151E+03  0.7818608E-02  0.9567052E-01
          2   -1    0    0  501    0  0.00000000000E+00  0.00000000000E+00  0.41455642512E+04  0.41455642512E+04  0.25500000000E-02 0. -1.
         -2   -1    0    0    0  501 -0.00000000000E+00 -0.00000000000E+00 -0.70627014579E+03  0.70627014580E+03  0.25500000000E-02 0.  1.
    8880023    1    1    2    0    0 -0.49375088664E+03  0.29732359722E+03 -0.40300199648E+03  0.96354142358E+03  0.65864270000E+03 0.  1.
    8880022    1    1    2    0    0  0.49375088664E+03 -0.29732359722E+03  0.38422961019E+04  0.38882929735E+04  0.15294330000E+03 0.  0.
<mgrwt>
<rscale>  0 0.79515851E+03</rscale>
<asrwt>0</asrwt>
<pdfrwt beam="1">  1        2 0.63777910E+00 0.87521510E+03</pdfrwt>
<pdfrwt beam="2">  1       -2 0.10865695E+00 0.87521510E+03</pdfrwt>
<totfact> 0.19043341E-01</totfact>
</mgrwt>
</event>
<event>
 4    2  0.3855935E-007  0.7615746E+03  0.7818608E-02  0.9801048E-01
         -2   -1    0    0    0  501 -0.00000000000E+00  0.00000000000E+00  0.15970141965E+03  0.15970141967E+03  0.25500000000E-02 0.  1.
          2   -1    0    0  501    0  0.00000000000E+00 -0.00000000000E+00 -0.26349679313E+04  0.26349679313E+04  0.25500000000E-02 0. -1.
    8880023    1    1    2    0    0  0.38174486541E+03  0.21366801898E+02 -0.96527554450E+03  0.12295335561E+04  0.65864270000E+03 0.  0.
    8880022    1    1    2    0    0 -0.38174486541E+03 -0.21366801898E+02 -0.15099909671E+04  0.15651357948E+04  0.15294330000E+03 0.  0.
<mgrwt>
<rscale>  0 0.65306336E+03</rscale>
<asrwt>0</asrwt>
<pdfrwt beam="1">  1        2 0.40537965E+00 0.76157461E+03</pdfrwt>
<pdfrwt beam="2">  1       -2 0.24569451E-01 0.76157461E+03</pdfrwt>
<totfact> 0.44782376E+01</totfact>
</mgrwt>
</event>
<event>
 4    2  0.3855935E-007  0.6922474E+03  0.7818608E-02  0.1003102E+00
         -2   -1    0    0    0  501 -0.00000000000E+00  0.00000000000E+00  0.51332793545E+03  0.51332793546E+03  0.25500000000E-02 0.  1.
          2   -1    0    0  501    0  0.00000000000E+00 -0.00000000000E+00 -0.13493659229E+04  0.13493659229E+04  0.25500000000E-02 0. -1.
    8880023    1    1    2    0    0  0.23318697163E+02 -0.21178415525E+03  0.25716329137E+03  0.73847102499E+03  0.65864270000E+03 0.  0.
    8880022    1    1    2    0    0 -0.23318697163E+02  0.21178415525E+03 -0.10932012788E+04  0.11242228333E+04  0.15294330000E+03 0.  0.
<mgrwt>
<rscale>  0 0.54310656E+03</rscale>
<asrwt>0</asrwt>
<pdfrwt beam="1">  1        2 0.20759476E+00 0.69224742E+03</pdfrwt>
<pdfrwt beam="2">  1       -2 0.78973529E-01 0.69224742E+03</pdfrwt>
<totfact> 0.22645235E+01</totfact>
</mgrwt>
</event>
<event>
 4    2  0.3855935E-007  0.7175345E+03  0.7818608E-02  0.9931018E-01
         -2   -1    0    0    0  501 -0.00000000000E+00  0.00000000000E+00  0.13813483567E+04  0.13813483567E+04  0.25500000000E-02 0.  1.
          2   -1    0    0  501    0  0.00000000000E+00 -0.00000000000E+00 -0.13424673175E+04  0.13424673175E+04  0.25500000000E-02 0. -1.
    8880023    1    1    2    0    0 -0.59892634152E+02 -0.27831354694E+03  0.12658119606E+04  0.14550380352E+04  0.65864270000E+03 0.  1.
    8880022    1    1    2    0    0  0.59892634152E+02  0.27831354694E+03 -0.12269309215E+04  0.12687776390E+04  0.15294330000E+03 0.  0.
<mgrwt>
<rscale>  0 0.58781275E+03</rscale>
<asrwt>0</asrwt>
<pdfrwt beam="1">  1        2 0.20653343E+00 0.71753450E+03</pdfrwt>
<pdfrwt beam="2">  1       -2 0.21251513E+00 0.71753450E+03</pdfrwt>
<totfact> 0.17876653E+00</totfact>
</mgrwt>
</event>
<event>
 4    2  0.3855935E-007  0.6749684E+03  0.7818608E-02  0.1012326E+00
          2   -1    0    0  501    0  0.00000000000E+00  0.00000000000E+00  0.62217152639E+03  0.62217152640E+03  0.25500000000E-02 0. -1.
         -2   -1    0    0    0  501 -0.00000000000E+00 -0.00000000000E+00 -0.40534566443E+03  0.40534566443E+03  0.25500000000E-02 0.  1.
    8880023    1    1    2    0    0 -0.67385386178E+02  0.13126809611E+03 -0.61012399423E+02  0.67772031287E+03  0.65864270000E+03 0.  0.
    8880022    1    1    2    0    0  0.67385386178E+02 -0.13126809611E+03  0.27783826139E+03  0.34979687796E+03  0.15294330000E+03 0.  0.
<mgrwt>
<rscale>  0 0.50560496E+03</rscale>
<asrwt>0</asrwt>
<pdfrwt beam="1">  1        2 0.95718696E-01 0.67496838E+03</pdfrwt>
<pdfrwt beam="2">  1       -2 0.62360872E-01 0.67496838E+03</pdfrwt>
<totfact> 0.11499652E+02</totfact>
</mgrwt>
</event>
<event>
 4    2  0.3855935E-007  0.1080262E+04  0.7818608E-02  0.9283356E-01
         -2   -1    0    0    0  501 -0.00000000000E+00  0.00000000000E+00  0.37401125936E+03  0.37401125937E+03  0.25500000000E-02 0.  1.
          2   -1    0    0  501    0  0.00000000000E+00 -0.00000000000E+00 -0.29612849720E+04  0.29612849720E+04  0.25500000000E-02 0. -1.
    8880023    1    1    2    0    0  0.28082371430E+03  0.80888466355E+03 -0.78901189584E+03  0.13377243122E+04  0.65864270000E+03 0.  0.
    8880022    1    1    2    0    0 -0.28082371430E+03 -0.80888466355E+03 -0.17982618168E+04  0.19975719192E+04  0.15294330000E+03 0.  0.
<mgrwt>
<rscale>  0 0.10232964E+04</rscale>
<asrwt>0</asrwt>
<pdfrwt beam="1">  1        2 0.45558229E+00 0.10802623E+04</pdfrwt>
<pdfrwt beam="2">  1       -2 0.57540196E-01 0.10802623E+04</pdfrwt>
<totfact> 0.52645896E+00</totfact>
</mgrwt>
</event>
<event>
 4    2  0.3855935E-007  0.6823094E+03  0.7818608E-02  0.1008046E+00
          2   -1    0    0  501    0  0.00000000000E+00  0.00000000000E+00  0.21276892216E+04  0.21276892216E+04  0.25500000000E-02 0. -1.
         -2   -1    0    0    0  501 -0.00000000000E+00 -0.00000000000E+00 -0.68370069047E+03  0.68370069047E+03  0.25500000000E-02 0.  1.
    8880023    1    1    2    0    0  0.17640016598E+03  0.24876558344E+02 -0.50465051153E+03  0.84865670725E+03  0.65864270000E+03 0.  1.
    8880022    1    1    2    0    0 -0.17640016598E+03 -0.24876558344E+02  0.19486390426E+04  0.19627332048E+04  0.15294330000E+03 0.  0.
<mgrwt>
<rscale>  0 0.52258513E+03</rscale>
<asrwt>0</asrwt>
<pdfrwt beam="1">  1        2 0.32733679E+00 0.68230936E+03</pdfrwt>
<pdfrwt beam="2">  1       -2 0.10518472E+00 0.68230936E+03</pdfrwt>
<totfact> 0.43672568E+00</totfact>
</mgrwt>
</event>
<event>
 4    2  0.3855935E-007  0.6850054E+03  0.7818608E-02  0.1006623E+00
         -2   -1    0    0    0  501 -0.00000000000E+00  0.00000000000E+00  0.45678336005E+03  0.45678336006E+03  0.25500000000E-02 0.  1.
          2   -1    0    0  501    0  0.00000000000E+00 -0.00000000000E+00 -0.77566028907E+03  0.77566028907E+03  0.25500000000E-02 0. -1.
    8880023    1    1    2    0    0  0.12301357820E+03  0.14244267318E+03  0.15300983802E+03  0.70188636713E+03  0.65864270000E+03 0.  0.
    8880022    1    1    2    0    0 -0.12301357820E+03 -0.14244267318E+03 -0.47188676704E+03  0.53055728200E+03  0.15294330000E+03 0.  0.
<mgrwt>
<rscale>  0 0.52839114E+03</rscale>
<asrwt>0</asrwt>
<pdfrwt beam="1">  1        2 0.11933235E+00 0.68500545E+03</pdfrwt>
<pdfrwt beam="2">  1       -2 0.70274363E-01 0.68500545E+03</pdfrwt>
<totfact> 0.67335393E+01</totfact>
</mgrwt>
</event>
<event>
 4    2  0.3855935E-007  0.1568419E+04  0.7818608E-02  0.8862775E-01
         -2   -1    0    0    0  501 -0.00000000000E+00  0.00000000000E+00  0.10352081538E+04  0.10352081538E+04  0.25500000000E-02 0.  1.
          2   -1    0    0  501    0  0.00000000000E+00 -0.00000000000E+00 -0.22714869922E+04  0.22714869922E+04  0.25500000000E-02 0. -1.
    8880023    1    1    2    0    0  0.11871852555E+04  0.78531430732E+03 -0.98812272397E+03  0.18537324823E+04  0.65864270000E+03 0. -1.
    8880022    1    1    2    0    0 -0.11871852555E+04 -0.78531430732E+03 -0.24815611446E+03  0.14529626637E+04  0.15294330000E+03 0.  1.
<mgrwt>
<rscale>  0 0.15330384E+04</rscale>
<asrwt>0</asrwt>
<pdfrwt beam="1">  1        2 0.34945954E+00 0.15684188E+04</pdfrwt>
<pdfrwt beam="2">  1       -2 0.15926279E+00 0.15684188E+04</pdfrwt>
<totfact> 0.11247107E+00</totfact>
</mgrwt>
</event>
<event>
 4    2  0.3855935E-007  0.6868045E+03  0.7818608E-02  0.1005710E+00
         -2   -1    0    0    0  501 -0.00000000000E+00  0.00000000000E+00  0.13492815957E+03  0.13492815959E+03  0.25500000000E-02 0.  1.
          2   -1    0    0  501    0  0.00000000000E+00 -0.00000000000E+00 -0.16313092759E+04  0.16313092759E+04  0.25500000000E-02 0. -1.
    8880023    1    1    2    0    0  0.10292628133E+03 -0.16521629066E+03 -0.10253381996E+04  0.12341065075E+04  0.65864270000E+03 0.  1.
    8880022    1    1    2    0    0 -0.10292628133E+03  0.16521629066E+03 -0.47104291672E+03  0.53213092796E+03  0.15294330000E+03 0. -1.
<mgrwt>
<rscale>  0 0.53215896E+03</rscale>
<asrwt>0</asrwt>
<pdfrwt beam="1">  1        2 0.25097064E+00 0.68680452E+03</pdfrwt>
<pdfrwt beam="2">  1       -2 0.20758180E-01 0.68680452E+03</pdfrwt>
<totfact> 0.21871290E+02</totfact>
</mgrwt>
</event>
<event>
 4    2  0.3855935E-007  0.6863232E+03  0.7818608E-02  0.1005951E+00
          2   -1    0    0  501    0  0.00000000000E+00  0.00000000000E+00  0.11744531156E+04  0.11744531156E+04  0.25500000000E-02 0. -1.
         -2   -1    0    0    0  501 -0.00000000000E+00 -0.00000000000E+00 -0.40228334488E+03  0.40228334489E+03  0.25500000000E-02 0.  1.
    8880023    1    1    2    0    0  0.18518945654E+03  0.54168036101E+02 -0.78829443629E+02  0.69083543510E+03  0.65864270000E+03 0.  1.
    8880022    1    1    2    0    0 -0.18518945654E+03 -0.54168036101E+02  0.85099921437E+03  0.88590102541E+03  0.15294330000E+03 0.  0.
<mgrwt>
<rscale>  0 0.53115877E+03</rscale>
<asrwt>0</asrwt>
<pdfrwt beam="1">  1        2 0.18068509E+00 0.68632319E+03</pdfrwt>
<pdfrwt beam="2">  1       -2 0.61889746E-01 0.68632319E+03</pdfrwt>
<totfact> 0.48716486E+01</totfact>
</mgrwt>
</event>
<event>
 4    2  0.5405106E-007  0.7974725E+03  0.7818608E-02  0.9716288E-01
         -2   -1    0    0    0  501 -0.00000000000E+00  0.00000000000E+00  0.11008207325E+04  0.11008207325E+04  0.25500000000E-02 0.  1.
          2   -1    0    0  501    0  0.00000000000E+00 -0.00000000000E+00 -0.23648154024E+04  0.23648154024E+04  0.25500000000E-02 0. -1.
    8880023    1    1    2    0    0 -0.41991603153E+03  0.16069424746E+03  0.92754195377E+03  0.12232319473E+04  0.65864270000E+03 0.  1.
    8880022    1    1    2    0    0  0.41991603153E+03 -0.16069424746E+03 -0.21915366236E+04  0.22424041876E+04  0.15294330000E+03 0.  0.
<mgrwt>
<rscale>  0 0.70055240E+03</rscale>
<asrwt>0</asrwt>
<pdfrwt beam="1">  1        2 0.36381776E+00 0.79747246E+03</pdfrwt>
<pdfrwt beam="2">  1       -2 0.16935704E+00 0.79747246E+03</pdfrwt>
<totfact> 0.93261214E-01</totfact>
</mgrwt>
</event>
<event>
 4    2  0.3855935E-007  0.6630062E+03  0.7818608E-02  0.1021268E+00
         -2   -1    0    0    0  501 -0.00000000000E+00  0.00000000000E+00  0.99509921596E+02  0.99509921629E+02  0.25500000000E-02 0.  1.
          2   -1    0    0  501    0  0.00000000000E+00 -0.00000000000E+00 -0.21601073305E+04  0.21601073305E+04  0.25500000000E-02 0. -1.
    8880023    1    1    2    0    0 -0.43896697533E+02 -0.61969003097E+02 -0.11031175018E+04  0.12870297225E+04  0.65864270000E+03 0.  0.
    8880022    1    1    2    0    0  0.43896697533E+02  0.61969003097E+02 -0.95747990703E+03  0.97258752962E+03  0.15294330000E+03 0.  0.
<mgrwt>
<rscale>  0 0.47231778E+03</rscale>
<asrwt>0</asrwt>
<pdfrwt beam="1">  1        2 0.33232417E+00 0.66300625E+03</pdfrwt>
<pdfrwt beam="2">  1       -2 0.15309220E-01 0.66300625E+03</pdfrwt>
<totfact> 0.19083443E+02</totfact>
</mgrwt>
</event>
<event>
 4    2  0.3855935E-007  0.8676651E+03  0.7818608E-02  0.9580071E-01
          2   -1    0    0  501    0  0.00000000000E+00  0.00000000000E+00  0.22890615012E+04  0.22890615012E+04  0.25500000000E-02 0. -1.
         -2   -1    0    0    0  501 -0.00000000000E+00 -0.00000000000E+00 -0.61236681656E+03  0.61236681656E+03  0.25500000000E-02 0.  1.
    8880023    1    1    2    0    0 -0.41478049053E+03  0.38339239526E+03 -0.23766789816E+03  0.89962704503E+03  0.65864270000E+03 0.  1.
    8880022    1    1    2    0    0  0.41478049053E+03 -0.38339239526E+03  0.19143625828E+04  0.20018012727E+04  0.15294330000E+03 0.  0.
<mgrwt>
<rscale>  0 0.78629348E+03</rscale>
<asrwt>0</asrwt>
<pdfrwt beam="1">  1        2 0.35216331E+00 0.86766514E+03</pdfrwt>
<pdfrwt beam="2">  1       -2 0.94210279E-01 0.86766514E+03</pdfrwt>
<totfact> 0.44753755E+00</totfact>
</mgrwt>
</event>
<event>
 4    2  0.3855935E-007  0.1037381E+04  0.7818608E-02  0.9334207E-01
         -2   -1    0    0    0  501 -0.00000000000E+00  0.00000000000E+00  0.67238234784E+03  0.67238234784E+03  0.25500000000E-02 0.  1.
          2   -1    0    0  501    0  0.00000000000E+00 -0.00000000000E+00 -0.46227397432E+04  0.46227397432E+04  0.25500000000E-02 0. -1.
    8880023    1    1    2    0    0  0.66026976446E+03  0.45430605221E+03  0.20752746037E+03  0.10579357277E+04  0.65864270000E+03 0.  0.
    8880022    1    1    2    0    0 -0.66026976446E+03 -0.45430605221E+03 -0.41578848557E+04  0.42371863633E+04  0.15294330000E+03 0.  0.
<mgrwt>
<rscale>  0 0.97693822E+03</rscale>
<asrwt>0</asrwt>
<pdfrwt beam="1">  1        2 0.71119071E+00 0.10373815E+04</pdfrwt>
<pdfrwt beam="2">  1       -2 0.10344344E+00 0.10373815E+04</pdfrwt>
<totfact> 0.75434268E-02</totfact>
</mgrwt>
</event>
<event>
 4    2  0.3855935E-007  0.1049013E+04  0.7818608E-02  0.9320069E-01
         -2   -1    0    0    0  501 -0.00000000000E+00  0.00000000000E+00  0.92734861306E+03  0.92734861306E+03  0.25500000000E-02 0.  1.
          2   -1    0    0  501    0  0.00000000000E+00 -0.00000000000E+00 -0.13532198403E+04  0.13532198403E+04  0.25500000000E-02 0. -1.
    8880023    1    1    2    0    0  0.81518090825E+03  0.45800428576E+02 -0.84790263481E+03  0.13488390107E+04  0.65864270000E+03 0.  1.
    8880022    1    1    2    0    0 -0.81518090825E+03 -0.45800428576E+02  0.42203140752E+03  0.93172944269E+03  0.15294330000E+03 0.  0.
<mgrwt>
<rscale>  0 0.98956072E+03</rscale>
<asrwt>0</asrwt>
<pdfrwt beam="1">  1        2 0.20818767E+00 0.10490128E+04</pdfrwt>
<pdfrwt beam="2">  1       -2 0.14266902E+00 0.10490128E+04</pdfrwt>
<totfact> 0.51952875E+00</totfact>
</mgrwt>
</event>
<event>
 4    2  0.3855935E-007  0.7089036E+03  0.7818608E-02  0.9962095E-01
          2   -1    0    0  501    0  0.00000000000E+00  0.00000000000E+00  0.65376782621E+03  0.65376782621E+03  0.25500000000E-02 0. -1.
         -2   -1    0    0    0  501 -0.00000000000E+00 -0.00000000000E+00 -0.91293139828E+03  0.91293139829E+03  0.25500000000E-02 0.  1.
    8880023    1    1    2    0    0  0.26208382080E+03 -0.67939310574E+01 -0.72288524873E+03  0.10124758643E+04  0.65864270000E+03 0.  1.
    8880022    1    1    2    0    0 -0.26208382080E+03  0.67939310574E+01  0.46372167665E+03  0.55422336024E+03  0.15294330000E+03 0.  0.
<mgrwt>
<rscale>  0 0.57344003E+03</rscale>
<asrwt>0</asrwt>
<pdfrwt beam="1">  1        2 0.10057967E+00 0.70890359E+03</pdfrwt>
<pdfrwt beam="2">  1       -2 0.14045099E+00 0.70890359E+03</pdfrwt>
<totfact> 0.16192364E+01</totfact>
</mgrwt>
</event>
<event>
 4    2  0.3855935E-007  0.7874799E+03  0.7818608E-02  0.9738551E-01
          2   -1    0    0  501    0  0.00000000000E+00  0.00000000000E+00  0.21419884347E+04  0.21419884347E+04  0.25500000000E-02 0. -1.
         -2   -1    0    0    0  501 -0.00000000000E+00 -0.00000000000E+00 -0.67692534215E+03  0.67692534215E+03  0.25500000000E-02 0.  1.
    8880023    1    1    2    0    0  0.21532245555E+03  0.37409974596E+03  0.19793782821E+04  0.21302729801E+04  0.65864270000E+03 0. -1.
    8880022    1    1    2    0    0 -0.21532245555E+03 -0.37409974596E+03 -0.51431518953E+03  0.68864079678E+03  0.15294330000E+03 0.  0.
<mgrwt>
<rscale>  0 0.68767141E+03</rscale>
<asrwt>0</asrwt>
<pdfrwt beam="1">  1        2 0.32953668E+00 0.78747990E+03</pdfrwt>
<pdfrwt beam="2">  1       -2 0.10414236E+00 0.78747990E+03</pdfrwt>
<totfact> 0.43121388E+00</totfact>
</mgrwt>
</event>
<event>
 4    2  0.3855935E-007  0.7629786E+03  0.7818608E-02  0.9797456E-01
          2   -1    0    0  501    0  0.00000000000E+00  0.00000000000E+00  0.11452048187E+04  0.11452048187E+04  0.25500000000E-02 0. -1.
         -2   -1    0    0    0  501 -0.00000000000E+00 -0.00000000000E+00 -0.50152920285E+03  0.50152920286E+03  0.25500000000E-02 0.  1.
    8880023    1    1    2    0    0 -0.22722146979E+03 -0.31096071058E+03 -0.12531229564E+03  0.77320083908E+03  0.65864270000E+03 0.  1.
    8880022    1    1    2    0    0  0.22722146979E+03  0.31096071058E+03  0.76898791145E+03  0.87353318244E+03  0.15294330000E+03 0.  0.
<mgrwt>
<rscale>  0 0.65499230E+03</rscale>
<asrwt>0</asrwt>
<pdfrwt beam="1">  1        2 0.17618536E+00 0.76297861E+03</pdfrwt>
<pdfrwt beam="2">  1       -2 0.77158339E-01 0.76297861E+03</pdfrwt>
<totfact> 0.31146970E+01</totfact>
</mgrwt>
</event>
<event>
 4    2  0.3855935E-007  0.7028702E+03  0.7818608E-02  0.9985497E-01
          2   -1    0    0  501    0  0.00000000000E+00  0.00000000000E+00  0.20557412190E+04  0.20557412190E+04  0.25500000000E-02 0. -1.
         -2   -1    0    0    0  501 -0.00000000000E+00 -0.00000000000E+00 -0.15711108068E+03  0.15711108070E+03  0.25500000000E-02 0.  1.
    8880023    1    1    2    0    0  0.17898457782E+03 -0.16787138507E+03  0.74787301568E+03  0.10263237963E+04  0.65864270000E+03 0.  1.
    8880022    1    1    2    0    0 -0.17898457782E+03  0.16787138507E+03  0.11507571226E+04  0.11865285034E+04  0.15294330000E+03 0.  0.
<mgrwt>
<rscale>  0 0.56290781E+03</rscale>
<asrwt>0</asrwt>
<pdfrwt beam="1">  1        2 0.31626789E+00 0.70287018E+03</pdfrwt>
<pdfrwt beam="2">  1       -2 0.24170935E-01 0.70287018E+03</pdfrwt>
<totfact> 0.97876782E+01</totfact>
</mgrwt>
</event>
<event>
 4    2  0.3855935E-007  0.8353087E+03  0.7818608E-02  0.9639090E-01
         -2   -1    0    0    0  501 -0.00000000000E+00  0.00000000000E+00  0.35185286231E+03  0.35185286232E+03  0.25500000000E-02 0.  1.
          2   -1    0    0  501    0  0.00000000000E+00 -0.00000000000E+00 -0.18427469742E+04  0.18427469742E+04  0.25500000000E-02 0. -1.
    8880023    1    1    2    0    0  0.25099479380E+03 -0.44825449383E+03 -0.14287130739E+04  0.16549808855E+04  0.65864270000E+03 0.  0.
    8880022    1    1    2    0    0 -0.25099479380E+03  0.44825449383E+03 -0.62181037996E+02  0.53961895098E+03  0.15294330000E+03 0.  0.
<mgrwt>
<rscale>  0 0.74762085E+03</rscale>
<asrwt>0</asrwt>
<pdfrwt beam="1">  1        2 0.28349953E+00 0.83530874E+03</pdfrwt>
<pdfrwt beam="2">  1       -2 0.54131211E-01 0.83530874E+03</pdfrwt>
<totfact> 0.26760447E+01</totfact>
</mgrwt>
</event>
<event>
 4    2  0.3855935E-007  0.8947157E+03  0.7818608E-02  0.9534568E-01
          2   -1    0    0  501    0  0.00000000000E+00  0.00000000000E+00  0.20007137029E+04  0.20007137029E+04  0.25500000000E-02 0. -1.
         -2   -1    0    0    0  501 -0.00000000000E+00 -0.00000000000E+00 -0.10740750579E+04  0.10740750579E+04  0.25500000000E-02 0.  1.
    8880023    1    1    2    0    0  0.36538108693E+03  0.48291067797E+03 -0.82383124312E+03  0.12162294952E+04  0.65864270000E+03 0.  1.
    8880022    1    1    2    0    0 -0.36538108693E+03 -0.48291067797E+03  0.17504698881E+04  0.18585592656E+04  0.15294330000E+03 0.  0.
<mgrwt>
<rscale>  0 0.81782520E+03</rscale>
<asrwt>0</asrwt>
<pdfrwt beam="1">  1        2 0.30780210E+00 0.89471575E+03</pdfrwt>
<pdfrwt beam="2">  1       -2 0.16524232E+00 0.89471575E+03</pdfrwt>
<totfact> 0.15598334E+00</totfact>
</mgrwt>
</event>
<event>
 4    2  0.3855935E-007  0.7794357E+03  0.7818608E-02  0.9757164E-01
          2   -1    0    0  501    0  0.00000000000E+00  0.00000000000E+00  0.22084018432E+04  0.22084018432E+04  0.25500000000E-02 0. -1.
         -2   -1    0    0    0  501 -0.00000000000E+00 -0.00000000000E+00 -0.36498286955E+03  0.36498286956E+03  0.25500000000E-02 0.  1.
    8880023    1    1    2    0    0 -0.16626092055E+01  0.41678177564E+03  0.11380390133E+03  0.78770003618E+03  0.65864270000E+03 0.  1.
    8880022    1    1    2    0    0  0.16626092055E+01 -0.41678177564E+03  0.17296150724E+04  0.17856846766E+04  0.15294330000E+03 0.  0.
<mgrwt>
<rscale>  0 0.67712906E+03</rscale>
<asrwt>0</asrwt>
<pdfrwt beam="1">  1        2 0.33975412E+00 0.77943571E+03</pdfrwt>
<pdfrwt beam="2">  1       -2 0.56151212E-01 0.77943571E+03</pdfrwt>
<totfact> 0.15742579E+01</totfact>
</mgrwt>
</event>
<event>
 4    2  0.3855935E-007  0.8272036E+03  0.7818608E-02  0.9654798E-01
         -2   -1    0    0    0  501 -0.00000000000E+00  0.00000000000E+00  0.77060155042E+03  0.77060155042E+03  0.25500000000E-02 0.  1.
          2   -1    0    0  501    0  0.00000000000E+00 -0.00000000000E+00 -0.84149302313E+03  0.84149302314E+03  0.25500000000E-02 0. -1.
    8880023    1    1    2    0    0  0.52158337170E+02  0.49772989698E+03  0.39021601886E+03  0.91462248503E+03  0.65864270000E+03 0.  1.
    8880022    1    1    2    0    0 -0.52158337170E+02 -0.49772989698E+03 -0.46110749157E+03  0.69747208853E+03  0.15294330000E+03 0.  0.
<mgrwt>
<rscale>  0 0.73773067E+03</rscale>
<asrwt>0</asrwt>
<pdfrwt beam="1">  1        2 0.12946047E+00 0.82720357E+03</pdfrwt>
<pdfrwt beam="2">  1       -2 0.11855408E+00 0.82720357E+03</pdfrwt>
<totfact> 0.17741226E+01</totfact>
</mgrwt>
</event>
<event>
 4    2  0.3855935E-007  0.6660440E+03  0.7818608E-02  0.1018673E+00
         -2   -1    0    0    0  501 -0.00000000000E+00  0.00000000000E+00  0.30706864819E+03  0.30706864820E+03  0.25500000000E-02 0.  1.
          2   -1    0    0  501    0  0.00000000000E+00 -0.00000000000E+00 -0.12036040831E+04  0.12036040831E+04  0.25500000000E-02 0. -1.
    8880023    1    1    2    0    0 -0.88636221844E+02 -0.44135946059E+02 -0.76247591214E+02  0.67039411020E+03  0.65864270000E+03 0.  0.
    8880022    1    1    2    0    0  0.88636221844E+02  0.44135946059E+02 -0.82028784367E+03  0.84027862109E+03  0.15294330000E+03 0.  0.
<mgrwt>
<rscale>  0 0.48168477E+03</rscale>
<asrwt>0</asrwt>
<pdfrwt beam="1">  1        2 0.18516986E+00 0.66604397E+03</pdfrwt>
<pdfrwt beam="2">  1       -2 0.47241331E-01 0.66604397E+03</pdfrwt>
<totfact> 0.81946027E+01</totfact>
</mgrwt>
</event>
<event>
 4    2  0.3855935E-007  0.7088535E+03  0.7818608E-02  0.9962283E-01
          2   -1    0    0  501    0  0.00000000000E+00  0.00000000000E+00  0.14817499460E+04  0.14817499460E+04  0.25500000000E-02 0. -1.
         -2   -1    0    0    0  501 -0.00000000000E+00 -0.00000000000E+00 -0.49998875566E+03  0.49998875567E+03  0.25500000000E-02 0.  1.
    8880023    1    1    2    0    0 -0.11340770360E+03  0.23622392973E+03 -0.22004804558E+03  0.74222260868E+03  0.65864270000E+03 0.  1.
    8880022    1    1    2    0    0  0.11340770360E+03 -0.23622392973E+03  0.12018092359E+04  0.12395160930E+04  0.15294330000E+03 0.  0.
<mgrwt>
<rscale>  0 0.57335434E+03</rscale>
<asrwt>0</asrwt>
<pdfrwt beam="1">  1        2 0.22796153E+00 0.70885348E+03</pdfrwt>
<pdfrwt beam="2">  1       -2 0.76921346E-01 0.70885348E+03</pdfrwt>
<totfact> 0.20188274E+01</totfact>
</mgrwt>
</event>
<event>
 4    2  0.3855935E-007  0.6943958E+03  0.7818608E-02  0.1002129E+00
          2   -1    0    0  501    0  0.00000000000E+00  0.00000000000E+00  0.25711861759E+04  0.25711861759E+04  0.25500000000E-02 0. -1.
         -2   -1    0    0    0  501 -0.00000000000E+00 -0.00000000000E+00 -0.11085223510E+03  0.11085223513E+03  0.25500000000E-02 0.  1.
    8880023    1    1    2    0    0 -0.99240293075E+02 -0.19628202787E+03  0.11402728868E+04  0.13350684375E+04  0.65864270000E+03 0.  0.
    8880022    1    1    2    0    0  0.99240293075E+02  0.19628202787E+03  0.13200610540E+04  0.13469699735E+04  0.15294330000E+03 0.  1.
<mgrwt>
<rscale>  0 0.54726269E+03</rscale>
<asrwt>0</asrwt>
<pdfrwt beam="1">  1        2 0.39556704E+00 0.69439576E+03</pdfrwt>
<pdfrwt beam="2">  1       -2 0.17054193E-01 0.69439576E+03</pdfrwt>
<totfact> 0.93310247E+01</totfact>
</mgrwt>
</event>
<event>
 4    2  0.3855935E-007  0.6729556E+03  0.7818608E-02  0.1013627E+00
          2   -1    0    0  501    0  0.00000000000E+00  0.00000000000E+00  0.20552097053E+04  0.20552097053E+04  0.25500000000E-02 0. -1.
         -2   -1    0    0    0  501 -0.00000000000E+00 -0.00000000000E+00 -0.11561934657E+03  0.11561934660E+03  0.25500000000E-02 0.  1.
    8880023    1    1    2    0    0 -0.13763157865E+03 -0.10794724177E+02  0.97637000639E+03  0.11858193678E+04  0.65864270000E+03 0.  0.
    8880022    1    1    2    0    0  0.13763157865E+03  0.10794724177E+02  0.96322035238E+03  0.98500968409E+03  0.15294330000E+03 0.  0.
<mgrwt>
<rscale>  0 0.50058209E+03</rscale>
<asrwt>0</asrwt>
<pdfrwt beam="1">  1        2 0.31618611E+00 0.67295556E+03</pdfrwt>
<pdfrwt beam="2">  1       -2 0.17787592E-01 0.67295556E+03</pdfrwt>
<totfact> 0.16838853E+02</totfact>
</mgrwt>
</event>
<event>
 4    2  0.3855935E-007  0.8685219E+03  0.7818608E-02  0.9578581E-01
         -2   -1    0    0    0  501 -0.00000000000E+00  0.00000000000E+00  0.43220703665E+03  0.43220703666E+03  0.25500000000E-02 0.  1.
          2   -1    0    0  501    0  0.00000000000E+00 -0.00000000000E+00 -0.29296177718E+04  0.29296177718E+04  0.25500000000E-02 0. -1.
    8880023    1    1    2    0    0  0.54039024784E+03 -0.16881470264E+03 -0.77617444848E+02  0.87198319812E+03  0.65864270000E+03 0.  0.
    8880022    1    1    2    0    0 -0.54039024784E+03  0.16881470264E+03 -0.24197932903E+04  0.24898416103E+04  0.15294330000E+03 0.  0.
<mgrwt>
<rscale>  0 0.78730214E+03</rscale>
<asrwt>0</asrwt>
<pdfrwt beam="1">  1        2 0.45071041E+00 0.86852187E+03</pdfrwt>
<pdfrwt beam="2">  1       -2 0.66493392E-01 0.86852187E+03</pdfrwt>
<totfact> 0.41700301E+00</totfact>
</mgrwt>
</event>
<event>
 4    2  0.3855935E-007  0.8062591E+03  0.7818608E-02  0.9697422E-01
         -2   -1    0    0    0  501 -0.00000000000E+00  0.00000000000E+00  0.57145010196E+03  0.57145010197E+03  0.25500000000E-02 0.  1.
          2   -1    0    0  501    0  0.00000000000E+00 -0.00000000000E+00 -0.77773868941E+03  0.77773868942E+03  0.25500000000E-02 0. -1.
    8880023    1    1    2    0    0 -0.42290887253E+03  0.19336908151E+03 -0.28135656511E+03  0.85394100448E+03  0.65864270000E+03 0. -1.
    8880022    1    1    2    0    0  0.42290887253E+03 -0.19336908151E+03  0.75067977662E+02  0.49524778690E+03  0.15294330000E+03 0.  1.
<mgrwt>
<rscale>  0 0.71170462E+03</rscale>
<asrwt>0</asrwt>
<pdfrwt beam="1">  1        2 0.11965211E+00 0.80625909E+03</pdfrwt>
<pdfrwt beam="2">  1       -2 0.87915400E-01 0.80625909E+03</pdfrwt>
<totfact> 0.40253220E+01</totfact>
</mgrwt>
</event>
<event>
 4    2  0.3855935E-007  0.8479149E+03  0.7818608E-02  0.9615433E-01
         -2   -1    0    0    0  501 -0.00000000000E+00  0.00000000000E+00  0.66045702120E+03  0.66045702121E+03  0.25500000000E-02 0.  1.
          2   -1    0    0  501    0  0.00000000000E+00 -0.00000000000E+00 -0.86750108511E+03  0.86750108512E+03  0.25500000000E-02 0. -1.
    8880023    1    1    2    0    0 -0.47822182986E+03  0.23759918731E+03  0.15904820297E+03  0.86270274689E+03  0.65864270000E+03 0.  0.
    8880022    1    1    2    0    0  0.47822182986E+03 -0.23759918731E+03 -0.36609226688E+03  0.66525535943E+03  0.15294330000E+03 0.  0.
<mgrwt>
<rscale>  0 0.76283101E+03</rscale>
<asrwt>0</asrwt>
<pdfrwt beam="1">  1        2 0.13346171E+00 0.84791491E+03</pdfrwt>
<pdfrwt beam="2">  1       -2 0.10160877E+00 0.84791491E+03</pdfrwt>
<totfact> 0.24690681E+01</totfact>
</mgrwt>
</event>
<event>
 4    2  0.3855935E-007  0.6871414E+03  0.7818608E-02  0.1005542E+00
         -2   -1    0    0    0  501 -0.00000000000E+00  0.00000000000E+00  0.23750593094E+03  0.23750593096E+03  0.25500000000E-02 0.  1.
          2   -1    0    0  501    0  0.00000000000E+00 -0.00000000000E+00 -0.22571792713E+04  0.22571792713E+04  0.25500000000E-02 0. -1.
    8880023    1    1    2    0    0  0.13722464595E+03 -0.13972300659E+03 -0.28763649521E+03  0.74491481504E+03  0.65864270000E+03 0.  1.
    8880022    1    1    2    0    0 -0.13722464595E+03  0.13972300659E+03 -0.17320368451E+04  0.17497703872E+04  0.15294330000E+03 0.  0.
<mgrwt>
<rscale>  0 0.53285571E+03</rscale>
<asrwt>0</asrwt>
<pdfrwt beam="1">  1        2 0.34725833E+00 0.68714142E+03</pdfrwt>
<pdfrwt beam="2">  1       -2 0.36539376E-01 0.68714142E+03</pdfrwt>
<totfact> 0.35372916E+01</totfact>
</mgrwt>
</event>
<event>
 4    2  0.3855935E-007  0.8534197E+03  0.7818608E-02  0.9605377E-01
          2   -1    0    0  501    0  0.00000000000E+00  0.00000000000E+00  0.10106009728E+04  0.10106009728E+04  0.25500000000E-02 0. -1.
         -2   -1    0    0    0  501 -0.00000000000E+00 -0.00000000000E+00 -0.59866890045E+03  0.59866890045E+03  0.25500000000E-02 0.  1.
    8880023    1    1    2    0    0 -0.52592021305E+03  0.13387677550E+03 -0.85083858690E+02  0.85765058782E+03  0.65864270000E+03 0.  0.
    8880022    1    1    2    0    0  0.52592021305E+03 -0.13387677550E+03  0.49701593104E+03  0.75161928544E+03  0.15294330000E+03 0.  0.
<mgrwt>
<rscale>  0 0.76941293E+03</rscale>
<asrwt>0</asrwt>
<pdfrwt beam="1">  1        2 0.15547707E+00 0.85341975E+03</pdfrwt>
<pdfrwt beam="2">  1       -2 0.92102908E-01 0.85341975E+03</pdfrwt>
<totfact> 0.25004213E+01</totfact>
</mgrwt>
</event>
<event>
 4    2  0.3855935E-007  0.7570699E+03  0.7818608E-02  0.9812753E-01
         -2   -1    0    0    0  501 -0.00000000000E+00  0.00000000000E+00  0.25175325620E+03  0.25175325621E+03  0.25500000000E-02 0.  1.
          2   -1    0    0  501    0  0.00000000000E+00 -0.00000000000E+00 -0.25599863185E+04  0.25599863185E+04  0.25500000000E-02 0. -1.
    8880023    1    1    2    0    0  0.37253136733E+03  0.23769039847E+02 -0.39013786531E+03  0.85168206927E+03  0.65864270000E+03 0.  1.
    8880022    1    1    2    0    0 -0.37253136733E+03 -0.23769039847E+02 -0.19180951970E+04  0.19600575055E+04  0.15294330000E+03 0.  0.
<mgrwt>
<rscale>  0 0.64682606E+03</rscale>
<asrwt>0</asrwt>
<pdfrwt beam="1">  1        2 0.39384403E+00 0.75706987E+03</pdfrwt>
<pdfrwt beam="2">  1       -2 0.38731272E-01 0.75706987E+03</pdfrwt>
<totfact> 0.21159442E+01</totfact>
</mgrwt>
</event>
<event>
 4    2  0.3855935E-007  0.7523791E+03  0.7818608E-02  0.9825252E-01
          2   -1    0    0  501    0  0.00000000000E+00  0.00000000000E+00  0.14085821064E+04  0.14085821064E+04  0.25500000000E-02 0. -1.
         -2   -1    0    0    0  501 -0.00000000000E+00 -0.00000000000E+00 -0.51777810235E+03  0.51777810236E+03  0.25500000000E-02 0.  1.
    8880023    1    1    2    0    0  0.10093199538E+02  0.36354117924E+03 -0.18983049130E+03  0.77595739791E+03  0.65864270000E+03 0.  1.
    8880022    1    1    2    0    0 -0.10093199538E+02 -0.36354117924E+03  0.10806344953E+04  0.11504028108E+04  0.15294330000E+03 0.  0.
<mgrwt>
<rscale>  0 0.64024790E+03</rscale>
<asrwt>0</asrwt>
<pdfrwt beam="1">  1        2 0.21670494E+00 0.75237907E+03</pdfrwt>
<pdfrwt beam="2">  1       -2 0.79658170E-01 0.75237907E+03</pdfrwt>
<totfact> 0.20409704E+01</totfact>
</mgrwt>
</event>
<event>
 4    2  0.3855935E-007  0.8939379E+03  0.7818608E-02  0.9535834E-01
          2   -1    0    0  501    0  0.00000000000E+00  0.00000000000E+00  0.11659997105E+04  0.11659997105E+04  0.25500000000E-02 0. -1.
         -2   -1    0    0    0  501 -0.00000000000E+00 -0.00000000000E+00 -0.93065206019E+03  0.93065206019E+03  0.25500000000E-02 0.  1.
    8880023    1    1    2    0    0 -0.51886732564E+03 -0.30998621740E+03 -0.58346235267E+03  0.10674986088E+04  0.65864270000E+03 0.  1.
    8880022    1    1    2    0    0  0.51886732564E+03  0.30998621740E+03  0.81881000302E+03  0.10291531619E+04  0.15294330000E+03 0.  0.
<mgrwt>
<rscale>  0 0.81692695E+03</rscale>
<asrwt>0</asrwt>
<pdfrwt beam="1">  1        2 0.17938457E+00 0.89393790E+03</pdfrwt>
<pdfrwt beam="2">  1       -2 0.14317724E+00 0.89393790E+03</pdfrwt>
<totfact> 0.67426802E+00</totfact>
</mgrwt>
</event>
<event>
 4    2  0.3855935E-007  0.7075067E+03  0.7818608E-02  0.9967379E-01
         -2   -1    0    0    0  501 -0.00000000000E+00  0.00000000000E+00  0.28782622844E+03  0.28782622845E+03  0.25500000000E-02 0.  1.
          2   -1    0    0  501    0  0.00000000000E+00 -0.00000000000E+00 -0.23924005662E+04  0.23924005662E+04  0.25500000000E-02 0. -1.
    8880023    1    1    2    0    0 -0.12605905561E+03 -0.22553197392E+03 -0.17686873983E+03  0.72927931148E+03  0.65864270000E+03 0.  1.
    8880022    1    1    2    0    0  0.12605905561E+03  0.22553197392E+03 -0.19277055979E+04  0.19509474831E+04  0.15294330000E+03 0.  0.
<mgrwt>
<rscale>  0 0.57104057E+03</rscale>
<asrwt>0</asrwt>
<pdfrwt beam="1">  1        2 0.36806161E+00 0.70750672E+03</pdfrwt>
<pdfrwt beam="2">  1       -2 0.44280960E-01 0.70750672E+03</pdfrwt>
<totfact> 0.20389826E+01</totfact>
</mgrwt>
</event>
<event>
 4    2  0.3855935E-007  0.6987497E+03  0.7818608E-02  0.1000243E+00
          2   -1    0    0  501    0  0.00000000000E+00  0.00000000000E+00  0.11263098715E+04  0.11263098715E+04  0.25500000000E-02 0. -1.
         -2   -1    0    0    0  501 -0.00000000000E+00 -0.00000000000E+00 -0.35519827218E+03  0.35519827219E+03  0.25500000000E-02 0.  1.
    8880023    1    1    2    0    0  0.15355297454E+03 -0.17567692865E+03  0.41047287512E+02  0.69995427374E+03  0.65864270000E+03 0.  0.
    8880022    1    1    2    0    0 -0.15355297454E+03  0.17567692865E+03  0.73006431183E+03  0.78155386997E+03  0.15294330000E+03 0.  0.
<mgrwt>
<rscale>  0 0.55543900E+03</rscale>
<asrwt>0</asrwt>
<pdfrwt beam="1">  1        2 0.17327844E+00 0.69874967E+03</pdfrwt>
<pdfrwt beam="2">  1       -2 0.54645889E-01 0.69874967E+03</pdfrwt>
<totfact> 0.67505155E+01</totfact>
</mgrwt>
</event>
<event>
 4    2  0.3855935E-007  0.6623101E+03  0.7818608E-02  0.1021905E+00
         -2   -1    0    0    0  501 -0.00000000000E+00  0.00000000000E+00  0.19181119666E+03  0.19181119668E+03  0.25500000000E-02 0.  1.
          2   -1    0    0  501    0  0.00000000000E+00 -0.00000000000E+00 -0.19598543888E+04  0.19598543888E+04  0.25500000000E-02 0. -1.
    8880023    1    1    2    0    0  0.61329476183E+00  0.69599902427E+02 -0.40081380797E+03  0.77414884710E+03  0.65864270000E+03 0.  1.
    8880022    1    1    2    0    0 -0.61329476183E+00 -0.69599902427E+02 -0.13672293842E+04  0.13775167384E+04  0.15294330000E+03 0.  0.
<mgrwt>
<rscale>  0 0.47005296E+03</rscale>
<asrwt>0</asrwt>
<pdfrwt beam="1">  1        2 0.30151605E+00 0.66231015E+03</pdfrwt>
<pdfrwt beam="2">  1       -2 0.29509416E-01 0.66231015E+03</pdfrwt>
<totfact> 0.77136780E+01</totfact>
</mgrwt>
</event>
<event>
 4    2  0.3855935E-007  0.8929205E+03  0.7818608E-02  0.9537493E-01
          2   -1    0    0  501    0  0.00000000000E+00  0.00000000000E+00  0.67113325489E+03  0.67113325490E+03  0.25500000000E-02 0. -1.
         -2   -1    0    0    0  501 -0.00000000000E+00 -0.00000000000E+00 -0.91873591657E+03  0.91873591657E+03  0.25500000000E-02 0.  1.
    8880023    1    1    2    0    0 -0.76543694069E+02  0.59802837239E+03 -0.35080922571E+03  0.95936134506E+03  0.65864270000E+03 0.  1.
    8880022    1    1    2    0    0  0.76543694069E+02 -0.59802837239E+03  0.10320656404E+03  0.63050782641E+03  0.15294330000E+03 0. -1.
<mgrwt>
<rscale>  0 0.81575142E+03</rscale>
<asrwt>0</asrwt>
<pdfrwt beam="1">  1        2 0.10325127E+00 0.89292053E+03</pdfrwt>
<pdfrwt beam="2">  1       -2 0.14134399E+00 0.89292053E+03</pdfrwt>
<totfact> 0.15158000E+01</totfact>
</mgrwt>
</event>
<event>
 4    2  0.3855935E-007  0.7358773E+03  0.7818608E-02  0.9872123E-01
          2   -1    0    0  501    0  0.00000000000E+00  0.00000000000E+00  0.19160684757E+04  0.19160684757E+04  0.25500000000E-02 0. -1.
         -2   -1    0    0    0  501 -0.00000000000E+00 -0.00000000000E+00 -0.22283704042E+03  0.22283704044E+03  0.25500000000E-02 0.  1.
    8880023    1    1    2    0    0 -0.32242851848E+03 -0.61196317369E+02  0.49426522317E+03  0.88646119819E+03  0.65864270000E+03 0.  1.
    8880022    1    1    2    0    0  0.32242851848E+03  0.61196317369E+02  0.11989662121E+04  0.12524443180E+04  0.15294330000E+03 0.  0.
<mgrwt>
<rscale>  0 0.61631544E+03</rscale>
<asrwt>0</asrwt>
<pdfrwt beam="1">  1        2 0.29477976E+00 0.73587726E+03</pdfrwt>
<pdfrwt beam="2">  1       -2 0.34282622E-01 0.73587726E+03</pdfrwt>
<totfact> 0.61002006E+01</totfact>
</mgrwt>
</event>
<event>
 4    2  0.3855935E-007  0.6706380E+03  0.7818608E-02  0.1015210E+00
          2   -1    0    0  501    0  0.00000000000E+00  0.00000000000E+00  0.23662406806E+04  0.23662406806E+04  0.25500000000E-02 0. -1.
         -2   -1    0    0    0  501 -0.00000000000E+00 -0.00000000000E+00 -0.13560049505E+03  0.13560049508E+03  0.25500000000E-02 0.  1.
    8880023    1    1    2    0    0 -0.81208020027E+02  0.96697346181E+02  0.74245278587E+03  0.10004956096E+04  0.65864270000E+03 0.  1.
    8880022    1    1    2    0    0  0.81208020027E+02 -0.96697346181E+02  0.14881873997E+04  0.15013455661E+04  0.15294330000E+03 0.  0.
<mgrwt>
<rscale>  0 0.49455655E+03</rscale>
<asrwt>0</asrwt>
<pdfrwt beam="1">  1        2 0.36403700E+00 0.67063800E+03</pdfrwt>
<pdfrwt beam="2">  1       -2 0.20861616E-01 0.67063800E+03</pdfrwt>
<totfact> 0.86093833E+01</totfact>
</mgrwt>
</event>
<event>
 4    2  0.3855935E-007  0.6702817E+03  0.7818608E-02  0.1015462E+00
         -2   -1    0    0    0  501 -0.00000000000E+00  0.00000000000E+00  0.11411769074E+03  0.11411769076E+03  0.25500000000E-02 0.  1.
          2   -1    0    0  501    0  0.00000000000E+00 -0.00000000000E+00 -0.22508788087E+04  0.22508788087E+04  0.25500000000E-02 0. -1.
    8880023    1    1    2    0    0 -0.10154173944E+03  0.71809828979E+02 -0.95405768618E+03  0.11659775518E+04  0.65864270000E+03 0.  1.
    8880022    1    1    2    0    0  0.10154173944E+03 -0.71809828979E+02 -0.11827034318E+04  0.11990189477E+04  0.15294330000E+03 0.  0.
<mgrwt>
<rscale>  0 0.49360497E+03</rscale>
<asrwt>0</asrwt>
<pdfrwt beam="1">  1        2 0.34628901E+00 0.67028172E+03</pdfrwt>
<pdfrwt beam="2">  1       -2 0.17556570E-01 0.67028172E+03</pdfrwt>
<totfact> 0.13459359E+02</totfact>
</mgrwt>
</event>
<event>
 4    2  0.3855935E-007  0.8318147E+03  0.7818608E-02  0.9645812E-01
          2   -1    0    0  501    0  0.00000000000E+00  0.00000000000E+00  0.23761737016E+04  0.23761737016E+04  0.25500000000E-02 0. -1.
         -2   -1    0    0    0  501 -0.00000000000E+00 -0.00000000000E+00 -0.33123085789E+03  0.33123085790E+03  0.25500000000E-02 0.  1.
    8880023    1    1    2    0    0 -0.49634905704E+03 -0.10836541937E+03  0.30109623175E+03  0.88463246468E+03  0.65864270000E+03 0.  0.
    8880022    1    1    2    0    0  0.49634905704E+03  0.10836541937E+03  0.17438466120E+04  0.18227720948E+04  0.15294330000E+03 0. -1.
<mgrwt>
<rscale>  0 0.74336854E+03</rscale>
<asrwt>0</asrwt>
<pdfrwt beam="1">  1        2 0.36556519E+00 0.83181468E+03</pdfrwt>
<pdfrwt beam="2">  1       -2 0.50958593E-01 0.83181468E+03</pdfrwt>
<totfact> 0.15401164E+01</totfact>
</mgrwt>
</event>
<event>
 4    2  0.3855935E-007  0.9367776E+03  0.7818608E-02  0.9469399E-01
          2   -1    0    0  501    0  0.00000000000E+00  0.00000000000E+00  0.12581288259E+04  0.12581288259E+04  0.25500000000E-02 0. -1.
         -2   -1    0    0    0  501 -0.00000000000E+00 -0.00000000000E+00 -0.10665526867E+04  0.10665526867E+04  0.25500000000E-02 0.  1.
    8880023    1    1    2    0    0 -0.58926827867E+03 -0.31065232750E+03 -0.72271746372E+03  0.11831621662E+04  0.65864270000E+03 0.  0.
    8880022    1    1    2    0    0  0.58926827867E+03  0.31065232750E+03  0.91429360291E+03  0.11415193464E+04  0.15294330000E+03 0.  0.
<mgrwt>
<rscale>  0 0.86577990E+03</rscale>
<asrwt>0</asrwt>
<pdfrwt beam="1">  1        2 0.19355828E+00 0.93677755E+03</pdfrwt>
<pdfrwt beam="2">  1       -2 0.16408503E+00 0.93677755E+03</pdfrwt>
<totfact> 0.41065438E+00</totfact>
</mgrwt>
</event>
<event>
 4    2  0.3855935E-007  0.7991363E+03  0.7818608E-02  0.9712667E-01
         -2   -1    0    0    0  501 -0.00000000000E+00  0.00000000000E+00  0.24395397513E+03  0.24395397515E+03  0.25500000000E-02 0.  1.
          2   -1    0    0  501    0  0.00000000000E+00 -0.00000000000E+00 -0.17484804248E+04  0.17484804248E+04  0.25500000000E-02 0. -1.
    8880023    1    1    2    0    0 -0.24033667217E+03 -0.38346705085E+03 -0.72959420091E+03  0.10820936186E+04  0.65864270000E+03 0.  0.
    8880022    1    1    2    0    0  0.24033667217E+03  0.38346705085E+03 -0.77493224875E+03  0.91034078138E+03  0.15294330000E+03 0.  0.
<mgrwt>
<rscale>  0 0.70267613E+03</rscale>
<asrwt>0</asrwt>
<pdfrwt beam="1">  1        2 0.26899698E+00 0.79913635E+03</pdfrwt>
<pdfrwt beam="2">  1       -2 0.37531382E-01 0.79913635E+03</pdfrwt>
<totfact> 0.62893061E+01</totfact>
</mgrwt>
</event>
<event>
 4    2  0.3855935E-007  0.8748986E+03  0.7818608E-02  0.9567592E-01
         -2   -1    0    0    0  501 -0.00000000000E+00  0.00000000000E+00  0.29492674388E+03  0.29492674389E+03  0.25500000000E-02 0.  1.
          2   -1    0    0  501    0  0.00000000000E+00 -0.00000000000E+00 -0.18909092827E+04  0.18909092827E+04  0.25500000000E-02 0. -1.
    8880023    1    1    2    0    0 -0.47693699929E+03  0.32275124782E+03 -0.75785124695E+03  0.11574912475E+04  0.65864270000E+03 0.  0.
    8880022    1    1    2    0    0  0.47693699929E+03 -0.32275124782E+03 -0.83813129182E+03  0.10283447790E+04  0.15294330000E+03 0.  0.
<mgrwt>
<rscale>  0 0.79478789E+03</rscale>
<asrwt>0</asrwt>
<pdfrwt beam="1">  1        2 0.29090911E+00 0.87489855E+03</pdfrwt>
<pdfrwt beam="2">  1       -2 0.45373346E-01 0.87489855E+03</pdfrwt>
<totfact> 0.35917763E+01</totfact>
</mgrwt>
</event>
<event>
 4    2  0.3855935E-007  0.7342828E+03  0.7818608E-02  0.9876925E-01
         -2   -1    0    0    0  501 -0.00000000000E+00  0.00000000000E+00  0.56202977761E+03  0.56202977761E+03  0.25500000000E-02 0.  1.
          2   -1    0    0  501    0  0.00000000000E+00 -0.00000000000E+00 -0.10617689696E+04  0.10617689696E+04  0.25500000000E-02 0. -1.
    8880023    1    1    2    0    0  0.28916800278E+03 -0.14745456396E+03  0.26373348730E+03  0.78020929298E+03  0.65864270000E+03 0.  0.
    8880022    1    1    2    0    0 -0.28916800278E+03  0.14745456396E+03 -0.76347267929E+03  0.84358945424E+03  0.15294330000E+03 0.  0.
<mgrwt>
<rscale>  0 0.61392740E+03</rscale>
<asrwt>0</asrwt>
<pdfrwt beam="1">  1        2 0.16334907E+00 0.73428277E+03</pdfrwt>
<pdfrwt beam="2">  1       -2 0.86466120E-01 0.73428277E+03</pdfrwt>
<totfact> 0.27162454E+01</totfact>
</mgrwt>
</event>
<event>
 4    2  0.3855935E-007  0.6841760E+03  0.7818608E-02  0.1007054E+00
          2   -1    0    0  501    0  0.00000000000E+00  0.00000000000E+00  0.13595664464E+04  0.13595664464E+04  0.25500000000E-02 0. -1.
         -2   -1    0    0    0  501 -0.00000000000E+00 -0.00000000000E+00 -0.22458395177E+03  0.22458395178E+03  0.25500000000E-02 0.  1.
    8880023    1    1    2    0    0  0.95650474383E+02  0.15854847765E+03  0.36061397538E+03  0.77339464604E+03  0.65864270000E+03 0.  1.
    8880022    1    1    2    0    0 -0.95650474383E+02 -0.15854847765E+03  0.77436851922E+03  0.81075575212E+03  0.15294330000E+03 0.  0.
<mgrwt>
<rscale>  0 0.52662617E+03</rscale>
<asrwt>0</asrwt>
<pdfrwt beam="1">  1        2 0.20916407E+00 0.68417603E+03</pdfrwt>
<pdfrwt beam="2">  1       -2 0.34551378E-01 0.68417603E+03</pdfrwt>
<totfact> 0.12242251E+02</totfact>
</mgrwt>
</event>
<event>
 4    2  0.3855935E-007  0.8617324E+03  0.7818608E-02  0.9590489E-01
         -2   -1    0    0    0  501 -0.00000000000E+00  0.00000000000E+00  0.27779487239E+03  0.27779487240E+03  0.25500000000E-02 0.  1.
          2   -1    0    0  501    0  0.00000000000E+00 -0.00000000000E+00 -0.29096526862E+04  0.29096526862E+04  0.25500000000E-02 0. -1.
    8880023    1    1    2    0    0  0.55564274000E+03 -0.58015644879E+01 -0.53838697536E+03  0.10160921485E+04  0.65864270000E+03 0.  1.
    8880022    1    1    2    0    0 -0.55564274000E+03  0.58015644879E+01 -0.20934708385E+04  0.21713554102E+04  0.15294330000E+03 0. -1.
<mgrwt>
<rscale>  0 0.77928876E+03</rscale>
<asrwt>0</asrwt>
<pdfrwt beam="1">  1        2 0.44763885E+00 0.86173239E+03</pdfrwt>
<pdfrwt beam="2">  1       -2 0.42737675E-01 0.86173239E+03</pdfrwt>
<totfact> 0.10705933E+01</totfact>
</mgrwt>
</event>
<event>
 4    2  0.3855935E-007  0.7108993E+03  0.7818608E-02  0.9954677E-01
          2   -1    0    0  501    0  0.00000000000E+00  0.00000000000E+00  0.17757489513E+04  0.17757489513E+04  0.25500000000E-02 0. -1.
         -2   -1    0    0    0  501 -0.00000000000E+00 -0.00000000000E+00 -0.32921495248E+03  0.32921495249E+03  0.25500000000E-02 0.  1.
    8880023    1    1    2    0    0 -0.92278523631E+02  0.25110204574E+03  0.93191454365E+02  0.71698146191E+03  0.65864270000E+03 0.  1.
    8880022    1    1    2    0    0  0.92278523631E+02 -0.25110204574E+03  0.13533425445E+04  0.13879824419E+04  0.15294330000E+03 0.  0.
<mgrwt>
<rscale>  0 0.57683047E+03</rscale>
<asrwt>0</asrwt>
<pdfrwt beam="1">  1        2 0.27319214E+00 0.71089927E+03</pdfrwt>
<pdfrwt beam="2">  1       -2 0.50648455E-01 0.71089927E+03</pdfrwt>
<totfact> 0.33880077E+01</totfact>
</mgrwt>
</event>
<event>
 4    2  0.3855935E-007  0.7471440E+03  0.7818608E-02  0.9839605E-01
          2   -1    0    0  501    0  0.00000000000E+00  0.00000000000E+00  0.18545802378E+04  0.18545802378E+04  0.25500000000E-02 0. -1.
         -2   -1    0    0    0  501 -0.00000000000E+00 -0.00000000000E+00 -0.18646660698E+03  0.18646660700E+03  0.25500000000E-02 0.  1.
    8880023    1    1    2    0    0  0.14008483186E+03  0.32371312376E+03  0.81693627680E+03  0.11070722800E+04  0.65864270000E+03 0.  1.
    8880022    1    1    2    0    0 -0.14008483186E+03 -0.32371312376E+03  0.85117735400E+03  0.93397456474E+03  0.15294330000E+03 0.  0.
<mgrwt>
<rscale>  0 0.63279727E+03</rscale>
<asrwt>0</asrwt>
<pdfrwt beam="1">  1        2 0.28532003E+00 0.74714400E+03</pdfrwt>
<pdfrwt beam="2">  1       -2 0.28687171E-01 0.74714400E+03</pdfrwt>
<totfact> 0.91829558E+01</totfact>
</mgrwt>
</event>
<event>
 4    2  0.3855935E-007  0.7335694E+03  0.7818608E-02  0.9879091E-01
         -2   -1    0    0    0  501 -0.00000000000E+00  0.00000000000E+00  0.42396995330E+03  0.42396995330E+03  0.25500000000E-02 0.  1.
          2   -1    0    0  501    0  0.00000000000E+00 -0.00000000000E+00 -0.10368091858E+04  0.10368091858E+04  0.25500000000E-02 0. -1.
    8880023    1    1    2    0    0  0.26236450567E+03 -0.18835815115E+03  0.20188774254E+02  0.73384720468E+03  0.65864270000E+03 0.  0.
    8880022    1    1    2    0    0 -0.26236450567E+03  0.18835815115E+03 -0.63302800676E+03  0.72693193443E+03  0.15294330000E+03 0.  0.
<mgrwt>
<rscale>  0 0.61285419E+03</rscale>
<asrwt>0</asrwt>
<pdfrwt beam="1">  1        2 0.15950910E+00 0.73356945E+03</pdfrwt>
<pdfrwt beam="2">  1       -2 0.65226147E-01 0.73356945E+03</pdfrwt>
<totfact> 0.52596454E+01</totfact>
</mgrwt>
</event>
<event>
 4    2  0.3855935E-007  0.7171622E+03  0.7818608E-02  0.9932308E-01
         -2   -1    0    0    0  501 -0.00000000000E+00  0.00000000000E+00  0.13331196563E+04  0.13331196564E+04  0.25500000000E-02 0.  1.
          2   -1    0    0  501    0  0.00000000000E+00 -0.00000000000E+00 -0.52508472618E+03  0.52508472619E+03  0.25500000000E-02 0. -1.
    8880023    1    1    2    0    0  0.20772512555E+03  0.19329166346E+03  0.11707575237E+04  0.13729511210E+04  0.65864270000E+03 0.  1.
    8880022    1    1    2    0    0 -0.20772512555E+03 -0.19329166346E+03 -0.36272259357E+03  0.48525326156E+03  0.15294330000E+03 0.  0.
<mgrwt>
<rscale>  0 0.58720747E+03</rscale>
<asrwt>0</asrwt>
<pdfrwt beam="1">  1        2 0.80782267E-01 0.71716219E+03</pdfrwt>
<pdfrwt beam="2">  1       -2 0.20509533E+00 0.71716219E+03</pdfrwt>
<totfact> 0.73375380E+00</totfact>
</mgrwt>
</event>
<event>
 4    2  0.3855935E-007  0.7056882E+03  0.7818608E-02  0.9974375E-01
          2   -1    0    0  501    0  0.00000000000E+00  0.00000000000E+00  0.16711684013E+04  0.16711684014E+04  0.25500000000E-02 0. -1.
         -2   -1    0    0    0  501 -0.00000000000E+00 -0.00000000000E+00 -0.22406553962E+03  0.22406553964E+03  0.25500000000E-02 0.  1.
    8880023    1    1    2    0    0  0.19322653923E+03 -0.16385685161E+03  0.40872081177E+03  0.81550504077E+03  0.65864270000E+03 0.  1.
    8880022    1    1    2    0    0 -0.19322653923E+03  0.16385685161E+03  0.10383820500E+04  0.10797289002E+04  0.15294330000E+03 0.  0.
<mgrwt>
<rscale>  0 0.56788253E+03</rscale>
<asrwt>0</asrwt>
<pdfrwt beam="1">  1        2 0.25710284E+00 0.70568815E+03</pdfrwt>
<pdfrwt beam="2">  1       -2 0.34471621E-01 0.70568815E+03</pdfrwt>
<totfact> 0.82369743E+01</totfact>
</mgrwt>
</event>
<event>
 4    2  0.3855935E-007  0.8308887E+03  0.7818608E-02  0.9647606E-01
         -2   -1    0    0    0  501 -0.00000000000E+00  0.00000000000E+00  0.63844487355E+03  0.63844487356E+03  0.25500000000E-02 0.  1.
          2   -1    0    0  501    0  0.00000000000E+00 -0.00000000000E+00 -0.14889419420E+04  0.14889419420E+04  0.25500000000E-02 0. -1.
    8880023    1    1    2    0    0  0.13371457772E+03  0.48855519362E+03  0.28195483280E+03  0.87742492528E+03  0.65864270000E+03 0.  0.
    8880022    1    1    2    0    0 -0.13371457772E+03 -0.48855519362E+03 -0.11324519012E+04  0.12499618902E+04  0.15294330000E+03 0.  0.
<mgrwt>
<rscale>  0 0.74223875E+03</rscale>
<asrwt>0</asrwt>
<pdfrwt beam="1">  1        2 0.22906799E+00 0.83088866E+03</pdfrwt>
<pdfrwt beam="2">  1       -2 0.98222289E-01 0.83088866E+03</pdfrwt>
<totfact> 0.11252960E+01</totfact>
</mgrwt>
</event>
<event>
 4    2  0.3855935E-007  0.6813917E+03  0.7818608E-02  0.1008547E+00
          2   -1    0    0  501    0  0.00000000000E+00  0.00000000000E+00  0.64956642401E+03  0.64956642402E+03  0.25500000000E-02 0. -1.
         -2   -1    0    0    0  501 -0.00000000000E+00 -0.00000000000E+00 -0.10148181091E+04  0.10148181091E+04  0.25500000000E-02 0.  1.
    8880023    1    1    2    0    0 -0.14647518720E+03 -0.95023165879E+02 -0.87220909174E+03  0.11068167366E+04  0.65864270000E+03 0.  1.
    8880022    1    1    2    0    0  0.14647518720E+03  0.95023165879E+02  0.50695740665E+03  0.55756779650E+03  0.15294330000E+03 0.  0.
<mgrwt>
<rscale>  0 0.52056152E+03</rscale>
<asrwt>0</asrwt>
<pdfrwt beam="1">  1        2 0.99933296E-01 0.68139166E+03</pdfrwt>
<pdfrwt beam="2">  1       -2 0.15612586E+00 0.68139166E+03</pdfrwt>
<totfact> 0.12391983E+01</totfact>
</mgrwt>
</event>
<event>
 4    2  0.3855935E-007  0.7651623E+03  0.7818608E-02  0.9791922E-01
         -2   -1    0    0    0  501 -0.00000000000E+00  0.00000000000E+00  0.25808697479E+03  0.25808697480E+03  0.25500000000E-02 0.  1.
          2   -1    0    0  501    0  0.00000000000E+00 -0.00000000000E+00 -0.29776348705E+04  0.29776348705E+04  0.25500000000E-02 0. -1.
    8880023    1    1    2    0    0  0.35479224991E+03  0.16057893482E+03 -0.37130101151E+03  0.85049267035E+03  0.65864270000E+03 0.  1.
    8880022    1    1    2    0    0 -0.35479224991E+03 -0.16057893482E+03 -0.23482468842E+04  0.23852291749E+04  0.15294330000E+03 0.  0.
<mgrwt>
<rscale>  0 0.65797883E+03</rscale>
<asrwt>0</asrwt>
<pdfrwt beam="1">  1        2 0.45809765E+00 0.76516230E+03</pdfrwt>
<pdfrwt beam="2">  1       -2 0.39705691E-01 0.76516230E+03</pdfrwt>
<totfact> 0.11426751E+01</totfact>
</mgrwt>
</event>
<event>
 4    2  0.3855935E-007  0.1331396E+04  0.7818608E-02  0.9038910E-01
          2   -1    0    0  501    0  0.00000000000E+00  0.00000000000E+00  0.39730960714E+04  0.39730960714E+04  0.25500000000E-02 0. -1.
         -2   -1    0    0    0  501 -0.00000000000E+00 -0.00000000000E+00 -0.47886027723E+03  0.47886027724E+03  0.25500000000E-02 0.  1.
    8880023    1    1    2    0    0 -0.52996038991E+01  0.11570557850E+04  0.89938940248E+03  0.16067102038E+04  0.65864270000E+03 0.  0.
    8880022    1    1    2    0    0  0.52996038991E+01 -0.11570557850E+04  0.25948463916E+04  0.28452461448E+04  0.15294330000E+03 0.  0.
<mgrwt>
<rscale>  0 0.12882809E+04</rscale>
<asrwt>0</asrwt>
<pdfrwt beam="1">  1        2 0.61124554E+00 0.13313964E+04</pdfrwt>
<pdfrwt beam="2">  1       -2 0.73670814E-01 0.13313964E+04</pdfrwt>
<totfact> 0.59588966E-01</totfact>
</mgrwt>
</event>
<event>
 4    2  0.3855935E-007  0.1037362E+04  0.7818608E-02  0.9334230E-01
          2   -1    0    0  501    0  0.00000000000E+00  0.00000000000E+00  0.18820429115E+04  0.18820429115E+04  0.25500000000E-02 0. -1.
         -2   -1    0    0    0  501 -0.00000000000E+00 -0.00000000000E+00 -0.78493072007E+03  0.78493072007E+03  0.25500000000E-02 0.  1.
    8880023    1    1    2    0    0 -0.50319060377E+03  0.62378598071E+03 -0.27267716862E+03  0.10726009407E+04  0.65864270000E+03 0.  0.
    8880022    1    1    2    0    0  0.50319060377E+03 -0.62378598071E+03  0.13697893600E+04  0.15943726908E+04  0.15294330000E+03 0.  0.
<mgrwt>
<rscale>  0 0.97691705E+03</rscale>
<asrwt>0</asrwt>
<pdfrwt beam="1">  1        2 0.28954506E+00 0.10373620E+04</pdfrwt>
<pdfrwt beam="2">  1       -2 0.12075857E+00 0.10373620E+04</pdfrwt>
<totfact> 0.40331936E+00</totfact>
</mgrwt>
</event>
<event>
 4    2  0.3855935E-007  0.1051606E+04  0.7818608E-02  0.9316954E-01
          2   -1    0    0  501    0  0.00000000000E+00  0.00000000000E+00  0.11533842134E+04  0.11533842134E+04  0.25500000000E-02 0. -1.
         -2   -1    0    0    0  501 -0.00000000000E+00 -0.00000000000E+00 -0.12659934619E+04  0.12659934619E+04  0.25500000000E-02 0.  1.
    8880023    1    1    2    0    0  0.50879112158E+03  0.64280287271E+03 -0.81388718170E+03  0.13297693369E+04  0.65864270000E+03 0.  1.
    8880022    1    1    2    0    0 -0.50879112158E+03 -0.64280287271E+03  0.70127793313E+03  0.10896083384E+04  0.15294330000E+03 0.  0.
<mgrwt>
<rscale>  0 0.99236929E+03</rscale>
<asrwt>0</asrwt>
<pdfrwt beam="1">  1        2 0.17744373E+00 0.10516055E+04</pdfrwt>
<pdfrwt beam="2">  1       -2 0.19476822E+00 0.10516055E+04</pdfrwt>
<totfact> 0.28700270E+00</totfact>
</mgrwt>
</event>
<event>
 4    2  0.3855935E-007  0.6796844E+03  0.7818608E-02  0.1009503E+00
         -2   -1    0    0    0  501 -0.00000000000E+00  0.00000000000E+00  0.52636835363E+03  0.52636835364E+03  0.25500000000E-02 0.  1.
          2   -1    0    0  501    0  0.00000000000E+00 -0.00000000000E+00 -0.68740778722E+03  0.68740778722E+03  0.25500000000E-02 0. -1.
    8880023    1    1    2    0    0  0.14058223996E+03  0.91636565651E+02  0.26619814940E+03  0.72995362001E+03  0.65864270000E+03 0.  1.
    8880022    1    1    2    0    0 -0.14058223996E+03 -0.91636565651E+02 -0.42723758299E+03  0.48382252085E+03  0.15294330000E+03 0.  0.
<mgrwt>
<rscale>  0 0.51672734E+03</rscale>
<asrwt>0</asrwt>
<pdfrwt beam="1">  1        2 0.10575504E+00 0.67968436E+03</pdfrwt>
<pdfrwt beam="2">  1       -2 0.80979746E-01 0.67968436E+03</pdfrwt>
<totfact> 0.57403786E+01</totfact>
</mgrwt>
</event>
<event>
 4    2  0.3855935E-007  0.6752296E+03  0.7818608E-02  0.1012162E+00
         -2   -1    0    0    0  501 -0.00000000000E+00  0.00000000000E+00  0.22168974095E+03  0.22168974096E+03  0.25500000000E-02 0.  1.
          2   -1    0    0  501    0  0.00000000000E+00 -0.00000000000E+00 -0.23726349542E+04  0.23726349542E+04  0.25500000000E-02 0. -1.
    8880023    1    1    2    0    0  0.66278747702E+02 -0.13316126263E+03 -0.31336464594E+03  0.74440069979E+03  0.65864270000E+03 0.  1.
    8880022    1    1    2    0    0 -0.66278747702E+02  0.13316126263E+03 -0.18375805673E+04  0.18499239954E+04  0.15294330000E+03 0.  0.
<mgrwt>
<rscale>  0 0.50624371E+03</rscale>
<asrwt>0</asrwt>
<pdfrwt beam="1">  1        2 0.36502074E+00 0.67522959E+03</pdfrwt>
<pdfrwt beam="2">  1       -2 0.34106116E-01 0.67522959E+03</pdfrwt>
<totfact> 0.34867235E+01</totfact>
</mgrwt>
</event>
<event>
 4    2  0.3855935E-007  0.6778584E+03  0.7818608E-02  0.1010562E+00
          2   -1    0    0  501    0  0.00000000000E+00  0.00000000000E+00  0.64317400788E+03  0.64317400788E+03  0.25500000000E-02 0. -1.
         -2   -1    0    0    0  501 -0.00000000000E+00 -0.00000000000E+00 -0.40662276131E+03  0.40662276132E+03  0.25500000000E-02 0.  1.
    8880023    1    1    2    0    0 -0.11620826478E+03  0.11035131008E+03 -0.59021921733E+02  0.68042307864E+03  0.65864270000E+03 0.  1.
    8880022    1    1    2    0    0  0.11620826478E+03 -0.11035131008E+03  0.29557316830E+03  0.36937369056E+03  0.15294330000E+03 0.  0.
<mgrwt>
<rscale>  0 0.51251906E+03</rscale>
<asrwt>0</asrwt>
<pdfrwt beam="1">  1        2 0.98949847E-01 0.67785838E+03</pdfrwt>
<pdfrwt beam="2">  1       -2 0.62557348E-01 0.67785838E+03</pdfrwt>
<totfact> 0.10967282E+02</totfact>
</mgrwt>
</event>
<event>
 4    2  0.3855935E-007  0.6882304E+03  0.7818608E-02  0.1005005E+00
         -2   -1    0    0    0  501 -0.00000000000E+00  0.00000000000E+00  0.47899217789E+03  0.47899217790E+03  0.25500000000E-02 0.  1.
          2   -1    0    0  501    0  0.00000000000E+00 -0.00000000000E+00 -0.51625920480E+03  0.51625920481E+03  0.25500000000E-02 0. -1.
    8880023    1    1    2    0    0 -0.26108360682E+02  0.19791215092E+03  0.12004439507E+03  0.69862130588E+03  0.65864270000E+03 0.  1.
    8880022    1    1    2    0    0  0.26108360682E+02 -0.19791215092E+03 -0.15731142198E+03  0.29663007683E+03  0.15294330000E+03 0.  0.
<mgrwt>
<rscale>  0 0.53508962E+03</rscale>
<asrwt>0</asrwt>
<pdfrwt beam="1">  1        2 0.79424494E-01 0.68823039E+03</pdfrwt>
<pdfrwt beam="2">  1       -2 0.73691104E-01 0.68823039E+03</pdfrwt>
<totfact> 0.99927821E+01</totfact>
</mgrwt>
</event>
<event>
 4    2  0.3855935E-007  0.6615896E+03  0.7818608E-02  0.1022584E+00
          2   -1    0    0  501    0  0.00000000000E+00  0.00000000000E+00  0.13961398997E+04  0.13961398997E+04  0.25500000000E-02 0. -1.
         -2   -1    0    0    0  501 -0.00000000000E+00 -0.00000000000E+00 -0.55487124432E+03  0.55487124433E+03  0.25500000000E-02 0.  1.
    8880023    1    1    2    0    0  0.61754494551E+02  0.87697846289E+01 -0.34991805951E+03  0.74842727192E+03  0.65864270000E+03 0.  1.
    8880022    1    1    2    0    0 -0.61754494551E+02 -0.87697846289E+01  0.11911867148E+04  0.12025838721E+04  0.15294330000E+03 0.  0.
<mgrwt>
<rscale>  0 0.46765584E+03</rscale>
<asrwt>0</asrwt>
<pdfrwt beam="1">  1        2 0.21479075E+00 0.66158955E+03</pdfrwt>
<pdfrwt beam="2">  1       -2 0.85364807E-01 0.66158955E+03</pdfrwt>
<totfact> 0.17945151E+01</totfact>
</mgrwt>
</event>
<event>
 4    2  0.3855935E-007  0.1171013E+04  0.7818608E-02  0.9185828E-01
          2   -1    0    0  501    0  0.00000000000E+00  0.00000000000E+00  0.10613598816E+04  0.10613598816E+04  0.25500000000E-02 0. -1.
         -2   -1    0    0    0  501 -0.00000000000E+00 -0.00000000000E+00 -0.15716868860E+04  0.15716868860E+04  0.25500000000E-02 0.  1.
    8880023    1    1    2    0    0  0.47995023959E+02  0.96703545830E+03 -0.99764358235E+03  0.15383640738E+04  0.65864270000E+03 0.  0.
    8880022    1    1    2    0    0 -0.47995023959E+02 -0.96703545830E+03  0.48731657797E+03  0.10946826938E+04  0.15294330000E+03 0. -1.
<mgrwt>
<rscale>  0 0.11200912E+04</rscale>
<asrwt>0</asrwt>
<pdfrwt beam="1">  1        2 0.16328614E+00 0.11710129E+04</pdfrwt>
<pdfrwt beam="2">  1       -2 0.24179798E+00 0.11710129E+04</pdfrwt>
<totfact> 0.16229992E+00</totfact>
</mgrwt>
</event>
<event>
 4    2  0.3855935E-007  0.9290835E+03  0.7818608E-02  0.9480869E-01
         -2   -1    0    0    0  501 -0.00000000000E+00  0.00000000000E+00  0.29026433322E+03  0.29026433324E+03  0.25500000000E-02 0.  1.
          2   -1    0    0  501    0  0.00000000000E+00 -0.00000000000E+00 -0.38229541788E+04  0.38229541788E+04  0.25500000000E-02 0. -1.
    8880023    1    1    2    0    0  0.63676783513E+03  0.15463725848E+03 -0.60384807965E+03  0.11080743058E+04  0.65864270000E+03 0.  1.
    8880022    1    1    2    0    0 -0.63676783513E+03 -0.15463725848E+03 -0.29288417660E+04  0.30051442063E+04  0.15294330000E+03 0.  0.
<mgrwt>
<rscale>  0 0.85709050E+03</rscale>
<asrwt>0</asrwt>
<pdfrwt beam="1">  1        2 0.58814676E+00 0.92908351E+03</pdfrwt>
<pdfrwt beam="2">  1       -2 0.44656054E-01 0.92908351E+03</pdfrwt>
<totfact> 0.23805646E+00</totfact>
</mgrwt>
</event>
<event>
 4    2  0.3855935E-007  0.7515653E+03  0.7818608E-02  0.9827455E-01
          2   -1    0    0  501    0  0.00000000000E+00  0.00000000000E+00  0.15470985131E+04  0.15470985131E+04  0.25500000000E-02 0. -1.
         -2   -1    0    0    0  501 -0.00000000000E+00 -0.00000000000E+00 -0.23996021798E+03  0.23996021800E+03  0.25500000000E-02 0.  1.
    8880023    1    1    2    0    0 -0.35087318146E+03 -0.89040599340E+02  0.11273523983E+04  0.13549073230E+04  0.65864270000E+03 0.  0.
    8880022    1    1    2    0    0  0.35087318146E+03  0.89040599340E+02  0.17978589685E+03  0.43215140809E+03  0.15294330000E+03 0.  0.
<mgrwt>
<rscale>  0 0.63909757E+03</rscale>
<asrwt>0</asrwt>
<pdfrwt beam="1">  1        2 0.23801516E+00 0.75156532E+03</pdfrwt>
<pdfrwt beam="2">  1       -2 0.36916956E-01 0.75156532E+03</pdfrwt>
<totfact> 0.84177859E+01</totfact>
</mgrwt>
</event>
<event>
 4    2  0.3855935E-007  0.7608555E+03  0.7818608E-02  0.9802898E-01
         -2   -1    0    0    0  501 -0.00000000000E+00  0.00000000000E+00  0.41107805037E+03  0.41107805038E+03  0.25500000000E-02 0.  1.
          2   -1    0    0  501    0  0.00000000000E+00 -0.00000000000E+00 -0.36697743146E+04  0.36697743146E+04  0.25500000000E-02 0. -1.
    8880023    1    1    2    0    0 -0.37893928812E+03 -0.38677484662E+02  0.35017336764E+02  0.76166091671E+03  0.65864270000E+03 0.  0.
    8880022    1    1    2    0    0  0.37893928812E+03  0.38677484662E+02 -0.32937136010E+04  0.33191914483E+04  0.15294330000E+03 0.  0.
<mgrwt>
<rscale>  0 0.65207272E+03</rscale>
<asrwt>0</asrwt>
<pdfrwt beam="1">  1        2 0.56458064E+00 0.76085553E+03</pdfrwt>
<pdfrwt beam="2">  1       -2 0.63242780E-01 0.76085553E+03</pdfrwt>
<totfact> 0.15544367E+00</totfact>
</mgrwt>
</event>
<event>
 4    2  0.7063416E-007  0.7571285E+03  0.7818608E-02  0.9812599E-01
          2   -1    0    0  501    0  0.00000000000E+00  0.00000000000E+00  0.23171546709E+04  0.23171546709E+04  0.25500000000E-02 0. -1.
         -2   -1    0    0    0  501 -0.00000000000E+00 -0.00000000000E+00 -0.10431418527E+04  0.10431418527E+04  0.25500000000E-02 0.  1.
    8880023    1    1    2    0    0  0.58299370173E+02 -0.36882860334E+03 -0.88455465091E+03  0.11643369323E+04  0.65864270000E+03 0.  1.
    8880022    1    1    2    0    0 -0.58299370173E+02  0.36882860334E+03  0.21585674691E+04  0.21959595913E+04  0.15294330000E+03 0.  0.
<mgrwt>
<rscale>  0 0.64690772E+03</rscale>
<asrwt>0</asrwt>
<pdfrwt beam="1">  1        2 0.35648534E+00 0.75712850E+03</pdfrwt>
<pdfrwt beam="2">  1       -2 0.16048336E+00 0.75712850E+03</pdfrwt>
<totfact> 0.11585593E+00</totfact>
</mgrwt>
</event>
<event>
 4    2  0.3855935E-007  0.6962976E+03  0.7818608E-02  0.1001292E+00
         -2   -1    0    0    0  501 -0.00000000000E+00  0.00000000000E+00  0.23741728303E+03  0.23741728305E+03  0.25500000000E-02 0.  1.
          2   -1    0    0  501    0  0.00000000000E+00 -0.00000000000E+00 -0.17448746933E+04  0.17448746933E+04  0.25500000000E-02 0. -1.
    8880023    1    1    2    0    0  0.20608017190E+03 -0.92472354895E+02 -0.32433571770E+03  0.76813022185E+03  0.65864270000E+03 0.  1.
    8880022    1    1    2    0    0 -0.20608017190E+03  0.92472354895E+02 -0.11831216926E+04  0.12141617545E+04  0.15294330000E+03 0.  0.
<mgrwt>
<rscale>  0 0.55087293E+03</rscale>
<asrwt>0</asrwt>
<pdfrwt beam="1">  1        2 0.26844225E+00 0.69629762E+03</pdfrwt>
<pdfrwt beam="2">  1       -2 0.36525737E-01 0.69629762E+03</pdfrwt>
<totfact> 0.67304881E+01</totfact>
</mgrwt>
</event>
<event>
 4    2  0.3855935E-007  0.1476868E+04  0.7818608E-02  0.8926145E-01
         -2   -1    0    0    0  501 -0.00000000000E+00  0.00000000000E+00  0.11527677958E+04  0.11527677958E+04  0.25500000000E-02 0.  1.
          2   -1    0    0  501    0  0.00000000000E+00 -0.00000000000E+00 -0.17719120769E+04  0.17719120769E+04  0.25500000000E-02 0. -1.
    8880023    1    1    2    0    0  0.90869991655E+03  0.95999618284E+03 -0.59934544989E+03  0.15938486076E+04  0.65864270000E+03 0.  0.
    8880022    1    1    2    0    0 -0.90869991655E+03 -0.95999618284E+03 -0.19798831286E+02  0.13308312651E+04  0.15294330000E+03 0.  0.
<mgrwt>
<rscale>  0 0.14388812E+04</rscale>
<asrwt>0</asrwt>
<pdfrwt beam="1">  1        2 0.27260186E+00 0.14768678E+04</pdfrwt>
<pdfrwt beam="2">  1       -2 0.17734889E+00 0.14768678E+04</pdfrwt>
<totfact> 0.15976176E+00</totfact>
</mgrwt>
</event>
<event>
 4    2  0.3855935E-007  0.6839393E+03  0.7818608E-02  0.1007178E+00
          2   -1    0    0  501    0  0.00000000000E+00  0.00000000000E+00  0.32289799601E+04  0.32289799601E+04  0.25500000000E-02 0. -1.
         -2   -1    0    0    0  501 -0.00000000000E+00 -0.00000000000E+00 -0.95533104281E+02  0.95533104315E+02  0.25500000000E-02 0.  1.
    8880023    1    1    2    0    0  0.10615708372E+03  0.15064320840E+03  0.12411265297E+04  0.14170984340E+04  0.65864270000E+03 0.  1.
    8880022    1    1    2    0    0 -0.10615708372E+03 -0.15064320840E+03  0.18923203262E+04  0.19074146305E+04  0.15294330000E+03 0.  0.
<mgrwt>
<rscale>  0 0.52611896E+03</rscale>
<asrwt>0</asrwt>
<pdfrwt beam="1">  1        2 0.49676619E+00 0.68393926E+03</pdfrwt>
<pdfrwt beam="2">  1       -2 0.14697399E-01 0.68393926E+03</pdfrwt>
<totfact> 0.48404086E+01</totfact>
</mgrwt>
</event>
<event>
 4    2  0.3855935E-007  0.7338322E+03  0.7818608E-02  0.9878292E-01
         -2   -1    0    0    0  501 -0.00000000000E+00  0.00000000000E+00  0.10280351492E+04  0.10280351492E+04  0.25500000000E-02 0.  1.
          2   -1    0    0  501    0  0.00000000000E+00 -0.00000000000E+00 -0.44618968946E+03  0.44618968947E+03  0.25500000000E-02 0. -1.
    8880023    1    1    2    0    0 -0.29838880764E+03  0.12515450462E+03  0.77519018778E+03  0.10674406607E+04  0.65864270000E+03 0.  0.
    8880022    1    1    2    0    0  0.29838880764E+03 -0.12515450462E+03 -0.19334472808E+03  0.40678417797E+03  0.15294330000E+03 0.  0.
<mgrwt>
<rscale>  0 0.61324991E+03</rscale>
<asrwt>0</asrwt>
<pdfrwt beam="1">  1        2 0.68644567E-01 0.73383223E+03</pdfrwt>
<pdfrwt beam="2">  1       -2 0.15815925E+00 0.73383223E+03</pdfrwt>
<totfact> 0.18535636E+01</totfact>
</mgrwt>
</event>
<event>
 4    2  0.3855935E-007  0.7864048E+03  0.7818608E-02  0.9741001E-01
          2   -1    0    0  501    0  0.00000000000E+00  0.00000000000E+00  0.76823083410E+03  0.76823083411E+03  0.25500000000E-02 0. -1.
         -2   -1    0    0    0  501 -0.00000000000E+00 -0.00000000000E+00 -0.12758593197E+04  0.12758593197E+04  0.25500000000E-02 0.  1.
    8880023    1    1    2    0    0 -0.28747329846E+03 -0.31934533893E+03 -0.10650114574E+04  0.13238889506E+04  0.65864270000E+03 0.  1.
    8880022    1    1    2    0    0  0.28747329846E+03  0.31934533893E+03  0.55738297181E+03  0.72020120321E+03  0.15294330000E+03 0.  0.
<mgrwt>
<rscale>  0 0.68627187E+03</rscale>
<asrwt>0</asrwt>
<pdfrwt beam="1">  1        2 0.11818936E+00 0.78640483E+03</pdfrwt>
<pdfrwt beam="2">  1       -2 0.19628605E+00 0.78640483E+03</pdfrwt>
<totfact> 0.51976614E+00</totfact>
</mgrwt>
</event>
<event>
 4    2  0.3855935E-007  0.6928371E+03  0.7818608E-02  0.1002832E+00
          2   -1    0    0  501    0  0.00000000000E+00  0.00000000000E+00  0.17593293734E+04  0.17593293734E+04  0.25500000000E-02 0. -1.
         -2   -1    0    0    0  501 -0.00000000000E+00 -0.00000000000E+00 -0.23567525114E+03  0.23567525115E+03  0.25500000000E-02 0.  1.
    8880023    1    1    2    0    0  0.11665135475E+03 -0.18057008983E+03  0.32070161018E+03  0.76346108279E+03  0.65864270000E+03 0.  1.
    8880022    1    1    2    0    0 -0.11665135475E+03  0.18057008983E+03  0.12029525121E+04  0.12315435418E+04  0.15294330000E+03 0.  0.
<mgrwt>
<rscale>  0 0.54425600E+03</rscale>
<asrwt>0</asrwt>
<pdfrwt beam="1">  1        2 0.27066605E+00 0.69283714E+03</pdfrwt>
<pdfrwt beam="2">  1       -2 0.36257731E-01 0.69283714E+03</pdfrwt>
<totfact> 0.67061329E+01</totfact>
</mgrwt>
</event>
<event>
 4    2  0.3855935E-007  0.6986257E+03  0.7818608E-02  0.1000295E+00
         -2   -1    0    0    0  501 -0.00000000000E+00  0.00000000000E+00  0.32398334866E+03  0.32398334867E+03  0.25500000000E-02 0.  1.
          2   -1    0    0  501    0  0.00000000000E+00 -0.00000000000E+00 -0.26204996337E+04  0.26204996337E+04  0.25500000000E-02 0. -1.
    8880023    1    1    2    0    0 -0.11692263583E+03 -0.20148622165E+03 -0.71715326262E+02  0.70229687068E+03  0.65864270000E+03 0.  1.
    8880022    1    1    2    0    0  0.11692263583E+03  0.20148622165E+03 -0.22248009588E+04  0.22421861117E+04  0.15294330000E+03 0.  0.
<mgrwt>
<rscale>  0 0.55521034E+03</rscale>
<asrwt>0</asrwt>
<pdfrwt beam="1">  1        2 0.40315378E+00 0.69862566E+03</pdfrwt>
<pdfrwt beam="2">  1       -2 0.49843594E-01 0.69862566E+03</pdfrwt>
<totfact> 0.11956934E+01</totfact>
</mgrwt>
</event>
<event>
 4    2  0.3855935E-007  0.1123999E+04  0.7818608E-02  0.9234795E-01
          2   -1    0    0  501    0  0.00000000000E+00  0.00000000000E+00  0.21337667987E+04  0.21337667987E+04  0.25500000000E-02 0. -1.
         -2   -1    0    0    0  501 -0.00000000000E+00 -0.00000000000E+00 -0.91596299819E+03  0.91596299820E+03  0.25500000000E-02 0.  1.
    8880023    1    1    2    0    0  0.63918325088E+03 -0.64885150499E+03 -0.39485493354E+03  0.11913371179E+04  0.65864270000E+03 0.  1.
    8880022    1    1    2    0    0 -0.63918325088E+03  0.64885150499E+03  0.16126587341E+04  0.18583926790E+04  0.15294330000E+03 0.  0.
<mgrwt>
<rscale>  0 0.10701391E+04</rscale>
<asrwt>0</asrwt>
<pdfrwt beam="1">  1        2 0.32827181E+00 0.11239990E+04</pdfrwt>
<pdfrwt beam="2">  1       -2 0.14091739E+00 0.11239990E+04</pdfrwt>
<totfact> 0.19543151E+00</totfact>
</mgrwt>
</event>
<event>
 4    2  0.3855935E-007  0.7686435E+03  0.7818608E-02  0.9783223E-01
         -2   -1    0    0    0  501 -0.00000000000E+00  0.00000000000E+00  0.57139896155E+03  0.57139896155E+03  0.25500000000E-02 0.  1.
          2   -1    0    0  501    0  0.00000000000E+00 -0.00000000000E+00 -0.32388025610E+04  0.32388025610E+04  0.25500000000E-02 0. -1.
    8880023    1    1    2    0    0  0.38853908710E+03 -0.77717567442E+02  0.29068792261E+03  0.82177388442E+03  0.65864270000E+03 0.  1.
    8880022    1    1    2    0    0 -0.38853908710E+03  0.77717567442E+02 -0.29580915221E+04  0.29884276382E+04  0.15294330000E+03 0.  0.
<mgrwt>
<rscale>  0 0.66270703E+03</rscale>
<asrwt>0</asrwt>
<pdfrwt beam="1">  1        2 0.49827731E+00 0.76864351E+03</pdfrwt>
<pdfrwt beam="2">  1       -2 0.87907534E-01 0.76864351E+03</pdfrwt>
<totfact> 0.14635179E+00</totfact>
</mgrwt>
</event>
<event>
 4    2  0.3855935E-007  0.7738175E+03  0.7818608E-02  0.9770565E-01
          2   -1    0    0  501    0  0.00000000000E+00  0.00000000000E+00  0.46148046436E+04  0.46148046436E+04  0.25500000000E-02 0. -1.
         -2   -1    0    0    0  501 -0.00000000000E+00 -0.00000000000E+00 -0.83276595635E+02  0.83276595674E+02  0.25500000000E-02 0.  1.
    8880023    1    1    2    0    0 -0.20324302758E+03  0.35167543470E+03  0.23606914626E+04  0.24842821352E+04  0.65864270000E+03 0.  0.
    8880022    1    1    2    0    0  0.20324302758E+03 -0.35167543470E+03  0.21708365854E+04  0.22137991040E+04  0.15294330000E+03 0.  1.
<mgrwt>
<rscale>  0 0.66966380E+03</rscale>
<asrwt>0</asrwt>
<pdfrwt beam="1">  1        2 0.70997003E+00 0.77381751E+03</pdfrwt>
<pdfrwt beam="2">  1       -2 0.12811782E-01 0.77381751E+03</pdfrwt>
<totfact> 0.48833839E+00</totfact>
</mgrwt>
</event>
<event>
 4    2  0.3855935E-007  0.8210727E+03  0.7818608E-02  0.9666958E-01
          2   -1    0    0  501    0  0.00000000000E+00  0.00000000000E+00  0.13676863017E+04  0.13676863017E+04  0.25500000000E-02 0. -1.
         -2   -1    0    0    0  501 -0.00000000000E+00 -0.00000000000E+00 -0.46941286686E+03  0.46941286686E+03  0.25500000000E-02 0.  1.
    8880023    1    1    2    0    0 -0.29483840504E+03 -0.39168934603E+03  0.10199007494E+04  0.13093349356E+04  0.65864270000E+03 0. -1.
    8880022    1    1    2    0    0  0.29483840504E+03  0.39168934603E+03 -0.12162731454E+03  0.52776423291E+03  0.15294330000E+03 0.  0.
<mgrwt>
<rscale>  0 0.73018618E+03</rscale>
<asrwt>0</asrwt>
<pdfrwt beam="1">  1        2 0.21041327E+00 0.82107273E+03</pdfrwt>
<pdfrwt beam="2">  1       -2 0.72217365E-01 0.82107273E+03</pdfrwt>
<totfact> 0.26574348E+01</totfact>
</mgrwt>
</event>
<event>
 4    2  0.3855935E-007  0.8599095E+03  0.7818608E-02  0.9593725E-01
         -2   -1    0    0    0  501 -0.00000000000E+00  0.00000000000E+00  0.38809316305E+03  0.38809316305E+03  0.25500000000E-02 0.  1.
          2   -1    0    0  501    0  0.00000000000E+00 -0.00000000000E+00 -0.16334132901E+04  0.16334132901E+04  0.25500000000E-02 0. -1.
    8880023    1    1    2    0    0 -0.26294646659E+03  0.48630568838E+03 -0.11563534407E+04  0.14410404411E+04  0.65864270000E+03 0.  0.
    8880022    1    1    2    0    0  0.26294646659E+03 -0.48630568838E+03 -0.88966686346E+02  0.58046601204E+03  0.15294330000E+03 0.  0.
<mgrwt>
<rscale>  0 0.77712928E+03</rscale>
<asrwt>0</asrwt>
<pdfrwt beam="1">  1        2 0.25129435E+00 0.85990946E+03</pdfrwt>
<pdfrwt beam="2">  1       -2 0.59706641E-01 0.85990946E+03</pdfrwt>
<totfact> 0.28322918E+01</totfact>
</mgrwt>
</event>
<event>
 4    2  0.3855935E-007  0.1184729E+04  0.7818608E-02  0.9172112E-01
          2   -1    0    0  501    0  0.00000000000E+00  0.00000000000E+00  0.33280789264E+04  0.33280789264E+04  0.25500000000E-02 0. -1.
         -2   -1    0    0    0  501 -0.00000000000E+00 -0.00000000000E+00 -0.51170160776E+03  0.51170160776E+03  0.25500000000E-02 0.  1.
    8880023    1    1    2    0    0 -0.33194648517E+03  0.92713743951E+03  0.25444931668E+04  0.28067824965E+04  0.65864270000E+03 0. -1.
    8880022    1    1    2    0    0  0.33194648517E+03 -0.92713743951E+03  0.27188415189E+03  0.10329980377E+04  0.15294330000E+03 0.  0.
<mgrwt>
<rscale>  0 0.11345976E+04</rscale>
<asrwt>0</asrwt>
<pdfrwt beam="1">  1        2 0.51201214E+00 0.11847289E+04</pdfrwt>
<pdfrwt beam="2">  1       -2 0.78723325E-01 0.11847289E+04</pdfrwt>
<totfact> 0.15317671E+00</totfact>
</mgrwt>
</event>
<event>
 4    2  0.3855935E-007  0.1034050E+04  0.7818608E-02  0.9338306E-01
         -2   -1    0    0    0  501 -0.00000000000E+00  0.00000000000E+00  0.70261859948E+03  0.70261859948E+03  0.25500000000E-02 0.  1.
          2   -1    0    0  501    0  0.00000000000E+00 -0.00000000000E+00 -0.14731470324E+04  0.14731470324E+04  0.25500000000E-02 0. -1.
    8880023    1    1    2    0    0 -0.64701520415E+03 -0.46563996956E+03 -0.87860673272E+03  0.13569116599E+04  0.65864270000E+03 0.  0.
    8880022    1    1    2    0    0  0.64701520415E+03  0.46563996956E+03  0.10807829976E+03  0.81885397205E+03  0.15294330000E+03 0.  0.
<mgrwt>
<rscale>  0 0.97331571E+03</rscale>
<asrwt>0</asrwt>
<pdfrwt beam="1">  1        2 0.22663800E+00 0.10340500E+04</pdfrwt>
<pdfrwt beam="2">  1       -2 0.10809517E+00 0.10340500E+04</pdfrwt>
<totfact> 0.89318417E+00</totfact>
</mgrwt>
</event>
<event>
 4    2  0.3855935E-007  0.1405932E+04  0.7818608E-02  0.8979087E-01
         -2   -1    0    0    0  501 -0.00000000000E+00  0.00000000000E+00  0.16737504431E+04  0.16737504431E+04  0.25500000000E-02 0.  1.
          2   -1    0    0  501    0  0.00000000000E+00 -0.00000000000E+00 -0.20936958216E+04  0.20936958217E+04  0.25500000000E-02 0. -1.
    8880023    1    1    2    0    0  0.58396212361E+03 -0.10962771470E+04  0.11096742136E+04  0.17910953105E+04  0.65864270000E+03 0.  0.
    8880022    1    1    2    0    0 -0.58396212361E+03  0.10962771470E+04 -0.15296195921E+04  0.19763509543E+04  0.15294330000E+03 0.  0.
<mgrwt>
<rscale>  0 0.13656208E+04</rscale>
<asrwt>0</asrwt>
<pdfrwt beam="1">  1        2 0.32210705E+00 0.14059323E+04</pdfrwt>
<pdfrwt beam="2">  1       -2 0.25750007E+00 0.14059323E+04</pdfrwt>
<totfact> 0.32450926E-01</totfact>
</mgrwt>
</event>
<event>
 4    2  0.3855935E-007  0.7874658E+03  0.7818608E-02  0.9738583E-01
          2   -1    0    0  501    0  0.00000000000E+00  0.00000000000E+00  0.24967994362E+04  0.24967994362E+04  0.25500000000E-02 0. -1.
         -2   -1    0    0    0  501 -0.00000000000E+00 -0.00000000000E+00 -0.59229604109E+03  0.59229604110E+03  0.25500000000E-02 0.  1.
    8880023    1    1    2    0    0 -0.32698353254E+03  0.28173373946E+03 -0.29614465180E+03  0.84131087688E+03  0.65864270000E+03 0.  1.
    8880022    1    1    2    0    0  0.32698353254E+03 -0.28173373946E+03  0.22006480469E+04  0.22477846004E+04  0.15294330000E+03 0.  0.
<mgrwt>
<rscale>  0 0.68765304E+03</rscale>
<asrwt>0</asrwt>
<pdfrwt beam="1">  1        2 0.38412299E+00 0.78746577E+03</pdfrwt>
<pdfrwt beam="2">  1       -2 0.91122469E-01 0.78746577E+03</pdfrwt>
<totfact> 0.37446079E+00</totfact>
</mgrwt>
</event>
<event>
 4    2  0.3855935E-007  0.9740823E+03  0.7818608E-02  0.9416280E-01
          2   -1    0    0  501    0  0.00000000000E+00  0.00000000000E+00  0.10947181030E+04  0.10947181030E+04  0.25500000000E-02 0. -1.
         -2   -1    0    0    0  501 -0.00000000000E+00 -0.00000000000E+00 -0.68200482167E+03  0.68200482167E+03  0.25500000000E-02 0.  1.
    8880023    1    1    2    0    0 -0.69858879911E+03 -0.16431627780E+03  0.10036288330E+03  0.97923902292E+03  0.65864270000E+03 0.  1.
    8880022    1    1    2    0    0  0.69858879911E+03  0.16431627780E+03  0.31235039804E+03  0.79748390176E+03  0.15294330000E+03 0. -1.
<mgrwt>
<rscale>  0 0.90747918E+03</rscale>
<asrwt>0</asrwt>
<pdfrwt beam="1">  1        2 0.16841817E+00 0.97408231E+03</pdfrwt>
<pdfrwt beam="2">  1       -2 0.10492382E+00 0.97408231E+03</pdfrwt>
<totfact> 0.16096258E+01</totfact>
</mgrwt>
</event>
<event>
 4    2  0.3855935E-007  0.6668411E+03  0.7818608E-02  0.1018036E+00
          2   -1    0    0  501    0  0.00000000000E+00  0.00000000000E+00  0.42050351107E+03  0.42050351108E+03  0.25500000000E-02 0. -1.
         -2   -1    0    0    0  501 -0.00000000000E+00 -0.00000000000E+00 -0.11787691314E+04  0.11787691314E+04  0.25500000000E-02 0.  1.
    8880023    1    1    2    0    0 -0.83728568490E+02 -0.62099593068E+02 -0.10558647983E+04  0.12488104385E+04  0.65864270000E+03 0.  0.
    8880022    1    1    2    0    0  0.83728568490E+02  0.62099593068E+02  0.29759917803E+03  0.35046220398E+03  0.15294330000E+03 0. -1.
<mgrwt>
<rscale>  0 0.48401942E+03</rscale>
<asrwt>0</asrwt>
<pdfrwt beam="1">  1        2 0.64692848E-01 0.66684109E+03</pdfrwt>
<pdfrwt beam="2">  1       -2 0.18134910E+00 0.66684109E+03</pdfrwt>
<totfact> 0.13664905E+01</totfact>
</mgrwt>
</event>
<event>
 4    2  0.3855935E-007  0.6802332E+03  0.7818608E-02  0.1009192E+00
         -2   -1    0    0    0  501 -0.00000000000E+00  0.00000000000E+00  0.54171808150E+03  0.54171808151E+03  0.25500000000E-02 0.  1.
          2   -1    0    0  501    0  0.00000000000E+00 -0.00000000000E+00 -0.52310623416E+03  0.52310623417E+03  0.25500000000E-02 0. -1.
    8880023    1    1    2    0    0 -0.80275677770E+02 -0.14987584770E+03  0.26375010085E+03  0.72957609344E+03  0.65864270000E+03 0.  1.
    8880022    1    1    2    0    0  0.80275677770E+02  0.14987584770E+03 -0.24513825350E+03  0.33524822223E+03  0.15294330000E+03 0.  0.
<mgrwt>
<rscale>  0 0.51797001E+03</rscale>
<asrwt>0</asrwt>
<pdfrwt beam="1">  1        2 0.80477882E-01 0.68023317E+03</pdfrwt>
<pdfrwt beam="2">  1       -2 0.83341243E-01 0.68023317E+03</pdfrwt>
<totfact> 0.74774975E+01</totfact>
</mgrwt>
</event>
<event>
 4    2  0.3855935E-007  0.1349031E+04  0.7818608E-02  0.9024335E-01
          2   -1    0    0  501    0  0.00000000000E+00  0.00000000000E+00  0.21339838392E+04  0.21339838392E+04  0.25500000000E-02 0. -1.
         -2   -1    0    0    0  501 -0.00000000000E+00 -0.00000000000E+00 -0.18903964934E+04  0.18903964934E+04  0.25500000000E-02 0.  1.
    8880023    1    1    2    0    0 -0.11122223396E+04 -0.38605059299E+03 -0.14342483034E+04  0.19689977133E+04  0.65864270000E+03 0.  1.
    8880022    1    1    2    0    0  0.11122223396E+04  0.38605059299E+03  0.16778356491E+04  0.20553826193E+04  0.15294330000E+03 0.  0.
<mgrwt>
<rscale>  0 0.13066166E+04</rscale>
<asrwt>0</asrwt>
<pdfrwt beam="1">  1        2 0.32830521E+00 0.13490307E+04</pdfrwt>
<pdfrwt beam="2">  1       -2 0.29083023E+00 0.13490307E+04</pdfrwt>
<totfact> 0.19446157E-01</totfact>
</mgrwt>
</event>
<event>
 4    2  0.3855935E-007  0.9131004E+03  0.7818608E-02  0.9505320E-01
         -2   -1    0    0    0  501 -0.00000000000E+00  0.00000000000E+00  0.84517570077E+03  0.84517570077E+03  0.25500000000E-02 0.  1.
          2   -1    0    0  501    0  0.00000000000E+00 -0.00000000000E+00 -0.17871464967E+04  0.17871464967E+04  0.25500000000E-02 0. -1.
    8880023    1    1    2    0    0  0.56422505040E+03  0.28564347836E+03  0.50668489393E+03  0.10442614099E+04  0.65864270000E+03 0.  1.
    8880022    1    1    2    0    0 -0.56422505040E+03 -0.28564347836E+03 -0.14486556899E+04  0.15880607876E+04  0.15294330000E+03 0.  0.
<mgrwt>
<rscale>  0 0.83892716E+03</rscale>
<asrwt>0</asrwt>
<pdfrwt beam="1">  1        2 0.27494562E+00 0.91310038E+03</pdfrwt>
<pdfrwt beam="2">  1       -2 0.13002703E+00 0.91310038E+03</pdfrwt>
<totfact> 0.38343401E+00</totfact>
</mgrwt>
</event>
<event>
 4    2  0.3855935E-007  0.1440258E+04  0.7818608E-02  0.8953017E-01
         -2   -1    0    0    0  501 -0.00000000000E+00  0.00000000000E+00  0.97147274232E+03  0.97147274232E+03  0.25500000000E-02 0.  1.
          2   -1    0    0  501    0  0.00000000000E+00 -0.00000000000E+00 -0.25488906436E+04  0.25488906436E+04  0.25500000000E-02 0. -1.
    8880023    1    1    2    0    0  0.24900594295E+03 -0.12563947178E+04 -0.16959565720E+04  0.22249967521E+04  0.65864270000E+03 0. -1.
    8880022    1    1    2    0    0 -0.24900594295E+03  0.12563947178E+04  0.11853867070E+03  0.12953666338E+04  0.15294330000E+03 0.  0.
<mgrwt>
<rscale>  0 0.14011086E+04</rscale>
<asrwt>0</asrwt>
<pdfrwt beam="1">  1        2 0.39213702E+00 0.14402576E+04</pdfrwt>
<pdfrwt beam="2">  1       -2 0.14945735E+00 0.14402576E+04</pdfrwt>
<totfact> 0.93807835E-01</totfact>
</mgrwt>
</event>
<event>
 4    2  0.3855935E-007  0.7635328E+03  0.7818608E-02  0.9796046E-01
         -2   -1    0    0    0  501 -0.00000000000E+00  0.00000000000E+00  0.15622889610E+04  0.15622889610E+04  0.25500000000E-02 0.  1.
          2   -1    0    0  501    0  0.00000000000E+00 -0.00000000000E+00 -0.27230406444E+03  0.27230406445E+03  0.25500000000E-02 0. -1.
    8880023    1    1    2    0    0 -0.22947408888E+03  0.31066670886E+03  0.11789502396E+04  0.14046017354E+04  0.65864270000E+03 0.  1.
    8880022    1    1    2    0    0  0.22947408888E+03 -0.31066670886E+03  0.11103465699E+03  0.42999129006E+03  0.15294330000E+03 0.  0.
<mgrwt>
<rscale>  0 0.65575181E+03</rscale>
<asrwt>0</asrwt>
<pdfrwt beam="1">  1        2 0.41892933E-01 0.76353282E+03</pdfrwt>
<pdfrwt beam="2">  1       -2 0.24035215E+00 0.76353282E+03</pdfrwt>
<totfact> 0.92257470E+00</totfact>
</mgrwt>
</event>
<event>
 4    2  0.3855935E-007  0.8454426E+03  0.7818608E-02  0.9620002E-01
          2   -1    0    0  501    0  0.00000000000E+00  0.00000000000E+00  0.15145486313E+04  0.15145486313E+04  0.25500000000E-02 0. -1.
         -2   -1    0    0    0  501 -0.00000000000E+00 -0.00000000000E+00 -0.10559885077E+04  0.10559885077E+04  0.25500000000E-02 0.  1.
    8880023    1    1    2    0    0 -0.49010798754E+03  0.20188386094E+03 -0.82015413982E+03  0.11778904669E+04  0.65864270000E+03 0.  1.
    8880022    1    1    2    0    0  0.49010798754E+03 -0.20188386094E+03  0.12787142634E+04  0.13926466721E+04  0.15294330000E+03 0.  0.
<mgrwt>
<rscale>  0 0.75986347E+03</rscale>
<asrwt>0</asrwt>
<pdfrwt beam="1">  1        2 0.23300748E+00 0.84544257E+03</pdfrwt>
<pdfrwt beam="2">  1       -2 0.16245977E+00 0.84544257E+03</pdfrwt>
<totfact> 0.30485843E+00</totfact>
</mgrwt>
</event>
<event>
 4    2  0.3855935E-007  0.6610915E+03  0.7818608E-02  0.1023065E+00
          2   -1    0    0  501    0  0.00000000000E+00  0.00000000000E+00  0.21890720705E+04  0.21890720705E+04  0.25500000000E-02 0. -1.
         -2   -1    0    0    0  501 -0.00000000000E+00 -0.00000000000E+00 -0.32947445163E+03  0.32947445164E+03  0.25500000000E-02 0.  1.
    8880023    1    1    2    0    0 -0.32911150597E+02 -0.46352964534E+02  0.93900325939E+01  0.66115816574E+03  0.65864270000E+03 0.  1.
    8880022    1    1    2    0    0  0.32911150597E+02  0.46352964534E+02  0.18502075862E+04  0.18573883564E+04  0.15294330000E+03 0.  0.
<mgrwt>
<rscale>  0 0.46596586E+03</rscale>
<asrwt>0</asrwt>
<pdfrwt beam="1">  1        2 0.33678032E+00 0.66109148E+03</pdfrwt>
<pdfrwt beam="2">  1       -2 0.50688377E-01 0.66109148E+03</pdfrwt>
<totfact> 0.20286506E+01</totfact>
</mgrwt>
</event>
<event>
 4    2  0.3855935E-007  0.6826028E+03  0.7818608E-02  0.1007888E+00
          2   -1    0    0  501    0  0.00000000000E+00  0.00000000000E+00  0.37698079198E+03  0.37698079199E+03  0.25500000000E-02 0. -1.
         -2   -1    0    0    0  501 -0.00000000000E+00 -0.00000000000E+00 -0.61530806800E+03  0.61530806800E+03  0.25500000000E-02 0.  1.
    8880023    1    1    2    0    0  0.11732308808E+03 -0.13554199762E+03 -0.30463272122E+03  0.74749424160E+03  0.65864270000E+03 0.  0.
    8880022    1    1    2    0    0 -0.11732308808E+03  0.13554199762E+03  0.66305445205E+02  0.24479461839E+03  0.15294330000E+03 0.  0.
<mgrwt>
<rscale>  0 0.52322686E+03</rscale>
<asrwt>0</asrwt>
<pdfrwt beam="1">  1        2 0.57997045E-01 0.68260277E+03</pdfrwt>
<pdfrwt beam="2">  1       -2 0.94662780E-01 0.68260277E+03</pdfrwt>
<totfact> 0.81034273E+01</totfact>
</mgrwt>
</event>
<event>
 4    2  0.3855935E-007  0.7302389E+03  0.7818608E-02  0.9889351E-01
         -2   -1    0    0    0  501 -0.00000000000E+00  0.00000000000E+00  0.45388669596E+03  0.45388669597E+03  0.25500000000E-02 0.  1.
          2   -1    0    0  501    0  0.00000000000E+00 -0.00000000000E+00 -0.14977552547E+04  0.14977552547E+04  0.25500000000E-02 0. -1.
    8880023    1    1    2    0    0 -0.26210647776E+03  0.17532480172E+03  0.11652476407E+03  0.73947739566E+03  0.65864270000E+03 0.  1.
    8880022    1    1    2    0    0  0.26210647776E+03 -0.17532480172E+03 -0.11603933228E+04  0.12121645550E+04  0.15294330000E+03 0.  0.
<mgrwt>
<rscale>  0 0.60780165E+03</rscale>
<asrwt>0</asrwt>
<pdfrwt beam="1">  1        2 0.23042388E+00 0.73023886E+03</pdfrwt>
<pdfrwt beam="2">  1       -2 0.69828723E-01 0.73023886E+03</pdfrwt>
<totfact> 0.24412843E+01</totfact>
</mgrwt>
</event>
<event>
 4    2  0.3855935E-007  0.1931720E+04  0.7818608E-02  0.8652973E-01
          2   -1    0    0  501    0  0.00000000000E+00  0.00000000000E+00  0.27090487878E+04  0.27090487879E+04  0.25500000000E-02 0. -1.
         -2   -1    0    0    0  501 -0.00000000000E+00 -0.00000000000E+00 -0.15749961282E+04  0.15749961282E+04  0.25500000000E-02 0.  1.
    8880023    1    1    2    0    0  0.13909048060E+04  0.11675255755E+04  0.14744486990E+04  0.24301319555E+04  0.65864270000E+03 0.  1.
    8880022    1    1    2    0    0 -0.13909048060E+04 -0.11675255755E+04 -0.34039603936E+03  0.18539129606E+04  0.15294330000E+03 0.  0.
<mgrwt>
<rscale>  0 0.19037888E+04</rscale>
<asrwt>0</asrwt>
<pdfrwt beam="1">  1        2 0.41677673E+00 0.19317201E+04</pdfrwt>
<pdfrwt beam="2">  1       -2 0.24230710E+00 0.19317201E+04</pdfrwt>
<totfact> 0.16834037E-01</totfact>
</mgrwt>
</event>
<event>
 4    2  0.3855935E-007  0.6663736E+03  0.7818608E-02  0.1018408E+00
         -2   -1    0    0    0  501 -0.00000000000E+00  0.00000000000E+00  0.13771035528E+03  0.13771035530E+03  0.25500000000E-02 0.  1.
          2   -1    0    0  501    0  0.00000000000E+00 -0.00000000000E+00 -0.14862420870E+04  0.14862420870E+04  0.25500000000E-02 0. -1.
    8880023    1    1    2    0    0  0.95321715806E+02  0.34018755136E+02 -0.77646437751E+03  0.10232060599E+04  0.65864270000E+03 0.  1.
    8880022    1    1    2    0    0 -0.95321715806E+02 -0.34018755136E+02 -0.57206735423E+03  0.60074638243E+03  0.15294330000E+03 0.  0.
<mgrwt>
<rscale>  0 0.48265577E+03</rscale>
<asrwt>0</asrwt>
<pdfrwt beam="1">  1        2 0.22865262E+00 0.66637355E+03</pdfrwt>
<pdfrwt beam="2">  1       -2 0.21186210E-01 0.66637355E+03</pdfrwt>
<totfact> 0.25410712E+02</totfact>
</mgrwt>
</event>
<event>
 4    2  0.3855935E-007  0.7862944E+03  0.7818608E-02  0.9741254E-01
          2   -1    0    0  501    0  0.00000000000E+00  0.00000000000E+00  0.33482248822E+03  0.33482248823E+03  0.25500000000E-02 0. -1.
         -2   -1    0    0    0  501 -0.00000000000E+00 -0.00000000000E+00 -0.18797359669E+04  0.18797359669E+04  0.25500000000E-02 0.  1.
    8880023    1    1    2    0    0 -0.16210539000E+03  0.39770655192E+03 -0.15721869559E+04  0.17578483124E+04  0.65864270000E+03 0.  0.
    8880022    1    1    2    0    0  0.16210539000E+03 -0.39770655192E+03  0.27273477187E+02  0.45671014273E+03  0.15294330000E+03 0.  0.
<mgrwt>
<rscale>  0 0.68612794E+03</rscale>
<asrwt>0</asrwt>
<pdfrwt beam="1">  1        2 0.51511153E-01 0.78629439E+03</pdfrwt>
<pdfrwt beam="2">  1       -2 0.28919014E+00 0.78629439E+03</pdfrwt>
<totfact> 0.37101397E+00</totfact>
</mgrwt>
</event>
<event>
 4    2  0.3855935E-007  0.7966584E+03  0.7818608E-02  0.9718068E-01
          2   -1    0    0  501    0  0.00000000000E+00  0.00000000000E+00  0.20569689606E+04  0.20569689606E+04  0.25500000000E-02 0. -1.
         -2   -1    0    0    0  501 -0.00000000000E+00 -0.00000000000E+00 -0.28279448137E+03  0.28279448138E+03  0.25500000000E-02 0.  1.
    8880023    1    1    2    0    0  0.31112913644E+03  0.32257254704E+03  0.41048531298E+03  0.89619349812E+03  0.65864270000E+03 0.  0.
    8880022    1    1    2    0    0 -0.31112913644E+03 -0.32257254704E+03  0.13636891662E+04  0.14435699439E+04  0.15294330000E+03 0.  0.
<mgrwt>
<rscale>  0 0.69951124E+03</rscale>
<asrwt>0</asrwt>
<pdfrwt beam="1">  1        2 0.31645676E+00 0.79665839E+03</pdfrwt>
<pdfrwt beam="2">  1       -2 0.43506844E-01 0.79665839E+03</pdfrwt>
<totfact> 0.31960047E+01</totfact>
</mgrwt>
</event>
<event>
 4    2  0.3855935E-007  0.7181617E+03  0.7818608E-02  0.9928856E-01
         -2   -1    0    0    0  501 -0.00000000000E+00  0.00000000000E+00  0.27924231759E+03  0.27924231760E+03  0.25500000000E-02 0.  1.
          2   -1    0    0  501    0  0.00000000000E+00 -0.00000000000E+00 -0.15157826935E+04  0.15157826935E+04  0.25500000000E-02 0. -1.
    8880023    1    1    2    0    0  0.11787633833E+03  0.26086624394E+03 -0.25642218282E+03  0.76256709244E+03  0.65864270000E+03 0.  0.
    8880022    1    1    2    0    0 -0.11787633833E+03 -0.26086624394E+03 -0.98011819304E+03  0.10324579186E+04  0.15294330000E+03 0.  0.
<mgrwt>
<rscale>  0 0.58882962E+03</rscale>
<asrwt>0</asrwt>
<pdfrwt beam="1">  1        2 0.23319733E+00 0.71816171E+03</pdfrwt>
<pdfrwt beam="2">  1       -2 0.42960357E-01 0.71816171E+03</pdfrwt>
<totfact> 0.65421659E+01</totfact>
</mgrwt>
</event>
<event>
 4    2  0.3855935E-007  0.7384324E+03  0.7818608E-02  0.9864537E-01
         -2   -1    0    0    0  501 -0.00000000000E+00  0.00000000000E+00  0.69467164394E+03  0.69467164395E+03  0.25500000000E-02 0.  1.
          2   -1    0    0  501    0  0.00000000000E+00 -0.00000000000E+00 -0.12652563885E+04  0.12652563885E+04  0.25500000000E-02 0. -1.
    8880023    1    1    2    0    0  0.17509788282E+03  0.28427614446E+03  0.45719444103E+03  0.86850973400E+03  0.65864270000E+03 0.  1.
    8880022    1    1    2    0    0 -0.17509788282E+03 -0.28427614446E+03 -0.10277791856E+04  0.10914182985E+04  0.15294330000E+03 0.  0.
<mgrwt>
<rscale>  0 0.62011180E+03</rscale>
<asrwt>0</asrwt>
<pdfrwt beam="1">  1        2 0.19465483E+00 0.73843239E+03</pdfrwt>
<pdfrwt beam="2">  1       -2 0.10687256E+00 0.73843239E+03</pdfrwt>
<totfact> 0.12473449E+01</totfact>
</mgrwt>
</event>
<event>
 4    2  0.3855935E-007  0.9913513E+03  0.7818608E-02  0.9392961E-01
          2   -1    0    0  501    0  0.00000000000E+00  0.00000000000E+00  0.19072093793E+04  0.19072093793E+04  0.25500000000E-02 0. -1.
         -2   -1    0    0    0  501 -0.00000000000E+00 -0.00000000000E+00 -0.62411231528E+03  0.62411231528E+03  0.25500000000E-02 0.  1.
    8880023    1    1    2    0    0 -0.67223290288E+03  0.31156078848E+03 -0.56386967489E+02  0.99295362279E+03  0.65864270000E+03 0.  0.
    8880022    1    1    2    0    0  0.67223290288E+03 -0.31156078848E+03  0.13394840315E+04  0.15383680718E+04  0.15294330000E+03 0.  0.
<mgrwt>
<rscale>  0 0.92657214E+03</rscale>
<asrwt>0</asrwt>
<pdfrwt beam="1">  1        2 0.29341683E+00 0.99135130E+03</pdfrwt>
<pdfrwt beam="2">  1       -2 0.96017280E-01 0.99135130E+03</pdfrwt>
<totfact> 0.68439509E+00</totfact>
</mgrwt>
</event>
<event>
 4    2  0.3855935E-007  0.6937226E+03  0.7818608E-02  0.1002431E+00
          2   -1    0    0  501    0  0.00000000000E+00  0.00000000000E+00  0.15143847481E+04  0.15143847481E+04  0.25500000000E-02 0. -1.
         -2   -1    0    0    0  501 -0.00000000000E+00 -0.00000000000E+00 -0.16859014117E+03  0.16859014119E+03  0.25500000000E-02 0.  1.
    8880023    1    1    2    0    0 -0.17597241492E+03  0.12835304886E+03  0.70485567744E+03  0.98897549426E+03  0.65864270000E+03 0. -1.
    8880022    1    1    2    0    0  0.17597241492E+03 -0.12835304886E+03  0.64093892952E+03  0.69399939507E+03  0.15294330000E+03 0.  1.
<mgrwt>
<rscale>  0 0.54596952E+03</rscale>
<asrwt>0</asrwt>
<pdfrwt beam="1">  1        2 0.23298228E+00 0.69372257E+03</pdfrwt>
<pdfrwt beam="2">  1       -2 0.25936944E-01 0.69372257E+03</pdfrwt>
<totfact> 0.17043729E+02</totfact>
</mgrwt>
</event>
<event>
 4    2  0.3855935E-007  0.1066169E+04  0.7818608E-02  0.9299692E-01
         -2   -1    0    0    0  501 -0.00000000000E+00  0.00000000000E+00  0.67075442975E+03  0.67075442976E+03  0.25500000000E-02 0.  1.
          2   -1    0    0  501    0  0.00000000000E+00 -0.00000000000E+00 -0.20928979835E+04  0.20928979835E+04  0.25500000000E-02 0. -1.
    8880023    1    1    2    0    0 -0.33122526817E+03 -0.77019194667E+03  0.44811833965E+02  0.10671101722E+04  0.65864270000E+03 0.  0.
    8880022    1    1    2    0    0  0.33122526817E+03  0.77019194667E+03 -0.14669553877E+04  0.16965422410E+04  0.15294330000E+03 0.  0.
<mgrwt>
<rscale>  0 0.10081121E+04</rscale>
<asrwt>0</asrwt>
<pdfrwt beam="1">  1        2 0.32198430E+00 0.10661689E+04</pdfrwt>
<pdfrwt beam="2">  1       -2 0.10319299E+00 0.10661689E+04</pdfrwt>
<totfact> 0.45148792E+00</totfact>
</mgrwt>
</event>
<event>
 4    2  0.3855935E-007  0.9378179E+03  0.7818608E-02  0.9467862E-01
          2   -1    0    0  501    0  0.00000000000E+00  0.00000000000E+00  0.14672487754E+04  0.14672487754E+04  0.25500000000E-02 0. -1.
         -2   -1    0    0    0  501 -0.00000000000E+00 -0.00000000000E+00 -0.10288961044E+04  0.10288961044E+04  0.25500000000E-02 0.  1.
    8880023    1    1    2    0    0  0.66060134011E+03 -0.96426262864E+02 -0.69819890583E+03  0.11691809411E+04  0.65864270000E+03 0.  1.
    8880022    1    1    2    0    0 -0.66060134011E+03  0.96426262864E+02  0.11365515768E+04  0.13269639387E+04  0.15294330000E+03 0.  0.
<mgrwt>
<rscale>  0 0.86695226E+03</rscale>
<asrwt>0</asrwt>
<pdfrwt beam="1">  1        2 0.22573058E+00 0.93781787E+03</pdfrwt>
<pdfrwt beam="2">  1       -2 0.15829171E+00 0.93781787E+03</pdfrwt>
<totfact> 0.34355051E+00</totfact>
</mgrwt>
</event>
<event>
 4    2  0.3855935E-007  0.1162321E+04  0.7818608E-02  0.9194649E-01
          2   -1    0    0  501    0  0.00000000000E+00  0.00000000000E+00  0.33256381119E+04  0.33256381119E+04  0.25500000000E-02 0. -1.
         -2   -1    0    0    0  501 -0.00000000000E+00 -0.00000000000E+00 -0.55718133773E+03  0.55718133774E+03  0.25500000000E-02 0.  1.
    8880023    1    1    2    0    0  0.93882497422E+03  0.18917554596E+03  0.26650555621E+04  0.29074922312E+04  0.65864270000E+03 0.  0.
    8880022    1    1    2    0    0 -0.93882497422E+03 -0.18917554596E+03  0.10340121215E+03  0.97532721848E+03  0.15294330000E+03 0.  0.
<mgrwt>
<rscale>  0 0.11108835E+04</rscale>
<asrwt>0</asrwt>
<pdfrwt beam="1">  1        2 0.51163663E+00 0.11623209E+04</pdfrwt>
<pdfrwt beam="2">  1       -2 0.85720206E-01 0.11623209E+04</pdfrwt>
<totfact> 0.12706521E+00</totfact>
</mgrwt>
</event>
<event>
 4    2  0.3855935E-007  0.8742826E+03  0.7818608E-02  0.9568646E-01
         -2   -1    0    0    0  501 -0.00000000000E+00  0.00000000000E+00  0.59077267966E+03  0.59077267967E+03  0.25500000000E-02 0.  1.
          2   -1    0    0  501    0  0.00000000000E+00 -0.00000000000E+00 -0.16678848301E+04  0.16678848301E+04  0.25500000000E-02 0. -1.
    8880023    1    1    2    0    0 -0.12161408823E+03 -0.56193401059E+03  0.15733340479E+03  0.88832641818E+03  0.65864270000E+03 0.  0.
    8880022    1    1    2    0    0  0.12161408823E+03  0.56193401059E+03 -0.12344455552E+04  0.13703310915E+04  0.15294330000E+03 0.  0.
<mgrwt>
<rscale>  0 0.79406642E+03</rscale>
<asrwt>0</asrwt>
<pdfrwt beam="1">  1        2 0.25659766E+00 0.87428258E+03</pdfrwt>
<pdfrwt beam="2">  1       -2 0.90888105E-01 0.87428258E+03</pdfrwt>
<totfact> 0.10679078E+01</totfact>
</mgrwt>
</event>
<event>
 4    2  0.3855935E-007  0.7127687E+03  0.7818608E-02  0.9947860E-01
          2   -1    0    0  501    0  0.00000000000E+00  0.00000000000E+00  0.10699289976E+04  0.10699289976E+04  0.25500000000E-02 0. -1.
         -2   -1    0    0    0  501 -0.00000000000E+00 -0.00000000000E+00 -0.43770402204E+03  0.43770402205E+03  0.25500000000E-02 0.  1.
    8880023    1    1    2    0    0  0.22745308831E+03 -0.14998023166E+03 -0.92195028486E+02  0.71870655125E+03  0.65864270000E+03 0.  1.
    8880022    1    1    2    0    0 -0.22745308831E+03  0.14998023166E+03  0.72442000400E+03  0.78892646836E+03  0.15294330000E+03 0.  0.
<mgrwt>
<rscale>  0 0.57996816E+03</rscale>
<asrwt>0</asrwt>
<pdfrwt beam="1">  1        2 0.16460446E+00 0.71276867E+03</pdfrwt>
<pdfrwt beam="2">  1       -2 0.67339082E-01 0.71276867E+03</pdfrwt>
<totfact> 0.46916052E+01</totfact>
</mgrwt>
</event>
<event>
 4    2  0.3855935E-007  0.7269269E+03  0.7818608E-02  0.9899809E-01
          2   -1    0    0  501    0  0.00000000000E+00  0.00000000000E+00  0.20679735011E+04  0.20679735011E+04  0.25500000000E-02 0. -1.
         -2   -1    0    0    0  501 -0.00000000000E+00 -0.00000000000E+00 -0.16888339825E+03  0.16888339827E+03  0.25500000000E-02 0.  1.
    8880023    1    1    2    0    0  0.23174718109E+03  0.20225171443E+03  0.77994951163E+03  0.10661819539E+04  0.65864270000E+03 0.  0.
    8880022    1    1    2    0    0 -0.23174718109E+03 -0.20225171443E+03  0.11191405912E+04  0.11706749454E+04  0.15294330000E+03 0.  0.
<mgrwt>
<rscale>  0 0.60270559E+03</rscale>
<asrwt>0</asrwt>
<pdfrwt beam="1">  1        2 0.31814977E+00 0.72692690E+03</pdfrwt>
<pdfrwt beam="2">  1       -2 0.25982061E-01 0.72692690E+03</pdfrwt>
<totfact> 0.84373627E+01</totfact>
</mgrwt>
</event>
<event>
 4    2  0.3855935E-007  0.8216469E+03  0.7818608E-02  0.9665809E-01
          2   -1    0    0  501    0  0.00000000000E+00  0.00000000000E+00  0.25542789764E+04  0.25542789765E+04  0.25500000000E-02 0. -1.
         -2   -1    0    0    0  501 -0.00000000000E+00 -0.00000000000E+00 -0.24231310220E+03  0.24231310221E+03  0.25500000000E-02 0.  1.
    8880023    1    1    2    0    0  0.12674046312E+03  0.47458434783E+03  0.62335418752E+03  0.10313457701E+04  0.65864270000E+03 0. -1.
    8880022    1    1    2    0    0 -0.12674046312E+03 -0.47458434783E+03  0.16886116867E+04  0.17652463085E+04  0.15294330000E+03 0.  0.
<mgrwt>
<rscale>  0 0.73089520E+03</rscale>
<asrwt>0</asrwt>
<pdfrwt beam="1">  1        2 0.39296600E+00 0.82164692E+03</pdfrwt>
<pdfrwt beam="2">  1       -2 0.37278938E-01 0.82164692E+03</pdfrwt>
<totfact> 0.22741522E+01</totfact>
</mgrwt>
</event>
<event>
 4    2  0.3855935E-007  0.9753921E+03  0.7818608E-02  0.9414485E-01
         -2   -1    0    0    0  501 -0.00000000000E+00  0.00000000000E+00  0.50510127840E+03  0.50510127841E+03  0.25500000000E-02 0.  1.
          2   -1    0    0  501    0  0.00000000000E+00 -0.00000000000E+00 -0.19167532518E+04  0.19167532518E+04  0.25500000000E-02 0. -1.
    8880023    1    1    2    0    0  0.38664952644E+02  0.71839024816E+03 -0.18677194157E+03  0.99311303064E+03  0.65864270000E+03 0.  0.
    8880022    1    1    2    0    0 -0.38664952644E+02 -0.71839024816E+03 -0.12248800319E+04  0.14287414996E+04  0.15294330000E+03 0.  0.
<mgrwt>
<rscale>  0 0.90893157E+03</rscale>
<asrwt>0</asrwt>
<pdfrwt beam="1">  1        2 0.29488511E+00 0.97539209E+03</pdfrwt>
<pdfrwt beam="2">  1       -2 0.77707890E-01 0.97539209E+03</pdfrwt>
<totfact> 0.11010468E+01</totfact>
</mgrwt>
</event>
<event>
 4    2  0.3855935E-007  0.6926740E+03  0.7818608E-02  0.1002907E+00
          2   -1    0    0  501    0  0.00000000000E+00  0.00000000000E+00  0.18421681097E+04  0.18421681097E+04  0.25500000000E-02 0. -1.
         -2   -1    0    0    0  501 -0.00000000000E+00 -0.00000000000E+00 -0.21272869623E+03  0.21272869625E+03  0.25500000000E-02 0.  1.
    8880023    1    1    2    0    0  0.20371662950E+03 -0.66982066978E+02  0.16511981836E+04  0.17906012147E+04  0.65864270000E+03 0. -1.
    8880022    1    1    2    0    0 -0.20371662950E+03  0.66982066978E+02 -0.21758770151E+02  0.26429559119E+03  0.15294330000E+03 0.  0.
<mgrwt>
<rscale>  0 0.54393868E+03</rscale>
<asrwt>0</asrwt>
<pdfrwt beam="1">  1        2 0.28341047E+00 0.69267400E+03</pdfrwt>
<pdfrwt beam="2">  1       -2 0.32727492E-01 0.69267400E+03</pdfrwt>
<totfact> 0.73418866E+01</totfact>
</mgrwt>
</event>
<event>
 4    2  0.3855935E-007  0.6913959E+03  0.7818608E-02  0.1003496E+00
          2   -1    0    0  501    0  0.00000000000E+00  0.00000000000E+00  0.84555732283E+03  0.84555732283E+03  0.25500000000E-02 0. -1.
         -2   -1    0    0    0  501 -0.00000000000E+00 -0.00000000000E+00 -0.27087578354E+03  0.27087578355E+03  0.25500000000E-02 0.  1.
    8880023    1    1    2    0    0 -0.12850176997E+03 -0.16644914599E+03  0.47060121930E+03  0.83635742178E+03  0.65864270000E+03 0.  1.
    8880022    1    1    2    0    0  0.12850176997E+03  0.16644914599E+03  0.10408031999E+03  0.28007568461E+03  0.15294330000E+03 0. -1.
<mgrwt>
<rscale>  0 0.54143482E+03</rscale>
<asrwt>0</asrwt>
<pdfrwt beam="1">  1        2 0.13008574E+00 0.69139586E+03</pdfrwt>
<pdfrwt beam="2">  1       -2 0.41673198E-01 0.69139586E+03</pdfrwt>
<totfact> 0.17680596E+02</totfact>
</mgrwt>
</event>
<event>
 4    2  0.3855935E-007  0.7536005E+03  0.7818608E-02  0.9821966E-01
          2   -1    0    0  501    0  0.00000000000E+00  0.00000000000E+00  0.14057058073E+04  0.14057058073E+04  0.25500000000E-02 0. -1.
         -2   -1    0    0    0  501 -0.00000000000E+00 -0.00000000000E+00 -0.39237882499E+03  0.39237882500E+03  0.25500000000E-02 0.  1.
    8880023    1    1    2    0    0 -0.32077448450E+03 -0.17665566345E+03  0.48886416213E+02  0.75518446838E+03  0.65864270000E+03 0.  0.
    8880022    1    1    2    0    0  0.32077448450E+03  0.17665566345E+03  0.96444056607E+03  0.10429001639E+04  0.15294330000E+03 0.  0.
<mgrwt>
<rscale>  0 0.64196932E+03</rscale>
<asrwt>0</asrwt>
<pdfrwt beam="1">  1        2 0.21626244E+00 0.75360049E+03</pdfrwt>
<pdfrwt beam="2">  1       -2 0.60365971E-01 0.75360049E+03</pdfrwt>
<totfact> 0.37486531E+01</totfact>
</mgrwt>
</event>
<event>
 4    2  0.3855935E-007  0.7112400E+03  0.7818608E-02  0.9953425E-01
         -2   -1    0    0    0  501 -0.00000000000E+00  0.00000000000E+00  0.83218180443E+03  0.83218180444E+03  0.25500000000E-02 0.  1.
          2   -1    0    0  501    0  0.00000000000E+00 -0.00000000000E+00 -0.60895916258E+03  0.60895916259E+03  0.25500000000E-02 0. -1.
    8880023    1    1    2    0    0 -0.26030347868E+03  0.65530278086E+02  0.61635370621E+03  0.94114516191E+03  0.65864270000E+03 0.  1.
    8880022    1    1    2    0    0  0.26030347868E+03 -0.65530278086E+02 -0.39313106436E+03  0.49999580512E+03  0.15294330000E+03 0. -1.
<mgrwt>
<rscale>  0 0.57740505E+03</rscale>
<asrwt>0</asrwt>
<pdfrwt beam="1">  1        2 0.93686024E-01 0.71123999E+03</pdfrwt>
<pdfrwt beam="2">  1       -2 0.12802797E+00 0.71123999E+03</pdfrwt>
<totfact> 0.22360194E+01</totfact>
</mgrwt>
</event>
<event>
 4    2  0.3855935E-007  0.8104687E+03  0.7818608E-02  0.9688602E-01
         -2   -1    0    0    0  501 -0.00000000000E+00  0.00000000000E+00  0.80470257983E+03  0.80470257984E+03  0.25500000000E-02 0.  1.
          2   -1    0    0  501    0  0.00000000000E+00 -0.00000000000E+00 -0.11372651180E+04  0.11372651180E+04  0.25500000000E-02 0. -1.
    8880023    1    1    2    0    0  0.45672715438E+03 -0.12020624794E+03  0.51462222207E+03  0.96004972439E+03  0.65864270000E+03 0.  0.
    8880022    1    1    2    0    0 -0.45672715438E+03  0.12020624794E+03 -0.84718476024E+03  0.98191797346E+03  0.15294330000E+03 0.  0.
<mgrwt>
<rscale>  0 0.71699522E+03</rscale>
<asrwt>0</asrwt>
<pdfrwt beam="1">  1        2 0.17496386E+00 0.81046866E+03</pdfrwt>
<pdfrwt beam="2">  1       -2 0.12380040E+00 0.81046866E+03</pdfrwt>
<totfact> 0.10271627E+01</totfact>
</mgrwt>
</event>
<event>
 4    2  0.3855935E-007  0.8367000E+03  0.7818608E-02  0.9636434E-01
          2   -1    0    0  501    0  0.00000000000E+00  0.00000000000E+00  0.21471695746E+04  0.21471695746E+04  0.25500000000E-02 0. -1.
         -2   -1    0    0    0  501 -0.00000000000E+00 -0.00000000000E+00 -0.60377247312E+03  0.60377247313E+03  0.25500000000E-02 0.  1.
    8880023    1    1    2    0    0 -0.27428766503E+03 -0.43706176869E+03 -0.25423670579E+03  0.87447311089E+03  0.65864270000E+03 0.  1.
    8880022    1    1    2    0    0  0.27428766503E+03  0.43706176869E+03  0.17976338072E+04  0.18764689368E+04  0.15294330000E+03 0.  0.
<mgrwt>
<rscale>  0 0.74930947E+03</rscale>
<asrwt>0</asrwt>
<pdfrwt beam="1">  1        2 0.33033378E+00 0.83670002E+03</pdfrwt>
<pdfrwt beam="2">  1       -2 0.92888074E-01 0.83670002E+03</pdfrwt>
<totfact> 0.55696512E+00</totfact>
</mgrwt>
</event>
<event>
 4    2  0.3855935E-007  0.8241754E+03  0.7818608E-02  0.9660773E-01
         -2   -1    0    0    0  501 -0.00000000000E+00  0.00000000000E+00  0.30110539834E+03  0.30110539835E+03  0.25500000000E-02 0.  1.
          2   -1    0    0  501    0  0.00000000000E+00 -0.00000000000E+00 -0.16642778067E+04  0.16642778067E+04  0.25500000000E-02 0. -1.
    8880023    1    1    2    0    0 -0.23355644744E+03 -0.43692821705E+03 -0.51676710681E+03  0.97278637425E+03  0.65864270000E+03 0.  0.
    8880022    1    1    2    0    0  0.23355644744E+03  0.43692821705E+03 -0.84640530152E+03  0.99259683077E+03  0.15294330000E+03 0.  0.
<mgrwt>
<rscale>  0 0.73401138E+03</rscale>
<asrwt>0</asrwt>
<pdfrwt beam="1">  1        2 0.25604273E+00 0.82417540E+03</pdfrwt>
<pdfrwt beam="2">  1       -2 0.46323908E-01 0.82417540E+03</pdfrwt>
<totfact> 0.46110244E+01</totfact>
</mgrwt>
</event>
<event>
 4    2  0.3855935E-007  0.7017763E+03  0.7818608E-02  0.9989911E-01
         -2   -1    0    0    0  501 -0.00000000000E+00  0.00000000000E+00  0.98452576005E+03  0.98452576006E+03  0.25500000000E-02 0.  1.
          2   -1    0    0  501    0  0.00000000000E+00 -0.00000000000E+00 -0.14145903207E+04  0.14145903207E+04  0.25500000000E-02 0. -1.
    8880023    1    1    2    0    0  0.20141521518E+03 -0.13457946122E+03  0.84147399638E+03  0.10957045282E+04  0.65864270000E+03 0.  1.
    8880022    1    1    2    0    0 -0.20141521518E+03  0.13457946122E+03 -0.12715385571E+04  0.13034115526E+04  0.15294330000E+03 0.  0.
<mgrwt>
<rscale>  0 0.56094847E+03</rscale>
<asrwt>0</asrwt>
<pdfrwt beam="1">  1        2 0.21762928E+00 0.70177627E+03</pdfrwt>
<pdfrwt beam="2">  1       -2 0.15146550E+00 0.70177627E+03</pdfrwt>
<totfact> 0.42809042E+00</totfact>
</mgrwt>
</event>
<event>
 4    2  0.3855935E-007  0.7918715E+03  0.7818608E-02  0.9728655E-01
          2   -1    0    0  501    0  0.00000000000E+00  0.00000000000E+00  0.66692535134E+03  0.66692535134E+03  0.25500000000E-02 0. -1.
         -2   -1    0    0    0  501 -0.00000000000E+00 -0.00000000000E+00 -0.10623014188E+04  0.10623014188E+04  0.25500000000E-02 0.  1.
    8880023    1    1    2    0    0 -0.14862484109E+03 -0.41371595164E+03 -0.79033455765E+03  0.11187891452E+04  0.65864270000E+03 0.  1.
    8880022    1    1    2    0    0  0.14862484109E+03  0.41371595164E+03  0.39495849018E+03  0.61043762500E+03  0.15294330000E+03 0. -1.
<mgrwt>
<rscale>  0 0.69336007E+03</rscale>
<asrwt>0</asrwt>
<pdfrwt beam="1">  1        2 0.10260390E+00 0.79187148E+03</pdfrwt>
<pdfrwt beam="2">  1       -2 0.16343099E+00 0.79187148E+03</pdfrwt>
<totfact> 0.10470874E+01</totfact>
</mgrwt>
</event>
<event>
 4    2  0.3855935E-007  0.7311543E+03  0.7818608E-02  0.9886506E-01
          2   -1    0    0  501    0  0.00000000000E+00  0.00000000000E+00  0.24333672537E+04  0.24333672537E+04  0.25500000000E-02 0. -1.
         -2   -1    0    0    0  501 -0.00000000000E+00 -0.00000000000E+00 -0.44652346403E+03  0.44652346404E+03  0.25500000000E-02 0.  1.
    8880023    1    1    2    0    0  0.97327822001E+02  0.30216509661E+03 -0.12247503206E+03  0.74134121043E+03  0.65864270000E+03 0.  1.
    8880022    1    1    2    0    0 -0.97327822001E+02 -0.30216509661E+03  0.21093188217E+04  0.21385495073E+04  0.15294330000E+03 0.  0.
<mgrwt>
<rscale>  0 0.60919741E+03</rscale>
<asrwt>0</asrwt>
<pdfrwt beam="1">  1        2 0.37436419E+00 0.73115433E+03</pdfrwt>
<pdfrwt beam="2">  1       -2 0.68695918E-01 0.73115433E+03</pdfrwt>
<totfact> 0.77400752E+00</totfact>
</mgrwt>
</event>
<event>
 4    2  0.3855935E-007  0.8857694E+03  0.7818608E-02  0.9549274E-01
          2   -1    0    0  501    0  0.00000000000E+00  0.00000000000E+00  0.32654518772E+04  0.32654518772E+04  0.25500000000E-02 0. -1.
         -2   -1    0    0    0  501 -0.00000000000E+00 -0.00000000000E+00 -0.23985762470E+03  0.23985762472E+03  0.25500000000E-02 0.  1.
    8880023    1    1    2    0    0  0.49481695396E+03  0.32547413818E+03  0.78779733532E+03  0.11854164164E+04  0.65864270000E+03 0.  1.
    8880022    1    1    2    0    0 -0.49481695396E+03 -0.32547413818E+03  0.22377969171E+04  0.23198930854E+04  0.15294330000E+03 0.  0.
<mgrwt>
<rscale>  0 0.80746548E+03</rscale>
<asrwt>0</asrwt>
<pdfrwt beam="1">  1        2 0.50237718E+00 0.88576940E+03</pdfrwt>
<pdfrwt beam="2">  1       -2 0.36901176E-01 0.88576940E+03</pdfrwt>
<totfact> 0.85118024E+00</totfact>
</mgrwt>
</event>
<event>
 4    2  0.3855935E-007  0.8800602E+03  0.7818608E-02  0.9558831E-01
         -2   -1    0    0    0  501 -0.00000000000E+00  0.00000000000E+00  0.15476771533E+04  0.15476771533E+04  0.25500000000E-02 0.  1.
          2   -1    0    0  501    0  0.00000000000E+00 -0.00000000000E+00 -0.42260765803E+03  0.42260765804E+03  0.25500000000E-02 0. -1.
    8880023    1    1    2    0    0 -0.52517020829E+03 -0.25473911131E+03  0.26392624878E+03  0.91878345303E+03  0.65864270000E+03 0. -1.
    8880022    1    1    2    0    0  0.52517020829E+03  0.25473911131E+03  0.86114324644E+03  0.10515013583E+04  0.15294330000E+03 0.  0.
<mgrwt>
<rscale>  0 0.80082016E+03</rscale>
<asrwt>0</asrwt>
<pdfrwt beam="1">  1        2 0.65016563E-01 0.88006021E+03</pdfrwt>
<pdfrwt beam="2">  1       -2 0.23810418E+00 0.88006021E+03</pdfrwt>
<totfact> 0.57498522E+00</totfact>
</mgrwt>
</event>
<event>
 4    2  0.3855935E-007  0.6969847E+03  0.7818608E-02  0.1000995E+00
          2   -1    0    0  501    0  0.00000000000E+00  0.00000000000E+00  0.14076786019E+04  0.14076786019E+04  0.25500000000E-02 0. -1.
         -2   -1    0    0    0  501 -0.00000000000E+00 -0.00000000000E+00 -0.20835594839E+03  0.20835594840E+03  0.25500000000E-02 0.  1.
    8880023    1    1    2    0    0 -0.10539821330E+03  0.20216019118E+03  0.48047850711E+03  0.84655025150E+03  0.65864270000E+03 0.  1.
    8880022    1    1    2    0    0  0.10539821330E+03 -0.20216019118E+03  0.71884414643E+03  0.76948429883E+03  0.15294330000E+03 0.  0.
<mgrwt>
<rscale>  0 0.55216221E+03</rscale>
<asrwt>0</asrwt>
<pdfrwt beam="1">  1        2 0.21656593E+00 0.69698474E+03</pdfrwt>
<pdfrwt beam="2">  1       -2 0.32054762E-01 0.69698474E+03</pdfrwt>
<totfact> 0.13230869E+02</totfact>
</mgrwt>
</event>
<event>
 4    2  0.3855935E-007  0.1130259E+04  0.7818608E-02  0.9228091E-01
         -2   -1    0    0    0  501 -0.00000000000E+00  0.00000000000E+00  0.94843153537E+03  0.94843153537E+03  0.25500000000E-02 0.  1.
          2   -1    0    0  501    0  0.00000000000E+00 -0.00000000000E+00 -0.15191304734E+04  0.15191304734E+04  0.25500000000E-02 0. -1.
    8880023    1    1    2    0    0  0.70875571427E+03 -0.58424363517E+03  0.32445737775E+03  0.11759073450E+04  0.65864270000E+03 0.  1.
    8880022    1    1    2    0    0 -0.70875571427E+03  0.58424363517E+03 -0.89515631574E+03  0.12916546637E+04  0.15294330000E+03 0.  0.
<mgrwt>
<rscale>  0 0.10768125E+04</rscale>
<asrwt>0</asrwt>
<pdfrwt beam="1">  1        2 0.23371238E+00 0.11302590E+04</pdfrwt>
<pdfrwt beam="2">  1       -2 0.14591254E+00 0.11302590E+04</pdfrwt>
<totfact> 0.39073362E+00</totfact>
</mgrwt>
</event>
<event>
 4    2  0.3855935E-007  0.7014913E+03  0.7818608E-02  0.9991070E-01
          2   -1    0    0  501    0  0.00000000000E+00  0.00000000000E+00  0.58944480184E+03  0.58944480185E+03  0.25500000000E-02 0. -1.
         -2   -1    0    0    0  501 -0.00000000000E+00 -0.00000000000E+00 -0.53085959745E+03  0.53085959746E+03  0.25500000000E-02 0.  1.
    8880023    1    1    2    0    0 -0.18324659550E+03  0.15716378689E+03 -0.20572372658E+03  0.73103503925E+03  0.65864270000E+03 0.  1.
    8880022    1    1    2    0    0  0.18324659550E+03 -0.15716378689E+03  0.26430893097E+03  0.38926936006E+03  0.15294330000E+03 0. -1.
<mgrwt>
<rscale>  0 0.56043527E+03</rscale>
<asrwt>0</asrwt>
<pdfrwt beam="1">  1        2 0.90683816E-01 0.70149125E+03</pdfrwt>
<pdfrwt beam="2">  1       -2 0.81670707E-01 0.70149125E+03</pdfrwt>
<totfact> 0.67869364E+01</totfact>
</mgrwt>
</event>
<event>
 4    2  0.3855935E-007  0.9352961E+03  0.7818608E-02  0.9471593E-01
         -2   -1    0    0    0  501 -0.00000000000E+00  0.00000000000E+00  0.34320106078E+03  0.34320106079E+03  0.25500000000E-02 0.  1.
          2   -1    0    0  501    0  0.00000000000E+00 -0.00000000000E+00 -0.23985909116E+04  0.23985909116E+04  0.25500000000E-02 0. -1.
    8880023    1    1    2    0    0 -0.32954890247E+03 -0.57651204722E+03 -0.53940262236E+03  0.10796916296E+04  0.65864270000E+03 0.  1.
    8880022    1    1    2    0    0  0.32954890247E+03  0.57651204722E+03 -0.15159872284E+04  0.16621003428E+04  0.15294330000E+03 0.  0.
<mgrwt>
<rscale>  0 0.86410940E+03</rscale>
<asrwt>0</asrwt>
<pdfrwt beam="1">  1        2 0.36901398E+00 0.93529612E+03</pdfrwt>
<pdfrwt beam="2">  1       -2 0.52800165E-01 0.93529612E+03</pdfrwt>
<totfact> 0.13720169E+01</totfact>
</mgrwt>
</event>
<event>
 4    2  0.3855935E-007  0.8126701E+03  0.7818608E-02  0.9684042E-01
          2   -1    0    0  501    0  0.00000000000E+00  0.00000000000E+00  0.38330595641E+04  0.38330595641E+04  0.25500000000E-02 0. -1.
         -2   -1    0    0    0  501 -0.00000000000E+00 -0.00000000000E+00 -0.21489572604E+03  0.21489572605E+03  0.25500000000E-02 0.  1.
    8880023    1    1    2    0    0  0.47426074328E+03 -0.41221936076E+02  0.65743249359E+03  0.10452990914E+04  0.65864270000E+03 0.  1.
    8880022    1    1    2    0    0 -0.47426074328E+03  0.41221936076E+02  0.29607313445E+04  0.30026561988E+04  0.15294330000E+03 0.  0.
<mgrwt>
<rscale>  0 0.71974936E+03</rscale>
<asrwt>0</asrwt>
<pdfrwt beam="1">  1        2 0.58970148E+00 0.81267011E+03</pdfrwt>
<pdfrwt beam="2">  1       -2 0.33060880E-01 0.81267011E+03</pdfrwt>
<totfact> 0.42873857E+00</totfact>
</mgrwt>
</event>
<event>
 4    2  0.3855935E-007  0.6839373E+03  0.7818608E-02  0.1007179E+00
         -2   -1    0    0    0  501 -0.00000000000E+00  0.00000000000E+00  0.64706647143E+03  0.64706647143E+03  0.25500000000E-02 0.  1.
          2   -1    0    0  501    0  0.00000000000E+00 -0.00000000000E+00 -0.14995780908E+04  0.14995780908E+04  0.25500000000E-02 0. -1.
    8880023    1    1    2    0    0 -0.27212236287E+02  0.18226239974E+03  0.45234633345E+03  0.81999237790E+03  0.65864270000E+03 0.  1.
    8880022    1    1    2    0    0  0.27212236287E+02 -0.18226239974E+03 -0.13048579528E+04  0.13266521844E+04  0.15294330000E+03 0.  0.
<mgrwt>
<rscale>  0 0.52611486E+03</rscale>
<asrwt>0</asrwt>
<pdfrwt beam="1">  1        2 0.23070432E+00 0.68393735E+03</pdfrwt>
<pdfrwt beam="2">  1       -2 0.99548688E-01 0.68393735E+03</pdfrwt>
<totfact> 0.10966162E+01</totfact>
</mgrwt>
</event>
<event>
 4    2  0.3855935E-007  0.8264661E+03  0.7818608E-02  0.9656248E-01
         -2   -1    0    0    0  501 -0.00000000000E+00  0.00000000000E+00  0.47488811492E+03  0.47488811493E+03  0.25500000000E-02 0.  1.
          2   -1    0    0  501    0  0.00000000000E+00 -0.00000000000E+00 -0.27932666524E+04  0.27932666524E+04  0.25500000000E-02 0. -1.
    8880023    1    1    2    0    0  0.44665017776E+03 -0.22302381337E+03  0.64274480947E+02  0.82896165037E+03  0.65864270000E+03 0.  1.
    8880022    1    1    2    0    0 -0.44665017776E+03  0.22302381337E+03 -0.23826530184E+04  0.24391931169E+04  0.15294330000E+03 0.  0.
<mgrwt>
<rscale>  0 0.73682613E+03</rscale>
<asrwt>0</asrwt>
<pdfrwt beam="1">  1        2 0.42973332E+00 0.82646610E+03</pdfrwt>
<pdfrwt beam="2">  1       -2 0.73059712E-01 0.82646610E+03</pdfrwt>
<totfact> 0.41268625E+00</totfact>
</mgrwt>
</event>
<event>
 4    2  0.3855935E-007  0.7926342E+03  0.7818608E-02  0.9726955E-01
          2   -1    0    0  501    0  0.00000000000E+00  0.00000000000E+00  0.20205037758E+04  0.20205037758E+04  0.25500000000E-02 0. -1.
         -2   -1    0    0    0  501 -0.00000000000E+00 -0.00000000000E+00 -0.68006314773E+03  0.68006314773E+03  0.25500000000E-02 0.  1.
    8880023    1    1    2    0    0 -0.26777893825E+03 -0.35036158169E+03 -0.40759387127E+03  0.89129218994E+03  0.65864270000E+03 0.  1.
    8880022    1    1    2    0    0  0.26777893825E+03  0.35036158169E+03  0.17480344994E+04  0.18092747336E+04  0.15294330000E+03 0.  0.
<mgrwt>
<rscale>  0 0.69434357E+03</rscale>
<asrwt>0</asrwt>
<pdfrwt beam="1">  1        2 0.31084674E+00 0.79263422E+03</pdfrwt>
<pdfrwt beam="2">  1       -2 0.10462510E+00 0.79263422E+03</pdfrwt>
<totfact> 0.49675965E+00</totfact>
</mgrwt>
</event>
<event>
 4    2  0.3855935E-007  0.8383769E+03  0.7818608E-02  0.9633248E-01
         -2   -1    0    0    0  501 -0.00000000000E+00  0.00000000000E+00  0.47433860470E+03  0.47433860471E+03  0.25500000000E-02 0.  1.
          2   -1    0    0  501    0  0.00000000000E+00 -0.00000000000E+00 -0.21072955936E+04  0.21072955936E+04  0.25500000000E-02 0. -1.
    8880023    1    1    2    0    0  0.43539839115E+03  0.28194651186E+03  0.23937021009E+02  0.83871853551E+03  0.65864270000E+03 0.  1.
    8880022    1    1    2    0    0 -0.43539839115E+03 -0.28194651186E+03 -0.16568940099E+04  0.17429156628E+04  0.15294330000E+03 0.  0.
<mgrwt>
<rscale>  0 0.75134131E+03</rscale>
<asrwt>0</asrwt>
<pdfrwt beam="1">  1        2 0.32419932E+00 0.83837688E+03</pdfrwt>
<pdfrwt beam="2">  1       -2 0.72975171E-01 0.83837688E+03</pdfrwt>
<totfact> 0.10119436E+01</totfact>
</mgrwt>
</event>
<event>
 4    2  0.3855935E-007  0.1164835E+04  0.7818608E-02  0.9192087E-01
         -2   -1    0    0    0  501 -0.00000000000E+00  0.00000000000E+00  0.11267217277E+04  0.11267217277E+04  0.25500000000E-02 0.  1.
          2   -1    0    0  501    0  0.00000000000E+00 -0.00000000000E+00 -0.17954881473E+04  0.17954881473E+04  0.25500000000E-02 0. -1.
    8880023    1    1    2    0    0  0.86637776137E+03 -0.41523355456E+03  0.61044645169E+03  0.13150986301E+04  0.65864270000E+03 0.  0.
    8880022    1    1    2    0    0 -0.86637776137E+03  0.41523355456E+03 -0.12792128713E+04  0.16071112448E+04  0.15294330000E+03 0.  0.
<mgrwt>
<rscale>  0 0.11135475E+04</rscale>
<asrwt>0</asrwt>
<pdfrwt beam="1">  1        2 0.27622895E+00 0.11648346E+04</pdfrwt>
<pdfrwt beam="2">  1       -2 0.17334180E+00 0.11648346E+04</pdfrwt>
<totfact> 0.17077226E+00</totfact>
</mgrwt>
</event>
<event>
 4    2  0.3855935E-007  0.6793557E+03  0.7818608E-02  0.1009690E+00
         -2   -1    0    0    0  501 -0.00000000000E+00  0.00000000000E+00  0.23564804631E+03  0.23564804632E+03  0.25500000000E-02 0.  1.
          2   -1    0    0  501    0  0.00000000000E+00 -0.00000000000E+00 -0.21608531360E+04  0.21608531360E+04  0.25500000000E-02 0. -1.
    8880023    1    1    2    0    0  0.79013410882E+02 -0.14652953026E+03 -0.27829414649E+03  0.73414702926E+03  0.65864270000E+03 0.  1.
    8880022    1    1    2    0    0 -0.79013410882E+02  0.14652953026E+03 -0.16469109433E+04  0.16623541531E+04  0.15294330000E+03 0.  0.
<mgrwt>
<rscale>  0 0.51597847E+03</rscale>
<asrwt>0</asrwt>
<pdfrwt beam="1">  1        2 0.33243893E+00 0.67935575E+03</pdfrwt>
<pdfrwt beam="2">  1       -2 0.36253547E-01 0.67935575E+03</pdfrwt>
<totfact> 0.40613376E+01</totfact>
</mgrwt>
</event>
<event>
 4    2  0.3855935E-007  0.7362734E+03  0.7818608E-02  0.9870938E-01
          2   -1    0    0  501    0  0.00000000000E+00  0.00000000000E+00  0.22887634278E+04  0.22887634278E+04  0.25500000000E-02 0. -1.
         -2   -1    0    0    0  501 -0.00000000000E+00 -0.00000000000E+00 -0.28085446398E+03  0.28085446399E+03  0.25500000000E-02 0.  1.
    8880023    1    1    2    0    0 -0.18061103940E+03 -0.27507801128E+03  0.25444616242E+03  0.77900020262E+03  0.65864270000E+03 0.  1.
    8880022    1    1    2    0    0  0.18061103940E+03  0.27507801128E+03  0.17534628014E+04  0.17906176892E+04  0.15294330000E+03 0.  0.
<mgrwt>
<rscale>  0 0.61690638E+03</rscale>
<asrwt>0</asrwt>
<pdfrwt beam="1">  1        2 0.35211745E+00 0.73627336E+03</pdfrwt>
<pdfrwt beam="2">  1       -2 0.43208380E-01 0.73627336E+03</pdfrwt>
<totfact> 0.24341035E+01</totfact>
</mgrwt>
</event>
<event>
 4    2  0.3855935E-007  0.6745566E+03  0.7818608E-02  0.1012587E+00
         -2   -1    0    0    0  501 -0.00000000000E+00  0.00000000000E+00  0.69016249853E+03  0.69016249853E+03  0.25500000000E-02 0.  1.
          2   -1    0    0  501    0  0.00000000000E+00 -0.00000000000E+00 -0.26431667057E+04  0.26431667057E+04  0.25500000000E-02 0. -1.
    8880023    1    1    2    0    0  0.76696944743E+02 -0.12383057367E+03  0.51975265540E+03  0.85156882363E+03  0.65864270000E+03 0.  1.
    8880022    1    1    2    0    0 -0.76696944743E+02  0.12383057367E+03 -0.24727568626E+04  0.24817603806E+04  0.15294330000E+03 0.  0.
<mgrwt>
<rscale>  0 0.50459217E+03</rscale>
<asrwt>0</asrwt>
<pdfrwt beam="1">  1        2 0.40664103E+00 0.67455662E+03</pdfrwt>
<pdfrwt beam="2">  1       -2 0.10617885E+00 0.67455662E+03</pdfrwt>
<totfact> 0.22020916E+00</totfact>
</mgrwt>
</event>
<event>
 4    2  0.3855935E-007  0.6834808E+03  0.7818608E-02  0.1007419E+00
         -2   -1    0    0    0  501 -0.00000000000E+00  0.00000000000E+00  0.95897005602E+02  0.95897005636E+02  0.25500000000E-02 0.  1.
          2   -1    0    0  501    0  0.00000000000E+00 -0.00000000000E+00 -0.24032790862E+04  0.24032790862E+04  0.25500000000E-02 0. -1.
    8880023    1    1    2    0    0  0.28989407668E+02  0.18026466764E+03 -0.13570284129E+04  0.15194314910E+04  0.65864270000E+03 0.  1.
    8880022    1    1    2    0    0 -0.28989407668E+02 -0.18026466764E+03 -0.95035366771E+03  0.97974460086E+03  0.15294330000E+03 0.  0.
<mgrwt>
<rscale>  0 0.52513240E+03</rscale>
<asrwt>0</asrwt>
<pdfrwt beam="1">  1        2 0.36973520E+00 0.68348075E+03</pdfrwt>
<pdfrwt beam="2">  1       -2 0.14753387E-01 0.68348075E+03</pdfrwt>
<totfact> 0.14870104E+02</totfact>
</mgrwt>
</event>
<event>
 4    2  0.3855935E-007  0.9116956E+03  0.7818608E-02  0.9507511E-01
          2   -1    0    0  501    0  0.00000000000E+00  0.00000000000E+00  0.94906608341E+03  0.94906608341E+03  0.25500000000E-02 0. -1.
         -2   -1    0    0    0  501 -0.00000000000E+00 -0.00000000000E+00 -0.75744157240E+03  0.75744157240E+03  0.25500000000E-02 0.  1.
    8880023    1    1    2    0    0 -0.20745083957E+03 -0.59526696563E+03 -0.22051329390E+03  0.93798450427E+03  0.65864270000E+03 0. -1.
    8880022    1    1    2    0    0  0.20745083957E+03  0.59526696563E+03  0.41213780491E+03  0.76852315154E+03  0.15294330000E+03 0.  0.
<mgrwt>
<rscale>  0 0.83732299E+03</rscale>
<asrwt>0</asrwt>
<pdfrwt beam="1">  1        2 0.14601017E+00 0.91169557E+03</pdfrwt>
<pdfrwt beam="2">  1       -2 0.11652947E+00 0.91169557E+03</pdfrwt>
<totfact> 0.15526850E+01</totfact>
</mgrwt>
</event>
<event>
 4    2  0.3855935E-007  0.6661170E+03  0.7818608E-02  0.1018614E+00
          2   -1    0    0  501    0  0.00000000000E+00  0.00000000000E+00  0.12141576539E+04  0.12141576539E+04  0.25500000000E-02 0. -1.
         -2   -1    0    0    0  501 -0.00000000000E+00 -0.00000000000E+00 -0.20291285377E+03  0.20291285379E+03  0.25500000000E-02 0.  1.
    8880023    1    1    2    0    0  0.71865532287E+02  0.68826022278E+02  0.39510412807E+03  0.77447992508E+03  0.65864270000E+03 0.  1.
    8880022    1    1    2    0    0 -0.71865532287E+02 -0.68826022278E+02  0.61614067207E+03  0.64259058262E+03  0.15294330000E+03 0.  0.
<mgrwt>
<rscale>  0 0.48190069E+03</rscale>
<asrwt>0</asrwt>
<pdfrwt beam="1">  1        2 0.18679349E+00 0.66611702E+03</pdfrwt>
<pdfrwt beam="2">  1       -2 0.31217362E-01 0.66611702E+03</pdfrwt>
<totfact> 0.17999556E+02</totfact>
</mgrwt>
</event>
<event>
 4    2  0.3855935E-007  0.1453221E+04  0.7818608E-02  0.8943395E-01
          2   -1    0    0  501    0  0.00000000000E+00  0.00000000000E+00  0.11348468971E+04  0.11348468971E+04  0.25500000000E-02 0. -1.
         -2   -1    0    0    0  501 -0.00000000000E+00 -0.00000000000E+00 -0.22526282212E+04  0.22526282212E+04  0.25500000000E-02 0.  1.
    8880023    1    1    2    0    0  0.88059500722E+03 -0.95004900222E+03 -0.14379198724E+04  0.20443738501E+04  0.65864270000E+03 0.  0.
    8880022    1    1    2    0    0 -0.88059500722E+03  0.95004900222E+03  0.32013854836E+03  0.13431012682E+04  0.15294330000E+03 0.  0.
<mgrwt>
<rscale>  0 0.14144922E+04</rscale>
<asrwt>0</asrwt>
<pdfrwt beam="1">  1        2 0.17459183E+00 0.14532209E+04</pdfrwt>
<pdfrwt beam="2">  1       -2 0.34655819E+00 0.14532209E+04</pdfrwt>
<totfact> 0.32276068E-01</totfact>
</mgrwt>
</event>
<event>
 4    2  0.3855935E-007  0.8231135E+03  0.7818608E-02  0.9662883E-01
          2   -1    0    0  501    0  0.00000000000E+00  0.00000000000E+00  0.37203308995E+04  0.37203308995E+04  0.25500000000E-02 0. -1.
         -2   -1    0    0    0  501 -0.00000000000E+00 -0.00000000000E+00 -0.13152552274E+03  0.13152552276E+03  0.25500000000E-02 0.  1.
    8880023    1    1    2    0    0 -0.27891454998E+03  0.40732330566E+03  0.16302546945E+04  0.18262656370E+04  0.65864270000E+03 0.  1.
    8880022    1    1    2    0    0  0.27891454998E+03 -0.40732330566E+03  0.19585506822E+04  0.20255907853E+04  0.15294330000E+03 0.  1.
<mgrwt>
<rscale>  0 0.73270384E+03</rscale>
<asrwt>0</asrwt>
<pdfrwt beam="1">  1        2 0.57235851E+00 0.82311348E+03</pdfrwt>
<pdfrwt beam="2">  1       -2 0.20234699E-01 0.82311348E+03</pdfrwt>
<totfact> 0.12650904E+01</totfact>
</mgrwt>
</event>
<event>
 4    2  0.3855935E-007  0.7796284E+03  0.7818608E-02  0.9756711E-01
          2   -1    0    0  501    0  0.00000000000E+00  0.00000000000E+00  0.13131471542E+04  0.13131471542E+04  0.25500000000E-02 0. -1.
         -2   -1    0    0    0  501 -0.00000000000E+00 -0.00000000000E+00 -0.88020800632E+03  0.88020800632E+03  0.25500000000E-02 0.  1.
    8880023    1    1    2    0    0 -0.29802755797E+03  0.29187294010E+03 -0.65495779585E+03  0.10182289325E+04  0.65864270000E+03 0.  1.
    8880022    1    1    2    0    0  0.29802755797E+03 -0.29187294010E+03  0.10878969437E+04  0.11751262280E+04  0.15294330000E+03 0.  0.
<mgrwt>
<rscale>  0 0.67738356E+03</rscale>
<asrwt>0</asrwt>
<pdfrwt beam="1">  1        2 0.20202264E+00 0.77962840E+03</pdfrwt>
<pdfrwt beam="2">  1       -2 0.13541662E+00 0.77962840E+03</pdfrwt>
<totfact> 0.64728557E+00</totfact>
</mgrwt>
</event>
<event>
 4    2  0.3855935E-007  0.7860814E+03  0.7818608E-02  0.9741741E-01
          2   -1    0    0  501    0  0.00000000000E+00  0.00000000000E+00  0.33820906248E+04  0.33820906248E+04  0.25500000000E-02 0. -1.
         -2   -1    0    0    0  501 -0.00000000000E+00 -0.00000000000E+00 -0.31409611211E+03  0.31409611212E+03  0.25500000000E-02 0.  1.
    8880023    1    1    2    0    0  0.30464687704E+03  0.30216548940E+03  0.22601041312E+03  0.81792702350E+03  0.65864270000E+03 0.  1.
    8880022    1    1    2    0    0 -0.30464687704E+03 -0.30216548940E+03  0.28419840996E+04  0.28782597135E+04  0.15294330000E+03 0.  0.
<mgrwt>
<rscale>  0 0.68585023E+03</rscale>
<asrwt>0</asrwt>
<pdfrwt beam="1">  1        2 0.52032165E+00 0.78608136E+03</pdfrwt>
<pdfrwt beam="2">  1       -2 0.48322477E-01 0.78608136E+03</pdfrwt>
<totfact> 0.42659950E+00</totfact>
</mgrwt>
</event>
<event>
 4    2  0.3855935E-007  0.1291339E+04  0.7818608E-02  0.9073075E-01
          2   -1    0    0  501    0  0.00000000000E+00  0.00000000000E+00  0.26310654656E+04  0.26310654656E+04  0.25500000000E-02 0. -1.
         -2   -1    0    0    0  501 -0.00000000000E+00 -0.00000000000E+00 -0.61006366683E+03  0.61006366684E+03  0.25500000000E-02 0.  1.
    8880023    1    1    2    0    0  0.38663908127E+03  0.10412765673E+04  0.15693887103E+04  0.20323724558E+04  0.65864270000E+03 0.  0.
    8880022    1    1    2    0    0 -0.38663908127E+03 -0.10412765673E+04  0.45161308850E+03  0.12087566767E+04  0.15294330000E+03 0.  0.
<mgrwt>
<rscale>  0 0.12465311E+04</rscale>
<asrwt>0</asrwt>
<pdfrwt beam="1">  1        2 0.40477930E+00 0.12913392E+04</pdfrwt>
<pdfrwt beam="2">  1       -2 0.93855949E-01 0.12913392E+04</pdfrwt>
<totfact> 0.27294006E+00</totfact>
</mgrwt>
</event>
<event>
 4    2  0.3855935E-007  0.6765961E+03  0.7818608E-02  0.1011319E+00
         -2   -1    0    0    0  501 -0.00000000000E+00  0.00000000000E+00  0.29994886750E+03  0.29994886751E+03  0.25500000000E-02 0.  1.
          2   -1    0    0  501    0  0.00000000000E+00 -0.00000000000E+00 -0.24273373942E+04  0.24273373942E+04  0.25500000000E-02 0. -1.
    8880023    1    1    2    0    0  0.10629683254E+03 -0.11257455877E+03 -0.94946477020E+02  0.68322550278E+03  0.65864270000E+03 0.  1.
    8880022    1    1    2    0    0 -0.10629683254E+03  0.11257455877E+03 -0.20324420496E+04  0.20440607589E+04  0.15294330000E+03 0.  0.
<mgrwt>
<rscale>  0 0.50953945E+03</rscale>
<asrwt>0</asrwt>
<pdfrwt beam="1">  1        2 0.37343651E+00 0.67659608E+03</pdfrwt>
<pdfrwt beam="2">  1       -2 0.46145981E-01 0.67659608E+03</pdfrwt>
<totfact> 0.18045282E+01</totfact>
</mgrwt>
</event>
<event>
 4    2  0.3855935E-007  0.1308304E+04  0.7818608E-02  0.9058422E-01
          2   -1    0    0  501    0  0.00000000000E+00  0.00000000000E+00  0.20947600221E+04  0.20947600221E+04  0.25500000000E-02 0. -1.
         -2   -1    0    0    0  501 -0.00000000000E+00 -0.00000000000E+00 -0.12354693844E+04  0.12354693844E+04  0.25500000000E-02 0.  1.
    8880023    1    1    2    0    0  0.10925480446E+04  0.29015112993E+03 -0.63177565095E+03  0.14528591079E+04  0.65864270000E+03 0.  0.
    8880022    1    1    2    0    0 -0.10925480446E+04 -0.29015112993E+03  0.14910662887E+04  0.18773702987E+04  0.15294330000E+03 0.  0.
<mgrwt>
<rscale>  0 0.12642303E+04</rscale>
<asrwt>0</asrwt>
<pdfrwt beam="1">  1        2 0.32227077E+00 0.13083039E+04</pdfrwt>
<pdfrwt beam="2">  1       -2 0.19007222E+00 0.13083039E+04</pdfrwt>
<totfact> 0.87877617E-01</totfact>
</mgrwt>
</event>
<event>
 4    2  0.3855935E-007  0.7656155E+03  0.7818608E-02  0.9790781E-01
          2   -1    0    0  501    0  0.00000000000E+00  0.00000000000E+00  0.11199717798E+04  0.11199717798E+04  0.25500000000E-02 0. -1.
         -2   -1    0    0    0  501 -0.00000000000E+00 -0.00000000000E+00 -0.84734286091E+03  0.84734286092E+03  0.25500000000E-02 0.  1.
    8880023    1    1    2    0    0  0.36848923950E+03  0.12873471531E+03 -0.61737130685E+03  0.98352147070E+03  0.65864270000E+03 0.  1.
    8880022    1    1    2    0    0 -0.36848923950E+03 -0.12873471531E+03  0.89000022572E+03  0.98379317000E+03  0.15294330000E+03 0.  0.
<mgrwt>
<rscale>  0 0.65859668E+03</rscale>
<asrwt>0</asrwt>
<pdfrwt beam="1">  1        2 0.17230335E+00 0.76561554E+03</pdfrwt>
<pdfrwt beam="2">  1       -2 0.13036044E+00 0.76561554E+03</pdfrwt>
<totfact> 0.92886756E+00</totfact>
</mgrwt>
</event>
<event>
 4    2  0.3855935E-007  0.1173724E+04  0.7818608E-02  0.9183097E-01
          2   -1    0    0  501    0  0.00000000000E+00  0.00000000000E+00  0.19710276239E+04  0.19710276239E+04  0.25500000000E-02 0. -1.
         -2   -1    0    0    0  501 -0.00000000000E+00 -0.00000000000E+00 -0.84037574031E+03  0.84037574031E+03  0.25500000000E-02 0.  1.
    8880023    1    1    2    0    0  0.97059197629E+03 -0.42073132244E+02 -0.16447423654E+03  0.11851923530E+04  0.65864270000E+03 0.  0.
    8880022    1    1    2    0    0 -0.97059197629E+03  0.42073132244E+02  0.12951261202E+04  0.16262110112E+04  0.15294330000E+03 0.  0.
<mgrwt>
<rscale>  0 0.11229612E+04</rscale>
<asrwt>0</asrwt>
<pdfrwt beam="1">  1        2 0.30323502E+00 0.11737245E+04</pdfrwt>
<pdfrwt beam="2">  1       -2 0.12928858E+00 0.11737245E+04</pdfrwt>
<totfact> 0.29859624E+00</totfact>
</mgrwt>
</event>
<event>
 4    2  0.3855935E-007  0.7017664E+03  0.7818608E-02  0.9989951E-01
         -2   -1    0    0    0  501 -0.00000000000E+00  0.00000000000E+00  0.16103970044E+03  0.16103970046E+03  0.25500000000E-02 0.  1.
          2   -1    0    0  501    0  0.00000000000E+00 -0.00000000000E+00 -0.19798997582E+04  0.19798997582E+04  0.25500000000E-02 0. -1.
    8880023    1    1    2    0    0 -0.89937301356E+02  0.22489350429E+03 -0.72026954184E+03  0.10056163412E+04  0.65864270000E+03 0.  0.
    8880022    1    1    2    0    0  0.89937301356E+02 -0.22489350429E+03 -0.10985905159E+04  0.11353231175E+04  0.15294330000E+03 0.  0.
<mgrwt>
<rscale>  0 0.56093064E+03</rscale>
<asrwt>0</asrwt>
<pdfrwt beam="1">  1        2 0.30459994E+00 0.70176635E+03</pdfrwt>
<pdfrwt beam="2">  1       -2 0.24775340E-01 0.70176635E+03</pdfrwt>
<totfact> 0.10298992E+02</totfact>
</mgrwt>
</event>
<event>
 4    2  0.3855935E-007  0.1790821E+04  0.7818608E-02  0.8727631E-01
         -2   -1    0    0    0  501 -0.00000000000E+00  0.00000000000E+00  0.14688961414E+04  0.14688961414E+04  0.25500000000E-02 0.  1.
          2   -1    0    0  501    0  0.00000000000E+00 -0.00000000000E+00 -0.28157974678E+04  0.28157974678E+04  0.25500000000E-02 0. -1.
    8880023    1    1    2    0    0 -0.15979538458E+04  0.46879856105E+03  0.43300207342E+03  0.18424249201E+04  0.65864270000E+03 0.  0.
    8880022    1    1    2    0    0  0.15979538458E+04 -0.46879856105E+03 -0.17799033998E+04  0.24422686892E+04  0.15294330000E+03 0.  0.
<mgrwt>
<rscale>  0 0.17604280E+04</rscale>
<asrwt>0</asrwt>
<pdfrwt beam="1">  1        2 0.43319961E+00 0.17908207E+04</pdfrwt>
<pdfrwt beam="2">  1       -2 0.22598402E+00 0.17908207E+04</pdfrwt>
<totfact> 0.18636342E-01</totfact>
</mgrwt>
</event>
<event>
 4    2  0.3855935E-007  0.1051417E+04  0.7818608E-02  0.9317180E-01
         -2   -1    0    0    0  501 -0.00000000000E+00  0.00000000000E+00  0.43802054998E+03  0.43802054999E+03  0.25500000000E-02 0.  1.
          2   -1    0    0  501    0  0.00000000000E+00 -0.00000000000E+00 -0.30528341894E+04  0.30528341894E+04  0.25500000000E-02 0. -1.
    8880023    1    1    2    0    0  0.75199402410E+03  0.32584021044E+03 -0.40104880643E+03  0.11253076052E+04  0.65864270000E+03 0.  1.
    8880022    1    1    2    0    0 -0.75199402410E+03 -0.32584021044E+03 -0.22137648330E+04  0.23655471341E+04  0.15294330000E+03 0.  0.
<mgrwt>
<rscale>  0 0.99216481E+03</rscale>
<asrwt>0</asrwt>
<pdfrwt beam="1">  1        2 0.46966678E+00 0.10514167E+04</pdfrwt>
<pdfrwt beam="2">  1       -2 0.67387779E-01 0.10514167E+04</pdfrwt>
<totfact> 0.33083300E+00</totfact>
</mgrwt>
</event>
<event>
 4    2  0.3855935E-007  0.1137948E+04  0.7818608E-02  0.9219938E-01
         -2   -1    0    0    0  501 -0.00000000000E+00  0.00000000000E+00  0.14716959065E+04  0.14716959065E+04  0.25500000000E-02 0.  1.
          2   -1    0    0  501    0  0.00000000000E+00 -0.00000000000E+00 -0.98720751294E+03  0.98720751294E+03  0.25500000000E-02 0. -1.
    8880023    1    1    2    0    0 -0.39271669696E+03 -0.84076627569E+03  0.88012635955E+03  0.14385920024E+04  0.65864270000E+03 0.  1.
    8880022    1    1    2    0    0  0.39271669696E+03  0.84076627569E+03 -0.39563796603E+03  0.10203114170E+04  0.15294330000E+03 0.  0.
<mgrwt>
<rscale>  0 0.10849988E+04</rscale>
<asrwt>0</asrwt>
<pdfrwt beam="1">  1        2 0.15187808E+00 0.11379475E+04</pdfrwt>
<pdfrwt beam="2">  1       -2 0.22641475E+00 0.11379475E+04</pdfrwt>
<totfact> 0.22636564E+00</totfact>
</mgrwt>
</event>
<event>
 4    2  0.3855935E-007  0.6621263E+03  0.7818608E-02  0.1022077E+00
          2   -1    0    0  501    0  0.00000000000E+00  0.00000000000E+00  0.46705753041E+03  0.46705753042E+03  0.25500000000E-02 0. -1.
         -2   -1    0    0    0  501 -0.00000000000E+00 -0.00000000000E+00 -0.43972202127E+03  0.43972202127E+03  0.25500000000E-02 0.  1.
    8880023    1    1    2    0    0 -0.19304728585E+02  0.65025692971E+02 -0.13265629215E+03  0.67528431894E+03  0.65864270000E+03 0.  1.
    8880022    1    1    2    0    0  0.19304728585E+02 -0.65025692971E+02  0.15999180129E+03  0.23149523275E+03  0.15294330000E+03 0.  0.
<mgrwt>
<rscale>  0 0.46944655E+03</rscale>
<asrwt>0</asrwt>
<pdfrwt beam="1">  1        2 0.71855004E-01 0.66212629E+03</pdfrwt>
<pdfrwt beam="2">  1       -2 0.67649542E-01 0.66212629E+03</pdfrwt>
<totfact> 0.13541226E+02</totfact>
</mgrwt>
</event>
<event>
 4    2  0.3855935E-007  0.1287542E+04  0.7818608E-02  0.9076393E-01
          2   -1    0    0  501    0  0.00000000000E+00  0.00000000000E+00  0.25606576208E+04  0.25606576208E+04  0.25500000000E-02 0. -1.
         -2   -1    0    0    0  501 -0.00000000000E+00 -0.00000000000E+00 -0.12722987354E+04  0.12722987354E+04  0.25500000000E-02 0.  1.
    8880023    1    1    2    0    0 -0.89271537689E+03  0.65346292719E+03 -0.76345496959E+03  0.14968728197E+04  0.65864270000E+03 0.  0.
    8880022    1    1    2    0    0  0.89271537689E+03 -0.65346292719E+03  0.20518138550E+04  0.23360835366E+04  0.15294330000E+03 0.  0.
<mgrwt>
<rscale>  0 0.12425660E+04</rscale>
<asrwt>0</asrwt>
<pdfrwt beam="1">  1        2 0.39394732E+00 0.12875421E+04</pdfrwt>
<pdfrwt beam="2">  1       -2 0.19573827E+00 0.12875421E+04</pdfrwt>
<totfact> 0.43938394E-01</totfact>
</mgrwt>
</event>
<event>
 4    2  0.3855935E-007  0.9863907E+03  0.7818608E-02  0.9399583E-01
          2   -1    0    0  501    0  0.00000000000E+00  0.00000000000E+00  0.53698075353E+03  0.53698075353E+03  0.25500000000E-02 0. -1.
         -2   -1    0    0    0  501 -0.00000000000E+00 -0.00000000000E+00 -0.16601217010E+04  0.16601217010E+04  0.25500000000E-02 0.  1.
    8880023    1    1    2    0    0  0.53099460332E+03 -0.50714993045E+03 -0.10545079596E+04  0.14439368282E+04  0.65864270000E+03 0.  0.
    8880022    1    1    2    0    0 -0.53099460332E+03  0.50714993045E+03 -0.68632987918E+02  0.75316562638E+03  0.15294330000E+03 0.  0.
<mgrwt>
<rscale>  0 0.92109974E+03</rscale>
<asrwt>0</asrwt>
<pdfrwt beam="1">  1        2 0.82612424E-01 0.98639066E+03</pdfrwt>
<pdfrwt beam="2">  1       -2 0.25540334E+00 0.98639066E+03</pdfrwt>
<totfact> 0.33774868E+00</totfact>
</mgrwt>
</event>
<event>
 4    2  0.3855935E-007  0.1051934E+04  0.7818608E-02  0.9316560E-01
         -2   -1    0    0    0  501 -0.00000000000E+00  0.00000000000E+00  0.96037085044E+03  0.96037085045E+03  0.25500000000E-02 0.  1.
          2   -1    0    0  501    0  0.00000000000E+00 -0.00000000000E+00 -0.10576905862E+04  0.10576905862E+04  0.25500000000E-02 0. -1.
    8880023    1    1    2    0    0 -0.57874283364E+03 -0.58121653778E+03  0.30008216390E+03  0.10938991922E+04  0.65864270000E+03 0.  0.
    8880022    1    1    2    0    0  0.57874283364E+03  0.58121653778E+03 -0.39740189968E+03  0.92416224451E+03  0.15294330000E+03 0.  0.
<mgrwt>
<rscale>  0 0.99272551E+03</rscale>
<asrwt>0</asrwt>
<pdfrwt beam="1">  1        2 0.16272163E+00 0.10519345E+04</pdfrwt>
<pdfrwt beam="2">  1       -2 0.14774936E+00 0.10519345E+04</pdfrwt>
<totfact> 0.71217283E+00</totfact>
</mgrwt>
</event>
<event>
 4    2  0.3855935E-007  0.7212689E+03  0.7818608E-02  0.9918316E-01
          2   -1    0    0  501    0  0.00000000000E+00  0.00000000000E+00  0.93735867258E+03  0.93735867259E+03  0.25500000000E-02 0. -1.
         -2   -1    0    0    0  501 -0.00000000000E+00 -0.00000000000E+00 -0.32210358150E+03  0.32210358151E+03  0.25500000000E-02 0.  1.
    8880023    1    1    2    0    0 -0.12353522701E+03 -0.26675382548E+03  0.58128725070E+03  0.92634962612E+03  0.65864270000E+03 0.  0.
    8880022    1    1    2    0    0  0.12353522701E+03  0.26675382548E+03  0.33967840391E+02  0.33311262798E+03  0.15294330000E+03 0. -1.
<mgrwt>
<rscale>  0 0.59381782E+03</rscale>
<asrwt>0</asrwt>
<pdfrwt beam="1">  1        2 0.14420902E+00 0.72126886E+03</pdfrwt>
<pdfrwt beam="2">  1       -2 0.49554398E-01 0.72126886E+03</pdfrwt>
<totfact> 0.10825985E+02</totfact>
</mgrwt>
</event>
<event>
 4    2  0.3855935E-007  0.7670198E+03  0.7818608E-02  0.9787262E-01
         -2   -1    0    0    0  501 -0.00000000000E+00  0.00000000000E+00  0.33585930124E+03  0.33585930125E+03  0.25500000000E-02 0.  1.
          2   -1    0    0  501    0  0.00000000000E+00 -0.00000000000E+00 -0.22950531509E+04  0.22950531509E+04  0.25500000000E-02 0. -1.
    8880023    1    1    2    0    0 -0.11140983392E+03 -0.37695758604E+03 -0.16076640412E+03  0.78368693732E+03  0.65864270000E+03 0.  0.
    8880022    1    1    2    0    0  0.11140983392E+03  0.37695758604E+03 -0.17984274455E+04  0.18472255148E+04  0.15294330000E+03 0.  0.
<mgrwt>
<rscale>  0 0.66050663E+03</rscale>
<asrwt>0</asrwt>
<pdfrwt beam="1">  1        2 0.35308509E+00 0.76701980E+03</pdfrwt>
<pdfrwt beam="2">  1       -2 0.51670663E-01 0.76701980E+03</pdfrwt>
<totfact> 0.16769683E+01</totfact>
</mgrwt>
</event>
<event>
 4    2  0.3855935E-007  0.6784394E+03  0.7818608E-02  0.1010221E+00
         -2   -1    0    0    0  501 -0.00000000000E+00  0.00000000000E+00  0.36940733579E+03  0.36940733580E+03  0.25500000000E-02 0.  1.
          2   -1    0    0  501    0  0.00000000000E+00 -0.00000000000E+00 -0.12243848457E+04  0.12243848457E+04  0.25500000000E-02 0. -1.
    8880023    1    1    2    0    0 -0.41042826478E+02 -0.15743328074E+03  0.31946259591E+02  0.67919107860E+03  0.65864270000E+03 0.  1.
    8880022    1    1    2    0    0  0.41042826478E+02  0.15743328074E+03 -0.88692376951E+03  0.91460110290E+03  0.15294330000E+03 0.  0.
<mgrwt>
<rscale>  0 0.51387068E+03</rscale>
<asrwt>0</asrwt>
<pdfrwt beam="1">  1        2 0.18836690E+00 0.67843935E+03</pdfrwt>
<pdfrwt beam="2">  1       -2 0.56831898E-01 0.67843935E+03</pdfrwt>
<totfact> 0.54508700E+01</totfact>
</mgrwt>
</event>
<event>
 4    2  0.3855935E-007  0.1115843E+04  0.7818608E-02  0.9243619E-01
         -2   -1    0    0    0  501 -0.00000000000E+00  0.00000000000E+00  0.24005800500E+03  0.24005800502E+03  0.25500000000E-02 0.  1.
          2   -1    0    0  501    0  0.00000000000E+00 -0.00000000000E+00 -0.52822662284E+04  0.52822662284E+04  0.25500000000E-02 0. -1.
    8880023    1    1    2    0    0  0.41052037997E+03 -0.80172812046E+03 -0.39174381621E+04  0.40732575319E+04  0.65864270000E+03 0.  0.
    8880022    1    1    2    0    0 -0.41052037997E+03  0.80172812046E+03 -0.11247700613E+04  0.14490667015E+04  0.15294330000E+03 0.  0.
<mgrwt>
<rscale>  0 0.10614333E+04</rscale>
<asrwt>0</asrwt>
<pdfrwt beam="1">  1        2 0.81265626E+00 0.11158428E+04</pdfrwt>
<pdfrwt beam="2">  1       -2 0.36932005E-01 0.11158428E+04</pdfrwt>
<totfact> 0.10529597E-01</totfact>
</mgrwt>
</event>
<event>
 4    2  0.3855935E-007  0.8089135E+03  0.7818608E-02  0.9691845E-01
          2   -1    0    0  501    0  0.00000000000E+00  0.00000000000E+00  0.21165868095E+04  0.21165868095E+04  0.25500000000E-02 0. -1.
         -2   -1    0    0    0  501 -0.00000000000E+00 -0.00000000000E+00 -0.30166034950E+03  0.30166034951E+03  0.25500000000E-02 0.  1.
    8880023    1    1    2    0    0 -0.45705033594E+03  0.10786938356E+03  0.36675153386E+03  0.88817098992E+03  0.65864270000E+03 0.  1.
    8880022    1    1    2    0    0  0.45705033594E+03 -0.10786938356E+03  0.14481749262E+04  0.15300761691E+04  0.15294330000E+03 0.  0.
<mgrwt>
<rscale>  0 0.71504443E+03</rscale>
<asrwt>0</asrwt>
<pdfrwt beam="1">  1        2 0.32562875E+00 0.80891348E+03</pdfrwt>
<pdfrwt beam="2">  1       -2 0.46409283E-01 0.80891348E+03</pdfrwt>
<totfact> 0.26016913E+01</totfact>
</mgrwt>
</event>
<event>
 4    2  0.3855935E-007  0.6729948E+03  0.7818608E-02  0.1013601E+00
         -2   -1    0    0    0  501 -0.00000000000E+00  0.00000000000E+00  0.12311364754E+04  0.12311364754E+04  0.25500000000E-02 0.  1.
          2   -1    0    0  501    0  0.00000000000E+00 -0.00000000000E+00 -0.18343368994E+03  0.18343368996E+03  0.25500000000E-02 0. -1.
    8880023    1    1    2    0    0  0.89141275206E+02  0.10566751937E+03  0.99594274873E+03  0.12020083014E+04  0.65864270000E+03 0.  1.
    8880022    1    1    2    0    0 -0.89141275206E+02 -0.10566751937E+03  0.51760036719E+02  0.21256186396E+03  0.15294330000E+03 0.  0.
<mgrwt>
<rscale>  0 0.50068179E+03</rscale>
<asrwt>0</asrwt>
<pdfrwt beam="1">  1        2 0.28220568E-01 0.67299480E+03</pdfrwt>
<pdfrwt beam="2">  1       -2 0.18940561E+00 0.67299480E+03</pdfrwt>
<totfact> 0.30454573E+01</totfact>
</mgrwt>
</event>
<event>
 4    2  0.3855935E-007  0.1101813E+04  0.7818608E-02  0.9259040E-01
          2   -1    0    0  501    0  0.00000000000E+00  0.00000000000E+00  0.15018610901E+04  0.15018610901E+04  0.25500000000E-02 0. -1.
         -2   -1    0    0    0  501 -0.00000000000E+00 -0.00000000000E+00 -0.82107788475E+03  0.82107788475E+03  0.25500000000E-02 0.  1.
    8880023    1    1    2    0    0 -0.79544349655E+03 -0.38399523152E+03 -0.13604500908E+03  0.11101806811E+04  0.65864270000E+03 0.  0.
    8880022    1    1    2    0    0  0.79544349655E+03  0.38399523152E+03  0.81682821439E+03  0.12127582937E+04  0.15294330000E+03 0.  0.
<mgrwt>
<rscale>  0 0.10464279E+04</rscale>
<asrwt>0</asrwt>
<pdfrwt beam="1">  1        2 0.23105555E+00 0.11018135E+04</pdfrwt>
<pdfrwt beam="2">  1       -2 0.12631968E+00 0.11018135E+04</pdfrwt>
<totfact> 0.58146426E+00</totfact>
</mgrwt>
</event>
<event>
 4    2  0.3855935E-007  0.8359339E+03  0.7818608E-02  0.9637895E-01
         -2   -1    0    0    0  501 -0.00000000000E+00  0.00000000000E+00  0.10099449928E+04  0.10099449928E+04  0.25500000000E-02 0.  1.
          2   -1    0    0  501    0  0.00000000000E+00 -0.00000000000E+00 -0.87476838063E+03  0.87476838064E+03  0.25500000000E-02 0. -1.
    8880023    1    1    2    0    0  0.17146160807E+03 -0.48536195364E+03 -0.56008211199E+03  0.10062194033E+04  0.65864270000E+03 0. -1.
    8880022    1    1    2    0    0 -0.17146160807E+03  0.48536195364E+03  0.69525872411E+03  0.87849397013E+03  0.15294330000E+03 0.  0.
<mgrwt>
<rscale>  0 0.74837996E+03</rscale>
<asrwt>0</asrwt>
<pdfrwt beam="1">  1        2 0.13457975E+00 0.83593392E+03</pdfrwt>
<pdfrwt beam="2">  1       -2 0.15537615E+00 0.83593392E+03</pdfrwt>
<totfact> 0.83832665E+00</totfact>
</mgrwt>
</event>
<event>
 4    2  0.3855935E-007  0.7416518E+03  0.7818608E-02  0.9855161E-01
          2   -1    0    0  501    0  0.00000000000E+00  0.00000000000E+00  0.11400728625E+04  0.11400728625E+04  0.25500000000E-02 0. -1.
         -2   -1    0    0    0  501 -0.00000000000E+00 -0.00000000000E+00 -0.63706971488E+03  0.63706971488E+03  0.25500000000E-02 0.  1.
    8880023    1    1    2    0    0 -0.15034917647E+03  0.30599406717E+03 -0.36905319430E+03  0.82840069441E+03  0.65864270000E+03 0.  0.
    8880022    1    1    2    0    0  0.15034917647E+03 -0.30599406717E+03  0.87205634195E+03  0.94874188300E+03  0.15294330000E+03 0.  0.
<mgrwt>
<rscale>  0 0.62484453E+03</rscale>
<asrwt>0</asrwt>
<pdfrwt beam="1">  1        2 0.17539582E+00 0.74165184E+03</pdfrwt>
<pdfrwt beam="2">  1       -2 0.98010727E-01 0.74165184E+03</pdfrwt>
<totfact> 0.18176062E+01</totfact>
</mgrwt>
</event>
<event>
 4    2  0.3855935E-007  0.7674623E+03  0.7818608E-02  0.9786158E-01
          2   -1    0    0  501    0  0.00000000000E+00  0.00000000000E+00  0.79934454334E+03  0.79934454334E+03  0.25500000000E-02 0. -1.
         -2   -1    0    0    0  501 -0.00000000000E+00 -0.00000000000E+00 -0.85393782495E+03  0.85393782495E+03  0.25500000000E-02 0.  1.
    8880023    1    1    2    0    0  0.29892519413E+03 -0.25657714086E+03 -0.59226311715E+03  0.96941936596E+03  0.65864270000E+03 0.  0.
    8880022    1    1    2    0    0 -0.29892519413E+03  0.25657714086E+03  0.53766983554E+03  0.68386300233E+03  0.15294330000E+03 0.  0.
<mgrwt>
<rscale>  0 0.66110706E+03</rscale>
<asrwt>0</asrwt>
<pdfrwt beam="1">  1        2 0.12297608E+00 0.76746225E+03</pdfrwt>
<pdfrwt beam="2">  1       -2 0.13137505E+00 0.76746225E+03</pdfrwt>
<totfact> 0.14775530E+01</totfact>
</mgrwt>
</event>
<event>
 4    2  0.3855935E-007  0.1057916E+04  0.7818608E-02  0.9309426E-01
         -2   -1    0    0    0  501 -0.00000000000E+00  0.00000000000E+00  0.56535560761E+03  0.56535560762E+03  0.25500000000E-02 0.  1.
          2   -1    0    0  501    0  0.00000000000E+00 -0.00000000000E+00 -0.29810518296E+04  0.29810518296E+04  0.25500000000E-02 0. -1.
    8880023    1    1    2    0    0  0.82557248010E+03 -0.61685816235E+02 -0.76906191680E+02  0.10607072303E+04  0.65864270000E+03 0.  0.
    8880022    1    1    2    0    0 -0.82557248010E+03  0.61685816235E+02 -0.23387900303E+04  0.24857002069E+04  0.15294330000E+03 0.  0.
<mgrwt>
<rscale>  0 0.99919708E+03</rscale>
<asrwt>0</asrwt>
<pdfrwt beam="1">  1        2 0.45862335E+00 0.10579155E+04</pdfrwt>
<pdfrwt beam="2">  1       -2 0.86977787E-01 0.10579155E+04</pdfrwt>
<totfact> 0.20687925E+00</totfact>
</mgrwt>
</event>
<event>
 4    2  0.3855935E-007  0.7823108E+03  0.7818608E-02  0.9750437E-01
          2   -1    0    0  501    0  0.00000000000E+00  0.00000000000E+00  0.85545332432E+03  0.85545332432E+03  0.25500000000E-02 0. -1.
         -2   -1    0    0    0  501 -0.00000000000E+00 -0.00000000000E+00 -0.52753381533E+03  0.52753381533E+03  0.25500000000E-02 0.  1.
    8880023    1    1    2    0    0  0.39611057805E+03 -0.14593262501E+03 -0.66805792079E+02  0.78515803581E+03  0.65864270000E+03 0.  1.
    8880022    1    1    2    0    0 -0.39611057805E+03  0.14593262501E+03  0.39472530107E+03  0.59782910384E+03  0.15294330000E+03 0.  0.
<mgrwt>
<rscale>  0 0.68091598E+03</rscale>
<asrwt>0</asrwt>
<pdfrwt beam="1">  1        2 0.13160820E+00 0.78231076E+03</pdfrwt>
<pdfrwt beam="2">  1       -2 0.81159050E-01 0.78231076E+03</pdfrwt>
<totfact> 0.42590400E+01</totfact>
</mgrwt>
</event>
<event>
 4    2  0.3855935E-007  0.6671503E+03  0.7818608E-02  0.1017794E+00
         -2   -1    0    0    0  501 -0.00000000000E+00  0.00000000000E+00  0.91557586580E+03  0.91557586580E+03  0.25500000000E-02 0.  1.
          2   -1    0    0  501    0  0.00000000000E+00 -0.00000000000E+00 -0.19982734494E+03  0.19982734496E+03  0.25500000000E-02 0. -1.
    8880023    1    1    2    0    0 -0.67076014804E+02  0.82341142626E+02  0.59101088616E+03  0.89128184619E+03  0.65864270000E+03 0.  0.
    8880022    1    1    2    0    0  0.67076014804E+02 -0.82341142626E+02  0.12473763469E+03  0.22412136457E+03  0.15294330000E+03 0. -1.
<mgrwt>
<rscale>  0 0.48491252E+03</rscale>
<asrwt>0</asrwt>
<pdfrwt beam="1">  1        2 0.30742669E-01 0.66715025E+03</pdfrwt>
<pdfrwt beam="2">  1       -2 0.14085782E+00 0.66715025E+03</pdfrwt>
<totfact> 0.62087987E+01</totfact>
</mgrwt>
</event>
<event>
 4    2  0.3855935E-007  0.7170665E+03  0.7818608E-02  0.9932640E-01
          2   -1    0    0  501    0  0.00000000000E+00  0.00000000000E+00  0.18429196991E+04  0.18429196991E+04  0.25500000000E-02 0. -1.
         -2   -1    0    0    0  501 -0.00000000000E+00 -0.00000000000E+00 -0.14889458029E+03  0.14889458031E+03  0.25500000000E-02 0.  1.
    8880023    1    1    2    0    0  0.19192738377E+03  0.20865776398E+03  0.10466582782E+04  0.12687308386E+04  0.65864270000E+03 0.  0.
    8880022    1    1    2    0    0 -0.19192738377E+03 -0.20865776398E+03  0.64736684065E+03  0.72308344090E+03  0.15294330000E+03 0.  0.
<mgrwt>
<rscale>  0 0.58705174E+03</rscale>
<asrwt>0</asrwt>
<pdfrwt beam="1">  1        2 0.28352612E+00 0.71706652E+03</pdfrwt>
<pdfrwt beam="2">  1       -2 0.22906858E-01 0.71706652E+03</pdfrwt>
<totfact> 0.14047206E+02</totfact>
</mgrwt>
</event>
<event>
 4    2  0.3855935E-007  0.6849742E+03  0.7818608E-02  0.1006639E+00
         -2   -1    0    0    0  501 -0.00000000000E+00  0.00000000000E+00  0.57529342310E+02  0.57529342367E+02  0.25500000000E-02 0.  1.
          2   -1    0    0  501    0  0.00000000000E+00 -0.00000000000E+00 -0.37399392401E+04  0.37399392401E+04  0.25500000000E-02 0. -1.
    8880023    1    1    2    0    0 -0.17859151424E+03  0.59029421156E+02 -0.27614817487E+04  0.28451662616E+04  0.65864270000E+03 0. -1.
    8880022    1    1    2    0    0  0.17859151424E+03 -0.59029421156E+02 -0.92092814909E+03  0.95230232086E+03  0.15294330000E+03 0.  1.
<mgrwt>
<rscale>  0 0.52832490E+03</rscale>
<asrwt>0</asrwt>
<pdfrwt beam="1">  1        2 0.57537508E+00 0.68497417E+03</pdfrwt>
<pdfrwt beam="2">  1       -2 0.88506710E-02 0.68497417E+03</pdfrwt>
<totfact> 0.50127821E+01</totfact>
</mgrwt>
</event>
<event>
 4    2  0.3855935E-007  0.7248358E+03  0.7818608E-02  0.9906550E-01
          2   -1    0    0  501    0  0.00000000000E+00  0.00000000000E+00  0.50301702326E+03  0.50301702326E+03  0.25500000000E-02 0. -1.
         -2   -1    0    0    0  501 -0.00000000000E+00 -0.00000000000E+00 -0.81043919615E+03  0.81043919616E+03  0.25500000000E-02 0.  1.
    8880023    1    1    2    0    0 -0.29678879190E+03 -0.59102881361E+02 -0.53863347437E+03  0.90305756381E+03  0.65864270000E+03 0.  1.
    8880022    1    1    2    0    0  0.29678879190E+03  0.59102881361E+02  0.23121130148E+03  0.41039865561E+03  0.15294330000E+03 0.  0.
<mgrwt>
<rscale>  0 0.59944872E+03</rscale>
<asrwt>0</asrwt>
<pdfrwt beam="1">  1        2 0.77387234E-01 0.72483580E+03</pdfrwt>
<pdfrwt beam="2">  1       -2 0.12468295E+00 0.72483580E+03</pdfrwt>
<totfact> 0.29931592E+01</totfact>
</mgrwt>
</event>
<event>
 4    2  0.3855935E-007  0.6810882E+03  0.7818608E-02  0.1008715E+00
          2   -1    0    0  501    0  0.00000000000E+00  0.00000000000E+00  0.28062828602E+03  0.28062828603E+03  0.25500000000E-02 0. -1.
         -2   -1    0    0    0  501 -0.00000000000E+00 -0.00000000000E+00 -0.10720307236E+04  0.10720307236E+04  0.25500000000E-02 0.  1.
    8880023    1    1    2    0    0 -0.16794513939E+03  0.43190133832E+02 -0.87318741216E+03  0.11074012012E+04  0.65864270000E+03 0.  0.
    8880022    1    1    2    0    0  0.16794513939E+03 -0.43190133832E+02  0.81784974565E+02  0.24525780840E+03  0.15294330000E+03 0.  0.
<mgrwt>
<rscale>  0 0.51988681E+03</rscale>
<asrwt>0</asrwt>
<pdfrwt beam="1">  1        2 0.43173583E-01 0.68108822E+03</pdfrwt>
<pdfrwt beam="2">  1       -2 0.16492780E+00 0.68108822E+03</pdfrwt>
<totfact> 0.27912717E+01</totfact>
</mgrwt>
</event>
<event>
 4    2  0.3855935E-007  0.1543730E+04  0.7818608E-02  0.8879358E-01
         -2   -1    0    0    0  501 -0.00000000000E+00  0.00000000000E+00  0.13634074696E+04  0.13634074696E+04  0.25500000000E-02 0.  1.
          2   -1    0    0  501    0  0.00000000000E+00 -0.00000000000E+00 -0.18270047887E+04  0.18270047887E+04  0.25500000000E-02 0. -1.
    8880023    1    1    2    0    0 -0.27130531676E+03 -0.13695567294E+04  0.32797675944E+03  0.15781860381E+04  0.65864270000E+03 0.  1.
    8880022    1    1    2    0    0  0.27130531676E+03  0.13695567294E+04 -0.79157407855E+03  0.16122262201E+04  0.15294330000E+03 0.  0.
<mgrwt>
<rscale>  0 0.15076853E+04</rscale>
<asrwt>0</asrwt>
<pdfrwt beam="1">  1        2 0.28107766E+00 0.15437300E+04</pdfrwt>
<pdfrwt beam="2">  1       -2 0.20975500E+00 0.15437300E+04</pdfrwt>
<totfact> 0.89622506E-01</totfact>
</mgrwt>
</event>
<event>
 4    2  0.3855935E-007  0.6958884E+03  0.7818608E-02  0.1001470E+00
         -2   -1    0    0    0  501 -0.00000000000E+00  0.00000000000E+00  0.70725118251E+03  0.70725118252E+03  0.25500000000E-02 0.  1.
          2   -1    0    0  501    0  0.00000000000E+00 -0.00000000000E+00 -0.56334444496E+03  0.56334444497E+03  0.25500000000E-02 0. -1.
    8880023    1    1    2    0    0  0.83208278114E+02 -0.20863085678E+03  0.47479090430E+03  0.84242926173E+03  0.65864270000E+03 0.  1.
    8880022    1    1    2    0    0 -0.83208278114E+02  0.20863085678E+03 -0.33088416675E+03  0.42816636576E+03  0.15294330000E+03 0.  0.
<mgrwt>
<rscale>  0 0.55010134E+03</rscale>
<asrwt>0</asrwt>
<pdfrwt beam="1">  1        2 0.86668377E-01 0.69588839E+03</pdfrwt>
<pdfrwt beam="2">  1       -2 0.10880787E+00 0.69588839E+03</pdfrwt>
<totfact> 0.36694777E+01</totfact>
</mgrwt>
</event>
<event>
 4    2  0.3855935E-007  0.6768189E+03  0.7818608E-02  0.1011183E+00
          2   -1    0    0  501    0  0.00000000000E+00  0.00000000000E+00  0.12037211292E+04  0.12037211292E+04  0.25500000000E-02 0. -1.
         -2   -1    0    0    0  501 -0.00000000000E+00 -0.00000000000E+00 -0.51458524166E+03  0.51458524167E+03  0.25500000000E-02 0.  1.
    8880023    1    1    2    0    0 -0.10528325454E+03  0.11484387276E+03 -0.27441280184E+03  0.73033298630E+03  0.65864270000E+03 0.  1.
    8880022    1    1    2    0    0  0.10528325454E+03 -0.11484387276E+03  0.96354868939E+03  0.98797338458E+03  0.15294330000E+03 0.  0.
<mgrwt>
<rscale>  0 0.51006991E+03</rscale>
<asrwt>0</asrwt>
<pdfrwt beam="1">  1        2 0.18518786E+00 0.67681895E+03</pdfrwt>
<pdfrwt beam="2">  1       -2 0.79166961E-01 0.67681895E+03</pdfrwt>
<totfact> 0.27394101E+01</totfact>
</mgrwt>
</event>
<event>
 4    2  0.3855935E-007  0.8817185E+03  0.7818608E-02  0.9556040E-01
          2   -1    0    0  501    0  0.00000000000E+00  0.00000000000E+00  0.16020284481E+04  0.16020284481E+04  0.25500000000E-02 0. -1.
         -2   -1    0    0    0  501 -0.00000000000E+00 -0.00000000000E+00 -0.58965096612E+03  0.58965096612E+03  0.25500000000E-02 0.  1.
    8880023    1    1    2    0    0  0.30880649935E+03  0.49825279876E+03 -0.13711614116E+03  0.89231628246E+03  0.65864270000E+03 0.  0.
    8880022    1    1    2    0    0 -0.30880649935E+03 -0.49825279876E+03  0.11494936231E+04  0.12993631317E+04  0.15294330000E+03 0.  0.
<mgrwt>
<rscale>  0 0.80275320E+03</rscale>
<asrwt>0</asrwt>
<pdfrwt beam="1">  1        2 0.24646592E+00 0.88171850E+03</pdfrwt>
<pdfrwt beam="2">  1       -2 0.90715533E-01 0.88171850E+03</pdfrwt>
<totfact> 0.11653606E+01</totfact>
</mgrwt>
</event>
<event>
 4    2  0.3855935E-007  0.7964824E+03  0.7818608E-02  0.9718454E-01
          2   -1    0    0  501    0  0.00000000000E+00  0.00000000000E+00  0.10551368793E+04  0.10551368793E+04  0.25500000000E-02 0. -1.
         -2   -1    0    0    0  501 -0.00000000000E+00 -0.00000000000E+00 -0.56678490317E+03  0.56678490317E+03  0.25500000000E-02 0.  1.
    8880023    1    1    2    0    0  0.10898419130E+03 -0.43439202546E+03 -0.16676017696E+03  0.81375251067E+03  0.65864270000E+03 0.  1.
    8880022    1    1    2    0    0 -0.10898419130E+03  0.43439202546E+03  0.65511215305E+03  0.80816927177E+03  0.15294330000E+03 0.  0.
<mgrwt>
<rscale>  0 0.69928596E+03</rscale>
<asrwt>0</asrwt>
<pdfrwt beam="1">  1        2 0.16232875E+00 0.79648239E+03</pdfrwt>
<pdfrwt beam="2">  1       -2 0.87197679E-01 0.79648239E+03</pdfrwt>
<totfact> 0.26733407E+01</totfact>
</mgrwt>
</event>
<event>
 4    2  0.3855935E-007  0.1363105E+04  0.7818608E-02  0.9012895E-01
          2   -1    0    0  501    0  0.00000000000E+00  0.00000000000E+00  0.17914760685E+04  0.17914760685E+04  0.25500000000E-02 0. -1.
         -2   -1    0    0    0  501 -0.00000000000E+00 -0.00000000000E+00 -0.95808739370E+03  0.95808739371E+03  0.25500000000E-02 0.  1.
    8880023    1    1    2    0    0  0.60989186546E+03  0.10258049381E+04  0.16460507145E+03  0.13730072448E+04  0.65864270000E+03 0.  0.
    8880022    1    1    2    0    0 -0.60989186546E+03 -0.10258049381E+04  0.66878360332E+03  0.13765562174E+04  0.15294330000E+03 0.  0.
<mgrwt>
<rscale>  0 0.13212326E+04</rscale>
<asrwt>0</asrwt>
<pdfrwt beam="1">  1        2 0.27561170E+00 0.13631046E+04</pdfrwt>
<pdfrwt beam="2">  1       -2 0.14739806E+00 0.13631046E+04</pdfrwt>
<totfact> 0.26203350E+00</totfact>
</mgrwt>
</event>
<event>
 4    2  0.3855935E-007  0.8377705E+03  0.7818608E-02  0.9634398E-01
          2   -1    0    0  501    0  0.00000000000E+00  0.00000000000E+00  0.17601935481E+04  0.17601935481E+04  0.25500000000E-02 0. -1.
         -2   -1    0    0    0  501 -0.00000000000E+00 -0.00000000000E+00 -0.47990461617E+03  0.47990461618E+03  0.25500000000E-02 0.  1.
    8880023    1    1    2    0    0  0.24371312208E+03  0.45678571470E+03 -0.13836792588E+02  0.83788480003E+03  0.65864270000E+03 0.  1.
    8880022    1    1    2    0    0 -0.24371312208E+03 -0.45678571470E+03  0.12941257245E+04  0.14022133642E+04  0.15294330000E+03 0.  0.
<mgrwt>
<rscale>  0 0.75060704E+03</rscale>
<asrwt>0</asrwt>
<pdfrwt beam="1">  1        2 0.27079901E+00 0.83777054E+03</pdfrwt>
<pdfrwt beam="2">  1       -2 0.73831480E-01 0.83777054E+03</pdfrwt>
<totfact> 0.15279773E+01</totfact>
</mgrwt>
</event>
<event>
 4    2  0.3855935E-007  0.6716947E+03  0.7818608E-02  0.1014476E+00
         -2   -1    0    0    0  501 -0.00000000000E+00  0.00000000000E+00  0.80529169126E+02  0.80529169167E+02  0.25500000000E-02 0.  1.
          2   -1    0    0  501    0  0.00000000000E+00 -0.00000000000E+00 -0.24216290399E+04  0.24216290399E+04  0.25500000000E-02 0. -1.
    8880023    1    1    2    0    0 -0.13001259710E+03 -0.21453008803E+02 -0.16304231234E+04  0.17633641923E+04  0.65864270000E+03 0.  1.
    8880022    1    1    2    0    0  0.13001259710E+03  0.21453008803E+02 -0.71067674742E+03  0.73879401684E+03  0.15294330000E+03 0. -1.
<mgrwt>
<rscale>  0 0.49733812E+03</rscale>
<asrwt>0</asrwt>
<pdfrwt beam="1">  1        2 0.37255826E+00 0.67169466E+03</pdfrwt>
<pdfrwt beam="2">  1       -2 0.12389105E-01 0.67169466E+03</pdfrwt>
<totfact> 0.19469759E+02</totfact>
</mgrwt>
</event>
<event>
 4    2  0.3855935E-007  0.6995848E+03  0.7818608E-02  0.9998928E-01
         -2   -1    0    0    0  501 -0.00000000000E+00  0.00000000000E+00  0.44944164198E+03  0.44944164199E+03  0.25500000000E-02 0.  1.
          2   -1    0    0  501    0  0.00000000000E+00 -0.00000000000E+00 -0.91997252517E+03  0.91997252517E+03  0.25500000000E-02 0. -1.
    8880023    1    1    2    0    0 -0.23474935131E+03 -0.22391594244E+02  0.12520655586E+03  0.71070073120E+03  0.65864270000E+03 0.  1.
    8880022    1    1    2    0    0  0.23474935131E+03  0.22391594244E+02 -0.59573743904E+03  0.65871343597E+03  0.15294330000E+03 0.  0.
<mgrwt>
<rscale>  0 0.55697262E+03</rscale>
<asrwt>0</asrwt>
<pdfrwt beam="1">  1        2 0.14153423E+00 0.69958477E+03</pdfrwt>
<pdfrwt beam="2">  1       -2 0.69144868E-01 0.69958477E+03</pdfrwt>
<totfact> 0.55305723E+01</totfact>
</mgrwt>
</event>
<event>
 4    2  0.3855935E-007  0.1064233E+04  0.7818608E-02  0.9301964E-01
          2   -1    0    0  501    0  0.00000000000E+00  0.00000000000E+00  0.26075683156E+04  0.26075683156E+04  0.25500000000E-02 0. -1.
         -2   -1    0    0    0  501 -0.00000000000E+00 -0.00000000000E+00 -0.55193036466E+03  0.55193036467E+03  0.25500000000E-02 0.  1.
    8880023    1    1    2    0    0 -0.71928733727E+03 -0.42591901165E+03  0.20498759076E+04  0.23096715613E+04  0.65864270000E+03 0. -1.
    8880022    1    1    2    0    0  0.71928733727E+03  0.42591901165E+03  0.57620433317E+01  0.84982711901E+03  0.15294330000E+03 0.  0.
<mgrwt>
<rscale>  0 0.10060224E+04</rscale>
<asrwt>0</asrwt>
<pdfrwt beam="1">  1        2 0.40116436E+00 0.10642328E+04</pdfrwt>
<pdfrwt beam="2">  1       -2 0.84912363E-01 0.10642328E+04</pdfrwt>
<totfact> 0.36498547E+00</totfact>
</mgrwt>
</event>
<event>
 4    2  0.3855935E-007  0.6663734E+03  0.7818608E-02  0.1018408E+00
          2   -1    0    0  501    0  0.00000000000E+00  0.00000000000E+00  0.13394696695E+04  0.13394696695E+04  0.25500000000E-02 0. -1.
         -2   -1    0    0    0  501 -0.00000000000E+00 -0.00000000000E+00 -0.64384083387E+03  0.64384083388E+03  0.25500000000E-02 0.  1.
    8880023    1    1    2    0    0 -0.10115678963E+03  0.32643311042E+01 -0.46224520760E+03  0.81100196680E+03  0.65864270000E+03 0.  1.
    8880022    1    1    2    0    0  0.10115678963E+03 -0.32643311042E+01  0.11578740433E+04  0.11723085366E+04  0.15294330000E+03 0.  0.
<mgrwt>
<rscale>  0 0.48265543E+03</rscale>
<asrwt>0</asrwt>
<pdfrwt beam="1">  1        2 0.20607226E+00 0.66637344E+03</pdfrwt>
<pdfrwt beam="2">  1       -2 0.99052436E-01 0.66637344E+03</pdfrwt>
<totfact> 0.13684021E+01</totfact>
</mgrwt>
</event>
<event>
 4    2  0.3855935E-007  0.7030393E+03  0.7818608E-02  0.9984819E-01
          2   -1    0    0  501    0  0.00000000000E+00  0.00000000000E+00  0.19294212477E+04  0.19294212477E+04  0.25500000000E-02 0. -1.
         -2   -1    0    0    0  501 -0.00000000000E+00 -0.00000000000E+00 -0.20489060956E+03  0.20489060958E+03  0.25500000000E-02 0.  1.
    8880023    1    1    2    0    0 -0.24487682437E+03  0.22121825694E+02  0.46732270848E+03  0.84418881443E+03  0.65864270000E+03 0.  1.
    8880022    1    1    2    0    0  0.24487682437E+03 -0.22121825694E+02  0.12572079296E+04  0.12901230428E+04  0.15294330000E+03 0.  0.
<mgrwt>
<rscale>  0 0.56320926E+03</rscale>
<asrwt>0</asrwt>
<pdfrwt beam="1">  1        2 0.29683405E+00 0.70303929E+03</pdfrwt>
<pdfrwt beam="2">  1       -2 0.31521631E-01 0.70303929E+03</pdfrwt>
<totfact> 0.70535668E+01</totfact>
</mgrwt>
</event>
<event>
 4    2  0.3855935E-007  0.7530202E+03  0.7818608E-02  0.9823524E-01
         -2   -1    0    0    0  501 -0.00000000000E+00  0.00000000000E+00  0.13856248995E+04  0.13856248995E+04  0.25500000000E-02 0.  1.
          2   -1    0    0  501    0  0.00000000000E+00 -0.00000000000E+00 -0.50218654800E+03  0.50218654801E+03  0.25500000000E-02 0. -1.
    8880023    1    1    2    0    0 -0.17900699776E+03  0.31809703763E+03  0.11754640775E+04  0.13959782357E+04  0.65864270000E+03 0.  1.
    8880022    1    1    2    0    0  0.17900699776E+03 -0.31809703763E+03 -0.29202572604E+03  0.49183321185E+03  0.15294330000E+03 0.  0.
<mgrwt>
<rscale>  0 0.64115227E+03</rscale>
<asrwt>0</asrwt>
<pdfrwt beam="1">  1        2 0.77259470E-01 0.75302021E+03</pdfrwt>
<pdfrwt beam="2">  1       -2 0.21317306E+00 0.75302021E+03</pdfrwt>
<totfact> 0.68360087E+00</totfact>
</mgrwt>
</event>
<event>
 4    2  0.5035370E-007  0.9243148E+03  0.7818608E-02  0.9488075E-01
          2   -1    0    0  501    0  0.00000000000E+00  0.00000000000E+00  0.26525587523E+04  0.26525587524E+04  0.25500000000E-02 0. -1.
         -2   -1    0    0    0  501 -0.00000000000E+00 -0.00000000000E+00 -0.10916616904E+04  0.10916616904E+04  0.25500000000E-02 0.  1.
    8880023    1    1    2    0    0 -0.47278871804E+03  0.44386756091E+03 -0.84220117959E+03  0.12504641605E+04  0.65864270000E+03 0.  1.
    8880022    1    1    2    0    0  0.47278871804E+03 -0.44386756091E+03  0.24030982416E+04  0.24937562822E+04  0.15294330000E+03 0.  0.
<mgrwt>
<rscale>  0 0.85168767E+03</rscale>
<asrwt>0</asrwt>
<pdfrwt beam="1">  1        2 0.40808596E+00 0.92431477E+03</pdfrwt>
<pdfrwt beam="2">  1       -2 0.16794795E+00 0.92431477E+03</pdfrwt>
<totfact> 0.63850698E-01</totfact>
</mgrwt>
</event>
<event>
 4    2  0.3855935E-007  0.9370853E+03  0.7818608E-02  0.9468944E-01
          2   -1    0    0  501    0  0.00000000000E+00  0.00000000000E+00  0.62680066792E+03  0.62680066793E+03  0.25500000000E-02 0. -1.
         -2   -1    0    0    0  501 -0.00000000000E+00 -0.00000000000E+00 -0.11621944184E+04  0.11621944184E+04  0.25500000000E-02 0.  1.
    8880023    1    1    2    0    0 -0.15631136263E+03  0.64798560682E+03 -0.58267901990E+03  0.11034689100E+04  0.65864270000E+03 0.  1.
    8880022    1    1    2    0    0  0.15631136263E+03 -0.64798560682E+03  0.47285269456E+02  0.68552617635E+03  0.15294330000E+03 0.  0.
<mgrwt>
<rscale>  0 0.86612673E+03</rscale>
<asrwt>0</asrwt>
<pdfrwt beam="1">  1        2 0.96430872E-01 0.93708527E+03</pdfrwt>
<pdfrwt beam="2">  1       -2 0.17879914E+00 0.93708527E+03</pdfrwt>
<totfact> 0.86796675E+00</totfact>
</mgrwt>
</event>
<event>
 4    2  0.3855935E-007  0.7195308E+03  0.7818608E-02  0.9924177E-01
          2   -1    0    0  501    0  0.00000000000E+00  0.00000000000E+00  0.59222550874E+03  0.59222550875E+03  0.25500000000E-02 0. -1.
         -2   -1    0    0    0  501 -0.00000000000E+00 -0.00000000000E+00 -0.12319672698E+04  0.12319672698E+04  0.25500000000E-02 0.  1.
    8880023    1    1    2    0    0  0.28856894752E+03  0.25343441523E+02 -0.10663039830E+04  0.12863625919E+04  0.65864270000E+03 0.  1.
    8880022    1    1    2    0    0 -0.28856894752E+03 -0.25343441523E+02  0.42656222190E+03  0.53783018665E+03  0.15294330000E+03 0.  0.
<mgrwt>
<rscale>  0 0.59103748E+03</rscale>
<asrwt>0</asrwt>
<pdfrwt beam="1">  1        2 0.91111617E-01 0.71953077E+03</pdfrwt>
<pdfrwt beam="2">  1       -2 0.18953343E+00 0.71953077E+03</pdfrwt>
<totfact> 0.80403499E+00</totfact>
</mgrwt>
</event>
<event>
 4    2  0.3855935E-007  0.6665829E+03  0.7818608E-02  0.1018241E+00
          2   -1    0    0  501    0  0.00000000000E+00  0.00000000000E+00  0.13033872852E+04  0.13033872852E+04  0.25500000000E-02 0. -1.
         -2   -1    0    0    0  501 -0.00000000000E+00 -0.00000000000E+00 -0.39871998374E+03  0.39871998375E+03  0.25500000000E-02 0.  1.
    8880023    1    1    2    0    0  0.16578822708E+02 -0.10123102570E+03 -0.10586015658E+03  0.67493640955E+03  0.65864270000E+03 0.  1.
    8880022    1    1    2    0    0 -0.16578822708E+02  0.10123102570E+03  0.10105274580E+04  0.10271708594E+04  0.15294330000E+03 0.  0.
<mgrwt>
<rscale>  0 0.48326838E+03</rscale>
<asrwt>0</asrwt>
<pdfrwt beam="1">  1        2 0.20052112E+00 0.66658292E+03</pdfrwt>
<pdfrwt beam="2">  1       -2 0.61341536E-01 0.66658292E+03</pdfrwt>
<totfact> 0.41835408E+01</totfact>
</mgrwt>
</event>
<event>
 4    2  0.3855935E-007  0.1166105E+04  0.7818608E-02  0.9190796E-01
         -2   -1    0    0    0  501 -0.00000000000E+00  0.00000000000E+00  0.12447014501E+04  0.12447014501E+04  0.25500000000E-02 0.  1.
          2   -1    0    0  501    0  0.00000000000E+00 -0.00000000000E+00 -0.12611482816E+04  0.12611482816E+04  0.25500000000E-02 0. -1.
    8880023    1    1    2    0    0  0.69042737293E+03 -0.67029895827E+03  0.64076681809E+03  0.13305573915E+04  0.65864270000E+03 0.  1.
    8880022    1    1    2    0    0 -0.69042737293E+03  0.67029895827E+03 -0.65721364952E+03  0.11752923402E+04  0.15294330000E+03 0.  0.
<mgrwt>
<rscale>  0 0.11148935E+04</rscale>
<asrwt>0</asrwt>
<pdfrwt beam="1">  1        2 0.19402281E+00 0.11661050E+04</pdfrwt>
<pdfrwt beam="2">  1       -2 0.19149253E+00 0.11661050E+04</pdfrwt>
<totfact> 0.25705924E+00</totfact>
</mgrwt>
</event>
<event>
 4    2  0.3855935E-007  0.6926435E+03  0.7818608E-02  0.1002921E+00
          2   -1    0    0  501    0  0.00000000000E+00  0.00000000000E+00  0.23148689233E+04  0.23148689233E+04  0.25500000000E-02 0. -1.
         -2   -1    0    0    0  501 -0.00000000000E+00 -0.00000000000E+00 -0.13827270130E+03  0.13827270132E+03  0.25500000000E-02 0.  1.
    8880023    1    1    2    0    0 -0.11575696370E+03  0.18040253820E+03  0.83000751878E+03  0.10810492301E+04  0.65864270000E+03 0.  0.
    8880022    1    1    2    0    0  0.11575696370E+03 -0.18040253820E+03  0.13465887033E+04  0.13720923946E+04  0.15294330000E+03 0.  0.
<mgrwt>
<rscale>  0 0.54387922E+03</rscale>
<asrwt>0</asrwt>
<pdfrwt beam="1">  1        2 0.35613363E+00 0.69264346E+03</pdfrwt>
<pdfrwt beam="2">  1       -2 0.21272726E-01 0.69264346E+03</pdfrwt>
<totfact> 0.88588627E+01</totfact>
</mgrwt>
</event>
<event>
 4    2  0.3855935E-007  0.9569541E+03  0.7818608E-02  0.9440178E-01
          2   -1    0    0  501    0  0.00000000000E+00  0.00000000000E+00  0.14130459210E+04  0.14130459210E+04  0.25500000000E-02 0. -1.
         -2   -1    0    0    0  501 -0.00000000000E+00 -0.00000000000E+00 -0.53177373529E+03  0.53177373530E+03  0.25500000000E-02 0.  1.
    8880023    1    1    2    0    0 -0.56664918795E+03  0.40107310350E+03  0.23801203834E+03  0.98610895606E+03  0.65864270000E+03 0.  0.
    8880022    1    1    2    0    0  0.56664918795E+03 -0.40107310350E+03  0.64326014736E+03  0.95871070024E+03  0.15294330000E+03 0.  0.
<mgrwt>
<rscale>  0 0.88841640E+03</rscale>
<asrwt>0</asrwt>
<pdfrwt beam="1">  1        2 0.21739168E+00 0.95695410E+03</pdfrwt>
<pdfrwt beam="2">  1       -2 0.81811345E-01 0.95695410E+03</pdfrwt>
<totfact> 0.18699977E+01</totfact>
</mgrwt>
</event>
<event>
 4    2  0.3855935E-007  0.7769022E+03  0.7818608E-02  0.9763165E-01
          2   -1    0    0  501    0  0.00000000000E+00  0.00000000000E+00  0.10593923444E+04  0.10593923444E+04  0.25500000000E-02 0. -1.
         -2   -1    0    0    0  501 -0.00000000000E+00 -0.00000000000E+00 -0.64886180641E+03  0.64886180642E+03  0.25500000000E-02 0.  1.
    8880023    1    1    2    0    0  0.20277869807E+03 -0.35867476550E+03 -0.33242810537E+03  0.84503576214E+03  0.65864270000E+03 0.  1.
    8880022    1    1    2    0    0 -0.20277869807E+03  0.35867476550E+03  0.74295864335E+03  0.86321838867E+03  0.15294330000E+03 0.  0.
<mgrwt>
<rscale>  0 0.67377356E+03</rscale>
<asrwt>0</asrwt>
<pdfrwt beam="1">  1        2 0.16298344E+00 0.77690218E+03</pdfrwt>
<pdfrwt beam="2">  1       -2 0.99824895E-01 0.77690218E+03</pdfrwt>
<totfact> 0.19429165E+01</totfact>
</mgrwt>
</event>
<event>
 4    2  0.3855935E-007  0.8224007E+03  0.7818608E-02  0.9664303E-01
         -2   -1    0    0    0  501 -0.00000000000E+00  0.00000000000E+00  0.24548435473E+04  0.24548435473E+04  0.25500000000E-02 0.  1.
          2   -1    0    0  501    0  0.00000000000E+00 -0.00000000000E+00 -0.42123165706E+03  0.42123165706E+03  0.25500000000E-02 0. -1.
    8880023    1    1    2    0    0 -0.35558718216E+03  0.34072053242E+03  0.21882685419E+04  0.23377044601E+04  0.65864270000E+03 0.  0.
    8880022    1    1    2    0    0  0.35558718216E+03 -0.34072053242E+03 -0.15465665163E+03  0.53837074423E+03  0.15294330000E+03 0.  0.
<mgrwt>
<rscale>  0 0.73182523E+03</rscale>
<asrwt>0</asrwt>
<pdfrwt beam="1">  1        2 0.64804872E-01 0.82240071E+03</pdfrwt>
<pdfrwt beam="2">  1       -2 0.37766823E+00 0.82240071E+03</pdfrwt>
<totfact> 0.81323488E-01</totfact>
</mgrwt>
</event>
<event>
 4    2  0.3855935E-007  0.7349952E+03  0.7818608E-02  0.9874773E-01
          2   -1    0    0  501    0  0.00000000000E+00  0.00000000000E+00  0.26603290484E+04  0.26603290484E+04  0.25500000000E-02 0. -1.
         -2   -1    0    0    0  501 -0.00000000000E+00 -0.00000000000E+00 -0.27195617958E+03  0.27195617959E+03  0.25500000000E-02 0.  1.
    8880023    1    1    2    0    0 -0.16552418457E+03  0.28108634081E+03  0.26925847804E+03  0.78276313207E+03  0.65864270000E+03 0.  1.
    8880022    1    1    2    0    0  0.16552418457E+03 -0.28108634081E+03  0.21191143908E+04  0.21495220959E+04  0.15294330000E+03 0.  0.
<mgrwt>
<rscale>  0 0.61499629E+03</rscale>
<asrwt>0</asrwt>
<pdfrwt beam="1">  1        2 0.40928138E+00 0.73499523E+03</pdfrwt>
<pdfrwt beam="2">  1       -2 0.41839413E-01 0.73499523E+03</pdfrwt>
<totfact> 0.15990891E+01</totfact>
</mgrwt>
</event>
<event>
 4    2  0.3855935E-007  0.6989019E+03  0.7818608E-02  0.1000179E+00
         -2   -1    0    0    0  501 -0.00000000000E+00  0.00000000000E+00  0.15360922544E+03  0.15360922546E+03  0.25500000000E-02 0.  1.
          2   -1    0    0  501    0  0.00000000000E+00 -0.00000000000E+00 -0.24574842485E+04  0.24574842485E+04  0.25500000000E-02 0. -1.
    8880023    1    1    2    0    0  0.20288345712E+03 -0.11615472092E+03 -0.22076204236E+04  0.23156104503E+04  0.65864270000E+03 0. -1.
    8880022    1    1    2    0    0 -0.20288345712E+03  0.11615472092E+03 -0.96254599446E+02  0.29548302370E+03  0.15294330000E+03 0.  0.
<mgrwt>
<rscale>  0 0.55571929E+03</rscale>
<asrwt>0</asrwt>
<pdfrwt beam="1">  1        2 0.37807447E+00 0.69890187E+03</pdfrwt>
<pdfrwt beam="2">  1       -2 0.23632190E-01 0.69890187E+03</pdfrwt>
<totfact> 0.61130594E+01</totfact>
</mgrwt>
</event>
<event>
 4    2  0.3855935E-007  0.6628258E+03  0.7818608E-02  0.1021432E+00
         -2   -1    0    0    0  501 -0.00000000000E+00  0.00000000000E+00  0.18048678386E+03  0.18048678388E+03  0.25500000000E-02 0.  1.
          2   -1    0    0  501    0  0.00000000000E+00 -0.00000000000E+00 -0.36066139310E+04  0.36066139310E+04  0.25500000000E-02 0. -1.
    8880023    1    1    2    0    0 -0.42618759570E+02 -0.60921430593E+02 -0.43874136207E+03  0.79487858723E+03  0.65864270000E+03 0.  1.
    8880022    1    1    2    0    0  0.42618759570E+02  0.60921430593E+02 -0.29873857851E+04  0.29922221277E+04  0.15294330000E+03 0.  0.
<mgrwt>
<rscale>  0 0.47173517E+03</rscale>
<asrwt>0</asrwt>
<pdfrwt beam="1">  1        2 0.55486363E+00 0.66282576E+03</pdfrwt>
<pdfrwt beam="2">  1       -2 0.27767200E-01 0.66282576E+03</pdfrwt>
<totfact> 0.89258714E+00</totfact>
</mgrwt>
</event>
<event>
 4    2  0.3855935E-007  0.9468403E+03  0.7818608E-02  0.9454675E-01
          2   -1    0    0  501    0  0.00000000000E+00  0.00000000000E+00  0.21983093403E+04  0.21983093403E+04  0.25500000000E-02 0. -1.
         -2   -1    0    0    0  501 -0.00000000000E+00 -0.00000000000E+00 -0.65209207514E+03  0.65209207514E+03  0.25500000000E-02 0.  1.
    8880023    1    1    2    0    0 -0.62518982622E+03  0.26801856831E+03  0.18590127383E+04  0.20862489878E+04  0.65864270000E+03 0.  0.
    8880022    1    1    2    0    0  0.62518982622E+03 -0.26801856831E+03 -0.31279547306E+03  0.76415242769E+03  0.15294330000E+03 0.  0.
<mgrwt>
<rscale>  0 0.87709552E+03</rscale>
<asrwt>0</asrwt>
<pdfrwt beam="1">  1        2 0.33820144E+00 0.94684026E+03</pdfrwt>
<pdfrwt beam="2">  1       -2 0.10032186E+00 0.94684026E+03</pdfrwt>
<totfact> 0.42863823E+00</totfact>
</mgrwt>
</event>
<event>
 4    2  0.3855935E-007  0.1066616E+04  0.7818608E-02  0.9299168E-01
          2   -1    0    0  501    0  0.00000000000E+00  0.00000000000E+00  0.35132975103E+04  0.35132975103E+04  0.25500000000E-02 0. -1.
         -2   -1    0    0    0  501 -0.00000000000E+00 -0.00000000000E+00 -0.33280584466E+03  0.33280584467E+03  0.25500000000E-02 0.  1.
    8880023    1    1    2    0    0  0.43726242095E+03  0.71600418848E+03  0.26114901482E+04  0.28209132250E+04  0.65864270000E+03 0.  0.
    8880022    1    1    2    0    0 -0.43726242095E+03 -0.71600418848E+03  0.56900151747E+03  0.10251901300E+04  0.15294330000E+03 0.  0.
<mgrwt>
<rscale>  0 0.10085950E+04</rscale>
<asrwt>0</asrwt>
<pdfrwt beam="1">  1        2 0.54050730E+00 0.10666164E+04</pdfrwt>
<pdfrwt beam="2">  1       -2 0.51200900E-01 0.10666164E+04</pdfrwt>
<totfact> 0.29454539E+00</totfact>
</mgrwt>
</event>
<event>
 4    2  0.3855935E-007  0.8056796E+03  0.7818608E-02  0.9698648E-01
         -2   -1    0    0    0  501 -0.00000000000E+00  0.00000000000E+00  0.34801261730E+03  0.34801261731E+03  0.25500000000E-02 0.  1.
          2   -1    0    0  501    0  0.00000000000E+00 -0.00000000000E+00 -0.29299091686E+04  0.29299091686E+04  0.25500000000E-02 0. -1.
    8880023    1    1    2    0    0  0.43908070549E+03  0.15005842634E+03 -0.17830023091E+03  0.82517305813E+03  0.65864270000E+03 0.  1.
    8880022    1    1    2    0    0 -0.43908070549E+03 -0.15005842634E+03 -0.24035963204E+04  0.24527487278E+04  0.15294330000E+03 0.  0.
<mgrwt>
<rscale>  0 0.71097374E+03</rscale>
<asrwt>0</asrwt>
<pdfrwt beam="1">  1        2 0.45075524E+00 0.80567959E+03</pdfrwt>
<pdfrwt beam="2">  1       -2 0.53540405E-01 0.80567959E+03</pdfrwt>
<totfact> 0.66605086E+00</totfact>
</mgrwt>
</event>
<event>
 4    2  0.3855935E-007  0.6979777E+03  0.7818608E-02  0.1000570E+00
         -2   -1    0    0    0  501 -0.00000000000E+00  0.00000000000E+00  0.45456917945E+03  0.45456917946E+03  0.25500000000E-02 0.  1.
          2   -1    0    0  501    0  0.00000000000E+00 -0.00000000000E+00 -0.77625901815E+03  0.77625901816E+03  0.25500000000E-02 0. -1.
    8880023    1    1    2    0    0  0.16969317959E+03 -0.15673842335E+03  0.12120188235E+03  0.70842276298E+03  0.65864270000E+03 0.  1.
    8880022    1    1    2    0    0 -0.16969317959E+03  0.15673842335E+03 -0.44289172105E+03  0.52240543464E+03  0.15294330000E+03 0.  0.
<mgrwt>
<rscale>  0 0.55401186E+03</rscale>
<asrwt>0</asrwt>
<pdfrwt beam="1">  1        2 0.11942446E+00 0.69797773E+03</pdfrwt>
<pdfrwt beam="2">  1       -2 0.69933720E-01 0.69797773E+03</pdfrwt>
<totfact> 0.67915138E+01</totfact>
</mgrwt>
</event>
<event>
 4    2  0.3855935E-007  0.1015853E+04  0.7818608E-02  0.9361104E-01
          2   -1    0    0  501    0  0.00000000000E+00  0.00000000000E+00  0.25477254328E+04  0.25477254328E+04  0.25500000000E-02 0. -1.
         -2   -1    0    0    0  501 -0.00000000000E+00 -0.00000000000E+00 -0.34253293967E+03  0.34253293968E+03  0.25500000000E-02 0.  1.
    8880023    1    1    2    0    0 -0.71210519070E+03  0.30175134358E+03  0.85969199251E+03  0.13307998363E+04  0.65864270000E+03 0.  0.
    8880022    1    1    2    0    0  0.71210519070E+03 -0.30175134358E+03  0.13455005006E+04  0.15594585362E+04  0.15294330000E+03 0.  0.
<mgrwt>
<rscale>  0 0.95346952E+03</rscale>
<asrwt>0</asrwt>
<pdfrwt beam="1">  1        2 0.39195776E+00 0.10158533E+04</pdfrwt>
<pdfrwt beam="2">  1       -2 0.52697375E-01 0.10158533E+04</pdfrwt>
<totfact> 0.11216239E+01</totfact>
</mgrwt>
</event>
<event>
 4    2  0.3855935E-007  0.7143216E+03  0.7818608E-02  0.9942290E-01
         -2   -1    0    0    0  501 -0.00000000000E+00  0.00000000000E+00  0.69480105904E+03  0.69480105904E+03  0.25500000000E-02 0.  1.
          2   -1    0    0  501    0  0.00000000000E+00 -0.00000000000E+00 -0.14706128934E+04  0.14706128934E+04  0.25500000000E-02 0. -1.
    8880023    1    1    2    0    0 -0.18986318132E+03  0.20099031880E+03  0.48643616265E+03  0.86421958001E+03  0.65864270000E+03 0.  1.
    8880022    1    1    2    0    0  0.18986318132E+03 -0.20099031880E+03 -0.12622479971E+04  0.13011943725E+04  0.15294330000E+03 0.  0.
<mgrwt>
<rscale>  0 0.58254793E+03</rscale>
<asrwt>0</asrwt>
<pdfrwt beam="1">  1        2 0.22624814E+00 0.71432160E+03</pdfrwt>
<pdfrwt beam="2">  1       -2 0.10689247E+00 0.71432160E+03</pdfrwt>
<totfact> 0.95594791E+00</totfact>
</mgrwt>
</event>
<event>
 4    2  0.3855935E-007  0.7362137E+03  0.7818608E-02  0.9871117E-01
          2   -1    0    0  501    0  0.00000000000E+00  0.00000000000E+00  0.29662112598E+04  0.29662112598E+04  0.25500000000E-02 0. -1.
         -2   -1    0    0    0  501 -0.00000000000E+00 -0.00000000000E+00 -0.15895125434E+03  0.15895125436E+03  0.25500000000E-02 0.  1.
    8880023    1    1    2    0    0 -0.32893138997E+03 -0.21362720634E+01  0.80736460128E+03  0.10926336205E+04  0.65864270000E+03 0.  1.
    8880022    1    1    2    0    0  0.32893138997E+03  0.21362720634E+01  0.19998954042E+04  0.20325288936E+04  0.15294330000E+03 0.  0.
<mgrwt>
<rscale>  0 0.61681744E+03</rscale>
<asrwt>0</asrwt>
<pdfrwt beam="1">  1        2 0.45634022E+00 0.73621371E+03</pdfrwt>
<pdfrwt beam="2">  1       -2 0.24454038E-01 0.73621371E+03</pdfrwt>
<totfact> 0.28870613E+01</totfact>
</mgrwt>
</event>
<event>
 4    2  0.3855935E-007  0.6724099E+03  0.7818608E-02  0.1013991E+00
         -2   -1    0    0    0  501 -0.00000000000E+00  0.00000000000E+00  0.14968535572E+04  0.14968535572E+04  0.25500000000E-02 0.  1.
          2   -1    0    0  501    0  0.00000000000E+00 -0.00000000000E+00 -0.23232800305E+03  0.23232800307E+03  0.25500000000E-02 0. -1.
    8880023    1    1    2    0    0 -0.11785014176E+03 -0.66604393559E+02  0.13496738535E+04  0.15078973832E+04  0.65864270000E+03 0.  1.
    8880022    1    1    2    0    0  0.11785014176E+03  0.66604393559E+02 -0.85148299309E+02  0.22128417712E+03  0.15294330000E+03 0.  0.
<mgrwt>
<rscale>  0 0.49918781E+03</rscale>
<asrwt>0</asrwt>
<pdfrwt beam="1">  1        2 0.35742771E-01 0.67240985E+03</pdfrwt>
<pdfrwt beam="2">  1       -2 0.23028515E+00 0.67240985E+03</pdfrwt>
<totfact> 0.12815248E+01</totfact>
</mgrwt>
</event>
<event>
 4    2  0.3855935E-007  0.1377628E+04  0.7818608E-02  0.9001264E-01
         -2   -1    0    0    0  501 -0.00000000000E+00  0.00000000000E+00  0.16980678795E+04  0.16980678795E+04  0.25500000000E-02 0.  1.
          2   -1    0    0  501    0  0.00000000000E+00 -0.00000000000E+00 -0.18525322376E+04  0.18525322376E+04  0.25500000000E-02 0. -1.
    8880023    1    1    2    0    0  0.62008244733E+02  0.12083891191E+04  0.11282154309E+04  0.17806542479E+04  0.65864270000E+03 0.  0.
    8880022    1    1    2    0    0 -0.62008244733E+02 -0.12083891191E+04 -0.12826797890E+04  0.17699458692E+04  0.15294330000E+03 0.  0.
<mgrwt>
<rscale>  0 0.13363001E+04</rscale>
<asrwt>0</asrwt>
<pdfrwt beam="1">  1        2 0.28500496E+00 0.13776282E+04</pdfrwt>
<pdfrwt beam="2">  1       -2 0.26124121E+00 0.13776282E+04</pdfrwt>
<totfact> 0.42076241E-01</totfact>
</mgrwt>
</event>
<event>
 4    2  0.3855935E-007  0.7651431E+03  0.7818608E-02  0.9791970E-01
         -2   -1    0    0    0  501 -0.00000000000E+00  0.00000000000E+00  0.31347905548E+03  0.31347905549E+03  0.25500000000E-02 0.  1.
          2   -1    0    0  501    0  0.00000000000E+00 -0.00000000000E+00 -0.14254896913E+04  0.14254896913E+04  0.25500000000E-02 0. -1.
    8880023    1    1    2    0    0  0.38604689512E+03 -0.51004956323E+02 -0.29305974523E+03  0.81934603882E+03  0.65864270000E+03 0.  1.
    8880022    1    1    2    0    0 -0.38604689512E+03  0.51004956323E+02 -0.81895089062E+03  0.91962270799E+03  0.15294330000E+03 0.  0.
<mgrwt>
<rscale>  0 0.65795260E+03</rscale>
<asrwt>0</asrwt>
<pdfrwt beam="1">  1        2 0.21930610E+00 0.76514307E+03</pdfrwt>
<pdfrwt beam="2">  1       -2 0.48227548E-01 0.76514307E+03</pdfrwt>
<totfact> 0.58048857E+01</totfact>
</mgrwt>
</event>
<event>
 4    2  0.3855935E-007  0.7523783E+03  0.7818608E-02  0.9825254E-01
         -2   -1    0    0    0  501 -0.00000000000E+00  0.00000000000E+00  0.33705539398E+03  0.33705539399E+03  0.25500000000E-02 0.  1.
          2   -1    0    0  501    0  0.00000000000E+00 -0.00000000000E+00 -0.12390002080E+04  0.12390002080E+04  0.25500000000E-02 0. -1.
    8880023    1    1    2    0    0 -0.36037039571E+03  0.48950507942E+02 -0.21267458475E+03  0.78185910470E+03  0.65864270000E+03 0.  1.
    8880022    1    1    2    0    0  0.36037039571E+03 -0.48950507942E+02 -0.68927022924E+03  0.79419649727E+03  0.15294330000E+03 0.  0.
<mgrwt>
<rscale>  0 0.64024688E+03</rscale>
<asrwt>0</asrwt>
<pdfrwt beam="1">  1        2 0.19061541E+00 0.75237835E+03</pdfrwt>
<pdfrwt beam="2">  1       -2 0.51854677E-01 0.75237835E+03</pdfrwt>
<totfact> 0.64139429E+01</totfact>
</mgrwt>
</event>
<event>
 4    2  0.3855935E-007  0.1094639E+04  0.7818608E-02  0.9267049E-01
          2   -1    0    0  501    0  0.00000000000E+00  0.00000000000E+00  0.23328179313E+04  0.23328179313E+04  0.25500000000E-02 0. -1.
         -2   -1    0    0    0  501 -0.00000000000E+00 -0.00000000000E+00 -0.52028588567E+03  0.52028588568E+03  0.25500000000E-02 0.  1.
    8880023    1    1    2    0    0  0.55788517721E+03 -0.67319204641E+03  0.36271596795E+03  0.11531680198E+04  0.65864270000E+03 0.  1.
    8880022    1    1    2    0    0 -0.55788517721E+03  0.67319204641E+03  0.14498160777E+04  0.16999357972E+04  0.15294330000E+03 0.  0.
<mgrwt>
<rscale>  0 0.10387382E+04</rscale>
<asrwt>0</asrwt>
<pdfrwt beam="1">  1        2 0.35889506E+00 0.10946386E+04</pdfrwt>
<pdfrwt beam="2">  1       -2 0.80043983E-01 0.10946386E+04</pdfrwt>
<totfact> 0.59708802E+00</totfact>
</mgrwt>
</event>
<event>
 4    2  0.3855935E-007  0.7431146E+03  0.7818608E-02  0.9850966E-01
         -2   -1    0    0    0  501 -0.00000000000E+00  0.00000000000E+00  0.11082535190E+03  0.11082535193E+03  0.25500000000E-02 0.  1.
          2   -1    0    0  501    0  0.00000000000E+00 -0.00000000000E+00 -0.29056313631E+04  0.29056313631E+04  0.25500000000E-02 0. -1.
    8880023    1    1    2    0    0  0.10642323844E+03  0.32723573109E+03 -0.20758899130E+04  0.22048896268E+04  0.65864270000E+03 0. -1.
    8880022    1    1    2    0    0 -0.10642323844E+03 -0.32723573109E+03 -0.71891609821E+03  0.81156708821E+03  0.15294330000E+03 0.  0.
<mgrwt>
<rscale>  0 0.62697710E+03</rscale>
<asrwt>0</asrwt>
<pdfrwt beam="1">  1        2 0.44702015E+00 0.74311462E+03</pdfrwt>
<pdfrwt beam="2">  1       -2 0.17050056E-01 0.74311462E+03</pdfrwt>
<totfact> 0.59094003E+01</totfact>
</mgrwt>
</event>
<event>
 4    2  0.3855935E-007  0.8696930E+03  0.7818608E-02  0.9576549E-01
         -2   -1    0    0    0  501 -0.00000000000E+00  0.00000000000E+00  0.57773805951E+03  0.57773805952E+03  0.25500000000E-02 0.  1.
          2   -1    0    0  501    0  0.00000000000E+00 -0.00000000000E+00 -0.12651212049E+04  0.12651212049E+04  0.25500000000E-02 0. -1.
    8880023    1    1    2    0    0 -0.60411745111E+02  0.56471773236E+03  0.82964929631E+02  0.87364127764E+03  0.65864270000E+03 0.  1.
    8880022    1    1    2    0    0  0.60411745111E+02 -0.56471773236E+03 -0.77034807502E+03  0.96921798677E+03  0.15294330000E+03 0.  0.
<mgrwt>
<rscale>  0 0.78867982E+03</rscale>
<asrwt>0</asrwt>
<pdfrwt beam="1">  1        2 0.19463403E+00 0.86969299E+03</pdfrwt>
<pdfrwt beam="2">  1       -2 0.88882779E-01 0.86969299E+03</pdfrwt>
<totfact> 0.18983252E+01</totfact>
</mgrwt>
</event>
<event>
 4    2  0.3855935E-007  0.1021117E+04  0.7818608E-02  0.9354437E-01
         -2   -1    0    0    0  501 -0.00000000000E+00  0.00000000000E+00  0.53853467740E+03  0.53853467740E+03  0.25500000000E-02 0.  1.
          2   -1    0    0  501    0  0.00000000000E+00 -0.00000000000E+00 -0.23847213094E+04  0.23847213094E+04  0.25500000000E-02 0. -1.
    8880023    1    1    2    0    0  0.23466109528E+03 -0.74417956146E+03 -0.12686448240E+03  0.10289673719E+04  0.65864270000E+03 0.  0.
    8880022    1    1    2    0    0 -0.23466109528E+03  0.74417956146E+03 -0.17193221496E+04  0.18942886149E+04  0.15294330000E+03 0.  0.
<mgrwt>
<rscale>  0 0.95922071E+03</rscale>
<asrwt>0</asrwt>
<pdfrwt beam="1">  1        2 0.36688020E+00 0.10211167E+04</pdfrwt>
<pdfrwt beam="2">  1       -2 0.82851490E-01 0.10211167E+04</pdfrwt>
<totfact> 0.52072869E+00</totfact>
</mgrwt>
</event>
<event>
 4    2  0.3855935E-007  0.9125782E+03  0.7818608E-02  0.9506134E-01
         -2   -1    0    0    0  501 -0.00000000000E+00  0.00000000000E+00  0.31747665137E+03  0.31747665138E+03  0.25500000000E-02 0.  1.
          2   -1    0    0  501    0  0.00000000000E+00 -0.00000000000E+00 -0.21086526548E+04  0.21086526548E+04  0.25500000000E-02 0. -1.
    8880023    1    1    2    0    0 -0.33426508560E+03  0.53596227748E+03 -0.67707579243E+03  0.11363232574E+04  0.65864270000E+03 0.  0.
    8880022    1    1    2    0    0  0.33426508560E+03 -0.53596227748E+03 -0.11141002110E+04  0.12898060488E+04  0.15294330000E+03 0.  0.
<mgrwt>
<rscale>  0 0.83833099E+03</rscale>
<asrwt>0</asrwt>
<pdfrwt beam="1">  1        2 0.32440809E+00 0.91257817E+03</pdfrwt>
<pdfrwt beam="2">  1       -2 0.48842563E-01 0.91257817E+03</pdfrwt>
<totfact> 0.23411477E+01</totfact>
</mgrwt>
</event>
<event>
 4    2  0.3855935E-007  0.6601310E+03  0.7818608E-02  0.1024023E+00
          2   -1    0    0  501    0  0.00000000000E+00  0.00000000000E+00  0.18060033885E+04  0.18060033885E+04  0.25500000000E-02 0. -1.
         -2   -1    0    0    0  501 -0.00000000000E+00 -0.00000000000E+00 -0.23236053396E+03  0.23236053398E+03  0.25500000000E-02 0.  1.
    8880023    1    1    2    0    0 -0.38961145122E+02 -0.21088343473E+02  0.25110738389E+03  0.70627743385E+03  0.65864270000E+03 0.  1.
    8880022    1    1    2    0    0  0.38961145122E+02  0.21088343473E+02  0.13225354707E+04  0.13320864886E+04  0.15294330000E+03 0.  0.
<mgrwt>
<rscale>  0 0.46262503E+03</rscale>
<asrwt>0</asrwt>
<pdfrwt beam="1">  1        2 0.27784667E+00 0.66013097E+03</pdfrwt>
<pdfrwt beam="2">  1       -2 0.35747775E-01 0.66013097E+03</pdfrwt>
<totfact> 0.65246158E+01</totfact>
</mgrwt>
</event>
<event>
 4    2  0.3855935E-007  0.7470879E+03  0.7818608E-02  0.9839761E-01
          2   -1    0    0  501    0  0.00000000000E+00  0.00000000000E+00  0.48946559776E+04  0.48946559776E+04  0.25500000000E-02 0. -1.
         -2   -1    0    0    0  501 -0.00000000000E+00 -0.00000000000E+00 -0.88498515366E+02  0.88498515403E+02  0.25500000000E-02 0.  1.
    8880023    1    1    2    0    0 -0.16224216912E+03  0.31306170612E+03  0.41963239811E+04  0.42623086836E+04  0.65864270000E+03 0.  0.
    8880022    1    1    2    0    0  0.16224216912E+03 -0.31306170612E+03  0.60983348116E+03  0.72084580947E+03  0.15294330000E+03 0.  0.
<mgrwt>
<rscale>  0 0.63271679E+03</rscale>
<asrwt>0</asrwt>
<pdfrwt beam="1">  1        2 0.75302404E+00 0.74708792E+03</pdfrwt>
<pdfrwt beam="2">  1       -2 0.13615156E-01 0.74708792E+03</pdfrwt>
<totfact> 0.22171142E+00</totfact>
</mgrwt>
</event>
<event>
 4    2  0.3855935E-007  0.7035576E+03  0.7818608E-02  0.9982751E-01
         -2   -1    0    0    0  501 -0.00000000000E+00  0.00000000000E+00  0.38095419690E+03  0.38095419691E+03  0.25500000000E-02 0.  1.
          2   -1    0    0  501    0  0.00000000000E+00 -0.00000000000E+00 -0.17235039585E+04  0.17235039585E+04  0.25500000000E-02 0. -1.
    8880023    1    1    2    0    0 -0.15563094180E+03 -0.19225529267E+03  0.27291610079E+02  0.70408673177E+03  0.65864270000E+03 0.  1.
    8880022    1    1    2    0    0  0.15563094180E+03  0.19225529267E+03 -0.13698413717E+04  0.14003714236E+04  0.15294330000E+03 0.  0.
<mgrwt>
<rscale>  0 0.56413082E+03</rscale>
<asrwt>0</asrwt>
<pdfrwt beam="1">  1        2 0.26515445E+00 0.70355760E+03</pdfrwt>
<pdfrwt beam="2">  1       -2 0.58608339E-01 0.70355760E+03</pdfrwt>
<totfact> 0.26770472E+01</totfact>
</mgrwt>
</event>
<event>
 4    2  0.3855935E-007  0.1097198E+04  0.7818608E-02  0.9264182E-01
          2   -1    0    0  501    0  0.00000000000E+00  0.00000000000E+00  0.23580202393E+04  0.23580202393E+04  0.25500000000E-02 0. -1.
         -2   -1    0    0    0  501 -0.00000000000E+00 -0.00000000000E+00 -0.12103516999E+04  0.12103516999E+04  0.25500000000E-02 0.  1.
    8880023    1    1    2    0    0 -0.37553587254E+03  0.79309908317E+03 -0.84552957300E+03  0.13851945034E+04  0.65864270000E+03 0.  0.
    8880022    1    1    2    0    0  0.37553587254E+03 -0.79309908317E+03  0.19931981124E+04  0.21831774357E+04  0.15294330000E+03 0.  0.
<mgrwt>
<rscale>  0 0.10414826E+04</rscale>
<asrwt>0</asrwt>
<pdfrwt beam="1">  1        2 0.36277234E+00 0.10971980E+04</pdfrwt>
<pdfrwt beam="2">  1       -2 0.18620795E+00 0.10971980E+04</pdfrwt>
<totfact> 0.68287019E-01</totfact>
</mgrwt>
</event>
<event>
 4    2  0.3855935E-007  0.7658812E+03  0.7818608E-02  0.9790113E-01
         -2   -1    0    0    0  501 -0.00000000000E+00  0.00000000000E+00  0.25611637625E+03  0.25611637626E+03  0.25500000000E-02 0.  1.
          2   -1    0    0  501    0  0.00000000000E+00 -0.00000000000E+00 -0.14326280884E+04  0.14326280884E+04  0.25500000000E-02 0. -1.
    8880023    1    1    2    0    0  0.21818554764E+03  0.32428207797E+03 -0.58637139136E+03  0.96457525065E+03  0.65864270000E+03 0.  1.
    8880022    1    1    2    0    0 -0.21818554764E+03 -0.32428207797E+03 -0.59014032075E+03  0.72416921399E+03  0.15294330000E+03 0. -1.
<mgrwt>
<rscale>  0 0.65895850E+03</rscale>
<asrwt>0</asrwt>
<pdfrwt beam="1">  1        2 0.22040432E+00 0.76588120E+03</pdfrwt>
<pdfrwt beam="2">  1       -2 0.39402520E-01 0.76588120E+03</pdfrwt>
<totfact> 0.85858827E+01</totfact>
</mgrwt>
</event>
<event>
 4    2  0.3855935E-007  0.8368346E+03  0.7818608E-02  0.9636178E-01
         -2   -1    0    0    0  501 -0.00000000000E+00  0.00000000000E+00  0.41393234027E+03  0.41393234028E+03  0.25500000000E-02 0.  1.
          2   -1    0    0  501    0  0.00000000000E+00 -0.00000000000E+00 -0.23668017641E+04  0.23668017641E+04  0.25500000000E-02 0. -1.
    8880023    1    1    2    0    0 -0.48039407171E+03 -0.18895366654E+03 -0.20673505933E+04  0.22302983285E+04  0.65864270000E+03 0.  0.
    8880022    1    1    2    0    0  0.48039407171E+03  0.18895366654E+03  0.11448116944E+03  0.55043577591E+03  0.15294330000E+03 0.  0.
<mgrwt>
<rscale>  0 0.74947268E+03</rscale>
<asrwt>0</asrwt>
<pdfrwt beam="1">  1        2 0.36412334E+00 0.83683461E+03</pdfrwt>
<pdfrwt beam="2">  1       -2 0.63681900E-01 0.83683461E+03</pdfrwt>
<totfact> 0.97692660E+00</totfact>
</mgrwt>
</event>
<event>
 4    2  0.3855935E-007  0.7843052E+03  0.7818608E-02  0.9745819E-01
         -2   -1    0    0    0  501 -0.00000000000E+00  0.00000000000E+00  0.14428984329E+04  0.14428984329E+04  0.25500000000E-02 0.  1.
          2   -1    0    0  501    0  0.00000000000E+00 -0.00000000000E+00 -0.67008029957E+03  0.67008029957E+03  0.25500000000E-02 0. -1.
    8880023    1    1    2    0    0 -0.37931984835E+03  0.19349658332E+03  0.12370509791E+04  0.14647285777E+04  0.65864270000E+03 0.  1.
    8880022    1    1    2    0    0  0.37931984835E+03 -0.19349658332E+03 -0.46423284576E+03  0.64825015481E+03  0.15294330000E+03 0.  0.
<mgrwt>
<rscale>  0 0.68353040E+03</rscale>
<asrwt>0</asrwt>
<pdfrwt beam="1">  1        2 0.10308928E+00 0.78430522E+03</pdfrwt>
<pdfrwt beam="2">  1       -2 0.22198437E+00 0.78430522E+03</pdfrwt>
<totfact> 0.42397526E+00</totfact>
</mgrwt>
</event>
<event>
 4    2  0.3855935E-007  0.1094179E+04  0.7818608E-02  0.9267565E-01
         -2   -1    0    0    0  501 -0.00000000000E+00  0.00000000000E+00  0.12623487004E+04  0.12623487004E+04  0.25500000000E-02 0.  1.
          2   -1    0    0  501    0  0.00000000000E+00 -0.00000000000E+00 -0.15812011713E+04  0.15812011713E+04  0.25500000000E-02 0. -1.
    8880023    1    1    2    0    0 -0.36332634045E+03 -0.79461418225E+03  0.84338536516E+03  0.13814944114E+04  0.65864270000E+03 0.  0.
    8880022    1    1    2    0    0  0.36332634045E+03  0.79461418225E+03 -0.11622378361E+04  0.14620554603E+04  0.15294330000E+03 0.  0.
<mgrwt>
<rscale>  0 0.10382454E+04</rscale>
<asrwt>0</asrwt>
<pdfrwt beam="1">  1        2 0.24326172E+00 0.10941791E+04</pdfrwt>
<pdfrwt beam="2">  1       -2 0.19420749E+00 0.10941791E+04</pdfrwt>
<totfact> 0.16300182E+00</totfact>
</mgrwt>
</event>
<event>
 4    2  0.3855935E-007  0.1166610E+04  0.7818608E-02  0.9190283E-01
         -2   -1    0    0    0  501 -0.00000000000E+00  0.00000000000E+00  0.72037308480E+03  0.72037308480E+03  0.25500000000E-02 0.  1.
          2   -1    0    0  501    0  0.00000000000E+00 -0.00000000000E+00 -0.21618479000E+04  0.21618479000E+04  0.25500000000E-02 0. -1.
    8880023    1    1    2    0    0 -0.95959191408E+03  0.79698866300E+02 -0.30301123062E+02  0.11670033912E+04  0.65864270000E+03 0.  0.
    8880022    1    1    2    0    0  0.95959191408E+03 -0.79698866300E+02 -0.14111736921E+04  0.17152175935E+04  0.15294330000E+03 0.  0.
<mgrwt>
<rscale>  0 0.11154284E+04</rscale>
<asrwt>0</asrwt>
<pdfrwt beam="1">  1        2 0.33259198E+00 0.11666099E+04</pdfrwt>
<pdfrwt beam="2">  1       -2 0.11082663E+00 0.11666099E+04</pdfrwt>
<totfact> 0.34379472E+00</totfact>
</mgrwt>
</event>
<event>
 4    2  0.3855935E-007  0.8657948E+03  0.7818608E-02  0.9583338E-01
          2   -1    0    0  501    0  0.00000000000E+00  0.00000000000E+00  0.12818692740E+04  0.12818692740E+04  0.25500000000E-02 0. -1.
         -2   -1    0    0    0  501 -0.00000000000E+00 -0.00000000000E+00 -0.12030120838E+04  0.12030120838E+04  0.25500000000E-02 0.  1.
    8880023    1    1    2    0    0  0.43297446476E+03 -0.35822270129E+03 -0.96072038314E+03  0.12932842888E+04  0.65864270000E+03 0.  1.
    8880022    1    1    2    0    0 -0.43297446476E+03  0.35822270129E+03  0.10395775734E+04  0.11915970690E+04  0.15294330000E+03 0.  0.
<mgrwt>
<rscale>  0 0.78408894E+03</rscale>
<asrwt>0</asrwt>
<pdfrwt beam="1">  1        2 0.19721066E+00 0.86579478E+03</pdfrwt>
<pdfrwt beam="2">  1       -2 0.18507878E+00 0.86579478E+03</pdfrwt>
<totfact> 0.28598364E+00</totfact>
</mgrwt>
</event>
<event>
 4    2  0.3855935E-007  0.6607129E+03  0.7818608E-02  0.1023438E+00
         -2   -1    0    0    0  501 -0.00000000000E+00  0.00000000000E+00  0.18900438419E+03  0.18900438421E+03  0.25500000000E-02 0.  1.
          2   -1    0    0  501    0  0.00000000000E+00 -0.00000000000E+00 -0.92701130422E+03  0.92701130423E+03  0.25500000000E-02 0. -1.
    8880023    1    1    2    0    0  0.37329809178E+02 -0.36577014888E+02 -0.50117048959E+03  0.82928490796E+03  0.65864270000E+03 0.  1.
    8880022    1    1    2    0    0 -0.37329809178E+02  0.36577014888E+02 -0.23683643045E+03  0.28673078048E+03  0.15294330000E+03 0. -1.
<mgrwt>
<rscale>  0 0.46466246E+03</rscale>
<asrwt>0</asrwt>
<pdfrwt beam="1">  1        2 0.14261712E+00 0.66071295E+03</pdfrwt>
<pdfrwt beam="2">  1       -2 0.29077598E-01 0.66071295E+03</pdfrwt>
<totfact> 0.30918505E+02</totfact>
</mgrwt>
</event>
<event>
 4    2  0.3855935E-007  0.7922288E+03  0.7818608E-02  0.9727858E-01
          2   -1    0    0  501    0  0.00000000000E+00  0.00000000000E+00  0.72497119724E+03  0.72497119724E+03  0.25500000000E-02 0. -1.
         -2   -1    0    0    0  501 -0.00000000000E+00 -0.00000000000E+00 -0.66265232276E+03  0.66265232276E+03  0.25500000000E-02 0.  1.
    8880023    1    1    2    0    0 -0.28931872038E+03 -0.33182958464E+03  0.32076764630E+03  0.85470362371E+03  0.65864270000E+03 0.  0.
    8880022    1    1    2    0    0  0.28931872038E+03  0.33182958464E+03 -0.25844877182E+03  0.53291989630E+03  0.15294330000E+03 0.  0.
<mgrwt>
<rscale>  0 0.69382092E+03</rscale>
<asrwt>0</asrwt>
<pdfrwt beam="1">  1        2 0.11153403E+00 0.79222876E+03</pdfrwt>
<pdfrwt beam="2">  1       -2 0.10194651E+00 0.79222876E+03</pdfrwt>
<totfact> 0.31219791E+01</totfact>
</mgrwt>
</event>
<event>
 4    2  0.3855935E-007  0.8271815E+03  0.7818608E-02  0.9654841E-01
         -2   -1    0    0    0  501 -0.00000000000E+00  0.00000000000E+00  0.33795948356E+03  0.33795948357E+03  0.25500000000E-02 0.  1.
          2   -1    0    0  501    0  0.00000000000E+00 -0.00000000000E+00 -0.28970878042E+04  0.28970878042E+04  0.25500000000E-02 0. -1.
    8880023    1    1    2    0    0  0.11105135317E+03 -0.48794121387E+03 -0.24529789220E+03  0.86278635444E+03  0.65864270000E+03 0.  1.
    8880022    1    1    2    0    0 -0.11105135317E+03  0.48794121387E+03 -0.23138304285E+04  0.23722609334E+04  0.15294330000E+03 0.  0.
<mgrwt>
<rscale>  0 0.73770361E+03</rscale>
<asrwt>0</asrwt>
<pdfrwt beam="1">  1        2 0.44570580E+00 0.82718150E+03</pdfrwt>
<pdfrwt beam="2">  1       -2 0.51993768E-01 0.82718150E+03</pdfrwt>
<totfact> 0.73785649E+00</totfact>
</mgrwt>
</event>
<event>
 4    2  0.3855935E-007  0.7340817E+03  0.7818608E-02  0.9877534E-01
          2   -1    0    0  501    0  0.00000000000E+00  0.00000000000E+00  0.35336360941E+04  0.35336360941E+04  0.25500000000E-02 0. -1.
         -2   -1    0    0    0  501 -0.00000000000E+00 -0.00000000000E+00 -0.10509461629E+03  0.10509461632E+03  0.25500000000E-02 0.  1.
    8880023    1    1    2    0    0  0.28349286015E+03 -0.15715464361E+03  0.14206352778E+04  0.15990874218E+04  0.65864270000E+03 0.  0.
    8880022    1    1    2    0    0 -0.28349286015E+03  0.15715464361E+03  0.20079062000E+04  0.20396432886E+04  0.15294330000E+03 0.  0.
<mgrwt>
<rscale>  0 0.61362525E+03</rscale>
<asrwt>0</asrwt>
<pdfrwt beam="1">  1        2 0.54363635E+00 0.73408173E+03</pdfrwt>
<pdfrwt beam="2">  1       -2 0.16168402E-01 0.73408173E+03</pdfrwt>
<totfact> 0.25654070E+01</totfact>
</mgrwt>
</event>
<event>
 4    2  0.3855935E-007  0.9285000E+03  0.7818608E-02  0.9481747E-01
          2   -1    0    0  501    0  0.00000000000E+00  0.00000000000E+00  0.15886592805E+04  0.15886592805E+04  0.25500000000E-02 0. -1.
         -2   -1    0    0    0  501 -0.00000000000E+00 -0.00000000000E+00 -0.61451873247E+03  0.61451873248E+03  0.25500000000E-02 0.  1.
    8880023    1    1    2    0    0 -0.12841224274E+03  0.64172613503E+03 -0.10233852447E+03  0.93412285933E+03  0.65864270000E+03 0.  0.
    8880022    1    1    2    0    0  0.12841224274E+03 -0.64172613503E+03  0.10764790725E+04  0.12690551536E+04  0.15294330000E+03 0.  0.
<mgrwt>
<rscale>  0 0.85643018E+03</rscale>
<asrwt>0</asrwt>
<pdfrwt beam="1">  1        2 0.24440912E+00 0.92850005E+03</pdfrwt>
<pdfrwt beam="2">  1       -2 0.94541345E-01 0.92850005E+03</pdfrwt>
<totfact> 0.10710781E+01</totfact>
</mgrwt>
</event>
<event>
 4    2  0.3855935E-007  0.7519098E+03  0.7818608E-02  0.9826521E-01
          2   -1    0    0  501    0  0.00000000000E+00  0.00000000000E+00  0.18042545443E+04  0.18042545443E+04  0.25500000000E-02 0. -1.
         -2   -1    0    0    0  501 -0.00000000000E+00 -0.00000000000E+00 -0.36104646671E+03  0.36104646672E+03  0.25500000000E-02 0.  1.
    8880023    1    1    2    0    0  0.25362800753E+03  0.25928942848E+03  0.91516464120E+02  0.75745867438E+03  0.65864270000E+03 0.  0.
    8880022    1    1    2    0    0 -0.25362800753E+03 -0.25928942848E+03  0.13516916135E+04  0.14078423367E+04  0.15294330000E+03 0.  0.
<mgrwt>
<rscale>  0 0.63958491E+03</rscale>
<asrwt>0</asrwt>
<pdfrwt beam="1">  1        2 0.27757762E+00 0.75190982E+03</pdfrwt>
<pdfrwt beam="2">  1       -2 0.55545611E-01 0.75190982E+03</pdfrwt>
<totfact> 0.26891303E+01</totfact>
</mgrwt>
</event>
<event>
 4    2  0.3855935E-007  0.9508396E+03  0.7818608E-02  0.9448907E-01
          2   -1    0    0  501    0  0.00000000000E+00  0.00000000000E+00  0.23418166351E+04  0.23418166351E+04  0.25500000000E-02 0. -1.
         -2   -1    0    0    0  501 -0.00000000000E+00 -0.00000000000E+00 -0.44779951869E+03  0.44779951870E+03  0.25500000000E-02 0.  1.
    8880023    1    1    2    0    0 -0.68272339169E+03 -0.64610645345E+02  0.22263888032E+03  0.97655723967E+03  0.65864270000E+03 0.  1.
    8880022    1    1    2    0    0  0.68272339169E+03  0.64610645345E+02  0.16713782361E+04  0.18130589141E+04  0.15294330000E+03 0.  0.
<mgrwt>
<rscale>  0 0.88157823E+03</rscale>
<asrwt>0</asrwt>
<pdfrwt beam="1">  1        2 0.36027949E+00 0.95083961E+03</pdfrwt>
<pdfrwt beam="2">  1       -2 0.68892233E-01 0.95083961E+03</pdfrwt>
<totfact> 0.83809788E+00</totfact>
</mgrwt>
</event>
<event>
 4    2  0.3855935E-007  0.7149661E+03  0.7818608E-02  0.9940002E-01
         -2   -1    0    0    0  501 -0.00000000000E+00  0.00000000000E+00  0.26063523196E+03  0.26063523197E+03  0.25500000000E-02 0.  1.
          2   -1    0    0  501    0  0.00000000000E+00 -0.00000000000E+00 -0.12573672216E+04  0.12573672216E+04  0.25500000000E-02 0. -1.
    8880023    1    1    2    0    0  0.15550770517E+03  0.23061572750E+03 -0.34666657581E+03  0.79457798936E+03  0.65864270000E+03 0.  1.
    8880022    1    1    2    0    0 -0.15550770517E+03 -0.23061572750E+03 -0.65006541384E+03  0.72342446422E+03  0.15294330000E+03 0.  0.
<mgrwt>
<rscale>  0 0.58361167E+03</rscale>
<asrwt>0</asrwt>
<pdfrwt beam="1">  1        2 0.19344111E+00 0.71496606E+03</pdfrwt>
<pdfrwt beam="2">  1       -2 0.40097729E-01 0.71496606E+03</pdfrwt>
<totfact> 0.10496735E+02</totfact>
</mgrwt>
</event>
<event>
 4    2  0.3855935E-007  0.7105867E+03  0.7818608E-02  0.9955829E-01
         -2   -1    0    0    0  501 -0.00000000000E+00  0.00000000000E+00  0.26617073552E+03  0.26617073553E+03  0.25500000000E-02 0.  1.
          2   -1    0    0  501    0  0.00000000000E+00 -0.00000000000E+00 -0.29423177051E+04  0.29423177051E+04  0.25500000000E-02 0. -1.
    8880023    1    1    2    0    0  0.18748558418E+03 -0.18966395626E+03 -0.23555829452E+03  0.74861283516E+03  0.65864270000E+03 0.  1.
    8880022    1    1    2    0    0 -0.18748558418E+03  0.18966395626E+03 -0.24405886750E+04  0.24598756054E+04  0.15294330000E+03 0.  0.
<mgrwt>
<rscale>  0 0.57630230E+03</rscale>
<asrwt>0</asrwt>
<pdfrwt beam="1">  1        2 0.45266424E+00 0.71058671E+03</pdfrwt>
<pdfrwt beam="2">  1       -2 0.40949346E-01 0.71058671E+03</pdfrwt>
<totfact> 0.11413644E+01</totfact>
</mgrwt>
</event>
<event>
 4    2  0.3855935E-007  0.7179134E+03  0.7818608E-02  0.9929710E-01
         -2   -1    0    0    0  501 -0.00000000000E+00  0.00000000000E+00  0.13732315149E+03  0.13732315152E+03  0.25500000000E-02 0.  1.
          2   -1    0    0  501    0  0.00000000000E+00 -0.00000000000E+00 -0.29042500026E+04  0.29042500026E+04  0.25500000000E-02 0. -1.
    8880023    1    1    2    0    0  0.19521452631E+03  0.20852042906E+03 -0.92265405790E+03  0.11690552585E+04  0.65864270000E+03 0.  1.
    8880022    1    1    2    0    0 -0.19521452631E+03 -0.20852042906E+03 -0.18442727932E+04  0.18725178956E+04  0.15294330000E+03 0.  0.
<mgrwt>
<rscale>  0 0.58842750E+03</rscale>
<asrwt>0</asrwt>
<pdfrwt beam="1">  1        2 0.44680765E+00 0.71791343E+03</pdfrwt>
<pdfrwt beam="2">  1       -2 0.21126641E-01 0.71791343E+03</pdfrwt>
<totfact> 0.40940306E+01</totfact>
</mgrwt>
</event>
<event>
 4    2  0.3855935E-007  0.6971699E+03  0.7818608E-02  0.1000915E+00
          2   -1    0    0  501    0  0.00000000000E+00  0.00000000000E+00  0.25736365414E+04  0.25736365414E+04  0.25500000000E-02 0. -1.
         -2   -1    0    0    0  501 -0.00000000000E+00 -0.00000000000E+00 -0.22501085422E+03  0.22501085424E+03  0.25500000000E-02 0.  1.
    8880023    1    1    2    0    0  0.19169095408E+03  0.12445966124E+03  0.34797969041E+03  0.77918913003E+03  0.65864270000E+03 0.  1.
    8880022    1    1    2    0    0 -0.19169095408E+03 -0.12445966124E+03  0.20006459968E+04  0.20194582656E+04  0.15294330000E+03 0.  0.
<mgrwt>
<rscale>  0 0.55250826E+03</rscale>
<asrwt>0</asrwt>
<pdfrwt beam="1">  1        2 0.39594408E+00 0.69716988E+03</pdfrwt>
<pdfrwt beam="2">  1       -2 0.34617055E-01 0.69716988E+03</pdfrwt>
<totfact> 0.26021710E+01</totfact>
</mgrwt>
</event>
<event>
 4    2  0.3855935E-007  0.6691227E+03  0.7818608E-02  0.1016300E+00
         -2   -1    0    0    0  501 -0.00000000000E+00  0.00000000000E+00  0.17250038984E+03  0.17250038986E+03  0.25500000000E-02 0.  1.
          2   -1    0    0  501    0  0.00000000000E+00 -0.00000000000E+00 -0.23267306484E+04  0.23267306484E+04  0.25500000000E-02 0. -1.
    8880023    1    1    2    0    0 -0.24404118579E+02  0.11540996644E+03 -0.50390860516E+03  0.83764497848E+03  0.65864270000E+03 0.  1.
    8880022    1    1    2    0    0  0.24404118579E+02 -0.11540996644E+03 -0.16503216534E+04  0.16615860598E+04  0.15294330000E+03 0.  0.
<mgrwt>
<rscale>  0 0.49045894E+03</rscale>
<asrwt>0</asrwt>
<pdfrwt beam="1">  1        2 0.35795854E+00 0.66912273E+03</pdfrwt>
<pdfrwt beam="2">  1       -2 0.26538523E-01 0.66912273E+03</pdfrwt>
<totfact> 0.58932725E+01</totfact>
</mgrwt>
</event>
<event>
 4    2  0.3855935E-007  0.1846157E+04  0.7818608E-02  0.8697425E-01
         -2   -1    0    0    0  501 -0.00000000000E+00  0.00000000000E+00  0.20704908699E+04  0.20704908699E+04  0.25500000000E-02 0.  1.
          2   -1    0    0  501    0  0.00000000000E+00 -0.00000000000E+00 -0.23959385633E+04  0.23959385633E+04  0.25500000000E-02 0. -1.
    8880023    1    1    2    0    0  0.22308323590E+03 -0.17101807880E+04  0.11640229121E+04  0.21824857397E+04  0.65864270000E+03 0.  0.
    8880022    1    1    2    0    0 -0.22308323590E+03  0.17101807880E+04 -0.14894706054E+04  0.22839436935E+04  0.15294330000E+03 0.  0.
<mgrwt>
<rscale>  0 0.18167833E+04</rscale>
<asrwt>0</asrwt>
<pdfrwt beam="1">  1        2 0.36860593E+00 0.18461567E+04</pdfrwt>
<pdfrwt beam="2">  1       -2 0.31853706E+00 0.18461567E+04</pdfrwt>
<totfact> 0.87972400E-02</totfact>
</mgrwt>
</event>
<event>
 4    2  0.3855935E-007  0.8530614E+03  0.7818608E-02  0.9606027E-01
         -2   -1    0    0    0  501 -0.00000000000E+00  0.00000000000E+00  0.55797133071E+03  0.55797133072E+03  0.25500000000E-02 0.  1.
          2   -1    0    0  501    0  0.00000000000E+00 -0.00000000000E+00 -0.20813390533E+04  0.20813390533E+04  0.25500000000E-02 0. -1.
    8880023    1    1    2    0    0  0.54150169555E+03 -0.26064841215E+02  0.15669426142E+03  0.86733313096E+03  0.65864270000E+03 0.  0.
    8880022    1    1    2    0    0 -0.54150169555E+03  0.26064841215E+02 -0.16800619840E+04  0.17719772530E+04  0.15294330000E+03 0.  0.
<mgrwt>
<rscale>  0 0.76898545E+03</rscale>
<asrwt>0</asrwt>
<pdfrwt beam="1">  1        2 0.32020600E+00 0.85306135E+03</pdfrwt>
<pdfrwt beam="2">  1       -2 0.85841744E-01 0.85306135E+03</pdfrwt>
<totfact> 0.72457589E+00</totfact>
</mgrwt>
</event>
<event>
 4    2  0.3855935E-007  0.7412428E+03  0.7818608E-02  0.9856341E-01
          2   -1    0    0  501    0  0.00000000000E+00  0.00000000000E+00  0.99022699795E+03  0.99022699795E+03  0.25500000000E-02 0. -1.
         -2   -1    0    0    0  501 -0.00000000000E+00 -0.00000000000E+00 -0.40305731855E+03  0.40305731856E+03  0.25500000000E-02 0.  1.
    8880023    1    1    2    0    0  0.77003521185E+02 -0.33121170101E+03  0.68340522515E+03  0.10082081339E+04  0.65864270000E+03 0.  0.
    8880022    1    1    2    0    0 -0.77003521185E+02  0.33121170101E+03 -0.96235545756E+02  0.38507618265E+03  0.15294330000E+03 0.  0.
<mgrwt>
<rscale>  0 0.62424629E+03</rscale>
<asrwt>0</asrwt>
<pdfrwt beam="1">  1        2 0.15234261E+00 0.74124283E+03</pdfrwt>
<pdfrwt beam="2">  1       -2 0.62008818E-01 0.74124283E+03</pdfrwt>
<totfact> 0.62683936E+01</totfact>
</mgrwt>
</event>
<event>
 4    2  0.3855935E-007  0.1170491E+04  0.7818608E-02  0.9186355E-01
          2   -1    0    0  501    0  0.00000000000E+00  0.00000000000E+00  0.87271662508E+03  0.87271662508E+03  0.25500000000E-02 0. -1.
         -2   -1    0    0    0  501 -0.00000000000E+00 -0.00000000000E+00 -0.15418724533E+04  0.15418724533E+04  0.25500000000E-02 0.  1.
    8880023    1    1    2    0    0  0.96759375594E+03 -0.86218589240E+00 -0.81207646432E+03  0.14246111084E+04  0.65864270000E+03 0.  0.
    8880022    1    1    2    0    0 -0.96759375594E+03  0.86218589240E+00  0.14292063609E+03  0.98997797003E+03  0.15294330000E+03 0.  0.
<mgrwt>
<rscale>  0 0.11195383E+04</rscale>
<asrwt>0</asrwt>
<pdfrwt beam="1">  1        2 0.13426410E+00 0.11704908E+04</pdfrwt>
<pdfrwt beam="2">  1       -2 0.23721115E+00 0.11704908E+04</pdfrwt>
<totfact> 0.23069678E+00</totfact>
</mgrwt>
</event>
<event>
 4    2  0.3855935E-007  0.7145064E+03  0.7818608E-02  0.9941633E-01
         -2   -1    0    0    0  501 -0.00000000000E+00  0.00000000000E+00  0.31805285149E+03  0.31805285150E+03  0.25500000000E-02 0.  1.
          2   -1    0    0  501    0  0.00000000000E+00 -0.00000000000E+00 -0.35196211903E+04  0.35196211903E+04  0.25500000000E-02 0. -1.
    8880023    1    1    2    0    0 -0.40972979002E+02  0.27391678190E+03 -0.10170742775E+03  0.72170894101E+03  0.65864270000E+03 0.  1.
    8880022    1    1    2    0    0  0.40972979002E+02 -0.27391678190E+03 -0.30998609111E+04  0.31159651008E+04  0.15294330000E+03 0.  0.
<mgrwt>
<rscale>  0 0.58285336E+03</rscale>
<asrwt>0</asrwt>
<pdfrwt beam="1">  1        2 0.54148016E+00 0.71450640E+03</pdfrwt>
<pdfrwt beam="2">  1       -2 0.48931210E-01 0.71450640E+03</pdfrwt>
<totfact> 0.34103747E+00</totfact>
</mgrwt>
</event>
<event>
 4    2  0.3855935E-007  0.8206855E+03  0.7818608E-02  0.9667735E-01
          2   -1    0    0  501    0  0.00000000000E+00  0.00000000000E+00  0.26845744469E+04  0.26845744469E+04  0.25500000000E-02 0. -1.
         -2   -1    0    0    0  501 -0.00000000000E+00 -0.00000000000E+00 -0.18622347587E+03  0.18622347588E+03  0.25500000000E-02 0.  1.
    8880023    1    1    2    0    0  0.12335086502E+03  0.47381336245E+03  0.19714766605E+04  0.21354730079E+04  0.65864270000E+03 0. -1.
    8880022    1    1    2    0    0 -0.12335086502E+03 -0.47381336245E+03  0.52687431055E+03  0.73532491490E+03  0.15294330000E+03 0. -1.
<mgrwt>
<rscale>  0 0.72970776E+03</rscale>
<asrwt>0</asrwt>
<pdfrwt beam="1">  1        2 0.41301143E+00 0.82068553E+03</pdfrwt>
<pdfrwt beam="2">  1       -2 0.28649767E-01 0.82068553E+03</pdfrwt>
<totfact> 0.31425422E+01</totfact>
</mgrwt>
</event>
<event>
 4    2  0.3855935E-007  0.7843315E+03  0.7818608E-02  0.9745759E-01
         -2   -1    0    0    0  501 -0.00000000000E+00  0.00000000000E+00  0.28761615385E+03  0.28761615386E+03  0.25500000000E-02 0.  1.
          2   -1    0    0  501    0  0.00000000000E+00 -0.00000000000E+00 -0.14669424369E+04  0.14669424369E+04  0.25500000000E-02 0. -1.
    8880023    1    1    2    0    0  0.42452292668E+03  0.33851830528E+02 -0.47361446525E+03  0.91623497514E+03  0.65864270000E+03 0.  0.
    8880022    1    1    2    0    0 -0.42452292668E+03 -0.33851830528E+02 -0.70571181779E+03  0.83832361561E+03  0.15294330000E+03 0.  0.
<mgrwt>
<rscale>  0 0.68356476E+03</rscale>
<asrwt>0</asrwt>
<pdfrwt beam="1">  1        2 0.22568345E+00 0.78433148E+03</pdfrwt>
<pdfrwt beam="2">  1       -2 0.44248640E-01 0.78433148E+03</pdfrwt>
<totfact> 0.65267264E+01</totfact>
</mgrwt>
</event>
<event>
 4    2  0.3855935E-007  0.8761147E+03  0.7818608E-02  0.9565517E-01
         -2   -1    0    0    0  501 -0.00000000000E+00  0.00000000000E+00  0.21347897739E+03  0.21347897741E+03  0.25500000000E-02 0.  1.
          2   -1    0    0  501    0  0.00000000000E+00 -0.00000000000E+00 -0.26424018216E+04  0.26424018216E+04  0.25500000000E-02 0. -1.
    8880023    1    1    2    0    0 -0.55575353590E+03  0.15781267798E+03 -0.17068604263E+04  0.19185800882E+04  0.65864270000E+03 0. -1.
    8880022    1    1    2    0    0  0.55575353590E+03 -0.15781267798E+03 -0.72206241797E+03  0.93730071080E+03  0.15294330000E+03 0.  0.
<mgrwt>
<rscale>  0 0.79621135E+03</rscale>
<asrwt>0</asrwt>
<pdfrwt beam="1">  1        2 0.40652333E+00 0.87611474E+03</pdfrwt>
<pdfrwt beam="2">  1       -2 0.32842922E-01 0.87611474E+03</pdfrwt>
<totfact> 0.25578692E+01</totfact>
</mgrwt>
</event>
<event>
 4    2  0.3855935E-007  0.6656697E+03  0.7818608E-02  0.1018978E+00
         -2   -1    0    0    0  501 -0.00000000000E+00  0.00000000000E+00  0.10788792435E+03  0.10788792439E+03  0.25500000000E-02 0.  1.
          2   -1    0    0  501    0  0.00000000000E+00 -0.00000000000E+00 -0.18382587821E+04  0.18382587821E+04  0.25500000000E-02 0. -1.
    8880023    1    1    2    0    0 -0.24408481892E+02  0.93328584385E+02 -0.15666865516E+04  0.17022405693E+04  0.65864270000E+03 0.  0.
    8880022    1    1    2    0    0  0.24408481892E+02 -0.93328584385E+02 -0.16368430616E+03  0.24390613717E+03  0.15294330000E+03 0.  0.
<mgrwt>
<rscale>  0 0.48057224E+03</rscale>
<asrwt>0</asrwt>
<pdfrwt beam="1">  1        2 0.28280902E+00 0.66566974E+03</pdfrwt>
<pdfrwt beam="2">  1       -2 0.16598144E-01 0.66566974E+03</pdfrwt>
<totfact> 0.24890117E+02</totfact>
</mgrwt>
</event>
<event>
 4    2  0.3855935E-007  0.6878939E+03  0.7818608E-02  0.1005170E+00
         -2   -1    0    0    0  501 -0.00000000000E+00  0.00000000000E+00  0.27793154101E+03  0.27793154102E+03  0.25500000000E-02 0.  1.
          2   -1    0    0  501    0  0.00000000000E+00 -0.00000000000E+00 -0.21304980345E+04  0.21304980345E+04  0.25500000000E-02 0. -1.
    8880023    1    1    2    0    0 -0.76118318442E+02 -0.18328620283E+03 -0.17171016354E+03  0.70900099935E+03  0.65864270000E+03 0.  1.
    8880022    1    1    2    0    0  0.76118318442E+02  0.18328620283E+03 -0.16808563299E+04  0.16994285761E+04  0.15294330000E+03 0.  0.
<mgrwt>
<rscale>  0 0.53440230E+03</rscale>
<asrwt>0</asrwt>
<pdfrwt beam="1">  1        2 0.32776892E+00 0.68789391E+03</pdfrwt>
<pdfrwt beam="2">  1       -2 0.42758700E-01 0.68789391E+03</pdfrwt>
<totfact> 0.30588633E+01</totfact>
</mgrwt>
</event>
<event>
 4    2  0.3855935E-007  0.8787864E+03  0.7818608E-02  0.9560982E-01
          2   -1    0    0  501    0  0.00000000000E+00  0.00000000000E+00  0.13287712595E+04  0.13287712595E+04  0.25500000000E-02 0. -1.
         -2   -1    0    0    0  501 -0.00000000000E+00 -0.00000000000E+00 -0.10726338364E+04  0.10726338364E+04  0.25500000000E-02 0.  1.
    8880023    1    1    2    0    0  0.97211353559E+02  0.57358981864E+03 -0.79843410490E+03  0.11873342215E+04  0.65864270000E+03 0.  1.
    8880022    1    1    2    0    0 -0.97211353559E+02 -0.57358981864E+03  0.10545715281E+04  0.12140708744E+04  0.15294330000E+03 0.  0.
<mgrwt>
<rscale>  0 0.79933368E+03</rscale>
<asrwt>0</asrwt>
<pdfrwt beam="1">  1        2 0.20442635E+00 0.87878640E+03</pdfrwt>
<pdfrwt beam="2">  1       -2 0.16502059E+00 0.87878640E+03</pdfrwt>
<totfact> 0.37043834E+00</totfact>
</mgrwt>
</event>
<event>
 4    2  0.3855935E-007  0.6638605E+03  0.7818608E-02  0.1020509E+00
          2   -1    0    0  501    0  0.00000000000E+00  0.00000000000E+00  0.46816610446E+03  0.46816610447E+03  0.25500000000E-02 0. -1.
         -2   -1    0    0    0  501 -0.00000000000E+00 -0.00000000000E+00 -0.59481429737E+03  0.59481429737E+03  0.25500000000E-02 0.  1.
    8880023    1    1    2    0    0 -0.36750079776E+02 -0.74497998163E+02 -0.37290594130E+03  0.76142600915E+03  0.65864270000E+03 0.  0.
    8880022    1    1    2    0    0  0.36750079776E+02  0.74497998163E+02  0.24625774839E+03  0.30155439269E+03  0.15294330000E+03 0.  0.
<mgrwt>
<rscale>  0 0.47503314E+03</rscale>
<asrwt>0</asrwt>
<pdfrwt beam="1">  1        2 0.72025554E-01 0.66386047E+03</pdfrwt>
<pdfrwt beam="2">  1       -2 0.91509892E-01 0.66386047E+03</pdfrwt>
<totfact> 0.68710755E+01</totfact>
</mgrwt>
</event>
<event>
 4    2  0.3855935E-007  0.7305454E+03  0.7818608E-02  0.9888396E-01
         -2   -1    0    0    0  501 -0.00000000000E+00  0.00000000000E+00  0.33253672852E+03  0.33253672853E+03  0.25500000000E-02 0.  1.
          2   -1    0    0  501    0  0.00000000000E+00 -0.00000000000E+00 -0.25405650007E+04  0.25405650007E+04  0.25500000000E-02 0. -1.
    8880023    1    1    2    0    0 -0.17243447529E+03 -0.26486353303E+03 -0.10155864169E+03  0.73757081244E+03  0.65864270000E+03 0.  1.
    8880022    1    1    2    0    0  0.17243447529E+03  0.26486353303E+03 -0.21064696305E+04  0.21355309168E+04  0.15294330000E+03 0.  0.
<mgrwt>
<rscale>  0 0.60826957E+03</rscale>
<asrwt>0</asrwt>
<pdfrwt beam="1">  1        2 0.39085614E+00 0.73054538E+03</pdfrwt>
<pdfrwt beam="2">  1       -2 0.51159499E-01 0.73054538E+03</pdfrwt>
<totfact> 0.12527078E+01</totfact>
</mgrwt>
</event>
<event>
 4    2  0.3855935E-007  0.7707261E+03  0.7818608E-02  0.9778090E-01
          2   -1    0    0  501    0  0.00000000000E+00  0.00000000000E+00  0.22577075123E+04  0.22577075123E+04  0.25500000000E-02 0. -1.
         -2   -1    0    0    0  501 -0.00000000000E+00 -0.00000000000E+00 -0.22477674526E+03  0.22477674527E+03  0.25500000000E-02 0.  1.
    8880023    1    1    2    0    0 -0.39396342957E+03 -0.70720256139E+02  0.57139568545E+03  0.95943304825E+03  0.65864270000E+03 0.  0.
    8880022    1    1    2    0    0  0.39396342957E+03  0.70720256139E+02  0.14615350816E+04  0.15230512093E+04  0.15294330000E+03 0.  0.
<mgrwt>
<rscale>  0 0.66551707E+03</rscale>
<asrwt>0</asrwt>
<pdfrwt beam="1">  1        2 0.34733960E+00 0.77072612E+03</pdfrwt>
<pdfrwt beam="2">  1       -2 0.34581039E-01 0.77072612E+03</pdfrwt>
<totfact> 0.38819766E+01</totfact>
</mgrwt>
</event>
<event>
 4    2  0.3855935E-007  0.6612420E+03  0.7818608E-02  0.1022919E+00
          2   -1    0    0  501    0  0.00000000000E+00  0.00000000000E+00  0.33873437315E+04  0.33873437315E+04  0.25500000000E-02 0. -1.
         -2   -1    0    0    0  501 -0.00000000000E+00 -0.00000000000E+00 -0.56457874227E+03  0.56457874227E+03  0.25500000000E-02 0.  1.
    8880023    1    1    2    0    0 -0.30931204608E+02 -0.49739506771E+02 -0.36814195922E+03  0.75681534495E+03  0.65864270000E+03 0.  1.
    8880022    1    1    2    0    0  0.30931204608E+02  0.49739506771E+02  0.31909069485E+04  0.31951071289E+04  0.15294330000E+03 0.  0.
<mgrwt>
<rscale>  0 0.46647948E+03</rscale>
<asrwt>0</asrwt>
<pdfrwt beam="1">  1        2 0.52112981E+00 0.66124199E+03</pdfrwt>
<pdfrwt beam="2">  1       -2 0.86858267E-01 0.66124199E+03</pdfrwt>
<totfact> 0.12351782E+00</totfact>
</mgrwt>
</event>
<event>
 4    2  0.3855935E-007  0.6701236E+03  0.7818608E-02  0.1015574E+00
          2   -1    0    0  501    0  0.00000000000E+00  0.00000000000E+00  0.15077142651E+04  0.15077142651E+04  0.25500000000E-02 0. -1.
         -2   -1    0    0    0  501 -0.00000000000E+00 -0.00000000000E+00 -0.92616550176E+03  0.92616550176E+03  0.25500000000E-02 0.  1.
    8880023    1    1    2    0    0 -0.85342646101E+02  0.89286593235E+02 -0.79705647122E+03  0.10413283284E+04  0.65864270000E+03 0.  1.
    8880022    1    1    2    0    0  0.85342646101E+02 -0.89286593235E+02  0.13786052345E+04  0.13925514384E+04  0.15294330000E+03 0.  0.
<mgrwt>
<rscale>  0 0.49318043E+03</rscale>
<asrwt>0</asrwt>
<pdfrwt beam="1">  1        2 0.23195604E+00 0.67012362E+03</pdfrwt>
<pdfrwt beam="2">  1       -2 0.14248700E+00 0.67012362E+03</pdfrwt>
<totfact> 0.44822554E+00</totfact>
</mgrwt>
</event>
<event>
 4    2  0.3855935E-007  0.1191735E+04  0.7818608E-02  0.9165198E-01
          2   -1    0    0  501    0  0.00000000000E+00  0.00000000000E+00  0.19780749611E+04  0.19780749611E+04  0.25500000000E-02 0. -1.
         -2   -1    0    0    0  501 -0.00000000000E+00 -0.00000000000E+00 -0.86269704417E+03  0.86269704417E+03  0.25500000000E-02 0.  1.
    8880023    1    1    2    0    0 -0.96244484949E+03 -0.24519872525E+03  0.13582414999E+04  0.18069456775E+04  0.65864270000E+03 0.  0.
    8880022    1    1    2    0    0  0.96244484949E+03  0.24519872525E+03 -0.24286358290E+03  0.10338263278E+04  0.15294330000E+03 0.  0.
<mgrwt>
<rscale>  0 0.11419971E+04</rscale>
<asrwt>0</asrwt>
<pdfrwt beam="1">  1        2 0.30431922E+00 0.11917352E+04</pdfrwt>
<pdfrwt beam="2">  1       -2 0.13272262E+00 0.11917352E+04</pdfrwt>
<totfact> 0.27623021E+00</totfact>
</mgrwt>
</event>
<event>
 4    2  0.3855935E-007  0.8696714E+03  0.7818608E-02  0.9576586E-01
         -2   -1    0    0    0  501 -0.00000000000E+00  0.00000000000E+00  0.14254271838E+04  0.14254271838E+04  0.25500000000E-02 0.  1.
          2   -1    0    0  501    0  0.00000000000E+00 -0.00000000000E+00 -0.77559360690E+03  0.77559360691E+03  0.25500000000E-02 0. -1.
    8880023    1    1    2    0    0  0.47083035824E+03 -0.31754831107E+03  0.11410799217E+04  0.14347096396E+04  0.65864270000E+03 0.  1.
    8880022    1    1    2    0    0 -0.47083035824E+03  0.31754831107E+03 -0.49124634474E+03  0.76631115113E+03  0.15294330000E+03 0.  0.
<mgrwt>
<rscale>  0 0.78865444E+03</rscale>
<asrwt>0</asrwt>
<pdfrwt beam="1">  1        2 0.11932209E+00 0.86967141E+03</pdfrwt>
<pdfrwt beam="2">  1       -2 0.21929649E+00 0.86967141E+03</pdfrwt>
<totfact> 0.36163204E+00</totfact>
</mgrwt>
</event>
<event>
 4    2  0.3855935E-007  0.7155211E+03  0.7818608E-02  0.9938043E-01
         -2   -1    0    0    0  501 -0.00000000000E+00  0.00000000000E+00  0.76645514273E+03  0.76645514274E+03  0.25500000000E-02 0.  1.
          2   -1    0    0  501    0  0.00000000000E+00 -0.00000000000E+00 -0.12098309802E+04  0.12098309802E+04  0.25500000000E-02 0. -1.
    8880023    1    1    2    0    0 -0.26382858258E+03 -0.92492000437E+02  0.56947951059E+03  0.91448204486E+03  0.65864270000E+03 0.  1.
    8880022    1    1    2    0    0  0.26382858258E+03  0.92492000437E+02 -0.10128553481E+04  0.10618040781E+04  0.15294330000E+03 0.  0.
<mgrwt>
<rscale>  0 0.58452472E+03</rscale>
<asrwt>0</asrwt>
<pdfrwt beam="1">  1        2 0.18612784E+00 0.71552114E+03</pdfrwt>
<pdfrwt beam="2">  1       -2 0.11791618E+00 0.71552114E+03</pdfrwt>
<totfact> 0.10615275E+01</totfact>
</mgrwt>
</event>
<event>
 4    2  0.3855935E-007  0.8462126E+03  0.7818608E-02  0.9618575E-01
         -2   -1    0    0    0  501 -0.00000000000E+00  0.00000000000E+00  0.21421614348E+04  0.21421614348E+04  0.25500000000E-02 0.  1.
          2   -1    0    0  501    0  0.00000000000E+00 -0.00000000000E+00 -0.77830986208E+03  0.77830986209E+03  0.25500000000E-02 0. -1.
    8880023    1    1    2    0    0 -0.35098872122E+03 -0.39883899163E+03  0.19433219701E+04  0.21195697935E+04  0.65864270000E+03 0.  1.
    8880022    1    1    2    0    0  0.35098872122E+03  0.39883899163E+03 -0.57947039740E+03  0.80090150340E+03  0.15294330000E+03 0.  0.
<mgrwt>
<rscale>  0 0.76078856E+03</rscale>
<asrwt>0</asrwt>
<pdfrwt beam="1">  1        2 0.11973998E+00 0.84621264E+03</pdfrwt>
<pdfrwt beam="2">  1       -2 0.32956329E+00 0.84621264E+03</pdfrwt>
<totfact> 0.77117218E-01</totfact>
</mgrwt>
</event>
<event>
 4    2  0.3855935E-007  0.8009120E+03  0.7818608E-02  0.9708828E-01
         -2   -1    0    0    0  501 -0.00000000000E+00  0.00000000000E+00  0.39140184424E+03  0.39140184424E+03  0.25500000000E-02 0.  1.
          2   -1    0    0  501    0  0.00000000000E+00 -0.00000000000E+00 -0.31813304550E+04  0.31813304550E+04  0.25500000000E-02 0. -1.
    8880023    1    1    2    0    0  0.38880473631E+03  0.23765673087E+03 -0.62582220082E+02  0.80335333773E+03  0.65864270000E+03 0.  1.
    8880022    1    1    2    0    0 -0.38880473631E+03 -0.23765673087E+03 -0.27273463907E+04  0.27693789616E+04  0.15294330000E+03 0.  0.
<mgrwt>
<rscale>  0 0.70493627E+03</rscale>
<asrwt>0</asrwt>
<pdfrwt beam="1">  1        2 0.48943544E+00 0.80091201E+03</pdfrwt>
<pdfrwt beam="2">  1       -2 0.60215670E-01 0.80091201E+03</pdfrwt>
<totfact> 0.36424335E+00</totfact>
</mgrwt>
</event>
<event>
 4    2  0.3855935E-007  0.7864731E+03  0.7818608E-02  0.9740846E-01
         -2   -1    0    0    0  501 -0.00000000000E+00  0.00000000000E+00  0.21018201274E+03  0.21018201276E+03  0.25500000000E-02 0.  1.
          2   -1    0    0  501    0  0.00000000000E+00 -0.00000000000E+00 -0.19476160885E+04  0.19476160885E+04  0.25500000000E-02 0. -1.
    8880023    1    1    2    0    0  0.39373146967E+03 -0.17235192040E+03 -0.83782016816E+03  0.11491224892E+04  0.65864270000E+03 0.  0.
    8880022    1    1    2    0    0 -0.39373146967E+03  0.17235192040E+03 -0.89961390758E+03  0.10086756121E+04  0.15294330000E+03 0.  0.
<mgrwt>
<rscale>  0 0.68636077E+03</rscale>
<asrwt>0</asrwt>
<pdfrwt beam="1">  1        2 0.29963323E+00 0.78647305E+03</pdfrwt>
<pdfrwt beam="2">  1       -2 0.32335696E-01 0.78647305E+03</pdfrwt>
<totfact> 0.65112246E+01</totfact>
</mgrwt>
</event>
<event>
 4    2  0.3855935E-007  0.1145882E+04  0.7818608E-02  0.9211613E-01
          2   -1    0    0  501    0  0.00000000000E+00  0.00000000000E+00  0.13288457757E+04  0.13288457757E+04  0.25500000000E-02 0. -1.
         -2   -1    0    0    0  501 -0.00000000000E+00 -0.00000000000E+00 -0.17106703659E+04  0.17106703659E+04  0.25500000000E-02 0.  1.
    8880023    1    1    2    0    0 -0.56896685502E+03 -0.74532736921E+03 -0.12898368963E+04  0.17253189834E+04  0.65864270000E+03 0.  1.
    8880022    1    1    2    0    0  0.56896685502E+03  0.74532736921E+03  0.90801230609E+03  0.13141971581E+04  0.15294330000E+03 0.  0.
<mgrwt>
<rscale>  0 0.10934366E+04</rscale>
<asrwt>0</asrwt>
<pdfrwt beam="1">  1        2 0.20443781E+00 0.11458824E+04</pdfrwt>
<pdfrwt beam="2">  1       -2 0.26318006E+00 0.11458824E+04</pdfrwt>
<totfact> 0.83106802E-01</totfact>
</mgrwt>
</event>
<event>
 4    2  0.3855935E-007  0.6985421E+03  0.7818608E-02  0.1000330E+00
         -2   -1    0    0    0  501 -0.00000000000E+00  0.00000000000E+00  0.84265907845E+03  0.84265907845E+03  0.25500000000E-02 0.  1.
          2   -1    0    0  501    0  0.00000000000E+00 -0.00000000000E+00 -0.57758166946E+03  0.57758166946E+03  0.25500000000E-02 0. -1.
    8880023    1    1    2    0    0  0.81717841865E+02  0.21788303391E+03  0.64393122116E+03  0.95005707513E+03  0.65864270000E+03 0.  1.
    8880022    1    1    2    0    0 -0.81717841865E+02 -0.21788303391E+03 -0.37885381217E+03  0.47018367279E+03  0.15294330000E+03 0.  0.
<mgrwt>
<rscale>  0 0.55505611E+03</rscale>
<asrwt>0</asrwt>
<pdfrwt beam="1">  1        2 0.88858719E-01 0.69854207E+03</pdfrwt>
<pdfrwt beam="2">  1       -2 0.12963986E+00 0.69854207E+03</pdfrwt>
<totfact> 0.23115197E+01</totfact>
</mgrwt>
</event>
<event>
 4    2  0.3855935E-007  0.9403107E+03  0.7818608E-02  0.9464194E-01
          2   -1    0    0  501    0  0.00000000000E+00  0.00000000000E+00  0.13686769398E+04  0.13686769398E+04  0.25500000000E-02 0. -1.
         -2   -1    0    0    0  501 -0.00000000000E+00 -0.00000000000E+00 -0.10414132272E+04  0.10414132272E+04  0.25500000000E-02 0.  1.
    8880023    1    1    2    0    0 -0.58319385533E+03 -0.33205252004E+03 -0.70090464705E+03  0.11727964357E+04  0.65864270000E+03 0. -1.
    8880022    1    1    2    0    0  0.58319385533E+03  0.33205252004E+03  0.10281683596E+04  0.12372937314E+04  0.15294330000E+03 0.  0.
<mgrwt>
<rscale>  0 0.86975906E+03</rscale>
<asrwt>0</asrwt>
<pdfrwt beam="1">  1        2 0.21056568E+00 0.94031067E+03</pdfrwt>
<pdfrwt beam="2">  1       -2 0.16021742E+00 0.94031067E+03</pdfrwt>
<totfact> 0.37806648E+00</totfact>
</mgrwt>
</event>
<event>
 4    2  0.3855935E-007  0.7125011E+03  0.7818608E-02  0.9948828E-01
         -2   -1    0    0    0  501 -0.00000000000E+00  0.00000000000E+00  0.14265162830E+04  0.14265162830E+04  0.25500000000E-02 0.  1.
          2   -1    0    0  501    0  0.00000000000E+00 -0.00000000000E+00 -0.37215338615E+03  0.37215338616E+03  0.25500000000E-02 0. -1.
    8880023    1    1    2    0    0  0.24443050094E+03  0.11874929065E+03  0.12440771641E+04  0.14336616966E+04  0.65864270000E+03 0.  1.
    8880022    1    1    2    0    0 -0.24443050094E+03 -0.11874929065E+03 -0.18971426724E+03  0.36500797256E+03  0.15294330000E+03 0.  0.
<mgrwt>
<rscale>  0 0.57952131E+03</rscale>
<asrwt>0</asrwt>
<pdfrwt beam="1">  1        2 0.57254366E-01 0.71250114E+03</pdfrwt>
<pdfrwt beam="2">  1       -2 0.21946405E+00 0.71250114E+03</pdfrwt>
<totfact> 0.88145380E+00</totfact>
</mgrwt>
</event>
<event>
 4    2  0.3855935E-007  0.7046456E+03  0.7818608E-02  0.9978449E-01
          2   -1    0    0  501    0  0.00000000000E+00  0.00000000000E+00  0.45690070780E+03  0.45690070780E+03  0.25500000000E-02 0. -1.
         -2   -1    0    0    0  501 -0.00000000000E+00 -0.00000000000E+00 -0.74153979691E+03  0.74153979692E+03  0.25500000000E-02 0.  1.
    8880023    1    1    2    0    0  0.23564790759E+03  0.84765775284E+02 -0.47397341854E+03  0.84922092577E+03  0.65864270000E+03 0.  1.
    8880022    1    1    2    0    0 -0.23564790759E+03 -0.84765775284E+02  0.18933432943E+03  0.34921957896E+03  0.15294330000E+03 0.  0.
<mgrwt>
<rscale>  0 0.56605384E+03</rscale>
<asrwt>0</asrwt>
<pdfrwt beam="1">  1        2 0.70292416E-01 0.70464557E+03</pdfrwt>
<pdfrwt beam="2">  1       -2 0.11408305E+00 0.70464557E+03</pdfrwt>
<totfact> 0.41709456E+01</totfact>
</mgrwt>
</event>
<event>
 4    2  0.3855935E-007  0.6754070E+03  0.7818608E-02  0.1012051E+00
          2   -1    0    0  501    0  0.00000000000E+00  0.00000000000E+00  0.17370431487E+04  0.17370431487E+04  0.25500000000E-02 0. -1.
         -2   -1    0    0    0  501 -0.00000000000E+00 -0.00000000000E+00 -0.21452749132E+03  0.21452749134E+03  0.25500000000E-02 0.  1.
    8880023    1    1    2    0    0 -0.13023126746E+03  0.73513018060E+02  0.15898084410E+04  0.17273289878E+04  0.65864270000E+03 0. -1.
    8880022    1    1    2    0    0  0.13023126746E+03 -0.73513018060E+02 -0.67292783616E+02  0.22424165222E+03  0.15294330000E+03 0.  0.
<mgrwt>
<rscale>  0 0.50667579E+03</rscale>
<asrwt>0</asrwt>
<pdfrwt beam="1">  1        2 0.26723741E+00 0.67540695E+03</pdfrwt>
<pdfrwt beam="2">  1       -2 0.33004229E-01 0.67540695E+03</pdfrwt>
<totfact> 0.82597839E+01</totfact>
</mgrwt>
</event>
<event>
 4    2  0.3855935E-007  0.1324417E+04  0.7818608E-02  0.9044756E-01
         -2   -1    0    0    0  501 -0.00000000000E+00  0.00000000000E+00  0.26150828321E+04  0.26150828321E+04  0.25500000000E-02 0.  1.
          2   -1    0    0  501    0  0.00000000000E+00 -0.00000000000E+00 -0.11505430952E+04  0.11505430952E+04  0.25500000000E-02 0. -1.
    8880023    1    1    2    0    0 -0.11015237636E+04  0.32697996856E+03  0.20703286862E+04  0.24577106373E+04  0.65864270000E+03 0.  0.
    8880022    1    1    2    0    0  0.11015237636E+04 -0.32697996856E+03 -0.60578894927E+03  0.13079152899E+04  0.15294330000E+03 0.  0.
<mgrwt>
<rscale>  0 0.12810169E+04</rscale>
<asrwt>0</asrwt>
<pdfrwt beam="1">  1        2 0.17700663E+00 0.13244171E+04</pdfrwt>
<pdfrwt beam="2">  1       -2 0.40232043E+00 0.13244171E+04</pdfrwt>
<totfact> 0.14073039E-01</totfact>
</mgrwt>
</event>
<event>
 4    2  0.3855935E-007  0.6773880E+03  0.7818608E-02  0.1010841E+00
         -2   -1    0    0    0  501 -0.00000000000E+00  0.00000000000E+00  0.50278717275E+03  0.50278717276E+03  0.25500000000E-02 0.  1.
          2   -1    0    0  501    0  0.00000000000E+00 -0.00000000000E+00 -0.20139589301E+04  0.20139589301E+04  0.25500000000E-02 0. -1.
    8880023    1    1    2    0    0 -0.76202647647E+01 -0.15807052500E+03  0.26471455706E+03  0.72727461271E+03  0.65864270000E+03 0.  1.
    8880022    1    1    2    0    0  0.76202647647E+01  0.15807052500E+03 -0.17758863144E+04  0.17894714901E+04  0.15294330000E+03 0.  0.
<mgrwt>
<rscale>  0 0.51141586E+03</rscale>
<asrwt>0</asrwt>
<pdfrwt beam="1">  1        2 0.30983983E+00 0.67738805E+03</pdfrwt>
<pdfrwt beam="2">  1       -2 0.77351874E-01 0.67738805E+03</pdfrwt>
<totfact> 0.10251088E+01</totfact>
</mgrwt>
</event>
<event>
 4    2  0.3855935E-007  0.7088404E+03  0.7818608E-02  0.9962333E-01
         -2   -1    0    0    0  501 -0.00000000000E+00  0.00000000000E+00  0.19351335147E+03  0.19351335149E+03  0.25500000000E-02 0.  1.
          2   -1    0    0  501    0  0.00000000000E+00 -0.00000000000E+00 -0.28311886497E+04  0.28311886497E+04  0.25500000000E-02 0. -1.
    8880023    1    1    2    0    0  0.87446293320E+02 -0.24697695654E+03 -0.50445351379E+03  0.87001610624E+03  0.65864270000E+03 0.  1.
    8880022    1    1    2    0    0 -0.87446293320E+02  0.24697695654E+03 -0.21332217845E+04  0.21546858950E+04  0.15294330000E+03 0.  0.
<mgrwt>
<rscale>  0 0.57333192E+03</rscale>
<asrwt>0</asrwt>
<pdfrwt beam="1">  1        2 0.43556745E+00 0.70884038E+03</pdfrwt>
<pdfrwt beam="2">  1       -2 0.29771287E-01 0.70884038E+03</pdfrwt>
<totfact> 0.24408512E+01</totfact>
</mgrwt>
</event>
<event>
 4    2  0.3855935E-007  0.7654672E+03  0.7818608E-02  0.9791154E-01
          2   -1    0    0  501    0  0.00000000000E+00  0.00000000000E+00  0.42575958890E+03  0.42575958891E+03  0.25500000000E-02 0. -1.
         -2   -1    0    0    0  501 -0.00000000000E+00 -0.00000000000E+00 -0.16548943209E+04  0.16548943209E+04  0.25500000000E-02 0.  1.
    8880023    1    1    2    0    0  0.38002523462E+03  0.87810709371E+02 -0.14254576086E+04  0.16179831580E+04  0.65864270000E+03 0.  0.
    8880022    1    1    2    0    0 -0.38002523462E+03 -0.87810709371E+02  0.19632287660E+03  0.46267075174E+03  0.15294330000E+03 0.  0.
<mgrwt>
<rscale>  0 0.65839461E+03</rscale>
<asrwt>0</asrwt>
<pdfrwt beam="1">  1        2 0.65501476E-01 0.76546725E+03</pdfrwt>
<pdfrwt beam="2">  1       -2 0.25459912E+00 0.76546725E+03</pdfrwt>
<totfact> 0.45841350E+00</totfact>
</mgrwt>
</event>
<event>
 4    2  0.3855935E-007  0.7210107E+03  0.7818608E-02  0.9919181E-01
          2   -1    0    0  501    0  0.00000000000E+00  0.00000000000E+00  0.14121160602E+04  0.14121160602E+04  0.25500000000E-02 0. -1.
         -2   -1    0    0    0  501 -0.00000000000E+00 -0.00000000000E+00 -0.36796043976E+03  0.36796043977E+03  0.25500000000E-02 0.  1.
    8880023    1    1    2    0    0 -0.22698979708E+03  0.18580061549E+03  0.39204038881E+02  0.72207575754E+03  0.65864270000E+03 0.  0.
    8880022    1    1    2    0    0  0.22698979708E+03 -0.18580061549E+03  0.10049515816E+04  0.10580007425E+04  0.15294330000E+03 0.  0.
<mgrwt>
<rscale>  0 0.59340643E+03</rscale>
<asrwt>0</asrwt>
<pdfrwt beam="1">  1        2 0.21724862E+00 0.72101071E+03</pdfrwt>
<pdfrwt beam="2">  1       -2 0.56609299E-01 0.72101071E+03</pdfrwt>
<totfact> 0.42695097E+01</totfact>
</mgrwt>
</event>
<event>
 4    2  0.3855935E-007  0.1114185E+04  0.7818608E-02  0.9245425E-01
         -2   -1    0    0    0  501 -0.00000000000E+00  0.00000000000E+00  0.90105887821E+03  0.90105887821E+03  0.25500000000E-02 0.  1.
          2   -1    0    0  501    0  0.00000000000E+00 -0.00000000000E+00 -0.17684689999E+04  0.17684689999E+04  0.25500000000E-02 0. -1.
    8880023    1    1    2    0    0 -0.72137885562E+03 -0.53592102210E+03 -0.12556500917E+04  0.16787096694E+04  0.65864270000E+03 0.  0.
    8880022    1    1    2    0    0  0.72137885562E+03  0.53592102210E+03  0.38823997000E+03  0.99081820865E+03  0.15294330000E+03 0.  0.
<mgrwt>
<rscale>  0 0.10596626E+04</rscale>
<asrwt>0</asrwt>
<pdfrwt beam="1">  1        2 0.27207215E+00 0.11141854E+04</pdfrwt>
<pdfrwt beam="2">  1       -2 0.13862444E+00 0.11141854E+04</pdfrwt>
<totfact> 0.32514931E+00</totfact>
</mgrwt>
</event>
<event>
 4    2  0.3855935E-007  0.1264639E+04  0.7818608E-02  0.9096714E-01
          2   -1    0    0  501    0  0.00000000000E+00  0.00000000000E+00  0.12878450801E+04  0.12878450801E+04  0.25500000000E-02 0. -1.
         -2   -1    0    0    0  501 -0.00000000000E+00 -0.00000000000E+00 -0.14094901717E+04  0.14094901717E+04  0.25500000000E-02 0.  1.
    8880023    1    1    2    0    0 -0.10296600479E+04 -0.32450058787E+03 -0.71830440752E+03  0.14543974264E+04  0.65864270000E+03 0.  0.
    8880022    1    1    2    0    0  0.10296600479E+04  0.32450058787E+03  0.59665931586E+03  0.12429378255E+04  0.15294330000E+03 0.  0.
<mgrwt>
<rscale>  0 0.12186181E+04</rscale>
<asrwt>0</asrwt>
<pdfrwt beam="1">  1        2 0.19813001E+00 0.12646385E+04</pdfrwt>
<pdfrwt beam="2">  1       -2 0.21684464E+00 0.12646385E+04</pdfrwt>
<totfact> 0.16772711E+00</totfact>
</mgrwt>
</event>
<event>
 4    2  0.3855935E-007  0.7914095E+03  0.7818608E-02  0.9729688E-01
          2   -1    0    0  501    0  0.00000000000E+00  0.00000000000E+00  0.92429417105E+03  0.92429417105E+03  0.25500000000E-02 0. -1.
         -2   -1    0    0    0  501 -0.00000000000E+00 -0.00000000000E+00 -0.50196669732E+03  0.50196669732E+03  0.25500000000E-02 0.  1.
    8880023    1    1    2    0    0 -0.10269803785E+03  0.42658160923E+03 -0.10157350843E+02  0.79147465806E+03  0.65864270000E+03 0.  0.
    8880022    1    1    2    0    0  0.10269803785E+03 -0.42658160923E+03  0.43248482457E+03  0.63478621032E+03  0.15294330000E+03 0.  0.
<mgrwt>
<rscale>  0 0.69276372E+03</rscale>
<asrwt>0</asrwt>
<pdfrwt beam="1">  1        2 0.14219910E+00 0.79140948E+03</pdfrwt>
<pdfrwt beam="2">  1       -2 0.77225646E-01 0.79140948E+03</pdfrwt>
<totfact> 0.42729843E+01</totfact>
</mgrwt>
</event>
<event>
 4    2  0.3855935E-007  0.1044087E+04  0.7818608E-02  0.9326024E-01
          2   -1    0    0  501    0  0.00000000000E+00  0.00000000000E+00  0.14515985475E+04  0.14515985475E+04  0.25500000000E-02 0. -1.
         -2   -1    0    0    0  501 -0.00000000000E+00 -0.00000000000E+00 -0.75590483791E+03  0.75590483791E+03  0.25500000000E-02 0.  1.
    8880023    1    1    2    0    0  0.80136975833E+03  0.11879905372E+03 -0.11604621596E+03  0.10505158900E+04  0.65864270000E+03 0.  0.
    8880022    1    1    2    0    0 -0.80136975833E+03 -0.11879905372E+03  0.81173992556E+03  0.11569874954E+04  0.15294330000E+03 0.  0.
<mgrwt>
<rscale>  0 0.98421942E+03</rscale>
<asrwt>0</asrwt>
<pdfrwt beam="1">  1        2 0.22332285E+00 0.10440866E+04</pdfrwt>
<pdfrwt beam="2">  1       -2 0.11629305E+00 0.10440866E+04</pdfrwt>
<totfact> 0.76766750E+00</totfact>
</mgrwt>
</event>
<event>
 4    2  0.3855935E-007  0.7187561E+03  0.7818608E-02  0.9926817E-01
         -2   -1    0    0    0  501 -0.00000000000E+00  0.00000000000E+00  0.15406150061E+04  0.15406150061E+04  0.25500000000E-02 0.  1.
          2   -1    0    0  501    0  0.00000000000E+00 -0.00000000000E+00 -0.24788338944E+03  0.24788338946E+03  0.25500000000E-02 0. -1.
    8880023    1    1    2    0    0  0.20740703823E+03  0.19945546926E+03  0.12731664053E+04  0.14620407195E+04  0.65864270000E+03 0.  0.
    8880022    1    1    2    0    0 -0.20740703823E+03 -0.19945546926E+03  0.19565211361E+02  0.32645767603E+03  0.15294330000E+03 0.  0.
<mgrwt>
<rscale>  0 0.58979020E+03</rscale>
<asrwt>0</asrwt>
<pdfrwt beam="1">  1        2 0.38135907E-01 0.71875613E+03</pdfrwt>
<pdfrwt beam="2">  1       -2 0.23701769E+00 0.71875613E+03</pdfrwt>
<totfact> 0.10785797E+01</totfact>
</mgrwt>
</event>
<event>
 4    2  0.3855935E-007  0.7280125E+03  0.7818608E-02  0.9896352E-01
         -2   -1    0    0    0  501 -0.00000000000E+00  0.00000000000E+00  0.30823502043E+03  0.30823502044E+03  0.25500000000E-02 0.  1.
          2   -1    0    0  501    0  0.00000000000E+00 -0.00000000000E+00 -0.13704530000E+04  0.13704530000E+04  0.25500000000E-02 0. -1.
    8880023    1    1    2    0    0  0.58909949656E+02 -0.30450222483E+03 -0.20802295110E+03  0.75714974843E+03  0.65864270000E+03 0.  1.
    8880022    1    1    2    0    0 -0.58909949656E+02  0.30450222483E+03 -0.85419502843E+03  0.92153827197E+03  0.15294330000E+03 0.  0.
<mgrwt>
<rscale>  0 0.60438419E+03</rscale>
<asrwt>0</asrwt>
<pdfrwt beam="1">  1        2 0.21083892E+00 0.72801250E+03</pdfrwt>
<pdfrwt beam="2">  1       -2 0.47420773E-01 0.72801250E+03</pdfrwt>
<totfact> 0.64753338E+01</totfact>
</mgrwt>
</event>
<event>
 4    2  0.3855935E-007  0.7104375E+03  0.7818608E-02  0.9956380E-01
          2   -1    0    0  501    0  0.00000000000E+00  0.00000000000E+00  0.21172547487E+04  0.21172547487E+04  0.25500000000E-02 0. -1.
         -2   -1    0    0    0  501 -0.00000000000E+00 -0.00000000000E+00 -0.28767629805E+03  0.28767629806E+03  0.25500000000E-02 0.  1.
    8880023    1    1    2    0    0  0.59221825617E+02 -0.25962283937E+03  0.18802077944E+03  0.73489677038E+03  0.65864270000E+03 0.  1.
    8880022    1    1    2    0    0 -0.59221825617E+02  0.25962283937E+03  0.16415576712E+04  0.16700342764E+04  0.15294330000E+03 0.  0.
<mgrwt>
<rscale>  0 0.57604981E+03</rscale>
<asrwt>0</asrwt>
<pdfrwt beam="1">  1        2 0.32573150E+00 0.71043751E+03</pdfrwt>
<pdfrwt beam="2">  1       -2 0.44257892E-01 0.71043751E+03</pdfrwt>
<totfact> 0.28957817E+01</totfact>
</mgrwt>
</event>
<event>
 4    2  0.3855935E-007  0.7036150E+03  0.7818608E-02  0.9982523E-01
         -2   -1    0    0    0  501 -0.00000000000E+00  0.00000000000E+00  0.20370460049E+04  0.20370460049E+04  0.25500000000E-02 0.  1.
          2   -1    0    0  501    0  0.00000000000E+00 -0.00000000000E+00 -0.26726458091E+03  0.26726458092E+03  0.25500000000E-02 0. -1.
    8880023    1    1    2    0    0  0.21438636898E+03 -0.12370255408E+03  0.18688774427E+04  0.19969418968E+04  0.65864270000E+03 0.  0.
    8880022    1    1    2    0    0 -0.21438636898E+03  0.12370255408E+03 -0.99096018669E+02  0.30736868907E+03  0.15294330000E+03 0. -1.
<mgrwt>
<rscale>  0 0.56423263E+03</rscale>
<asrwt>0</asrwt>
<pdfrwt beam="1">  1        2 0.41117627E-01 0.70361498E+03</pdfrwt>
<pdfrwt beam="2">  1       -2 0.31339170E+00 0.70361498E+03</pdfrwt>
<totfact> 0.34474435E+00</totfact>
</mgrwt>
</event>
<event>
 4    2  0.3855935E-007  0.8836309E+03  0.7818608E-02  0.9552837E-01
          2   -1    0    0  501    0  0.00000000000E+00  0.00000000000E+00  0.24395756338E+04  0.24395756338E+04  0.25500000000E-02 0. -1.
         -2   -1    0    0    0  501 -0.00000000000E+00 -0.00000000000E+00 -0.27713450397E+03  0.27713450398E+03  0.25500000000E-02 0.  1.
    8880023    1    1    2    0    0 -0.54115303225E+03  0.23269446915E+03  0.68249204826E+03  0.11165119446E+04  0.65864270000E+03 0. -1.
    8880022    1    1    2    0    0  0.54115303225E+03 -0.23269446915E+03  0.14799490816E+04  0.16001981931E+04  0.15294330000E+03 0.  0.
<mgrwt>
<rscale>  0 0.80497952E+03</rscale>
<asrwt>0</asrwt>
<pdfrwt beam="1">  1        2 0.37531932E+00 0.88363088E+03</pdfrwt>
<pdfrwt beam="2">  1       -2 0.42636078E-01 0.88363088E+03</pdfrwt>
<totfact> 0.20166554E+01</totfact>
</mgrwt>
</event>
<event>
 4    2  0.3855935E-007  0.9554101E+03  0.7818608E-02  0.9442372E-01
         -2   -1    0    0    0  501 -0.00000000000E+00  0.00000000000E+00  0.10377651778E+04  0.10377651778E+04  0.25500000000E-02 0.  1.
          2   -1    0    0  501    0  0.00000000000E+00 -0.00000000000E+00 -0.10465253725E+04  0.10465253725E+04  0.25500000000E-02 0. -1.
    8880023    1    1    2    0    0  0.22016857281E+02  0.69174669021E+03  0.61822205599E+03  0.11379837179E+04  0.65864270000E+03 0.  1.
    8880022    1    1    2    0    0 -0.22016857281E+02 -0.69174669021E+03 -0.62698225072E+03  0.94630683246E+03  0.15294330000E+03 0.  0.
<mgrwt>
<rscale>  0 0.88669136E+03</rscale>
<asrwt>0</asrwt>
<pdfrwt beam="1">  1        2 0.16100390E+00 0.95541009E+03</pdfrwt>
<pdfrwt beam="2">  1       -2 0.15965618E+00 0.95541009E+03</pdfrwt>
<totfact> 0.59348314E+00</totfact>
</mgrwt>
</event>
<event>
 4    2  0.3855935E-007  0.8829826E+03  0.7818608E-02  0.9553921E-01
         -2   -1    0    0    0  501 -0.00000000000E+00  0.00000000000E+00  0.55550233228E+03  0.55550233229E+03  0.25500000000E-02 0.  1.
          2   -1    0    0  501    0  0.00000000000E+00 -0.00000000000E+00 -0.17743592312E+04  0.17743592312E+04  0.25500000000E-02 0. -1.
    8880023    1    1    2    0    0  0.31060455868E+03 -0.49937243504E+03  0.89276253404E+02  0.88748435278E+03  0.65864270000E+03 0.  1.
    8880022    1    1    2    0    0 -0.31060455868E+03  0.49937243504E+03 -0.13081331523E+04  0.14423772107E+04  0.15294330000E+03 0.  0.
<mgrwt>
<rscale>  0 0.80422514E+03</rscale>
<asrwt>0</asrwt>
<pdfrwt beam="1">  1        2 0.27297834E+00 0.88298257E+03</pdfrwt>
<pdfrwt beam="2">  1       -2 0.85461898E-01 0.88298257E+03</pdfrwt>
<totfact> 0.10741835E+01</totfact>
</mgrwt>
</event>
<event>
 4    2  0.3855935E-007  0.6798579E+03  0.7818608E-02  0.1009404E+00
         -2   -1    0    0    0  501 -0.00000000000E+00  0.00000000000E+00  0.22991962585E+03  0.22991962586E+03  0.25500000000E-02 0.  1.
          2   -1    0    0  501    0  0.00000000000E+00 -0.00000000000E+00 -0.28701613158E+04  0.28701613158E+04  0.25500000000E-02 0. -1.
    8880023    1    1    2    0    0  0.16823025915E+03  0.97554685050E+01 -0.29046187379E+03  0.73930703747E+03  0.65864270000E+03 0.  0.
    8880022    1    1    2    0    0 -0.16823025915E+03 -0.97554685050E+01 -0.23497798162E+04  0.23607739042E+04  0.15294330000E+03 0. -1.
<mgrwt>
<rscale>  0 0.51712141E+03</rscale>
<asrwt>0</asrwt>
<pdfrwt beam="1">  1        2 0.44156325E+00 0.67985792E+03</pdfrwt>
<pdfrwt beam="2">  1       -2 0.35372252E-01 0.67985792E+03</pdfrwt>
<totfact> 0.16826358E+01</totfact>
</mgrwt>
</event>
<event>
 4    2  0.3855935E-007  0.7303694E+03  0.7818608E-02  0.9888944E-01
         -2   -1    0    0    0  501 -0.00000000000E+00  0.00000000000E+00  0.98783928965E+03  0.98783928966E+03  0.25500000000E-02 0.  1.
          2   -1    0    0  501    0  0.00000000000E+00 -0.00000000000E+00 -0.66074329166E+03  0.66074329166E+03  0.25500000000E-02 0. -1.
    8880023    1    1    2    0    0  0.27833938876E+03 -0.14885041330E+03  0.78471136588E+03  0.10720127774E+04  0.65864270000E+03 0.  0.
    8880022    1    1    2    0    0 -0.27833938876E+03  0.14885041330E+03 -0.45761536788E+03  0.57656980393E+03  0.15294330000E+03 0.  0.
<mgrwt>
<rscale>  0 0.60800101E+03</rscale>
<asrwt>0</asrwt>
<pdfrwt beam="1">  1        2 0.10165281E+00 0.73036940E+03</pdfrwt>
<pdfrwt beam="2">  1       -2 0.15197527E+00 0.73036940E+03</pdfrwt>
<totfact> 0.12966998E+01</totfact>
</mgrwt>
</event>
<event>
 4    2  0.3855935E-007  0.1054178E+04  0.7818608E-02  0.9313876E-01
         -2   -1    0    0    0  501 -0.00000000000E+00  0.00000000000E+00  0.12156488742E+04  0.12156488742E+04  0.25500000000E-02 0.  1.
          2   -1    0    0  501    0  0.00000000000E+00 -0.00000000000E+00 -0.10408468892E+04  0.10408468892E+04  0.25500000000E-02 0. -1.
    8880023    1    1    2    0    0  0.10425696287E+03 -0.81646246460E+03  0.70256916038E+03  0.12668441506E+04  0.65864270000E+03 0.  0.
    8880022    1    1    2    0    0 -0.10425696287E+03  0.81646246460E+03 -0.52776717540E+03  0.98965161287E+03  0.15294330000E+03 0.  0.
<mgrwt>
<rscale>  0 0.99515384E+03</rscale>
<asrwt>0</asrwt>
<pdfrwt beam="1">  1        2 0.16013029E+00 0.10541777E+04</pdfrwt>
<pdfrwt beam="2">  1       -2 0.18702290E+00 0.10541777E+04</pdfrwt>
<totfact> 0.37966169E+00</totfact>
</mgrwt>
</event>
<event>
 4    2  0.3855935E-007  0.9483312E+03  0.7818608E-02  0.9452519E-01
         -2   -1    0    0    0  501 -0.00000000000E+00  0.00000000000E+00  0.36670820633E+03  0.36670820633E+03  0.25500000000E-02 0.  1.
          2   -1    0    0  501    0  0.00000000000E+00 -0.00000000000E+00 -0.19551624197E+04  0.19551624197E+04  0.25500000000E-02 0. -1.
    8880023    1    1    2    0    0  0.18108579756E+03 -0.65782202193E+03 -0.64225947505E+03  0.11453511768E+04  0.65864270000E+03 0.  1.
    8880022    1    1    2    0    0 -0.18108579756E+03  0.65782202193E+03 -0.94619473835E+03  0.11765194493E+04  0.15294330000E+03 0.  0.
<mgrwt>
<rscale>  0 0.87876761E+03</rscale>
<asrwt>0</asrwt>
<pdfrwt beam="1">  1        2 0.30079421E+00 0.94833121E+03</pdfrwt>
<pdfrwt beam="2">  1       -2 0.56416648E-01 0.94833121E+03</pdfrwt>
<totfact> 0.21042076E+01</totfact>
</mgrwt>
</event>
<event>
 4    2  0.3855935E-007  0.1263236E+04  0.7818608E-02  0.9097977E-01
          2   -1    0    0  501    0  0.00000000000E+00  0.00000000000E+00  0.27943512794E+04  0.27943512794E+04  0.25500000000E-02 0. -1.
         -2   -1    0    0    0  501 -0.00000000000E+00 -0.00000000000E+00 -0.66723362738E+03  0.66723362738E+03  0.25500000000E-02 0.  1.
    8880023    1    1    2    0    0  0.14452776315E+03  0.10682070042E+04  0.24429013975E+03  0.12866399484E+04  0.65864270000E+03 0.  0.
    8880022    1    1    2    0    0 -0.14452776315E+03 -0.10682070042E+04  0.18828275122E+04  0.21749449584E+04  0.15294330000E+03 0.  0.
<mgrwt>
<rscale>  0 0.12171496E+04</rscale>
<asrwt>0</asrwt>
<pdfrwt beam="1">  1        2 0.42990019E+00 0.12632358E+04</pdfrwt>
<pdfrwt beam="2">  1       -2 0.10265133E+00 0.12632358E+04</pdfrwt>
<totfact> 0.17712043E+00</totfact>
</mgrwt>
</event>
<event>
 4    2  0.3855935E-007  0.9293811E+03  0.7818608E-02  0.9480422E-01
          2   -1    0    0  501    0  0.00000000000E+00  0.00000000000E+00  0.25056232832E+04  0.25056232832E+04  0.25500000000E-02 0. -1.
         -2   -1    0    0    0  501 -0.00000000000E+00 -0.00000000000E+00 -0.30183746040E+03  0.30183746041E+03  0.25500000000E-02 0.  1.
    8880023    1    1    2    0    0  0.34240410406E+03 -0.55919454217E+03  0.17907831708E+04  0.20175861016E+04  0.65864270000E+03 0.  0.
    8880022    1    1    2    0    0 -0.34240410406E+03  0.55919454217E+03  0.41300265202E+03  0.78987464199E+03  0.15294330000E+03 0.  0.
<mgrwt>
<rscale>  0 0.85742727E+03</rscale>
<asrwt>0</asrwt>
<pdfrwt beam="1">  1        2 0.38548051E+00 0.92938115E+03</pdfrwt>
<pdfrwt beam="2">  1       -2 0.46436532E-01 0.92938115E+03</pdfrwt>
<totfact> 0.15509759E+01</totfact>
</mgrwt>
</event>
<event>
 4    2  0.3855935E-007  0.7142937E+03  0.7818608E-02  0.9942389E-01
          2   -1    0    0  501    0  0.00000000000E+00  0.00000000000E+00  0.36787953600E+04  0.36787953600E+04  0.25500000000E-02 0. -1.
         -2   -1    0    0    0  501 -0.00000000000E+00 -0.00000000000E+00 -0.99279555363E+02  0.99279555396E+02  0.25500000000E-02 0.  1.
    8880023    1    1    2    0    0  0.27143166857E+03 -0.52250680571E+02  0.13597990347E+04  0.15359911801E+04  0.65864270000E+03 0.  1.
    8880022    1    1    2    0    0 -0.27143166857E+03  0.52250680571E+02  0.22197167699E+04  0.22420837352E+04  0.15294330000E+03 0.  1.
<mgrwt>
<rscale>  0 0.58250179E+03</rscale>
<asrwt>0</asrwt>
<pdfrwt beam="1">  1        2 0.56596843E+00 0.71429370E+03</pdfrwt>
<pdfrwt beam="2">  1       -2 0.15273780E-01 0.71429370E+03</pdfrwt>
<totfact> 0.22437553E+01</totfact>
</mgrwt>
</event>
<event>
 4    2  0.3855935E-007  0.7764664E+03  0.7818608E-02  0.9764204E-01
         -2   -1    0    0    0  501 -0.00000000000E+00  0.00000000000E+00  0.11903690397E+04  0.11903690397E+04  0.25500000000E-02 0.  1.
          2   -1    0    0  501    0  0.00000000000E+00 -0.00000000000E+00 -0.99205950158E+03  0.99205950159E+03  0.25500000000E-02 0. -1.
    8880023    1    1    2    0    0 -0.36224806371E+03  0.19459239084E+03  0.10014901589E+04  0.12672342336E+04  0.65864270000E+03 0.  0.
    8880022    1    1    2    0    0  0.36224806371E+03 -0.19459239084E+03 -0.80318062077E+03  0.91519430769E+03  0.15294330000E+03 0.  0.
<mgrwt>
<rscale>  0 0.67319460E+03</rscale>
<asrwt>0</asrwt>
<pdfrwt beam="1">  1        2 0.15262454E+00 0.77646640E+03</pdfrwt>
<pdfrwt beam="2">  1       -2 0.18313370E+00 0.77646640E+03</pdfrwt>
<totfact> 0.44766582E+00</totfact>
</mgrwt>
</event>
<event>
 4    2  0.3855935E-007  0.6746233E+03  0.7818608E-02  0.1012545E+00
         -2   -1    0    0    0  501 -0.00000000000E+00  0.00000000000E+00  0.22126949429E+03  0.22126949431E+03  0.25500000000E-02 0.  1.
          2   -1    0    0  501    0  0.00000000000E+00 -0.00000000000E+00 -0.89332634995E+03  0.89332634995E+03  0.25500000000E-02 0. -1.
    8880023    1    1    2    0    0  0.13407761974E+03 -0.57702568589E+02 -0.47044695734E+03  0.82245786547E+03  0.65864270000E+03 0.  0.
    8880022    1    1    2    0    0 -0.13407761974E+03  0.57702568589E+02 -0.20160989831E+03  0.29213797879E+03  0.15294330000E+03 0.  0.
<mgrwt>
<rscale>  0 0.50475668E+03</rscale>
<asrwt>0</asrwt>
<pdfrwt beam="1">  1        2 0.13743482E+00 0.67462330E+03</pdfrwt>
<pdfrwt beam="2">  1       -2 0.34041461E-01 0.67462330E+03</pdfrwt>
<totfact> 0.24239241E+02</totfact>
</mgrwt>
</event>
<event>
 4    2  0.3855935E-007  0.6838528E+03  0.7818608E-02  0.1007223E+00
         -2   -1    0    0    0  501 -0.00000000000E+00  0.00000000000E+00  0.51070689333E+03  0.51070689334E+03  0.25500000000E-02 0.  1.
          2   -1    0    0  501    0  0.00000000000E+00 -0.00000000000E+00 -0.49601547473E+03  0.49601547474E+03  0.25500000000E-02 0. -1.
    8880023    1    1    2    0    0 -0.22818439995E+02 -0.18254802919E+03  0.19042995164E+03  0.70987198628E+03  0.65864270000E+03 0.  0.
    8880022    1    1    2    0    0  0.22818439995E+02  0.18254802919E+03 -0.17573853304E+03  0.29685038180E+03  0.15294330000E+03 0.  1.
<mgrwt>
<rscale>  0 0.52593340E+03</rscale>
<asrwt>0</asrwt>
<pdfrwt beam="1">  1        2 0.76310073E-01 0.68385281E+03</pdfrwt>
<pdfrwt beam="2">  1       -2 0.78570291E-01 0.68385281E+03</pdfrwt>
<totfact> 0.90809522E+01</totfact>
</mgrwt>
</event>
<event>
 4    2  0.3855935E-007  0.6747395E+03  0.7818608E-02  0.1012471E+00
         -2   -1    0    0    0  501 -0.00000000000E+00  0.00000000000E+00  0.27682451898E+03  0.27682451899E+03  0.25500000000E-02 0.  1.
          2   -1    0    0  501    0  0.00000000000E+00 -0.00000000000E+00 -0.20194152606E+04  0.20194152606E+04  0.25500000000E-02 0. -1.
    8880023    1    1    2    0    0  0.14647688262E+03  0.27704245996E+01 -0.15204841658E+03  0.69165893303E+03  0.65864270000E+03 0.  1.
    8880022    1    1    2    0    0 -0.14647688262E+03 -0.27704245996E+01 -0.15905423250E+04  0.16045808466E+04  0.15294330000E+03 0.  0.
<mgrwt>
<rscale>  0 0.50504283E+03</rscale>
<asrwt>0</asrwt>
<pdfrwt beam="1">  1        2 0.31067926E+00 0.67473947E+03</pdfrwt>
<pdfrwt beam="2">  1       -2 0.42588389E-01 0.67473947E+03</pdfrwt>
<totfact> 0.35515721E+01</totfact>
</mgrwt>
</event>
<event>
 4    2  0.3855935E-007  0.1063182E+04  0.7818608E-02  0.9303200E-01
          2   -1    0    0  501    0  0.00000000000E+00  0.00000000000E+00  0.26496881011E+04  0.26496881011E+04  0.25500000000E-02 0. -1.
         -2   -1    0    0    0  501 -0.00000000000E+00 -0.00000000000E+00 -0.47063767926E+03  0.47063767926E+03  0.25500000000E-02 0.  1.
    8880023    1    1    2    0    0  0.82840572441E+03  0.10144174844E+03  0.37618284058E+03  0.11277722325E+04  0.65864270000E+03 0.  0.
    8880022    1    1    2    0    0 -0.82840572441E+03 -0.10144174844E+03  0.18028675813E+04  0.19925535479E+04  0.15294330000E+03 0.  0.
<mgrwt>
<rscale>  0 0.10048881E+04</rscale>
<asrwt>0</asrwt>
<pdfrwt beam="1">  1        2 0.40764433E+00 0.10631823E+04</pdfrwt>
<pdfrwt beam="2">  1       -2 0.72405796E-01 0.10631823E+04</pdfrwt>
<totfact> 0.49370444E+00</totfact>
</mgrwt>
</event>
<event>
 4    2  0.3855935E-007  0.6684078E+03  0.7818608E-02  0.1016831E+00
         -2   -1    0    0    0  501 -0.00000000000E+00  0.00000000000E+00  0.43808412440E+03  0.43808412441E+03  0.25500000000E-02 0.  1.
          2   -1    0    0  501    0  0.00000000000E+00 -0.00000000000E+00 -0.23529488943E+04  0.23529488943E+04  0.25500000000E-02 0. -1.
    8880023    1    1    2    0    0 -0.14106776381E+02 -0.11295896122E+03  0.17624196996E+03  0.69125260672E+03  0.65864270000E+03 0.  1.
    8880022    1    1    2    0    0  0.14106776381E+02  0.11295896122E+03 -0.20911067398E+04  0.20997804120E+04  0.15294330000E+03 0.  0.
<mgrwt>
<rscale>  0 0.48847769E+03</rscale>
<asrwt>0</asrwt>
<pdfrwt beam="1">  1        2 0.36199213E+00 0.66840776E+03</pdfrwt>
<pdfrwt beam="2">  1       -2 0.67397559E-01 0.66840776E+03</pdfrwt>
<totfact> 0.90488892E+00</totfact>
</mgrwt>
</event>
<event>
 4    2  0.3855935E-007  0.8383993E+03  0.7818608E-02  0.9633206E-01
         -2   -1    0    0    0  501 -0.00000000000E+00  0.00000000000E+00  0.42983002060E+03  0.42983002061E+03  0.25500000000E-02 0.  1.
          2   -1    0    0  501    0  0.00000000000E+00 -0.00000000000E+00 -0.16403545681E+04  0.16403545681E+04  0.25500000000E-02 0. -1.
    8880023    1    1    2    0    0  0.50769112172E+03  0.10655036701E+03 -0.11213298532E+03  0.84586480506E+03  0.65864270000E+03 0.  1.
    8880022    1    1    2    0    0 -0.50769112172E+03 -0.10655036701E+03 -0.10983915622E+04  0.12243197837E+04  0.15294330000E+03 0.  0.
<mgrwt>
<rscale>  0 0.75136850E+03</rscale>
<asrwt>0</asrwt>
<pdfrwt beam="1">  1        2 0.25236224E+00 0.83839935E+03</pdfrwt>
<pdfrwt beam="2">  1       -2 0.66127697E-01 0.83839935E+03</pdfrwt>
<totfact> 0.22622559E+01</totfact>
</mgrwt>
</event>
<event>
 4    2  0.3855935E-007  0.7826186E+03  0.7818608E-02  0.9749721E-01
         -2   -1    0    0    0  501 -0.00000000000E+00  0.00000000000E+00  0.65851430449E+03  0.65851430450E+03  0.25500000000E-02 0.  1.
          2   -1    0    0  501    0  0.00000000000E+00 -0.00000000000E+00 -0.15016064924E+04  0.15016064924E+04  0.25500000000E-02 0. -1.
    8880023    1    1    2    0    0  0.11427252397E+03 -0.40696855776E+03  0.37054503677E+03  0.86590729716E+03  0.65864270000E+03 0.  0.
    8880022    1    1    2    0    0 -0.11427252397E+03  0.40696855776E+03 -0.12136372247E+04  0.12942134997E+04  0.15294330000E+03 0.  0.
<mgrwt>
<rscale>  0 0.68132013E+03</rscale>
<asrwt>0</asrwt>
<pdfrwt beam="1">  1        2 0.23101638E+00 0.78261857E+03</pdfrwt>
<pdfrwt beam="2">  1       -2 0.10130989E+00 0.78261857E+03</pdfrwt>
<totfact> 0.10349773E+01</totfact>
</mgrwt>
</event>
<event>
 4    2  0.3855935E-007  0.7468884E+03  0.7818608E-02  0.9840318E-01
         -2   -1    0    0    0  501 -0.00000000000E+00  0.00000000000E+00  0.26160383524E+03  0.26160383525E+03  0.25500000000E-02 0.  1.
          2   -1    0    0  501    0  0.00000000000E+00 -0.00000000000E+00 -0.16201841265E+04  0.16201841265E+04  0.25500000000E-02 0. -1.
    8880023    1    1    2    0    0 -0.33959521473E+03  0.93312174612E+02 -0.39582395158E+03  0.84529218540E+03  0.65864270000E+03 0.  1.
    8880022    1    1    2    0    0  0.33959521473E+03 -0.93312174612E+02 -0.96275633967E+03  0.10364957763E+04  0.15294330000E+03 0.  0.
<mgrwt>
<rscale>  0 0.63243036E+03</rscale>
<asrwt>0</asrwt>
<pdfrwt beam="1">  1        2 0.24925909E+00 0.74688840E+03</pdfrwt>
<pdfrwt beam="2">  1       -2 0.40246745E-01 0.74688840E+03</pdfrwt>
<totfact> 0.64924074E+01</totfact>
</mgrwt>
</event>
<event>
 4    2  0.3855935E-007  0.6804295E+03  0.7818608E-02  0.1009082E+00
         -2   -1    0    0    0  501 -0.00000000000E+00  0.00000000000E+00  0.23082727105E+03  0.23082727107E+03  0.25500000000E-02 0.  1.
          2   -1    0    0  501    0  0.00000000000E+00 -0.00000000000E+00 -0.90228644585E+03  0.90228644585E+03  0.25500000000E-02 0. -1.
    8880023    1    1    2    0    0 -0.16629052252E+03  0.39006974681E+02 -0.46099162291E+03  0.82188658865E+03  0.65864270000E+03 0.  1.
    8880022    1    1    2    0    0  0.16629052252E+03 -0.39006974681E+02 -0.21046755189E+03  0.31122712827E+03  0.15294330000E+03 0.  1.
<mgrwt>
<rscale>  0 0.51841217E+03</rscale>
<asrwt>0</asrwt>
<pdfrwt beam="1">  1        2 0.13881330E+00 0.68042949E+03</pdfrwt>
<pdfrwt beam="2">  1       -2 0.35511888E-01 0.68042949E+03</pdfrwt>
<totfact> 0.22053518E+02</totfact>
</mgrwt>
</event>
<event>
 4    2  0.3855935E-007  0.1089852E+04  0.7818608E-02  0.9272440E-01
          2   -1    0    0  501    0  0.00000000000E+00  0.00000000000E+00  0.80604629876E+03  0.80604629877E+03  0.25500000000E-02 0. -1.
         -2   -1    0    0    0  501 -0.00000000000E+00 -0.00000000000E+00 -0.15574431915E+04  0.15574431915E+04  0.25500000000E-02 0.  1.
    8880023    1    1    2    0    0 -0.80130919118E+03  0.33446943012E+03  0.15288567520E+03  0.11005228101E+04  0.65864270000E+03 0.  0.
    8880022    1    1    2    0    0  0.80130919118E+03 -0.33446943012E+03 -0.90428256793E+03  0.12629666802E+04  0.15294330000E+03 0.  0.
<mgrwt>
<rscale>  0 0.10336015E+04</rscale>
<asrwt>0</asrwt>
<pdfrwt beam="1">  1        2 0.12400712E+00 0.10898516E+04</pdfrwt>
<pdfrwt beam="2">  1       -2 0.23960665E+00 0.10898516E+04</pdfrwt>
<totfact> 0.25062947E+00</totfact>
</mgrwt>
</event>
<event>
 4    2  0.3855935E-007  0.8796908E+03  0.7818608E-02  0.9559454E-01
          2   -1    0    0  501    0  0.00000000000E+00  0.00000000000E+00  0.87710832090E+03  0.87710832091E+03  0.25500000000E-02 0. -1.
         -2   -1    0    0    0  501 -0.00000000000E+00 -0.00000000000E+00 -0.72423647464E+03  0.72423647464E+03  0.25500000000E-02 0.  1.
    8880023    1    1    2    0    0  0.43237390403E+03  0.39127792789E+03 -0.20091627395E+03  0.90234315266E+03  0.65864270000E+03 0. -1.
    8880022    1    1    2    0    0 -0.43237390403E+03 -0.39127792789E+03  0.35378812022E+03  0.69900164289E+03  0.15294330000E+03 0.  0.
<mgrwt>
<rscale>  0 0.80038916E+03</rscale>
<asrwt>0</asrwt>
<pdfrwt beam="1">  1        2 0.13493974E+00 0.87969075E+03</pdfrwt>
<pdfrwt beam="2">  1       -2 0.11142100E+00 0.87969075E+03</pdfrwt>
<totfact> 0.19418598E+01</totfact>
</mgrwt>
</event>
<event>
 4    2  0.3855935E-007  0.9704889E+03  0.7818608E-02  0.9421228E-01
          2   -1    0    0  501    0  0.00000000000E+00  0.00000000000E+00  0.11716136310E+04  0.11716136310E+04  0.25500000000E-02 0. -1.
         -2   -1    0    0    0  501 -0.00000000000E+00 -0.00000000000E+00 -0.10977597817E+04  0.10977597817E+04  0.25500000000E-02 0.  1.
    8880023    1    1    2    0    0  0.41069111725E+03  0.58255576284E+03 -0.70731370001E+03  0.12008918715E+04  0.65864270000E+03 0.  0.
    8880022    1    1    2    0    0 -0.41069111725E+03 -0.58255576284E+03  0.78116754933E+03  0.10684815411E+04  0.15294330000E+03 0.  0.
<mgrwt>
<rscale>  0 0.90349068E+03</rscale>
<asrwt>0</asrwt>
<pdfrwt beam="1">  1        2 0.18024825E+00 0.97048885E+03</pdfrwt>
<pdfrwt beam="2">  1       -2 0.16888612E+00 0.97048885E+03</pdfrwt>
<totfact> 0.42522969E+00</totfact>
</mgrwt>
</event>
<event>
 4    2  0.3855935E-007  0.6861521E+03  0.7818608E-02  0.1006038E+00
          2   -1    0    0  501    0  0.00000000000E+00  0.00000000000E+00  0.51872321209E+03  0.51872321210E+03  0.25500000000E-02 0. -1.
         -2   -1    0    0    0  501 -0.00000000000E+00 -0.00000000000E+00 -0.46498273608E+03  0.46498273609E+03  0.25500000000E-02 0.  1.
    8880023    1    1    2    0    0  0.99888205329E+02 -0.16436815108E+03 -0.10064959237E+03  0.69349483730E+03  0.65864270000E+03 0.  1.
    8880022    1    1    2    0    0 -0.99888205329E+02  0.16436815108E+03  0.15439006838E+03  0.29021111089E+03  0.15294330000E+03 0. -1.
<mgrwt>
<rscale>  0 0.53080196E+03</rscale>
<asrwt>0</asrwt>
<pdfrwt beam="1">  1        2 0.79803571E-01 0.68615213E+03</pdfrwt>
<pdfrwt beam="2">  1       -2 0.71535806E-01 0.68615213E+03</pdfrwt>
<totfact> 0.10608707E+02</totfact>
</mgrwt>
</event>
<event>
 4    2  0.3855935E-007  0.7506815E+03  0.7818608E-02  0.9829858E-01
          2   -1    0    0  501    0  0.00000000000E+00  0.00000000000E+00  0.83482260454E+03  0.83482260454E+03  0.25500000000E-02 0. -1.
         -2   -1    0    0    0  501 -0.00000000000E+00 -0.00000000000E+00 -0.45501869372E+03  0.45501869373E+03  0.25500000000E-02 0.  1.
    8880023    1    1    2    0    0 -0.19957092098E+02 -0.35960286445E+03  0.89513978567E+01  0.75073486627E+03  0.65864270000E+03 0. -1.
    8880022    1    1    2    0    0  0.19957092098E+02  0.35960286445E+03  0.37085251296E+03  0.53910643200E+03  0.15294330000E+03 0.  0.
<mgrwt>
<rscale>  0 0.63784500E+03</rscale>
<asrwt>0</asrwt>
<pdfrwt beam="1">  1        2 0.12843425E+00 0.75068150E+03</pdfrwt>
<pdfrwt beam="2">  1       -2 0.70002876E-01 0.75068150E+03</pdfrwt>
<totfact> 0.61282616E+01</totfact>
</mgrwt>
</event>
<event>
 4    2  0.3855935E-007  0.9946241E+03  0.7818608E-02  0.9388625E-01
         -2   -1    0    0    0  501 -0.00000000000E+00  0.00000000000E+00  0.45972674541E+03  0.45972674541E+03  0.25500000000E-02 0.  1.
          2   -1    0    0  501    0  0.00000000000E+00 -0.00000000000E+00 -0.21408933908E+04  0.21408933909E+04  0.25500000000E-02 0. -1.
    8880023    1    1    2    0    0  0.70769588898E+03  0.23373782281E+03 -0.32635945247E+03  0.10467987102E+04  0.65864270000E+03 0.  0.
    8880022    1    1    2    0    0 -0.70769588898E+03 -0.23373782281E+03 -0.13548071930E+04  0.15538214261E+04  0.15294330000E+03 0.  0.
<mgrwt>
<rscale>  0 0.93017738E+03</rscale>
<asrwt>0</asrwt>
<pdfrwt beam="1">  1        2 0.32936821E+00 0.99462407E+03</pdfrwt>
<pdfrwt beam="2">  1       -2 0.70727193E-01 0.99462407E+03</pdfrwt>
<totfact> 0.10185918E+01</totfact>
</mgrwt>
</event>
<event>
 4    2  0.3855935E-007  0.7667812E+03  0.7818608E-02  0.9787858E-01
         -2   -1    0    0    0  501 -0.00000000000E+00  0.00000000000E+00  0.38078829507E+03  0.38078829508E+03  0.25500000000E-02 0.  1.
          2   -1    0    0  501    0  0.00000000000E+00 -0.00000000000E+00 -0.92868285822E+03  0.92868285822E+03  0.25500000000E-02 0. -1.
    8880023    1    1    2    0    0  0.39084821617E+03 -0.37159173091E+02 -0.32519400373E+03  0.83288923547E+03  0.65864270000E+03 0. -1.
    8880022    1    1    2    0    0 -0.39084821617E+03  0.37159173091E+02 -0.22270055942E+03  0.47658191783E+03  0.15294330000E+03 0.  1.
<mgrwt>
<rscale>  0 0.66018250E+03</rscale>
<asrwt>0</asrwt>
<pdfrwt beam="1">  1        2 0.14287428E+00 0.76678115E+03</pdfrwt>
<pdfrwt beam="2">  1       -2 0.58582815E-01 0.76678115E+03</pdfrwt>
<totfact> 0.77366383E+01</totfact>
</mgrwt>
</event>
<event>
 4    2  0.3855935E-007  0.7876106E+03  0.7818608E-02  0.9738254E-01
          2   -1    0    0  501    0  0.00000000000E+00  0.00000000000E+00  0.60048946520E+03  0.60048946521E+03  0.25500000000E-02 0. -1.
         -2   -1    0    0    0  501 -0.00000000000E+00 -0.00000000000E+00 -0.12608710732E+04  0.12608710732E+04  0.25500000000E-02 0.  1.
    8880023    1    1    2    0    0 -0.43181727675E+03  0.73507183573E+01 -0.10130397787E+04  0.12831913314E+04  0.65864270000E+03 0.  1.
    8880022    1    1    2    0    0  0.43181727675E+03 -0.73507183573E+01  0.35265817069E+03  0.57816920700E+03  0.15294330000E+03 0.  0.
<mgrwt>
<rscale>  0 0.68784133E+03</rscale>
<asrwt>0</asrwt>
<pdfrwt beam="1">  1        2 0.92382995E-01 0.78761056E+03</pdfrwt>
<pdfrwt beam="2">  1       -2 0.19398016E+00 0.78761056E+03</pdfrwt>
<totfact> 0.73305814E+00</totfact>
</mgrwt>
</event>
<event>
 4    2  0.3855935E-007  0.6720209E+03  0.7818608E-02  0.1014254E+00
         -2   -1    0    0    0  501 -0.00000000000E+00  0.00000000000E+00  0.41744707851E+03  0.41744707852E+03  0.25500000000E-02 0.  1.
          2   -1    0    0  501    0  0.00000000000E+00 -0.00000000000E+00 -0.19721284628E+04  0.19721284628E+04  0.25500000000E-02 0. -1.
    8880023    1    1    2    0    0  0.67026358797E+02  0.11536643327E+03  0.13693202020E+03  0.68582981207E+03  0.65864270000E+03 0.  1.
    8880022    1    1    2    0    0 -0.67026358797E+02 -0.11536643327E+03 -0.16916134045E+04  0.17037457292E+04  0.15294330000E+03 0.  0.
<mgrwt>
<rscale>  0 0.49818520E+03</rscale>
<asrwt>0</asrwt>
<pdfrwt beam="1">  1        2 0.30340437E+00 0.67202095E+03</pdfrwt>
<pdfrwt beam="2">  1       -2 0.64222629E-01 0.67202095E+03</pdfrwt>
<totfact> 0.16228284E+01</totfact>
</mgrwt>
</event>
<event>
 4    2  0.4803176E-007  0.7344196E+03  0.7818608E-02  0.9876511E-01
         -2   -1    0    0    0  501 -0.00000000000E+00  0.00000000000E+00  0.12981798018E+04  0.12981798018E+04  0.25500000000E-02 0.  1.
          2   -1    0    0  501    0  0.00000000000E+00 -0.00000000000E+00 -0.16113701786E+04  0.16113701786E+04  0.25500000000E-02 0. -1.
    8880023    1    1    2    0    0  0.23576379465E+03  0.22355604506E+03  0.11711570887E+04  0.13823823657E+04  0.65864270000E+03 0.  1.
    8880022    1    1    2    0    0 -0.23576379465E+03 -0.22355604506E+03 -0.14843474655E+04  0.15271676147E+04  0.15294330000E+03 0.  0.
<mgrwt>
<rscale>  0 0.61413285E+03</rscale>
<asrwt>0</asrwt>
<pdfrwt beam="1">  1        2 0.24790310E+00 0.73441955E+03</pdfrwt>
<pdfrwt beam="2">  1       -2 0.19971997E+00 0.73441955E+03</pdfrwt>
<totfact> 0.15230557E+00</totfact>
</mgrwt>
</event>
<event>
 4    2  0.3855935E-007  0.8456635E+03  0.7818608E-02  0.9619592E-01
         -2   -1    0    0    0  501 -0.00000000000E+00  0.00000000000E+00  0.59978699359E+03  0.59978699359E+03  0.25500000000E-02 0.  1.
          2   -1    0    0  501    0  0.00000000000E+00 -0.00000000000E+00 -0.12634227708E+04  0.12634227708E+04  0.25500000000E-02 0. -1.
    8880023    1    1    2    0    0 -0.34081885208E+03  0.40642224664E+03  0.17076589470E+03  0.86273271038E+03  0.65864270000E+03 0.  1.
    8880022    1    1    2    0    0  0.34081885208E+03 -0.40642224664E+03 -0.83440167192E+03  0.10004770540E+04  0.15294330000E+03 0.  0.
<mgrwt>
<rscale>  0 0.76012893E+03</rscale>
<asrwt>0</asrwt>
<pdfrwt beam="1">  1        2 0.19437273E+00 0.84566349E+03</pdfrwt>
<pdfrwt beam="2">  1       -2 0.92274923E-01 0.84566349E+03</pdfrwt>
<totfact> 0.17488751E+01</totfact>
</mgrwt>
</event>
<event>
 4    2  0.3855935E-007  0.8508764E+03  0.7818608E-02  0.9610003E-01
         -2   -1    0    0    0  501 -0.00000000000E+00  0.00000000000E+00  0.77600041318E+03  0.77600041318E+03  0.25500000000E-02 0.  1.
          2   -1    0    0  501    0  0.00000000000E+00 -0.00000000000E+00 -0.67024742297E+03  0.67024742297E+03  0.25500000000E-02 0. -1.
    8880023    1    1    2    0    0 -0.97428241124E+02 -0.52980014780E+03  0.21057639223E+03  0.87654610946E+03  0.65864270000E+03 0.  0.
    8880022    1    1    2    0    0  0.97428241124E+02  0.52980014780E+03 -0.10482340202E+03  0.56970172670E+03  0.15294330000E+03 0.  0.
<mgrwt>
<rscale>  0 0.76637626E+03</rscale>
<asrwt>0</asrwt>
<pdfrwt beam="1">  1        2 0.10311499E+00 0.85087641E+03</pdfrwt>
<pdfrwt beam="2">  1       -2 0.11938468E+00 0.85087641E+03</pdfrwt>
<totfact> 0.23391459E+01</totfact>
</mgrwt>
</event>
<event>
 4    2  0.3855935E-007  0.8999665E+03  0.7818608E-02  0.9526085E-01
         -2   -1    0    0    0  501 -0.00000000000E+00  0.00000000000E+00  0.21988585901E+04  0.21988585901E+04  0.25500000000E-02 0.  1.
          2   -1    0    0  501    0  0.00000000000E+00 -0.00000000000E+00 -0.35936525673E+03  0.35936525674E+03  0.25500000000E-02 0. -1.
    8880023    1    1    2    0    0  0.60486266386E+03  0.10134378827E+03  0.16807297457E+04  0.19065130710E+04  0.65864270000E+03 0. -1.
    8880022    1    1    2    0    0 -0.60486266386E+03 -0.10134378827E+03  0.15876358765E+03  0.65171077583E+03  0.15294330000E+03 0.  0.
<mgrwt>
<rscale>  0 0.82387666E+03</rscale>
<asrwt>0</asrwt>
<pdfrwt beam="1">  1        2 0.55286962E-01 0.89996645E+03</pdfrwt>
<pdfrwt beam="2">  1       -2 0.33828594E+00 0.89996645E+03</pdfrwt>
<totfact> 0.16987528E+00</totfact>
</mgrwt>
</event>
<event>
 4    2  0.3855935E-007  0.7948947E+03  0.7818608E-02  0.9721945E-01
          2   -1    0    0  501    0  0.00000000000E+00  0.00000000000E+00  0.46814022246E+03  0.46814022247E+03  0.25500000000E-02 0. -1.
         -2   -1    0    0    0  501 -0.00000000000E+00 -0.00000000000E+00 -0.11027234213E+04  0.11027234213E+04  0.25500000000E-02 0.  1.
    8880023    1    1    2    0    0  0.43298602472E+03  0.10281275378E+03 -0.74287665957E+03  0.10879904860E+04  0.65864270000E+03 0.  0.
    8880022    1    1    2    0    0 -0.43298602472E+03 -0.10281275378E+03  0.10829346068E+03  0.48287315786E+03  0.15294330000E+03 0.  0.
<mgrwt>
<rscale>  0 0.69725071E+03</rscale>
<asrwt>0</asrwt>
<pdfrwt beam="1">  1        2 0.72021573E-01 0.79489469E+03</pdfrwt>
<pdfrwt beam="2">  1       -2 0.16964976E+00 0.79489469E+03</pdfrwt>
<totfact> 0.14403359E+01</totfact>
</mgrwt>
</event>
<event>
 4    2  0.3855935E-007  0.8768250E+03  0.7818608E-02  0.9564308E-01
          2   -1    0    0  501    0  0.00000000000E+00  0.00000000000E+00  0.17004089271E+04  0.17004089271E+04  0.25500000000E-02 0. -1.
         -2   -1    0    0    0  501 -0.00000000000E+00 -0.00000000000E+00 -0.62942750098E+03  0.62942750098E+03  0.25500000000E-02 0.  1.
    8880023    1    1    2    0    0 -0.21619176983E+03  0.53691064211E+03 -0.22242646516E+03  0.90459695866E+03  0.65864270000E+03 0.  1.
    8880022    1    1    2    0    0  0.21619176983E+03 -0.53691064211E+03  0.12934078912E+04  0.14252394694E+04  0.15294330000E+03 0.  0.
<mgrwt>
<rscale>  0 0.79704207E+03</rscale>
<asrwt>0</asrwt>
<pdfrwt beam="1">  1        2 0.26160138E+00 0.87682503E+03</pdfrwt>
<pdfrwt beam="2">  1       -2 0.96834999E-01 0.87682503E+03</pdfrwt>
<totfact> 0.88349562E+00</totfact>
</mgrwt>
</event>
<event>
 4    2  0.3855935E-007  0.9481940E+03  0.7818608E-02  0.9452717E-01
          2   -1    0    0  501    0  0.00000000000E+00  0.00000000000E+00  0.13738547872E+04  0.13738547872E+04  0.25500000000E-02 0. -1.
         -2   -1    0    0    0  501 -0.00000000000E+00 -0.00000000000E+00 -0.68720614441E+03  0.68720614442E+03  0.25500000000E-02 0.  1.
    8880023    1    1    2    0    0  0.79541249234E+02 -0.67744731163E+03  0.92289608625E+03  0.13231814171E+04  0.65864270000E+03 0.  1.
    8880022    1    1    2    0    0 -0.79541249234E+02  0.67744731163E+03 -0.23624744345E+03  0.73787951450E+03  0.15294330000E+03 0.  0.
<mgrwt>
<rscale>  0 0.87861378E+03</rscale>
<asrwt>0</asrwt>
<pdfrwt beam="1">  1        2 0.21136228E+00 0.94819401E+03</pdfrwt>
<pdfrwt beam="2">  1       -2 0.10572402E+00 0.94819401E+03</pdfrwt>
<totfact> 0.10824787E+01</totfact>
</mgrwt>
</event>
<event>
 4    2  0.3855935E-007  0.8511066E+03  0.7818608E-02  0.9609583E-01
          2   -1    0    0  501    0  0.00000000000E+00  0.00000000000E+00  0.14281543118E+04  0.14281543118E+04  0.25500000000E-02 0. -1.
         -2   -1    0    0    0  501 -0.00000000000E+00 -0.00000000000E+00 -0.63700366580E+03  0.63700366581E+03  0.25500000000E-02 0.  1.
    8880023    1    1    2    0    0  0.27697558335E+03 -0.46244656810E+03 -0.24632890737E+03  0.88603636437E+03  0.65864270000E+03 0.  1.
    8880022    1    1    2    0    0 -0.27697558335E+03  0.46244656810E+03  0.10374795534E+04  0.11791216132E+04  0.15294330000E+03 0.  0.
<mgrwt>
<rscale>  0 0.76665144E+03</rscale>
<asrwt>0</asrwt>
<pdfrwt beam="1">  1        2 0.21971605E+00 0.85110664E+03</pdfrwt>
<pdfrwt beam="2">  1       -2 0.98000564E-01 0.85110664E+03</pdfrwt>
<totfact> 0.12210614E+01</totfact>
</mgrwt>
</event>
<event>
 4    2  0.3855935E-007  0.7771671E+03  0.7818608E-02  0.9762534E-01
          2   -1    0    0  501    0  0.00000000000E+00  0.00000000000E+00  0.20063339216E+04  0.20063339216E+04  0.25500000000E-02 0. -1.
         -2   -1    0    0    0  501 -0.00000000000E+00 -0.00000000000E+00 -0.25275162745E+03  0.25275162746E+03  0.25500000000E-02 0.  1.
    8880023    1    1    2    0    0 -0.25141558500E+03  0.32706079174E+03  0.48430466873E+03  0.91571817515E+03  0.65864270000E+03 0.  1.
    8880022    1    1    2    0    0  0.25141558500E+03 -0.32706079174E+03  0.12692776254E+04  0.13433673739E+04  0.15294330000E+03 0.  0.
<mgrwt>
<rscale>  0 0.67412532E+03</rscale>
<asrwt>0</asrwt>
<pdfrwt beam="1">  1        2 0.30866675E+00 0.77716714E+03</pdfrwt>
<pdfrwt beam="2">  1       -2 0.38884866E-01 0.77716714E+03</pdfrwt>
<totfact> 0.42563426E+01</totfact>
</mgrwt>
</event>
<event>
 4    2  0.3855935E-007  0.6640763E+03  0.7818608E-02  0.1020321E+00
          2   -1    0    0  501    0  0.00000000000E+00  0.00000000000E+00  0.30058662209E+04  0.30058662209E+04  0.25500000000E-02 0. -1.
         -2   -1    0    0    0  501 -0.00000000000E+00 -0.00000000000E+00 -0.13660782560E+03  0.13660782562E+03  0.25500000000E-02 0.  1.
    8880023    1    1    2    0    0 -0.20103543105E+02 -0.82358956121E+02  0.69524053521E+03  0.96143473942E+03  0.65864270000E+03 0.  1.
    8880022    1    1    2    0    0  0.20103543105E+02  0.82358956121E+02  0.21740178601E+04  0.21810393071E+04  0.15294330000E+03 0.  0.
<mgrwt>
<rscale>  0 0.47570866E+03</rscale>
<asrwt>0</asrwt>
<pdfrwt beam="1">  1        2 0.46244094E+00 0.66407632E+03</pdfrwt>
<pdfrwt beam="2">  1       -2 0.21016589E-01 0.66407632E+03</pdfrwt>
<totfact> 0.36180876E+01</totfact>
</mgrwt>
</event>
<event>
 4    2  0.3855935E-007  0.9645873E+03  0.7818608E-02  0.9429430E-01
         -2   -1    0    0    0  501 -0.00000000000E+00  0.00000000000E+00  0.15205026363E+04  0.15205026363E+04  0.25500000000E-02 0.  1.
          2   -1    0    0  501    0  0.00000000000E+00 -0.00000000000E+00 -0.75719338633E+03  0.75719338633E+03  0.25500000000E-02 0. -1.
    8880023    1    1    2    0    0 -0.58558996990E+03  0.39204951538E+03  0.11158847593E+04  0.14750008264E+04  0.65864270000E+03 0.  1.
    8880022    1    1    2    0    0  0.58558996990E+03 -0.39204951538E+03 -0.35257550935E+03  0.80269519630E+03  0.15294330000E+03 0.  0.
<mgrwt>
<rscale>  0 0.89692808E+03</rscale>
<asrwt>0</asrwt>
<pdfrwt beam="1">  1        2 0.11649129E+00 0.96458729E+03</pdfrwt>
<pdfrwt beam="2">  1       -2 0.23392348E+00 0.96458729E+03</pdfrwt>
<totfact> 0.29923310E+00</totfact>
</mgrwt>
</event>
<event>
 4    2  0.3855935E-007  0.6593860E+03  0.7818608E-02  0.1024794E+00
         -2   -1    0    0    0  501 -0.00000000000E+00  0.00000000000E+00  0.32687681123E+03  0.32687681124E+03  0.25500000000E-02 0.  1.
          2   -1    0    0  501    0  0.00000000000E+00 -0.00000000000E+00 -0.51962886028E+03  0.51962886028E+03  0.25500000000E-02 0. -1.
    8880023    1    1    2    0    0  0.14507727053E+02 -0.27734760327E+02 -0.20335915842E+03  0.69003249536E+03  0.65864270000E+03 0. -1.
    8880022    1    1    2    0    0 -0.14507727053E+02  0.27734760327E+02  0.10607109380E+02  0.15647317616E+03  0.15294330000E+03 0.  0.
<mgrwt>
<rscale>  0 0.45995435E+03</rscale>
<asrwt>0</asrwt>
<pdfrwt beam="1">  1        2 0.79942901E-01 0.65938600E+03</pdfrwt>
<pdfrwt beam="2">  1       -2 0.50288740E-01 0.65938600E+03</pdfrwt>
<totfact> 0.22299234E+02</totfact>
</mgrwt>
</event>
<event>
 4    2  0.3855935E-007  0.7845366E+03  0.7818608E-02  0.9745286E-01
         -2   -1    0    0    0  501 -0.00000000000E+00  0.00000000000E+00  0.82834757345E+03  0.82834757345E+03  0.25500000000E-02 0.  1.
          2   -1    0    0  501    0  0.00000000000E+00 -0.00000000000E+00 -0.11128595923E+04  0.11128595923E+04  0.25500000000E-02 0. -1.
    8880023    1    1    2    0    0  0.41610211976E+03  0.92447347533E+02  0.57296906801E+03  0.97148918949E+03  0.65864270000E+03 0.  1.
    8880022    1    1    2    0    0 -0.41610211976E+03 -0.92447347533E+02 -0.85748108683E+03  0.96971797623E+03  0.15294330000E+03 0.  0.
<mgrwt>
<rscale>  0 0.68383307E+03</rscale>
<asrwt>0</asrwt>
<pdfrwt beam="1">  1        2 0.17120917E+00 0.78453661E+03</pdfrwt>
<pdfrwt beam="2">  1       -2 0.12743809E+00 0.78453661E+03</pdfrwt>
<totfact> 0.99122238E+00</totfact>
</mgrwt>
</event>
<event>
 4    2  0.3855935E-007  0.8527611E+03  0.7818608E-02  0.9606572E-01
          2   -1    0    0  501    0  0.00000000000E+00  0.00000000000E+00  0.25842394689E+04  0.25842394689E+04  0.25500000000E-02 0. -1.
         -2   -1    0    0    0  501 -0.00000000000E+00 -0.00000000000E+00 -0.31169806267E+03  0.31169806268E+03  0.25500000000E-02 0.  1.
    8880023    1    1    2    0    0  0.52595971139E+03 -0.12945170052E+03  0.40239753802E+03  0.94293443337E+03  0.65864270000E+03 0.  1.
    8880022    1    1    2    0    0 -0.52595971139E+03  0.12945170052E+03  0.18701438682E+04  0.19530030982E+04  0.15294330000E+03 0.  0.
<mgrwt>
<rscale>  0 0.76862727E+03</rscale>
<asrwt>0</asrwt>
<pdfrwt beam="1">  1        2 0.39757531E+00 0.85276114E+03</pdfrwt>
<pdfrwt beam="2">  1       -2 0.47953547E-01 0.85276114E+03</pdfrwt>
<totfact> 0.13237812E+01</totfact>
</mgrwt>
</event>
<event>
 4    2  0.3855935E-007  0.7611988E+03  0.7818608E-02  0.9802014E-01
          2   -1    0    0  501    0  0.00000000000E+00  0.00000000000E+00  0.16790172166E+04  0.16790172166E+04  0.25500000000E-02 0. -1.
         -2   -1    0    0    0  501 -0.00000000000E+00 -0.00000000000E+00 -0.36228243994E+03  0.36228243995E+03  0.25500000000E-02 0.  1.
    8880023    1    1    2    0    0  0.31240580755E+03  0.21912551274E+03  0.11330056059E+03  0.76958469464E+03  0.65864270000E+03 0.  0.
    8880022    1    1    2    0    0 -0.31240580755E+03 -0.21912551274E+03  0.12034342161E+04  0.12717149619E+04  0.15294330000E+03 0.  0.
<mgrwt>
<rscale>  0 0.65254583E+03</rscale>
<asrwt>0</asrwt>
<pdfrwt beam="1">  1        2 0.25831034E+00 0.76119878E+03</pdfrwt>
<pdfrwt beam="2">  1       -2 0.55735760E-01 0.76119878E+03</pdfrwt>
<totfact> 0.31224067E+01</totfact>
</mgrwt>
</event>
<event>
 4    2  0.3855935E-007  0.6849717E+03  0.7818608E-02  0.1006640E+00
         -2   -1    0    0    0  501 -0.00000000000E+00  0.00000000000E+00  0.70674694540E+03  0.70674694540E+03  0.25500000000E-02 0.  1.
          2   -1    0    0  501    0  0.00000000000E+00 -0.00000000000E+00 -0.47155286562E+03  0.47155286563E+03  0.25500000000E-02 0. -1.
    8880023    1    1    2    0    0 -0.18754263807E+03  0.14273432687E+02  0.47794248425E+03  0.83523361791E+03  0.65864270000E+03 0.  0.
    8880022    1    1    2    0    0  0.18754263807E+03 -0.14273432687E+02 -0.24274840447E+03  0.34306619312E+03  0.15294330000E+03 0.  0.
<mgrwt>
<rscale>  0 0.52831960E+03</rscale>
<asrwt>0</asrwt>
<pdfrwt beam="1">  1        2 0.72546595E-01 0.68497166E+03</pdfrwt>
<pdfrwt beam="2">  1       -2 0.10873030E+00 0.68497166E+03</pdfrwt>
<totfact> 0.45264732E+01</totfact>
</mgrwt>
</event>
<event>
 4    2  0.3855935E-007  0.8024504E+03  0.7818608E-02  0.9705523E-01
          2   -1    0    0  501    0  0.00000000000E+00  0.00000000000E+00  0.11672684070E+04  0.11672684070E+04  0.25500000000E-02 0. -1.
         -2   -1    0    0    0  501 -0.00000000000E+00 -0.00000000000E+00 -0.45664733045E+03  0.45664733046E+03  0.25500000000E-02 0.  1.
    8880023    1    1    2    0    0  0.43006821086E+03  0.15861212722E+03  0.48101037538E+02  0.80389078174E+03  0.65864270000E+03 0.  1.
    8880022    1    1    2    0    0 -0.43006821086E+03 -0.15861212722E+03  0.66252003896E+03  0.82002495568E+03  0.15294330000E+03 0.  0.
<mgrwt>
<rscale>  0 0.70688930E+03</rscale>
<asrwt>0</asrwt>
<pdfrwt beam="1">  1        2 0.17957975E+00 0.80245042E+03</pdfrwt>
<pdfrwt beam="2">  1       -2 0.70253436E-01 0.80245042E+03</pdfrwt>
<totfact> 0.37021383E+01</totfact>
</mgrwt>
</event>
<event>
 4    2  0.3855935E-007  0.1015335E+04  0.7818608E-02  0.9361764E-01
         -2   -1    0    0    0  501 -0.00000000000E+00  0.00000000000E+00  0.45776042568E+03  0.45776042569E+03  0.25500000000E-02 0.  1.
          2   -1    0    0  501    0  0.00000000000E+00 -0.00000000000E+00 -0.32948215218E+04  0.32948215218E+04  0.25500000000E-02 0. -1.
    8880023    1    1    2    0    0 -0.46542793755E+03  0.61682468340E+03 -0.27836748987E+04  0.29630646303E+04  0.65864270000E+03 0. -1.
    8880022    1    1    2    0    0  0.46542793755E+03 -0.61682468340E+03 -0.53386197387E+02  0.78951731722E+03  0.15294330000E+03 0.  0.
<mgrwt>
<rscale>  0 0.95290321E+03</rscale>
<asrwt>0</asrwt>
<pdfrwt beam="1">  1        2 0.50689560E+00 0.10153354E+04</pdfrwt>
<pdfrwt beam="2">  1       -2 0.70424683E-01 0.10153354E+04</pdfrwt>
<totfact> 0.21160054E+00</totfact>
</mgrwt>
</event>
<event>
 4    2  0.3855935E-007  0.9080054E+03  0.7818608E-02  0.9513301E-01
          2   -1    0    0  501    0  0.00000000000E+00  0.00000000000E+00  0.26045977856E+04  0.26045977856E+04  0.25500000000E-02 0. -1.
         -2   -1    0    0    0  501 -0.00000000000E+00 -0.00000000000E+00 -0.38710356589E+03  0.38710356590E+03  0.25500000000E-02 0.  1.
    8880023    1    1    2    0    0 -0.57031762420E+03 -0.25573684870E+03  0.21630838853E+04  0.23459338502E+04  0.65864270000E+03 0. -1.
    8880022    1    1    2    0    0  0.57031762420E+03  0.25573684870E+03  0.54410334394E+02  0.64576750132E+03  0.15294330000E+03 0.  0.
<mgrwt>
<rscale>  0 0.83310279E+03</rscale>
<asrwt>0</asrwt>
<pdfrwt beam="1">  1        2 0.40070734E+00 0.90800536E+03</pdfrwt>
<pdfrwt beam="2">  1       -2 0.59554396E-01 0.90800536E+03</pdfrwt>
<totfact> 0.81677673E+00</totfact>
</mgrwt>
</event>
<event>
 4    2  0.3855935E-007  0.8399037E+03  0.7818608E-02  0.9630362E-01
         -2   -1    0    0    0  501 -0.00000000000E+00  0.00000000000E+00  0.99612725965E+03  0.99612725965E+03  0.25500000000E-02 0.  1.
          2   -1    0    0  501    0  0.00000000000E+00 -0.00000000000E+00 -0.51225775165E+03  0.51225775166E+03  0.25500000000E-02 0. -1.
    8880023    1    1    2    0    0  0.42639044381E+03 -0.29969861054E+03  0.10566288638E+03  0.84652402184E+03  0.65864270000E+03 0.  0.
    8880022    1    1    2    0    0 -0.42639044381E+03  0.29969861054E+03  0.37820662162E+03  0.66186098947E+03  0.15294330000E+03 0.  1.
<mgrwt>
<rscale>  0 0.75318821E+03</rscale>
<asrwt>0</asrwt>
<pdfrwt beam="1">  1        2 0.78808885E-01 0.83990373E+03</pdfrwt>
<pdfrwt beam="2">  1       -2 0.15325035E+00 0.83990373E+03</pdfrwt>
<totfact> 0.17045724E+01</totfact>
</mgrwt>
</event>
<event>
 4    2  0.3855935E-007  0.7132234E+03  0.7818608E-02  0.9946221E-01
          2   -1    0    0  501    0  0.00000000000E+00  0.00000000000E+00  0.16688905414E+04  0.16688905414E+04  0.25500000000E-02 0. -1.
         -2   -1    0    0    0  501 -0.00000000000E+00 -0.00000000000E+00 -0.24053175881E+03  0.24053175882E+03  0.25500000000E-02 0.  1.
    8880023    1    1    2    0    0 -0.66018984447E+02 -0.26555388987E+03  0.36574582107E+03  0.80153451992E+03  0.65864270000E+03 0.  1.
    8880022    1    1    2    0    0  0.66018984447E+02  0.26555388987E+03  0.10626129615E+04  0.11078877803E+04  0.15294330000E+03 0.  0.
<mgrwt>
<rscale>  0 0.58072598E+03</rscale>
<asrwt>0</asrwt>
<pdfrwt beam="1">  1        2 0.25675240E+00 0.71322337E+03</pdfrwt>
<pdfrwt beam="2">  1       -2 0.37004885E-01 0.71322337E+03</pdfrwt>
<totfact> 0.72086765E+01</totfact>
</mgrwt>
</event>
<event>
 4    2  0.3855935E-007  0.7011455E+03  0.7818608E-02  0.9992482E-01
         -2   -1    0    0    0  501 -0.00000000000E+00  0.00000000000E+00  0.24910013955E+03  0.24910013956E+03  0.25500000000E-02 0.  1.
          2   -1    0    0  501    0  0.00000000000E+00 -0.00000000000E+00 -0.40390895597E+04  0.40390895597E+04  0.25500000000E-02 0. -1.
    8880023    1    1    2    0    0  0.15062764295E+03 -0.18736639100E+03 -0.26166756839E+03  0.74838156973E+03  0.65864270000E+03 0.  1.
    8880022    1    1    2    0    0 -0.15062764295E+03  0.18736639100E+03 -0.35283218518E+04  0.35398081296E+04  0.15294330000E+03 0.  0.
<mgrwt>
<rscale>  0 0.55981123E+03</rscale>
<asrwt>0</asrwt>
<pdfrwt beam="1">  1        2 0.62139835E+00 0.70114553E+03</pdfrwt>
<pdfrwt beam="2">  1       -2 0.38323101E-01 0.70114553E+03</pdfrwt>
<totfact> 0.22977362E+00</totfact>
</mgrwt>
</event>
<event>
 4    2  0.3855935E-007  0.7888468E+03  0.7818608E-02  0.9735452E-01
          2   -1    0    0  501    0  0.00000000000E+00  0.00000000000E+00  0.16502655024E+04  0.16502655024E+04  0.25500000000E-02 0. -1.
         -2   -1    0    0    0  501 -0.00000000000E+00 -0.00000000000E+00 -0.48428775667E+03  0.48428775668E+03  0.25500000000E-02 0.  1.
    8880023    1    1    2    0    0 -0.43060969344E+03 -0.55175955074E+02 -0.92776211571E+02  0.79428378165E+03  0.65864270000E+03 0.  1.
    8880022    1    1    2    0    0  0.43060969344E+03  0.55175955074E+02  0.12587539573E+04  0.13402694774E+04  0.15294330000E+03 0.  0.
<mgrwt>
<rscale>  0 0.68944690E+03</rscale>
<asrwt>0</asrwt>
<pdfrwt beam="1">  1        2 0.25388700E+00 0.78884682E+03</pdfrwt>
<pdfrwt beam="2">  1       -2 0.74505808E-01 0.78884682E+03</pdfrwt>
<totfact> 0.17310408E+01</totfact>
</mgrwt>
</event>
<event>
 4    2  0.3855935E-007  0.7787085E+03  0.7818608E-02  0.9758880E-01
          2   -1    0    0  501    0  0.00000000000E+00  0.00000000000E+00  0.45411895800E+03  0.45411895801E+03  0.25500000000E-02 0. -1.
         -2   -1    0    0    0  501 -0.00000000000E+00 -0.00000000000E+00 -0.12781311812E+04  0.12781311812E+04  0.25500000000E-02 0.  1.
    8880023    1    1    2    0    0 -0.40001210905E+03 -0.11210259211E+03 -0.98992314976E+03  0.12594978076E+04  0.65864270000E+03 0.  0.
    8880022    1    1    2    0    0  0.40001210905E+03  0.11210259211E+03  0.16591092654E+03  0.47275233168E+03  0.15294330000E+03 0.  0.
<mgrwt>
<rscale>  0 0.67616769E+03</rscale>
<asrwt>0</asrwt>
<pdfrwt beam="1">  1        2 0.69864456E-01 0.77870847E+03</pdfrwt>
<pdfrwt beam="2">  1       -2 0.19663556E+00 0.77870847E+03</pdfrwt>
<totfact> 0.97832250E+00</totfact>
</mgrwt>
</event>
<event>
 4    2  0.3855935E-007  0.7647369E+03  0.7818608E-02  0.9792995E-01
          2   -1    0    0  501    0  0.00000000000E+00  0.00000000000E+00  0.19322396516E+04  0.19322396516E+04  0.25500000000E-02 0. -1.
         -2   -1    0    0    0  501 -0.00000000000E+00 -0.00000000000E+00 -0.27821824026E+03  0.27821824027E+03  0.25500000000E-02 0.  1.
    8880023    1    1    2    0    0  0.46184995173E+02 -0.38584882938E+03  0.34967912439E+03  0.84089123507E+03  0.65864270000E+03 0.  0.
    8880022    1    1    2    0    0 -0.46184995173E+02  0.38584882938E+03  0.13043422869E+04  0.13695666568E+04  0.15294330000E+03 0.  0.
<mgrwt>
<rscale>  0 0.65739835E+03</rscale>
<asrwt>0</asrwt>
<pdfrwt beam="1">  1        2 0.29726763E+00 0.76473693E+03</pdfrwt>
<pdfrwt beam="2">  1       -2 0.42802808E-01 0.76473693E+03</pdfrwt>
<totfact> 0.38769134E+01</totfact>
</mgrwt>
</event>
<event>
 4    2  0.3855935E-007  0.6883553E+03  0.7818608E-02  0.1004944E+00
         -2   -1    0    0    0  501 -0.00000000000E+00  0.00000000000E+00  0.11055134117E+03  0.11055134120E+03  0.25500000000E-02 0.  1.
          2   -1    0    0  501    0  0.00000000000E+00 -0.00000000000E+00 -0.28774041341E+04  0.28774041341E+04  0.25500000000E-02 0. -1.
    8880023    1    1    2    0    0 -0.16027128271E+02 -0.19941406693E+03 -0.10684891503E+04  0.12710240397E+04  0.65864270000E+03 0.  1.
    8880022    1    1    2    0    0  0.16027128271E+02  0.19941406693E+03 -0.16983636426E+04  0.17169314356E+04  0.15294330000E+03 0.  0.
<mgrwt>
<rscale>  0 0.53534416E+03</rscale>
<asrwt>0</asrwt>
<pdfrwt beam="1">  1        2 0.44267750E+00 0.68835532E+03</pdfrwt>
<pdfrwt beam="2">  1       -2 0.17007901E-01 0.68835532E+03</pdfrwt>
<totfact> 0.62194409E+01</totfact>
</mgrwt>
</event>
<event>
 4    2  0.3855935E-007  0.6937325E+03  0.7818608E-02  0.1002427E+00
          2   -1    0    0  501    0  0.00000000000E+00  0.00000000000E+00  0.61792552764E+03  0.61792552764E+03  0.25500000000E-02 0. -1.
         -2   -1    0    0    0  501 -0.00000000000E+00 -0.00000000000E+00 -0.12441998881E+04  0.12441998881E+04  0.25500000000E-02 0.  1.
    8880023    1    1    2    0    0 -0.21227921706E+03  0.48909438865E+02 -0.11106086864E+04  0.13094718248E+04  0.65864270000E+03 0.  1.
    8880022    1    1    2    0    0  0.21227921706E+03 -0.48909438865E+02  0.48433432601E+03  0.55265359094E+03  0.15294330000E+03 0.  0.
<mgrwt>
<rscale>  0 0.54598869E+03</rscale>
<asrwt>0</asrwt>
<pdfrwt beam="1">  1        2 0.95065466E-01 0.69373252E+03</pdfrwt>
<pdfrwt beam="2">  1       -2 0.19141537E+00 0.69373252E+03</pdfrwt>
<totfact> 0.74451415E+00</totfact>
</mgrwt>
</event>
<event>
 4    2  0.3855935E-007  0.7009735E+03  0.7818608E-02  0.9993186E-01
         -2   -1    0    0    0  501 -0.00000000000E+00  0.00000000000E+00  0.31592077029E+03  0.31592077030E+03  0.25500000000E-02 0.  1.
          2   -1    0    0  501    0  0.00000000000E+00 -0.00000000000E+00 -0.16748680911E+04  0.16748680911E+04  0.25500000000E-02 0. -1.
    8880023    1    1    2    0    0 -0.16977830500E+03 -0.16949631385E+03 -0.10964149149E+03  0.70949639617E+03  0.65864270000E+03 0.  0.
    8880022    1    1    2    0    0  0.16977830500E+03  0.16949631385E+03 -0.12493058293E+04  0.12812924652E+04  0.15294330000E+03 0.  0.
<mgrwt>
<rscale>  0 0.55950012E+03</rscale>
<asrwt>0</asrwt>
<pdfrwt beam="1">  1        2 0.25767201E+00 0.70097352E+03</pdfrwt>
<pdfrwt beam="2">  1       -2 0.48603196E-01 0.70097352E+03</pdfrwt>
<totfact> 0.41868260E+01</totfact>
</mgrwt>
</event>
<event>
 4    2  0.3855935E-007  0.9322407E+03  0.7818608E-02  0.9476140E-01
         -2   -1    0    0    0  501 -0.00000000000E+00  0.00000000000E+00  0.10625465297E+04  0.10625465297E+04  0.25500000000E-02 0.  1.
          2   -1    0    0  501    0  0.00000000000E+00 -0.00000000000E+00 -0.73596443106E+03  0.73596443106E+03  0.25500000000E-02 0. -1.
    8880023    1    1    2    0    0 -0.79626521843E+02 -0.65492140786E+03  0.55361019663E+03  0.10842310130E+04  0.65864270000E+03 0.  0.
    8880022    1    1    2    0    0  0.79626521843E+02  0.65492140786E+03 -0.22702809801E+03  0.71427994775E+03  0.15294330000E+03 0.  0.
<mgrwt>
<rscale>  0 0.86066014E+03</rscale>
<asrwt>0</asrwt>
<pdfrwt beam="1">  1        2 0.11322530E+00 0.93224066E+03</pdfrwt>
<pdfrwt beam="2">  1       -2 0.16346870E+00 0.93224066E+03</pdfrwt>
<totfact> 0.91109742E+00</totfact>
</mgrwt>
</event>
<event>
 4    2  0.3855935E-007  0.9312616E+03  0.7818608E-02  0.9477603E-01
         -2   -1    0    0    0  501 -0.00000000000E+00  0.00000000000E+00  0.14953056289E+04  0.14953056289E+04  0.25500000000E-02 0.  1.
          2   -1    0    0  501    0  0.00000000000E+00 -0.00000000000E+00 -0.12389158290E+04  0.12389158290E+04  0.25500000000E-02 0. -1.
    8880023    1    1    2    0    0 -0.34385054337E+03 -0.56143093225E+03 -0.96325548845E+03  0.13398168644E+04  0.65864270000E+03 0. -1.
    8880022    1    1    2    0    0  0.34385054337E+03  0.56143093225E+03  0.12196452884E+04  0.13944045935E+04  0.15294330000E+03 0.  0.
<mgrwt>
<rscale>  0 0.85955373E+03</rscale>
<asrwt>0</asrwt>
<pdfrwt beam="1">  1        2 0.19060244E+00 0.93126156E+03</pdfrwt>
<pdfrwt beam="2">  1       -2 0.23004702E+00 0.93126156E+03</pdfrwt>
<totfact> 0.15405481E+00</totfact>
</mgrwt>
</event>
<event>
 4    2  0.3855935E-007  0.8967594E+03  0.7818608E-02  0.9531254E-01
          2   -1    0    0  501    0  0.00000000000E+00  0.00000000000E+00  0.23859993390E+04  0.23859993390E+04  0.25500000000E-02 0. -1.
         -2   -1    0    0    0  501 -0.00000000000E+00 -0.00000000000E+00 -0.57443674444E+03  0.57443674445E+03  0.25500000000E-02 0.  1.
    8880023    1    1    2    0    0 -0.59313154707E+03  0.13624313031E+03 -0.14257246385E+03  0.90802221140E+03  0.65864270000E+03 0.  0.
    8880022    1    1    2    0    0  0.59313154707E+03 -0.13624313031E+03  0.19541350584E+04  0.20524138721E+04  0.15294330000E+03 0.  0.
<mgrwt>
<rscale>  0 0.82018297E+03</rscale>
<asrwt>0</asrwt>
<pdfrwt beam="1">  1        2 0.36707682E+00 0.89675940E+03</pdfrwt>
<pdfrwt beam="2">  1       -2 0.88374884E-01 0.89675940E+03</pdfrwt>
<totfact> 0.45614088E+00</totfact>
</mgrwt>
</event>
<event>
 4    2  0.3855935E-007  0.8622928E+03  0.7818608E-02  0.9589498E-01
          2   -1    0    0  501    0  0.00000000000E+00  0.00000000000E+00  0.25451124733E+04  0.25451124734E+04  0.25500000000E-02 0. -1.
         -2   -1    0    0    0  501 -0.00000000000E+00 -0.00000000000E+00 -0.27752364342E+03  0.27752364344E+03  0.25500000000E-02 0.  1.
    8880023    1    1    2    0    0 -0.48663961389E+03 -0.27003805844E+03  0.58033457347E+03  0.10393926545E+04  0.65864270000E+03 0.  1.
    8880022    1    1    2    0    0  0.48663961389E+03  0.27003805844E+03  0.16872542565E+04  0.17832434623E+04  0.15294330000E+03 0.  0.
<mgrwt>
<rscale>  0 0.77995194E+03</rscale>
<asrwt>0</asrwt>
<pdfrwt beam="1">  1        2 0.39155578E+00 0.86229280E+03</pdfrwt>
<pdfrwt beam="2">  1       -2 0.42695943E-01 0.86229280E+03</pdfrwt>
<totfact> 0.17561682E+01</totfact>
</mgrwt>
</event>
<event>
 4    2  0.3855935E-007  0.2000713E+04  0.7818608E-02  0.8618949E-01
          2   -1    0    0  501    0  0.00000000000E+00  0.00000000000E+00  0.35982777269E+04  0.35982777269E+04  0.25500000000E-02 0. -1.
         -2   -1    0    0    0  501 -0.00000000000E+00 -0.00000000000E+00 -0.13756175869E+04  0.13756175869E+04  0.25500000000E-02 0.  1.
    8880023    1    1    2    0    0 -0.13653805251E+04 -0.13056712200E+04  0.23353502479E+04  0.30751767916E+04  0.65864270000E+03 0.  0.
    8880022    1    1    2    0    0  0.13653805251E+04  0.13056712200E+04 -0.11269010781E+03  0.18987185222E+04  0.15294330000E+03 0.  0.
<mgrwt>
<rscale>  0 0.19738409E+04</rscale>
<asrwt>0</asrwt>
<pdfrwt beam="1">  1        2 0.55358118E+00 0.20007128E+04</pdfrwt>
<pdfrwt beam="2">  1       -2 0.21163348E+00 0.20007128E+04</pdfrwt>
<totfact> 0.69082970E-02</totfact>
</mgrwt>
</event>
<event>
 4    2  0.3855935E-007  0.8079116E+03  0.7818608E-02  0.9693943E-01
         -2   -1    0    0    0  501 -0.00000000000E+00  0.00000000000E+00  0.33601681556E+03  0.33601681557E+03  0.25500000000E-02 0.  1.
          2   -1    0    0  501    0  0.00000000000E+00 -0.00000000000E+00 -0.29506776299E+04  0.29506776299E+04  0.25500000000E-02 0. -1.
    8880023    1    1    2    0    0  0.75921463034E+01  0.46781766527E+03 -0.21356625195E+03  0.83566246706E+03  0.65864270000E+03 0.  0.
    8880022    1    1    2    0    0 -0.75921463034E+01 -0.46781766527E+03 -0.24010945624E+04  0.24510319784E+04  0.15294330000E+03 0.  0.
<mgrwt>
<rscale>  0 0.71378542E+03</rscale>
<asrwt>0</asrwt>
<pdfrwt beam="1">  1        2 0.45395039E+00 0.80791164E+03</pdfrwt>
<pdfrwt beam="2">  1       -2 0.51694897E-01 0.80791164E+03</pdfrwt>
<totfact> 0.69519566E+00</totfact>
</mgrwt>
</event>
<event>
 4    2  0.3855935E-007  0.1056339E+04  0.7818608E-02  0.9311300E-01
          2   -1    0    0  501    0  0.00000000000E+00  0.00000000000E+00  0.13295350014E+04  0.13295350014E+04  0.25500000000E-02 0. -1.
         -2   -1    0    0    0  501 -0.00000000000E+00 -0.00000000000E+00 -0.97390148604E+03  0.97390148604E+03  0.25500000000E-02 0.  1.
    8880023    1    1    2    0    0 -0.15444522205E+03 -0.81128825787E+03 -0.44205175692E+03  0.11451034565E+04  0.65864270000E+03 0.  1.
    8880022    1    1    2    0    0  0.15444522205E+03  0.81128825787E+03  0.79768527225E+03  0.11583330309E+04  0.15294330000E+03 0.  0.
<mgrwt>
<rscale>  0 0.99749222E+03</rscale>
<asrwt>0</asrwt>
<pdfrwt beam="1">  1        2 0.20454385E+00 0.10563390E+04</pdfrwt>
<pdfrwt beam="2">  1       -2 0.14983100E+00 0.10563390E+04</pdfrwt>
<totfact> 0.47077500E+00</totfact>
</mgrwt>
</event>
<event>
 4    2  0.3855935E-007  0.1144701E+04  0.7818608E-02  0.9212846E-01
         -2   -1    0    0    0  501 -0.00000000000E+00  0.00000000000E+00  0.17365478132E+04  0.17365478132E+04  0.25500000000E-02 0.  1.
          2   -1    0    0  501    0  0.00000000000E+00 -0.00000000000E+00 -0.99108084136E+03  0.99108084136E+03  0.25500000000E-02 0. -1.
    8880023    1    1    2    0    0  0.64111895691E+03 -0.68227355671E+03  0.12148684127E+04  0.16692052568E+04  0.65864270000E+03 0.  0.
    8880022    1    1    2    0    0 -0.64111895691E+03  0.68227355671E+03 -0.46940144085E+03  0.10584233977E+04  0.15294330000E+03 0.  0.
<mgrwt>
<rscale>  0 0.10921813E+04</rscale>
<asrwt>0</asrwt>
<pdfrwt beam="1">  1        2 0.15247398E+00 0.11447012E+04</pdfrwt>
<pdfrwt beam="2">  1       -2 0.26716120E+00 0.11447012E+04</pdfrwt>
<totfact> 0.12637228E+00</totfact>
</mgrwt>
</event>
<event>
 4    2  0.3855935E-007  0.6775887E+03  0.7818608E-02  0.1010722E+00
          2   -1    0    0  501    0  0.00000000000E+00  0.00000000000E+00  0.19707028267E+04  0.19707028267E+04  0.25500000000E-02 0. -1.
         -2   -1    0    0    0  501 -0.00000000000E+00 -0.00000000000E+00 -0.11002668206E+03  0.11002668209E+03  0.25500000000E-02 0.  1.
    8880023    1    1    2    0    0  0.12350016103E+03 -0.10031957097E+03  0.16098112003E+04  0.17466020190E+04  0.65864270000E+03 0.  0.
    8880022    1    1    2    0    0 -0.12350016103E+03  0.10031957097E+03  0.25086494440E+03  0.33412748979E+03  0.15294330000E+03 0.  0.
<mgrwt>
<rscale>  0 0.51188763E+03</rscale>
<asrwt>0</asrwt>
<pdfrwt beam="1">  1        2 0.30318506E+00 0.67758875E+03</pdfrwt>
<pdfrwt beam="2">  1       -2 0.16927182E-01 0.67758875E+03</pdfrwt>
<totfact> 0.20372689E+02</totfact>
</mgrwt>
</event>
<event>
 4    2  0.3855935E-007  0.7370796E+03  0.7818608E-02  0.9868537E-01
          2   -1    0    0  501    0  0.00000000000E+00  0.00000000000E+00  0.40384071686E+04  0.40384071686E+04  0.25500000000E-02 0. -1.
         -2   -1    0    0    0  501 -0.00000000000E+00 -0.00000000000E+00 -0.13855915549E+03  0.13855915551E+03  0.25500000000E-02 0.  1.
    8880023    1    1    2    0    0  0.28925800903E+03 -0.16064223746E+03  0.93886146999E+03  0.11936277436E+04  0.65864270000E+03 0.  0.
    8880022    1    1    2    0    0 -0.28925800903E+03  0.16064223746E+03  0.29609865431E+04  0.29833385805E+04  0.15294330000E+03 0.  0.
<mgrwt>
<rscale>  0 0.61810641E+03</rscale>
<asrwt>0</asrwt>
<pdfrwt beam="1">  1        2 0.62129341E+00 0.73707960E+03</pdfrwt>
<pdfrwt beam="2">  1       -2 0.21316793E-01 0.73707960E+03</pdfrwt>
<totfact> 0.67252952E+00</totfact>
</mgrwt>
</event>
<event>
 4    2  0.3855935E-007  0.9037451E+03  0.7818608E-02  0.9520046E-01
          2   -1    0    0  501    0  0.00000000000E+00  0.00000000000E+00  0.20530815173E+04  0.20530815173E+04  0.25500000000E-02 0. -1.
         -2   -1    0    0    0  501 -0.00000000000E+00 -0.00000000000E+00 -0.63697245241E+03  0.63697245241E+03  0.25500000000E-02 0.  1.
    8880023    1    1    2    0    0  0.12099618442E+03  0.60688129638E+03 -0.22343150320E+03  0.93095479344E+03  0.65864270000E+03 0.  0.
    8880022    1    1    2    0    0 -0.12099618442E+03 -0.60688129638E+03  0.16395405681E+04  0.17590991763E+04  0.15294330000E+03 0.  0.
<mgrwt>
<rscale>  0 0.82821904E+03</rscale>
<asrwt>0</asrwt>
<pdfrwt beam="1">  1        2 0.31585869E+00 0.90374509E+03</pdfrwt>
<pdfrwt beam="2">  1       -2 0.97995762E-01 0.90374509E+03</pdfrwt>
<totfact> 0.54827124E+00</totfact>
</mgrwt>
</event>
<event>
 4    2  0.3855935E-007  0.9839648E+03  0.7818608E-02  0.9402844E-01
         -2   -1    0    0    0  501 -0.00000000000E+00  0.00000000000E+00  0.15888659569E+04  0.15888659569E+04  0.25500000000E-02 0.  1.
          2   -1    0    0  501    0  0.00000000000E+00 -0.00000000000E+00 -0.71783079707E+03  0.71783079708E+03  0.25500000000E-02 0. -1.
    8880023    1    1    2    0    0  0.12872413489E+03  0.71958777350E+03  0.11463481605E+04  0.15107285587E+04  0.65864270000E+03 0.  0.
    8880022    1    1    2    0    0 -0.12872413489E+03 -0.71958777350E+03 -0.27531300061E+03  0.79596819535E+03  0.15294330000E+03 0.  0.
<mgrwt>
<rscale>  0 0.91842009E+03</rscale>
<asrwt>0</asrwt>
<pdfrwt beam="1">  1        2 0.11043551E+00 0.98396477E+03</pdfrwt>
<pdfrwt beam="2">  1       -2 0.24444091E+00 0.98396477E+03</pdfrwt>
<totfact> 0.27569240E+00</totfact>
</mgrwt>
</event>
<event>
 4    2  0.3855935E-007  0.6939364E+03  0.7818608E-02  0.1002335E+00
         -2   -1    0    0    0  501 -0.00000000000E+00  0.00000000000E+00  0.11641088504E+04  0.11641088504E+04  0.25500000000E-02 0.  1.
          2   -1    0    0  501    0  0.00000000000E+00 -0.00000000000E+00 -0.39981002582E+03  0.39981002582E+03  0.25500000000E-02 0. -1.
    8880023    1    1    2    0    0  0.18083789357E+03 -0.12261781210E+03  0.99377750025E+03  0.12120814320E+04  0.65864270000E+03 0.  1.
    8880022    1    1    2    0    0 -0.18083789357E+03  0.12261781210E+03 -0.22947867562E+03  0.35183744425E+03  0.15294330000E+03 0.  0.
<mgrwt>
<rscale>  0 0.54638110E+03</rscale>
<asrwt>0</asrwt>
<pdfrwt beam="1">  1        2 0.61509234E-01 0.69393636E+03</pdfrwt>
<pdfrwt beam="2">  1       -2 0.17909367E+00 0.69393636E+03</pdfrwt>
<totfact> 0.14945737E+01</totfact>
</mgrwt>
</event>
<event>
 4    2  0.3855935E-007  0.6695281E+03  0.7818608E-02  0.1016003E+00
          2   -1    0    0  501    0  0.00000000000E+00  0.00000000000E+00  0.23221388230E+04  0.23221388230E+04  0.25500000000E-02 0. -1.
         -2   -1    0    0    0  501 -0.00000000000E+00 -0.00000000000E+00 -0.84447810872E+02  0.84447810911E+02  0.25500000000E-02 0.  1.
    8880023    1    1    2    0    0 -0.72726601612E+02 -0.95752027258E+02  0.14813974148E+04  0.16256709741E+04  0.65864270000E+03 0.  1.
    8880022    1    1    2    0    0  0.72726601612E+02  0.95752027258E+02  0.75629359732E+03  0.78091565976E+03  0.15294330000E+03 0. -1.
<mgrwt>
<rscale>  0 0.49156818E+03</rscale>
<asrwt>0</asrwt>
<pdfrwt beam="1">  1        2 0.35725208E+00 0.66952805E+03</pdfrwt>
<pdfrwt beam="2">  1       -2 0.12991973E-01 0.66952805E+03</pdfrwt>
<totfact> 0.20448545E+02</totfact>
</mgrwt>
</event>
<event>
 4    2  0.3855935E-007  0.9057030E+03  0.7818608E-02  0.9516938E-01
         -2   -1    0    0    0  501 -0.00000000000E+00  0.00000000000E+00  0.14806237656E+04  0.14806237656E+04  0.25500000000E-02 0.  1.
          2   -1    0    0  501    0  0.00000000000E+00 -0.00000000000E+00 -0.81455679840E+03  0.81455679840E+03  0.25500000000E-02 0. -1.
    8880023    1    1    2    0    0 -0.26623222323E+03 -0.56179008774E+03  0.11705891309E+04  0.14800597349E+04  0.65864270000E+03 0.  1.
    8880022    1    1    2    0    0  0.26623222323E+03  0.56179008774E+03 -0.50452216366E+03  0.81512082909E+03  0.15294330000E+03 0.  0.
<mgrwt>
<rscale>  0 0.83046504E+03</rscale>
<asrwt>0</asrwt>
<pdfrwt beam="1">  1        2 0.12531643E+00 0.90570299E+03</pdfrwt>
<pdfrwt beam="2">  1       -2 0.22778827E+00 0.90570299E+03</pdfrwt>
<totfact> 0.29855342E+00</totfact>
</mgrwt>
</event>
<event>
 4    2  0.3855935E-007  0.1248162E+04  0.7818608E-02  0.9111671E-01
          2   -1    0    0  501    0  0.00000000000E+00  0.00000000000E+00  0.99705047033E+03  0.99705047033E+03  0.25500000000E-02 0. -1.
         -2   -1    0    0    0  501 -0.00000000000E+00 -0.00000000000E+00 -0.16021750797E+04  0.16021750797E+04  0.25500000000E-02 0.  1.
    8880023    1    1    2    0    0  0.79687180055E+03 -0.69935154829E+03  0.19350865554E+03  0.12630728643E+04  0.65864270000E+03 0.  0.
    8880022    1    1    2    0    0 -0.79687180055E+03  0.69935154829E+03 -0.79863326486E+03  0.13361526856E+04  0.15294330000E+03 0.  0.
<mgrwt>
<rscale>  0 0.12013559E+04</rscale>
<asrwt>0</asrwt>
<pdfrwt beam="1">  1        2 0.15339238E+00 0.12481616E+04</pdfrwt>
<pdfrwt beam="2">  1       -2 0.24648847E+00 0.12481616E+04</pdfrwt>
<totfact> 0.16563150E+00</totfact>
</mgrwt>
</event>
<event>
 4    2  0.3855935E-007  0.7039436E+03  0.7818608E-02  0.9981219E-01
          2   -1    0    0  501    0  0.00000000000E+00  0.00000000000E+00  0.11502415735E+04  0.11502415735E+04  0.25500000000E-02 0. -1.
         -2   -1    0    0    0  501 -0.00000000000E+00 -0.00000000000E+00 -0.10569553237E+04  0.10569553237E+04  0.25500000000E-02 0.  1.
    8880023    1    1    2    0    0 -0.10428003600E+03 -0.22550406029E+03 -0.91676601636E+03  0.11558531663E+04  0.65864270000E+03 0.  1.
    8880022    1    1    2    0    0  0.10428003600E+03  0.22550406029E+03  0.10100522661E+04  0.10513437309E+04  0.15294330000E+03 0.  0.
<mgrwt>
<rscale>  0 0.56481487E+03</rscale>
<asrwt>0</asrwt>
<pdfrwt beam="1">  1        2 0.17696024E+00 0.70394362E+03</pdfrwt>
<pdfrwt beam="2">  1       -2 0.16260851E+00 0.70394362E+03</pdfrwt>
<totfact> 0.50303765E+00</totfact>
</mgrwt>
</event>
<event>
 4    2  0.3855935E-007  0.7928572E+03  0.7818608E-02  0.9726458E-01
         -2   -1    0    0    0  501 -0.00000000000E+00  0.00000000000E+00  0.42320554847E+03  0.42320554848E+03  0.25500000000E-02 0.  1.
          2   -1    0    0  501    0  0.00000000000E+00 -0.00000000000E+00 -0.20420686057E+04  0.20420686057E+04  0.25500000000E-02 0. -1.
    8880023    1    1    2    0    0  0.20457626718E+01 -0.44137077834E+03 -0.13119806249E+02  0.79296575254E+03  0.65864270000E+03 0.  1.
    8880022    1    1    2    0    0 -0.20457626718E+01  0.44137077834E+03 -0.16057432510E+04  0.16723084016E+04  0.15294330000E+03 0.  0.
<mgrwt>
<rscale>  0 0.69463086E+03</rscale>
<asrwt>0</asrwt>
<pdfrwt beam="1">  1        2 0.31416440E+00 0.79285721E+03</pdfrwt>
<pdfrwt beam="2">  1       -2 0.65108547E-01 0.79285721E+03</pdfrwt>
<totfact> 0.14177451E+01</totfact>
</mgrwt>
</event>
<event>
 4    2  0.3855935E-007  0.7984633E+03  0.7818608E-02  0.9714129E-01
         -2   -1    0    0    0  501 -0.00000000000E+00  0.00000000000E+00  0.46423530451E+03  0.46423530452E+03  0.25500000000E-02 0.  1.
          2   -1    0    0  501    0  0.00000000000E+00 -0.00000000000E+00 -0.11473781452E+04  0.11473781452E+04  0.25500000000E-02 0. -1.
    8880023    1    1    2    0    0  0.37128201987E+03  0.25667696253E+03 -0.24763044685E+02  0.79884717939E+03  0.65864270000E+03 0.  1.
    8880022    1    1    2    0    0 -0.37128201987E+03 -0.25667696253E+03 -0.65837979597E+03  0.81276627029E+03  0.15294330000E+03 0.  0.
<mgrwt>
<rscale>  0 0.70181774E+03</rscale>
<asrwt>0</asrwt>
<pdfrwt beam="1">  1        2 0.17651971E+00 0.79846328E+03</pdfrwt>
<pdfrwt beam="2">  1       -2 0.71420816E-01 0.79846328E+03</pdfrwt>
<totfact> 0.36718790E+01</totfact>
</mgrwt>
</event>
<event>
 4    2  0.3855935E-007  0.6623481E+03  0.7818608E-02  0.1021870E+00
         -2   -1    0    0    0  501 -0.00000000000E+00  0.00000000000E+00  0.20732841049E+03  0.20732841051E+03  0.25500000000E-02 0.  1.
          2   -1    0    0  501    0  0.00000000000E+00 -0.00000000000E+00 -0.19213518207E+04  0.19213518207E+04  0.25500000000E-02 0. -1.
    8880023    1    1    2    0    0 -0.45358681387E+02  0.53267289524E+02 -0.34021433932E+03  0.74461454260E+03  0.65864270000E+03 0.  1.
    8880022    1    1    2    0    0  0.45358681387E+02 -0.53267289524E+02 -0.13738090709E+04  0.13840656886E+04  0.15294330000E+03 0.  0.
<mgrwt>
<rscale>  0 0.47017774E+03</rscale>
<asrwt>0</asrwt>
<pdfrwt beam="1">  1        2 0.29559258E+00 0.66234811E+03</pdfrwt>
<pdfrwt beam="2">  1       -2 0.31896680E-01 0.66234811E+03</pdfrwt>
<totfact> 0.70040577E+01</totfact>
</mgrwt>
</event>
<event>
 4    2  0.3855935E-007  0.8305953E+03  0.7818608E-02  0.9648175E-01
         -2   -1    0    0    0  501 -0.00000000000E+00  0.00000000000E+00  0.25852655317E+03  0.25852655318E+03  0.25500000000E-02 0.  1.
          2   -1    0    0  501    0  0.00000000000E+00 -0.00000000000E+00 -0.27179187629E+04  0.27179187629E+04  0.25500000000E-02 0. -1.
    8880023    1    1    2    0    0 -0.50604184007E+03 -0.14726339747E+00 -0.55235096737E+03  0.99748692372E+03  0.65864270000E+03 0.  0.
    8880022    1    1    2    0    0  0.50604184007E+03  0.14726339747E+00 -0.19070412424E+04  0.19789583924E+04  0.15294330000E+03 0.  0.
<mgrwt>
<rscale>  0 0.74188059E+03</rscale>
<asrwt>0</asrwt>
<pdfrwt beam="1">  1        2 0.41814133E+00 0.83059531E+03</pdfrwt>
<pdfrwt beam="2">  1       -2 0.39773318E-01 0.83059531E+03</pdfrwt>
<totfact> 0.16106988E+01</totfact>
</mgrwt>
</event>
<event>
 4    2  0.3855935E-007  0.1170249E+04  0.7818608E-02  0.9186599E-01
          2   -1    0    0  501    0  0.00000000000E+00  0.00000000000E+00  0.22824878207E+04  0.22824878207E+04  0.25500000000E-02 0. -1.
         -2   -1    0    0    0  501 -0.00000000000E+00 -0.00000000000E+00 -0.59137431600E+03  0.59137431601E+03  0.25500000000E-02 0.  1.
    8880023    1    1    2    0    0  0.64253983035E+03 -0.72305901513E+03  0.36601565452E+03  0.12261522901E+04  0.65864270000E+03 0.  0.
    8880022    1    1    2    0    0 -0.64253983035E+03  0.72305901513E+03  0.13250978502E+04  0.16477098466E+04  0.15294330000E+03 0.  0.
<mgrwt>
<rscale>  0 0.11192820E+04</rscale>
<asrwt>0</asrwt>
<pdfrwt beam="1">  1        2 0.35115198E+00 0.11702487E+04</pdfrwt>
<pdfrwt beam="2">  1       -2 0.90980662E-01 0.11702487E+04</pdfrwt>
<totfact> 0.47114403E+00</totfact>
</mgrwt>
</event>
<event>
 4    2  0.3855935E-007  0.1190290E+04  0.7818608E-02  0.9166619E-01
          2   -1    0    0  501    0  0.00000000000E+00  0.00000000000E+00  0.79379593367E+03  0.79379593367E+03  0.25500000000E-02 0. -1.
         -2   -1    0    0    0  501 -0.00000000000E+00 -0.00000000000E+00 -0.23728446482E+04  0.23728446482E+04  0.25500000000E-02 0.  1.
    8880023    1    1    2    0    0  0.13053344902E+03 -0.98282357700E+03 -0.17821621233E+04  0.21431036384E+04  0.65864270000E+03 0.  0.
    8880022    1    1    2    0    0 -0.13053344902E+03  0.98282357700E+03  0.20311340879E+03  0.10235369435E+04  0.15294330000E+03 0.  0.
<mgrwt>
<rscale>  0 0.11404719E+04</rscale>
<asrwt>0</asrwt>
<pdfrwt beam="1">  1        2 0.12212245E+00 0.11902905E+04</pdfrwt>
<pdfrwt beam="2">  1       -2 0.36505302E+00 0.11902905E+04</pdfrwt>
<totfact> 0.42927279E-01</totfact>
</mgrwt>
</event>
<event>
 4    2  0.3855935E-007  0.7729618E+03  0.7818608E-02  0.9772637E-01
         -2   -1    0    0    0  501 -0.00000000000E+00  0.00000000000E+00  0.27766050248E+03  0.27766050249E+03  0.25500000000E-02 0.  1.
          2   -1    0    0  501    0  0.00000000000E+00 -0.00000000000E+00 -0.16890925364E+04  0.16890925364E+04  0.25500000000E-02 0. -1.
    8880023    1    1    2    0    0 -0.13084368637E+03 -0.38280505571E+03 -0.40788912165E+03  0.87398142015E+03  0.65864270000E+03 0.  1.
    8880022    1    1    2    0    0  0.13084368637E+03  0.38280505571E+03 -0.10035429123E+04  0.10927716188E+04  0.15294330000E+03 0.  0.
<mgrwt>
<rscale>  0 0.66851886E+03</rscale>
<asrwt>0</asrwt>
<pdfrwt beam="1">  1        2 0.25986038E+00 0.77296183E+03</pdfrwt>
<pdfrwt beam="2">  1       -2 0.42717001E-01 0.77296183E+03</pdfrwt>
<totfact> 0.52793687E+01</totfact>
</mgrwt>
</event>
<event>
 4    2  0.3855935E-007  0.9651347E+03  0.7818608E-02  0.9428665E-01
          2   -1    0    0  501    0  0.00000000000E+00  0.00000000000E+00  0.95391243487E+03  0.95391243487E+03  0.25500000000E-02 0. -1.
         -2   -1    0    0    0  501 -0.00000000000E+00 -0.00000000000E+00 -0.15539543028E+04  0.15539543028E+04  0.25500000000E-02 0.  1.
    8880023    1    1    2    0    0  0.29195604207E+03 -0.64221212705E+03 -0.12205125934E+04  0.15559999819E+04  0.65864270000E+03 0.  0.
    8880022    1    1    2    0    0 -0.29195604207E+03  0.64221212705E+03  0.62047072547E+03  0.95186675581E+03  0.15294330000E+03 0.  0.
<mgrwt>
<rscale>  0 0.89753744E+03</rscale>
<asrwt>0</asrwt>
<pdfrwt beam="1">  1        2 0.14675576E+00 0.96513468E+03</pdfrwt>
<pdfrwt beam="2">  1       -2 0.23906989E+00 0.96513468E+03</pdfrwt>
<totfact> 0.20258101E+00</totfact>
</mgrwt>
</event>
<event>
 4    2  0.3855935E-007  0.8096703E+03  0.7818608E-02  0.9690264E-01
          2   -1    0    0  501    0  0.00000000000E+00  0.00000000000E+00  0.25499729428E+04  0.25499729428E+04  0.25500000000E-02 0. -1.
         -2   -1    0    0    0  501 -0.00000000000E+00 -0.00000000000E+00 -0.52454822286E+03  0.52454822287E+03  0.25500000000E-02 0.  1.
    8880023    1    1    2    0    0  0.46800588453E+03 -0.52213402382E+02 -0.16714479054E+03  0.82674260481E+03  0.65864270000E+03 0.  1.
    8880022    1    1    2    0    0 -0.46800588453E+03  0.52213402382E+02  0.21925695105E+04  0.22477785609E+04  0.15294330000E+03 0.  0.
<mgrwt>
<rscale>  0 0.71599429E+03</rscale>
<asrwt>0</asrwt>
<pdfrwt beam="1">  1        2 0.39230353E+00 0.80967027E+03</pdfrwt>
<pdfrwt beam="2">  1       -2 0.80699727E-01 0.80967027E+03</pdfrwt>
<totfact> 0.45917180E+00</totfact>
</mgrwt>
</event>
<event>
 4    2  0.3855935E-007  0.8162945E+03  0.7818608E-02  0.9676612E-01
         -2   -1    0    0    0  501 -0.00000000000E+00  0.00000000000E+00  0.54634856771E+03  0.54634856771E+03  0.25500000000E-02 0.  1.
          2   -1    0    0  501    0  0.00000000000E+00 -0.00000000000E+00 -0.14583012449E+04  0.14583012449E+04  0.25500000000E-02 0. -1.
    8880023    1    1    2    0    0  0.47700210445E+03  0.70678359421E+02  0.14851879845E+03  0.82969541273E+03  0.65864270000E+03 0.  1.
    8880022    1    1    2    0    0 -0.47700210445E+03 -0.70678359421E+02 -0.10604714756E+04  0.11749543999E+04  0.15294330000E+03 0.  0.
<mgrwt>
<rscale>  0 0.72426544E+03</rscale>
<asrwt>0</asrwt>
<pdfrwt beam="1">  1        2 0.22435404E+00 0.81629446E+03</pdfrwt>
<pdfrwt beam="2">  1       -2 0.84053626E-01 0.81629446E+03</pdfrwt>
<totfact> 0.16822257E+01</totfact>
</mgrwt>
</event>
<event>
 4    2  0.3855935E-007  0.7452569E+03  0.7818608E-02  0.9844890E-01
          2   -1    0    0  501    0  0.00000000000E+00  0.00000000000E+00  0.12918919009E+04  0.12918919009E+04  0.25500000000E-02 0. -1.
         -2   -1    0    0    0  501 -0.00000000000E+00 -0.00000000000E+00 -0.35436131826E+03  0.35436131827E+03  0.25500000000E-02 0.  1.
    8880023    1    1    2    0    0  0.32883949173E+03  0.11602699995E+03  0.13419291033E+03  0.75724211418E+03  0.65864270000E+03 0.  1.
    8880022    1    1    2    0    0 -0.32883949173E+03 -0.11602699995E+03  0.80333767232E+03  0.88901110500E+03  0.15294330000E+03 0. -1.
<mgrwt>
<rscale>  0 0.63008120E+03</rscale>
<asrwt>0</asrwt>
<pdfrwt beam="1">  1        2 0.19875260E+00 0.74525692E+03</pdfrwt>
<pdfrwt beam="2">  1       -2 0.54517126E-01 0.74525692E+03</pdfrwt>
<totfact> 0.53931624E+01</totfact>
</mgrwt>
</event>
<event>
 4    2  0.3855935E-007  0.9006475E+03  0.7818608E-02  0.9524993E-01
         -2   -1    0    0    0  501 -0.00000000000E+00  0.00000000000E+00  0.13795054675E+04  0.13795054675E+04  0.25500000000E-02 0.  1.
          2   -1    0    0  501    0  0.00000000000E+00 -0.00000000000E+00 -0.11908596408E+04  0.11908596408E+04  0.25500000000E-02 0. -1.
    8880023    1    1    2    0    0  0.47604131014E+03 -0.38825298571E+03  0.11243717781E+04  0.14406171634E+04  0.65864270000E+03 0.  1.
    8880022    1    1    2    0    0 -0.47604131014E+03  0.38825298571E+03 -0.93572595135E+03  0.11297479449E+04  0.15294330000E+03 0.  0.
<mgrwt>
<rscale>  0 0.82466008E+03</rscale>
<asrwt>0</asrwt>
<pdfrwt beam="1">  1        2 0.18320918E+00 0.90064750E+03</pdfrwt>
<pdfrwt beam="2">  1       -2 0.21223161E+00 0.90064750E+03</pdfrwt>
<totfact> 0.21375872E+00</totfact>
</mgrwt>
</event>
<event>
 4    2  0.3855935E-007  0.8170970E+03  0.7818608E-02  0.9674979E-01
          2   -1    0    0  501    0  0.00000000000E+00  0.00000000000E+00  0.10608053131E+04  0.10608053131E+04  0.25500000000E-02 0. -1.
         -2   -1    0    0    0  501 -0.00000000000E+00 -0.00000000000E+00 -0.70821487245E+03  0.70821487245E+03  0.25500000000E-02 0.  1.
    8880023    1    1    2    0    0 -0.46864900810E+03  0.11918655149E+03 -0.36121616259E+03  0.89337822294E+03  0.65864270000E+03 0.  1.
    8880022    1    1    2    0    0  0.46864900810E+03 -0.11918655149E+03  0.71380660327E+03  0.87564196264E+03  0.15294330000E+03 0.  0.
<mgrwt>
<rscale>  0 0.72526247E+03</rscale>
<asrwt>0</asrwt>
<pdfrwt beam="1">  1        2 0.16320082E+00 0.81709702E+03</pdfrwt>
<pdfrwt beam="2">  1       -2 0.10895613E+00 0.81709702E+03</pdfrwt>
<totfact> 0.15653190E+01</totfact>
</mgrwt>
</event>
<event>
 4    2  0.3855935E-007  0.8319988E+03  0.7818608E-02  0.9645456E-01
          2   -1    0    0  501    0  0.00000000000E+00  0.00000000000E+00  0.59800387561E+03  0.59800387562E+03  0.25500000000E-02 0. -1.
         -2   -1    0    0    0  501 -0.00000000000E+00 -0.00000000000E+00 -0.12951519220E+04  0.12951519220E+04  0.25500000000E-02 0.  1.
    8880023    1    1    2    0    0  0.49153173545E+03 -0.12964713976E+03 -0.98493869714E+03  0.12893123249E+04  0.65864270000E+03 0.  0.
    8880022    1    1    2    0    0 -0.49153173545E+03  0.12964713976E+03  0.28779065078E+03  0.60384347268E+03  0.15294330000E+03 0.  0.
<mgrwt>
<rscale>  0 0.74359306E+03</rscale>
<asrwt>0</asrwt>
<pdfrwt beam="1">  1        2 0.92000596E-01 0.83199882E+03</pdfrwt>
<pdfrwt beam="2">  1       -2 0.19925414E+00 0.83199882E+03</pdfrwt>
<totfact> 0.67695888E+00</totfact>
</mgrwt>
</event>
<event>
 4    2  0.3855935E-007  0.6658151E+03  0.7818608E-02  0.1018859E+00
         -2   -1    0    0    0  501 -0.00000000000E+00  0.00000000000E+00  0.38177582514E+03  0.38177582515E+03  0.25500000000E-02 0.  1.
          2   -1    0    0  501    0  0.00000000000E+00 -0.00000000000E+00 -0.16791908300E+04  0.16791908300E+04  0.25500000000E-02 0. -1.
    8880023    1    1    2    0    0  0.19082406876E+02 -0.95579266809E+02  0.80953244483E+02  0.67071839736E+03  0.65864270000E+03 0.  1.
    8880022    1    1    2    0    0 -0.19082406876E+02  0.95579266809E+02 -0.13783682494E+04  0.13902482578E+04  0.15294330000E+03 0.  0.
<mgrwt>
<rscale>  0 0.48100564E+03</rscale>
<asrwt>0</asrwt>
<pdfrwt beam="1">  1        2 0.25833705E+00 0.66581510E+03</pdfrwt>
<pdfrwt beam="2">  1       -2 0.58734743E-01 0.66581510E+03</pdfrwt>
<totfact> 0.28320224E+01</totfact>
</mgrwt>
</event>
<event>
 4    2  0.3855935E-007  0.8891998E+03  0.7818608E-02  0.9543597E-01
          2   -1    0    0  501    0  0.00000000000E+00  0.00000000000E+00  0.28272760339E+04  0.28272760339E+04  0.25500000000E-02 0. -1.
         -2   -1    0    0    0  501 -0.00000000000E+00 -0.00000000000E+00 -0.66720199794E+03  0.66720199794E+03  0.25500000000E-02 0.  1.
    8880023    1    1    2    0    0  0.36604534702E+03 -0.47209830216E+03 -0.31530455298E+03  0.94344749212E+03  0.65864270000E+03 0.  0.
    8880022    1    1    2    0    0 -0.36604534702E+03  0.47209830216E+03  0.24753785890E+04  0.25510305397E+04  0.15294330000E+03 0.  0.
<mgrwt>
<rscale>  0 0.81144530E+03</rscale>
<asrwt>0</asrwt>
<pdfrwt beam="1">  1        2 0.43496554E+00 0.88919976E+03</pdfrwt>
<pdfrwt beam="2">  1       -2 0.10264646E+00 0.88919976E+03</pdfrwt>
<totfact> 0.17858909E+00</totfact>
</mgrwt>
</event>
<event>
 4    2  0.3855935E-007  0.6624569E+03  0.7818608E-02  0.1021769E+00
          2   -1    0    0  501    0  0.00000000000E+00  0.00000000000E+00  0.62611071527E+03  0.62611071527E+03  0.25500000000E-02 0. -1.
         -2   -1    0    0    0  501 -0.00000000000E+00 -0.00000000000E+00 -0.29455176666E+03  0.29455176667E+03  0.25500000000E-02 0.  1.
    8880023    1    1    2    0    0  0.64881669522E+02 -0.28797838763E+02  0.16293645397E+03  0.68220044038E+03  0.65864270000E+03 0.  0.
    8880022    1    1    2    0    0 -0.64881669522E+02  0.28797838763E+02  0.16862249463E+03  0.23846204157E+03  0.15294330000E+03 0.  0.
<mgrwt>
<rscale>  0 0.47053451E+03</rscale>
<asrwt>0</asrwt>
<pdfrwt beam="1">  1        2 0.96324725E-01 0.66245691E+03</pdfrwt>
<pdfrwt beam="2">  1       -2 0.45315657E-01 0.66245691E+03</pdfrwt>
<totfact> 0.22029371E+02</totfact>
</mgrwt>
</event>
<event>
 4    2  0.3855935E-007  0.8456772E+03  0.7818608E-02  0.9619567E-01
          2   -1    0    0  501    0  0.00000000000E+00  0.00000000000E+00  0.10456640373E+04  0.10456640373E+04  0.25500000000E-02 0. -1.
         -2   -1    0    0    0  501 -0.00000000000E+00 -0.00000000000E+00 -0.10061782564E+04  0.10061782564E+04  0.25500000000E-02 0.  1.
    8880023    1    1    2    0    0 -0.39692859855E+02 -0.52894629037E+03 -0.72155076557E+03  0.11116678527E+04  0.65864270000E+03 0.  1.
    8880022    1    1    2    0    0  0.39692859855E+02  0.52894629037E+03  0.76103654647E+03  0.94017444089E+03  0.15294330000E+03 0.  0.
<mgrwt>
<rscale>  0 0.76014539E+03</rscale>
<asrwt>0</asrwt>
<pdfrwt beam="1">  1        2 0.16087139E+00 0.84567719E+03</pdfrwt>
<pdfrwt beam="2">  1       -2 0.15479665E+00 0.84567719E+03</pdfrwt>
<totfact> 0.65380942E+00</totfact>
</mgrwt>
</event>
<event>
 4    2  0.3855935E-007  0.1194531E+04  0.7818608E-02  0.9162457E-01
          2   -1    0    0  501    0  0.00000000000E+00  0.00000000000E+00  0.27660674097E+04  0.27660674097E+04  0.25500000000E-02 0. -1.
         -2   -1    0    0    0  501 -0.00000000000E+00 -0.00000000000E+00 -0.10508119870E+04  0.10508119870E+04  0.25500000000E-02 0.  1.
    8880023    1    1    2    0    0 -0.51046557849E+03 -0.85587281809E+03 -0.56668840208E+03  0.13221343876E+04  0.65864270000E+03 0.  1.
    8880022    1    1    2    0    0  0.51046557849E+03  0.85587281809E+03  0.22819438248E+04  0.24947450091E+04  0.15294330000E+03 0.  0.
<mgrwt>
<rscale>  0 0.11449476E+04</rscale>
<asrwt>0</asrwt>
<pdfrwt beam="1">  1        2 0.42554883E+00 0.11945307E+04</pdfrwt>
<pdfrwt beam="2">  1       -2 0.16166338E+00 0.11945307E+04</pdfrwt>
<totfact> 0.58245463E-01</totfact>
</mgrwt>
</event>
<event>
 4    2  0.3855935E-007  0.7503639E+03  0.7818608E-02  0.9830725E-01
         -2   -1    0    0    0  501 -0.00000000000E+00  0.00000000000E+00  0.36460280739E+03  0.36460280740E+03  0.25500000000E-02 0.  1.
          2   -1    0    0  501    0  0.00000000000E+00 -0.00000000000E+00 -0.13100766049E+04  0.13100766049E+04  0.25500000000E-02 0. -1.
    8880023    1    1    2    0    0  0.22804149468E+03 -0.27790809298E+03 -0.11795869933E+03  0.75957902318E+03  0.65864270000E+03 0.  1.
    8880022    1    1    2    0    0 -0.22804149468E+03  0.27790809298E+03 -0.82751509815E+03  0.91510038909E+03  0.15294330000E+03 0.  0.
<mgrwt>
<rscale>  0 0.63739413E+03</rscale>
<asrwt>0</asrwt>
<pdfrwt beam="1">  1        2 0.20155025E+00 0.75036394E+03</pdfrwt>
<pdfrwt beam="2">  1       -2 0.56092740E-01 0.75036394E+03</pdfrwt>
<totfact> 0.49595037E+01</totfact>
</mgrwt>
</event>
<event>
 4    2  0.3855935E-007  0.8921169E+03  0.7818608E-02  0.9538807E-01
         -2   -1    0    0    0  501 -0.00000000000E+00  0.00000000000E+00  0.61000292837E+03  0.61000292838E+03  0.25500000000E-02 0.  1.
          2   -1    0    0  501    0  0.00000000000E+00 -0.00000000000E+00 -0.13596390722E+04  0.13596390722E+04  0.25500000000E-02 0. -1.
    8880023    1    1    2    0    0 -0.13010839382E+03  0.58748117792E+03  0.12103084574E+03  0.90028939816E+03  0.65864270000E+03 0.  1.
    8880022    1    1    2    0    0  0.13010839382E+03 -0.58748117792E+03 -0.87066698952E+03  0.10693526024E+04  0.15294330000E+03 0.  0.
<mgrwt>
<rscale>  0 0.81482226E+03</rscale>
<asrwt>0</asrwt>
<pdfrwt beam="1">  1        2 0.20917524E+00 0.89211688E+03</pdfrwt>
<pdfrwt beam="2">  1       -2 0.93846605E-01 0.89211688E+03</pdfrwt>
<totfact> 0.14721401E+01</totfact>
</mgrwt>
</event>
<event>
 4    2  0.3855935E-007  0.7431396E+03  0.7818608E-02  0.9850894E-01
          2   -1    0    0  501    0  0.00000000000E+00  0.00000000000E+00  0.34768748775E+04  0.34768748775E+04  0.25500000000E-02 0. -1.
         -2   -1    0    0    0  501 -0.00000000000E+00 -0.00000000000E+00 -0.21693188177E+03  0.21693188179E+03  0.25500000000E-02 0.  1.
    8880023    1    1    2    0    0 -0.22735367780E+03 -0.25837298035E+03  0.47161060513E+03  0.88015513457E+03  0.65864270000E+03 0.  0.
    8880022    1    1    2    0    0  0.22735367780E+03  0.25837298035E+03  0.27883323906E+04  0.28136516247E+04  0.15294330000E+03 0.  0.
<mgrwt>
<rscale>  0 0.62701346E+03</rscale>
<asrwt>0</asrwt>
<pdfrwt beam="1">  1        2 0.53490384E+00 0.74313962E+03</pdfrwt>
<pdfrwt beam="2">  1       -2 0.33374135E-01 0.74313962E+03</pdfrwt>
<totfact> 0.76576053E+00</totfact>
</mgrwt>
</event>
<event>
 4    2  0.3855935E-007  0.1136029E+04  0.7818608E-02  0.9221964E-01
          2   -1    0    0  501    0  0.00000000000E+00  0.00000000000E+00  0.32350372961E+04  0.32350372961E+04  0.25500000000E-02 0. -1.
         -2   -1    0    0    0  501 -0.00000000000E+00 -0.00000000000E+00 -0.73424049298E+03  0.73424049299E+03  0.25500000000E-02 0.  1.
    8880023    1    1    2    0    0  0.71994996444E+02 -0.92280523326E+03 -0.16063901150E+03  0.11473307615E+04  0.65864270000E+03 0.  1.
    8880022    1    1    2    0    0 -0.71994996444E+02  0.92280523326E+03  0.26614358146E+04  0.28219470276E+04  0.15294330000E+03 0.  0.
<mgrwt>
<rscale>  0 0.10829576E+04</rscale>
<asrwt>0</asrwt>
<pdfrwt beam="1">  1        2 0.49769806E+00 0.11360295E+04</pdfrwt>
<pdfrwt beam="2">  1       -2 0.11296007E+00 0.11360295E+04</pdfrwt>
<totfact> 0.75949883E-01</totfact>
</mgrwt>
</event>
<event>
 4    2  0.3855935E-007  0.9349874E+03  0.7818608E-02  0.9472051E-01
         -2   -1    0    0    0  501 -0.00000000000E+00  0.00000000000E+00  0.48653075573E+03  0.48653075573E+03  0.25500000000E-02 0.  1.
          2   -1    0    0  501    0  0.00000000000E+00 -0.00000000000E+00 -0.15241107105E+04  0.15241107105E+04  0.25500000000E-02 0. -1.
    8880023    1    1    2    0    0 -0.65142437111E+03 -0.12663901665E+03 -0.24675483104E+03  0.96700015756E+03  0.65864270000E+03 0.  0.
    8880022    1    1    2    0    0  0.65142437111E+03  0.12663901665E+03 -0.79082512370E+03  0.10436413086E+04  0.15294330000E+03 0.  0.
<mgrwt>
<rscale>  0 0.86376109E+03</rscale>
<asrwt>0</asrwt>
<pdfrwt beam="1">  1        2 0.23447857E+00 0.93498736E+03</pdfrwt>
<pdfrwt beam="2">  1       -2 0.74850886E-01 0.93498736E+03</pdfrwt>
<totfact> 0.19807409E+01</totfact>
</mgrwt>
</event>
<event>
 4    2  0.3855935E-007  0.7222978E+03  0.7818608E-02  0.9914886E-01
          2   -1    0    0  501    0  0.00000000000E+00  0.00000000000E+00  0.30369942010E+03  0.30369942011E+03  0.25500000000E-02 0. -1.
         -2   -1    0    0    0  501 -0.00000000000E+00 -0.00000000000E+00 -0.14165339238E+04  0.14165339238E+04  0.25500000000E-02 0.  1.
    8880023    1    1    2    0    0  0.10039141317E+03  0.27897206546E+03 -0.11765690464E+04  0.13805900102E+04  0.65864270000E+03 0.  0.
    8880022    1    1    2    0    0 -0.10039141317E+03 -0.27897206546E+03  0.63734542722E+02  0.33964333366E+03  0.15294330000E+03 0.  0.
<mgrwt>
<rscale>  0 0.59545220E+03</rscale>
<asrwt>0</asrwt>
<pdfrwt beam="1">  1        2 0.46722988E-01 0.72229776E+03</pdfrwt>
<pdfrwt beam="2">  1       -2 0.21792829E+00 0.72229776E+03</pdfrwt>
<totfact> 0.11291799E+01</totfact>
</mgrwt>
</event>
<event>
 4    2  0.3855935E-007  0.7581042E+03  0.7818608E-02  0.9810041E-01
         -2   -1    0    0    0  501 -0.00000000000E+00  0.00000000000E+00  0.69032769635E+03  0.69032769636E+03  0.25500000000E-02 0.  1.
          2   -1    0    0  501    0  0.00000000000E+00 -0.00000000000E+00 -0.26115771178E+04  0.26115771178E+04  0.25500000000E-02 0. -1.
    8880023    1    1    2    0    0 -0.34625989270E+03 -0.14496826183E+03  0.45977028667E+03  0.88662880226E+03  0.65864270000E+03 0.  1.
    8880022    1    1    2    0    0  0.34625989270E+03  0.14496826183E+03 -0.23810197082E+04  0.24152760119E+04  0.15294330000E+03 0.  0.
<mgrwt>
<rscale>  0 0.64826484E+03</rscale>
<asrwt>0</asrwt>
<pdfrwt beam="1">  1        2 0.40178109E+00 0.75810416E+03</pdfrwt>
<pdfrwt beam="2">  1       -2 0.10620426E+00 0.75810416E+03</pdfrwt>
<totfact> 0.22550378E+00</totfact>
</mgrwt>
</event>
<event>
 4    2  0.3855935E-007  0.1146810E+04  0.7818608E-02  0.9210645E-01
          2   -1    0    0  501    0  0.00000000000E+00  0.00000000000E+00  0.29020373073E+04  0.29020373073E+04  0.25500000000E-02 0. -1.
         -2   -1    0    0    0  501 -0.00000000000E+00 -0.00000000000E+00 -0.52170063292E+03  0.52170063293E+03  0.25500000000E-02 0.  1.
    8880023    1    1    2    0    0  0.89560122352E+03  0.28153375430E+03  0.37891687119E+03  0.12077876502E+04  0.65864270000E+03 0.  0.
    8880022    1    1    2    0    0 -0.89560122352E+03 -0.28153375430E+03  0.20014198032E+04  0.22159502901E+04  0.15294330000E+03 0.  0.
<mgrwt>
<rscale>  0 0.10944223E+04</rscale>
<asrwt>0</asrwt>
<pdfrwt beam="1">  1        2 0.44646728E+00 0.11468099E+04</pdfrwt>
<pdfrwt beam="2">  1       -2 0.80261636E-01 0.11468099E+04</pdfrwt>
<totfact> 0.27446542E+00</totfact>
</mgrwt>
</event>
<event>
 4    2  0.3855935E-007  0.8338709E+03  0.7818608E-02  0.9641847E-01
          2   -1    0    0  501    0  0.00000000000E+00  0.00000000000E+00  0.52936812674E+03  0.52936812675E+03  0.25500000000E-02 0. -1.
         -2   -1    0    0    0  501 -0.00000000000E+00 -0.00000000000E+00 -0.17489000775E+04  0.17489000775E+04  0.25500000000E-02 0.  1.
    8880023    1    1    2    0    0  0.10142771005E+03 -0.50124131152E+03 -0.14689199797E+04  0.16891022899E+04  0.65864270000E+03 0.  1.
    8880022    1    1    2    0    0 -0.10142771005E+03  0.50124131152E+03  0.24938802887E+03  0.58916591441E+03  0.15294330000E+03 0. -1.
<mgrwt>
<rscale>  0 0.74587297E+03</rscale>
<asrwt>0</asrwt>
<pdfrwt beam="1">  1        2 0.81441251E-01 0.83387088E+03</pdfrwt>
<pdfrwt beam="2">  1       -2 0.26906155E+00 0.83387088E+03</pdfrwt>
<totfact> 0.28911213E+00</totfact>
</mgrwt>
</event>
<event>
 4    2  0.3855935E-007  0.7015179E+03  0.7818608E-02  0.9990962E-01
         -2   -1    0    0    0  501 -0.00000000000E+00  0.00000000000E+00  0.33538891231E+03  0.33538891232E+03  0.25500000000E-02 0.  1.
          2   -1    0    0  501    0  0.00000000000E+00 -0.00000000000E+00 -0.11020473723E+04  0.11020473723E+04  0.25500000000E-02 0. -1.
    8880023    1    1    2    0    0 -0.22729790036E+03 -0.81564685365E+02 -0.95559597983E+02  0.70799645228E+03  0.65864270000E+03 0.  1.
    8880022    1    1    2    0    0  0.22729790036E+03  0.81564685365E+02 -0.67109886198E+03  0.72943983232E+03  0.15294330000E+03 0.  0.
<mgrwt>
<rscale>  0 0.56048327E+03</rscale>
<asrwt>0</asrwt>
<pdfrwt beam="1">  1        2 0.16954575E+00 0.70151788E+03</pdfrwt>
<pdfrwt beam="2">  1       -2 0.51598295E-01 0.70151788E+03</pdfrwt>
<totfact> 0.78570721E+01</totfact>
</mgrwt>
</event>
<event>
 4    2  0.3855935E-007  0.8369861E+03  0.7818608E-02  0.9635890E-01
         -2   -1    0    0    0  501 -0.00000000000E+00  0.00000000000E+00  0.49692186876E+03  0.49692186877E+03  0.25500000000E-02 0.  1.
          2   -1    0    0  501    0  0.00000000000E+00 -0.00000000000E+00 -0.24898460415E+04  0.24898460415E+04  0.25500000000E-02 0. -1.
    8880023    1    1    2    0    0 -0.65056451183E+02  0.51235071951E+03  0.83947678813E+02  0.84118548529E+03  0.65864270000E+03 0.  1.
    8880022    1    1    2    0    0  0.65056451183E+02 -0.51235071951E+03 -0.20768718516E+04  0.21455824250E+04  0.15294330000E+03 0.  0.
<mgrwt>
<rscale>  0 0.74965643E+03</rscale>
<asrwt>0</asrwt>
<pdfrwt beam="1">  1        2 0.38305323E+00 0.83698615E+03</pdfrwt>
<pdfrwt beam="2">  1       -2 0.76449520E-01 0.83698615E+03</pdfrwt>
<totfact> 0.55846010E+00</totfact>
</mgrwt>
</event>
<event>
 4    2  0.3855935E-007  0.6677171E+03  0.7818608E-02  0.1017355E+00
         -2   -1    0    0    0  501 -0.00000000000E+00  0.00000000000E+00  0.23483746274E+03  0.23483746275E+03  0.25500000000E-02 0.  1.
          2   -1    0    0  501    0  0.00000000000E+00 -0.00000000000E+00 -0.13917157328E+04  0.13917157328E+04  0.25500000000E-02 0. -1.
    8880023    1    1    2    0    0  0.40311069249E+02 -0.10203409132E+03 -0.27052840170E+03  0.72043858898E+03  0.65864270000E+03 0.  1.
    8880022    1    1    2    0    0 -0.40311069249E+02  0.10203409132E+03 -0.88634986836E+03  0.90611460658E+03  0.15294330000E+03 0.  0.
<mgrwt>
<rscale>  0 0.48653275E+03</rscale>
<asrwt>0</asrwt>
<pdfrwt beam="1">  1        2 0.21411011E+00 0.66771711E+03</pdfrwt>
<pdfrwt beam="2">  1       -2 0.36128841E-01 0.66771711E+03</pdfrwt>
<totfact> 0.10799737E+02</totfact>
</mgrwt>
</event>
<event>
 4    2  0.3855935E-007  0.8792697E+03  0.7818608E-02  0.9560165E-01
         -2   -1    0    0    0  501 -0.00000000000E+00  0.00000000000E+00  0.24108474932E+03  0.24108474933E+03  0.25500000000E-02 0.  1.
          2   -1    0    0  501    0  0.00000000000E+00 -0.00000000000E+00 -0.27190979756E+04  0.27190979756E+04  0.25500000000E-02 0. -1.
    8880023    1    1    2    0    0 -0.52040805304E+03 -0.26168764564E+03 -0.84429237219E+03  0.12189933476E+04  0.65864270000E+03 0.  0.
    8880022    1    1    2    0    0  0.52040805304E+03  0.26168764564E+03 -0.16337208541E+04  0.17411893773E+04  0.15294330000E+03 0.  0.
<mgrwt>
<rscale>  0 0.79989782E+03</rscale>
<asrwt>0</asrwt>
<pdfrwt beam="1">  1        2 0.41832274E+00 0.87926968E+03</pdfrwt>
<pdfrwt beam="2">  1       -2 0.37089963E-01 0.87926968E+03</pdfrwt>
<totfact> 0.18288591E+01</totfact>
</mgrwt>
</event>
<event>
 4    2  0.3855935E-007  0.6702365E+03  0.7818608E-02  0.1015494E+00
         -2   -1    0    0    0  501 -0.00000000000E+00  0.00000000000E+00  0.10318396576E+03  0.10318396579E+03  0.25500000000E-02 0.  1.
          2   -1    0    0  501    0  0.00000000000E+00 -0.00000000000E+00 -0.28321936279E+04  0.28321936279E+04  0.25500000000E-02 0. -1.
    8880023    1    1    2    0    0  0.90531848185E+01  0.12379358249E+03 -0.10555201968E+04  0.12503359162E+04  0.65864270000E+03 0.  0.
    8880022    1    1    2    0    0 -0.90531848185E+01 -0.12379358249E+03 -0.16734894654E+04  0.16850416776E+04  0.15294330000E+03 0.  0.
<mgrwt>
<rscale>  0 0.49348379E+03</rscale>
<asrwt>0</asrwt>
<pdfrwt beam="1">  1        2 0.43572204E+00 0.67023654E+03</pdfrwt>
<pdfrwt beam="2">  1       -2 0.15874458E-01 0.67023654E+03</pdfrwt>
<totfact> 0.74628183E+01</totfact>
</mgrwt>
</event>
<event>
 4    2  0.3855935E-007  0.1074220E+04  0.7818608E-02  0.9290317E-01
         -2   -1    0    0    0  501 -0.00000000000E+00  0.00000000000E+00  0.13064754659E+04  0.13064754659E+04  0.25500000000E-02 0.  1.
          2   -1    0    0  501    0  0.00000000000E+00 -0.00000000000E+00 -0.11974289545E+04  0.11974289545E+04  0.25500000000E-02 0. -1.
    8880023    1    1    2    0    0 -0.53407517182E+03 -0.65947128587E+03  0.84777272290E+03  0.13684544063E+04  0.65864270000E+03 0.  0.
    8880022    1    1    2    0    0  0.53407517182E+03  0.65947128587E+03 -0.73872621145E+03  0.11354500141E+04  0.15294330000E+03 0.  0.
<mgrwt>
<rscale>  0 0.10167924E+04</rscale>
<asrwt>0</asrwt>
<pdfrwt beam="1">  1        2 0.18421984E+00 0.10742201E+04</pdfrwt>
<pdfrwt beam="2">  1       -2 0.20099623E+00 0.10742201E+04</pdfrwt>
<totfact> 0.24501880E+00</totfact>
</mgrwt>
</event>
<event>
 4    2  0.3855935E-007  0.6920292E+03  0.7818608E-02  0.1003203E+00
          2   -1    0    0  501    0  0.00000000000E+00  0.00000000000E+00  0.22817437973E+04  0.22817437973E+04  0.25500000000E-02 0. -1.
         -2   -1    0    0    0  501 -0.00000000000E+00 -0.00000000000E+00 -0.12674136408E+03  0.12674136411E+03  0.25500000000E-02 0.  1.
    8880023    1    1    2    0    0  0.21219391421E+03 -0.82399008941E+01  0.94963759455E+03  0.11750386889E+04  0.65864270000E+03 0.  1.
    8880022    1    1    2    0    0 -0.21219391421E+03  0.82399008941E+01  0.12053648387E+04  0.12334464725E+04  0.15294330000E+03 0. -1.
<mgrwt>
<rscale>  0 0.54267944E+03</rscale>
<asrwt>0</asrwt>
<pdfrwt beam="1">  1        2 0.35103749E+00 0.69202916E+03</pdfrwt>
<pdfrwt beam="2">  1       -2 0.19498672E-01 0.69202916E+03</pdfrwt>
<totfact> 0.10765235E+02</totfact>
</mgrwt>
</event>
<event>
 4    2  0.3855935E-007  0.7588719E+03  0.7818608E-02  0.9808037E-01
         -2   -1    0    0    0  501 -0.00000000000E+00  0.00000000000E+00  0.57889491539E+03  0.57889491540E+03  0.25500000000E-02 0.  1.
          2   -1    0    0  501    0  0.00000000000E+00 -0.00000000000E+00 -0.15394147722E+04  0.15394147722E+04  0.25500000000E-02 0. -1.
    8880023    1    1    2    0    0  0.37574696110E+03  0.29843364470E+02  0.28301924888E+03  0.80992993936E+03  0.65864270000E+03 0.  1.
    8880022    1    1    2    0    0 -0.37574696110E+03 -0.29843364470E+02 -0.12435391057E+04  0.13083797482E+04  0.15294330000E+03 0.  0.
<mgrwt>
<rscale>  0 0.64933026E+03</rscale>
<asrwt>0</asrwt>
<pdfrwt beam="1">  1        2 0.23683304E+00 0.75887193E+03</pdfrwt>
<pdfrwt beam="2">  1       -2 0.89060757E-01 0.75887193E+03</pdfrwt>
<totfact> 0.13370524E+01</totfact>
</mgrwt>
</event>
<event>
 4    2  0.3855935E-007  0.7001624E+03  0.7818608E-02  0.9996528E-01
         -2   -1    0    0    0  501 -0.00000000000E+00  0.00000000000E+00  0.15906758524E+03  0.15906758527E+03  0.25500000000E-02 0.  1.
          2   -1    0    0  501    0  0.00000000000E+00 -0.00000000000E+00 -0.26914479627E+04  0.26914479627E+04  0.25500000000E-02 0. -1.
    8880023    1    1    2    0    0  0.18135159910E+03 -0.15339077260E+03 -0.67763944376E+03  0.97438316571E+03  0.65864270000E+03 0.  1.
    8880022    1    1    2    0    0 -0.18135159910E+03  0.15339077260E+03 -0.18547409337E+04  0.18761323822E+04  0.15294330000E+03 0.  0.
<mgrwt>
<rscale>  0 0.55802725E+03</rscale>
<asrwt>0</asrwt>
<pdfrwt beam="1">  1        2 0.41406888E+00 0.70016237E+03</pdfrwt>
<pdfrwt beam="2">  1       -2 0.24471938E-01 0.70016237E+03</pdfrwt>
<totfact> 0.42204963E+01</totfact>
</mgrwt>
</event>
<event>
 4    2  0.3855935E-007  0.7075125E+03  0.7818608E-02  0.9967357E-01
          2   -1    0    0  501    0  0.00000000000E+00  0.00000000000E+00  0.36333554886E+03  0.36333554886E+03  0.25500000000E-02 0. -1.
         -2   -1    0    0    0  501 -0.00000000000E+00 -0.00000000000E+00 -0.12305220788E+04  0.12305220788E+04  0.25500000000E-02 0.  1.
    8880023    1    1    2    0    0  0.21004499262E+03  0.15048193554E+03 -0.10320770929E+04  0.12513021393E+04  0.65864270000E+03 0. -1.
    8880022    1    1    2    0    0 -0.21004499262E+03 -0.15048193554E+03  0.16489056296E+03  0.34255548838E+03  0.15294330000E+03 0.  0.
<mgrwt>
<rscale>  0 0.57105052E+03</rscale>
<asrwt>0</asrwt>
<pdfrwt beam="1">  1        2 0.55897777E-01 0.70751249E+03</pdfrwt>
<pdfrwt beam="2">  1       -2 0.18931109E+00 0.70751249E+03</pdfrwt>
<totfact> 0.14170267E+01</totfact>
</mgrwt>
</event>
<event>
 4    2  0.3855935E-007  0.7752678E+03  0.7818608E-02  0.9767073E-01
         -2   -1    0    0    0  501 -0.00000000000E+00  0.00000000000E+00  0.24588592395E+03  0.24588592396E+03  0.25500000000E-02 0.  1.
          2   -1    0    0  501    0  0.00000000000E+00 -0.00000000000E+00 -0.17276864812E+04  0.17276864812E+04  0.25500000000E-02 0. -1.
    8880023    1    1    2    0    0  0.19720702810E+03  0.35824489766E+03 -0.56879579175E+03  0.96154504710E+03  0.65864270000E+03 0.  0.
    8880022    1    1    2    0    0 -0.19720702810E+03 -0.35824489766E+03 -0.91300476554E+03  0.10120273581E+04  0.15294330000E+03 0.  1.
<mgrwt>
<rscale>  0 0.67159950E+03</rscale>
<asrwt>0</asrwt>
<pdfrwt beam="1">  1        2 0.26579791E+00 0.77526784E+03</pdfrwt>
<pdfrwt beam="2">  1       -2 0.37828605E-01 0.77526784E+03</pdfrwt>
<totfact> 0.63741970E+01</totfact>
</mgrwt>
</event>
<event>
 4    2  0.3855935E-007  0.9837237E+03  0.7818608E-02  0.9403169E-01
         -2   -1    0    0    0  501 -0.00000000000E+00  0.00000000000E+00  0.58755763297E+03  0.58755763298E+03  0.25500000000E-02 0.  1.
          2   -1    0    0  501    0  0.00000000000E+00 -0.00000000000E+00 -0.16461988129E+04  0.16461988129E+04  0.25500000000E-02 0. -1.
    8880023    1    1    2    0    0  0.53509689764E+03 -0.49756753931E+03 -0.58141750155E+02  0.98544041698E+03  0.65864270000E+03 0.  0.
    8880022    1    1    2    0    0 -0.53509689764E+03  0.49756753931E+03 -0.10004994298E+04  0.12483160289E+04  0.15294330000E+03 0.  0.
<mgrwt>
<rscale>  0 0.91815369E+03</rscale>
<asrwt>0</asrwt>
<pdfrwt beam="1">  1        2 0.25326135E+00 0.98372372E+03</pdfrwt>
<pdfrwt beam="2">  1       -2 0.90393483E-01 0.98372372E+03</pdfrwt>
<totfact> 0.10983446E+01</totfact>
</mgrwt>
</event>
<event>
 4    2  0.3855935E-007  0.6749783E+03  0.7818608E-02  0.1012320E+00
          2   -1    0    0  501    0  0.00000000000E+00  0.00000000000E+00  0.23295337568E+04  0.23295337568E+04  0.25500000000E-02 0. -1.
         -2   -1    0    0    0  501 -0.00000000000E+00 -0.00000000000E+00 -0.22390587939E+03  0.22390587940E+03  0.25500000000E-02 0.  1.
    8880023    1    1    2    0    0  0.45245563547E+02  0.14049321634E+03  0.30565241642E+03  0.74095823822E+03  0.65864270000E+03 0.  1.
    8880022    1    1    2    0    0 -0.45245563547E+02 -0.14049321634E+03  0.17999754610E+04  0.18124813980E+04  0.15294330000E+03 0.  0.
<mgrwt>
<rscale>  0 0.50562929E+03</rscale>
<asrwt>0</asrwt>
<pdfrwt beam="1">  1        2 0.35838978E+00 0.67497830E+03</pdfrwt>
<pdfrwt beam="2">  1       -2 0.34447061E-01 0.67497830E+03</pdfrwt>
<totfact> 0.36159664E+01</totfact>
</mgrwt>
</event>
<event>
 4    2  0.3855935E-007  0.6800306E+03  0.7818608E-02  0.1009306E+00
         -2   -1    0    0    0  501 -0.00000000000E+00  0.00000000000E+00  0.46785167471E+03  0.46785167472E+03  0.25500000000E-02 0.  1.
          2   -1    0    0  501    0  0.00000000000E+00 -0.00000000000E+00 -0.20732418484E+04  0.20732418484E+04  0.25500000000E-02 0. -1.
    8880023    1    1    2    0    0  0.12700840481E+03  0.11180436583E+03  0.20977763984E+03  0.71165175160E+03  0.65864270000E+03 0.  1.
    8880022    1    1    2    0    0 -0.12700840481E+03 -0.11180436583E+03 -0.18151678135E+04  0.18294417715E+04  0.15294330000E+03 0.  0.
<mgrwt>
<rscale>  0 0.51751239E+03</rscale>
<asrwt>0</asrwt>
<pdfrwt beam="1">  1        2 0.31896028E+00 0.68003056E+03</pdfrwt>
<pdfrwt beam="2">  1       -2 0.71977182E-01 0.68003056E+03</pdfrwt>
<totfact> 0.11153771E+01</totfact>
</mgrwt>
</event>
<event>
 4    2  0.3855935E-007  0.7827455E+03  0.7818608E-02  0.9749427E-01
         -2   -1    0    0    0  501 -0.00000000000E+00  0.00000000000E+00  0.12719978356E+04  0.12719978356E+04  0.25500000000E-02 0.  1.
          2   -1    0    0  501    0  0.00000000000E+00 -0.00000000000E+00 -0.10799087048E+04  0.10799087048E+04  0.25500000000E-02 0. -1.
    8880023    1    1    2    0    0 -0.28218388761E+03  0.31504377386E+03  0.10933519693E+04  0.13446594591E+04  0.65864270000E+03 0.  1.
    8880022    1    1    2    0    0  0.28218388761E+03 -0.31504377386E+03 -0.90126283845E+03  0.10072470813E+04  0.15294330000E+03 0.  0.
<mgrwt>
<rscale>  0 0.68148673E+03</rscale>
<asrwt>0</asrwt>
<pdfrwt beam="1">  1        2 0.16613980E+00 0.78274551E+03</pdfrwt>
<pdfrwt beam="2">  1       -2 0.19569197E+00 0.78274551E+03</pdfrwt>
<totfact> 0.32464454E+00</totfact>
</mgrwt>
</event>
<event>
 4    2  0.3855935E-007  0.7631898E+03  0.7818608E-02  0.9796918E-01
          2   -1    0    0  501    0  0.00000000000E+00  0.00000000000E+00  0.17757553670E+04  0.17757553670E+04  0.25500000000E-02 0. -1.
         -2   -1    0    0    0  501 -0.00000000000E+00 -0.00000000000E+00 -0.39261655654E+03  0.39261655655E+03  0.25500000000E-02 0.  1.
    8880023    1    1    2    0    0 -0.42270980794E+02 -0.38322528564E+03  0.41762988449E+02  0.76433160921E+03  0.65864270000E+03 0.  1.
    8880022    1    1    2    0    0  0.42270980794E+02  0.38322528564E+03  0.13413758220E+04  0.14040403143E+04  0.15294330000E+03 0.  0.
<mgrwt>
<rscale>  0 0.65528183E+03</rscale>
<asrwt>0</asrwt>
<pdfrwt beam="1">  1        2 0.27319314E+00 0.76318979E+03</pdfrwt>
<pdfrwt beam="2">  1       -2 0.60402546E-01 0.76318979E+03</pdfrwt>
<totfact> 0.23345365E+01</totfact>
</mgrwt>
</event>
<event>
 4    2  0.3855935E-007  0.9322520E+03  0.7818608E-02  0.9476123E-01
          2   -1    0    0  501    0  0.00000000000E+00  0.00000000000E+00  0.28157174679E+04  0.28157174679E+04  0.25500000000E-02 0. -1.
         -2   -1    0    0    0  501 -0.00000000000E+00 -0.00000000000E+00 -0.25396938405E+03  0.25396938407E+03  0.25500000000E-02 0.  1.
    8880023    1    1    2    0    0 -0.61599082931E+03 -0.23630263922E+03  0.99857185940E+03  0.13661038042E+04  0.65864270000E+03 0.  1.
    8880022    1    1    2    0    0  0.61599082931E+03  0.23630263922E+03  0.15631762245E+04  0.17035830478E+04  0.15294330000E+03 0.  0.
<mgrwt>
<rscale>  0 0.86067298E+03</rscale>
<asrwt>0</asrwt>
<pdfrwt beam="1">  1        2 0.43318731E+00 0.93225203E+03</pdfrwt>
<pdfrwt beam="2">  1       -2 0.39072212E-01 0.93225203E+03</pdfrwt>
<totfact> 0.14393266E+01</totfact>
</mgrwt>
</event>
<event>
 4    2  0.3855935E-007  0.6596349E+03  0.7818608E-02  0.1024534E+00
          2   -1    0    0  501    0  0.00000000000E+00  0.00000000000E+00  0.12541546191E+04  0.12541546191E+04  0.25500000000E-02 0. -1.
         -2   -1    0    0    0  501 -0.00000000000E+00 -0.00000000000E+00 -0.70462089474E+03  0.70462089475E+03  0.25500000000E-02 0.  1.
    8880023    1    1    2    0    0  0.33840056889E+01 -0.36006651959E+02 -0.54337817310E+03  0.85462153948E+03  0.65864270000E+03 0.  1.
    8880022    1    1    2    0    0 -0.33840056889E+01  0.36006651959E+02  0.10929118975E+04  0.11041539744E+04  0.15294330000E+03 0.  0.
<mgrwt>
<rscale>  0 0.46085457E+03</rscale>
<asrwt>0</asrwt>
<pdfrwt beam="1">  1        2 0.19294686E+00 0.65963485E+03</pdfrwt>
<pdfrwt beam="2">  1       -2 0.10840322E+00 0.65963485E+03</pdfrwt>
<totfact> 0.12362842E+01</totfact>
</mgrwt>
</event>
<event>
 4    2  0.3855935E-007  0.9014781E+03  0.7818608E-02  0.9523663E-01
         -2   -1    0    0    0  501 -0.00000000000E+00  0.00000000000E+00  0.96281867586E+03  0.96281867587E+03  0.25500000000E-02 0.  1.
          2   -1    0    0  501    0  0.00000000000E+00 -0.00000000000E+00 -0.86793159548E+03  0.86793159548E+03  0.25500000000E-02 0. -1.
    8880023    1    1    2    0    0  0.56257825115E+03  0.24971646079E+03  0.54464838150E+03  0.10532353323E+04  0.65864270000E+03 0.  0.
    8880022    1    1    2    0    0 -0.56257825115E+03 -0.24971646079E+03 -0.44976130111E+03  0.77751493905E+03  0.15294330000E+03 0.  0.
<mgrwt>
<rscale>  0 0.82561509E+03</rscale>
<asrwt>0</asrwt>
<pdfrwt beam="1">  1        2 0.13352794E+00 0.90147812E+03</pdfrwt>
<pdfrwt beam="2">  1       -2 0.14812595E+00 0.90147812E+03</pdfrwt>
<totfact> 0.95595353E+00</totfact>
</mgrwt>
</event>
<event>
 4    2  0.3855935E-007  0.8596351E+03  0.7818608E-02  0.9594213E-01
          2   -1    0    0  501    0  0.00000000000E+00  0.00000000000E+00  0.53252523194E+03  0.53252523194E+03  0.25500000000E-02 0. -1.
         -2   -1    0    0    0  501 -0.00000000000E+00 -0.00000000000E+00 -0.13707313113E+04  0.13707313113E+04  0.25500000000E-02 0.  1.
    8880023    1    1    2    0    0 -0.63682850410E+02 -0.54873201952E+03 -0.98917615871E+03  0.13105121189E+04  0.65864270000E+03 0.  0.
    8880022    1    1    2    0    0  0.63682850410E+02  0.54873201952E+03  0.15097007933E+03  0.59274442431E+03  0.15294330000E+03 0.  0.
<mgrwt>
<rscale>  0 0.77680400E+03</rscale>
<asrwt>0</asrwt>
<pdfrwt beam="1">  1        2 0.81926959E-01 0.85963512E+03</pdfrwt>
<pdfrwt beam="2">  1       -2 0.21088174E+00 0.85963512E+03</pdfrwt>
<totfact> 0.65233510E+00</totfact>
</mgrwt>
</event>
<event>
 4    2  0.3855935E-007  0.6823350E+03  0.7818608E-02  0.1008033E+00
          2   -1    0    0  501    0  0.00000000000E+00  0.00000000000E+00  0.13307141796E+04  0.13307141796E+04  0.25500000000E-02 0. -1.
         -2   -1    0    0    0  501 -0.00000000000E+00 -0.00000000000E+00 -0.43768187784E+03  0.43768187785E+03  0.25500000000E-02 0.  1.
    8880023    1    1    2    0    0 -0.46829767208E+02 -0.17198191749E+03 -0.15052026684E+03  0.69873984002E+03  0.65864270000E+03 0.  0.
    8880022    1    1    2    0    0  0.46829767208E+02  0.17198191749E+03  0.10435525686E+04  0.10696562174E+04  0.15294330000E+03 0.  0.
<mgrwt>
<rscale>  0 0.52264124E+03</rscale>
<asrwt>0</asrwt>
<pdfrwt beam="1">  1        2 0.20472526E+00 0.68233497E+03</pdfrwt>
<pdfrwt beam="2">  1       -2 0.67335674E-01 0.68233497E+03</pdfrwt>
<totfact> 0.32996539E+01</totfact>
</mgrwt>
</event>
<event>
 4    2  0.3855935E-007  0.9335070E+03  0.7818608E-02  0.9474252E-01
         -2   -1    0    0    0  501 -0.00000000000E+00  0.00000000000E+00  0.52428050363E+03  0.52428050364E+03  0.25500000000E-02 0.  1.
          2   -1    0    0  501    0  0.00000000000E+00 -0.00000000000E+00 -0.12555832195E+04  0.12555832195E+04  0.25500000000E-02 0. -1.
    8880023    1    1    2    0    0  0.61263563061E+03  0.24960493880E+03 -0.52102451319E+03  0.10690658497E+04  0.65864270000E+03 0.  0.
    8880022    1    1    2    0    0 -0.61263563061E+03 -0.24960493880E+03 -0.21027820268E+03  0.71079787346E+03  0.15294330000E+03 0. -1.
<mgrwt>
<rscale>  0 0.86209029E+03</rscale>
<asrwt>0</asrwt>
<pdfrwt beam="1">  1        2 0.19316665E+00 0.93350696E+03</pdfrwt>
<pdfrwt beam="2">  1       -2 0.80658540E-01 0.93350696E+03</pdfrwt>
<totfact> 0.23856821E+01</totfact>
</mgrwt>
</event>
<event>
 4    2  0.3855935E-007  0.7363240E+03  0.7818608E-02  0.9870787E-01
         -2   -1    0    0    0  501 -0.00000000000E+00  0.00000000000E+00  0.17221367886E+04  0.17221367886E+04  0.25500000000E-02 0.  1.
          2   -1    0    0  501    0  0.00000000000E+00 -0.00000000000E+00 -0.19801584574E+03  0.19801584576E+03  0.25500000000E-02 0. -1.
    8880023    1    1    2    0    0 -0.20735966891E+03 -0.25566529480E+03  0.12985738758E+04  0.14928051087E+04  0.65864270000E+03 0.  1.
    8880022    1    1    2    0    0  0.20735966891E+03  0.25566529480E+03  0.22554706706E+03  0.42734752571E+03  0.15294330000E+03 0.  0.
<mgrwt>
<rscale>  0 0.61698180E+03</rscale>
<asrwt>0</asrwt>
<pdfrwt beam="1">  1        2 0.30463975E-01 0.73632397E+03</pdfrwt>
<pdfrwt beam="2">  1       -2 0.26494413E+00 0.73632397E+03</pdfrwt>
<totfact> 0.93865873E+00</totfact>
</mgrwt>
</event>
<event>
 4    2  0.3855935E-007  0.7705737E+03  0.7818608E-02  0.9778464E-01
         -2   -1    0    0    0  501 -0.00000000000E+00  0.00000000000E+00  0.16893336493E+03  0.16893336495E+03  0.25500000000E-02 0.  1.
          2   -1    0    0  501    0  0.00000000000E+00 -0.00000000000E+00 -0.25480634200E+04  0.25480634200E+04  0.25500000000E-02 0. -1.
    8880023    1    1    2    0    0  0.22047798487E+03 -0.33371111745E+03 -0.93981719866E+03  0.12153354372E+04  0.65864270000E+03 0.  1.
    8880022    1    1    2    0    0 -0.22047798487E+03  0.33371111745E+03 -0.14393128564E+04  0.15016613478E+04  0.15294330000E+03 0.  0.
<mgrwt>
<rscale>  0 0.66531190E+03</rscale>
<asrwt>0</asrwt>
<pdfrwt beam="1">  1        2 0.39200973E+00 0.77057372E+03</pdfrwt>
<pdfrwt beam="2">  1       -2 0.25989750E-01 0.77057372E+03</pdfrwt>
<totfact> 0.45324466E+01</totfact>
</mgrwt>
</event>
<event>
 4    2  0.3855935E-007  0.7051400E+03  0.7818608E-02  0.9976511E-01
         -2   -1    0    0    0  501 -0.00000000000E+00  0.00000000000E+00  0.39957892038E+03  0.39957892039E+03  0.25500000000E-02 0.  1.
          2   -1    0    0  501    0  0.00000000000E+00 -0.00000000000E+00 -0.12922868956E+04  0.12922868956E+04  0.25500000000E-02 0. -1.
    8880023    1    1    2    0    0  0.10242893829E+02 -0.25160932725E+03  0.47341943441E+02  0.70672741301E+03  0.65864270000E+03 0.  1.
    8880022    1    1    2    0    0 -0.10242893829E+02  0.25160932725E+03 -0.94004991864E+03  0.98513840296E+03  0.15294330000E+03 0.  0.
<mgrwt>
<rscale>  0 0.56692271E+03</rscale>
<asrwt>0</asrwt>
<pdfrwt beam="1">  1        2 0.19881337E+00 0.70513997E+03</pdfrwt>
<pdfrwt beam="2">  1       -2 0.61473681E-01 0.70513997E+03</pdfrwt>
<totfact> 0.42081018E+01</totfact>
</mgrwt>
</event>
<event>
 4    2  0.3855935E-007  0.7559065E+03  0.7818608E-02  0.9815823E-01
         -2   -1    0    0    0  501 -0.00000000000E+00  0.00000000000E+00  0.17828821909E+03  0.17828821911E+03  0.25500000000E-02 0.  1.
          2   -1    0    0  501    0  0.00000000000E+00 -0.00000000000E+00 -0.26922533549E+04  0.26922533549E+04  0.25500000000E-02 0. -1.
    8880023    1    1    2    0    0 -0.21998505604E+03  0.29864868139E+03 -0.76241070749E+03  0.10736222580E+04  0.65864270000E+03 0.  1.
    8880022    1    1    2    0    0  0.21998505604E+03 -0.29864868139E+03 -0.17515544283E+04  0.17969193160E+04  0.15294330000E+03 0.  0.
<mgrwt>
<rscale>  0 0.64520281E+03</rscale>
<asrwt>0</asrwt>
<pdfrwt beam="1">  1        2 0.41419279E+00 0.75590652E+03</pdfrwt>
<pdfrwt beam="2">  1       -2 0.27428959E-01 0.75590652E+03</pdfrwt>
<totfact> 0.34001081E+01</totfact>
</mgrwt>
</event>
<event>
 4    2  0.3855935E-007  0.8030982E+03  0.7818608E-02  0.9704137E-01
          2   -1    0    0  501    0  0.00000000000E+00  0.00000000000E+00  0.17923200354E+04  0.17923200354E+04  0.25500000000E-02 0. -1.
         -2   -1    0    0    0  501 -0.00000000000E+00 -0.00000000000E+00 -0.58240795674E+03  0.58240795675E+03  0.25500000000E-02 0.  1.
    8880023    1    1    2    0    0 -0.83501836487E+02  0.45186713983E+03 -0.24636105933E+03  0.84003597933E+03  0.65864270000E+03 0.  1.
    8880022    1    1    2    0    0  0.83501836487E+02 -0.45186713983E+03  0.14562731380E+04  0.15346920128E+04  0.15294330000E+03 0.  0.
<mgrwt>
<rscale>  0 0.70771023E+03</rscale>
<asrwt>0</asrwt>
<pdfrwt beam="1">  1        2 0.27574154E+00 0.80309817E+03</pdfrwt>
<pdfrwt beam="2">  1       -2 0.89601226E-01 0.80309817E+03</pdfrwt>
<totfact> 0.95175742E+00</totfact>
</mgrwt>
</event>
<event>
 4    2  0.3855935E-007  0.8769998E+03  0.7818608E-02  0.9564011E-01
         -2   -1    0    0    0  501 -0.00000000000E+00  0.00000000000E+00  0.53568644137E+03  0.53568644138E+03  0.25500000000E-02 0.  1.
          2   -1    0    0  501    0  0.00000000000E+00 -0.00000000000E+00 -0.15443154592E+04  0.15443154592E+04  0.25500000000E-02 0. -1.
    8880023    1    1    2    0    0  0.24873068140E+03  0.52292594996E+03 -0.11676557467E+04  0.14603248440E+04  0.65864270000E+03 0. -1.
    8880022    1    1    2    0    0 -0.24873068140E+03 -0.52292594996E+03  0.15902672879E+03  0.61967705662E+03  0.15294330000E+03 0.  0.
<mgrwt>
<rscale>  0 0.79724645E+03</rscale>
<asrwt>0</asrwt>
<pdfrwt beam="1">  1        2 0.23758699E+00 0.87699983E+03</pdfrwt>
<pdfrwt beam="2">  1       -2 0.82413299E-01 0.87699983E+03</pdfrwt>
<totfact> 0.15641378E+01</totfact>
</mgrwt>
</event>
<event>
 4    2  0.3855935E-007  0.9118588E+03  0.7818608E-02  0.9507256E-01
         -2   -1    0    0    0  501 -0.00000000000E+00  0.00000000000E+00  0.47415528167E+03  0.47415528167E+03  0.25500000000E-02 0.  1.
          2   -1    0    0  501    0  0.00000000000E+00 -0.00000000000E+00 -0.27799935629E+04  0.27799935629E+04  0.25500000000E-02 0. -1.
    8880023    1    1    2    0    0  0.47666700894E+03  0.41287380558E+03 -0.57083965808E+02  0.91364380487E+03  0.65864270000E+03 0.  0.
    8880022    1    1    2    0    0 -0.47666700894E+03 -0.41287380558E+03 -0.22487543155E+04  0.23405050397E+04  0.15294330000E+03 0.  0.
<mgrwt>
<rscale>  0 0.83750942E+03</rscale>
<asrwt>0</asrwt>
<pdfrwt beam="1">  1        2 0.42769131E+00 0.91185877E+03</pdfrwt>
<pdfrwt beam="2">  1       -2 0.72946968E-01 0.91185877E+03</pdfrwt>
<totfact> 0.41581640E+00</totfact>
</mgrwt>
</event>
<event>
 4    2  0.3855935E-007  0.6589761E+03  0.7818608E-02  0.1025231E+00
         -2   -1    0    0    0  501 -0.00000000000E+00  0.00000000000E+00  0.25709434495E+03  0.25709434496E+03  0.25500000000E-02 0.  1.
          2   -1    0    0  501    0  0.00000000000E+00 -0.00000000000E+00 -0.21552523753E+04  0.21552523753E+04  0.25500000000E-02 0. -1.
    8880023    1    1    2    0    0 -0.16413449313E+02 -0.13036397680E+02 -0.17436401417E+03  0.68165413861E+03  0.65864270000E+03 0.  1.
    8880022    1    1    2    0    0  0.16413449313E+02  0.13036397680E+02 -0.17237940162E+04  0.17306925817E+04  0.15294330000E+03 0.  0.
<mgrwt>
<rscale>  0 0.45845325E+03</rscale>
<asrwt>0</asrwt>
<pdfrwt beam="1">  1        2 0.33157728E+00 0.65897614E+03</pdfrwt>
<pdfrwt beam="2">  1       -2 0.39552977E-01 0.65897614E+03</pdfrwt>
<totfact> 0.34683726E+01</totfact>
</mgrwt>
</event>
<event>
 4    2  0.3855935E-007  0.1260516E+04  0.7818608E-02  0.9100430E-01
          2   -1    0    0  501    0  0.00000000000E+00  0.00000000000E+00  0.46711480735E+04  0.46711480735E+04  0.25500000000E-02 0. -1.
         -2   -1    0    0    0  501 -0.00000000000E+00 -0.00000000000E+00 -0.85703124792E+03  0.85703124793E+03  0.25500000000E-02 0.  1.
    8880023    1    1    2    0    0  0.21292723115E+03 -0.10534477649E+04 -0.28113469886E+03  0.12914864012E+04  0.65864270000E+03 0.  0.
    8880022    1    1    2    0    0 -0.21292723115E+03  0.10534477649E+04  0.40952515245E+04  0.42366929203E+04  0.15294330000E+03 0.  0.
<mgrwt>
<rscale>  0 0.12143017E+04</rscale>
<asrwt>0</asrwt>
<pdfrwt beam="1">  1        2 0.71863816E+00 0.12605159E+04</pdfrwt>
<pdfrwt beam="2">  1       -2 0.13185096E+00 0.12605159E+04</pdfrwt>
<totfact> 0.35210041E-02</totfact>
</mgrwt>
</event>
<event>
 4    2  0.3855935E-007  0.1176315E+04  0.7818608E-02  0.9180496E-01
          2   -1    0    0  501    0  0.00000000000E+00  0.00000000000E+00  0.16335625442E+04  0.16335625442E+04  0.25500000000E-02 0. -1.
         -2   -1    0    0    0  501 -0.00000000000E+00 -0.00000000000E+00 -0.96549651681E+03  0.96549651682E+03  0.25500000000E-02 0.  1.
    8880023    1    1    2    0    0  0.63126836377E+03 -0.74256846560E+03 -0.30305559122E+03  0.12147265416E+04  0.65864270000E+03 0.  0.
    8880022    1    1    2    0    0 -0.63126836377E+03  0.74256846560E+03  0.97112161856E+03  0.13843325194E+04  0.15294330000E+03 0.  0.
<mgrwt>
<rscale>  0 0.11257025E+04</rscale>
<asrwt>0</asrwt>
<pdfrwt beam="1">  1        2 0.25131731E+00 0.11763154E+04</pdfrwt>
<pdfrwt beam="2">  1       -2 0.14853793E+00 0.11763154E+04</pdfrwt>
<totfact> 0.32004014E+00</totfact>
</mgrwt>
</event>
<event>
 4    2  0.3855935E-007  0.6592299E+03  0.7818608E-02  0.1024960E+00
         -2   -1    0    0    0  501 -0.00000000000E+00  0.00000000000E+00  0.96518193589E+03  0.96518193589E+03  0.25500000000E-02 0.  1.
          2   -1    0    0  501    0  0.00000000000E+00 -0.00000000000E+00 -0.57055548357E+03  0.57055548358E+03  0.25500000000E-02 0. -1.
    8880023    1    1    2    0    0  0.17125688740E+02 -0.21920771646E+02  0.83781519621E+03  0.10660761318E+04  0.65864270000E+03 0.  1.
    8880022    1    1    2    0    0 -0.17125688740E+02  0.21920771646E+02 -0.44318874390E+03  0.46966128771E+03  0.15294330000E+03 0.  0.
<mgrwt>
<rscale>  0 0.45938525E+03</rscale>
<asrwt>0</asrwt>
<pdfrwt beam="1">  1        2 0.87777766E-01 0.65922987E+03</pdfrwt>
<pdfrwt beam="2">  1       -2 0.14848953E+00 0.65922987E+03</pdfrwt>
<totfact> 0.16596335E+01</totfact>
</mgrwt>
</event>
<event>
 4    2  0.3855935E-007  0.1035867E+04  0.7818608E-02  0.9336067E-01
          2   -1    0    0  501    0  0.00000000000E+00  0.00000000000E+00  0.24680815359E+04  0.24680815359E+04  0.25500000000E-02 0. -1.
         -2   -1    0    0    0  501 -0.00000000000E+00 -0.00000000000E+00 -0.82219995664E+03  0.82219995665E+03  0.25500000000E-02 0.  1.
    8880023    1    1    2    0    0  0.30644457564E+03  0.73844602214E+03 -0.38283742433E+03  0.11043484528E+04  0.65864270000E+03 0.  1.
    8880022    1    1    2    0    0 -0.30644457564E+03 -0.73844602214E+03  0.20287190036E+04  0.21859330397E+04  0.15294330000E+03 0.  0.
<mgrwt>
<rscale>  0 0.97529212E+03</rscale>
<asrwt>0</asrwt>
<pdfrwt beam="1">  1        2 0.37970485E+00 0.10358673E+04</pdfrwt>
<pdfrwt beam="2">  1       -2 0.12649230E+00 0.10358673E+04</pdfrwt>
<totfact> 0.16919738E+00</totfact>
</mgrwt>
</event>
<event>
 4    2  0.3855935E-007  0.9084449E+03  0.7818608E-02  0.9512609E-01
          2   -1    0    0  501    0  0.00000000000E+00  0.00000000000E+00  0.11048092806E+04  0.11048092806E+04  0.25500000000E-02 0. -1.
         -2   -1    0    0    0  501 -0.00000000000E+00 -0.00000000000E+00 -0.64856458601E+03  0.64856458601E+03  0.25500000000E-02 0.  1.
    8880023    1    1    2    0    0 -0.89472694961E+02 -0.61923873393E+03  0.60610483077E+03  0.10920784060E+04  0.65864270000E+03 0.  0.
    8880022    1    1    2    0    0  0.89472694961E+02  0.61923873393E+03 -0.14986013619E+03  0.66129546058E+03  0.15294330000E+03 0.  0.
<mgrwt>
<rscale>  0 0.83360596E+03</rscale>
<asrwt>0</asrwt>
<pdfrwt beam="1">  1        2 0.16997066E+00 0.90844492E+03</pdfrwt>
<pdfrwt beam="2">  1       -2 0.99779169E-01 0.90844492E+03</pdfrwt>
<totfact> 0.18001283E+01</totfact>
</mgrwt>
</event>
<event>
 4    2  0.3855935E-007  0.6744072E+03  0.7818608E-02  0.1012683E+00
          2   -1    0    0  501    0  0.00000000000E+00  0.00000000000E+00  0.12785991787E+04  0.12785991787E+04  0.25500000000E-02 0. -1.
         -2   -1    0    0    0  501 -0.00000000000E+00 -0.00000000000E+00 -0.30218743187E+03  0.30218743188E+03  0.25500000000E-02 0.  1.
    8880023    1    1    2    0    0 -0.20080142247E+02  0.14356765207E+03  0.10289549705E+03  0.68221153055E+03  0.65864270000E+03 0.  1.
    8880022    1    1    2    0    0  0.20080142247E+02 -0.14356765207E+03  0.87351624973E+03  0.89857508000E+03  0.15294330000E+03 0.  0.
<mgrwt>
<rscale>  0 0.50422284E+03</rscale>
<asrwt>0</asrwt>
<pdfrwt beam="1">  1        2 0.19670757E+00 0.67440721E+03</pdfrwt>
<pdfrwt beam="2">  1       -2 0.46490374E-01 0.67440721E+03</pdfrwt>
<totfact> 0.76456958E+01</totfact>
</mgrwt>
</event>
<event>
 4    2  0.3855935E-007  0.8242212E+03  0.7818608E-02  0.9660682E-01
         -2   -1    0    0    0  501 -0.00000000000E+00  0.00000000000E+00  0.11680268939E+04  0.11680268939E+04  0.25500000000E-02 0.  1.
          2   -1    0    0  501    0  0.00000000000E+00 -0.00000000000E+00 -0.53449727382E+03  0.53449727383E+03  0.25500000000E-02 0. -1.
    8880023    1    1    2    0    0  0.25562624961E+03  0.42448279143E+03  0.80914952709E+03  0.11550167025E+04  0.65864270000E+03 0.  0.
    8880022    1    1    2    0    0 -0.25562624961E+03 -0.42448279143E+03 -0.17561990699E+03  0.54750746520E+03  0.15294330000E+03 0.  0.
<mgrwt>
<rscale>  0 0.73406776E+03</rscale>
<asrwt>0</asrwt>
<pdfrwt beam="1">  1        2 0.82230349E-01 0.82422122E+03</pdfrwt>
<pdfrwt beam="2">  1       -2 0.17969645E+00 0.82422122E+03</pdfrwt>
<totfact> 0.10472618E+01</totfact>
</mgrwt>
</event>
<event>
 4    2  0.3855935E-007  0.1359040E+04  0.7818608E-02  0.9016182E-01
          2   -1    0    0  501    0  0.00000000000E+00  0.00000000000E+00  0.18106490622E+04  0.18106490622E+04  0.25500000000E-02 0. -1.
         -2   -1    0    0    0  501 -0.00000000000E+00 -0.00000000000E+00 -0.11451900082E+04  0.11451900082E+04  0.25500000000E-02 0.  1.
    8880023    1    1    2    0    0 -0.11563112384E+04 -0.27590326551E+03  0.10275437005E+04  0.17037706872E+04  0.65864270000E+03 0. -1.
    8880022    1    1    2    0    0  0.11563112384E+04  0.27590326551E+03 -0.36208464647E+03  0.12520683832E+04  0.15294330000E+03 0.  0.
<mgrwt>
<rscale>  0 0.13170126E+04</rscale>
<asrwt>0</asrwt>
<pdfrwt beam="1">  1        2 0.27856139E+00 0.13590395E+04</pdfrwt>
<pdfrwt beam="2">  1       -2 0.17618308E+00 0.13590395E+04</pdfrwt>
<totfact> 0.15665588E+00</totfact>
</mgrwt>
</event>
<event>
 4    2  0.3855935E-007  0.7075954E+03  0.7818608E-02  0.9967041E-01
          2   -1    0    0  501    0  0.00000000000E+00  0.00000000000E+00  0.62336790284E+03  0.62336790285E+03  0.25500000000E-02 0. -1.
         -2   -1    0    0    0  501 -0.00000000000E+00 -0.00000000000E+00 -0.44138093716E+03  0.44138093717E+03  0.25500000000E-02 0.  1.
    8880023    1    1    2    0    0 -0.20320659565E+03  0.15996289615E+03 -0.10951747932E+02  0.70768015071E+03  0.65864270000E+03 0.  1.
    8880022    1    1    2    0    0  0.20320659565E+03 -0.15996289615E+03  0.19293871361E+03  0.35706868931E+03  0.15294330000E+03 0.  0.
<mgrwt>
<rscale>  0 0.57119357E+03</rscale>
<asrwt>0</asrwt>
<pdfrwt beam="1">  1        2 0.95902754E-01 0.70759540E+03</pdfrwt>
<pdfrwt beam="2">  1       -2 0.67904760E-01 0.70759540E+03</pdfrwt>
<totfact> 0.95368538E+01</totfact>
</mgrwt>
</event>
<event>
 4    2  0.3855935E-007  0.1101251E+04  0.7818608E-02  0.9259664E-01
          2   -1    0    0  501    0  0.00000000000E+00  0.00000000000E+00  0.14084946171E+04  0.14084946171E+04  0.25500000000E-02 0. -1.
         -2   -1    0    0    0  501 -0.00000000000E+00 -0.00000000000E+00 -0.82289646980E+03  0.82289646980E+03  0.25500000000E-02 0.  1.
    8880023    1    1    2    0    0 -0.24052485676E+03 -0.84917125294E+03  0.73400373232E+03  0.13234484156E+04  0.65864270000E+03 0.  0.
    8880022    1    1    2    0    0  0.24052485676E+03  0.84917125294E+03 -0.14840558505E+03  0.90794267123E+03  0.15294330000E+03 0.  0.
<mgrwt>
<rscale>  0 0.10458257E+04</rscale>
<asrwt>0</asrwt>
<pdfrwt beam="1">  1        2 0.21669148E+00 0.11012512E+04</pdfrwt>
<pdfrwt beam="2">  1       -2 0.12659946E+00 0.11012512E+04</pdfrwt>
<totfact> 0.65330989E+00</totfact>
</mgrwt>
</event>
<event>
 4    2  0.3855935E-007  0.7115042E+03  0.7818608E-02  0.9952457E-01
          2   -1    0    0  501    0  0.00000000000E+00  0.00000000000E+00  0.16395942836E+04  0.16395942836E+04  0.25500000000E-02 0. -1.
         -2   -1    0    0    0  501 -0.00000000000E+00 -0.00000000000E+00 -0.26042912125E+03  0.26042912127E+03  0.25500000000E-02 0.  1.
    8880023    1    1    2    0    0 -0.23079481118E+03  0.13842594769E+03  0.29104479741E+03  0.76872964573E+03  0.65864270000E+03 0.  1.
    8880022    1    1    2    0    0  0.23079481118E+03 -0.13842594769E+03  0.10881203649E+04  0.11312937591E+04  0.15294330000E+03 0. -1.
<mgrwt>
<rscale>  0 0.57784972E+03</rscale>
<asrwt>0</asrwt>
<pdfrwt beam="1">  1        2 0.25224528E+00 0.71150418E+03</pdfrwt>
<pdfrwt beam="2">  1       -2 0.40066019E-01 0.71150418E+03</pdfrwt>
<totfact> 0.64149054E+01</totfact>
</mgrwt>
</event>
<event>
 4    2  0.3855935E-007  0.7469662E+03  0.7818608E-02  0.9840101E-01
         -2   -1    0    0    0  501 -0.00000000000E+00  0.00000000000E+00  0.30749560980E+03  0.30749560981E+03  0.25500000000E-02 0.  1.
          2   -1    0    0  501    0  0.00000000000E+00 -0.00000000000E+00 -0.33638744554E+04  0.33638744554E+04  0.25500000000E-02 0. -1.
    8880023    1    1    2    0    0 -0.27839881740E+03 -0.21596843858E+03 -0.17853550894E+03  0.76800612121E+03  0.65864270000E+03 0.  1.
    8880022    1    1    2    0    0  0.27839881740E+03  0.21596843858E+03 -0.28778433366E+04  0.29033639440E+04  0.15294330000E+03 0.  0.
<mgrwt>
<rscale>  0 0.63254204E+03</rscale>
<asrwt>0</asrwt>
<pdfrwt beam="1">  1        2 0.51751912E+00 0.74696618E+03</pdfrwt>
<pdfrwt beam="2">  1       -2 0.47307019E-01 0.74696618E+03</pdfrwt>
<totfact> 0.46140631E+00</totfact>
</mgrwt>
</event>
<event>
 4    2  0.3855935E-007  0.6674295E+03  0.7818608E-02  0.1017577E+00
          2   -1    0    0  501    0  0.00000000000E+00  0.00000000000E+00  0.33512746925E+04  0.33512746925E+04  0.25500000000E-02 0. -1.
         -2   -1    0    0    0  501 -0.00000000000E+00 -0.00000000000E+00 -0.10476148220E+03  0.10476148223E+03  0.25500000000E-02 0.  1.
    8880023    1    1    2    0    0  0.29818198096E+02 -0.10374394986E+03  0.10032660619E+04  0.12049916719E+04  0.65864270000E+03 0.  1.
    8880022    1    1    2    0    0 -0.29818198096E+02  0.10374394986E+03  0.22432471484E+04  0.22510445028E+04  0.15294330000E+03 0.  0.
<mgrwt>
<rscale>  0 0.48571343E+03</rscale>
<asrwt>0</asrwt>
<pdfrwt beam="1">  1        2 0.51558071E+00 0.66742950E+03</pdfrwt>
<pdfrwt beam="2">  1       -2 0.16117151E-01 0.66742950E+03</pdfrwt>
<totfact> 0.34606712E+01</totfact>
</mgrwt>
</event>
<event>
 4    2  0.3855935E-007  0.7735217E+03  0.7818608E-02  0.9771281E-01
          2   -1    0    0  501    0  0.00000000000E+00  0.00000000000E+00  0.52649629160E+04  0.52649629160E+04  0.25500000000E-02 0. -1.
         -2   -1    0    0    0  501 -0.00000000000E+00 -0.00000000000E+00 -0.25910757700E+03  0.25910757702E+03  0.25500000000E-02 0.  1.
    8880023    1    1    2    0    0  0.34141935101E+03 -0.21899408559E+03  0.35161762443E+03  0.84968861522E+03  0.65864270000E+03 0.  1.
    8880022    1    1    2    0    0 -0.34141935101E+03  0.21899408559E+03  0.46542377146E+04  0.46743818778E+04  0.15294330000E+03 0.  0.
<mgrwt>
<rscale>  0 0.66926821E+03</rscale>
<asrwt>0</asrwt>
<pdfrwt beam="1">  1        2 0.80999423E+00 0.77352168E+03</pdfrwt>
<pdfrwt beam="2">  1       -2 0.39862707E-01 0.77352168E+03</pdfrwt>
<totfact> 0.10542530E-01</totfact>
</mgrwt>
</event>
<event>
 4    2  0.3855935E-007  0.7493554E+03  0.7818608E-02  0.9833488E-01
         -2   -1    0    0    0  501 -0.00000000000E+00  0.00000000000E+00  0.19257666243E+04  0.19257666243E+04  0.25500000000E-02 0.  1.
          2   -1    0    0  501    0  0.00000000000E+00 -0.00000000000E+00 -0.27202967202E+03  0.27202967204E+03  0.25500000000E-02 0. -1.
    8880023    1    1    2    0    0 -0.35738248491E+03 -0.10534301805E+01  0.16464884618E+04  0.18089935908E+04  0.65864270000E+03 0.  0.
    8880022    1    1    2    0    0  0.35738248491E+03  0.10534301805E+01  0.72484904504E+01  0.38880270558E+03  0.15294330000E+03 0.  0.
<mgrwt>
<rscale>  0 0.63595933E+03</rscale>
<asrwt>0</asrwt>
<pdfrwt beam="1">  1        2 0.41850717E-01 0.74935543E+03</pdfrwt>
<pdfrwt beam="2">  1       -2 0.29627180E+00 0.74935543E+03</pdfrwt>
<totfact> 0.42593583E+00</totfact>
</mgrwt>
</event>
<event>
 4    2  0.3855935E-007  0.8591299E+03  0.7818608E-02  0.9595113E-01
         -2   -1    0    0    0  501 -0.00000000000E+00  0.00000000000E+00  0.12388705806E+04  0.12388705806E+04  0.25500000000E-02 0.  1.
          2   -1    0    0  501    0  0.00000000000E+00 -0.00000000000E+00 -0.66138463944E+03  0.66138463944E+03  0.25500000000E-02 0. -1.
    8880023    1    1    2    0    0  0.47954167244E+03 -0.27264224371E+03 -0.24936457525E+03  0.89458756213E+03  0.65864270000E+03 0.  0.
    8880022    1    1    2    0    0 -0.47954167244E+03  0.27264224371E+03  0.82685051637E+03  0.10056676579E+04  0.15294330000E+03 0.  0.
<mgrwt>
<rscale>  0 0.77620478E+03</rscale>
<asrwt>0</asrwt>
<pdfrwt beam="1">  1        2 0.10175148E+00 0.85912992E+03</pdfrwt>
<pdfrwt beam="2">  1       -2 0.19059548E+00 0.85912992E+03</pdfrwt>
<totfact> 0.68044642E+00</totfact>
</mgrwt>
</event>
<event>
 4    2  0.3855935E-007  0.6965136E+03  0.7818608E-02  0.1001198E+00
          2   -1    0    0  501    0  0.00000000000E+00  0.00000000000E+00  0.19804888920E+04  0.19804888920E+04  0.25500000000E-02 0. -1.
         -2   -1    0    0    0  501 -0.00000000000E+00 -0.00000000000E+00 -0.20624021990E+03  0.20624021991E+03  0.25500000000E-02 0.  1.
    8880023    1    1    2    0    0  0.92995099944E+02  0.20657410639E+03  0.43794229698E+03  0.82275428397E+03  0.65864270000E+03 0.  1.
    8880022    1    1    2    0    0 -0.92995099944E+02 -0.20657410639E+03  0.13363063751E+04  0.13639748279E+04  0.15294330000E+03 0.  0.
<mgrwt>
<rscale>  0 0.55127896E+03</rscale>
<asrwt>0</asrwt>
<pdfrwt beam="1">  1        2 0.30469058E+00 0.69651357E+03</pdfrwt>
<pdfrwt beam="2">  1       -2 0.31729266E-01 0.69651357E+03</pdfrwt>
<totfact> 0.65408947E+01</totfact>
</mgrwt>
</event>
<event>
 4    2  0.3855935E-007  0.7894344E+03  0.7818608E-02  0.9734125E-01
          2   -1    0    0  501    0  0.00000000000E+00  0.00000000000E+00  0.16133999554E+04  0.16133999554E+04  0.25500000000E-02 0. -1.
         -2   -1    0    0    0  501 -0.00000000000E+00 -0.00000000000E+00 -0.45120757706E+03  0.45120757707E+03  0.25500000000E-02 0.  1.
    8880023    1    1    2    0    0  0.42441990758E+03  0.96250674528E+02 -0.26156803094E+02  0.78986760594E+03  0.65864270000E+03 0.  1.
    8880022    1    1    2    0    0 -0.42441990758E+03 -0.96250674528E+02  0.11883491815E+04  0.12747399266E+04  0.15294330000E+03 0. -1.
<mgrwt>
<rscale>  0 0.69020873E+03</rscale>
<asrwt>0</asrwt>
<pdfrwt beam="1">  1        2 0.24821537E+00 0.78943439E+03</pdfrwt>
<pdfrwt beam="2">  1       -2 0.69416552E-01 0.78943439E+03</pdfrwt>
<totfact> 0.21188719E+01</totfact>
</mgrwt>
</event>
<event>
 4    2  0.3855935E-007  0.7928663E+03  0.7818608E-02  0.9726438E-01
         -2   -1    0    0    0  501 -0.00000000000E+00  0.00000000000E+00  0.49218709736E+03  0.49218709737E+03  0.25500000000E-02 0.  1.
          2   -1    0    0  501    0  0.00000000000E+00 -0.00000000000E+00 -0.10234783860E+04  0.10234783860E+04  0.25500000000E-02 0. -1.
    8880023    1    1    2    0    0  0.21738732915E+03  0.38414784852E+03  0.19941628127E+02  0.79311707534E+03  0.65864270000E+03 0.  0.
    8880022    1    1    2    0    0 -0.21738732915E+03 -0.38414784852E+03 -0.55123291672E+03  0.72254840799E+03  0.15294330000E+03 0.  0.
<mgrwt>
<rscale>  0 0.69464262E+03</rscale>
<asrwt>0</asrwt>
<pdfrwt beam="1">  1        2 0.15745821E+00 0.79286634E+03</pdfrwt>
<pdfrwt beam="2">  1       -2 0.75721092E-01 0.79286634E+03</pdfrwt>
<totfact> 0.38499770E+01</totfact>
</mgrwt>
</event>
<event>
 4    2  0.3855935E-007  0.7833523E+03  0.7818608E-02  0.9748020E-01
         -2   -1    0    0    0  501 -0.00000000000E+00  0.00000000000E+00  0.70061013070E+03  0.70061013071E+03  0.25500000000E-02 0.  1.
          2   -1    0    0  501    0  0.00000000000E+00 -0.00000000000E+00 -0.28076408025E+04  0.28076408025E+04  0.25500000000E-02 0. -1.
    8880023    1    1    2    0    0  0.40557044846E+03  0.12386787827E+03  0.45564279105E+03  0.90622910968E+03  0.65864270000E+03 0.  1.
    8880022    1    1    2    0    0 -0.40557044846E+03 -0.12386787827E+03 -0.25626734629E+04  0.26020218236E+04  0.15294330000E+03 0.  0.
<mgrwt>
<rscale>  0 0.68228255E+03</rscale>
<asrwt>0</asrwt>
<pdfrwt beam="1">  1        2 0.43194473E+00 0.78335231E+03</pdfrwt>
<pdfrwt beam="2">  1       -2 0.10778617E+00 0.78335231E+03</pdfrwt>
<totfact> 0.16637912E+00</totfact>
</mgrwt>
</event>
<event>
 4    2  0.3855935E-007  0.7651187E+03  0.7818608E-02  0.9792032E-01
         -2   -1    0    0    0  501 -0.00000000000E+00  0.00000000000E+00  0.61885219366E+03  0.61885219367E+03  0.25500000000E-02 0.  1.
          2   -1    0    0  501    0  0.00000000000E+00 -0.00000000000E+00 -0.17629734126E+04  0.17629734126E+04  0.25500000000E-02 0. -1.
    8880023    1    1    2    0    0  0.34266634265E+03  0.18486798157E+03  0.34191019900E+03  0.83803889137E+03  0.65864270000E+03 0.  1.
    8880022    1    1    2    0    0 -0.34266634265E+03 -0.18486798157E+03 -0.14860314179E+04  0.15437867149E+04  0.15294330000E+03 0.  0.
<mgrwt>
<rscale>  0 0.65791934E+03</rscale>
<asrwt>0</asrwt>
<pdfrwt beam="1">  1        2 0.27122668E+00 0.76511868E+03</pdfrwt>
<pdfrwt beam="2">  1       -2 0.95208031E-01 0.76511868E+03</pdfrwt>
<totfact> 0.86225038E+00</totfact>
</mgrwt>
</event>
<event>
 4    2  0.3855935E-007  0.9316494E+03  0.7818608E-02  0.9477023E-01
          2   -1    0    0  501    0  0.00000000000E+00  0.00000000000E+00  0.40566129906E+03  0.40566129907E+03  0.25500000000E-02 0. -1.
         -2   -1    0    0    0  501 -0.00000000000E+00 -0.00000000000E+00 -0.19033190790E+04  0.19033190790E+04  0.25500000000E-02 0.  1.
    8880023    1    1    2    0    0 -0.65323017801E+03  0.86318140803E+02 -0.38759220453E+03  0.10090581798E+04  0.65864270000E+03 0. -1.
    8880022    1    1    2    0    0  0.65323017801E+03 -0.86318140803E+02 -0.11100655754E+04  0.12999221983E+04  0.15294330000E+03 0.  0.
<mgrwt>
<rscale>  0 0.85999212E+03</rscale>
<asrwt>0</asrwt>
<pdfrwt beam="1">  1        2 0.62409432E-01 0.93164945E+03</pdfrwt>
<pdfrwt beam="2">  1       -2 0.29281831E+00 0.93164945E+03</pdfrwt>
<totfact> 0.27932212E+00</totfact>
</mgrwt>
</event>
<event>
 4    2  0.3855935E-007  0.6890633E+03  0.7818608E-02  0.1004601E+00
         -2   -1    0    0    0  501 -0.00000000000E+00  0.00000000000E+00  0.35350520258E+03  0.35350520259E+03  0.25500000000E-02 0.  1.
          2   -1    0    0  501    0  0.00000000000E+00 -0.00000000000E+00 -0.23103115847E+04  0.23103115847E+04  0.25500000000E-02 0. -1.
    8880023    1    1    2    0    0 -0.97116035879E+02 -0.17766951393E+03  0.15742568865E+01  0.68906506598E+03  0.65864270000E+03 0.  0.
    8880022    1    1    2    0    0  0.97116035879E+02  0.17766951393E+03 -0.19583806390E+04  0.19747517213E+04  0.15294330000E+03 0.  0.
<mgrwt>
<rscale>  0 0.53677999E+03</rscale>
<asrwt>0</asrwt>
<pdfrwt beam="1">  1        2 0.35543254E+00 0.68906327E+03</pdfrwt>
<pdfrwt beam="2">  1       -2 0.54385417E-01 0.68906327E+03</pdfrwt>
<totfact> 0.14982235E+01</totfact>
</mgrwt>
</event>
<event>
 4    2  0.3855935E-007  0.1085447E+04  0.7818608E-02  0.9277434E-01
          2   -1    0    0  501    0  0.00000000000E+00  0.00000000000E+00  0.87434267294E+03  0.87434267294E+03  0.25500000000E-02 0. -1.
         -2   -1    0    0    0  501 -0.00000000000E+00 -0.00000000000E+00 -0.19746877617E+04  0.19746877617E+04  0.25500000000E-02 0.  1.
    8880023    1    1    2    0    0 -0.83953781582E+03 -0.19890074369E+03 -0.15277728487E+04  0.18741092106E+04  0.65864270000E+03 0.  0.
    8880022    1    1    2    0    0  0.83953781582E+03  0.19890074369E+03  0.42742775991E+03  0.97492122400E+03  0.15294330000E+03 0.  0.
<mgrwt>
<rscale>  0 0.10288709E+04</rscale>
<asrwt>0</asrwt>
<pdfrwt beam="1">  1        2 0.13451426E+00 0.10854471E+04</pdfrwt>
<pdfrwt beam="2">  1       -2 0.30379812E+00 0.10854471E+04</pdfrwt>
<totfact> 0.91369143E-01</totfact>
</mgrwt>
</event>
<event>
 4    2  0.3855935E-007  0.8131626E+03  0.7818608E-02  0.9683026E-01
          2   -1    0    0  501    0  0.00000000000E+00  0.00000000000E+00  0.36221801454E+04  0.36221801454E+04  0.25500000000E-02 0. -1.
         -2   -1    0    0    0  501 -0.00000000000E+00 -0.00000000000E+00 -0.40390436044E+03  0.40390436045E+03  0.25500000000E-02 0.  1.
    8880023    1    1    2    0    0  0.39403013317E+03  0.26863272364E+03  0.45938814117E+02  0.81445924819E+03  0.65864270000E+03 0.  1.
    8880022    1    1    2    0    0 -0.39403013317E+03 -0.26863272364E+03  0.31723369709E+04  0.32116252577E+04  0.15294330000E+03 0.  0.
<mgrwt>
<rscale>  0 0.72036440E+03</rscale>
<asrwt>0</asrwt>
<pdfrwt beam="1">  1        2 0.55725847E+00 0.81316265E+03</pdfrwt>
<pdfrwt beam="2">  1       -2 0.62139134E-01 0.81316265E+03</pdfrwt>
<totfact> 0.17244834E+00</totfact>
</mgrwt>
</event>
<event>
 4    2  0.3855935E-007  0.9607623E+03  0.7818608E-02  0.9434796E-01
          2   -1    0    0  501    0  0.00000000000E+00  0.00000000000E+00  0.11271993449E+04  0.11271993449E+04  0.25500000000E-02 0. -1.
         -2   -1    0    0    0  501 -0.00000000000E+00 -0.00000000000E+00 -0.63773260350E+03  0.63773260350E+03  0.25500000000E-02 0.  1.
    8880023    1    1    2    0    0 -0.54930337995E+03  0.43303555801E+03  0.14949100896E+03  0.97232287115E+03  0.65864270000E+03 0.  0.
    8880022    1    1    2    0    0  0.54930337995E+03 -0.43303555801E+03  0.33997573249E+03  0.79260907731E+03  0.15294330000E+03 0.  0.
<mgrwt>
<rscale>  0 0.89266627E+03</rscale>
<asrwt>0</asrwt>
<pdfrwt beam="1">  1        2 0.17341528E+00 0.96076230E+03</pdfrwt>
<pdfrwt beam="2">  1       -2 0.98112709E-01 0.96076230E+03</pdfrwt>
<totfact> 0.18067492E+01</totfact>
</mgrwt>
</event>
<event>
 4    2  0.3855935E-007  0.6887812E+03  0.7818608E-02  0.1004737E+00
         -2   -1    0    0    0  501 -0.00000000000E+00  0.00000000000E+00  0.14431892307E+04  0.14431892307E+04  0.25500000000E-02 0.  1.
          2   -1    0    0  501    0  0.00000000000E+00 -0.00000000000E+00 -0.80084706106E+03  0.80084706106E+03  0.25500000000E-02 0. -1.
    8880023    1    1    2    0    0  0.14029482408E+03 -0.14466081738E+03  0.13374127806E+04  0.15043578503E+04  0.65864270000E+03 0.  1.
    8880022    1    1    2    0    0 -0.14029482408E+03  0.14466081738E+03 -0.69507061089E+03  0.73967844154E+03  0.15294330000E+03 0.  0.
<mgrwt>
<rscale>  0 0.53620933E+03</rscale>
<asrwt>0</asrwt>
<pdfrwt beam="1">  1        2 0.12320724E+00 0.68878124E+03</pdfrwt>
<pdfrwt beam="2">  1       -2 0.22202911E+00 0.68878124E+03</pdfrwt>
<totfact> 0.34171991E+00</totfact>
</mgrwt>
</event>
<event>
 4    2  0.3855935E-007  0.1101758E+04  0.7818608E-02  0.9259102E-01
         -2   -1    0    0    0  501 -0.00000000000E+00  0.00000000000E+00  0.99909206108E+03  0.99909206108E+03  0.25500000000E-02 0.  1.
          2   -1    0    0  501    0  0.00000000000E+00 -0.00000000000E+00 -0.14720579140E+04  0.14720579140E+04  0.25500000000E-02 0. -1.
    8880023    1    1    2    0    0  0.86554510930E+03  0.17575854264E+03  0.44491665228E+03  0.11882005030E+04  0.65864270000E+03 0.  1.
    8880022    1    1    2    0    0 -0.86554510930E+03 -0.17575854264E+03 -0.91788250517E+03  0.12829494721E+04  0.15294330000E+03 0.  0.
<mgrwt>
<rscale>  0 0.10463680E+04</rscale>
<asrwt>0</asrwt>
<pdfrwt beam="1">  1        2 0.22647045E+00 0.11017575E+04</pdfrwt>
<pdfrwt beam="2">  1       -2 0.15370647E+00 0.11017575E+04</pdfrwt>
<totfact> 0.36273263E+00</totfact>
</mgrwt>
</event>
<event>
 4    2  0.3855935E-007  0.1258445E+04  0.7818608E-02  0.9102302E-01
          2   -1    0    0  501    0  0.00000000000E+00  0.00000000000E+00  0.24196351722E+04  0.24196351722E+04  0.25500000000E-02 0. -1.
         -2   -1    0    0    0  501 -0.00000000000E+00 -0.00000000000E+00 -0.86567613912E+03  0.86567613913E+03  0.25500000000E-02 0.  1.
    8880023    1    1    2    0    0 -0.59535822000E+03 -0.89186468627E+03  0.17788979545E+04  0.21790278033E+04  0.65864270000E+03 0.  0.
    8880022    1    1    2    0    0  0.59535822000E+03  0.89186468627E+03 -0.22493892143E+03  0.11062835080E+04  0.15294330000E+03 0.  0.
<mgrwt>
<rscale>  0 0.12121330E+04</rscale>
<asrwt>0</asrwt>
<pdfrwt beam="1">  1        2 0.37225156E+00 0.12584452E+04</pdfrwt>
<pdfrwt beam="2">  1       -2 0.13318095E+00 0.12584452E+04</pdfrwt>
<totfact> 0.15370742E+00</totfact>
</mgrwt>
</event>
<event>
 4    2  0.3855935E-007  0.8208132E+03  0.7818608E-02  0.9667479E-01
         -2   -1    0    0    0  501 -0.00000000000E+00  0.00000000000E+00  0.63754905820E+03  0.63754905821E+03  0.25500000000E-02 0.  1.
          2   -1    0    0  501    0  0.00000000000E+00 -0.00000000000E+00 -0.15594101496E+04  0.15594101496E+04  0.25500000000E-02 0. -1.
    8880023    1    1    2    0    0 -0.17899642976E+03 -0.45594348376E+03  0.29826028749E+03  0.87332330074E+03  0.65864270000E+03 0.  1.
    8880022    1    1    2    0    0  0.17899642976E+03  0.45594348376E+03 -0.12201213788E+04  0.13236359070E+04  0.15294330000E+03 0.  0.
<mgrwt>
<rscale>  0 0.72986559E+03</rscale>
<asrwt>0</asrwt>
<pdfrwt beam="1">  1        2 0.23990925E+00 0.82081325E+03</pdfrwt>
<pdfrwt beam="2">  1       -2 0.98084471E-01 0.82081325E+03</pdfrwt>
<totfact> 0.10327060E+01</totfact>
</mgrwt>
</event>
<event>
 4    2  0.3855935E-007  0.1182361E+04  0.7818608E-02  0.9174462E-01
         -2   -1    0    0    0  501 -0.00000000000E+00  0.00000000000E+00  0.11455149595E+04  0.11455149595E+04  0.25500000000E-02 0.  1.
          2   -1    0    0  501    0  0.00000000000E+00 -0.00000000000E+00 -0.15955680908E+04  0.15955680908E+04  0.25500000000E-02 0. -1.
    8880023    1    1    2    0    0  0.88953602650E+03  0.41580504317E+03  0.57381461859E+03  0.13142456388E+04  0.65864270000E+03 0.  0.
    8880022    1    1    2    0    0 -0.88953602650E+03 -0.41580504317E+03 -0.10238677500E+04  0.14268374115E+04  0.15294330000E+03 0.  0.
<mgrwt>
<rscale>  0 0.11320956E+04</rscale>
<asrwt>0</asrwt>
<pdfrwt beam="1">  1        2 0.24547201E+00 0.11823614E+04</pdfrwt>
<pdfrwt beam="2">  1       -2 0.17623307E+00 0.11823614E+04</pdfrwt>
<totfact> 0.21005158E+00</totfact>
</mgrwt>
</event>
<event>
 4    2  0.3855935E-007  0.7592628E+03  0.7818608E-02  0.9807020E-01
         -2   -1    0    0    0  501 -0.00000000000E+00  0.00000000000E+00  0.10169934348E+03  0.10169934351E+03  0.25500000000E-02 0.  1.
          2   -1    0    0  501    0  0.00000000000E+00 -0.00000000000E+00 -0.39145274872E+04  0.39145274872E+04  0.25500000000E-02 0. -1.
    8880023    1    1    2    0    0  0.23553241961E+02 -0.37698146050E+03 -0.31323855577E+04  0.32230915694E+04  0.65864270000E+03 0. -1.
    8880022    1    1    2    0    0 -0.23553241961E+02  0.37698146050E+03 -0.68044258603E+03  0.79313526126E+03  0.15294330000E+03 0.  0.
<mgrwt>
<rscale>  0 0.64987179E+03</rscale>
<asrwt>0</asrwt>
<pdfrwt beam="1">  1        2 0.60223488E+00 0.75926279E+03</pdfrwt>
<pdfrwt beam="2">  1       -2 0.15646056E-01 0.75926279E+03</pdfrwt>
<totfact> 0.14294741E+01</totfact>
</mgrwt>
</event>
<event>
 4    2  0.3855935E-007  0.7943463E+03  0.7818608E-02  0.9723156E-01
          2   -1    0    0  501    0  0.00000000000E+00  0.00000000000E+00  0.38141623029E+04  0.38141623029E+04  0.25500000000E-02 0. -1.
         -2   -1    0    0    0  501 -0.00000000000E+00 -0.00000000000E+00 -0.36187798681E+03  0.36187798682E+03  0.25500000000E-02 0.  1.
    8880023    1    1    2    0    0 -0.40807127863E+03 -0.17508208447E+03  0.11117995325E+03  0.80208920515E+03  0.65864270000E+03 0.  1.
    8880022    1    1    2    0    0  0.40807127863E+03  0.17508208447E+03  0.33411043628E+04  0.33739510846E+04  0.15294330000E+03 0.  0.
<mgrwt>
<rscale>  0 0.69654652E+03</rscale>
<asrwt>0</asrwt>
<pdfrwt beam="1">  1        2 0.58679423E+00 0.79434634E+03</pdfrwt>
<pdfrwt beam="2">  1       -2 0.55673534E-01 0.79434634E+03</pdfrwt>
<totfact> 0.15840342E+00</totfact>
</mgrwt>
</event>
<event>
 4    2  0.3855935E-007  0.7310048E+03  0.7818608E-02  0.9886969E-01
         -2   -1    0    0    0  501 -0.00000000000E+00  0.00000000000E+00  0.42513109590E+03  0.42513109591E+03  0.25500000000E-02 0.  1.
          2   -1    0    0  501    0  0.00000000000E+00 -0.00000000000E+00 -0.82747250314E+03  0.82747250315E+03  0.25500000000E-02 0. -1.
    8880023    1    1    2    0    0  0.24328341265E+03  0.20339864892E+03 -0.50191582607E+03  0.88672855597E+03  0.65864270000E+03 0.  1.
    8880022    1    1    2    0    0 -0.24328341265E+03 -0.20339864892E+03  0.99574418830E+02  0.36587504308E+03  0.15294330000E+03 0.  0.
<mgrwt>
<rscale>  0 0.60896982E+03</rscale>
<asrwt>0</asrwt>
<pdfrwt beam="1">  1        2 0.12730346E+00 0.73100481E+03</pdfrwt>
<pdfrwt beam="2">  1       -2 0.65404784E-01 0.73100481E+03</pdfrwt>
<totfact> 0.71958207E+01</totfact>
</mgrwt>
</event>
<event>
 4    2  0.3855935E-007  0.6732866E+03  0.7818608E-02  0.1013409E+00
         -2   -1    0    0    0  501 -0.00000000000E+00  0.00000000000E+00  0.88699027672E+03  0.88699027672E+03  0.25500000000E-02 0.  1.
          2   -1    0    0  501    0  0.00000000000E+00 -0.00000000000E+00 -0.29221458989E+03  0.29221458990E+03  0.25500000000E-02 0. -1.
    8880023    1    1    2    0    0 -0.31715380166E+02  0.13601011902E+03  0.67844810378E+03  0.95582773218E+03  0.65864270000E+03 0.  1.
    8880022    1    1    2    0    0  0.31715380166E+02 -0.13601011902E+03 -0.83672416955E+02  0.22337713444E+03  0.15294330000E+03 0.  0.
<mgrwt>
<rscale>  0 0.50142088E+03</rscale>
<asrwt>0</asrwt>
<pdfrwt beam="1">  1        2 0.44956091E-01 0.67328658E+03</pdfrwt>
<pdfrwt beam="2">  1       -2 0.13646004E+00 0.67328658E+03</pdfrwt>
<totfact> 0.44078929E+01</totfact>
</mgrwt>
</event>
<event>
 4    2  0.3855935E-007  0.6848286E+03  0.7818608E-02  0.1006714E+00
         -2   -1    0    0    0  501 -0.00000000000E+00  0.00000000000E+00  0.29456616791E+03  0.29456616792E+03  0.25500000000E-02 0.  1.
          2   -1    0    0  501    0  0.00000000000E+00 -0.00000000000E+00 -0.12372679290E+04  0.12372679290E+04  0.25500000000E-02 0. -1.
    8880023    1    1    2    0    0  0.15086312649E+03  0.11144647671E+03 -0.14738388267E+03  0.70050854045E+03  0.65864270000E+03 0.  1.
    8880022    1    1    2    0    0 -0.15086312649E+03 -0.11144647671E+03 -0.79531787845E+03  0.83132555651E+03  0.15294330000E+03 0.  0.
<mgrwt>
<rscale>  0 0.52801633E+03</rscale>
<asrwt>0</asrwt>
<pdfrwt beam="1">  1        2 0.19034891E+00 0.68482860E+03</pdfrwt>
<pdfrwt beam="2">  1       -2 0.45317873E-01 0.68482860E+03</pdfrwt>
<totfact> 0.84947617E+01</totfact>
</mgrwt>
</event>
<event>
 4    2  0.3855935E-007  0.7120288E+03  0.7818608E-02  0.9950543E-01
          2   -1    0    0  501    0  0.00000000000E+00  0.00000000000E+00  0.52455366127E+04  0.52455366127E+04  0.25500000000E-02 0. -1.
         -2   -1    0    0    0  501 -0.00000000000E+00 -0.00000000000E+00 -0.15832037560E+03  0.15832037562E+03  0.25500000000E-02 0.  1.
    8880023    1    1    2    0    0  0.99592141399E+02 -0.25150778564E+03  0.67634441878E+03  0.98205231019E+03  0.65864270000E+03 0.  0.
    8880022    1    1    2    0    0 -0.99592141399E+02  0.25150778564E+03  0.44108718183E+04  0.44218046781E+04  0.15294330000E+03 0.  0.
<mgrwt>
<rscale>  0 0.57873056E+03</rscale>
<asrwt>0</asrwt>
<pdfrwt beam="1">  1        2 0.80700555E+00 0.71202877E+03</pdfrwt>
<pdfrwt beam="2">  1       -2 0.24356983E-01 0.71202877E+03</pdfrwt>
<totfact> 0.28834869E-01</totfact>
</mgrwt>
</event>
<event>
 4    2  0.3855935E-007  0.7115120E+03  0.7818608E-02  0.9952429E-01
          2   -1    0    0  501    0  0.00000000000E+00  0.00000000000E+00  0.29485048772E+03  0.29485048773E+03  0.25500000000E-02 0. -1.
         -2   -1    0    0    0  501 -0.00000000000E+00 -0.00000000000E+00 -0.19665231455E+04  0.19665231455E+04  0.25500000000E-02 0.  1.
    8880023    1    1    2    0    0  0.10796740502E+03 -0.24654043430E+03 -0.17928968339E+04  0.19289189744E+04  0.65864270000E+03 0.  1.
    8880022    1    1    2    0    0 -0.10796740502E+03  0.24654043430E+03  0.12122417616E+03  0.33245465885E+03  0.15294330000E+03 0.  0.
<mgrwt>
<rscale>  0 0.57786291E+03</rscale>
<asrwt>0</asrwt>
<pdfrwt beam="1">  1        2 0.45361615E-01 0.71151202E+03</pdfrwt>
<pdfrwt beam="2">  1       -2 0.30254201E+00 0.71151202E+03</pdfrwt>
<totfact> 0.35894253E+00</totfact>
</mgrwt>
</event>
<event>
 4    2  0.3855935E-007  0.6839721E+03  0.7818608E-02  0.1007160E+00
          2   -1    0    0  501    0  0.00000000000E+00  0.00000000000E+00  0.65940425746E+03  0.65940425746E+03  0.25500000000E-02 0. -1.
         -2   -1    0    0    0  501 -0.00000000000E+00 -0.00000000000E+00 -0.10438801581E+04  0.10438801581E+04  0.25500000000E-02 0.  1.
    8880023    1    1    2    0    0  0.15059104595E+03  0.10644255202E+03 -0.90258404153E+03  0.11324644976E+04  0.65864270000E+03 0.  1.
    8880022    1    1    2    0    0 -0.15059104595E+03 -0.10644255202E+03  0.51810814093E+03  0.57081991794E+03  0.15294330000E+03 0.  0.
<mgrwt>
<rscale>  0 0.52618948E+03</rscale>
<asrwt>0</asrwt>
<pdfrwt beam="1">  1        2 0.10144681E+00 0.68397214E+03</pdfrwt>
<pdfrwt beam="2">  1       -2 0.16059695E+00 0.68397214E+03</pdfrwt>
<totfact> 0.11269085E+01</totfact>
</mgrwt>
</event>
<event>
 4    2  0.3855935E-007  0.6808033E+03  0.7818608E-02  0.1008873E+00
         -2   -1    0    0    0  501 -0.00000000000E+00  0.00000000000E+00  0.42722738099E+03  0.42722738099E+03  0.25500000000E-02 0.  1.
          2   -1    0    0  501    0  0.00000000000E+00 -0.00000000000E+00 -0.89214962111E+03  0.89214962111E+03  0.25500000000E-02 0. -1.
    8880023    1    1    2    0    0 -0.88469478959E+02 -0.14783794194E+03  0.11947688488E+03  0.69120752171E+03  0.65864270000E+03 0.  1.
    8880022    1    1    2    0    0  0.88469478959E+02  0.14783794194E+03 -0.58439912500E+03  0.62816948040E+03  0.15294330000E+03 0.  0.
<mgrwt>
<rscale>  0 0.51925063E+03</rscale>
<asrwt>0</asrwt>
<pdfrwt beam="1">  1        2 0.13725379E+00 0.68080328E+03</pdfrwt>
<pdfrwt beam="2">  1       -2 0.65727289E-01 0.68080328E+03</pdfrwt>
<totfact> 0.64519458E+01</totfact>
</mgrwt>
</event>
<event>
 4    2  0.3855935E-007  0.7771111E+03  0.7818608E-02  0.9762667E-01
         -2   -1    0    0    0  501 -0.00000000000E+00  0.00000000000E+00  0.96355854754E+03  0.96355854754E+03  0.25500000000E-02 0.  1.
          2   -1    0    0  501    0  0.00000000000E+00 -0.00000000000E+00 -0.49638914934E+03  0.49638914934E+03  0.25500000000E-02 0. -1.
    8880023    1    1    2    0    0  0.13643591347E+03 -0.38920016628E+03 -0.52774204330E+02  0.77890105329E+03  0.65864270000E+03 0. -1.
    8880022    1    1    2    0    0 -0.13643591347E+03  0.38920016628E+03  0.51994360253E+03  0.68104664359E+03  0.15294330000E+03 0.  0.
<mgrwt>
<rscale>  0 0.67405100E+03</rscale>
<asrwt>0</asrwt>
<pdfrwt beam="1">  1        2 0.76367561E-01 0.77711115E+03</pdfrwt>
<pdfrwt beam="2">  1       -2 0.14823978E+00 0.77711115E+03</pdfrwt>
<totfact> 0.19412202E+01</totfact>
</mgrwt>
</event>
<event>
 4    2  0.3855935E-007  0.1101940E+04  0.7818608E-02  0.9258900E-01
         -2   -1    0    0    0  501 -0.00000000000E+00  0.00000000000E+00  0.21106634672E+04  0.21106634672E+04  0.25500000000E-02 0.  1.
          2   -1    0    0  501    0  0.00000000000E+00 -0.00000000000E+00 -0.69617728423E+03  0.69617728424E+03  0.25500000000E-02 0. -1.
    8880023    1    1    2    0    0 -0.16489154775E+03 -0.86791220302E+03  0.15482334983E+04  0.19003415446E+04  0.65864270000E+03 0.  1.
    8880022    1    1    2    0    0  0.16489154775E+03  0.86791220302E+03 -0.13374731531E+03  0.90649920686E+03  0.15294330000E+03 0.  0.
<mgrwt>
<rscale>  0 0.10465631E+04</rscale>
<asrwt>0</asrwt>
<pdfrwt beam="1">  1        2 0.10710420E+00 0.11019397E+04</pdfrwt>
<pdfrwt beam="2">  1       -2 0.32471745E+00 0.11019397E+04</pdfrwt>
<totfact> 0.91986420E-01</totfact>
</mgrwt>
</event>
<event>
 4    2  0.3855935E-007  0.8047785E+03  0.7818608E-02  0.9700558E-01
         -2   -1    0    0    0  501 -0.00000000000E+00  0.00000000000E+00  0.92806970855E+03  0.92806970855E+03  0.25500000000E-02 0.  1.
          2   -1    0    0  501    0  0.00000000000E+00 -0.00000000000E+00 -0.53347735259E+03  0.53347735260E+03  0.25500000000E-02 0. -1.
    8880023    1    1    2    0    0 -0.43737654604E+03 -0.15019996506E+03  0.52052977340E+03  0.95844651587E+03  0.65864270000E+03 0.  0.
    8880022    1    1    2    0    0  0.43737654604E+03  0.15019996506E+03 -0.12593741744E+03  0.50310054528E+03  0.15294330000E+03 0.  0.
<mgrwt>
<rscale>  0 0.70983604E+03</rscale>
<asrwt>0</asrwt>
<pdfrwt beam="1">  1        2 0.82073440E-01 0.80477853E+03</pdfrwt>
<pdfrwt beam="2">  1       -2 0.14277995E+00 0.80477853E+03</pdfrwt>
<totfact> 0.19644102E+01</totfact>
</mgrwt>
</event>
<event>
 4    2  0.3855935E-007  0.7055390E+03  0.7818608E-02  0.9974955E-01
          2   -1    0    0  501    0  0.00000000000E+00  0.00000000000E+00  0.22483275912E+04  0.22483275912E+04  0.25500000000E-02 0. -1.
         -2   -1    0    0    0  501 -0.00000000000E+00 -0.00000000000E+00 -0.14040223851E+03  0.14040223853E+03  0.25500000000E-02 0.  1.
    8880023    1    1    2    0    0  0.87187952968E+02  0.23743080679E+03  0.89149379156E+03  0.11369021567E+04  0.65864270000E+03 0.  0.
    8880022    1    1    2    0    0 -0.87187952968E+02 -0.23743080679E+03  0.12164315612E+04  0.12518276731E+04  0.15294330000E+03 0.  0.
<mgrwt>
<rscale>  0 0.56762181E+03</rscale>
<asrwt>0</asrwt>
<pdfrwt beam="1">  1        2 0.34589656E+00 0.70553904E+03</pdfrwt>
<pdfrwt beam="2">  1       -2 0.21600344E-01 0.70553904E+03</pdfrwt>
<totfact> 0.93713170E+01</totfact>
</mgrwt>
</event>
<event>
 4    2  0.3855935E-007  0.8520791E+03  0.7818608E-02  0.9607812E-01
         -2   -1    0    0    0  501 -0.00000000000E+00  0.00000000000E+00  0.61688052905E+03  0.61688052905E+03  0.25500000000E-02 0.  1.
          2   -1    0    0  501    0  0.00000000000E+00 -0.00000000000E+00 -0.16105140462E+04  0.16105140462E+04  0.25500000000E-02 0. -1.
    8880023    1    1    2    0    0  0.53933248904E+03 -0.36728675849E+02  0.22861375609E+03  0.88221481800E+03  0.65864270000E+03 0.  0.
    8880022    1    1    2    0    0 -0.53933248904E+03  0.36728675849E+02 -0.12222472732E+04  0.13451797573E+04  0.15294330000E+03 0.  0.
<mgrwt>
<rscale>  0 0.76781310E+03</rscale>
<asrwt>0</asrwt>
<pdfrwt beam="1">  1        2 0.24777139E+00 0.85207907E+03</pdfrwt>
<pdfrwt beam="2">  1       -2 0.94904697E-01 0.85207907E+03</pdfrwt>
<totfact> 0.10414042E+01</totfact>
</mgrwt>
</event>
<event>
 4    2  0.3855935E-007  0.7363321E+03  0.7818608E-02  0.9870763E-01
         -2   -1    0    0    0  501 -0.00000000000E+00  0.00000000000E+00  0.19213028048E+03  0.19213028050E+03  0.25500000000E-02 0.  1.
          2   -1    0    0  501    0  0.00000000000E+00 -0.00000000000E+00 -0.34483359868E+04  0.34483359868E+04  0.25500000000E-02 0. -1.
    8880023    1    1    2    0    0  0.31703332857E+03  0.88682580025E+02 -0.57351872933E+03  0.93333202590E+03  0.65864270000E+03 0.  1.
    8880022    1    1    2    0    0 -0.31703332857E+03 -0.88682580025E+02 -0.26826869770E+04  0.27071342414E+04  0.15294330000E+03 0.  0.
<mgrwt>
<rscale>  0 0.61699390E+03</rscale>
<asrwt>0</asrwt>
<pdfrwt beam="1">  1        2 0.53051318E+00 0.73633208E+03</pdfrwt>
<pdfrwt beam="2">  1       -2 0.29558507E-01 0.73633208E+03</pdfrwt>
<totfact> 0.10058629E+01</totfact>
</mgrwt>
</event>
<event>
 4    2  0.4848445E-007  0.1186324E+04  0.7818608E-02  0.9170532E-01
          2   -1    0    0  501    0  0.00000000000E+00  0.00000000000E+00  0.13745816058E+04  0.13745816059E+04  0.25500000000E-02 0. -1.
         -2   -1    0    0    0  501 -0.00000000000E+00 -0.00000000000E+00 -0.24009370922E+04  0.24009370922E+04  0.25500000000E-02 0.  1.
    8880023    1    1    2    0    0  0.69267589531E+03 -0.70267719575E+03 -0.20354508889E+04  0.23559341385E+04  0.65864270000E+03 0.  0.
    8880022    1    1    2    0    0 -0.69267589531E+03  0.70267719575E+03  0.10090954025E+04  0.14195845596E+04  0.15294330000E+03 0.  0.
<mgrwt>
<rscale>  0 0.11362832E+04</rscale>
<asrwt>0</asrwt>
<pdfrwt beam="1">  1        2 0.21147409E+00 0.11863243E+04</pdfrwt>
<pdfrwt beam="2">  1       -2 0.36937494E+00 0.11863243E+04</pdfrwt>
<totfact> 0.17254555E-01</totfact>
</mgrwt>
</event>
<event>
 4    2  0.3855935E-007  0.7028526E+03  0.7818608E-02  0.9985567E-01
         -2   -1    0    0    0  501 -0.00000000000E+00  0.00000000000E+00  0.56780464445E+03  0.56780464446E+03  0.25500000000E-02 0.  1.
          2   -1    0    0  501    0  0.00000000000E+00 -0.00000000000E+00 -0.52724594864E+03  0.52724594865E+03  0.25500000000E-02 0. -1.
    8880023    1    1    2    0    0 -0.72874608250E+01 -0.24523154951E+03  0.24125985927E+03  0.74310708913E+03  0.65864270000E+03 0.  0.
    8880022    1    1    2    0    0  0.72874608250E+01  0.24523154951E+03 -0.20070116346E+03  0.35194350398E+03  0.15294330000E+03 0.  0.
<mgrwt>
<rscale>  0 0.56287652E+03</rscale>
<asrwt>0</asrwt>
<pdfrwt beam="1">  1        2 0.81114761E-01 0.70285263E+03</pdfrwt>
<pdfrwt beam="2">  1       -2 0.87354561E-01 0.70285263E+03</pdfrwt>
<totfact> 0.66467117E+01</totfact>
</mgrwt>
</event>
<event>
 4    2  0.3855935E-007  0.6594871E+03  0.7818608E-02  0.1024688E+00
         -2   -1    0    0    0  501 -0.00000000000E+00  0.00000000000E+00  0.31727057129E+03  0.31727057130E+03  0.25500000000E-02 0.  1.
          2   -1    0    0  501    0  0.00000000000E+00 -0.00000000000E+00 -0.95461257592E+03  0.95461257593E+03  0.25500000000E-02 0. -1.
    8880023    1    1    2    0    0  0.32035020713E+02  0.93159391813E+01 -0.47023144556E+02  0.66116141120E+03  0.65864270000E+03 0.  1.
    8880022    1    1    2    0    0 -0.32035020713E+02 -0.93159391813E+01 -0.59031886008E+03  0.61072173602E+03  0.15294330000E+03 0.  0.
<mgrwt>
<rscale>  0 0.46032108E+03</rscale>
<asrwt>0</asrwt>
<pdfrwt beam="1">  1        2 0.14686347E+00 0.65948710E+03</pdfrwt>
<pdfrwt beam="2">  1       -2 0.48810857E-01 0.65948710E+03</pdfrwt>
<totfact> 0.10927506E+02</totfact>
</mgrwt>
</event>
<event>
 4    2  0.3855935E-007  0.7843765E+03  0.7818608E-02  0.9745655E-01
         -2   -1    0    0    0  501 -0.00000000000E+00  0.00000000000E+00  0.41659946598E+03  0.41659946599E+03  0.25500000000E-02 0.  1.
          2   -1    0    0  501    0  0.00000000000E+00 -0.00000000000E+00 -0.11525535056E+04  0.11525535056E+04  0.25500000000E-02 0. -1.
    8880023    1    1    2    0    0 -0.36507240569E+03 -0.21945035775E+03 -0.10310197558E+03  0.79112359625E+03  0.65864270000E+03 0.  1.
    8880022    1    1    2    0    0  0.36507240569E+03  0.21945035775E+03 -0.63285206404E+03  0.77802937533E+03  0.15294330000E+03 0. -1.
<mgrwt>
<rscale>  0 0.68362368E+03</rscale>
<asrwt>0</asrwt>
<pdfrwt beam="1">  1        2 0.17731592E+00 0.78437652E+03</pdfrwt>
<pdfrwt beam="2">  1       -2 0.64092226E-01 0.78437652E+03</pdfrwt>
<totfact> 0.46163126E+01</totfact>
</mgrwt>
</event>
<event>
 4    2  0.3855935E-007  0.7145458E+03  0.7818608E-02  0.9941493E-01
          2   -1    0    0  501    0  0.00000000000E+00  0.00000000000E+00  0.56789692716E+03  0.56789692716E+03  0.25500000000E-02 0. -1.
         -2   -1    0    0    0  501 -0.00000000000E+00 -0.00000000000E+00 -0.49074763048E+03  0.49074763048E+03  0.25500000000E-02 0.  1.
    8880023    1    1    2    0    0 -0.10375255837E+03 -0.25690640111E+03 -0.52874389863E+02  0.71649940661E+03  0.65864270000E+03 0.  0.
    8880022    1    1    2    0    0  0.10375255837E+03  0.25690640111E+03  0.13002368654E+03  0.34214515104E+03  0.15294330000E+03 0.  0.
<mgrwt>
<rscale>  0 0.58291844E+03</rscale>
<asrwt>0</asrwt>
<pdfrwt beam="1">  1        2 0.87368759E-01 0.71454580E+03</pdfrwt>
<pdfrwt beam="2">  1       -2 0.75499635E-01 0.71454580E+03</pdfrwt>
<totfact> 0.84522690E+01</totfact>
</mgrwt>
</event>
<event>
 4    2  0.3855935E-007  0.1114968E+04  0.7818608E-02  0.9244572E-01
         -2   -1    0    0    0  501 -0.00000000000E+00  0.00000000000E+00  0.19333768954E+04  0.19333768954E+04  0.25500000000E-02 0.  1.
          2   -1    0    0  501    0  0.00000000000E+00 -0.00000000000E+00 -0.12559458774E+04  0.12559458774E+04  0.25500000000E-02 0. -1.
    8880023    1    1    2    0    0  0.95191484172E+02 -0.89458432861E+03  0.15615399644E+04  0.19187391188E+04  0.65864270000E+03 0.  1.
    8880022    1    1    2    0    0 -0.95191484172E+02  0.89458432861E+03 -0.88410894636E+03  0.12705836540E+04  0.15294330000E+03 0.  0.
<mgrwt>
<rscale>  0 0.10604983E+04</rscale>
<asrwt>0</asrwt>
<pdfrwt beam="1">  1        2 0.19322244E+00 0.11149676E+04</pdfrwt>
<pdfrwt beam="2">  1       -2 0.29744260E+00 0.11149676E+04</pdfrwt>
<totfact> 0.57066695E-01</totfact>
</mgrwt>
</event>
<event>
 4    2  0.3855935E-007  0.6811938E+03  0.7818608E-02  0.1008656E+00
          2   -1    0    0  501    0  0.00000000000E+00  0.00000000000E+00  0.27551491140E+03  0.27551491141E+03  0.25500000000E-02 0. -1.
         -2   -1    0    0    0  501 -0.00000000000E+00 -0.00000000000E+00 -0.82944708091E+03  0.82944708091E+03  0.25500000000E-02 0.  1.
    8880023    1    1    2    0    0  0.17135491449E+03 -0.29194076011E+02 -0.25615301801E+03  0.72776326899E+03  0.65864270000E+03 0.  0.
    8880022    1    1    2    0    0 -0.17135491449E+03  0.29194076011E+02 -0.29777915150E+03  0.37719872333E+03  0.15294330000E+03 0.  0.
<mgrwt>
<rscale>  0 0.52012192E+03</rscale>
<asrwt>0</asrwt>
<pdfrwt beam="1">  1        2 0.42386910E-01 0.68119381E+03</pdfrwt>
<pdfrwt beam="2">  1       -2 0.12760724E+00 0.68119381E+03</pdfrwt>
<totfact> 0.55740632E+01</totfact>
</mgrwt>
</event>
<event>
 4    2  0.3855935E-007  0.6805723E+03  0.7818608E-02  0.1009002E+00
         -2   -1    0    0    0  501 -0.00000000000E+00  0.00000000000E+00  0.38589527490E+03  0.38589527491E+03  0.25500000000E-02 0.  1.
          2   -1    0    0  501    0  0.00000000000E+00 -0.00000000000E+00 -0.12011260365E+04  0.12011260365E+04  0.25500000000E-02 0. -1.
    8880023    1    1    2    0    0  0.16819217278E+03  0.32861756603E+02  0.58994244445E+02  0.68312446097E+03  0.65864270000E+03 0.  1.
    8880022    1    1    2    0    0 -0.16819217278E+03 -0.32861756603E+02 -0.87422500608E+03  0.90389685048E+03  0.15294330000E+03 0.  0.
<mgrwt>
<rscale>  0 0.51873312E+03</rscale>
<asrwt>0</asrwt>
<pdfrwt beam="1">  1        2 0.18478862E+00 0.68057234E+03</pdfrwt>
<pdfrwt beam="2">  1       -2 0.59368504E-01 0.68057234E+03</pdfrwt>
<totfact> 0.51323349E+01</totfact>
</mgrwt>
</event>
<event>
 4    2  0.3855935E-007  0.1152077E+04  0.7818608E-02  0.9205176E-01
          2   -1    0    0  501    0  0.00000000000E+00  0.00000000000E+00  0.23892524273E+04  0.23892524273E+04  0.25500000000E-02 0. -1.
         -2   -1    0    0    0  501 -0.00000000000E+00 -0.00000000000E+00 -0.71835144468E+03  0.71835144468E+03  0.25500000000E-02 0.  1.
    8880023    1    1    2    0    0  0.61232211700E+03 -0.72009168184E+03 -0.33595858404E+02  0.11525663943E+04  0.65864270000E+03 0.  0.
    8880022    1    1    2    0    0 -0.61232211700E+03  0.72009168184E+03  0.17044968410E+04  0.19550374777E+04  0.15294330000E+03 0.  0.
<mgrwt>
<rscale>  0 0.11000161E+04</rscale>
<asrwt>0</asrwt>
<pdfrwt beam="1">  1        2 0.36757730E+00 0.11520767E+04</pdfrwt>
<pdfrwt beam="2">  1       -2 0.11051560E+00 0.11520767E+04</pdfrwt>
<totfact> 0.25834289E+00</totfact>
</mgrwt>
</event>
<event>
 4    2  0.3855935E-007  0.8911574E+03  0.7818608E-02  0.9540379E-01
         -2   -1    0    0    0  501 -0.00000000000E+00  0.00000000000E+00  0.59482743534E+03  0.59482743534E+03  0.25500000000E-02 0.  1.
          2   -1    0    0  501    0  0.00000000000E+00 -0.00000000000E+00 -0.19068472689E+04  0.19068472689E+04  0.25500000000E-02 0. -1.
    8880023    1    1    2    0    0  0.91959052598E+02 -0.59320724906E+03  0.15928294623E+03  0.90528038249E+03  0.65864270000E+03 0.  0.
    8880022    1    1    2    0    0 -0.91959052598E+02  0.59320724906E+03 -0.14713027798E+04  0.15963943218E+04  0.15294330000E+03 0.  0.
<mgrwt>
<rscale>  0 0.81371227E+03</rscale>
<asrwt>0</asrwt>
<pdfrwt beam="1">  1        2 0.29336112E+00 0.89115740E+03</pdfrwt>
<pdfrwt beam="2">  1       -2 0.91511914E-01 0.89115740E+03</pdfrwt>
<totfact> 0.77550578E+00</totfact>
</mgrwt>
</event>
<event>
 4    2  0.3855935E-007  0.6998930E+03  0.7818608E-02  0.9997645E-01
         -2   -1    0    0    0  501 -0.00000000000E+00  0.00000000000E+00  0.69159451950E+03  0.69159451950E+03  0.25500000000E-02 0.  1.
          2   -1    0    0  501    0  0.00000000000E+00 -0.00000000000E+00 -0.86415499236E+03  0.86415499236E+03  0.25500000000E-02 0. -1.
    8880023    1    1    2    0    0  0.69245415089E+02 -0.22637369147E+03  0.47747205413E+03  0.84724833694E+03  0.65864270000E+03 0.  1.
    8880022    1    1    2    0    0 -0.69245415089E+02  0.22637369147E+03 -0.65003252699E+03  0.70850117492E+03  0.15294330000E+03 0.  0.
<mgrwt>
<rscale>  0 0.55753600E+03</rscale>
<asrwt>0</asrwt>
<pdfrwt beam="1">  1        2 0.13294692E+00 0.69989298E+03</pdfrwt>
<pdfrwt beam="2">  1       -2 0.10639916E+00 0.69989298E+03</pdfrwt>
<totfact> 0.22537964E+01</totfact>
</mgrwt>
</event>
<event>
 4    2  0.3855935E-007  0.9809487E+03  0.7818608E-02  0.9406918E-01
         -2   -1    0    0    0  501 -0.00000000000E+00  0.00000000000E+00  0.32144106066E+03  0.32144106067E+03  0.25500000000E-02 0.  1.
          2   -1    0    0  501    0  0.00000000000E+00 -0.00000000000E+00 -0.39038280143E+04  0.39038280143E+04  0.25500000000E-02 0. -1.
    8880023    1    1    2    0    0 -0.13189394962E+03  0.71488046933E+03 -0.59586218104E+03  0.11477421507E+04  0.65864270000E+03 0.  0.
    8880022    1    1    2    0    0  0.13189394962E+03 -0.71488046933E+03 -0.29865247726E+04  0.30775269243E+04  0.15294330000E+03 0.  0.
<mgrwt>
<rscale>  0 0.91508520E+03</rscale>
<asrwt>0</asrwt>
<pdfrwt beam="1">  1        2 0.60058889E+00 0.98094868E+03</pdfrwt>
<pdfrwt beam="2">  1       -2 0.49452474E-01 0.98094868E+03</pdfrwt>
<totfact> 0.16663888E+00</totfact>
</mgrwt>
</event>
<event>
 4    2  0.3855935E-007  0.1367729E+04  0.7818608E-02  0.9009173E-01
          2   -1    0    0  501    0  0.00000000000E+00  0.00000000000E+00  0.22988955841E+04  0.22988955841E+04  0.25500000000E-02 0. -1.
         -2   -1    0    0    0  501 -0.00000000000E+00 -0.00000000000E+00 -0.17928801607E+04  0.17928801607E+04  0.25500000000E-02 0.  1.
    8880023    1    1    2    0    0  0.75633939482E+03  0.92995827912E+03  0.18394681872E+04  0.22922314671E+04  0.65864270000E+03 0. -1.
    8880022    1    1    2    0    0 -0.75633939482E+03 -0.92995827912E+03 -0.13334527638E+04  0.17995442777E+04  0.15294330000E+03 0.  0.
<mgrwt>
<rscale>  0 0.13260316E+04</rscale>
<asrwt>0</asrwt>
<pdfrwt beam="1">  1        2 0.35367624E+00 0.13677287E+04</pdfrwt>
<pdfrwt beam="2">  1       -2 0.27582772E+00 0.13677287E+04</pdfrwt>
<totfact> 0.19333452E-01</totfact>
</mgrwt>
</event>
<event>
 4    2  0.3855935E-007  0.6655664E+03  0.7818608E-02  0.1019063E+00
         -2   -1    0    0    0  501 -0.00000000000E+00  0.00000000000E+00  0.12731039989E+03  0.12731039991E+03  0.25500000000E-02 0.  1.
          2   -1    0    0  501    0  0.00000000000E+00 -0.00000000000E+00 -0.16012882879E+04  0.16012882879E+04  0.25500000000E-02 0. -1.
    8880023    1    1    2    0    0  0.90316703852E+02 -0.31801763246E+02 -0.85301037888E+03  0.10819451797E+04  0.65864270000E+03 0.  1.
    8880022    1    1    2    0    0 -0.90316703852E+02  0.31801763246E+02 -0.62096750914E+03  0.64665350812E+03  0.15294330000E+03 0.  0.
<mgrwt>
<rscale>  0 0.48026318E+03</rscale>
<asrwt>0</asrwt>
<pdfrwt beam="1">  1        2 0.24635203E+00 0.66556642E+03</pdfrwt>
<pdfrwt beam="2">  1       -2 0.19586217E-01 0.66556642E+03</pdfrwt>
<totfact> 0.25191342E+02</totfact>
</mgrwt>
</event>
<event>
 4    2  0.3855935E-007  0.1192471E+04  0.7818608E-02  0.9164476E-01
         -2   -1    0    0    0  501 -0.00000000000E+00  0.00000000000E+00  0.72226432405E+03  0.72226432406E+03  0.25500000000E-02 0.  1.
          2   -1    0    0  501    0  0.00000000000E+00 -0.00000000000E+00 -0.22513538789E+04  0.22513538789E+04  0.25500000000E-02 0. -1.
    8880023    1    1    2    0    0  0.77738869312E+03  0.61955102514E+03 -0.60971464152E+02  0.11940286339E+04  0.65864270000E+03 0.  1.
    8880022    1    1    2    0    0 -0.77738869312E+03 -0.61955102514E+03 -0.14681180907E+04  0.17795895690E+04  0.15294330000E+03 0.  0.
<mgrwt>
<rscale>  0 0.11427737E+04</rscale>
<asrwt>0</asrwt>
<pdfrwt beam="1">  1        2 0.34636213E+00 0.11924709E+04</pdfrwt>
<pdfrwt beam="2">  1       -2 0.11111759E+00 0.11924709E+04</pdfrwt>
<totfact> 0.30353623E+00</totfact>
</mgrwt>
</event>
<event>
 4    2  0.3855935E-007  0.6667826E+03  0.7818608E-02  0.1018083E+00
         -2   -1    0    0    0  501 -0.00000000000E+00  0.00000000000E+00  0.59918376033E+03  0.59918376034E+03  0.25500000000E-02 0.  1.
          2   -1    0    0  501    0  0.00000000000E+00 -0.00000000000E+00 -0.10694427380E+04  0.10694427380E+04  0.25500000000E-02 0. -1.
    8880023    1    1    2    0    0  0.10380825075E+03 -0.35559647050E+01  0.40092862464E+03  0.77803776652E+03  0.65864270000E+03 0.  1.
    8880022    1    1    2    0    0 -0.10380825075E+03  0.35559647050E+01 -0.87118760227E+03  0.89058873178E+03  0.15294330000E+03 0.  0.
<mgrwt>
<rscale>  0 0.48384962E+03</rscale>
<asrwt>0</asrwt>
<pdfrwt beam="1">  1        2 0.16452965E+00 0.66678258E+03</pdfrwt>
<pdfrwt beam="2">  1       -2 0.92182117E-01 0.66678258E+03</pdfrwt>
<totfact> 0.23360802E+01</totfact>
</mgrwt>
</event>
<event>
 4    2  0.3855935E-007  0.7769954E+03  0.7818608E-02  0.9762943E-01
          2   -1    0    0  501    0  0.00000000000E+00  0.00000000000E+00  0.18634165090E+04  0.18634165090E+04  0.25500000000E-02 0. -1.
         -2   -1    0    0    0  501 -0.00000000000E+00 -0.00000000000E+00 -0.28302605927E+03  0.28302605928E+03  0.25500000000E-02 0.  1.
    8880023    1    1    2    0    0  0.25660798157E+03  0.32258948147E+03  0.37377949503E+03  0.86222557775E+03  0.65864270000E+03 0.  1.
    8880022    1    1    2    0    0 -0.25660798157E+03 -0.32258948147E+03  0.12066109547E+04  0.12842169905E+04  0.15294330000E+03 0.  0.
<mgrwt>
<rscale>  0 0.67389733E+03</rscale>
<asrwt>0</asrwt>
<pdfrwt beam="1">  1        2 0.28667947E+00 0.77699539E+03</pdfrwt>
<pdfrwt beam="2">  1       -2 0.43542470E-01 0.77699539E+03</pdfrwt>
<totfact> 0.40801073E+01</totfact>
</mgrwt>
</event>
<event>
 4    2  0.3855935E-007  0.8787944E+03  0.7818608E-02  0.9560969E-01
          2   -1    0    0  501    0  0.00000000000E+00  0.00000000000E+00  0.27743780520E+04  0.27743780520E+04  0.25500000000E-02 0. -1.
         -2   -1    0    0    0  501 -0.00000000000E+00 -0.00000000000E+00 -0.22691462709E+03  0.22691462710E+03  0.25500000000E-02 0.  1.
    8880023    1    1    2    0    0  0.56967349927E+03  0.11807403633E+03  0.94906517385E+03  0.12934466685E+04  0.65864270000E+03 0.  1.
    8880022    1    1    2    0    0 -0.56967349927E+03 -0.11807403633E+03  0.15983982511E+04  0.17078460106E+04  0.15294330000E+03 0.  0.
<mgrwt>
<rscale>  0 0.79934301E+03</rscale>
<asrwt>0</asrwt>
<pdfrwt beam="1">  1        2 0.42682738E+00 0.87879439E+03</pdfrwt>
<pdfrwt beam="2">  1       -2 0.34909944E-01 0.87879439E+03</pdfrwt>
<totfact> 0.19059709E+01</totfact>
</mgrwt>
</event>
<event>
 4    2  0.3855935E-007  0.8019823E+03  0.7818608E-02  0.9706526E-01
          2   -1    0    0  501    0  0.00000000000E+00  0.00000000000E+00  0.71185397559E+03  0.71185397560E+03  0.25500000000E-02 0. -1.
         -2   -1    0    0    0  501 -0.00000000000E+00 -0.00000000000E+00 -0.84097220915E+03  0.84097220916E+03  0.25500000000E-02 0.  1.
    8880023    1    1    2    0    0 -0.18540491309E+03  0.41831856302E+03 -0.49931031622E+03  0.94471498354E+03  0.65864270000E+03 0.  1.
    8880022    1    1    2    0    0  0.18540491309E+03 -0.41831856302E+03  0.37019208266E+03  0.60811120122E+03  0.15294330000E+03 0.  0.
<mgrwt>
<rscale>  0 0.70629551E+03</rscale>
<asrwt>0</asrwt>
<pdfrwt beam="1">  1        2 0.10951600E+00 0.80198230E+03</pdfrwt>
<pdfrwt beam="2">  1       -2 0.12938034E+00 0.80198230E+03</pdfrwt>
<totfact> 0.17794517E+01</totfact>
</mgrwt>
</event>
<event>
 4    2  0.3855935E-007  0.1098079E+04  0.7818608E-02  0.9263198E-01
          2   -1    0    0  501    0  0.00000000000E+00  0.00000000000E+00  0.18166670493E+04  0.18166670493E+04  0.25500000000E-02 0. -1.
         -2   -1    0    0    0  501 -0.00000000000E+00 -0.00000000000E+00 -0.58363904888E+03  0.58363904888E+03  0.25500000000E-02 0.  1.
    8880023    1    1    2    0    0  0.35776668779E+03  0.80247806101E+03  0.36860060823E+03  0.11582938556E+04  0.65864270000E+03 0.  0.
    8880022    1    1    2    0    0 -0.35776668779E+03 -0.80247806101E+03  0.86442739215E+03  0.12420122425E+04  0.15294330000E+03 0.  0.
<mgrwt>
<rscale>  0 0.10424272E+04</rscale>
<asrwt>0</asrwt>
<pdfrwt beam="1">  1        2 0.27948724E+00 0.10980793E+04</pdfrwt>
<pdfrwt beam="2">  1       -2 0.89790623E-01 0.10980793E+04</pdfrwt>
<totfact> 0.88760664E+00</totfact>
</mgrwt>
</event>
<event>
 4    2  0.3855935E-007  0.7449823E+03  0.7818608E-02  0.9845665E-01
         -2   -1    0    0    0  501 -0.00000000000E+00  0.00000000000E+00  0.54275513729E+03  0.54275513730E+03  0.25500000000E-02 0.  1.
          2   -1    0    0  501    0  0.00000000000E+00 -0.00000000000E+00 -0.16630937996E+04  0.16630937996E+04  0.25500000000E-02 0. -1.
    8880023    1    1    2    0    0 -0.24736836719E+03  0.24494343060E+03  0.24837924688E+03  0.78529666358E+03  0.65864270000E+03 0.  0.
    8880022    1    1    2    0    0  0.24736836719E+03 -0.24494343060E+03 -0.13687179092E+04  0.14205522734E+04  0.15294330000E+03 0.  0.
<mgrwt>
<rscale>  0 0.62968450E+03</rscale>
<asrwt>0</asrwt>
<pdfrwt beam="1">  1        2 0.25586058E+00 0.74498228E+03</pdfrwt>
<pdfrwt beam="2">  1       -2 0.83500791E-01 0.74498228E+03</pdfrwt>
<totfact> 0.13265888E+01</totfact>
</mgrwt>
</event>
<event>
 4    2  0.3855935E-007  0.8272845E+03  0.7818608E-02  0.9654639E-01
          2   -1    0    0  501    0  0.00000000000E+00  0.00000000000E+00  0.58289242413E+03  0.58289242414E+03  0.25500000000E-02 0. -1.
         -2   -1    0    0    0  501 -0.00000000000E+00 -0.00000000000E+00 -0.97023057910E+03  0.97023057910E+03  0.25500000000E-02 0.  1.
    8880023    1    1    2    0    0  0.43803524720E+03 -0.24231087423E+03 -0.56336018820E+03  0.10008867795E+04  0.65864270000E+03 0.  1.
    8880022    1    1    2    0    0 -0.43803524720E+03  0.24231087423E+03  0.17602203323E+03  0.55223622370E+03  0.15294330000E+03 0.  0.
<mgrwt>
<rscale>  0 0.73782988E+03</rscale>
<asrwt>0</asrwt>
<pdfrwt beam="1">  1        2 0.89675758E-01 0.82728450E+03</pdfrwt>
<pdfrwt beam="2">  1       -2 0.14926624E+00 0.82728450E+03</pdfrwt>
<totfact> 0.15701474E+01</totfact>
</mgrwt>
</event>
<event>
 4    2  0.3855935E-007  0.1007214E+04  0.7818608E-02  0.9372180E-01
          2   -1    0    0  501    0  0.00000000000E+00  0.00000000000E+00  0.73461357930E+03  0.73461357931E+03  0.25500000000E-02 0. -1.
         -2   -1    0    0    0  501 -0.00000000000E+00 -0.00000000000E+00 -0.13908255243E+04  0.13908255243E+04  0.25500000000E-02 0.  1.
    8880023    1    1    2    0    0 -0.17623502423E+03  0.74135771919E+03 -0.85726370778E+03  0.13226417967E+04  0.65864270000E+03 0.  1.
    8880022    1    1    2    0    0  0.17623502423E+03 -0.74135771919E+03  0.20105176278E+03  0.80279730686E+03  0.15294330000E+03 0.  0.
<mgrwt>
<rscale>  0 0.94400982E+03</rscale>
<asrwt>0</asrwt>
<pdfrwt beam="1">  1        2 0.11301747E+00 0.10072141E+04</pdfrwt>
<pdfrwt beam="2">  1       -2 0.21397316E+00 0.10072141E+04</pdfrwt>
<totfact> 0.41320237E+00</totfact>
</mgrwt>
</event>
<event>
 4    2  0.3855935E-007  0.9464331E+03  0.7818608E-02  0.9455265E-01
         -2   -1    0    0    0  501 -0.00000000000E+00  0.00000000000E+00  0.63967600956E+03  0.63967600957E+03  0.25500000000E-02 0.  1.
          2   -1    0    0  501    0  0.00000000000E+00 -0.00000000000E+00 -0.23015871713E+04  0.23015871713E+04  0.25500000000E-02 0. -1.
    8880023    1    1    2    0    0 -0.35731096562E+03  0.57814725696E+03  0.18764770925E+03  0.96485607524E+03  0.65864270000E+03 0.  0.
    8880022    1    1    2    0    0  0.35731096562E+03 -0.57814725696E+03 -0.18495588710E+04  0.19764071056E+04  0.15294330000E+03 0.  0.
<mgrwt>
<rscale>  0 0.87663867E+03</rscale>
<asrwt>0</asrwt>
<pdfrwt beam="1">  1        2 0.35409033E+00 0.94643308E+03</pdfrwt>
<pdfrwt beam="2">  1       -2 0.98411694E-01 0.94643308E+03</pdfrwt>
<totfact> 0.39297273E+00</totfact>
</mgrwt>
</event>
<event>
 4    2  0.3855935E-007  0.7219406E+03  0.7818608E-02  0.9916074E-01
          2   -1    0    0  501    0  0.00000000000E+00  0.00000000000E+00  0.22231008166E+04  0.22231008166E+04  0.25500000000E-02 0. -1.
         -2   -1    0    0    0  501 -0.00000000000E+00 -0.00000000000E+00 -0.30125926033E+03  0.30125926034E+03  0.25500000000E-02 0.  1.
    8880023    1    1    2    0    0  0.20104502821E+03  0.21672316129E+03  0.17067128379E+03  0.74184022901E+03  0.65864270000E+03 0.  1.
    8880022    1    1    2    0    0 -0.20104502821E+03 -0.21672316129E+03  0.17511702724E+04  0.17825198479E+04  0.15294330000E+03 0.  0.
<mgrwt>
<rscale>  0 0.59488582E+03</rscale>
<asrwt>0</asrwt>
<pdfrwt beam="1">  1        2 0.34201551E+00 0.72194061E+03</pdfrwt>
<pdfrwt beam="2">  1       -2 0.46347579E-01 0.72194061E+03</pdfrwt>
<totfact> 0.23062745E+01</totfact>
</mgrwt>
</event>
<event>
 4    2  0.3855935E-007  0.7847362E+03  0.7818608E-02  0.9744827E-01
          2   -1    0    0  501    0  0.00000000000E+00  0.00000000000E+00  0.29172882479E+04  0.29172882479E+04  0.25500000000E-02 0. -1.
         -2   -1    0    0    0  501 -0.00000000000E+00 -0.00000000000E+00 -0.27493928394E+03  0.27493928395E+03  0.25500000000E-02 0.  1.
    8880023    1    1    2    0    0 -0.41391722770E+03  0.10331102129E+03  0.35655919311E+03  0.86194274924E+03  0.65864270000E+03 0.  1.
    8880022    1    1    2    0    0  0.41391722770E+03 -0.10331102129E+03  0.22857897708E+04  0.23302847826E+04  0.15294330000E+03 0.  0.
<mgrwt>
<rscale>  0 0.68409398E+03</rscale>
<asrwt>0</asrwt>
<pdfrwt beam="1">  1        2 0.44881357E+00 0.78473616E+03</pdfrwt>
<pdfrwt beam="2">  1       -2 0.42298352E-01 0.78473616E+03</pdfrwt>
<totfact> 0.10945625E+01</totfact>
</mgrwt>
</event>
<event>
 4    2  0.3855935E-007  0.1299986E+04  0.7818608E-02  0.9065572E-01
          2   -1    0    0  501    0  0.00000000000E+00  0.00000000000E+00  0.41675337041E+04  0.41675337041E+04  0.25500000000E-02 0. -1.
         -2   -1    0    0    0  501 -0.00000000000E+00 -0.00000000000E+00 -0.62260632291E+03  0.62260632291E+03  0.25500000000E-02 0.  1.
    8880023    1    1    2    0    0 -0.59549915462E+03 -0.94949213959E+03  0.34119081637E+04  0.36511754395E+04  0.65864270000E+03 0. -1.
    8880022    1    1    2    0    0  0.59549915462E+03  0.94949213959E+03  0.13301921747E+03  0.11389645875E+04  0.15294330000E+03 0.  0.
<mgrwt>
<rscale>  0 0.12555561E+04</rscale>
<asrwt>0</asrwt>
<pdfrwt beam="1">  1        2 0.64115900E+00 0.12999865E+04</pdfrwt>
<pdfrwt beam="2">  1       -2 0.95785593E-01 0.12999865E+04</pdfrwt>
<totfact> 0.22737383E-01</totfact>
</mgrwt>
</event>
<event>
 4    2  0.3855935E-007  0.1306926E+04  0.7818608E-02  0.9059602E-01
         -2   -1    0    0    0  501 -0.00000000000E+00  0.00000000000E+00  0.21182204627E+04  0.21182204627E+04  0.25500000000E-02 0.  1.
          2   -1    0    0  501    0  0.00000000000E+00 -0.00000000000E+00 -0.12599307130E+04  0.12599307130E+04  0.25500000000E-02 0. -1.
    8880023    1    1    2    0    0 -0.41856003293E+03  0.10483574263E+04 -0.67267662090E+03  0.14698808921E+04  0.65864270000E+03 0. -1.
    8880022    1    1    2    0    0  0.41856003293E+03 -0.10483574263E+04  0.15309663706E+04  0.19082702836E+04  0.15294330000E+03 0.  0.
<mgrwt>
<rscale>  0 0.12627939E+04</rscale>
<asrwt>0</asrwt>
<pdfrwt beam="1">  1        2 0.19383549E+00 0.13069262E+04</pdfrwt>
<pdfrwt beam="2">  1       -2 0.32588007E+00 0.13069262E+04</pdfrwt>
<totfact> 0.37092621E-01</totfact>
</mgrwt>
</event>
<event>
 4    2  0.3855935E-007  0.7819566E+03  0.7818608E-02  0.9751261E-01
         -2   -1    0    0    0  501 -0.00000000000E+00  0.00000000000E+00  0.32534838023E+03  0.32534838024E+03  0.25500000000E-02 0.  1.
          2   -1    0    0  501    0  0.00000000000E+00 -0.00000000000E+00 -0.13467179402E+04  0.13467179402E+04  0.25500000000E-02 0. -1.
    8880023    1    1    2    0    0  0.37350063620E+03  0.19530299537E+03 -0.92898162009E+03  0.12142746979E+04  0.65864270000E+03 0. -1.
    8880022    1    1    2    0    0 -0.37350063620E+03 -0.19530299537E+03 -0.92387939909E+02  0.45779162257E+03  0.15294330000E+03 0.  0.
<mgrwt>
<rscale>  0 0.68045072E+03</rscale>
<asrwt>0</asrwt>
<pdfrwt beam="1">  1        2 0.20718737E+00 0.78195664E+03</pdfrwt>
<pdfrwt beam="2">  1       -2 0.50053598E-01 0.78195664E+03</pdfrwt>
<totfact> 0.59572129E+01</totfact>
</mgrwt>
</event>
<event>
 4    2  0.3855935E-007  0.8516141E+03  0.7818608E-02  0.9608658E-01
          2   -1    0    0  501    0  0.00000000000E+00  0.00000000000E+00  0.35928489847E+04  0.35928489847E+04  0.25500000000E-02 0. -1.
         -2   -1    0    0    0  501 -0.00000000000E+00 -0.00000000000E+00 -0.24452864644E+03  0.24452864645E+03  0.25500000000E-02 0.  1.
    8880023    1    1    2    0    0  0.41536469863E+03  0.34483107683E+03  0.62369233029E+03  0.10555750251E+04  0.65864270000E+03 0.  1.
    8880022    1    1    2    0    0 -0.41536469863E+03 -0.34483107683E+03  0.27246280080E+04  0.27818026061E+04  0.15294330000E+03 0.  0.
<mgrwt>
<rscale>  0 0.76725774E+03</rscale>
<asrwt>0</asrwt>
<pdfrwt beam="1">  1        2 0.55274594E+00 0.85161406E+03</pdfrwt>
<pdfrwt beam="2">  1       -2 0.37619795E-01 0.85161406E+03</pdfrwt>
<totfact> 0.49637517E+00</totfact>
</mgrwt>
</event>
<event>
 4    2  0.1180718E-006  0.1480189E+04  0.7818608E-02  0.8923753E-01
          2   -1    0    0  501    0  0.00000000000E+00  0.00000000000E+00  0.35918251882E+04  0.35918251882E+04  0.25500000000E-02 0. -1.
         -2   -1    0    0    0  501 -0.00000000000E+00 -0.00000000000E+00 -0.18195702826E+04  0.18195702826E+04  0.25500000000E-02 0.  1.
    8880023    1    1    2    0    0  0.11925282745E+04 -0.57881311138E+03 -0.13578971216E+04  0.20086918884E+04  0.65864270000E+03 0.  0.
    8880022    1    1    2    0    0 -0.11925282745E+04  0.57881311138E+03  0.31301520272E+04  0.34027035824E+04  0.15294330000E+03 0. -1.
<mgrwt>
<rscale>  0 0.14423039E+04</rscale>
<asrwt>0</asrwt>
<pdfrwt beam="1">  1        2 0.55258848E+00 0.14801887E+04</pdfrwt>
<pdfrwt beam="2">  1       -2 0.27993389E+00 0.14801887E+04</pdfrwt>
<totfact> 0.28032312E-02</totfact>
</mgrwt>
</event>
<event>
 4    2  0.3855935E-007  0.7177975E+03  0.7818608E-02  0.9930110E-01
          2   -1    0    0  501    0  0.00000000000E+00  0.00000000000E+00  0.22424644529E+04  0.22424644529E+04  0.25500000000E-02 0. -1.
         -2   -1    0    0    0  501 -0.00000000000E+00 -0.00000000000E+00 -0.75554011381E+03  0.75554011381E+03  0.25500000000E-02 0.  1.
    8880023    1    1    2    0    0 -0.22207046254E+03 -0.17918653722E+03  0.21464562187E+04  0.22632957409E+04  0.65864270000E+03 0. -1.
    8880022    1    1    2    0    0  0.22207046254E+03  0.17918653722E+03 -0.65953187966E+03  0.73470882583E+03  0.15294330000E+03 0.  0.
<mgrwt>
<rscale>  0 0.58823963E+03</rscale>
<asrwt>0</asrwt>
<pdfrwt beam="1">  1        2 0.34499453E+00 0.71779754E+03</pdfrwt>
<pdfrwt beam="2">  1       -2 0.11623694E+00 0.71779754E+03</pdfrwt>
<totfact> 0.29451578E+00</totfact>
</mgrwt>
</event>
<event>
 4    2  0.3855935E-007  0.7934364E+03  0.7818608E-02  0.9725172E-01
         -2   -1    0    0    0  501 -0.00000000000E+00  0.00000000000E+00  0.29410796584E+03  0.29410796585E+03  0.25500000000E-02 0.  1.
          2   -1    0    0  501    0  0.00000000000E+00 -0.00000000000E+00 -0.39028718065E+04  0.39028718065E+04  0.25500000000E-02 0. -1.
    8880023    1    1    2    0    0  0.25227389725E+03 -0.36344056887E+03 -0.36422572828E+04  0.37276774923E+04  0.65864270000E+03 0. -1.
    8880022    1    1    2    0    0 -0.25227389725E+03  0.36344056887E+03  0.33493442173E+02  0.46930228001E+03  0.15294330000E+03 0.  0.
<mgrwt>
<rscale>  0 0.69537657E+03</rscale>
<asrwt>0</asrwt>
<pdfrwt beam="1">  1        2 0.60044178E+00 0.79343643E+03</pdfrwt>
<pdfrwt beam="2">  1       -2 0.45247382E-01 0.79343643E+03</pdfrwt>
<totfact> 0.20726470E+00</totfact>
</mgrwt>
</event>
<event>
 4    2  0.3855935E-007  0.6863426E+03  0.7818608E-02  0.1005942E+00
          2   -1    0    0  501    0  0.00000000000E+00  0.00000000000E+00  0.87844625429E+03  0.87844625430E+03  0.25500000000E-02 0. -1.
         -2   -1    0    0    0  501 -0.00000000000E+00 -0.00000000000E+00 -0.36620234756E+03  0.36620234757E+03  0.25500000000E-02 0.  1.
    8880023    1    1    2    0    0  0.10940954158E+03 -0.15901415416E+03  0.11290497753E+02  0.68643545262E+03  0.65864270000E+03 0.  0.
    8880022    1    1    2    0    0 -0.10940954158E+03  0.15901415416E+03  0.50095340898E+03  0.55821314925E+03  0.15294330000E+03 0.  0.
<mgrwt>
<rscale>  0 0.53119921E+03</rscale>
<asrwt>0</asrwt>
<pdfrwt beam="1">  1        2 0.13514558E+00 0.68634259E+03</pdfrwt>
<pdfrwt beam="2">  1       -2 0.56338824E-01 0.68634259E+03</pdfrwt>
<totfact> 0.91281658E+01</totfact>
</mgrwt>
</event>
<event>
 4    2  0.3855935E-007  0.6649474E+03  0.7818608E-02  0.1019578E+00
          2   -1    0    0  501    0  0.00000000000E+00  0.00000000000E+00  0.61286517475E+03  0.61286517476E+03  0.25500000000E-02 0. -1.
         -2   -1    0    0    0  501 -0.00000000000E+00 -0.00000000000E+00 -0.34062258119E+03  0.34062258120E+03  0.25500000000E-02 0.  1.
    8880023    1    1    2    0    0  0.66597628588E+02 -0.62526419930E+02  0.47414529801E+02  0.66663568853E+03  0.65864270000E+03 0.  1.
    8880022    1    1    2    0    0 -0.66597628588E+02  0.62526419930E+02  0.22482806376E+03  0.28685206743E+03  0.15294330000E+03 0.  0.
<mgrwt>
<rscale>  0 0.47839348E+03</rscale>
<asrwt>0</asrwt>
<pdfrwt beam="1">  1        2 0.94286950E-01 0.66494737E+03</pdfrwt>
<pdfrwt beam="2">  1       -2 0.52403474E-01 0.66494737E+03</pdfrwt>
<totfact> 0.16850955E+02</totfact>
</mgrwt>
</event>
<event>
 4    2  0.3855935E-007  0.6985468E+03  0.7818608E-02  0.1000328E+00
         -2   -1    0    0    0  501 -0.00000000000E+00  0.00000000000E+00  0.26985035150E+03  0.26985035151E+03  0.25500000000E-02 0.  1.
          2   -1    0    0  501    0  0.00000000000E+00 -0.00000000000E+00 -0.22646579694E+04  0.22646579694E+04  0.25500000000E-02 0. -1.
    8880023    1    1    2    0    0 -0.18032210374E+03  0.14711000677E+03 -0.21189297222E+03  0.72997688534E+03  0.65864270000E+03 0.  1.
    8880022    1    1    2    0    0  0.18032210374E+03 -0.14711000677E+03 -0.17829146457E+04  0.18045314356E+04  0.15294330000E+03 0.  0.
<mgrwt>
<rscale>  0 0.55506482E+03</rscale>
<asrwt>0</asrwt>
<pdfrwt beam="1">  1        2 0.34840891E+00 0.69854679E+03</pdfrwt>
<pdfrwt beam="2">  1       -2 0.41515440E-01 0.69854679E+03</pdfrwt>
<totfact> 0.27309152E+01</totfact>
</mgrwt>
</event>
<event>
 4    2  0.3855935E-007  0.9075769E+03  0.7818608E-02  0.9513976E-01
          2   -1    0    0  501    0  0.00000000000E+00  0.00000000000E+00  0.18751426197E+04  0.18751426197E+04  0.25500000000E-02 0. -1.
         -2   -1    0    0    0  501 -0.00000000000E+00 -0.00000000000E+00 -0.74608815635E+03  0.74608815635E+03  0.25500000000E-02 0.  1.
    8880023    1    1    2    0    0 -0.39124297587E+03  0.48663592973E+03 -0.37772504609E+03  0.98304222238E+03  0.65864270000E+03 0.  1.
    8880022    1    1    2    0    0  0.39124297587E+03 -0.48663592973E+03  0.15067795095E+04  0.16381885537E+04  0.15294330000E+03 0.  0.
<mgrwt>
<rscale>  0 0.83261217E+03</rscale>
<asrwt>0</asrwt>
<pdfrwt beam="1">  1        2 0.28848348E+00 0.90757688E+03</pdfrwt>
<pdfrwt beam="2">  1       -2 0.11478279E+00 0.90757688E+03</pdfrwt>
<totfact> 0.46878346E+00</totfact>
</mgrwt>
</event>
<event>
 4    2  0.3855935E-007  0.6602509E+03  0.7818608E-02  0.1023901E+00
         -2   -1    0    0    0  501 -0.00000000000E+00  0.00000000000E+00  0.19611517450E+03  0.19611517452E+03  0.25500000000E-02 0.  1.
          2   -1    0    0  501    0  0.00000000000E+00 -0.00000000000E+00 -0.16153524146E+04  0.16153524146E+04  0.25500000000E-02 0. -1.
    8880023    1    1    2    0    0  0.14057337293E+02  0.43857512637E+02 -0.38362385788E+03  0.76360890562E+03  0.65864270000E+03 0.  1.
    8880022    1    1    2    0    0 -0.14057337293E+02 -0.43857512637E+02 -0.10356133822E+04  0.10478586835E+04  0.15294330000E+03 0.  0.
<mgrwt>
<rscale>  0 0.46304843E+03</rscale>
<asrwt>0</asrwt>
<pdfrwt beam="1">  1        2 0.24851575E+00 0.66025093E+03</pdfrwt>
<pdfrwt beam="2">  1       -2 0.30171566E-01 0.66025093E+03</pdfrwt>
<totfact> 0.11400727E+02</totfact>
</mgrwt>
</event>
<event>
 4    2  0.3855935E-007  0.6727243E+03  0.7818608E-02  0.1013781E+00
          2   -1    0    0  501    0  0.00000000000E+00  0.00000000000E+00  0.17181326258E+04  0.17181326258E+04  0.25500000000E-02 0. -1.
         -2   -1    0    0    0  501 -0.00000000000E+00 -0.00000000000E+00 -0.15547868174E+03  0.15547868176E+03  0.25500000000E-02 0.  1.
    8880023    1    1    2    0    0  0.13093399038E+03  0.40051286118E+02  0.64044459750E+03  0.92883114940E+03  0.65864270000E+03 0.  1.
    8880022    1    1    2    0    0 -0.13093399038E+03 -0.40051286118E+02  0.92220934656E+03  0.94478015816E+03  0.15294330000E+03 0.  0.
<mgrwt>
<rscale>  0 0.49999307E+03</rscale>
<asrwt>0</asrwt>
<pdfrwt beam="1">  1        2 0.26432810E+00 0.67272433E+03</pdfrwt>
<pdfrwt beam="2">  1       -2 0.23919797E-01 0.67272433E+03</pdfrwt>
<totfact> 0.15270714E+02</totfact>
</mgrwt>
</event>
<event>
 4    2  0.3855935E-007  0.6971042E+03  0.7818608E-02  0.1000943E+00
          2   -1    0    0  501    0  0.00000000000E+00  0.00000000000E+00  0.13365790320E+04  0.13365790320E+04  0.25500000000E-02 0. -1.
         -2   -1    0    0    0  501 -0.00000000000E+00 -0.00000000000E+00 -0.26668550193E+03  0.26668550194E+03  0.25500000000E-02 0.  1.
    8880023    1    1    2    0    0 -0.19081046803E+03  0.12544118475E+03  0.25336037229E+03  0.74171814731E+03  0.65864270000E+03 0.  1.
    8880022    1    1    2    0    0  0.19081046803E+03 -0.12544118475E+03  0.81653315775E+03  0.86154638660E+03  0.15294330000E+03 0.  0.
<mgrwt>
<rscale>  0 0.55238565E+03</rscale>
<asrwt>0</asrwt>
<pdfrwt beam="1">  1        2 0.20562755E+00 0.69710425E+03</pdfrwt>
<pdfrwt beam="2">  1       -2 0.41028538E-01 0.69710425E+03</pdfrwt>
<totfact> 0.90501416E+01</totfact>
</mgrwt>
</event>
<event>
 4    2  0.3855935E-007  0.9844791E+03  0.7818608E-02  0.9402151E-01
          2   -1    0    0  501    0  0.00000000000E+00  0.00000000000E+00  0.22454835989E+04  0.22454835989E+04  0.25500000000E-02 0. -1.
         -2   -1    0    0    0  501 -0.00000000000E+00 -0.00000000000E+00 -0.39893687647E+03  0.39893687648E+03  0.25500000000E-02 0.  1.
    8880023    1    1    2    0    0 -0.64306379578E+03 -0.34908147337E+03  0.49969810351E+03  0.11040368297E+04  0.65864270000E+03 0.  1.
    8880022    1    1    2    0    0  0.64306379578E+03  0.34908147337E+03  0.13468486189E+04  0.15403836456E+04  0.15294330000E+03 0.  0.
<mgrwt>
<rscale>  0 0.91898843E+03</rscale>
<asrwt>0</asrwt>
<pdfrwt beam="1">  1        2 0.34545902E+00 0.98447911E+03</pdfrwt>
<pdfrwt beam="2">  1       -2 0.61374903E-01 0.98447911E+03</pdfrwt>
<totfact> 0.12123141E+01</totfact>
</mgrwt>
</event>
<event>
 4    2  0.3855935E-007  0.8167257E+03  0.7818608E-02  0.9675734E-01
         -2   -1    0    0    0  501 -0.00000000000E+00  0.00000000000E+00  0.34747845358E+03  0.34747845359E+03  0.25500000000E-02 0.  1.
          2   -1    0    0  501    0  0.00000000000E+00 -0.00000000000E+00 -0.20130502401E+04  0.20130502401E+04  0.25500000000E-02 0. -1.
    8880023    1    1    2    0    0 -0.34211300825E+03 -0.34086558044E+03 -0.24552883925E+03  0.85283367166E+03  0.65864270000E+03 0.  1.
    8880022    1    1    2    0    0  0.34211300825E+03  0.34086558044E+03 -0.14200429473E+04  0.15076950220E+04  0.15294330000E+03 0.  0.
<mgrwt>
<rscale>  0 0.72480130E+03</rscale>
<asrwt>0</asrwt>
<pdfrwt beam="1">  1        2 0.30970003E+00 0.81672569E+03</pdfrwt>
<pdfrwt beam="2">  1       -2 0.53458225E-01 0.81672569E+03</pdfrwt>
<totfact> 0.22210497E+01</totfact>
</mgrwt>
</event>
<event>
 4    2  0.3855935E-007  0.9611928E+03  0.7818608E-02  0.9434190E-01
         -2   -1    0    0    0  501 -0.00000000000E+00  0.00000000000E+00  0.12509363166E+04  0.12509363166E+04  0.25500000000E-02 0.  1.
          2   -1    0    0  501    0  0.00000000000E+00 -0.00000000000E+00 -0.64183538068E+03  0.64183538068E+03  0.25500000000E-02 0. -1.
    8880023    1    1    2    0    0  0.63863562710E+03 -0.28675059918E+03  0.13973196980E+02  0.96129434973E+03  0.65864270000E+03 0.  1.
    8880022    1    1    2    0    0 -0.63863562710E+03  0.28675059918E+03  0.59512773895E+03  0.93147734755E+03  0.15294330000E+03 0. -1.
<mgrwt>
<rscale>  0 0.89314626E+03</rscale>
<asrwt>0</asrwt>
<pdfrwt beam="1">  1        2 0.98743905E-01 0.96119279E+03</pdfrwt>
<pdfrwt beam="2">  1       -2 0.19245174E+00 0.96119279E+03</pdfrwt>
<totfact> 0.67964067E+00</totfact>
</mgrwt>
</event>
<event>
 4    2  0.3855935E-007  0.9493012E+03  0.7818608E-02  0.9451120E-01
         -2   -1    0    0    0  501 -0.00000000000E+00  0.00000000000E+00  0.72717159841E+03  0.72717159841E+03  0.25500000000E-02 0.  1.
          2   -1    0    0  501    0  0.00000000000E+00 -0.00000000000E+00 -0.11633950229E+04  0.11633950229E+04  0.25500000000E-02 0. -1.
    8880023    1    1    2    0    0  0.40644620790E+03 -0.54969453264E+03  0.16968686899E+03  0.96434767533E+03  0.65864270000E+03 0.  1.
    8880022    1    1    2    0    0 -0.40644620790E+03  0.54969453264E+03 -0.60591029345E+03  0.92621894596E+03  0.15294330000E+03 0.  0.
<mgrwt>
<rscale>  0 0.87985486E+03</rscale>
<asrwt>0</asrwt>
<pdfrwt beam="1">  1        2 0.17898385E+00 0.94930122E+03</pdfrwt>
<pdfrwt beam="2">  1       -2 0.11187255E+00 0.94930122E+03</pdfrwt>
<totfact> 0.12538733E+01</totfact>
</mgrwt>
</event>
<event>
 4    2  0.3855935E-007  0.7722598E+03  0.7818608E-02  0.9774343E-01
         -2   -1    0    0    0  501 -0.00000000000E+00  0.00000000000E+00  0.18528413165E+03  0.18528413167E+03  0.25500000000E-02 0.  1.
          2   -1    0    0  501    0  0.00000000000E+00 -0.00000000000E+00 -0.42484447702E+04  0.42484447702E+04  0.25500000000E-02 0. -1.
    8880023    1    1    2    0    0  0.39708850173E+03  0.69969875534E+02 -0.69770860875E+03  0.10407605732E+04  0.65864270000E+03 0.  1.
    8880022    1    1    2    0    0 -0.39708850173E+03 -0.69969875534E+02 -0.33654520298E+04  0.33929683287E+04  0.15294330000E+03 0.  0.
<mgrwt>
<rscale>  0 0.66757796E+03</rscale>
<asrwt>0</asrwt>
<pdfrwt beam="1">  1        2 0.65360682E+00 0.77225984E+03</pdfrwt>
<pdfrwt beam="2">  1       -2 0.28505254E-01 0.77225984E+03</pdfrwt>
<totfact> 0.26479411E+00</totfact>
</mgrwt>
</event>
<event>
 4    2  0.3855935E-007  0.7956076E+03  0.7818608E-02  0.9720375E-01
          2   -1    0    0  501    0  0.00000000000E+00  0.00000000000E+00  0.25104417420E+04  0.25104417420E+04  0.25500000000E-02 0. -1.
         -2   -1    0    0    0  501 -0.00000000000E+00 -0.00000000000E+00 -0.28551405600E+03  0.28551405601E+03  0.25500000000E-02 0.  1.
    8880023    1    1    2    0    0  0.30761458036E+03 -0.32334884940E+03  0.36176991870E+03  0.87399593180E+03  0.65864270000E+03 0.  1.
    8880022    1    1    2    0    0 -0.30761458036E+03  0.32334884940E+03  0.18631577673E+04  0.19219598662E+04  0.15294330000E+03 0.  0.
<mgrwt>
<rscale>  0 0.69816522E+03</rscale>
<asrwt>0</asrwt>
<pdfrwt beam="1">  1        2 0.38622181E+00 0.79560758E+03</pdfrwt>
<pdfrwt beam="2">  1       -2 0.43925240E-01 0.79560758E+03</pdfrwt>
<totfact> 0.17538938E+01</totfact>
</mgrwt>
</event>
<event>
 4    2  0.3855935E-007  0.7140577E+03  0.7818608E-02  0.9943231E-01
         -2   -1    0    0    0  501 -0.00000000000E+00  0.00000000000E+00  0.67242875022E+03  0.67242875023E+03  0.25500000000E-02 0.  1.
          2   -1    0    0  501    0  0.00000000000E+00 -0.00000000000E+00 -0.13269361809E+04  0.13269361809E+04  0.25500000000E-02 0. -1.
    8880023    1    1    2    0    0 -0.17279667221E+03  0.21496401869E+03  0.45446958606E+03  0.84641658193E+03  0.65864270000E+03 0.  1.
    8880022    1    1    2    0    0  0.17279667221E+03 -0.21496401869E+03 -0.11089770167E+04  0.11529483492E+04  0.15294330000E+03 0. -1.
<mgrwt>
<rscale>  0 0.58211123E+03</rscale>
<asrwt>0</asrwt>
<pdfrwt beam="1">  1        2 0.20414403E+00 0.71405772E+03</pdfrwt>
<pdfrwt beam="2">  1       -2 0.10345058E+00 0.71405772E+03</pdfrwt>
<totfact> 0.12465016E+01</totfact>
</mgrwt>
</event>
<event>
 4    2  0.3855935E-007  0.7549185E+03  0.7818608E-02  0.9818445E-01
         -2   -1    0    0    0  501 -0.00000000000E+00  0.00000000000E+00  0.13738760670E+03  0.13738760673E+03  0.25500000000E-02 0.  1.
          2   -1    0    0  501    0  0.00000000000E+00 -0.00000000000E+00 -0.24489884768E+04  0.24489884768E+04  0.25500000000E-02 0. -1.
    8880023    1    1    2    0    0 -0.25498687689E+03  0.26659599834E+03 -0.13849876953E+04  0.15773689664E+04  0.65864270000E+03 0.  1.
    8880022    1    1    2    0    0  0.25498687689E+03 -0.26659599834E+03 -0.92661317475E+03  0.10090071171E+04  0.15294330000E+03 0. -1.
<mgrwt>
<rscale>  0 0.64382003E+03</rscale>
<asrwt>0</asrwt>
<pdfrwt beam="1">  1        2 0.37676742E+00 0.75491850E+03</pdfrwt>
<pdfrwt beam="2">  1       -2 0.21136557E-01 0.75491850E+03</pdfrwt>
<totfact> 0.74808253E+01</totfact>
</mgrwt>
</event>
<event>
 4    2  0.3855935E-007  0.9720956E+03  0.7818608E-02  0.9419012E-01
          2   -1    0    0  501    0  0.00000000000E+00  0.00000000000E+00  0.14294462900E+04  0.14294462900E+04  0.25500000000E-02 0. -1.
         -2   -1    0    0    0  501 -0.00000000000E+00 -0.00000000000E+00 -0.83139247389E+03  0.83139247390E+03  0.25500000000E-02 0.  1.
    8880023    1    1    2    0    0 -0.10519380657E+03 -0.70717312361E+03  0.10262375130E+04  0.14135533959E+04  0.65864270000E+03 0. -1.
    8880022    1    1    2    0    0  0.10519380657E+03  0.70717312361E+03 -0.42818369682E+03  0.84728536807E+03  0.15294330000E+03 0.  0.
<mgrwt>
<rscale>  0 0.90527470E+03</rscale>
<asrwt>0</asrwt>
<pdfrwt beam="1">  1        2 0.21991481E+00 0.97209556E+03</pdfrwt>
<pdfrwt beam="2">  1       -2 0.12790654E+00 0.97209556E+03</pdfrwt>
<totfact> 0.62746877E+00</totfact>
</mgrwt>
</event>
<event>
 4    2  0.3855935E-007  0.8054263E+03  0.7818608E-02  0.9699184E-01
          2   -1    0    0  501    0  0.00000000000E+00  0.00000000000E+00  0.93103963532E+03  0.93103963532E+03  0.25500000000E-02 0. -1.
         -2   -1    0    0    0  501 -0.00000000000E+00 -0.00000000000E+00 -0.67931755941E+03  0.67931755941E+03  0.25500000000E-02 0.  1.
    8880023    1    1    2    0    0  0.46330220420E+03 -0.15885651505E+02 -0.31281179857E+03  0.86403860674E+03  0.65864270000E+03 0.  0.
    8880022    1    1    2    0    0 -0.46330220420E+03  0.15885651505E+02  0.56453387448E+03  0.74631858800E+03  0.15294330000E+03 0.  0.
<mgrwt>
<rscale>  0 0.71065406E+03</rscale>
<asrwt>0</asrwt>
<pdfrwt beam="1">  1        2 0.14323687E+00 0.80542628E+03</pdfrwt>
<pdfrwt beam="2">  1       -2 0.10451039E+00 0.80542628E+03</pdfrwt>
<totfact> 0.20988369E+01</totfact>
</mgrwt>
</event>
<event>
 4    2  0.3855935E-007  0.6751798E+03  0.7818608E-02  0.1012193E+00
         -2   -1    0    0    0  501 -0.00000000000E+00  0.00000000000E+00  0.72241357602E+03  0.72241357603E+03  0.25500000000E-02 0.  1.
          2   -1    0    0  501    0  0.00000000000E+00 -0.00000000000E+00 -0.92299472469E+03  0.92299472469E+03  0.25500000000E-02 0. -1.
    8880023    1    1    2    0    0  0.70646205735E+02  0.13063955399E+03  0.54641679423E+03  0.86858453747E+03  0.65864270000E+03 0.  1.
    8880022    1    1    2    0    0 -0.70646205735E+02 -0.13063955399E+03 -0.74699794290E+03  0.77682376325E+03  0.15294330000E+03 0.  0.
<mgrwt>
<rscale>  0 0.50612222E+03</rscale>
<asrwt>0</asrwt>
<pdfrwt beam="1">  1        2 0.14199919E+00 0.67517982E+03</pdfrwt>
<pdfrwt beam="2">  1       -2 0.11114055E+00 0.67517982E+03</pdfrwt>
<totfact> 0.18568065E+01</totfact>
</mgrwt>
</event>
<event>
 4    2  0.3855935E-007  0.6700078E+03  0.7818608E-02  0.1015657E+00
         -2   -1    0    0    0  501 -0.00000000000E+00  0.00000000000E+00  0.91703047206E+03  0.91703047206E+03  0.25500000000E-02 0.  1.
          2   -1    0    0  501    0  0.00000000000E+00 -0.00000000000E+00 -0.15048414261E+04  0.15048414261E+04  0.25500000000E-02 0. -1.
    8880023    1    1    2    0    0  0.83925331820E+02 -0.89759308823E+02  0.78674677460E+03  0.10333832244E+04  0.65864270000E+03 0.  1.
    8880022    1    1    2    0    0 -0.83925331820E+02  0.89759308823E+02 -0.13745577287E+04  0.13884886738E+04  0.15294330000E+03 0.  0.
<mgrwt>
<rscale>  0 0.49286840E+03</rscale>
<asrwt>0</asrwt>
<pdfrwt beam="1">  1        2 0.23151407E+00 0.67000776E+03</pdfrwt>
<pdfrwt beam="2">  1       -2 0.14108161E+00 0.67000776E+03</pdfrwt>
<totfact> 0.46161171E+00</totfact>
</mgrwt>
</event>
<event>
 4    2  0.3855935E-007  0.1207141E+04  0.7818608E-02  0.9150212E-01
         -2   -1    0    0    0  501 -0.00000000000E+00  0.00000000000E+00  0.12021901658E+04  0.12021901658E+04  0.25500000000E-02 0.  1.
          2   -1    0    0  501    0  0.00000000000E+00 -0.00000000000E+00 -0.13131082036E+04  0.13131082036E+04  0.25500000000E-02 0. -1.
    8880023    1    1    2    0    0  0.96620571567E+03 -0.29970898578E+03  0.51881540981E+03  0.13139096608E+04  0.65864270000E+03 0.  0.
    8880022    1    1    2    0    0 -0.96620571567E+03  0.29970898578E+03 -0.62973344756E+03  0.12013887086E+04  0.15294330000E+03 0.  0.
<mgrwt>
<rscale>  0 0.11582436E+04</rscale>
<asrwt>0</asrwt>
<pdfrwt beam="1">  1        2 0.20201665E+00 0.12071409E+04</pdfrwt>
<pdfrwt beam="2">  1       -2 0.18495233E+00 0.12071409E+04</pdfrwt>
<totfact> 0.26419773E+00</totfact>
</mgrwt>
</event>
<event>
 4    2  0.3855935E-007  0.6623641E+03  0.7818608E-02  0.1021855E+00
          2   -1    0    0  501    0  0.00000000000E+00  0.00000000000E+00  0.15854928845E+04  0.15854928845E+04  0.25500000000E-02 0. -1.
         -2   -1    0    0    0  501 -0.00000000000E+00 -0.00000000000E+00 -0.38879486627E+03  0.38879486627E+03  0.25500000000E-02 0.  1.
    8880023    1    1    2    0    0  0.21248190906E+02 -0.66816916193E+02 -0.97234017209E+02  0.66946295362E+03  0.65864270000E+03 0.  1.
    8880022    1    1    2    0    0 -0.21248190906E+02  0.66816916193E+02  0.12939320354E+04  0.13048247971E+04  0.15294330000E+03 0.  0.
<mgrwt>
<rscale>  0 0.47023023E+03</rscale>
<asrwt>0</asrwt>
<pdfrwt beam="1">  1        2 0.24392198E+00 0.66236409E+03</pdfrwt>
<pdfrwt beam="2">  1       -2 0.59814595E-01 0.66236409E+03</pdfrwt>
<totfact> 0.30687458E+01</totfact>
</mgrwt>
</event>
<event>
 4    2  0.3855935E-007  0.7699179E+03  0.7818608E-02  0.9780076E-01
          2   -1    0    0  501    0  0.00000000000E+00  0.00000000000E+00  0.17200112135E+04  0.17200112135E+04  0.25500000000E-02 0. -1.
         -2   -1    0    0    0  501 -0.00000000000E+00 -0.00000000000E+00 -0.26898916503E+03  0.26898916504E+03  0.25500000000E-02 0.  1.
    8880023    1    1    2    0    0  0.13967312883E+03  0.37343644120E+03  0.42904234543E+03  0.88139145615E+03  0.65864270000E+03 0.  1.
    8880022    1    1    2    0    0 -0.13967312883E+03 -0.37343644120E+03  0.10219797030E+04  0.11076089224E+04  0.15294330000E+03 0.  0.
<mgrwt>
<rscale>  0 0.66442815E+03</rscale>
<asrwt>0</asrwt>
<pdfrwt beam="1">  1        2 0.26461712E+00 0.76991789E+03</pdfrwt>
<pdfrwt beam="2">  1       -2 0.41382947E-01 0.76991789E+03</pdfrwt>
<totfact> 0.54065663E+01</totfact>
</mgrwt>
</event>
<event>
 4    2  0.3855935E-007  0.6659826E+03  0.7818608E-02  0.1018723E+00
         -2   -1    0    0    0  501 -0.00000000000E+00  0.00000000000E+00  0.81818467148E+03  0.81818467149E+03  0.25500000000E-02 0.  1.
          2   -1    0    0  501    0  0.00000000000E+00 -0.00000000000E+00 -0.88219813527E+03  0.88219813528E+03  0.25500000000E-02 0. -1.
    8880023    1    1    2    0    0 -0.77901876777E+02  0.60447186285E+02  0.66967979051E+03  0.94445952418E+03  0.65864270000E+03 0.  1.
    8880022    1    1    2    0    0  0.77901876777E+02 -0.60447186285E+02 -0.73369325430E+03  0.75592328258E+03  0.15294330000E+03 0.  0.
<mgrwt>
<rscale>  0 0.48150295E+03</rscale>
<asrwt>0</asrwt>
<pdfrwt beam="1">  1        2 0.13572279E+00 0.66598256E+03</pdfrwt>
<pdfrwt beam="2">  1       -2 0.12587456E+00 0.66598256E+03</pdfrwt>
<totfact> 0.14568669E+01</totfact>
</mgrwt>
</event>
<event>
 4    2  0.3855935E-007  0.6719136E+03  0.7818608E-02  0.1014327E+00
          2   -1    0    0  501    0  0.00000000000E+00  0.00000000000E+00  0.29358324676E+04  0.29358324676E+04  0.25500000000E-02 0. -1.
         -2   -1    0    0    0  501 -0.00000000000E+00 -0.00000000000E+00 -0.67681924177E+02  0.67681924225E+02  0.25500000000E-02 0.  1.
    8880023    1    1    2    0    0  0.85339803531E+02  0.10185643495E+03  0.19264185469E+04  0.20402343589E+04  0.65864270000E+03 0.  0.
    8880022    1    1    2    0    0 -0.85339803531E+02 -0.10185643495E+03  0.94173199655E+03  0.96328003288E+03  0.15294330000E+03 0.  1.
<mgrwt>
<rscale>  0 0.49790700E+03</rscale>
<asrwt>0</asrwt>
<pdfrwt beam="1">  1        2 0.45166635E+00 0.67191355E+03</pdfrwt>
<pdfrwt beam="2">  1       -2 0.10412608E-01 0.67191355E+03</pdfrwt>
<totfact> 0.13044308E+02</totfact>
</mgrwt>
</event>
<event>
 4    2  0.3855935E-007  0.7285272E+03  0.7818608E-02  0.9894723E-01
          2   -1    0    0  501    0  0.00000000000E+00  0.00000000000E+00  0.28954215593E+03  0.28954215594E+03  0.25500000000E-02 0. -1.
         -2   -1    0    0    0  501 -0.00000000000E+00 -0.00000000000E+00 -0.15240861677E+04  0.15240861677E+04  0.25500000000E-02 0.  1.
    8880023    1    1    2    0    0  0.55083593961E+02 -0.30644320906E+03 -0.12708333222E+04  0.14648444224E+04  0.65864270000E+03 0.  1.
    8880022    1    1    2    0    0 -0.55083593961E+02  0.30644320906E+03  0.36289310442E+02  0.34878390125E+03  0.15294330000E+03 0.  0.
<mgrwt>
<rscale>  0 0.60517718E+03</rscale>
<asrwt>0</asrwt>
<pdfrwt beam="1">  1        2 0.44544948E-01 0.72852718E+03</pdfrwt>
<pdfrwt beam="2">  1       -2 0.23447479E+00 0.72852718E+03</pdfrwt>
<totfact> 0.93957741E+00</totfact>
</mgrwt>
</event>
<event>
 4    2  0.3855935E-007  0.1511464E+04  0.7818608E-02  0.8901583E-01
         -2   -1    0    0    0  501 -0.00000000000E+00  0.00000000000E+00  0.11560534286E+04  0.11560534286E+04  0.25500000000E-02 0.  1.
          2   -1    0    0  501    0  0.00000000000E+00 -0.00000000000E+00 -0.24671276119E+04  0.24671276119E+04  0.25500000000E-02 0. -1.
    8880023    1    1    2    0    0  0.12342917024E+04 -0.57204756849E+03  0.26613302233E+03  0.15347154196E+04  0.65864270000E+03 0.  0.
    8880022    1    1    2    0    0 -0.12342917024E+04  0.57204756849E+03 -0.15772072056E+04  0.20884656209E+04  0.15294330000E+03 0.  0.
<mgrwt>
<rscale>  0 0.14745100E+04</rscale>
<asrwt>0</asrwt>
<pdfrwt beam="1">  1        2 0.37955809E+00 0.15114644E+04</pdfrwt>
<pdfrwt beam="2">  1       -2 0.17785437E+00 0.15114644E+04</pdfrwt>
<totfact> 0.64173134E-01</totfact>
</mgrwt>
</event>
<event>
 4    2  0.3855935E-007  0.7030222E+03  0.7818608E-02  0.9984888E-01
          2   -1    0    0  501    0  0.00000000000E+00  0.00000000000E+00  0.64839913667E+03  0.64839913668E+03  0.25500000000E-02 0. -1.
         -2   -1    0    0    0  501 -0.00000000000E+00 -0.00000000000E+00 -0.50688501642E+03  0.50688501643E+03  0.25500000000E-02 0.  1.
    8880023    1    1    2    0    0 -0.18260475130E+03 -0.16457656538E+03 -0.17688755931E+03  0.72493403560E+03  0.65864270000E+03 0.  1.
    8880022    1    1    2    0    0  0.18260475130E+03  0.16457656538E+03  0.31840167956E+03  0.43035011750E+03  0.15294330000E+03 0.  0.
<mgrwt>
<rscale>  0 0.56317873E+03</rscale>
<asrwt>0</asrwt>
<pdfrwt beam="1">  1        2 0.99753713E-01 0.70302215E+03</pdfrwt>
<pdfrwt beam="2">  1       -2 0.77982311E-01 0.70302215E+03</pdfrwt>
<totfact> 0.67050033E+01</totfact>
</mgrwt>
</event>
<event>
 4    2  0.3855935E-007  0.7171384E+03  0.7818608E-02  0.9932390E-01
          2   -1    0    0  501    0  0.00000000000E+00  0.00000000000E+00  0.10926188329E+04  0.10926188329E+04  0.25500000000E-02 0. -1.
         -2   -1    0    0    0  501 -0.00000000000E+00 -0.00000000000E+00 -0.38596910146E+03  0.38596910147E+03  0.25500000000E-02 0.  1.
    8880023    1    1    2    0    0  0.17958368085E+02  0.28311608229E+03  0.16990277906E+02  0.71733959520E+03  0.65864270000E+03 0.  0.
    8880022    1    1    2    0    0 -0.17958368085E+02 -0.28311608229E+03  0.68965945351E+03  0.76124833916E+03  0.15294330000E+03 0. -1.
<mgrwt>
<rscale>  0 0.58716869E+03</rscale>
<asrwt>0</asrwt>
<pdfrwt beam="1">  1        2 0.16809520E+00 0.71713836E+03</pdfrwt>
<pdfrwt beam="2">  1       -2 0.59379863E-01 0.71713836E+03</pdfrwt>
<totfact> 0.59397345E+01</totfact>
</mgrwt>
</event>
<event>
 4    2  0.3855935E-007  0.6640169E+03  0.7818608E-02  0.1020373E+00
         -2   -1    0    0    0  501 -0.00000000000E+00  0.00000000000E+00  0.58168652731E+03  0.58168652732E+03  0.25500000000E-02 0.  1.
          2   -1    0    0  501    0  0.00000000000E+00 -0.00000000000E+00 -0.14214139158E+04  0.14214139158E+04  0.25500000000E-02 0. -1.
    8880023    1    1    2    0    0  0.63964540416E+02  0.54925191024E+02  0.38394518086E+03  0.76702825711E+03  0.65864270000E+03 0.  1.
    8880022    1    1    2    0    0 -0.63964540416E+02 -0.54925191024E+02 -0.12236725693E+04  0.12360721860E+04  0.15294330000E+03 0.  0.
<mgrwt>
<rscale>  0 0.47552312E+03</rscale>
<asrwt>0</asrwt>
<pdfrwt beam="1">  1        2 0.21867906E+00 0.66401690E+03</pdfrwt>
<pdfrwt beam="2">  1       -2 0.89490235E-01 0.66401690E+03</pdfrwt>
<totfact> 0.15584916E+01</totfact>
</mgrwt>
</event>
<event>
 4    2  0.3855935E-007  0.8247350E+03  0.7818608E-02  0.9659665E-01
         -2   -1    0    0    0  501 -0.00000000000E+00  0.00000000000E+00  0.97385716151E+03  0.97385716151E+03  0.25500000000E-02 0.  1.
          2   -1    0    0  501    0  0.00000000000E+00 -0.00000000000E+00 -0.60460729443E+03  0.60460729443E+03  0.25500000000E-02 0. -1.
    8880023    1    1    2    0    0 -0.15963175647E+03 -0.46999494447E+03  0.59006303058E+03  0.10140819157E+04  0.65864270000E+03 0.  0.
    8880022    1    1    2    0    0  0.15963175647E+03  0.46999494447E+03 -0.22081316350E+03  0.56438254021E+03  0.15294330000E+03 0.  0.
<mgrwt>
<rscale>  0 0.73469968E+03</rscale>
<asrwt>0</asrwt>
<pdfrwt beam="1">  1        2 0.93016508E-01 0.82473496E+03</pdfrwt>
<pdfrwt beam="2">  1       -2 0.14982418E+00 0.82473496E+03</pdfrwt>
<totfact> 0.14878669E+01</totfact>
</mgrwt>
</event>
<event>
 4    2  0.3855935E-007  0.7080707E+03  0.7818608E-02  0.9965236E-01
         -2   -1    0    0    0  501 -0.00000000000E+00  0.00000000000E+00  0.20945962268E+03  0.20945962270E+03  0.25500000000E-02 0.  1.
          2   -1    0    0  501    0  0.00000000000E+00 -0.00000000000E+00 -0.17166211470E+04  0.17166211470E+04  0.25500000000E-02 0. -1.
    8880023    1    1    2    0    0  0.31144127003E+02 -0.25803862280E+03 -0.47966926829E+03  0.85524657305E+03  0.65864270000E+03 0.  1.
    8880022    1    1    2    0    0 -0.31144127003E+02  0.25803862280E+03 -0.10274922560E+04  0.10708341966E+04  0.15294330000E+03 0.  0.
<mgrwt>
<rscale>  0 0.57201200E+03</rscale>
<asrwt>0</asrwt>
<pdfrwt beam="1">  1        2 0.26409555E+00 0.70807068E+03</pdfrwt>
<pdfrwt beam="2">  1       -2 0.32224558E-01 0.70807068E+03</pdfrwt>
<totfact> 0.88319291E+01</totfact>
</mgrwt>
</event>
<event>
 4    2  0.3855935E-007  0.6915588E+03  0.7818608E-02  0.1003420E+00
          2   -1    0    0  501    0  0.00000000000E+00  0.00000000000E+00  0.11510720586E+04  0.11510720586E+04  0.25500000000E-02 0. -1.
         -2   -1    0    0    0  501 -0.00000000000E+00 -0.00000000000E+00 -0.34838287457E+03  0.34838287458E+03  0.25500000000E-02 0.  1.
    8880023    1    1    2    0    0  0.49705087662E+02 -0.20487247526E+03  0.39093427575E+02  0.69266285392E+03  0.65864270000E+03 0.  1.
    8880022    1    1    2    0    0 -0.49705087662E+02  0.20487247526E+03  0.76359575642E+03  0.80679207922E+03  0.15294330000E+03 0.  0.
<mgrwt>
<rscale>  0 0.54175575E+03</rscale>
<asrwt>0</asrwt>
<pdfrwt beam="1">  1        2 0.17708801E+00 0.69155877E+03</pdfrwt>
<pdfrwt beam="2">  1       -2 0.53597366E-01 0.69155877E+03</pdfrwt>
<totfact> 0.67937073E+01</totfact>
</mgrwt>
</event>
<event>
 4    2  0.3855935E-007  0.6666512E+03  0.7818608E-02  0.1018187E+00
         -2   -1    0    0    0  501 -0.00000000000E+00  0.00000000000E+00  0.18815861260E+03  0.18815861262E+03  0.25500000000E-02 0.  1.
          2   -1    0    0  501    0  0.00000000000E+00 -0.00000000000E+00 -0.18201602407E+04  0.18201602407E+04  0.25500000000E-02 0. -1.
    8880023    1    1    2    0    0 -0.95765553733E+02 -0.37980592594E+02 -0.43234668794E+03  0.79457374203E+03  0.65864270000E+03 0.  0.
    8880022    1    1    2    0    0  0.95765553733E+02  0.37980592594E+02 -0.11996549401E+04  0.12137451113E+04  0.15294330000E+03 0. -1.
<mgrwt>
<rscale>  0 0.48346738E+03</rscale>
<asrwt>0</asrwt>
<pdfrwt beam="1">  1        2 0.28002464E+00 0.66665116E+03</pdfrwt>
<pdfrwt beam="2">  1       -2 0.28947480E-01 0.66665116E+03</pdfrwt>
<totfact> 0.95119456E+01</totfact>
</mgrwt>
</event>
<event>
 4    2  0.3855935E-007  0.7797274E+03  0.7818608E-02  0.9756478E-01
         -2   -1    0    0    0  501 -0.00000000000E+00  0.00000000000E+00  0.10848828769E+04  0.10848828770E+04  0.25500000000E-02 0.  1.
          2   -1    0    0  501    0  0.00000000000E+00 -0.00000000000E+00 -0.41018606835E+03  0.41018606836E+03  0.25500000000E-02 0. -1.
    8880023    1    1    2    0    0 -0.24033670628E+03 -0.34117871078E+03  0.70279015872E+03  0.10497089399E+04  0.65864270000E+03 0.  1.
    8880022    1    1    2    0    0  0.24033670628E+03  0.34117871078E+03 -0.28093350119E+02  0.44536000540E+03  0.15294330000E+03 0.  0.
<mgrwt>
<rscale>  0 0.67751430E+03</rscale>
<asrwt>0</asrwt>
<pdfrwt beam="1">  1        2 0.63105550E-01 0.77972742E+03</pdfrwt>
<pdfrwt beam="2">  1       -2 0.16690506E+00 0.77972742E+03</pdfrwt>
<totfact> 0.17540148E+01</totfact>
</mgrwt>
</event>
<event>
 4    2  0.3855935E-007  0.7579495E+03  0.7818608E-02  0.9810445E-01
          2   -1    0    0  501    0  0.00000000000E+00  0.00000000000E+00  0.18996509937E+04  0.18996509937E+04  0.25500000000E-02 0. -1.
         -2   -1    0    0    0  501 -0.00000000000E+00 -0.00000000000E+00 -0.20180424701E+03  0.20180424703E+03  0.25500000000E-02 0.  1.
    8880023    1    1    2    0    0 -0.22965854209E+02 -0.37436592174E+03  0.73025333412E+03  0.10525005521E+04  0.65864270000E+03 0.  0.
    8880022    1    1    2    0    0  0.22965854209E+02  0.37436592174E+03  0.96759341255E+03  0.10489546887E+04  0.15294330000E+03 0.  0.
<mgrwt>
<rscale>  0 0.64804999E+03</rscale>
<asrwt>0</asrwt>
<pdfrwt beam="1">  1        2 0.29225400E+00 0.75794952E+03</pdfrwt>
<pdfrwt beam="2">  1       -2 0.31046808E-01 0.75794952E+03</pdfrwt>
<totfact> 0.74860850E+01</totfact>
</mgrwt>
</event>
<event>
 4    2  0.3855935E-007  0.1157195E+04  0.7818608E-02  0.9199898E-01
         -2   -1    0    0    0  501 -0.00000000000E+00  0.00000000000E+00  0.62646702898E+03  0.62646702899E+03  0.25500000000E-02 0.  1.
          2   -1    0    0  501    0  0.00000000000E+00 -0.00000000000E+00 -0.19763217478E+04  0.19763217478E+04  0.25500000000E-02 0. -1.
    8880023    1    1    2    0    0 -0.64636239901E+03  0.69821563484E+03 -0.11235218824E+04  0.16128859384E+04  0.65864270000E+03 0. -1.
    8880022    1    1    2    0    0  0.64636239901E+03 -0.69821563484E+03 -0.22633283633E+03  0.98990283837E+03  0.15294330000E+03 0.  0.
<mgrwt>
<rscale>  0 0.11054476E+04</rscale>
<asrwt>0</asrwt>
<pdfrwt beam="1">  1        2 0.30404950E+00 0.11571947E+04</pdfrwt>
<pdfrwt beam="2">  1       -2 0.96379544E-01 0.11571947E+04</pdfrwt>
<totfact> 0.61030218E+00</totfact>
</mgrwt>
</event>
<event>
 4    2  0.3855935E-007  0.7155020E+03  0.7818608E-02  0.9938110E-01
         -2   -1    0    0    0  501 -0.00000000000E+00  0.00000000000E+00  0.21684219150E+03  0.21684219151E+03  0.25500000000E-02 0.  1.
          2   -1    0    0  501    0  0.00000000000E+00 -0.00000000000E+00 -0.22505520105E+04  0.22505520105E+04  0.25500000000E-02 0. -1.
    8880023    1    1    2    0    0  0.16325289909E+03  0.22689521029E+03 -0.43525220650E+03  0.83748888652E+03  0.65864270000E+03 0.  0.
    8880022    1    1    2    0    0 -0.16325289909E+03 -0.22689521029E+03 -0.15984576125E+04  0.16299053155E+04  0.15294330000E+03 0.  0.
<mgrwt>
<rscale>  0 0.58449333E+03</rscale>
<asrwt>0</asrwt>
<pdfrwt beam="1">  1        2 0.34623875E+00 0.71550203E+03</pdfrwt>
<pdfrwt beam="2">  1       -2 0.33360339E-01 0.71550203E+03</pdfrwt>
<totfact> 0.42241399E+01</totfact>
</mgrwt>
</event>
<event>
 4    2  0.3855935E-007  0.8620618E+03  0.7818608E-02  0.9589906E-01
          2   -1    0    0  501    0  0.00000000000E+00  0.00000000000E+00  0.10170489730E+04  0.10170489730E+04  0.25500000000E-02 0. -1.
         -2   -1    0    0    0  501 -0.00000000000E+00 -0.00000000000E+00 -0.78741709477E+03  0.78741709477E+03  0.25500000000E-02 0.  1.
    8880023    1    1    2    0    0 -0.55275845189E+03 -0.61631770135E+02 -0.40018143801E+03  0.95041873446E+03  0.65864270000E+03 0.  1.
    8880022    1    1    2    0    0  0.55275845189E+03  0.61631770135E+02  0.62981331629E+03  0.85404733336E+03  0.15294330000E+03 0.  0.
<mgrwt>
<rscale>  0 0.77967864E+03</rscale>
<asrwt>0</asrwt>
<pdfrwt beam="1">  1        2 0.15646907E+00 0.86206182E+03</pdfrwt>
<pdfrwt beam="2">  1       -2 0.12114109E+00 0.86206182E+03</pdfrwt>
<totfact> 0.12804224E+01</totfact>
</mgrwt>
</event>
<event>
 4    2  0.3855935E-007  0.1174319E+04  0.7818608E-02  0.9182499E-01
          2   -1    0    0  501    0  0.00000000000E+00  0.00000000000E+00  0.21905346932E+04  0.21905346932E+04  0.25500000000E-02 0. -1.
         -2   -1    0    0    0  501 -0.00000000000E+00 -0.00000000000E+00 -0.11991031180E+04  0.11991031180E+04  0.25500000000E-02 0.  1.
    8880023    1    1    2    0    0  0.58054612773E+03 -0.77985987165E+03  0.17772855534E+04  0.21302040678E+04  0.65864270000E+03 0.  0.
    8880022    1    1    2    0    0 -0.58054612773E+03  0.77985987165E+03 -0.78585397821E+03  0.12594337434E+04  0.15294330000E+03 0.  0.
<mgrwt>
<rscale>  0 0.11235905E+04</rscale>
<asrwt>0</asrwt>
<pdfrwt beam="1">  1        2 0.33700533E+00 0.11743191E+04</pdfrwt>
<pdfrwt beam="2">  1       -2 0.18447740E+00 0.11743191E+04</pdfrwt>
<totfact> 0.86205536E-01</totfact>
</mgrwt>
</event>
<event>
 4    2  0.3855935E-007  0.1575395E+04  0.7818608E-02  0.8858153E-01
          2   -1    0    0  501    0  0.00000000000E+00  0.00000000000E+00  0.31778868996E+04  0.31778868996E+04  0.25500000000E-02 0. -1.
         -2   -1    0    0    0  501 -0.00000000000E+00 -0.00000000000E+00 -0.91355180395E+03  0.91355180395E+03  0.25500000000E-02 0.  1.
    8880023    1    1    2    0    0 -0.13297994135E+04 -0.52886057524E+03  0.21911009638E+03  0.15905594704E+04  0.65864270000E+03 0.  0.
    8880022    1    1    2    0    0  0.13297994135E+04  0.52886057524E+03  0.20452249993E+04  0.25008792332E+04  0.15294330000E+03 0.  0.
<mgrwt>
<rscale>  0 0.15401978E+04</rscale>
<asrwt>0</asrwt>
<pdfrwt beam="1">  1        2 0.48890568E+00 0.15753953E+04</pdfrwt>
<pdfrwt beam="2">  1       -2 0.14054643E+00 0.15753953E+04</pdfrwt>
<totfact> 0.44929995E-01</totfact>
</mgrwt>
</event>
<event>
 4    2  0.3855935E-007  0.6972996E+03  0.7818608E-02  0.1000859E+00
          2   -1    0    0  501    0  0.00000000000E+00  0.00000000000E+00  0.32018788729E+04  0.32018788729E+04  0.25500000000E-02 0. -1.
         -2   -1    0    0    0  501 -0.00000000000E+00 -0.00000000000E+00 -0.24270360594E+03  0.24270360595E+03  0.25500000000E-02 0.  1.
    8880023    1    1    2    0    0  0.11322955525E+03 -0.19898629129E+03  0.28019250529E+03  0.75148820522E+03  0.65864270000E+03 0.  0.
    8880022    1    1    2    0    0 -0.11322955525E+03  0.19898629129E+03  0.26789827616E+04  0.26930942736E+04  0.15294330000E+03 0.  0.
<mgrwt>
<rscale>  0 0.55275034E+03</rscale>
<asrwt>0</asrwt>
<pdfrwt beam="1">  1        2 0.49259674E+00 0.69729956E+03</pdfrwt>
<pdfrwt beam="2">  1       -2 0.37339017E-01 0.69729956E+03</pdfrwt>
<totfact> 0.94527240E+00</totfact>
</mgrwt>
</event>
<event>
 4    2  0.3855935E-007  0.6942593E+03  0.7818608E-02  0.1002190E+00
         -2   -1    0    0    0  501 -0.00000000000E+00  0.00000000000E+00  0.26729017889E+03  0.26729017890E+03  0.25500000000E-02 0.  1.
          2   -1    0    0  501    0  0.00000000000E+00 -0.00000000000E+00 -0.15827110502E+04  0.15827110502E+04  0.25500000000E-02 0. -1.
    8880023    1    1    2    0    0 -0.20116982219E+03 -0.87843057943E+02 -0.22889137873E+03  0.73101789972E+03  0.65864270000E+03 0.  1.
    8880022    1    1    2    0    0  0.20116982219E+03  0.87843057943E+02 -0.10865294926E+04  0.11189833294E+04  0.15294330000E+03 0.  0.
<mgrwt>
<rscale>  0 0.54700111E+03</rscale>
<asrwt>0</asrwt>
<pdfrwt beam="1">  1        2 0.24349400E+00 0.69425925E+03</pdfrwt>
<pdfrwt beam="2">  1       -2 0.41121567E-01 0.69425925E+03</pdfrwt>
<totfact> 0.65645922E+01</totfact>
</mgrwt>
</event>
<event>
 4    2  0.3855935E-007  0.6763780E+03  0.7818608E-02  0.1011451E+00
         -2   -1    0    0    0  501 -0.00000000000E+00  0.00000000000E+00  0.68368522620E+03  0.68368522621E+03  0.25500000000E-02 0.  1.
          2   -1    0    0  501    0  0.00000000000E+00 -0.00000000000E+00 -0.98472486053E+03  0.98472486053E+03  0.25500000000E-02 0. -1.
    8880023    1    1    2    0    0  0.10383623679E+03  0.11355612567E+03  0.49832456277E+03  0.84012768903E+03  0.65864270000E+03 0.  1.
    8880022    1    1    2    0    0 -0.10383623679E+03 -0.11355612567E+03 -0.79936419709E+03  0.82828239771E+03  0.15294330000E+03 0.  0.
<mgrwt>
<rscale>  0 0.50901844E+03</rscale>
<asrwt>0</asrwt>
<pdfrwt beam="1">  1        2 0.15149613E+00 0.67637797E+03</pdfrwt>
<pdfrwt beam="2">  1       -2 0.10518234E+00 0.67637797E+03</pdfrwt>
<totfact> 0.19328398E+01</totfact>
</mgrwt>
</event>
<event>
 4    2  0.3855935E-007  0.9615857E+03  0.7818608E-02  0.9433637E-01
         -2   -1    0    0    0  501 -0.00000000000E+00  0.00000000000E+00  0.76967612327E+03  0.76967612328E+03  0.25500000000E-02 0.  1.
          2   -1    0    0  501    0  0.00000000000E+00 -0.00000000000E+00 -0.12155411687E+04  0.12155411687E+04  0.25500000000E-02 0. -1.
    8880023    1    1    2    0    0  0.33782202043E+03  0.61376956299E+03  0.24197218133E+03  0.99156317839E+03  0.65864270000E+03 0.  0.
    8880022    1    1    2    0    0 -0.33782202043E+03 -0.61376956299E+03 -0.68783722676E+03  0.99365411360E+03  0.15294330000E+03 0.  0.
<mgrwt>
<rscale>  0 0.89358424E+03</rscale>
<asrwt>0</asrwt>
<pdfrwt beam="1">  1        2 0.18700633E+00 0.96158567E+03</pdfrwt>
<pdfrwt beam="2">  1       -2 0.11841171E+00 0.96158567E+03</pdfrwt>
<totfact> 0.10140237E+01</totfact>
</mgrwt>
</event>
<event>
 4    2  0.3855935E-007  0.7879108E+03  0.7818608E-02  0.9737572E-01
         -2   -1    0    0    0  501 -0.00000000000E+00  0.00000000000E+00  0.45258414191E+03  0.45258414192E+03  0.25500000000E-02 0.  1.
          2   -1    0    0  501    0  0.00000000000E+00 -0.00000000000E+00 -0.23081748720E+04  0.23081748720E+04  0.25500000000E-02 0. -1.
    8880023    1    1    2    0    0 -0.42121160324E+03 -0.97846641120E+02  0.60789152130E+02  0.79025230602E+03  0.65864270000E+03 0.  0.
    8880022    1    1    2    0    0  0.42121160324E+03  0.97846641120E+02 -0.19163798822E+04  0.19705067079E+04  0.15294330000E+03 0.  0.
<mgrwt>
<rscale>  0 0.68823156E+03</rscale>
<asrwt>0</asrwt>
<pdfrwt beam="1">  1        2 0.35510382E+00 0.78791077E+03</pdfrwt>
<pdfrwt beam="2">  1       -2 0.69628331E-01 0.78791077E+03</pdfrwt>
<totfact> 0.87498857E+00</totfact>
</mgrwt>
</event>
<event>
 4    2  0.3855935E-007  0.7179039E+03  0.7818608E-02  0.9929743E-01
          2   -1    0    0  501    0  0.00000000000E+00  0.00000000000E+00  0.94209660388E+03  0.94209660388E+03  0.25500000000E-02 0. -1.
         -2   -1    0    0    0  501 -0.00000000000E+00 -0.00000000000E+00 -0.29087167450E+03  0.29087167452E+03  0.25500000000E-02 0.  1.
    8880023    1    1    2    0    0 -0.28505157710E+03 -0.17926367230E+02  0.39141274879E+03  0.81767346932E+03  0.65864270000E+03 0.  0.
    8880022    1    1    2    0    0  0.28505157710E+03  0.17926367230E+02  0.25981218059E+03  0.41529480908E+03  0.15294330000E+03 0.  1.
<mgrwt>
<rscale>  0 0.58841201E+03</rscale>
<asrwt>0</asrwt>
<pdfrwt beam="1">  1        2 0.14493794E+00 0.71790387E+03</pdfrwt>
<pdfrwt beam="2">  1       -2 0.44749488E-01 0.71790387E+03</pdfrwt>
<totfact> 0.13197981E+02</totfact>
</mgrwt>
</event>
<event>
 4    2  0.3855935E-007  0.9490614E+03  0.7818608E-02  0.9451466E-01
         -2   -1    0    0    0  501 -0.00000000000E+00  0.00000000000E+00  0.46785433694E+03  0.46785433695E+03  0.25500000000E-02 0.  1.
          2   -1    0    0  501    0  0.00000000000E+00 -0.00000000000E+00 -0.15569882517E+04  0.15569882517E+04  0.25500000000E-02 0. -1.
    8880023    1    1    2    0    0  0.33911267090E+03 -0.59322000176E+03 -0.36304791898E+03  0.10161305880E+04  0.65864270000E+03 0.  0.
    8880022    1    1    2    0    0 -0.33911267090E+03  0.59322000176E+03 -0.72608599580E+03  0.10087120007E+04  0.15294330000E+03 0.  0.
<mgrwt>
<rscale>  0 0.87958612E+03</rscale>
<asrwt>0</asrwt>
<pdfrwt beam="1">  1        2 0.23953665E+00 0.94906142E+03</pdfrwt>
<pdfrwt beam="2">  1       -2 0.71977591E-01 0.94906142E+03</pdfrwt>
<totfact> 0.20677179E+01</totfact>
</mgrwt>
</event>
<event>
 4    2  0.3855935E-007  0.7724286E+03  0.7818608E-02  0.9773932E-01
          2   -1    0    0  501    0  0.00000000000E+00  0.00000000000E+00  0.54349162677E+03  0.54349162678E+03  0.25500000000E-02 0. -1.
         -2   -1    0    0    0  501 -0.00000000000E+00 -0.00000000000E+00 -0.10213577890E+04  0.10213577890E+04  0.25500000000E-02 0.  1.
    8880023    1    1    2    0    0 -0.35717825892E+03 -0.18777506035E+03 -0.73188528910E+03  0.10640968305E+04  0.65864270000E+03 0.  1.
    8880022    1    1    2    0    0  0.35717825892E+03  0.18777506035E+03  0.25401912684E+03  0.50075258536E+03  0.15294330000E+03 0.  0.
<mgrwt>
<rscale>  0 0.66780433E+03</rscale>
<asrwt>0</asrwt>
<pdfrwt beam="1">  1        2 0.83614097E-01 0.77242863E+03</pdfrwt>
<pdfrwt beam="2">  1       -2 0.15713197E+00 0.77242863E+03</pdfrwt>
<totfact> 0.14955890E+01</totfact>
</mgrwt>
</event>
<event>
 4    2  0.3855935E-007  0.6688702E+03  0.7818608E-02  0.1016486E+00
          2   -1    0    0  501    0  0.00000000000E+00  0.00000000000E+00  0.18375150426E+04  0.18375150426E+04  0.25500000000E-02 0. -1.
         -2   -1    0    0    0  501 -0.00000000000E+00 -0.00000000000E+00 -0.11886296070E+03  0.11886296073E+03  0.25500000000E-02 0.  1.
    8880023    1    1    2    0    0 -0.76820639447E+02  0.87611315972E+02  0.93582997134E+03  0.11502891353E+04  0.65864270000E+03 0.  0.
    8880022    1    1    2    0    0  0.76820639447E+02 -0.87611315972E+02  0.78282211060E+03  0.80608886805E+03  0.15294330000E+03 0.  0.
<mgrwt>
<rscale>  0 0.48976283E+03</rscale>
<asrwt>0</asrwt>
<pdfrwt beam="1">  1        2 0.28269461E+00 0.66887021E+03</pdfrwt>
<pdfrwt beam="2">  1       -2 0.18286610E-01 0.66887021E+03</pdfrwt>
<totfact> 0.21090073E+02</totfact>
</mgrwt>
</event>
<event>
 4    2  0.3855935E-007  0.6804950E+03  0.7818608E-02  0.1009045E+00
         -2   -1    0    0    0  501 -0.00000000000E+00  0.00000000000E+00  0.14729574023E+03  0.14729574025E+03  0.25500000000E-02 0.  1.
          2   -1    0    0  501    0  0.00000000000E+00 -0.00000000000E+00 -0.14688485668E+04  0.14688485668E+04  0.25500000000E-02 0. -1.
    8880023    1    1    2    0    0  0.12376529211E+03  0.11809084127E+03 -0.82724168581E+03  0.10711686643E+04  0.65864270000E+03 0.  1.
    8880022    1    1    2    0    0 -0.12376529211E+03 -0.11809084127E+03 -0.49431114077E+03  0.54497564278E+03  0.15294330000E+03 0.  0.
<mgrwt>
<rscale>  0 0.51855953E+03</rscale>
<asrwt>0</asrwt>
<pdfrwt beam="1">  1        2 0.22597669E+00 0.68049504E+03</pdfrwt>
<pdfrwt beam="2">  1       -2 0.22660884E-01 0.68049504E+03</pdfrwt>
<totfact> 0.23043321E+02</totfact>
</mgrwt>
</event>
<event>
 4    2  0.3855935E-007  0.6884096E+03  0.7818608E-02  0.1004918E+00
          2   -1    0    0  501    0  0.00000000000E+00  0.00000000000E+00  0.10156192135E+03  0.10156192138E+03  0.25500000000E-02 0. -1.
         -2   -1    0    0    0  501 -0.00000000000E+00 -0.00000000000E+00 -0.25021402785E+04  0.25021402785E+04  0.25500000000E-02 0.  1.
    8880023    1    1    2    0    0 -0.17897739122E+03 -0.89803292055E+02 -0.21080981230E+04  0.22176531380E+04  0.65864270000E+03 0.  1.
    8880022    1    1    2    0    0  0.17897739122E+03  0.89803292055E+02 -0.29248023414E+03  0.38604906192E+03  0.15294330000E+03 0. -1.
<mgrwt>
<rscale>  0 0.53545460E+03</rscale>
<asrwt>0</asrwt>
<pdfrwt beam="1">  1        2 0.15624913E-01 0.68840958E+03</pdfrwt>
<pdfrwt beam="2">  1       -2 0.38494461E+00 0.68840958E+03</pdfrwt>
<totfact> 0.37927578E+00</totfact>
</mgrwt>
</event>
<event>
 4    2  0.3855935E-007  0.1167081E+04  0.7818608E-02  0.9189805E-01
         -2   -1    0    0    0  501 -0.00000000000E+00  0.00000000000E+00  0.18523748665E+04  0.18523748665E+04  0.25500000000E-02 0.  1.
          2   -1    0    0  501    0  0.00000000000E+00 -0.00000000000E+00 -0.97060472180E+03  0.97060472180E+03  0.25500000000E-02 0. -1.
    8880023    1    1    2    0    0 -0.77546584086E+03 -0.57176989417E+03 -0.38062422615E+03  0.12275801766E+04  0.65864270000E+03 0.  0.
    8880022    1    1    2    0    0  0.77546584086E+03  0.57176989417E+03  0.12623943708E+04  0.15953994117E+04  0.15294330000E+03 0.  0.
<mgrwt>
<rscale>  0 0.11159275E+04</rscale>
<asrwt>0</asrwt>
<pdfrwt beam="1">  1        2 0.14932380E+00 0.11670811E+04</pdfrwt>
<pdfrwt beam="2">  1       -2 0.28498075E+00 0.11670811E+04</pdfrwt>
<totfact> 0.10136106E+00</totfact>
</mgrwt>
</event>
<event>
 4    2  0.3855935E-007  0.7262440E+03  0.7818608E-02  0.9901998E-01
         -2   -1    0    0    0  501 -0.00000000000E+00  0.00000000000E+00  0.67118199478E+03  0.67118199478E+03  0.25500000000E-02 0.  1.
          2   -1    0    0  501    0  0.00000000000E+00 -0.00000000000E+00 -0.80982326954E+03  0.80982326955E+03  0.25500000000E-02 0. -1.
    8880023    1    1    2    0    0  0.27138913580E+03  0.14130857130E+03  0.41035561370E+03  0.83415952390E+03  0.65864270000E+03 0.  1.
    8880022    1    1    2    0    0 -0.27138913580E+03 -0.14130857130E+03 -0.54899688847E+03  0.64684574043E+03  0.15294330000E+03 0.  0.
<mgrwt>
<rscale>  0 0.60164547E+03</rscale>
<asrwt>0</asrwt>
<pdfrwt beam="1">  1        2 0.12458819E+00 0.72624402E+03</pdfrwt>
<pdfrwt beam="2">  1       -2 0.10325877E+00 0.72624402E+03</pdfrwt>
<totfact> 0.26361817E+01</totfact>
</mgrwt>
</event>
<event>
 4    2  0.3855935E-007  0.7509549E+03  0.7818608E-02  0.9829113E-01
         -2   -1    0    0    0  501 -0.00000000000E+00  0.00000000000E+00  0.12024515838E+03  0.12024515841E+03  0.25500000000E-02 0.  1.
          2   -1    0    0  501    0  0.00000000000E+00 -0.00000000000E+00 -0.35662089762E+04  0.35662089762E+04  0.25500000000E-02 0. -1.
    8880023    1    1    2    0    0  0.87522320272E+02  0.34994704298E+03 -0.12692949083E+04  0.14748026512E+04  0.65864270000E+03 0.  0.
    8880022    1    1    2    0    0 -0.87522320272E+02 -0.34994704298E+03 -0.21766689096E+04  0.22116514835E+04  0.15294330000E+03 0.  0.
<mgrwt>
<rscale>  0 0.63823286E+03</rscale>
<asrwt>0</asrwt>
<pdfrwt beam="1">  1        2 0.54864745E+00 0.75095492E+03</pdfrwt>
<pdfrwt beam="2">  1       -2 0.18499258E-01 0.75095492E+03</pdfrwt>
<totfact> 0.19269612E+01</totfact>
</mgrwt>
</event>
<event>
 4    2  0.3855935E-007  0.6723447E+03  0.7818608E-02  0.1014035E+00
         -2   -1    0    0    0  501 -0.00000000000E+00  0.00000000000E+00  0.29276234843E+03  0.29276234844E+03  0.25500000000E-02 0.  1.
          2   -1    0    0  501    0  0.00000000000E+00 -0.00000000000E+00 -0.14609196838E+04  0.14609196838E+04  0.25500000000E-02 0. -1.
    8880023    1    1    2    0    0  0.68715834179E+02  0.11625571131E+03 -0.11643571597E+03  0.68235235655E+03  0.65864270000E+03 0.  0.
    8880022    1    1    2    0    0 -0.68715834179E+02 -0.11625571131E+03 -0.10517216194E+04  0.10713296757E+04  0.15294330000E+03 0. -1.
<mgrwt>
<rscale>  0 0.49902051E+03</rscale>
<asrwt>0</asrwt>
<pdfrwt beam="1">  1        2 0.22475687E+00 0.67234475E+03</pdfrwt>
<pdfrwt beam="2">  1       -2 0.45040362E-01 0.67234475E+03</pdfrwt>
<totfact> 0.64219207E+01</totfact>
</mgrwt>
</event>
<event>
 4    2  0.3855935E-007  0.9051963E+03  0.7818608E-02  0.9517741E-01
          2   -1    0    0  501    0  0.00000000000E+00  0.00000000000E+00  0.13271179917E+04  0.13271179917E+04  0.25500000000E-02 0. -1.
         -2   -1    0    0    0  501 -0.00000000000E+00 -0.00000000000E+00 -0.95827482343E+03  0.95827482344E+03  0.25500000000E-02 0.  1.
    8880023    1    1    2    0    0 -0.19547243413E+03 -0.58937315475E+03 -0.62753550570E+03  0.11014450532E+04  0.65864270000E+03 0.  1.
    8880022    1    1    2    0    0  0.19547243413E+03  0.58937315475E+03  0.99637867397E+03  0.11839477619E+04  0.15294330000E+03 0.  0.
<mgrwt>
<rscale>  0 0.82988409E+03</rscale>
<asrwt>0</asrwt>
<pdfrwt beam="1">  1        2 0.20417200E+00 0.90519633E+03</pdfrwt>
<pdfrwt beam="2">  1       -2 0.14742690E+00 0.90519633E+03</pdfrwt>
<totfact> 0.50128795E+00</totfact>
</mgrwt>
</event>
<event>
 4    2  0.3855935E-007  0.6840929E+03  0.7818608E-02  0.1007097E+00
          2   -1    0    0  501    0  0.00000000000E+00  0.00000000000E+00  0.17572428289E+04  0.17572428289E+04  0.25500000000E-02 0. -1.
         -2   -1    0    0    0  501 -0.00000000000E+00 -0.00000000000E+00 -0.57638641160E+03  0.57638641161E+03  0.25500000000E-02 0.  1.
    8880023    1    1    2    0    0 -0.15503371492E+03 -0.10068451101E+03 -0.36080481772E+03  0.77341007640E+03  0.65864270000E+03 0.  1.
    8880022    1    1    2    0    0  0.15503371492E+03  0.10068451101E+03  0.15416612350E+04  0.15602191641E+04  0.15294330000E+03 0.  0.
<mgrwt>
<rscale>  0 0.52644816E+03</rscale>
<asrwt>0</asrwt>
<pdfrwt beam="1">  1        2 0.27034504E+00 0.68409285E+03</pdfrwt>
<pdfrwt beam="2">  1       -2 0.88674834E-01 0.68409285E+03</pdfrwt>
<totfact> 0.10366105E+01</totfact>
</mgrwt>
</event>
<event>
 4    2  0.3855935E-007  0.9552593E+03  0.7818608E-02  0.9442587E-01
         -2   -1    0    0    0  501 -0.00000000000E+00  0.00000000000E+00  0.20507441914E+04  0.20507441914E+04  0.25500000000E-02 0.  1.
          2   -1    0    0  501    0  0.00000000000E+00 -0.00000000000E+00 -0.92185266490E+03  0.92185266490E+03  0.25500000000E-02 0. -1.
    8880023    1    1    2    0    0  0.22856517349E+03  0.65304531151E+03  0.17736720075E+04  0.20145552397E+04  0.65864270000E+03 0.  1.
    8880022    1    1    2    0    0 -0.22856517349E+03 -0.65304531151E+03 -0.64478048100E+03  0.95804161659E+03  0.15294330000E+03 0.  0.
<mgrwt>
<rscale>  0 0.88652289E+03</rscale>
<asrwt>0</asrwt>
<pdfrwt beam="1">  1        2 0.14182349E+00 0.95525935E+03</pdfrwt>
<pdfrwt beam="2">  1       -2 0.31549910E+00 0.95525935E+03</pdfrwt>
<totfact> 0.73300545E-01</totfact>
</mgrwt>
</event>
<event>
 4    2  0.3855935E-007  0.1163136E+04  0.7818608E-02  0.9193817E-01
          2   -1    0    0  501    0  0.00000000000E+00  0.00000000000E+00  0.27349921425E+04  0.27349921425E+04  0.25500000000E-02 0. -1.
         -2   -1    0    0    0  501 -0.00000000000E+00 -0.00000000000E+00 -0.59535906073E+03  0.59535906073E+03  0.25500000000E-02 0.  1.
    8880023    1    1    2    0    0 -0.89909499227E+03 -0.33272272779E+03  0.22648287217E+03  0.11849813992E+04  0.65864270000E+03 0.  1.
    8880022    1    1    2    0    0  0.89909499227E+03  0.33272272779E+03  0.19131502096E+04  0.21453698041E+04  0.15294330000E+03 0.  0.
<mgrwt>
<rscale>  0 0.11117479E+04</rscale>
<asrwt>0</asrwt>
<pdfrwt beam="1">  1        2 0.42076802E+00 0.11631365E+04</pdfrwt>
<pdfrwt beam="2">  1       -2 0.91593702E-01 0.11631365E+04</pdfrwt>
<totfact> 0.25476645E+00</totfact>
</mgrwt>
</event>
<event>
 4    2  0.3855935E-007  0.9426652E+03  0.7818608E-02  0.9460747E-01
         -2   -1    0    0    0  501 -0.00000000000E+00  0.00000000000E+00  0.64220081079E+03  0.64220081079E+03  0.25500000000E-02 0.  1.
          2   -1    0    0  501    0  0.00000000000E+00 -0.00000000000E+00 -0.26953214070E+04  0.26953214070E+04  0.25500000000E-02 0. -1.
    8880023    1    1    2    0    0  0.66836338594E+03 -0.89987969206E+02  0.21453648271E+03  0.96676965144E+03  0.65864270000E+03 0.  0.
    8880022    1    1    2    0    0 -0.66836338594E+03  0.89987969206E+02 -0.22676570789E+04  0.23707525663E+04  0.15294330000E+03 0.  0.
<mgrwt>
<rscale>  0 0.87240711E+03</rscale>
<asrwt>0</asrwt>
<pdfrwt beam="1">  1        2 0.41466483E+00 0.94266519E+03</pdfrwt>
<pdfrwt beam="2">  1       -2 0.98800126E-01 0.94266519E+03</pdfrwt>
<totfact> 0.23204118E+00</totfact>
</mgrwt>
</event>
<event>
 4    2  0.3855935E-007  0.6601005E+03  0.7818608E-02  0.1024054E+00
          2   -1    0    0  501    0  0.00000000000E+00  0.00000000000E+00  0.10342857092E+04  0.10342857092E+04  0.25500000000E-02 0. -1.
         -2   -1    0    0    0  501 -0.00000000000E+00 -0.00000000000E+00 -0.43317909247E+03  0.43317909248E+03  0.25500000000E-02 0.  1.
    8880023    1    1    2    0    0 -0.18675793927E+01  0.43805491999E+02 -0.16875842820E+03  0.68133106662E+03  0.65864270000E+03 0.  1.
    8880022    1    1    2    0    0  0.18675793927E+01 -0.43805491999E+02  0.76986504490E+03  0.78613373503E+03  0.15294330000E+03 0.  0.
<mgrwt>
<rscale>  0 0.46251706E+03</rscale>
<asrwt>0</asrwt>
<pdfrwt beam="1">  1        2 0.15912088E+00 0.66010046E+03</pdfrwt>
<pdfrwt beam="2">  1       -2 0.66642938E-01 0.66010046E+03</pdfrwt>
<totfact> 0.50753623E+01</totfact>
</mgrwt>
</event>
<event>
 4    2  0.3855935E-007  0.2071811E+04  0.7818608E-02  0.8585435E-01
         -2   -1    0    0    0  501 -0.00000000000E+00  0.00000000000E+00  0.26865281872E+04  0.26865281872E+04  0.25500000000E-02 0.  1.
          2   -1    0    0  501    0  0.00000000000E+00 -0.00000000000E+00 -0.27803130288E+04  0.27803130288E+04  0.25500000000E-02 0. -1.
    8880023    1    1    2    0    0 -0.66969315266E+03 -0.18466463119E+04 -0.18872654635E+04  0.28025296887E+04  0.65864270000E+03 0.  0.
    8880022    1    1    2    0    0  0.66969315266E+03  0.18466463119E+04  0.17934806219E+04  0.26643115273E+04  0.15294330000E+03 0.  0.
<mgrwt>
<rscale>  0 0.20459468E+04</rscale>
<asrwt>0</asrwt>
<pdfrwt beam="1">  1        2 0.42774047E+00 0.20718112E+04</pdfrwt>
<pdfrwt beam="2">  1       -2 0.41331203E+00 0.20718112E+04</pdfrwt>
<totfact> 0.12584898E-02</totfact>
</mgrwt>
</event>
<event>
 4    2  0.3855935E-007  0.8461358E+03  0.7818608E-02  0.9618717E-01
          2   -1    0    0  501    0  0.00000000000E+00  0.00000000000E+00  0.46970112416E+04  0.46970112416E+04  0.25500000000E-02 0. -1.
         -2   -1    0    0    0  501 -0.00000000000E+00 -0.00000000000E+00 -0.53952035268E+03  0.53952035269E+03  0.25500000000E-02 0.  1.
    8880023    1    1    2    0    0 -0.34905341149E+03  0.40037146505E+03 -0.17907745179E+03  0.86487833485E+03  0.65864270000E+03 0.  0.
    8880022    1    1    2    0    0  0.34905341149E+03 -0.40037146505E+03  0.43365683407E+04  0.43716532595E+04  0.15294330000E+03 0.  0.
<mgrwt>
<rscale>  0 0.76069629E+03</rscale>
<asrwt>0</asrwt>
<pdfrwt beam="1">  1        2 0.72261712E+00 0.84613580E+03</pdfrwt>
<pdfrwt beam="2">  1       -2 0.83003131E-01 0.84613580E+03</pdfrwt>
<totfact> 0.11081054E-01</totfact>
</mgrwt>
</event>
<event>
 4    2  0.3855935E-007  0.9566579E+03  0.7818608E-02  0.9440599E-01
          2   -1    0    0  501    0  0.00000000000E+00  0.00000000000E+00  0.21791601416E+04  0.21791601416E+04  0.25500000000E-02 0. -1.
         -2   -1    0    0    0  501 -0.00000000000E+00 -0.00000000000E+00 -0.35955181137E+03  0.35955181138E+03  0.25500000000E-02 0.  1.
    8880023    1    1    2    0    0 -0.58813270711E+03 -0.36808170642E+03  0.60603553103E+03  0.11324634629E+04  0.65864270000E+03 0.  0.
    8880022    1    1    2    0    0  0.58813270711E+03  0.36808170642E+03  0.12135727992E+04  0.14062484900E+04  0.15294330000E+03 0.  0.
<mgrwt>
<rscale>  0 0.88808562E+03</rscale>
<asrwt>0</asrwt>
<pdfrwt beam="1">  1        2 0.33525540E+00 0.95665795E+03</pdfrwt>
<pdfrwt beam="2">  1       -2 0.55315665E-01 0.95665795E+03</pdfrwt>
<totfact> 0.16482461E+01</totfact>
</mgrwt>
</event>
<event>
 4    2  0.3855935E-007  0.9673891E+03  0.7818608E-02  0.9425524E-01
          2   -1    0    0  501    0  0.00000000000E+00  0.00000000000E+00  0.18903128926E+04  0.18903128926E+04  0.25500000000E-02 0. -1.
         -2   -1    0    0    0  501 -0.00000000000E+00 -0.00000000000E+00 -0.62447116468E+03  0.62447116469E+03  0.25500000000E-02 0.  1.
    8880023    1    1    2    0    0  0.11582261866E+02 -0.70844715398E+03 -0.95904947957E+02  0.97213141297E+03  0.65864270000E+03 0.  1.
    8880022    1    1    2    0    0 -0.11582261866E+02  0.70844715398E+03  0.13617466759E+04  0.15426526443E+04  0.15294330000E+03 0.  0.
<mgrwt>
<rscale>  0 0.90004569E+03</rscale>
<asrwt>0</asrwt>
<pdfrwt beam="1">  1        2 0.29081736E+00 0.96738913E+03</pdfrwt>
<pdfrwt beam="2">  1       -2 0.96072488E-01 0.96738913E+03</pdfrwt>
<totfact> 0.70021451E+00</totfact>
</mgrwt>
</event>
<event>
 4    2  0.3855935E-007  0.7055248E+03  0.7818608E-02  0.9975011E-01
          2   -1    0    0  501    0  0.00000000000E+00  0.00000000000E+00  0.73627692538E+03  0.73627692539E+03  0.25500000000E-02 0. -1.
         -2   -1    0    0    0  501 -0.00000000000E+00 -0.00000000000E+00 -0.13585916155E+04  0.13585916155E+04  0.25500000000E-02 0.  1.
    8880023    1    1    2    0    0  0.15400268327E+00  0.25289319862E+03 -0.12306489793E+04  0.14185422483E+04  0.65864270000E+03 0.  1.
    8880022    1    1    2    0    0 -0.15400268327E+00 -0.25289319862E+03  0.60833428920E+03  0.67632629260E+03  0.15294330000E+03 0.  0.
<mgrwt>
<rscale>  0 0.56759685E+03</rscale>
<asrwt>0</asrwt>
<pdfrwt beam="1">  1        2 0.11327337E+00 0.70552477E+03</pdfrwt>
<pdfrwt beam="2">  1       -2 0.20901409E+00 0.70552477E+03</pdfrwt>
<totfact> 0.45925653E+00</totfact>
</mgrwt>
</event>
<event>
 4    2  0.3855935E-007  0.7047037E+03  0.7818608E-02  0.9978221E-01
          2   -1    0    0  501    0  0.00000000000E+00  0.00000000000E+00  0.90242074301E+03  0.90242074302E+03  0.25500000000E-02 0. -1.
         -2   -1    0    0    0  501 -0.00000000000E+00 -0.00000000000E+00 -0.13494069421E+04  0.13494069421E+04  0.25500000000E-02 0.  1.
    8880023    1    1    2    0    0 -0.11259983310E+03  0.22387119665E+03 -0.12288999200E+04  0.14166164812E+04  0.65864270000E+03 0.  0.
    8880022    1    1    2    0    0  0.11259983310E+03 -0.22387119665E+03  0.78191372095E+03  0.83521120391E+03  0.15294330000E+03 0.  0.
<mgrwt>
<rscale>  0 0.56615608E+03</rscale>
<asrwt>0</asrwt>
<pdfrwt beam="1">  1        2 0.13883396E+00 0.70470365E+03</pdfrwt>
<pdfrwt beam="2">  1       -2 0.20760107E+00 0.70470365E+03</pdfrwt>
<totfact> 0.35744097E+00</totfact>
</mgrwt>
</event>
<event>
 4    2  0.3855935E-007  0.6626808E+03  0.7818608E-02  0.1021564E+00
         -2   -1    0    0    0  501 -0.00000000000E+00  0.00000000000E+00  0.86179379379E+02  0.86179379417E+02  0.25500000000E-02 0.  1.
          2   -1    0    0  501    0  0.00000000000E+00 -0.00000000000E+00 -0.25434304063E+04  0.25434304063E+04  0.25500000000E-02 0. -1.
    8880023    1    1    2    0    0  0.52430485586E+02  0.50859439303E+02 -0.12913973358E+04  0.14515002320E+04  0.65864270000E+03 0.  1.
    8880022    1    1    2    0    0 -0.52430485586E+02 -0.50859439303E+02 -0.11658536912E+04  0.11781095538E+04  0.15294330000E+03 0.  0.
<mgrwt>
<rscale>  0 0.47126493E+03</rscale>
<asrwt>0</asrwt>
<pdfrwt beam="1">  1        2 0.39129693E+00 0.66268080E+03</pdfrwt>
<pdfrwt beam="2">  1       -2 0.13258368E-01 0.66268080E+03</pdfrwt>
<totfact> 0.14867113E+02</totfact>
</mgrwt>
</event>
<event>
 4    2  0.3855935E-007  0.8062405E+03  0.7818608E-02  0.9697462E-01
         -2   -1    0    0    0  501 -0.00000000000E+00  0.00000000000E+00  0.23977052034E+03  0.23977052035E+03  0.25500000000E-02 0.  1.
          2   -1    0    0  501    0  0.00000000000E+00 -0.00000000000E+00 -0.24074312847E+04  0.24074312847E+04  0.25500000000E-02 0. -1.
    8880023    1    1    2    0    0 -0.43001234597E+03  0.17692617654E+03 -0.60028664099E+03  0.10051705066E+04  0.65864270000E+03 0.  1.
    8880022    1    1    2    0    0  0.43001234597E+03 -0.17692617654E+03 -0.15673741234E+04  0.16420312985E+04  0.15294330000E+03 0.  0.
<mgrwt>
<rscale>  0 0.71168115E+03</rscale>
<asrwt>0</asrwt>
<pdfrwt beam="1">  1        2 0.37037403E+00 0.80624047E+03</pdfrwt>
<pdfrwt beam="2">  1       -2 0.36887774E-01 0.80624047E+03</pdfrwt>
<totfact> 0.28173764E+01</totfact>
</mgrwt>
</event>
<event>
 4    2  0.3855935E-007  0.8383048E+03  0.7818608E-02  0.9633385E-01
         -2   -1    0    0    0  501 -0.00000000000E+00  0.00000000000E+00  0.59955126269E+03  0.59955126270E+03  0.25500000000E-02 0.  1.
          2   -1    0    0  501    0  0.00000000000E+00 -0.00000000000E+00 -0.17808755066E+04  0.17808755066E+04  0.25500000000E-02 0. -1.
    8880023    1    1    2    0    0 -0.50091750175E+03 -0.13426242396E+03  0.22982867211E+03  0.86923884337E+03  0.65864270000E+03 0.  1.
    8880022    1    1    2    0    0  0.50091750175E+03  0.13426242396E+03 -0.14111529160E+04  0.15111879259E+04  0.15294330000E+03 0.  0.
<mgrwt>
<rscale>  0 0.75125405E+03</rscale>
<asrwt>0</asrwt>
<pdfrwt beam="1">  1        2 0.27398084E+00 0.83830481E+03</pdfrwt>
<pdfrwt beam="2">  1       -2 0.92238657E-01 0.83830481E+03</pdfrwt>
<totfact> 0.89859461E+00</totfact>
</mgrwt>
</event>
<event>
 4    2  0.3855935E-007  0.9522610E+03  0.7818608E-02  0.9446868E-01
          2   -1    0    0  501    0  0.00000000000E+00  0.00000000000E+00  0.14164504157E+04  0.14164504157E+04  0.25500000000E-02 0. -1.
         -2   -1    0    0    0  501 -0.00000000000E+00 -0.00000000000E+00 -0.65906618496E+03  0.65906618497E+03  0.25500000000E-02 0.  1.
    8880023    1    1    2    0    0 -0.14519371925E+03 -0.67224217795E+03  0.95001509026E+03  0.13451132443E+04  0.65864270000E+03 0. -1.
    8880022    1    1    2    0    0  0.14519371925E+03  0.67224217795E+03 -0.19263085955E+03  0.73040335637E+03  0.15294330000E+03 0.  0.
<mgrwt>
<rscale>  0 0.88316945E+03</rscale>
<asrwt>0</asrwt>
<pdfrwt beam="1">  1        2 0.21791545E+00 0.95226098E+03</pdfrwt>
<pdfrwt beam="2">  1       -2 0.10139480E+00 0.95226098E+03</pdfrwt>
<totfact> 0.11312468E+01</totfact>
</mgrwt>
</event>
<event>
 4    2  0.3855935E-007  0.7990279E+03  0.7818608E-02  0.9712902E-01
          2   -1    0    0  501    0  0.00000000000E+00  0.00000000000E+00  0.20098700578E+04  0.20098700578E+04  0.25500000000E-02 0. -1.
         -2   -1    0    0    0  501 -0.00000000000E+00 -0.00000000000E+00 -0.22834378040E+03  0.22834378041E+03  0.25500000000E-02 0.  1.
    8880023    1    1    2    0    0  0.44842072356E+03 -0.59617839155E+02  0.72556836666E+03  0.10793030589E+04  0.65864270000E+03 0.  0.
    8880022    1    1    2    0    0 -0.44842072356E+03  0.59617839155E+02  0.10559579107E+04  0.11589107793E+04  0.15294330000E+03 0.  0.
<mgrwt>
<rscale>  0 0.70253793E+03</rscale>
<asrwt>0</asrwt>
<pdfrwt beam="1">  1        2 0.30921078E+00 0.79902793E+03</pdfrwt>
<pdfrwt beam="2">  1       -2 0.35129812E-01 0.79902793E+03</pdfrwt>
<totfact> 0.51389336E+01</totfact>
</mgrwt>
</event>
<event>
 4    2  0.3855935E-007  0.7818727E+03  0.7818608E-02  0.9751456E-01
          2   -1    0    0  501    0  0.00000000000E+00  0.00000000000E+00  0.11029522784E+04  0.11029522784E+04  0.25500000000E-02 0. -1.
         -2   -1    0    0    0  501 -0.00000000000E+00 -0.00000000000E+00 -0.57229431089E+03  0.57229431090E+03  0.25500000000E-02 0.  1.
    8880023    1    1    2    0    0  0.18488893994E+03 -0.37859055573E+03 -0.20994431997E+03  0.80956874492E+03  0.65864270000E+03 0.  0.
    8880022    1    1    2    0    0 -0.18488893994E+03  0.37859055573E+03  0.74060228744E+03  0.86567784433E+03  0.15294330000E+03 0.  0.
<mgrwt>
<rscale>  0 0.68034040E+03</rscale>
<asrwt>0</asrwt>
<pdfrwt beam="1">  1        2 0.16968496E+00 0.78187271E+03</pdfrwt>
<pdfrwt beam="2">  1       -2 0.88045280E-01 0.78187271E+03</pdfrwt>
<totfact> 0.24461593E+01</totfact>
</mgrwt>
</event>
<event>
 4    2  0.3855935E-007  0.8749982E+03  0.7818608E-02  0.9567422E-01
         -2   -1    0    0    0  501 -0.00000000000E+00  0.00000000000E+00  0.78313046581E+03  0.78313046581E+03  0.25500000000E-02 0.  1.
          2   -1    0    0  501    0  0.00000000000E+00 -0.00000000000E+00 -0.80330423717E+03  0.80330423717E+03  0.25500000000E-02 0. -1.
    8880023    1    1    2    0    0 -0.22090523630E+03 -0.53198926351E+03 -0.30401270285E+03  0.92630752435E+03  0.65864270000E+03 0. -1.
    8880022    1    1    2    0    0  0.22090523630E+03  0.53198926351E+03  0.28383893149E+03  0.66012717863E+03  0.15294330000E+03 0.  0.
<mgrwt>
<rscale>  0 0.79490461E+03</rscale>
<asrwt>0</asrwt>
<pdfrwt beam="1">  1        2 0.12358527E+00 0.87499823E+03</pdfrwt>
<pdfrwt beam="2">  1       -2 0.12048161E+00 0.87499823E+03</pdfrwt>
<totfact> 0.18066509E+01</totfact>
</mgrwt>
</event>
<event>
 4    2  0.3855935E-007  0.7580251E+03  0.7818608E-02  0.9810247E-01
         -2   -1    0    0    0  501 -0.00000000000E+00  0.00000000000E+00  0.10392487710E+03  0.10392487713E+03  0.25500000000E-02 0.  1.
          2   -1    0    0  501    0  0.00000000000E+00 -0.00000000000E+00 -0.34150011877E+04  0.34150011877E+04  0.25500000000E-02 0. -1.
    8880023    1    1    2    0    0  0.33896258821E+03  0.16092285427E+03 -0.17703481568E+04  0.19258075200E+04  0.65864270000E+03 0. -1.
    8880022    1    1    2    0    0 -0.33896258821E+03 -0.16092285427E+03 -0.15407281538E+04  0.15931185449E+04  0.15294330000E+03 0.  1.
<mgrwt>
<rscale>  0 0.64815496E+03</rscale>
<asrwt>0</asrwt>
<pdfrwt beam="1">  1        2 0.52538471E+00 0.75802507E+03</pdfrwt>
<pdfrwt beam="2">  1       -2 0.15988445E-01 0.75802507E+03</pdfrwt>
<totfact> 0.31342496E+01</totfact>
</mgrwt>
</event>
<event>
 4    2  0.3855935E-007  0.6590225E+03  0.7818608E-02  0.1025181E+00
          2   -1    0    0  501    0  0.00000000000E+00  0.00000000000E+00  0.11750312386E+04  0.11750312386E+04  0.25500000000E-02 0. -1.
         -2   -1    0    0    0  501 -0.00000000000E+00 -0.00000000000E+00 -0.34611821441E+03  0.34611821442E+03  0.25500000000E-02 0.  1.
    8880023    1    1    2    0    0 -0.13446785720E+02  0.17879837263E+02 -0.18966811978E+02  0.65929542001E+03  0.65864270000E+03 0.  1.
    8880022    1    1    2    0    0  0.13446785720E+02 -0.17879837263E+02  0.84787983612E+03  0.86185403297E+03  0.15294330000E+03 0.  0.
<mgrwt>
<rscale>  0 0.45862437E+03</rscale>
<asrwt>0</asrwt>
<pdfrwt beam="1">  1        2 0.18077404E+00 0.65902254E+03</pdfrwt>
<pdfrwt beam="2">  1       -2 0.53248955E-01 0.65902254E+03</pdfrwt>
<totfact> 0.66837444E+01</totfact>
</mgrwt>
</event>
<event>
 4    2  0.3855935E-007  0.7707003E+03  0.7818608E-02  0.9778154E-01
          2   -1    0    0  501    0  0.00000000000E+00  0.00000000000E+00  0.14912599100E+04  0.14912599100E+04  0.25500000000E-02 0. -1.
         -2   -1    0    0    0  501 -0.00000000000E+00 -0.00000000000E+00 -0.28257559264E+03  0.28257559265E+03  0.25500000000E-02 0.  1.
    8880023    1    1    2    0    0 -0.13239696940E+03  0.37767683753E+03  0.42356570577E+03  0.87942416642E+03  0.65864270000E+03 0.  0.
    8880022    1    1    2    0    0  0.13239696940E+03 -0.37767683753E+03  0.78511861160E+03  0.89441133625E+03  0.15294330000E+03 0.  0.
<mgrwt>
<rscale>  0 0.66548232E+03</rscale>
<asrwt>0</asrwt>
<pdfrwt beam="1">  1        2 0.22942460E+00 0.77070030E+03</pdfrwt>
<pdfrwt beam="2">  1       -2 0.43473169E-01 0.77070030E+03</pdfrwt>
<totfact> 0.65599772E+01</totfact>
</mgrwt>
</event>
<event>
 4    2  0.3855935E-007  0.1136663E+04  0.7818608E-02  0.9221294E-01
          2   -1    0    0  501    0  0.00000000000E+00  0.00000000000E+00  0.16160031433E+04  0.16160031433E+04  0.25500000000E-02 0. -1.
         -2   -1    0    0    0  501 -0.00000000000E+00 -0.00000000000E+00 -0.86267677735E+03  0.86267677736E+03  0.25500000000E-02 0.  1.
    8880023    1    1    2    0    0  0.34585124776E+03  0.85940633503E+03  0.99335791853E+03  0.15095570525E+04  0.65864270000E+03 0. -1.
    8880022    1    1    2    0    0 -0.34585124776E+03 -0.85940633503E+03 -0.24003155259E+03  0.96912286812E+03  0.15294330000E+03 0.  0.
<mgrwt>
<rscale>  0 0.10836318E+04</rscale>
<asrwt>0</asrwt>
<pdfrwt beam="1">  1        2 0.24861587E+00 0.11366629E+04</pdfrwt>
<pdfrwt beam="2">  1       -2 0.13271951E+00 0.11366629E+04</pdfrwt>
<totfact> 0.44097925E+00</totfact>
</mgrwt>
</event>
<event>
 4    2  0.3855935E-007  0.7490393E+03  0.7818608E-02  0.9834358E-01
         -2   -1    0    0    0  501 -0.00000000000E+00  0.00000000000E+00  0.38619703893E+03  0.38619703894E+03  0.25500000000E-02 0.  1.
          2   -1    0    0  501    0  0.00000000000E+00 -0.00000000000E+00 -0.17769875095E+04  0.17769875095E+04  0.25500000000E-02 0. -1.
    8880023    1    1    2    0    0  0.30967676167E+03  0.17705939707E+03 -0.31645165538E+02  0.74970750935E+03  0.65864270000E+03 0.  1.
    8880022    1    1    2    0    0 -0.30967676167E+03 -0.17705939707E+03 -0.13591453050E+04  0.14134770390E+04  0.15294330000E+03 0.  0.
<mgrwt>
<rscale>  0 0.63550871E+03</rscale>
<asrwt>0</asrwt>
<pdfrwt beam="1">  1        2 0.27338269E+00 0.74903934E+03</pdfrwt>
<pdfrwt beam="2">  1       -2 0.59414930E-01 0.74903934E+03</pdfrwt>
<totfact> 0.24178077E+01</totfact>
</mgrwt>
</event>
<event>
 4    2  0.3855935E-007  0.6920733E+03  0.7818608E-02  0.1003182E+00
         -2   -1    0    0    0  501 -0.00000000000E+00  0.00000000000E+00  0.11546119389E+04  0.11546119389E+04  0.25500000000E-02 0.  1.
          2   -1    0    0  501    0  0.00000000000E+00 -0.00000000000E+00 -0.23254425901E+03  0.23254425902E+03  0.25500000000E-02 0. -1.
    8880023    1    1    2    0    0  0.49220240702E+02  0.20671854292E+03  0.88385034738E+03  0.11225670719E+04  0.65864270000E+03 0.  0.
    8880022    1    1    2    0    0 -0.49220240702E+02 -0.20671854292E+03  0.38217332485E+02  0.26458912600E+03  0.15294330000E+03 0.  0.
<mgrwt>
<rscale>  0 0.54276581E+03</rscale>
<asrwt>0</asrwt>
<pdfrwt beam="1">  1        2 0.35776040E-01 0.69207326E+03</pdfrwt>
<pdfrwt beam="2">  1       -2 0.17763261E+00 0.69207326E+03</pdfrwt>
<totfact> 0.27977492E+01</totfact>
</mgrwt>
</event>
<event>
 4    2  0.3855935E-007  0.1241206E+04  0.7818608E-02  0.9118072E-01
          2   -1    0    0  501    0  0.00000000000E+00  0.00000000000E+00  0.18406198656E+04  0.18406198656E+04  0.25500000000E-02 0. -1.
         -2   -1    0    0    0  501 -0.00000000000E+00 -0.00000000000E+00 -0.88201172613E+03  0.88201172613E+03  0.25500000000E-02 0.  1.
    8880023    1    1    2    0    0  0.63083463554E+03  0.84191989164E+03 -0.70258499244E+02  0.12431926256E+04  0.65864270000E+03 0.  1.
    8880022    1    1    2    0    0 -0.63083463554E+03 -0.84191989164E+03  0.10288666388E+04  0.14794389662E+04  0.15294330000E+03 0.  0.
<mgrwt>
<rscale>  0 0.11940594E+04</rscale>
<asrwt>0</asrwt>
<pdfrwt beam="1">  1        2 0.28317229E+00 0.12412057E+04</pdfrwt>
<pdfrwt beam="2">  1       -2 0.13569411E+00 0.12412057E+04</pdfrwt>
<totfact> 0.30932129E+00</totfact>
</mgrwt>
</event>
<event>
 4    2  0.3855935E-007  0.7438133E+03  0.7818608E-02  0.9848975E-01
         -2   -1    0    0    0  501 -0.00000000000E+00  0.00000000000E+00  0.49974604536E+03  0.49974604536E+03  0.25500000000E-02 0.  1.
          2   -1    0    0  501    0  0.00000000000E+00 -0.00000000000E+00 -0.79811984010E+03  0.79811984010E+03  0.25500000000E-02 0. -1.
    8880023    1    1    2    0    0 -0.33016886813E+03 -0.10215932072E+03  0.97936614229E+02  0.75023316040E+03  0.65864270000E+03 0.  1.
    8880022    1    1    2    0    0  0.33016886813E+03  0.10215932072E+03 -0.39631040897E+03  0.54763272507E+03  0.15294330000E+03 0.  0.
<mgrwt>
<rscale>  0 0.62799192E+03</rscale>
<asrwt>0</asrwt>
<pdfrwt beam="1">  1        2 0.12278767E+00 0.74381329E+03</pdfrwt>
<pdfrwt beam="2">  1       -2 0.76884007E-01 0.74381329E+03</pdfrwt>
<totfact> 0.52947026E+01</totfact>
</mgrwt>
</event>
<event>
 4    2  0.3855935E-007  0.7401955E+03  0.7818608E-02  0.9859378E-01
         -2   -1    0    0    0  501 -0.00000000000E+00  0.00000000000E+00  0.29414176916E+03  0.29414176918E+03  0.25500000000E-02 0.  1.
          2   -1    0    0  501    0  0.00000000000E+00 -0.00000000000E+00 -0.11554544947E+04  0.11554544947E+04  0.25500000000E-02 0. -1.
    8880023    1    1    2    0    0  0.31428878801E+03 -0.12369999667E+03 -0.35202668904E+03  0.81964146278E+03  0.65864270000E+03 0.  1.
    8880022    1    1    2    0    0 -0.31428878801E+03  0.12369999667E+03 -0.50928603648E+03  0.62995480109E+03  0.15294330000E+03 0.  0.
<mgrwt>
<rscale>  0 0.62271040E+03</rscale>
<asrwt>0</asrwt>
<pdfrwt beam="1">  1        2 0.17776223E+00 0.74019547E+03</pdfrwt>
<pdfrwt beam="2">  1       -2 0.45252581E-01 0.74019547E+03</pdfrwt>
<totfact> 0.94778533E+01</totfact>
</mgrwt>
</event>
<event>
 4    2  0.3855935E-007  0.6639872E+03  0.7818608E-02  0.1020399E+00
         -2   -1    0    0    0  501 -0.00000000000E+00  0.00000000000E+00  0.10859181605E+04  0.10859181605E+04  0.25500000000E-02 0.  1.
          2   -1    0    0  501    0  0.00000000000E+00 -0.00000000000E+00 -0.34825808413E+03  0.34825808414E+03  0.25500000000E-02 0. -1.
    8880023    1    1    2    0    0  0.81795048469E+02  0.19449915138E+02  0.95017138025E+03  0.11591827238E+04  0.65864270000E+03 0.  1.
    8880022    1    1    2    0    0 -0.81795048469E+02 -0.19449915138E+02 -0.21251130392E+03  0.27499352076E+03  0.15294330000E+03 0.  0.
<mgrwt>
<rscale>  0 0.47543010E+03</rscale>
<asrwt>0</asrwt>
<pdfrwt beam="1">  1        2 0.53578168E-01 0.66398715E+03</pdfrwt>
<pdfrwt beam="2">  1       -2 0.16706433E+00 0.66398715E+03</pdfrwt>
<totfact> 0.21232125E+01</totfact>
</mgrwt>
</event>
<event>
 4    2  0.3855935E-007  0.6593521E+03  0.7818608E-02  0.1024830E+00
         -2   -1    0    0    0  501 -0.00000000000E+00  0.00000000000E+00  0.15458275805E+03  0.15458275807E+03  0.25500000000E-02 0.  1.
          2   -1    0    0  501    0  0.00000000000E+00 -0.00000000000E+00 -0.11523326585E+04  0.11523326585E+04  0.25500000000E-02 0. -1.
    8880023    1    1    2    0    0 -0.28362879370E+02  0.11426046177E+02 -0.65040663061E+03  0.92616089254E+03  0.65864270000E+03 0.  1.
    8880022    1    1    2    0    0  0.28362879370E+02 -0.11426046177E+02 -0.34734326987E+03  0.38075452406E+03  0.15294330000E+03 0.  0.
<mgrwt>
<rscale>  0 0.45983113E+03</rscale>
<asrwt>0</asrwt>
<pdfrwt beam="1">  1        2 0.17728194E+00 0.65935212E+03</pdfrwt>
<pdfrwt beam="2">  1       -2 0.23781964E-01 0.65935212E+03</pdfrwt>
<totfact> 0.32188164E+02</totfact>
</mgrwt>
</event>
<event>
 4    2  0.3855935E-007  0.9564585E+03  0.7818608E-02  0.9440882E-01
         -2   -1    0    0    0  501 -0.00000000000E+00  0.00000000000E+00  0.45478101738E+03  0.45478101739E+03  0.25500000000E-02 0.  1.
          2   -1    0    0  501    0  0.00000000000E+00 -0.00000000000E+00 -0.22445827509E+04  0.22445827509E+04  0.25500000000E-02 0. -1.
    8880023    1    1    2    0    0  0.63138829876E+03 -0.28696941137E+03 -0.22739933205E+03  0.98311916335E+03  0.65864270000E+03 0.  0.
    8880022    1    1    2    0    0 -0.63138829876E+03  0.28696941137E+03 -0.15624024015E+04  0.17162446050E+04  0.15294330000E+03 0.  0.
<mgrwt>
<rscale>  0 0.88786280E+03</rscale>
<asrwt>0</asrwt>
<pdfrwt beam="1">  1        2 0.34532042E+00 0.95645848E+03</pdfrwt>
<pdfrwt beam="2">  1       -2 0.69966312E-01 0.95645848E+03</pdfrwt>
<totfact> 0.91767000E+00</totfact>
</mgrwt>
</event>
<event>
 4    2  0.3855935E-007  0.9211308E+03  0.7818608E-02  0.9492927E-01
          2   -1    0    0  501    0  0.00000000000E+00  0.00000000000E+00  0.15129425713E+04  0.15129425713E+04  0.25500000000E-02 0. -1.
         -2   -1    0    0    0  501 -0.00000000000E+00 -0.00000000000E+00 -0.83110858827E+03  0.83110858827E+03  0.25500000000E-02 0.  1.
    8880023    1    1    2    0    0  0.64392545890E+03  0.56322731459E+01 -0.45592154122E+03  0.10277871264E+04  0.65864270000E+03 0.  1.
    8880022    1    1    2    0    0 -0.64392545890E+03 -0.56322731459E+01  0.11377555243E+04  0.13162640332E+04  0.15294330000E+03 0.  0.
<mgrwt>
<rscale>  0 0.84807272E+03</rscale>
<asrwt>0</asrwt>
<pdfrwt beam="1">  1        2 0.23276039E+00 0.92113079E+03</pdfrwt>
<pdfrwt beam="2">  1       -2 0.12786286E+00 0.92113079E+03</pdfrwt>
<totfact> 0.56680505E+00</totfact>
</mgrwt>
</event>
<event>
 4    2  0.3855935E-007  0.7002710E+03  0.7818608E-02  0.9996079E-01
         -2   -1    0    0    0  501 -0.00000000000E+00  0.00000000000E+00  0.13776014172E+04  0.13776014172E+04  0.25500000000E-02 0.  1.
          2   -1    0    0  501    0  0.00000000000E+00 -0.00000000000E+00 -0.11680885514E+04  0.11680885514E+04  0.25500000000E-02 0. -1.
    8880023    1    1    2    0    0  0.42034994643E+02 -0.23409890826E+03  0.12688496706E+04  0.14492615128E+04  0.65864270000E+03 0.  1.
    8880022    1    1    2    0    0 -0.42034994643E+02  0.23409890826E+03 -0.10593368048E+04  0.10964284558E+04  0.15294330000E+03 0.  0.
<mgrwt>
<rscale>  0 0.55822502E+03</rscale>
<asrwt>0</asrwt>
<pdfrwt beam="1">  1        2 0.17970593E+00 0.70027098E+03</pdfrwt>
<pdfrwt beam="2">  1       -2 0.21193868E+00 0.70027098E+03</pdfrwt>
<totfact> 0.22848566E+00</totfact>
</mgrwt>
</event>
<event>
 4    2  0.3855935E-007  0.1065246E+04  0.7818608E-02  0.9300775E-01
         -2   -1    0    0    0  501 -0.00000000000E+00  0.00000000000E+00  0.31268906070E+03  0.31268906071E+03  0.25500000000E-02 0.  1.
          2   -1    0    0  501    0  0.00000000000E+00 -0.00000000000E+00 -0.29924510164E+04  0.29924510164E+04  0.25500000000E-02 0. -1.
    8880023    1    1    2    0    0 -0.82302244100E+03  0.15353194699E+03 -0.17122809379E+04  0.20165947074E+04  0.65864270000E+03 0.  0.
    8880022    1    1    2    0    0  0.82302244100E+03 -0.15353194699E+03 -0.96748101777E+03  0.12885453698E+04  0.15294330000E+03 0.  0.
<mgrwt>
<rscale>  0 0.10071157E+04</rscale>
<asrwt>0</asrwt>
<pdfrwt beam="1">  1        2 0.46037706E+00 0.10652456E+04</pdfrwt>
<pdfrwt beam="2">  1       -2 0.48106011E-01 0.10652456E+04</pdfrwt>
<totfact> 0.73080398E+00</totfact>
</mgrwt>
</event>
<event>
 4    2  0.3855935E-007  0.7150821E+03  0.7818608E-02  0.9939592E-01
         -2   -1    0    0    0  501 -0.00000000000E+00  0.00000000000E+00  0.44523414043E+03  0.44523414044E+03  0.25500000000E-02 0.  1.
          2   -1    0    0  501    0  0.00000000000E+00 -0.00000000000E+00 -0.16550021485E+04  0.16550021485E+04  0.25500000000E-02 0. -1.
    8880023    1    1    2    0    0 -0.27070346305E+03 -0.65205839555E+02  0.12696977442E+03  0.72626695939E+03  0.65864270000E+03 0.  1.
    8880022    1    1    2    0    0  0.27070346305E+03  0.65205839555E+02 -0.13367377825E+04  0.13739693295E+04  0.15294330000E+03 0.  0.
<mgrwt>
<rscale>  0 0.58380274E+03</rscale>
<asrwt>0</asrwt>
<pdfrwt beam="1">  1        2 0.25461571E+00 0.71508207E+03</pdfrwt>
<pdfrwt beam="2">  1       -2 0.68497561E-01 0.71508207E+03</pdfrwt>
<totfact> 0.20886706E+01</totfact>
</mgrwt>
</event>
<event>
 4    2  0.3855935E-007  0.6996887E+03  0.7818608E-02  0.9998495E-01
          2   -1    0    0  501    0  0.00000000000E+00  0.00000000000E+00  0.66232390401E+03  0.66232390402E+03  0.25500000000E-02 0. -1.
         -2   -1    0    0    0  501 -0.00000000000E+00 -0.00000000000E+00 -0.95633847367E+03  0.95633847367E+03  0.25500000000E-02 0.  1.
    8880023    1    1    2    0    0  0.23528649947E+02  0.23494778743E+03 -0.78575818992E+03  0.10521312653E+04  0.65864270000E+03 0.  1.
    8880022    1    1    2    0    0 -0.23528649947E+02 -0.23494778743E+03  0.49174362026E+03  0.56653111236E+03  0.15294330000E+03 0.  0.
<mgrwt>
<rscale>  0 0.55716274E+03</rscale>
<asrwt>0</asrwt>
<pdfrwt beam="1">  1        2 0.10189599E+00 0.69968869E+03</pdfrwt>
<pdfrwt beam="2">  1       -2 0.14712900E+00 0.69968869E+03</pdfrwt>
<totfact> 0.14129167E+01</totfact>
</mgrwt>
</event>
<event>
 4    2  0.3855935E-007  0.8230734E+03  0.7818608E-02  0.9662963E-01
         -2   -1    0    0    0  501 -0.00000000000E+00  0.00000000000E+00  0.14694859252E+04  0.14694859252E+04  0.25500000000E-02 0.  1.
          2   -1    0    0  501    0  0.00000000000E+00 -0.00000000000E+00 -0.56071438765E+03  0.56071438766E+03  0.25500000000E-02 0. -1.
    8880023    1    1    2    0    0 -0.36345823711E+03 -0.33397253927E+03 -0.16418584086E+03  0.83928942786E+03  0.65864270000E+03 0. -1.
    8880022    1    1    2    0    0  0.36345823711E+03  0.33397253927E+03  0.10729573784E+04  0.11909108850E+04  0.15294330000E+03 0.  1.
<mgrwt>
<rscale>  0 0.73265440E+03</rscale>
<asrwt>0</asrwt>
<pdfrwt beam="1">  1        2 0.86263752E-01 0.82307336E+03</pdfrwt>
<pdfrwt beam="2">  1       -2 0.22607476E+00 0.82307336E+03</pdfrwt>
<totfact> 0.49434252E+00</totfact>
</mgrwt>
</event>
<event>
 4    2  0.3855935E-007  0.1036248E+04  0.7818608E-02  0.9335598E-01
         -2   -1    0    0    0  501 -0.00000000000E+00  0.00000000000E+00  0.66052431094E+03  0.66052431094E+03  0.25500000000E-02 0.  1.
          2   -1    0    0  501    0  0.00000000000E+00 -0.00000000000E+00 -0.17039208606E+04  0.17039208606E+04  0.25500000000E-02 0. -1.
    8880023    1    1    2    0    0  0.79947253024E+03 -0.29051504160E+02  0.57330201547E+01  0.10362641508E+04  0.65864270000E+03 0.  1.
    8880022    1    1    2    0    0 -0.79947253024E+03  0.29051504160E+02 -0.10491295698E+04  0.13281810207E+04  0.15294330000E+03 0.  0.
<mgrwt>
<rscale>  0 0.97570639E+03</rscale>
<asrwt>0</asrwt>
<pdfrwt beam="1">  1        2 0.26214167E+00 0.10362483E+04</pdfrwt>
<pdfrwt beam="2">  1       -2 0.10161913E+00 0.10362483E+04</pdfrwt>
<totfact> 0.77042443E+00</totfact>
</mgrwt>
</event>
<event>
 4    2  0.3855935E-007  0.1320699E+04  0.7818608E-02  0.9047888E-01
         -2   -1    0    0    0  501 -0.00000000000E+00  0.00000000000E+00  0.19259883084E+04  0.19259883084E+04  0.25500000000E-02 0.  1.
          2   -1    0    0  501    0  0.00000000000E+00 -0.00000000000E+00 -0.93168184787E+03  0.93168184787E+03  0.25500000000E-02 0. -1.
    8880023    1    1    2    0    0 -0.10596932017E+04 -0.43299701604E+03 -0.19599383411E+02  0.13208445933E+04  0.65864270000E+03 0. -1.
    8880022    1    1    2    0    0  0.10596932017E+04  0.43299701604E+03  0.10139058439E+04  0.15368255629E+04  0.15294330000E+03 0.  0.
<mgrwt>
<rscale>  0 0.12771456E+04</rscale>
<asrwt>0</asrwt>
<pdfrwt beam="1">  1        2 0.14333567E+00 0.13206992E+04</pdfrwt>
<pdfrwt beam="2">  1       -2 0.29630589E+00 0.13206992E+04</pdfrwt>
<totfact> 0.90285708E-01</totfact>
</mgrwt>
</event>
<event>
 4    2  0.5467663E-007  0.1093868E+04  0.7818608E-02  0.9267914E-01
          2   -1    0    0  501    0  0.00000000000E+00  0.00000000000E+00  0.16268707512E+04  0.16268707512E+04  0.25500000000E-02 0. -1.
         -2   -1    0    0    0  501 -0.00000000000E+00 -0.00000000000E+00 -0.18744024184E+04  0.18744024184E+04  0.25500000000E-02 0.  1.
    8880023    1    1    2    0    0 -0.85234681893E+03  0.19037501099E+03 -0.15673327933E+04  0.19113032297E+04  0.65864270000E+03 0.  1.
    8880022    1    1    2    0    0  0.85234681893E+03 -0.19037501099E+03  0.13198011261E+04  0.15899699399E+04  0.15294330000E+03 0.  0.
<mgrwt>
<rscale>  0 0.10379120E+04</rscale>
<asrwt>0</asrwt>
<pdfrwt beam="1">  1        2 0.25028781E+00 0.10938683E+04</pdfrwt>
<pdfrwt beam="2">  1       -2 0.28836960E+00 0.10938683E+04</pdfrwt>
<totfact> 0.39912546E-01</totfact>
</mgrwt>
</event>
<event>
 4    2  0.3855935E-007  0.6591583E+03  0.7818608E-02  0.1025036E+00
          2   -1    0    0  501    0  0.00000000000E+00  0.00000000000E+00  0.18925786956E+04  0.18925786956E+04  0.25500000000E-02 0. -1.
         -2   -1    0    0    0  501 -0.00000000000E+00 -0.00000000000E+00 -0.14525481476E+03  0.14525481478E+03  0.25500000000E-02 0.  1.
    8880023    1    1    2    0    0 -0.15177834562E+01 -0.26021840810E+02  0.63677623612E+03  0.91650074796E+03  0.65864270000E+03 0.  1.
    8880022    1    1    2    0    0  0.15177834562E+01  0.26021840810E+02  0.11105476448E+04  0.11213327625E+04  0.15294330000E+03 0.  0.
<mgrwt>
<rscale>  0 0.45912323E+03</rscale>
<asrwt>0</asrwt>
<pdfrwt beam="1">  1        2 0.29116593E+00 0.65915829E+03</pdfrwt>
<pdfrwt beam="2">  1       -2 0.22346896E-01 0.65915829E+03</pdfrwt>
<totfact> 0.13876921E+02</totfact>
</mgrwt>
</event>
<event>
 4    2  0.3855935E-007  0.1325351E+04  0.7818608E-02  0.9043971E-01
         -2   -1    0    0    0  501 -0.00000000000E+00  0.00000000000E+00  0.84721513978E+03  0.84721513978E+03  0.25500000000E-02 0.  1.
          2   -1    0    0  501    0  0.00000000000E+00 -0.00000000000E+00 -0.18833679134E+04  0.18833679134E+04  0.25500000000E-02 0. -1.
    8880023    1    1    2    0    0 -0.48471269039E+03 -0.10429758373E+04 -0.30761481043E+03  0.13605815181E+04  0.65864270000E+03 0.  0.
    8880022    1    1    2    0    0  0.48471269039E+03  0.10429758373E+04 -0.72853796319E+03  0.13700015351E+04  0.15294330000E+03 0.  0.
<mgrwt>
<rscale>  0 0.12819891E+04</rscale>
<asrwt>0</asrwt>
<pdfrwt beam="1">  1        2 0.28974891E+00 0.13253510E+04</pdfrwt>
<pdfrwt beam="2">  1       -2 0.13034079E+00 0.13253510E+04</pdfrwt>
<totfact> 0.32213489E+00</totfact>
</mgrwt>
</event>
<event>
 4    2  0.3855935E-007  0.8246834E+03  0.7818608E-02  0.9659767E-01
          2   -1    0    0  501    0  0.00000000000E+00  0.00000000000E+00  0.12894357830E+04  0.12894357830E+04  0.25500000000E-02 0. -1.
         -2   -1    0    0    0  501 -0.00000000000E+00 -0.00000000000E+00 -0.40749313428E+03  0.40749313429E+03  0.25500000000E-02 0.  1.
    8880023    1    1    2    0    0 -0.42241543418E+03  0.26049525030E+03  0.21611745317E+03  0.85253125121E+03  0.65864270000E+03 0.  1.
    8880022    1    1    2    0    0  0.42241543418E+03 -0.26049525030E+03  0.66582519558E+03  0.84439766612E+03  0.15294330000E+03 0. -1.
<mgrwt>
<rscale>  0 0.73463633E+03</rscale>
<asrwt>0</asrwt>
<pdfrwt beam="1">  1        2 0.19837473E+00 0.82468344E+03</pdfrwt>
<pdfrwt beam="2">  1       -2 0.62691252E-01 0.82468344E+03</pdfrwt>
<totfact> 0.40036215E+01</totfact>
</mgrwt>
</event>
<event>
 4    2  0.3855935E-007  0.8821379E+03  0.7818608E-02  0.9555337E-01
          2   -1    0    0  501    0  0.00000000000E+00  0.00000000000E+00  0.17152011249E+04  0.17152011249E+04  0.25500000000E-02 0. -1.
         -2   -1    0    0    0  501 -0.00000000000E+00 -0.00000000000E+00 -0.43213137747E+03  0.43213137748E+03  0.25500000000E-02 0.  1.
    8880023    1    1    2    0    0  0.44296582711E+03 -0.38488750109E+03  0.19766981710E+03  0.90401364776E+03  0.65864270000E+03 0.  1.
    8880022    1    1    2    0    0 -0.44296582711E+03  0.38488750109E+03  0.10853999303E+04  0.12433188546E+04  0.15294330000E+03 0.  0.
<mgrwt>
<rscale>  0 0.80324175E+03</rscale>
<asrwt>0</asrwt>
<pdfrwt beam="1">  1        2 0.26387709E+00 0.88213793E+03</pdfrwt>
<pdfrwt beam="2">  1       -2 0.66481751E-01 0.88213793E+03</pdfrwt>
<totfact> 0.20240645E+01</totfact>
</mgrwt>
</event>
<event>
 4    2  0.3855935E-007  0.1052062E+04  0.7818608E-02  0.9316406E-01
          2   -1    0    0  501    0  0.00000000000E+00  0.00000000000E+00  0.15460239914E+04  0.15460239914E+04  0.25500000000E-02 0. -1.
         -2   -1    0    0    0  501 -0.00000000000E+00 -0.00000000000E+00 -0.75436572342E+03  0.75436572343E+03  0.25500000000E-02 0.  1.
    8880023    1    1    2    0    0  0.75864812767E+03 -0.31221507774E+03 -0.12651287963E+03  0.10596418977E+04  0.65864270000E+03 0.  1.
    8880022    1    1    2    0    0 -0.75864812767E+03  0.31221507774E+03  0.91817114758E+03  0.12407478171E+04  0.15294330000E+03 0.  0.
<mgrwt>
<rscale>  0 0.99286410E+03</rscale>
<asrwt>0</asrwt>
<pdfrwt beam="1">  1        2 0.23784984E+00 0.10520625E+04</pdfrwt>
<pdfrwt beam="2">  1       -2 0.11605627E+00 0.10520625E+04</pdfrwt>
<totfact> 0.68202933E+00</totfact>
</mgrwt>
</event>
<event>
 4    2  0.3855935E-007  0.6806450E+03  0.7818608E-02  0.1008961E+00
          2   -1    0    0  501    0  0.00000000000E+00  0.00000000000E+00  0.86818170235E+03  0.86818170235E+03  0.25500000000E-02 0. -1.
         -2   -1    0    0    0  501 -0.00000000000E+00 -0.00000000000E+00 -0.38285069595E+03  0.38285069596E+03  0.25500000000E-02 0.  1.
    8880023    1    1    2    0    0  0.11586916273E+03 -0.12665618944E+03 -0.35648172171E+02  0.68157791311E+03  0.65864270000E+03 0.  1.
    8880022    1    1    2    0    0 -0.11586916273E+03  0.12665618944E+03  0.52097917857E+03  0.56945448520E+03  0.15294330000E+03 0.  0.
<mgrwt>
<rscale>  0 0.51889620E+03</rscale>
<asrwt>0</asrwt>
<pdfrwt beam="1">  1        2 0.13356642E+00 0.68064503E+03</pdfrwt>
<pdfrwt beam="2">  1       -2 0.58900107E-01 0.68064503E+03</pdfrwt>
<totfact> 0.84565112E+01</totfact>
</mgrwt>
</event>
<event>
 4    2  0.3855935E-007  0.7745234E+03  0.7818608E-02  0.9768863E-01
         -2   -1    0    0    0  501 -0.00000000000E+00  0.00000000000E+00  0.64284333213E+03  0.64284333213E+03  0.25500000000E-02 0.  1.
          2   -1    0    0  501    0  0.00000000000E+00 -0.00000000000E+00 -0.78504515442E+03  0.78504515443E+03  0.25500000000E-02 0. -1.
    8880023    1    1    2    0    0  0.38236335318E+03 -0.14097689338E+03 -0.44908878498E+03  0.89530283222E+03  0.65864270000E+03 0.  0.
    8880022    1    1    2    0    0 -0.38236335318E+03  0.14097689338E+03  0.30688696269E+03  0.53258565434E+03  0.15294330000E+03 0.  0.
<mgrwt>
<rscale>  0 0.67060662E+03</rscale>
<asrwt>0</asrwt>
<pdfrwt beam="1">  1        2 0.12077618E+00 0.77452335E+03</pdfrwt>
<pdfrwt beam="2">  1       -2 0.98898974E-01 0.77452335E+03</pdfrwt>
<totfact> 0.30304794E+01</totfact>
</mgrwt>
</event>
<event>
 4    2  0.3855935E-007  0.6974278E+03  0.7818608E-02  0.1000804E+00
          2   -1    0    0  501    0  0.00000000000E+00  0.00000000000E+00  0.25096623075E+04  0.25096623075E+04  0.25500000000E-02 0. -1.
         -2   -1    0    0    0  501 -0.00000000000E+00 -0.00000000000E+00 -0.43123083826E+03  0.43123083827E+03  0.25500000000E-02 0.  1.
    8880023    1    1    2    0    0 -0.13716152205E+03  0.18379909501E+03 -0.13499084364E+03  0.71037182137E+03  0.65864270000E+03 0.  1.
    8880022    1    1    2    0    0  0.13716152205E+03 -0.18379909501E+03  0.22134223129E+04  0.22305213244E+04  0.15294330000E+03 0.  0.
<mgrwt>
<rscale>  0 0.55298952E+03</rscale>
<asrwt>0</asrwt>
<pdfrwt beam="1">  1        2 0.38610190E+00 0.69742784E+03</pdfrwt>
<pdfrwt beam="2">  1       -2 0.66343206E-01 0.69742784E+03</pdfrwt>
<totfact> 0.76048966E+00</totfact>
</mgrwt>
</event>
<event>
 4    2  0.3855935E-007  0.9297105E+03  0.7818608E-02  0.9479928E-01
          2   -1    0    0  501    0  0.00000000000E+00  0.00000000000E+00  0.22830785939E+04  0.22830785939E+04  0.25500000000E-02 0. -1.
         -2   -1    0    0    0  501 -0.00000000000E+00 -0.00000000000E+00 -0.42672293509E+03  0.42672293509E+03  0.25500000000E-02 0.  1.
    8880023    1    1    2    0    0  0.40941069562E+03 -0.51277119955E+03  0.24229691055E+03  0.96076501805E+03  0.65864270000E+03 0.  0.
    8880022    1    1    2    0    0 -0.40941069562E+03  0.51277119955E+03  0.16140587483E+04  0.17490365110E+04  0.15294330000E+03 0.  0.
<mgrwt>
<rscale>  0 0.85779988E+03</rscale>
<asrwt>0</asrwt>
<pdfrwt beam="1">  1        2 0.35124287E+00 0.92971051E+03</pdfrwt>
<pdfrwt beam="2">  1       -2 0.65649680E-01 0.92971051E+03</pdfrwt>
<totfact> 0.10065043E+01</totfact>
</mgrwt>
</event>
<event>
 4    2  0.3855935E-007  0.7571235E+03  0.7818608E-02  0.9812612E-01
         -2   -1    0    0    0  501 -0.00000000000E+00  0.00000000000E+00  0.14771158315E+04  0.14771158315E+04  0.25500000000E-02 0.  1.
          2   -1    0    0  501    0  0.00000000000E+00 -0.00000000000E+00 -0.56793465055E+03  0.56793465055E+03  0.25500000000E-02 0. -1.
    8880023    1    1    2    0    0  0.66920727425E+02 -0.36735188594E+03  0.12864080513E+04  0.14926760106E+04  0.65864270000E+03 0.  1.
    8880022    1    1    2    0    0 -0.66920727425E+02  0.36735188594E+03 -0.37722687043E+03  0.55237447139E+03  0.15294330000E+03 0.  0.
<mgrwt>
<rscale>  0 0.64690076E+03</rscale>
<asrwt>0</asrwt>
<pdfrwt beam="1">  1        2 0.87374561E-01 0.75712350E+03</pdfrwt>
<pdfrwt beam="2">  1       -2 0.22724859E+00 0.75712350E+03</pdfrwt>
<totfact> 0.48263060E+00</totfact>
</mgrwt>
</event>
<event>
 4    2  0.3855935E-007  0.7790852E+03  0.7818608E-02  0.9757990E-01
         -2   -1    0    0    0  501 -0.00000000000E+00  0.00000000000E+00  0.15929290523E+03  0.15929290525E+03  0.25500000000E-02 0.  1.
          2   -1    0    0  501    0  0.00000000000E+00 -0.00000000000E+00 -0.30304637108E+04  0.30304637108E+04  0.25500000000E-02 0. -1.
    8880023    1    1    2    0    0 -0.40339133654E+03  0.10217119353E+03 -0.10048178229E+04  0.12714686731E+04  0.65864270000E+03 0.  1.
    8880022    1    1    2    0    0  0.40339133654E+03 -0.10217119353E+03 -0.18663529826E+04  0.19182879429E+04  0.15294330000E+03 0.  0.
<mgrwt>
<rscale>  0 0.67666587E+03</rscale>
<asrwt>0</asrwt>
<pdfrwt beam="1">  1        2 0.46622514E+00 0.77908519E+03</pdfrwt>
<pdfrwt beam="2">  1       -2 0.24506603E-01 0.77908519E+03</pdfrwt>
<totfact> 0.26096335E+01</totfact>
</mgrwt>
</event>
<event>
 4    2  0.3855935E-007  0.1519029E+04  0.7818608E-02  0.8896315E-01
          2   -1    0    0  501    0  0.00000000000E+00  0.00000000000E+00  0.26141657412E+04  0.26141657412E+04  0.25500000000E-02 0. -1.
         -2   -1    0    0    0  501 -0.00000000000E+00 -0.00000000000E+00 -0.91162672312E+03  0.91162672313E+03  0.25500000000E-02 0.  1.
    8880023    1    1    2    0    0 -0.44349895035E+03 -0.12949697309E+04  0.14979056189E+04  0.21333469882E+04  0.65864270000E+03 0.  0.
    8880022    1    1    2    0    0  0.44349895035E+03  0.12949697309E+04  0.20463339918E+03  0.13924454761E+04  0.15294330000E+03 0.  0.
<mgrwt>
<rscale>  0 0.14822919E+04</rscale>
<asrwt>0</asrwt>
<pdfrwt beam="1">  1        2 0.40217934E+00 0.15190287E+04</pdfrwt>
<pdfrwt beam="2">  1       -2 0.14025027E+00 0.15190287E+04</pdfrwt>
<totfact> 0.10084605E+00</totfact>
</mgrwt>
</event>
<event>
 4    2  0.3855935E-007  0.7721923E+03  0.7818608E-02  0.9774508E-01
          2   -1    0    0  501    0  0.00000000000E+00  0.00000000000E+00  0.17990919325E+04  0.17990919325E+04  0.25500000000E-02 0. -1.
         -2   -1    0    0    0  501 -0.00000000000E+00 -0.00000000000E+00 -0.49963249508E+03  0.49963249508E+03  0.25500000000E-02 0.  1.
    8880023    1    1    2    0    0  0.31791891095E+03 -0.24778679433E+03 -0.14989805358E+03  0.78660686630E+03  0.65864270000E+03 0.  0.
    8880022    1    1    2    0    0 -0.31791891095E+03  0.24778679433E+03  0.14493574910E+04  0.15121175612E+04  0.15294330000E+03 0.  0.
<mgrwt>
<rscale>  0 0.66748734E+03</rscale>
<asrwt>0</asrwt>
<pdfrwt beam="1">  1        2 0.27678337E+00 0.77219229E+03</pdfrwt>
<pdfrwt beam="2">  1       -2 0.76866539E-01 0.77219229E+03</pdfrwt>
<totfact> 0.13416485E+01</totfact>
</mgrwt>
</event>
<event>
 4    2  0.3855935E-007  0.6608013E+03  0.7818608E-02  0.1023350E+00
         -2   -1    0    0    0  501 -0.00000000000E+00  0.00000000000E+00  0.15467199827E+03  0.15467199829E+03  0.25500000000E-02 0.  1.
          2   -1    0    0  501    0  0.00000000000E+00 -0.00000000000E+00 -0.20391916585E+04  0.20391916585E+04  0.25500000000E-02 0. -1.
    8880023    1    1    2    0    0  0.38033372859E+02  0.37438322992E+02 -0.57973613101E+03  0.87906333864E+03  0.65864270000E+03 0.  1.
    8880022    1    1    2    0    0 -0.38033372859E+02 -0.37438322992E+02 -0.13047835292E+04  0.13148003182E+04  0.15294330000E+03 0.  0.
<mgrwt>
<rscale>  0 0.46496822E+03</rscale>
<asrwt>0</asrwt>
<pdfrwt beam="1">  1        2 0.31372177E+00 0.66080131E+03</pdfrwt>
<pdfrwt beam="2">  1       -2 0.23795694E-01 0.66080131E+03</pdfrwt>
<totfact> 0.10327974E+02</totfact>
</mgrwt>
</event>
<event>
 4    2  0.3855935E-007  0.6625926E+03  0.7818608E-02  0.1021645E+00
         -2   -1    0    0    0  501 -0.00000000000E+00  0.00000000000E+00  0.28181637640E+03  0.28181637641E+03  0.25500000000E-02 0.  1.
          2   -1    0    0  501    0  0.00000000000E+00 -0.00000000000E+00 -0.65719114747E+03  0.65719114747E+03  0.25500000000E-02 0. -1.
    8880023    1    1    2    0    0 -0.64623609490E+02  0.32288178848E+02 -0.39064013723E+03  0.76917401183E+03  0.65864270000E+03 0. -1.
    8880022    1    1    2    0    0  0.64623609490E+02 -0.32288178848E+02  0.15265366167E+02  0.16983351205E+03  0.15294330000E+03 0.  1.
<mgrwt>
<rscale>  0 0.47097777E+03</rscale>
<asrwt>0</asrwt>
<pdfrwt beam="1">  1        2 0.10110633E+00 0.66259259E+03</pdfrwt>
<pdfrwt beam="2">  1       -2 0.43356366E-01 0.66259259E+03</pdfrwt>
<totfact> 0.22663121E+02</totfact>
</mgrwt>
</event>
<event>
 4    2  0.3855935E-007  0.8391861E+03  0.7818608E-02  0.9631717E-01
         -2   -1    0    0    0  501 -0.00000000000E+00  0.00000000000E+00  0.77761961164E+03  0.77761961165E+03  0.25500000000E-02 0.  1.
          2   -1    0    0  501    0  0.00000000000E+00 -0.00000000000E+00 -0.94422491226E+03  0.94422491226E+03  0.25500000000E-02 0. -1.
    8880023    1    1    2    0    0  0.25548469192E+03  0.45293560147E+03 -0.59686026304E+03  0.10297938953E+04  0.65864270000E+03 0. -1.
    8880022    1    1    2    0    0 -0.25548469192E+03 -0.45293560147E+03  0.43025496243E+03  0.69205062863E+03  0.15294330000E+03 0.  0.
<mgrwt>
<rscale>  0 0.75232051E+03</rscale>
<asrwt>0</asrwt>
<pdfrwt beam="1">  1        2 0.14526537E+00 0.83918609E+03</pdfrwt>
<pdfrwt beam="2">  1       -2 0.11963379E+00 0.83918609E+03</pdfrwt>
<totfact> 0.14756932E+01</totfact>
</mgrwt>
</event>
<event>
 4    2  0.3855935E-007  0.7281833E+03  0.7818608E-02  0.9895811E-01
         -2   -1    0    0    0  501 -0.00000000000E+00  0.00000000000E+00  0.17461468129E+03  0.17461468131E+03  0.25500000000E-02 0.  1.
          2   -1    0    0  501    0  0.00000000000E+00 -0.00000000000E+00 -0.25318570704E+04  0.25318570704E+04  0.25500000000E-02 0. -1.
    8880023    1    1    2    0    0  0.13560627328E+03  0.27937721849E+03 -0.68828347130E+03  0.10019905362E+04  0.65864270000E+03 0.  0.
    8880022    1    1    2    0    0 -0.13560627328E+03 -0.27937721849E+03 -0.16689589178E+04  0.17044812154E+04  0.15294330000E+03 0.  0.
<mgrwt>
<rscale>  0 0.60464754E+03</rscale>
<asrwt>0</asrwt>
<pdfrwt beam="1">  1        2 0.38951645E+00 0.72818329E+03</pdfrwt>
<pdfrwt beam="2">  1       -2 0.26863799E-01 0.72818329E+03</pdfrwt>
<totfact> 0.43846012E+01</totfact>
</mgrwt>
</event>
<event>
 4    2  0.3855935E-007  0.6675223E+03  0.7818608E-02  0.1017505E+00
         -2   -1    0    0    0  501 -0.00000000000E+00  0.00000000000E+00  0.88338923289E+02  0.88338923326E+02  0.25500000000E-02 0.  1.
          2   -1    0    0  501    0  0.00000000000E+00 -0.00000000000E+00 -0.37260536837E+04  0.37260536837E+04  0.25500000000E-02 0. -1.
    8880023    1    1    2    0    0  0.10830587164E+03 -0.67535731755E+01 -0.12306215657E+04  0.14000055060E+04  0.65864270000E+03 0.  1.
    8880022    1    1    2    0    0 -0.10830587164E+03  0.67535731755E+01 -0.24070931947E+04  0.24143871011E+04  0.15294330000E+03 0.  0.
<mgrwt>
<rscale>  0 0.48597831E+03</rscale>
<asrwt>0</asrwt>
<pdfrwt beam="1">  1        2 0.57323890E+00 0.66752227E+03</pdfrwt>
<pdfrwt beam="2">  1       -2 0.13590607E-01 0.66752227E+03</pdfrwt>
<totfact> 0.25484922E+01</totfact>
</mgrwt>
</event>
<event>
 4    2  0.3855935E-007  0.1111425E+04  0.7818608E-02  0.9248441E-01
         -2   -1    0    0    0  501 -0.00000000000E+00  0.00000000000E+00  0.70152175646E+03  0.70152175647E+03  0.25500000000E-02 0.  1.
          2   -1    0    0  501    0  0.00000000000E+00 -0.00000000000E+00 -0.41100773813E+04  0.41100773813E+04  0.25500000000E-02 0. -1.
    8880023    1    1    2    0    0  0.24290851382E+03  0.86165634392E+03  0.16574605502E+03  0.11237162285E+04  0.65864270000E+03 0.  0.
    8880022    1    1    2    0    0 -0.24290851382E+03 -0.86165634392E+03 -0.35743016798E+04  0.36878829093E+04  0.15294330000E+03 0.  0.
<mgrwt>
<rscale>  0 0.10567128E+04</rscale>
<asrwt>0</asrwt>
<pdfrwt beam="1">  1        2 0.63231958E+00 0.11114254E+04</pdfrwt>
<pdfrwt beam="2">  1       -2 0.10792643E+00 0.11114254E+04</pdfrwt>
<totfact> 0.19704864E-01</totfact>
</mgrwt>
</event>
<event>
 4    2  0.3855935E-007  0.8093449E+03  0.7818608E-02  0.9690943E-01
         -2   -1    0    0    0  501 -0.00000000000E+00  0.00000000000E+00  0.67980069972E+03  0.67980069972E+03  0.25500000000E-02 0.  1.
          2   -1    0    0  501    0  0.00000000000E+00 -0.00000000000E+00 -0.14201096714E+04  0.14201096714E+04  0.25500000000E-02 0. -1.
    8880023    1    1    2    0    0  0.44157642735E+03  0.16198521587E+03  0.36586640104E+03  0.88819895351E+03  0.65864270000E+03 0.  0.
    8880022    1    1    2    0    0 -0.44157642735E+03 -0.16198521587E+03 -0.11061753727E+04  0.12117114176E+04  0.15294330000E+03 0.  0.
<mgrwt>
<rscale>  0 0.71558603E+03</rscale>
<asrwt>0</asrwt>
<pdfrwt beam="1">  1        2 0.21847841E+00 0.80934489E+03</pdfrwt>
<pdfrwt beam="2">  1       -2 0.10458472E+00 0.80934489E+03</pdfrwt>
<totfact> 0.10620563E+01</totfact>
</mgrwt>
</event>
<event>
 4    2  0.5490049E-007  0.8437829E+03  0.7818608E-02  0.9623088E-01
          2   -1    0    0  501    0  0.00000000000E+00  0.00000000000E+00  0.18189506201E+04  0.18189506201E+04  0.25500000000E-02 0. -1.
         -2   -1    0    0    0  501 -0.00000000000E+00 -0.00000000000E+00 -0.14501161621E+04  0.14501161621E+04  0.25500000000E-02 0.  1.
    8880023    1    1    2    0    0 -0.43510497156E+03 -0.29806541139E+03 -0.12789354255E+04  0.15322027785E+04  0.65864270000E+03 0.  1.
    8880022    1    1    2    0    0  0.43510497156E+03  0.29806541139E+03  0.16477698835E+04  0.17368640038E+04  0.15294330000E+03 0.  0.
<mgrwt>
<rscale>  0 0.75786722E+03</rscale>
<asrwt>0</asrwt>
<pdfrwt beam="1">  1        2 0.27983856E+00 0.84378287E+03</pdfrwt>
<pdfrwt beam="2">  1       -2 0.22309479E+00 0.84378287E+03</pdfrwt>
<totfact> 0.81529040E-01</totfact>
</mgrwt>
</event>
<event>
 4    2  0.3855935E-007  0.7632817E+03  0.7818608E-02  0.9796684E-01
         -2   -1    0    0    0  501 -0.00000000000E+00  0.00000000000E+00  0.52686607565E+03  0.52686607566E+03  0.25500000000E-02 0.  1.
          2   -1    0    0  501    0  0.00000000000E+00 -0.00000000000E+00 -0.12505996952E+04  0.12505996952E+04  0.25500000000E-02 0. -1.
    8880023    1    1    2    0    0  0.27517259290E+03  0.27031249478E+03  0.17894956326E+03  0.78397828616E+03  0.65864270000E+03 0.  1.
    8880022    1    1    2    0    0 -0.27517259290E+03 -0.27031249478E+03 -0.90268318276E+03  0.99348748466E+03  0.15294330000E+03 0.  0.
<mgrwt>
<rscale>  0 0.65540784E+03</rscale>
<asrwt>0</asrwt>
<pdfrwt beam="1">  1        2 0.19239995E+00 0.76328173E+03</pdfrwt>
<pdfrwt beam="2">  1       -2 0.81056320E-01 0.76328173E+03</pdfrwt>
<totfact> 0.24149128E+01</totfact>
</mgrwt>
</event>
<event>
 4    2  0.3855935E-007  0.9031070E+03  0.7818608E-02  0.9521062E-01
          2   -1    0    0  501    0  0.00000000000E+00  0.00000000000E+00  0.10072330341E+04  0.10072330341E+04  0.25500000000E-02 0. -1.
         -2   -1    0    0    0  501 -0.00000000000E+00 -0.00000000000E+00 -0.12082839510E+04  0.12082839510E+04  0.25500000000E-02 0.  1.
    8880023    1    1    2    0    0  0.52506487577E+03 -0.32572819099E+03 -0.89664886019E+03  0.12726277393E+04  0.65864270000E+03 0.  0.
    8880022    1    1    2    0    0 -0.52506487577E+03  0.32572819099E+03  0.69559794331E+03  0.94288924584E+03  0.15294330000E+03 0.  0.
<mgrwt>
<rscale>  0 0.82748643E+03</rscale>
<asrwt>0</asrwt>
<pdfrwt beam="1">  1        2 0.15495893E+00 0.90310696E+03</pdfrwt>
<pdfrwt beam="2">  1       -2 0.18588984E+00 0.90310696E+03</pdfrwt>
<totfact> 0.41269266E+00</totfact>
</mgrwt>
</event>
<event>
 4    2  0.3855935E-007  0.8575928E+03  0.7818608E-02  0.9597860E-01
         -2   -1    0    0    0  501 -0.00000000000E+00  0.00000000000E+00  0.59845987387E+03  0.59845987388E+03  0.25500000000E-02 0.  1.
          2   -1    0    0  501    0  0.00000000000E+00 -0.00000000000E+00 -0.15483233570E+04  0.15483233570E+04  0.25500000000E-02 0. -1.
    8880023    1    1    2    0    0 -0.42896940232E+03  0.34298754290E+03  0.18449173846E+03  0.87721297900E+03  0.65864270000E+03 0.  1.
    8880022    1    1    2    0    0  0.42896940232E+03 -0.34298754290E+03 -0.11343552216E+04  0.12695702519E+04  0.15294330000E+03 0.  0.
<mgrwt>
<rscale>  0 0.77437993E+03</rscale>
<asrwt>0</asrwt>
<pdfrwt beam="1">  1        2 0.23820359E+00 0.85759280E+03</pdfrwt>
<pdfrwt beam="2">  1       -2 0.92070750E-01 0.85759280E+03</pdfrwt>
<totfact> 0.12093126E+01</totfact>
</mgrwt>
</event>
<event>
 4    2  0.3855935E-007  0.8015684E+03  0.7818608E-02  0.9707415E-01
         -2   -1    0    0    0  501 -0.00000000000E+00  0.00000000000E+00  0.25980718599E+04  0.25980718599E+04  0.25500000000E-02 0.  1.
          2   -1    0    0  501    0  0.00000000000E+00 -0.00000000000E+00 -0.76284561858E+03  0.76284561858E+03  0.25500000000E-02 0. -1.
    8880023    1    1    2    0    0  0.14613188956E+03 -0.43283612337E+03  0.24511938966E+04  0.25789267853E+04  0.65864270000E+03 0.  1.
    8880022    1    1    2    0    0 -0.14613188956E+03  0.43283612337E+03 -0.61596765529E+03  0.78199069318E+03  0.15294330000E+03 0.  0.
<mgrwt>
<rscale>  0 0.70577009E+03</rscale>
<asrwt>0</asrwt>
<pdfrwt beam="1">  1        2 0.11736086E+00 0.80156837E+03</pdfrwt>
<pdfrwt beam="2">  1       -2 0.39970337E+00 0.80156837E+03</pdfrwt>
<totfact> 0.28839805E-01</totfact>
</mgrwt>
</event>
<event>
 4    2  0.3855935E-007  0.6715951E+03  0.7818608E-02  0.1014544E+00
         -2   -1    0    0    0  501 -0.00000000000E+00  0.00000000000E+00  0.40289129518E+03  0.40289129519E+03  0.25500000000E-02 0.  1.
          2   -1    0    0  501    0  0.00000000000E+00 -0.00000000000E+00 -0.77123971111E+03  0.77123971112E+03  0.25500000000E-02 0. -1.
    8880023    1    1    2    0    0 -0.41992986087E+02 -0.12436399939E+03  0.86006482775E+02  0.67707985982E+03  0.65864270000E+03 0.  0.
    8880022    1    1    2    0    0  0.41992986087E+02  0.12436399939E+03 -0.45435489871E+03  0.49705114649E+03  0.15294330000E+03 0.  0.
<mgrwt>
<rscale>  0 0.49707865E+03</rscale>
<asrwt>0</asrwt>
<pdfrwt beam="1">  1        2 0.11865226E+00 0.67159513E+03</pdfrwt>
<pdfrwt beam="2">  1       -2 0.61983277E-01 0.67159513E+03</pdfrwt>
<totfact> 0.88975692E+01</totfact>
</mgrwt>
</event>
<event>
 4    2  0.3855935E-007  0.8006661E+03  0.7818608E-02  0.9709358E-01
          2   -1    0    0  501    0  0.00000000000E+00  0.00000000000E+00  0.74022353202E+03  0.74022353203E+03  0.25500000000E-02 0. -1.
         -2   -1    0    0    0  501 -0.00000000000E+00 -0.00000000000E+00 -0.10701078772E+04  0.10701078772E+04  0.25500000000E-02 0.  1.
    8880023    1    1    2    0    0  0.43718699322E+03 -0.12697866141E+03 -0.80456723955E+03  0.11350747538E+04  0.65864270000E+03 0.  1.
    8880022    1    1    2    0    0 -0.43718699322E+03  0.12697866141E+03  0.47468289437E+03  0.67525665544E+03  0.15294330000E+03 0.  0.
<mgrwt>
<rscale>  0 0.70462368E+03</rscale>
<asrwt>0</asrwt>
<pdfrwt beam="1">  1        2 0.11388054E+00 0.80066613E+03</pdfrwt>
<pdfrwt beam="2">  1       -2 0.16463198E+00 0.80066613E+03</pdfrwt>
<totfact> 0.89847027E+00</totfact>
</mgrwt>
</event>
<event>
 4    2  0.3855935E-007  0.6667798E+03  0.7818608E-02  0.1018085E+00
          2   -1    0    0  501    0  0.00000000000E+00  0.00000000000E+00  0.27691919542E+04  0.27691919542E+04  0.25500000000E-02 0. -1.
         -2   -1    0    0    0  501 -0.00000000000E+00 -0.00000000000E+00 -0.47115775877E+03  0.47115775878E+03  0.25500000000E-02 0.  1.
    8880023    1    1    2    0    0 -0.51094593546E+02 -0.90412812840E+02 -0.23017489272E+03  0.70539054553E+03  0.65864270000E+03 0.  1.
    8880022    1    1    2    0    0  0.51094593546E+02  0.90412812840E+02  0.25282090882E+04  0.25349591675E+04  0.15294330000E+03 0.  0.
<mgrwt>
<rscale>  0 0.48384164E+03</rscale>
<asrwt>0</asrwt>
<pdfrwt beam="1">  1        2 0.42602952E+00 0.66677983E+03</pdfrwt>
<pdfrwt beam="2">  1       -2 0.72485811E-01 0.66677983E+03</pdfrwt>
<totfact> 0.44738739E+00</totfact>
</mgrwt>
</event>
<event>
 4    2  0.3855935E-007  0.8834585E+03  0.7818608E-02  0.9553125E-01
          2   -1    0    0  501    0  0.00000000000E+00  0.00000000000E+00  0.30361918401E+04  0.30361918401E+04  0.25500000000E-02 0. -1.
         -2   -1    0    0    0  501 -0.00000000000E+00 -0.00000000000E+00 -0.39926824545E+03  0.39926824546E+03  0.25500000000E-02 0.  1.
    8880023    1    1    2    0    0  0.57071559318E+03 -0.14481871268E+03  0.17646317291E+03  0.90090965446E+03  0.65864270000E+03 0.  0.
    8880022    1    1    2    0    0 -0.57071559318E+03  0.14481871268E+03  0.24604604218E+04  0.25345504311E+04  0.15294330000E+03 0.  0.
<mgrwt>
<rscale>  0 0.80477900E+03</rscale>
<asrwt>0</asrwt>
<pdfrwt beam="1">  1        2 0.46710645E+00 0.88345852E+03</pdfrwt>
<pdfrwt beam="2">  1       -2 0.61425882E-01 0.88345852E+03</pdfrwt>
<totfact> 0.42426423E+00</totfact>
</mgrwt>
</event>
<event>
 4    2  0.3855935E-007  0.8976918E+03  0.7818608E-02  0.9529747E-01
         -2   -1    0    0    0  501 -0.00000000000E+00  0.00000000000E+00  0.53906473730E+03  0.53906473731E+03  0.25500000000E-02 0.  1.
          2   -1    0    0  501    0  0.00000000000E+00 -0.00000000000E+00 -0.11799339781E+04  0.11799339781E+04  0.25500000000E-02 0. -1.
    8880023    1    1    2    0    0  0.18214533044E+02 -0.60967912448E+03 -0.12644108543E+03  0.90655278853E+03  0.65864270000E+03 0.  0.
    8880022    1    1    2    0    0 -0.18214533044E+02  0.60967912448E+03 -0.51442815534E+03  0.81244592685E+03  0.15294330000E+03 0.  0.
<mgrwt>
<rscale>  0 0.82125767E+03</rscale>
<asrwt>0</asrwt>
<pdfrwt beam="1">  1        2 0.18152830E+00 0.89769182E+03</pdfrwt>
<pdfrwt beam="2">  1       -2 0.82933037E-01 0.89769182E+03</pdfrwt>
<totfact> 0.24915616E+01</totfact>
</mgrwt>
</event>
<event>
 4    2  0.3855935E-007  0.6632974E+03  0.7818608E-02  0.1021007E+00
         -2   -1    0    0    0  501 -0.00000000000E+00  0.00000000000E+00  0.22462357511E+03  0.22462357512E+03  0.25500000000E-02 0.  1.
          2   -1    0    0  501    0  0.00000000000E+00 -0.00000000000E+00 -0.12626296446E+04  0.12626296446E+04  0.25500000000E-02 0. -1.
    8880023    1    1    2    0    0  0.34937554699E+02 -0.70232276766E+02 -0.29732198956E+03  0.72688635781E+03  0.65864270000E+03 0.  1.
    8880022    1    1    2    0    0 -0.34937554699E+02  0.70232276766E+02 -0.74068407990E+03  0.76036686189E+03  0.15294330000E+03 0.  0.
<mgrwt>
<rscale>  0 0.47325090E+03</rscale>
<asrwt>0</asrwt>
<pdfrwt beam="1">  1        2 0.19425071E+00 0.66329738E+03</pdfrwt>
<pdfrwt beam="2">  1       -2 0.34557474E-01 0.66329738E+03</pdfrwt>
<totfact> 0.13934229E+02</totfact>
</mgrwt>
</event>
<event>
 4    2  0.3855935E-007  0.9224538E+03  0.7818608E-02  0.9490907E-01
          2   -1    0    0  501    0  0.00000000000E+00  0.00000000000E+00  0.13009320852E+04  0.13009320852E+04  0.25500000000E-02 0. -1.
         -2   -1    0    0    0  501 -0.00000000000E+00 -0.00000000000E+00 -0.58781957505E+03  0.58781957505E+03  0.25500000000E-02 0.  1.
    8880023    1    1    2    0    0  0.20023823104E+02  0.64553062148E+03  0.10898277051E+02  0.92251813829E+03  0.65864270000E+03 0.  0.
    8880022    1    1    2    0    0 -0.20023823104E+02 -0.64553062148E+03  0.70221423306E+03  0.96623352192E+03  0.15294330000E+03 0.  0.
<mgrwt>
<rscale>  0 0.84957552E+03</rscale>
<asrwt>0</asrwt>
<pdfrwt beam="1">  1        2 0.20014340E+00 0.92245376E+03</pdfrwt>
<pdfrwt beam="2">  1       -2 0.90433781E-01 0.92245376E+03</pdfrwt>
<totfact> 0.17295523E+01</totfact>
</mgrwt>
</event>
<event>
 4    2  0.3855935E-007  0.1020642E+04  0.7818608E-02  0.9355036E-01
          2   -1    0    0  501    0  0.00000000000E+00  0.00000000000E+00  0.30002633010E+04  0.30002633010E+04  0.25500000000E-02 0. -1.
         -2   -1    0    0    0  501 -0.00000000000E+00 -0.00000000000E+00 -0.31558602251E+03  0.31558602252E+03  0.25500000000E-02 0.  1.
    8880023    1    1    2    0    0 -0.76679837219E+03  0.14113891203E+03  0.89400006628E+03  0.13568147482E+04  0.65864270000E+03 0.  0.
    8880022    1    1    2    0    0  0.76679837219E+03 -0.14113891203E+03  0.17906772122E+04  0.19590345754E+04  0.15294330000E+03 0.  0.
<mgrwt>
<rscale>  0 0.95870245E+03</rscale>
<asrwt>0</asrwt>
<pdfrwt beam="1">  1        2 0.46157895E+00 0.10206420E+04</pdfrwt>
<pdfrwt beam="2">  1       -2 0.48551698E-01 0.10206420E+04</pdfrwt>
<totfact> 0.71348159E+00</totfact>
</mgrwt>
</event>
<event>
 4    2  0.3855935E-007  0.1125343E+04  0.7818608E-02  0.9233351E-01
          2   -1    0    0  501    0  0.00000000000E+00  0.00000000000E+00  0.15322974796E+04  0.15322974796E+04  0.25500000000E-02 0. -1.
         -2   -1    0    0    0  501 -0.00000000000E+00 -0.00000000000E+00 -0.78022927667E+03  0.78022927667E+03  0.25500000000E-02 0.  1.
    8880023    1    1    2    0    0  0.56786634434E+03 -0.71422228218E+03  0.81876286885E+01  0.11253723370E+04  0.65864270000E+03 0.  0.
    8880022    1    1    2    0    0 -0.56786634434E+03  0.71422228218E+03  0.74388057422E+03  0.11871544192E+04  0.15294330000E+03 0.  0.
<mgrwt>
<rscale>  0 0.10715720E+04</rscale>
<asrwt>0</asrwt>
<pdfrwt beam="1">  1        2 0.23573807E+00 0.11253426E+04</pdfrwt>
<pdfrwt beam="2">  1       -2 0.12003527E+00 0.11253426E+04</pdfrwt>
<totfact> 0.63406099E+00</totfact>
</mgrwt>
</event>
<event>
 4    2  0.3855935E-007  0.8011224E+03  0.7818608E-02  0.9708374E-01
          2   -1    0    0  501    0  0.00000000000E+00  0.00000000000E+00  0.77854760114E+03  0.77854760114E+03  0.25500000000E-02 0. -1.
         -2   -1    0    0    0  501 -0.00000000000E+00 -0.00000000000E+00 -0.10715791286E+04  0.10715791286E+04  0.25500000000E-02 0.  1.
    8880023    1    1    2    0    0 -0.26714385640E+03 -0.36962285513E+03 -0.81327569119E+03  0.11415841849E+04  0.65864270000E+03 0.  0.
    8880022    1    1    2    0    0  0.26714385640E+03  0.36962285513E+03  0.52024416369E+03  0.70854254489E+03  0.15294330000E+03 0.  0.
<mgrwt>
<rscale>  0 0.70520364E+03</rscale>
<asrwt>0</asrwt>
<pdfrwt beam="1">  1        2 0.11977656E+00 0.80112240E+03</pdfrwt>
<pdfrwt beam="2">  1       -2 0.16485833E+00 0.80112240E+03</pdfrwt>
<totfact> 0.83813465E+00</totfact>
</mgrwt>
</event>
<event>
 4    2  0.3855935E-007  0.6595680E+03  0.7818608E-02  0.1024603E+00
         -2   -1    0    0    0  501 -0.00000000000E+00  0.00000000000E+00  0.82962846301E+03  0.82962846302E+03  0.25500000000E-02 0.  1.
          2   -1    0    0  501    0  0.00000000000E+00 -0.00000000000E+00 -0.18032879431E+04  0.18032879431E+04  0.25500000000E-02 0. -1.
    8880023    1    1    2    0    0 -0.24045841706E+02  0.25329502048E+02  0.69427165302E+03  0.95762368424E+03  0.65864270000E+03 0.  1.
    8880022    1    1    2    0    0  0.24045841706E+02 -0.25329502048E+02 -0.16679311331E+04  0.16752927219E+04  0.15294330000E+03 0.  0.
<mgrwt>
<rscale>  0 0.46061367E+03</rscale>
<asrwt>0</asrwt>
<pdfrwt beam="1">  1        2 0.27742891E+00 0.65956803E+03</pdfrwt>
<pdfrwt beam="2">  1       -2 0.12763515E+00 0.65956803E+03</pdfrwt>
<totfact> 0.40984640E+00</totfact>
</mgrwt>
</event>
<event>
 4    2  0.3855935E-007  0.7354799E+03  0.7818608E-02  0.9873315E-01
         -2   -1    0    0    0  501 -0.00000000000E+00  0.00000000000E+00  0.75431533957E+03  0.75431533957E+03  0.25500000000E-02 0.  1.
          2   -1    0    0  501    0  0.00000000000E+00 -0.00000000000E+00 -0.51967172518E+03  0.51967172518E+03  0.25500000000E-02 0. -1.
    8880023    1    1    2    0    0  0.22916148592E+03 -0.23367811499E+03  0.44137463919E+03  0.85775417599E+03  0.65864270000E+03 0.  1.
    8880022    1    1    2    0    0 -0.22916148592E+03  0.23367811499E+03 -0.20673102480E+03  0.41623288876E+03  0.15294330000E+03 0. -1.
<mgrwt>
<rscale>  0 0.61572168E+03</rscale>
<asrwt>0</asrwt>
<pdfrwt beam="1">  1        2 0.79949497E-01 0.73547988E+03</pdfrwt>
<pdfrwt beam="2">  1       -2 0.11604851E+00 0.73547988E+03</pdfrwt>
<totfact> 0.34398787E+01</totfact>
</mgrwt>
</event>
<event>
 4    2  0.3855935E-007  0.9594551E+03  0.7818608E-02  0.9436639E-01
         -2   -1    0    0    0  501 -0.00000000000E+00  0.00000000000E+00  0.50507545391E+03  0.50507545392E+03  0.25500000000E-02 0.  1.
          2   -1    0    0  501    0  0.00000000000E+00 -0.00000000000E+00 -0.19500722631E+04  0.19500722631E+04  0.25500000000E-02 0. -1.
    8880023    1    1    2    0    0  0.49521888268E+03  0.49142873597E+03 -0.14291943648E+03  0.97004129597E+03  0.65864270000E+03 0.  1.
    8880022    1    1    2    0    0 -0.49521888268E+03 -0.49142873597E+03 -0.13020773727E+04  0.14851064210E+04  0.15294330000E+03 0.  0.
<mgrwt>
<rscale>  0 0.89120827E+03</rscale>
<asrwt>0</asrwt>
<pdfrwt beam="1">  1        2 0.30001111E+00 0.95945513E+03</pdfrwt>
<pdfrwt beam="2">  1       -2 0.77703917E-01 0.95945513E+03</pdfrwt>
<totfact> 0.10576139E+01</totfact>
</mgrwt>
</event>
<event>
 4    2  0.3855935E-007  0.7814505E+03  0.7818608E-02  0.9752441E-01
         -2   -1    0    0    0  501 -0.00000000000E+00  0.00000000000E+00  0.53657475265E+03  0.53657475265E+03  0.25500000000E-02 0.  1.
          2   -1    0    0  501    0  0.00000000000E+00 -0.00000000000E+00 -0.14184872030E+04  0.14184872030E+04  0.25500000000E-02 0. -1.
    8880023    1    1    2    0    0  0.36068826682E+03  0.21623747405E+03  0.18069899810E+03  0.80207044901E+03  0.65864270000E+03 0.  0.
    8880022    1    1    2    0    0 -0.36068826682E+03 -0.21623747405E+03 -0.10626114485E+04  0.11529915067E+04  0.15294330000E+03 0.  0.
<mgrwt>
<rscale>  0 0.67978515E+03</rscale>
<asrwt>0</asrwt>
<pdfrwt beam="1">  1        2 0.21822880E+00 0.78145050E+03</pdfrwt>
<pdfrwt beam="2">  1       -2 0.82549963E-01 0.78145050E+03</pdfrwt>
<totfact> 0.18528070E+01</totfact>
</mgrwt>
</event>
<event>
 4    2  0.3855935E-007  0.7409747E+03  0.7818608E-02  0.9857117E-01
          2   -1    0    0  501    0  0.00000000000E+00  0.00000000000E+00  0.89735261114E+03  0.89735261115E+03  0.25500000000E-02 0. -1.
         -2   -1    0    0    0  501 -0.00000000000E+00 -0.00000000000E+00 -0.42565168127E+03  0.42565168128E+03  0.25500000000E-02 0.  1.
    8880023    1    1    2    0    0  0.15519389026E+03 -0.30190761405E+03  0.24881709006E+02  0.74139237702E+03  0.65864270000E+03 0.  0.
    8880022    1    1    2    0    0 -0.15519389026E+03  0.30190761405E+03  0.44681922086E+03  0.58161191541E+03  0.15294330000E+03 0.  0.
<mgrwt>
<rscale>  0 0.62385369E+03</rscale>
<asrwt>0</asrwt>
<pdfrwt beam="1">  1        2 0.13805425E+00 0.74097473E+03</pdfrwt>
<pdfrwt beam="2">  1       -2 0.65484874E-01 0.74097473E+03</pdfrwt>
<totfact> 0.64192418E+01</totfact>
</mgrwt>
</event>
<event>
 4    2  0.3855935E-007  0.9827340E+03  0.7818608E-02  0.9404504E-01
          2   -1    0    0  501    0  0.00000000000E+00  0.00000000000E+00  0.76703583724E+03  0.76703583725E+03  0.25500000000E-02 0. -1.
         -2   -1    0    0    0  501 -0.00000000000E+00 -0.00000000000E+00 -0.10542412854E+04  0.10542412854E+04  0.25500000000E-02 0.  1.
    8880023    1    1    2    0    0 -0.72601913917E+03  0.69656687855E+02 -0.41214624724E+03  0.10656596924E+04  0.65864270000E+03 0.  0.
    8880022    1    1    2    0    0  0.72601913917E+03 -0.69656687855E+02  0.12494079909E+03  0.75561743025E+03  0.15294330000E+03 0.  0.
<mgrwt>
<rscale>  0 0.91705963E+03</rscale>
<asrwt>0</asrwt>
<pdfrwt beam="1">  1        2 0.11800551E+00 0.98273397E+03</pdfrwt>
<pdfrwt beam="2">  1       -2 0.16219097E+00 0.98273397E+03</pdfrwt>
<totfact> 0.87809352E+00</totfact>
</mgrwt>
</event>
<event>
 4    2  0.3855935E-007  0.8172994E+03  0.7818608E-02  0.9674568E-01
         -2   -1    0    0    0  501 -0.00000000000E+00  0.00000000000E+00  0.26868701770E+03  0.26868701771E+03  0.25500000000E-02 0.  1.
          2   -1    0    0  501    0  0.00000000000E+00 -0.00000000000E+00 -0.17303177900E+04  0.17303177900E+04  0.25500000000E-02 0. -1.
    8880023    1    1    2    0    0 -0.20057454560E+03  0.44038379633E+03 -0.11229005951E+04  0.13888426798E+04  0.65864270000E+03 0.  0.
    8880022    1    1    2    0    0  0.20057454560E+03 -0.44038379633E+03 -0.33873017718E+03  0.61016212793E+03  0.15294330000E+03 0.  0.
<mgrwt>
<rscale>  0 0.72551368E+03</rscale>
<asrwt>0</asrwt>
<pdfrwt beam="1">  1        2 0.26620273E+00 0.81729936E+03</pdfrwt>
<pdfrwt beam="2">  1       -2 0.41336465E-01 0.81729936E+03</pdfrwt>
<totfact> 0.53222384E+01</totfact>
</mgrwt>
</event>
<event>
 4    2  0.3855935E-007  0.1086258E+04  0.7818608E-02  0.9276513E-01
          2   -1    0    0  501    0  0.00000000000E+00  0.00000000000E+00  0.21597896192E+04  0.21597896192E+04  0.25500000000E-02 0. -1.
         -2   -1    0    0    0  501 -0.00000000000E+00 -0.00000000000E+00 -0.10439324957E+04  0.10439324957E+04  0.25500000000E-02 0.  1.
    8880023    1    1    2    0    0 -0.42168489409E+03  0.75387502495E+03 -0.62579312628E+03  0.12536239254E+04  0.65864270000E+03 0.  0.
    8880022    1    1    2    0    0  0.42168489409E+03 -0.75387502495E+03  0.17416502497E+04  0.19500981895E+04  0.15294330000E+03 0.  0.
<mgrwt>
<rscale>  0 0.10297419E+04</rscale>
<asrwt>0</asrwt>
<pdfrwt beam="1">  1        2 0.33227532E+00 0.10862578E+04</pdfrwt>
<pdfrwt beam="2">  1       -2 0.16060500E+00 0.10862578E+04</pdfrwt>
<totfact> 0.13396972E+00</totfact>
</mgrwt>
</event>
<event>
 4    2  0.3855935E-007  0.7422849E+03  0.7818608E-02  0.9853341E-01
         -2   -1    0    0    0  501 -0.00000000000E+00  0.00000000000E+00  0.55219741065E+03  0.55219741065E+03  0.25500000000E-02 0.  1.
          2   -1    0    0  501    0  0.00000000000E+00 -0.00000000000E+00 -0.12085129642E+04  0.12085129642E+04  0.25500000000E-02 0. -1.
    8880023    1    1    2    0    0  0.33449229738E+02 -0.34067268993E+03  0.24730356657E+03  0.78239759262E+03  0.65864270000E+03 0.  1.
    8880022    1    1    2    0    0 -0.33449229738E+02  0.34067268993E+03 -0.90361912013E+03  0.97831278225E+03  0.15294330000E+03 0.  0.
<mgrwt>
<rscale>  0 0.62576886E+03</rscale>
<asrwt>0</asrwt>
<pdfrwt beam="1">  1        2 0.18592507E+00 0.74228494E+03</pdfrwt>
<pdfrwt beam="2">  1       -2 0.84953448E-01 0.74228494E+03</pdfrwt>
<totfact> 0.23034951E+01</totfact>
</mgrwt>
</event>
<event>
 4    2  0.3855935E-007  0.7713614E+03  0.7818608E-02  0.9776535E-01
          2   -1    0    0  501    0  0.00000000000E+00  0.00000000000E+00  0.63885205813E+03  0.63885205814E+03  0.25500000000E-02 0. -1.
         -2   -1    0    0    0  501 -0.00000000000E+00 -0.00000000000E+00 -0.96033716156E+03  0.96033716156E+03  0.25500000000E-02 0.  1.
    8880023    1    1    2    0    0  0.10035706291E+03  0.38873727691E+03 -0.68865304343E+03  0.10340413101E+04  0.65864270000E+03 0.  0.
    8880022    1    1    2    0    0 -0.10035706291E+03 -0.38873727691E+03  0.36716794000E+03  0.56514790959E+03  0.15294330000E+03 0. -1.
<mgrwt>
<rscale>  0 0.66637158E+03</rscale>
<asrwt>0</asrwt>
<pdfrwt beam="1">  1        2 0.98284933E-01 0.77136140E+03</pdfrwt>
<pdfrwt beam="2">  1       -2 0.14774418E+00 0.77136140E+03</pdfrwt>
<totfact> 0.14504939E+01</totfact>
</mgrwt>
</event>
<event>
 4    2  0.3855935E-007  0.8973914E+03  0.7818608E-02  0.9530232E-01
         -2   -1    0    0    0  501 -0.00000000000E+00  0.00000000000E+00  0.11209000226E+04  0.11209000226E+04  0.25500000000E-02 0.  1.
          2   -1    0    0  501    0  0.00000000000E+00 -0.00000000000E+00 -0.12465369790E+04  0.12465369790E+04  0.25500000000E-02 0. -1.
    8880023    1    1    2    0    0  0.48736250716E+03 -0.36603128435E+03 -0.96573459917E+03  0.13183150749E+04  0.65864270000E+03 0.  0.
    8880022    1    1    2    0    0 -0.48736250716E+03  0.36603128435E+03  0.84009764279E+03  0.10491219266E+04  0.15294330000E+03 0.  0.
<mgrwt>
<rscale>  0 0.82091147E+03</rscale>
<asrwt>0</asrwt>
<pdfrwt beam="1">  1        2 0.19177492E+00 0.89739140E+03</pdfrwt>
<pdfrwt beam="2">  1       -2 0.17244616E+00 0.89739140E+03</pdfrwt>
<totfact> 0.36521942E+00</totfact>
</mgrwt>
</event>
<event>
 4    2  0.3855935E-007  0.8495946E+03  0.7818608E-02  0.9612348E-01
         -2   -1    0    0    0  501 -0.00000000000E+00  0.00000000000E+00  0.43742810359E+03  0.43742810359E+03  0.25500000000E-02 0.  1.
          2   -1    0    0  501    0  0.00000000000E+00 -0.00000000000E+00 -0.12378096566E+04  0.12378096566E+04  0.25500000000E-02 0. -1.
    8880023    1    1    2    0    0  0.53520432101E+03  0.39459319132E+02 -0.23645152884E+03  0.88188447931E+03  0.65864270000E+03 0.  0.
    8880022    1    1    2    0    0 -0.53520432101E+03 -0.39459319132E+02 -0.56393002414E+03  0.79335328085E+03  0.15294330000E+03 0.  0.
<mgrwt>
<rscale>  0 0.76484298E+03</rscale>
<asrwt>0</asrwt>
<pdfrwt beam="1">  1        2 0.19043225E+00 0.84959456E+03</pdfrwt>
<pdfrwt beam="2">  1       -2 0.67296632E-01 0.84959456E+03</pdfrwt>
<totfact> 0.36760988E+01</totfact>
</mgrwt>
</event>
<event>
 4    2  0.3855935E-007  0.8701901E+03  0.7818608E-02  0.9575688E-01
         -2   -1    0    0    0  501 -0.00000000000E+00  0.00000000000E+00  0.12833320977E+04  0.12833320977E+04  0.25500000000E-02 0.  1.
          2   -1    0    0  501    0  0.00000000000E+00 -0.00000000000E+00 -0.51787421214E+03  0.51787421215E+03  0.25500000000E-02 0. -1.
    8880023    1    1    2    0    0 -0.20775128936E+03 -0.52939584021E+03  0.83770618539E+03  0.12078834435E+04  0.65864270000E+03 0.  0.
    8880022    1    1    2    0    0  0.20775128936E+03  0.52939584021E+03 -0.72248299820E+02  0.59332286633E+03  0.15294330000E+03 0.  1.
<mgrwt>
<rscale>  0 0.78926417E+03</rscale>
<asrwt>0</asrwt>
<pdfrwt beam="1">  1        2 0.79672956E-01 0.87019007E+03</pdfrwt>
<pdfrwt beam="2">  1       -2 0.19743571E+00 0.87019007E+03</pdfrwt>
<totfact> 0.82263759E+00</totfact>
</mgrwt>
</event>
<event>
 4    2  0.3855935E-007  0.9244604E+03  0.7818608E-02  0.9487853E-01
         -2   -1    0    0    0  501 -0.00000000000E+00  0.00000000000E+00  0.80158431914E+03  0.80158431915E+03  0.25500000000E-02 0.  1.
          2   -1    0    0  501    0  0.00000000000E+00 -0.00000000000E+00 -0.26418644635E+04  0.26418644635E+04  0.25500000000E-02 0. -1.
    8880023    1    1    2    0    0  0.60957755286E+03  0.22188288224E+03 -0.24007708651E+04  0.25726110782E+04  0.65864270000E+03 0. -1.
    8880022    1    1    2    0    0 -0.60957755286E+03 -0.22188288224E+03  0.56049072080E+03  0.87083770445E+03  0.15294330000E+03 0.  0.
<mgrwt>
<rscale>  0 0.85185286E+03</rscale>
<asrwt>0</asrwt>
<pdfrwt beam="1">  1        2 0.40644068E+00 0.92446039E+03</pdfrwt>
<pdfrwt beam="2">  1       -2 0.12332067E+00 0.92446039E+03</pdfrwt>
<totfact> 0.14575175E+00</totfact>
</mgrwt>
</event>
<event>
 4    2  0.3855935E-007  0.6911385E+03  0.7818608E-02  0.1003616E+00
          2   -1    0    0  501    0  0.00000000000E+00  0.00000000000E+00  0.73872663781E+03  0.73872663781E+03  0.25500000000E-02 0. -1.
         -2   -1    0    0    0  501 -0.00000000000E+00 -0.00000000000E+00 -0.43294753053E+03  0.43294753054E+03  0.25500000000E-02 0.  1.
    8880023    1    1    2    0    0  0.34261747939E+02 -0.20661153454E+03 -0.91576797420E+02  0.69717910874E+03  0.65864270000E+03 0.  0.
    8880022    1    1    2    0    0 -0.34261747939E+02  0.20661153454E+03  0.39735590470E+03  0.47449505961E+03  0.15294330000E+03 0.  1.
<mgrwt>
<rscale>  0 0.54092673E+03</rscale>
<asrwt>0</asrwt>
<pdfrwt beam="1">  1        2 0.11365025E+00 0.69113848E+03</pdfrwt>
<pdfrwt beam="2">  1       -2 0.66607313E-01 0.69113848E+03</pdfrwt>
<totfact> 0.80528045E+01</totfact>
</mgrwt>
</event>
<event>
 4    2  0.3855935E-007  0.9161698E+03  0.7818608E-02  0.9500557E-01
          2   -1    0    0  501    0  0.00000000000E+00  0.00000000000E+00  0.14630754420E+04  0.14630754420E+04  0.25500000000E-02 0. -1.
         -2   -1    0    0    0  501 -0.00000000000E+00 -0.00000000000E+00 -0.46747344759E+03  0.46747344760E+03  0.25500000000E-02 0.  1.
    8880023    1    1    2    0    0 -0.17780269564E+03  0.61150880113E+03  0.27448539602E+03  0.95640433464E+03  0.65864270000E+03 0.  0.
    8880022    1    1    2    0    0  0.17780269564E+03 -0.61150880113E+03  0.72111659836E+03  0.97414455492E+03  0.15294330000E+03 0.  0.
<mgrwt>
<rscale>  0 0.84242763E+03</rscale>
<asrwt>0</asrwt>
<pdfrwt beam="1">  1        2 0.22508853E+00 0.91616975E+03</pdfrwt>
<pdfrwt beam="2">  1       -2 0.71918991E-01 0.91616975E+03</pdfrwt>
<totfact> 0.23457134E+01</totfact>
</mgrwt>
</event>
<event>
 4    2  0.3855935E-007  0.1172368E+04  0.7818608E-02  0.9184462E-01
          2   -1    0    0  501    0  0.00000000000E+00  0.00000000000E+00  0.35075114402E+04  0.35075114402E+04  0.25500000000E-02 0. -1.
         -2   -1    0    0    0  501 -0.00000000000E+00 -0.00000000000E+00 -0.35582567533E+03  0.35582567534E+03  0.25500000000E-02 0.  1.
    8880023    1    1    2    0    0 -0.87296862417E+03  0.42256589155E+03  0.11946263427E+04  0.16737916407E+04  0.65864270000E+03 0.  1.
    8880022    1    1    2    0    0  0.87296862417E+03 -0.42256589155E+03  0.19570594221E+04  0.21895454748E+04  0.15294330000E+03 0.  0.
<mgrwt>
<rscale>  0 0.11215254E+04</rscale>
<asrwt>0</asrwt>
<pdfrwt beam="1">  1        2 0.53961713E+00 0.11723678E+04</pdfrwt>
<pdfrwt beam="2">  1       -2 0.54742413E-01 0.11723678E+04</pdfrwt>
<totfact> 0.25498654E+00</totfact>
</mgrwt>
</event>
<event>
 4    2  0.3855935E-007  0.6689150E+03  0.7818608E-02  0.1016453E+00
          2   -1    0    0  501    0  0.00000000000E+00  0.00000000000E+00  0.11379084621E+04  0.11379084621E+04  0.25500000000E-02 0. -1.
         -2   -1    0    0    0  501 -0.00000000000E+00 -0.00000000000E+00 -0.22307167701E+03  0.22307167702E+03  0.25500000000E-02 0.  1.
    8880023    1    1    2    0    0 -0.11649149637E+03 -0.81695591522E+01  0.33115918882E+03  0.74640044549E+03  0.65864270000E+03 0.  1.
    8880022    1    1    2    0    0  0.11649149637E+03  0.81695591522E+01  0.58367759629E+03  0.61457969365E+03  0.15294330000E+03 0.  0.
<mgrwt>
<rscale>  0 0.48988646E+03</rscale>
<asrwt>0</asrwt>
<pdfrwt beam="1">  1        2 0.17506284E+00 0.66891495E+03</pdfrwt>
<pdfrwt beam="2">  1       -2 0.34318719E-01 0.66891495E+03</pdfrwt>
<totfact> 0.16716513E+02</totfact>
</mgrwt>
</event>
<event>
 4    2  0.3855935E-007  0.7320604E+03  0.7818608E-02  0.9883709E-01
         -2   -1    0    0    0  501 -0.00000000000E+00  0.00000000000E+00  0.31596296473E+03  0.31596296474E+03  0.25500000000E-02 0.  1.
          2   -1    0    0  501    0  0.00000000000E+00 -0.00000000000E+00 -0.25949991608E+04  0.25949991608E+04  0.25500000000E-02 0. -1.
    8880023    1    1    2    0    0 -0.31921794290E+03  0.14216036843E+02 -0.14318445623E+03  0.74593175663E+03  0.65864270000E+03 0.  1.
    8880022    1    1    2    0    0  0.31921794290E+03 -0.14216036843E+02 -0.21358517399E+04  0.21650303690E+04  0.15294330000E+03 0.  0.
<mgrwt>
<rscale>  0 0.61057354E+03</rscale>
<asrwt>0</asrwt>
<pdfrwt beam="1">  1        2 0.39923063E+00 0.73206038E+03</pdfrwt>
<pdfrwt beam="2">  1       -2 0.48609689E-01 0.73206038E+03</pdfrwt>
<totfact> 0.12935970E+01</totfact>
</mgrwt>
</event>
<event>
 4    2  0.3855935E-007  0.9759548E+03  0.7818608E-02  0.9413715E-01
          2   -1    0    0  501    0  0.00000000000E+00  0.00000000000E+00  0.24206821205E+04  0.24206821205E+04  0.25500000000E-02 0. -1.
         -2   -1    0    0    0  501 -0.00000000000E+00 -0.00000000000E+00 -0.45138244335E+03  0.45138244335E+03  0.25500000000E-02 0.  1.
    8880023    1    1    2    0    0 -0.22823936352E+03 -0.68306987588E+03  0.25856634859E+03  0.10096258838E+04  0.65864270000E+03 0.  0.
    8880022    1    1    2    0    0  0.22823936352E+03  0.68306987588E+03  0.17107333286E+04  0.18624386801E+04  0.15294330000E+03 0.  0.
<mgrwt>
<rscale>  0 0.90955538E+03</rscale>
<asrwt>0</asrwt>
<pdfrwt beam="1">  1        2 0.37241263E+00 0.97595485E+03</pdfrwt>
<pdfrwt beam="2">  1       -2 0.69443453E-01 0.97595485E+03</pdfrwt>
<totfact> 0.74105054E+00</totfact>
</mgrwt>
</event>
<event>
 4    2  0.3855935E-007  0.1130874E+04  0.7818608E-02  0.9227437E-01
         -2   -1    0    0    0  501 -0.00000000000E+00  0.00000000000E+00  0.52550108960E+03  0.52550108960E+03  0.25500000000E-02 0.  1.
          2   -1    0    0  501    0  0.00000000000E+00 -0.00000000000E+00 -0.21002551943E+04  0.21002551943E+04  0.25500000000E-02 0. -1.
    8880023    1    1    2    0    0  0.84097521516E+03 -0.37124846683E+03 -0.61201860395E+03  0.12858622455E+04  0.65864270000E+03 0. -1.
    8880022    1    1    2    0    0 -0.84097521516E+03  0.37124846683E+03 -0.96273550074E+03  0.13398940384E+04  0.15294330000E+03 0.  0.
<mgrwt>
<rscale>  0 0.10774671E+04</rscale>
<asrwt>0</asrwt>
<pdfrwt beam="1">  1        2 0.32311618E+00 0.11308735E+04</pdfrwt>
<pdfrwt beam="2">  1       -2 0.80846323E-01 0.11308735E+04</pdfrwt>
<totfact> 0.78434041E+00</totfact>
</mgrwt>
</event>
<event>
 4    2  0.3855935E-007  0.7554304E+03  0.7818608E-02  0.9817084E-01
          2   -1    0    0  501    0  0.00000000000E+00  0.00000000000E+00  0.53838991575E+03  0.53838991576E+03  0.25500000000E-02 0. -1.
         -2   -1    0    0    0  501 -0.00000000000E+00 -0.00000000000E+00 -0.74055716749E+03  0.74055716749E+03  0.25500000000E-02 0.  1.
    8880023    1    1    2    0    0  0.25109337301E+03  0.27169297010E+03 -0.37443409589E+03  0.84313465734E+03  0.65864270000E+03 0.  0.
    8880022    1    1    2    0    0 -0.25109337301E+03 -0.27169297010E+03  0.17226684415E+03  0.43581242591E+03  0.15294330000E+03 0.  0.
<mgrwt>
<rscale>  0 0.64453700E+03</rscale>
<asrwt>0</asrwt>
<pdfrwt beam="1">  1        2 0.82829218E-01 0.75543045E+03</pdfrwt>
<pdfrwt beam="2">  1       -2 0.11393187E+00 0.75543045E+03</pdfrwt>
<totfact> 0.34463952E+01</totfact>
</mgrwt>
</event>
<event>
 4    2  0.3855935E-007  0.7438464E+03  0.7818608E-02  0.9848881E-01
         -2   -1    0    0    0  501 -0.00000000000E+00  0.00000000000E+00  0.72942841943E+03  0.72942841943E+03  0.25500000000E-02 0.  1.
          2   -1    0    0  501    0  0.00000000000E+00 -0.00000000000E+00 -0.54001050170E+03  0.54001050170E+03  0.25500000000E-02 0. -1.
    8880023    1    1    2    0    0  0.30211541621E+03 -0.16799856713E+03  0.39173805479E+03  0.84069385219E+03  0.65864270000E+03 0.  0.
    8880022    1    1    2    0    0 -0.30211541621E+03  0.16799856713E+03 -0.20232013706E+03  0.42874506895E+03  0.15294330000E+03 0.  0.
<mgrwt>
<rscale>  0 0.62803993E+03</rscale>
<asrwt>0</asrwt>
<pdfrwt beam="1">  1        2 0.83078539E-01 0.74384639E+03</pdfrwt>
<pdfrwt beam="2">  1       -2 0.11221976E+00 0.74384639E+03</pdfrwt>
<totfact> 0.35662506E+01</totfact>
</mgrwt>
</event>
<event>
 4    2  0.3855935E-007  0.6636848E+03  0.7818608E-02  0.1020663E+00
          2   -1    0    0  501    0  0.00000000000E+00  0.00000000000E+00  0.13336715885E+04  0.13336715885E+04  0.25500000000E-02 0. -1.
         -2   -1    0    0    0  501 -0.00000000000E+00 -0.00000000000E+00 -0.22545333899E+03  0.22545333900E+03  0.25500000000E-02 0.  1.
    8880023    1    1    2    0    0  0.80298224825E+02 -0.14817488239E+02  0.29266802761E+03  0.72534966983E+03  0.65864270000E+03 0.  0.
    8880022    1    1    2    0    0 -0.80298224825E+02  0.14817488239E+02  0.81555022192E+03  0.83377525770E+03  0.15294330000E+03 0. -1.
<mgrwt>
<rscale>  0 0.47448039E+03</rscale>
<asrwt>0</asrwt>
<pdfrwt beam="1">  1        2 0.20518025E+00 0.66368484E+03</pdfrwt>
<pdfrwt beam="2">  1       -2 0.34685128E-01 0.66368484E+03</pdfrwt>
<totfact> 0.12595368E+02</totfact>
</mgrwt>
</event>
<event>
 4    2  0.3855935E-007  0.7837996E+03  0.7818608E-02  0.9746986E-01
         -2   -1    0    0    0  501 -0.00000000000E+00  0.00000000000E+00  0.28939998253E+03  0.28939998255E+03  0.25500000000E-02 0.  1.
          2   -1    0    0  501    0  0.00000000000E+00 -0.00000000000E+00 -0.21456978054E+04  0.21456978054E+04  0.25500000000E-02 0. -1.
    8880023    1    1    2    0    0 -0.35162251550E+03 -0.23852282433E+03 -0.34247104122E+03  0.85535264744E+03  0.65864270000E+03 0.  0.
    8880022    1    1    2    0    0  0.35162251550E+03  0.23852282433E+03 -0.15138267816E+04  0.15797451405E+04  0.15294330000E+03 0.  0.
<mgrwt>
<rscale>  0 0.68286851E+03</rscale>
<asrwt>0</asrwt>
<pdfrwt beam="1">  1        2 0.33010735E+00 0.78379955E+03</pdfrwt>
<pdfrwt beam="2">  1       -2 0.44523076E-01 0.78379955E+03</pdfrwt>
<totfact> 0.27332490E+01</totfact>
</mgrwt>
</event>
<event>
 4    2  0.3855935E-007  0.7139424E+03  0.7818608E-02  0.9943643E-01
          2   -1    0    0  501    0  0.00000000000E+00  0.00000000000E+00  0.16431338053E+04  0.16431338053E+04  0.25500000000E-02 0. -1.
         -2   -1    0    0    0  501 -0.00000000000E+00 -0.00000000000E+00 -0.10674383056E+04  0.10674383056E+04  0.25500000000E-02 0.  1.
    8880023    1    1    2    0    0 -0.84924411092E+01 -0.27537497300E+03 -0.92989704206E+03  0.11723575446E+04  0.65864270000E+03 0.  1.
    8880022    1    1    2    0    0  0.84924411092E+01  0.27537497300E+03  0.15055925417E+04  0.15382145663E+04  0.15294330000E+03 0.  0.
<mgrwt>
<rscale>  0 0.58192012E+03</rscale>
<asrwt>0</asrwt>
<pdfrwt beam="1">  1        2 0.25278981E+00 0.71394237E+03</pdfrwt>
<pdfrwt beam="2">  1       -2 0.16422128E+00 0.71394237E+03</pdfrwt>
<totfact> 0.25666464E+00</totfact>
</mgrwt>
</event>
<event>
 4    2  0.3855935E-007  0.7243432E+03  0.7818608E-02  0.9908155E-01
         -2   -1    0    0    0  501 -0.00000000000E+00  0.00000000000E+00  0.12784348480E+03  0.12784348483E+03  0.25500000000E-02 0.  1.
          2   -1    0    0  501    0  0.00000000000E+00 -0.00000000000E+00 -0.25228037252E+04  0.25228037252E+04  0.25500000000E-02 0. -1.
    8880023    1    1    2    0    0  0.11603694630E+03 -0.27820555275E+03 -0.11374880304E+04  0.13485370325E+04  0.65864270000E+03 0.  0.
    8880022    1    1    2    0    0 -0.11603694630E+03  0.27820555275E+03 -0.12574722100E+04  0.13021101775E+04  0.15294330000E+03 0.  0.
<mgrwt>
<rscale>  0 0.59867689E+03</rscale>
<asrwt>0</asrwt>
<pdfrwt beam="1">  1        2 0.38812361E+00 0.72434323E+03</pdfrwt>
<pdfrwt beam="2">  1       -2 0.19668230E-01 0.72434323E+03</pdfrwt>
<totfact> 0.77389443E+01</totfact>
</mgrwt>
</event>
<event>
 4    2  0.3855935E-007  0.7548484E+03  0.7818608E-02  0.9818632E-01
         -2   -1    0    0    0  501 -0.00000000000E+00  0.00000000000E+00  0.51705673922E+03  0.51705673923E+03  0.25500000000E-02 0.  1.
          2   -1    0    0  501    0  0.00000000000E+00 -0.00000000000E+00 -0.16303633577E+04  0.16303633578E+04  0.25500000000E-02 0. -1.
    8880023    1    1    2    0    0 -0.22689838591E+03 -0.29069406751E+03  0.19494217844E+03  0.77961437751E+03  0.65864270000E+03 0.  0.
    8880022    1    1    2    0    0  0.22689838591E+03  0.29069406751E+03 -0.13082487970E+04  0.13678057195E+04  0.15294330000E+03 0.  0.
<mgrwt>
<rscale>  0 0.64372179E+03</rscale>
<asrwt>0</asrwt>
<pdfrwt beam="1">  1        2 0.25082513E+00 0.75484841E+03</pdfrwt>
<pdfrwt beam="2">  1       -2 0.79547192E-01 0.75484841E+03</pdfrwt>
<totfact> 0.15406392E+01</totfact>
</mgrwt>
</event>
<event>
 4    2  0.3855935E-007  0.6589566E+03  0.7818608E-02  0.1025252E+00
          2   -1    0    0  501    0  0.00000000000E+00  0.00000000000E+00  0.10946953292E+04  0.10946953292E+04  0.25500000000E-02 0. -1.
         -2   -1    0    0    0  501 -0.00000000000E+00 -0.00000000000E+00 -0.24659893564E+03  0.24659893565E+03  0.25500000000E-02 0.  1.
    8880023    1    1    2    0    0 -0.36035097743E+01  0.20014845276E+02  0.22028454558E+03  0.69480145840E+03  0.65864270000E+03 0.  1.
    8880022    1    1    2    0    0  0.36035097743E+01 -0.20014845276E+02  0.62781184800E+03  0.64649280647E+03  0.15294330000E+03 0.  0.
<mgrwt>
<rscale>  0 0.45838105E+03</rscale>
<asrwt>0</asrwt>
<pdfrwt beam="1">  1        2 0.16841466E+00 0.65895659E+03</pdfrwt>
<pdfrwt beam="2">  1       -2 0.37938299E-01 0.65895659E+03</pdfrwt>
<totfact> 0.14670420E+02</totfact>
</mgrwt>
</event>
<event>
 4    2  0.3855935E-007  0.8163528E+03  0.7818608E-02  0.9676493E-01
         -2   -1    0    0    0  501 -0.00000000000E+00  0.00000000000E+00  0.28509674657E+03  0.28509674658E+03  0.25500000000E-02 0.  1.
          2   -1    0    0  501    0  0.00000000000E+00 -0.00000000000E+00 -0.26265829538E+04  0.26265829538E+04  0.25500000000E-02 0. -1.
    8880023    1    1    2    0    0 -0.12366220086E+03 -0.46618594901E+03 -0.40712947345E+03  0.91224245318E+03  0.65864270000E+03 0.  0.
    8880022    1    1    2    0    0  0.12366220086E+03  0.46618594901E+03 -0.19343567338E+04  0.19994372472E+04  0.15294330000E+03 0.  0.
<mgrwt>
<rscale>  0 0.72433794E+03</rscale>
<asrwt>0</asrwt>
<pdfrwt beam="1">  1        2 0.40408967E+00 0.81635279E+03</pdfrwt>
<pdfrwt beam="2">  1       -2 0.43861040E-01 0.81635279E+03</pdfrwt>
<totfact> 0.15044687E+01</totfact>
</mgrwt>
</event>
<event>
 4    2  0.3855935E-007  0.7180581E+03  0.7818608E-02  0.9929212E-01
         -2   -1    0    0    0  501 -0.00000000000E+00  0.00000000000E+00  0.29228061938E+03  0.29228061939E+03  0.25500000000E-02 0.  1.
          2   -1    0    0  501    0  0.00000000000E+00 -0.00000000000E+00 -0.16794750047E+04  0.16794750047E+04  0.25500000000E-02 0. -1.
    8880023    1    1    2    0    0  0.43351668488E+02 -0.28269753958E+03 -0.20626049816E+03  0.74709495073E+03  0.65864270000E+03 0.  1.
    8880022    1    1    2    0    0 -0.43351668488E+02  0.28269753958E+03 -0.11809338872E+04  0.12246606734E+04  0.15294330000E+03 0.  0.
<mgrwt>
<rscale>  0 0.58866193E+03</rscale>
<asrwt>0</asrwt>
<pdfrwt beam="1">  1        2 0.25838077E+00 0.71805813E+03</pdfrwt>
<pdfrwt beam="2">  1       -2 0.44966250E-01 0.71805813E+03</pdfrwt>
<totfact> 0.48559193E+01</totfact>
</mgrwt>
</event>
<event>
 4    2  0.3855935E-007  0.8262413E+03  0.7818608E-02  0.9656690E-01
         -2   -1    0    0    0  501 -0.00000000000E+00  0.00000000000E+00  0.24456637016E+04  0.24456637016E+04  0.25500000000E-02 0.  1.
          2   -1    0    0  501    0  0.00000000000E+00 -0.00000000000E+00 -0.55153744389E+03  0.55153744389E+03  0.25500000000E-02 0. -1.
    8880023    1    1    2    0    0 -0.12175303833E+02 -0.49871457975E+03  0.22289975593E+04  0.23772052490E+04  0.65864270000E+03 0.  1.
    8880022    1    1    2    0    0  0.12175303833E+02  0.49871457975E+03 -0.33487130158E+03  0.61999589653E+03  0.15294330000E+03 0.  0.
<mgrwt>
<rscale>  0 0.73655025E+03</rscale>
<asrwt>0</asrwt>
<pdfrwt beam="1">  1        2 0.84851915E-01 0.82624129E+03</pdfrwt>
<pdfrwt beam="2">  1       -2 0.37625595E+00 0.82624129E+03</pdfrwt>
<totfact> 0.60717404E-01</totfact>
</mgrwt>
</event>
<event>
 4    2  0.4004359E-007  0.8212310E+03  0.7818608E-02  0.9666641E-01
         -2   -1    0    0    0  501 -0.00000000000E+00  0.00000000000E+00  0.13305556313E+04  0.13305556314E+04  0.25500000000E-02 0.  1.
          2   -1    0    0  501    0  0.00000000000E+00 -0.00000000000E+00 -0.16788568743E+04  0.16788568743E+04  0.25500000000E-02 0. -1.
    8880023    1    1    2    0    0  0.45166300719E+03  0.19133912217E+03  0.11570052525E+04  0.14188310302E+04  0.65864270000E+03 0.  1.
    8880022    1    1    2    0    0 -0.45166300719E+03 -0.19133912217E+03 -0.15053064954E+04  0.15905814754E+04  0.15294330000E+03 0.  0.
<mgrwt>
<rscale>  0 0.73038165E+03</rscale>
<asrwt>0</asrwt>
<pdfrwt beam="1">  1        2 0.25828567E+00 0.82123099E+03</pdfrwt>
<pdfrwt beam="2">  1       -2 0.20470087E+00 0.82123099E+03</pdfrwt>
<totfact> 0.12779987E+00</totfact>
</mgrwt>
</event>
<event>
 4    2  0.5013041E-007  0.1060362E+04  0.7818608E-02  0.9306527E-01
         -2   -1    0    0    0  501 -0.00000000000E+00  0.00000000000E+00  0.10835311171E+04  0.10835311171E+04  0.25500000000E-02 0.  1.
          2   -1    0    0  501    0  0.00000000000E+00 -0.00000000000E+00 -0.28166897028E+04  0.28166897028E+04  0.25500000000E-02 0. -1.
    8880023    1    1    2    0    0 -0.39238398796E+03  0.73252470841E+03  0.73582149668E+03  0.12906591818E+04  0.65864270000E+03 0.  1.
    8880022    1    1    2    0    0  0.39238398796E+03 -0.73252470841E+03 -0.24689800824E+04  0.26095616380E+04  0.15294330000E+03 0.  0.
<mgrwt>
<rscale>  0 0.10018416E+04</rscale>
<asrwt>0</asrwt>
<pdfrwt beam="1">  1        2 0.43333688E+00 0.10603621E+04</pdfrwt>
<pdfrwt beam="2">  1       -2 0.16669710E+00 0.10603621E+04</pdfrwt>
<totfact> 0.50945147E-01</totfact>
</mgrwt>
</event>
<event>
 4    2  0.3855935E-007  0.8333112E+03  0.7818608E-02  0.9642924E-01
          2   -1    0    0  501    0  0.00000000000E+00  0.00000000000E+00  0.23437287421E+04  0.23437287421E+04  0.25500000000E-02 0. -1.
         -2   -1    0    0    0  501 -0.00000000000E+00 -0.00000000000E+00 -0.27830533874E+03  0.27830533875E+03  0.25500000000E-02 0.  1.
    8880023    1    1    2    0    0  0.13798410497E+03 -0.49148527168E+03  0.50796603598E+03  0.97592883218E+03  0.65864270000E+03 0.  1.
    8880022    1    1    2    0    0 -0.13798410497E+03  0.49148527168E+03  0.15574573674E+04  0.16461052487E+04  0.15294330000E+03 0.  0.
<mgrwt>
<rscale>  0 0.74519189E+03</rscale>
<asrwt>0</asrwt>
<pdfrwt beam="1">  1        2 0.36057365E+00 0.83331122E+03</pdfrwt>
<pdfrwt beam="2">  1       -2 0.42816206E-01 0.83331122E+03</pdfrwt>
<totfact> 0.22790750E+01</totfact>
</mgrwt>
</event>
<event>
 4    2  0.3855935E-007  0.6672572E+03  0.7818608E-02  0.1017710E+00
         -2   -1    0    0    0  501 -0.00000000000E+00  0.00000000000E+00  0.36339209807E+03  0.36339209808E+03  0.25500000000E-02 0.  1.
          2   -1    0    0  501    0  0.00000000000E+00 -0.00000000000E+00 -0.87142488069E+03  0.87142488069E+03  0.25500000000E-02 0. -1.
    8880023    1    1    2    0    0 -0.49279224983E+02  0.94834365442E+02  0.27385820160E+02  0.66781897869E+03  0.65864270000E+03 0.  1.
    8880022    1    1    2    0    0  0.49279224983E+02 -0.94834365442E+02 -0.53541860278E+03  0.56699800008E+03  0.15294330000E+03 0.  0.
<mgrwt>
<rscale>  0 0.48521996E+03</rscale>
<asrwt>0</asrwt>
<pdfrwt beam="1">  1        2 0.13406537E+00 0.66725723E+03</pdfrwt>
<pdfrwt beam="2">  1       -2 0.55906477E-01 0.66725723E+03</pdfrwt>
<totfact> 0.93922537E+01</totfact>
</mgrwt>
</event>
<event>
 4    2  0.3855935E-007  0.1012349E+04  0.7818608E-02  0.9365577E-01
          2   -1    0    0  501    0  0.00000000000E+00  0.00000000000E+00  0.25285790800E+04  0.25285790800E+04  0.25500000000E-02 0. -1.
         -2   -1    0    0    0  501 -0.00000000000E+00 -0.00000000000E+00 -0.40702082383E+03  0.40702082384E+03  0.25500000000E-02 0.  1.
    8880023    1    1    2    0    0  0.27901464040E+03 -0.71637293217E+03  0.48825567150E+03  0.11239409035E+04  0.65864270000E+03 0.  0.
    8880022    1    1    2    0    0 -0.27901464040E+03  0.71637293217E+03  0.16333025846E+04  0.18116590003E+04  0.15294330000E+03 0.  0.
<mgrwt>
<rscale>  0 0.94963494E+03</rscale>
<asrwt>0</asrwt>
<pdfrwt beam="1">  1        2 0.38901216E+00 0.10123485E+04</pdfrwt>
<pdfrwt beam="2">  1       -2 0.62618590E-01 0.10123485E+04</pdfrwt>
<totfact> 0.80079409E+00</totfact>
</mgrwt>
</event>
<event>
 4    2  0.3855935E-007  0.6616572E+03  0.7818608E-02  0.1022519E+00
          2   -1    0    0  501    0  0.00000000000E+00  0.00000000000E+00  0.31737514965E+04  0.31737514965E+04  0.25500000000E-02 0. -1.
         -2   -1    0    0    0  501 -0.00000000000E+00 -0.00000000000E+00 -0.65847587525E+02  0.65847587574E+02  0.25500000000E-02 0.  1.
    8880023    1    1    2    0    0  0.60741467355E+02  0.17045160153E+02  0.17370669369E+04  0.18588146257E+04  0.65864270000E+03 0.  1.
    8880022    1    1    2    0    0 -0.60741467355E+02 -0.17045160153E+02  0.13708369722E+04  0.13807844584E+04  0.15294330000E+03 0.  0.
<mgrwt>
<rscale>  0 0.46788330E+03</rscale>
<asrwt>0</asrwt>
<pdfrwt beam="1">  1        2 0.48826942E+00 0.66165721E+03</pdfrwt>
<pdfrwt beam="2">  1       -2 0.10130399E-01 0.66165721E+03</pdfrwt>
<totfact> 0.97468261E+01</totfact>
</mgrwt>
</event>
<event>
 4    2  0.3855935E-007  0.9713084E+03  0.7818608E-02  0.9420097E-01
         -2   -1    0    0    0  501 -0.00000000000E+00  0.00000000000E+00  0.10601057064E+04  0.10601057064E+04  0.25500000000E-02 0.  1.
          2   -1    0    0  501    0  0.00000000000E+00 -0.00000000000E+00 -0.21403754633E+04  0.21403754633E+04  0.25500000000E-02 0. -1.
    8880023    1    1    2    0    0  0.19211393410E+03  0.68754780658E+03  0.75182012312E+03  0.12282806902E+04  0.65864270000E+03 0.  1.
    8880022    1    1    2    0    0 -0.19211393410E+03 -0.68754780658E+03 -0.18320898800E+04  0.19722004795E+04  0.15294330000E+03 0.  0.
<mgrwt>
<rscale>  0 0.90440078E+03</rscale>
<asrwt>0</asrwt>
<pdfrwt beam="1">  1        2 0.32928853E+00 0.97130837E+03</pdfrwt>
<pdfrwt beam="2">  1       -2 0.16309319E+00 0.97130837E+03</pdfrwt>
<totfact> 0.13384263E+00</totfact>
</mgrwt>
</event>
<event>
 4    2  0.6968083E-007  0.7912243E+03  0.7818608E-02  0.9730102E-01
         -2   -1    0    0    0  501 -0.00000000000E+00  0.00000000000E+00  0.14288153849E+04  0.14288153849E+04  0.25500000000E-02 0.  1.
          2   -1    0    0  501    0  0.00000000000E+00 -0.00000000000E+00 -0.17272921893E+04  0.17272921893E+04  0.25500000000E-02 0. -1.
    8880023    1    1    2    0    0 -0.37532126075E+03  0.22662676527E+03  0.12832834891E+04  0.15075982420E+04  0.65864270000E+03 0.  1.
    8880022    1    1    2    0    0  0.37532126075E+03 -0.22662676527E+03 -0.15817602935E+04  0.16485093323E+04  0.15294330000E+03 0.  0.
<mgrwt>
<rscale>  0 0.69252459E+03</rscale>
<asrwt>0</asrwt>
<pdfrwt beam="1">  1        2 0.26573726E+00 0.79122433E+03</pdfrwt>
<pdfrwt beam="2">  1       -2 0.21981775E+00 0.79122433E+03</pdfrwt>
<totfact> 0.96886182E-01</totfact>
</mgrwt>
</event>
<event>
 4    2  0.3855935E-007  0.6683637E+03  0.7818608E-02  0.1016864E+00
          2   -1    0    0  501    0  0.00000000000E+00  0.00000000000E+00  0.16991017162E+04  0.16991017162E+04  0.25500000000E-02 0. -1.
         -2   -1    0    0    0  501 -0.00000000000E+00 -0.00000000000E+00 -0.84432031257E+03  0.84432031258E+03  0.25500000000E-02 0.  1.
    8880023    1    1    2    0    0  0.68987402921E+02  0.90224723112E+02 -0.70534332056E+03  0.97170940540E+03  0.65864270000E+03 0.  1.
    8880022    1    1    2    0    0 -0.68987402921E+02 -0.90224723112E+02  0.15601247242E+04  0.15717126234E+04  0.15294330000E+03 0.  0.
<mgrwt>
<rscale>  0 0.48835440E+03</rscale>
<asrwt>0</asrwt>
<pdfrwt beam="1">  1        2 0.26140026E+00 0.66836365E+03</pdfrwt>
<pdfrwt beam="2">  1       -2 0.12989543E+00 0.66836365E+03</pdfrwt>
<totfact> 0.44605575E+00</totfact>
</mgrwt>
</event>
<event>
 4    2  0.3855935E-007  0.8036876E+03  0.7818608E-02  0.9702879E-01
         -2   -1    0    0    0  501 -0.00000000000E+00  0.00000000000E+00  0.21546835633E+04  0.21546835633E+04  0.25500000000E-02 0.  1.
          2   -1    0    0  501    0  0.00000000000E+00 -0.00000000000E+00 -0.31781298034E+03  0.31781298035E+03  0.25500000000E-02 0. -1.
    8880023    1    1    2    0    0 -0.81639373253E+02  0.45325331695E+03  0.18170048434E+04  0.19868116075E+04  0.65864270000E+03 0.  1.
    8880022    1    1    2    0    0  0.81639373253E+02 -0.45325331695E+03  0.19865739608E+02  0.48568493616E+03  0.15294330000E+03 0.  0.
<mgrwt>
<rscale>  0 0.70845654E+03</rscale>
<asrwt>0</asrwt>
<pdfrwt beam="1">  1        2 0.48894305E-01 0.80368760E+03</pdfrwt>
<pdfrwt beam="2">  1       -2 0.33148977E+00 0.80368760E+03</pdfrwt>
<totfact> 0.21747236E+00</totfact>
</mgrwt>
</event>
<event>
 4    2  0.3855935E-007  0.7699532E+03  0.7818608E-02  0.9779989E-01
         -2   -1    0    0    0  501 -0.00000000000E+00  0.00000000000E+00  0.51321163453E+03  0.51321163454E+03  0.25500000000E-02 0.  1.
          2   -1    0    0  501    0  0.00000000000E+00 -0.00000000000E+00 -0.26593837425E+04  0.26593837425E+04  0.25500000000E-02 0. -1.
    8880023    1    1    2    0    0 -0.39234876141E+03 -0.71275478076E+02  0.19379755588E+03  0.79396816264E+03  0.65864270000E+03 0.  1.
    8880022    1    1    2    0    0  0.39234876141E+03  0.71275478076E+02 -0.23399696639E+04  0.23786272144E+04  0.15294330000E+03 0.  0.
<mgrwt>
<rscale>  0 0.66447578E+03</rscale>
<asrwt>0</asrwt>
<pdfrwt beam="1">  1        2 0.40913595E+00 0.76995321E+03</pdfrwt>
<pdfrwt beam="2">  1       -2 0.78955638E-01 0.76995321E+03</pdfrwt>
<totfact> 0.42013192E+00</totfact>
</mgrwt>
</event>
<event>
 4    2  0.3855935E-007  0.6641401E+03  0.7818608E-02  0.1020266E+00
         -2   -1    0    0    0  501 -0.00000000000E+00  0.00000000000E+00  0.12479447333E+03  0.12479447335E+03  0.25500000000E-02 0.  1.
          2   -1    0    0  501    0  0.00000000000E+00 -0.00000000000E+00 -0.15470859383E+04  0.15470859383E+04  0.25500000000E-02 0. -1.
    8880023    1    1    2    0    0  0.48313921876E+02  0.70268569312E+02 -0.88308808918E+03  0.11049555133E+04  0.65864270000E+03 0.  1.
    8880022    1    1    2    0    0 -0.48313921876E+02 -0.70268569312E+02 -0.53920337577E+03  0.56692489832E+03  0.15294330000E+03 0.  0.
<mgrwt>
<rscale>  0 0.47590757E+03</rscale>
<asrwt>0</asrwt>
<pdfrwt beam="1">  1        2 0.23801321E+00 0.66414013E+03</pdfrwt>
<pdfrwt beam="2">  1       -2 0.19199151E-01 0.66414013E+03</pdfrwt>
<totfact> 0.27938543E+02</totfact>
</mgrwt>
</event>
<event>
 4    2  0.3855935E-007  0.6870800E+03  0.7818608E-02  0.1005572E+00
         -2   -1    0    0    0  501 -0.00000000000E+00  0.00000000000E+00  0.15066813524E+04  0.15066813524E+04  0.25500000000E-02 0.  1.
          2   -1    0    0  501    0  0.00000000000E+00 -0.00000000000E+00 -0.62243617369E+03  0.62243617369E+03  0.25500000000E-02 0. -1.
    8880023    1    1    2    0    0  0.19069017878E+03  0.43657375857E+02  0.13984353764E+04  0.15581079612E+04  0.65864270000E+03 0.  1.
    8880022    1    1    2    0    0 -0.19069017878E+03 -0.43657375857E+02 -0.51419019766E+03  0.57100956484E+03  0.15294330000E+03 0.  0.
<mgrwt>
<rscale>  0 0.53272888E+03</rscale>
<asrwt>0</asrwt>
<pdfrwt beam="1">  1        2 0.95759412E-01 0.68707999E+03</pdfrwt>
<pdfrwt beam="2">  1       -2 0.23179713E+00 0.68707999E+03</pdfrwt>
<totfact> 0.40910396E+00</totfact>
</mgrwt>
</event>
<event>
 4    2  0.3855935E-007  0.7468380E+03  0.7818608E-02  0.9840458E-01
          2   -1    0    0  501    0  0.00000000000E+00  0.00000000000E+00  0.30700855280E+03  0.30700855281E+03  0.25500000000E-02 0. -1.
         -2   -1    0    0    0  501 -0.00000000000E+00 -0.00000000000E+00 -0.11569762283E+04  0.11569762283E+04  0.25500000000E-02 0.  1.
    8880023    1    1    2    0    0  0.35191892713E+03  0.10478106389E+02 -0.76842124671E+03  0.10715587434E+04  0.65864270000E+03 0.  0.
    8880022    1    1    2    0    0 -0.35191892713E+03 -0.10478106389E+02 -0.81546428793E+02  0.39242603768E+03  0.15294330000E+03 0.  0.
<mgrwt>
<rscale>  0 0.63235791E+03</rscale>
<asrwt>0</asrwt>
<pdfrwt beam="1">  1        2 0.47232086E-01 0.74683795E+03</pdfrwt>
<pdfrwt beam="2">  1       -2 0.17799634E+00 0.74683795E+03</pdfrwt>
<totfact> 0.20328797E+01</totfact>
</mgrwt>
</event>
<event>
 4    2  0.3855935E-007  0.1042658E+04  0.7818608E-02  0.9327759E-01
         -2   -1    0    0    0  501 -0.00000000000E+00  0.00000000000E+00  0.74139558265E+03  0.74139558265E+03  0.25500000000E-02 0.  1.
          2   -1    0    0  501    0  0.00000000000E+00 -0.00000000000E+00 -0.27664271595E+04  0.27664271595E+04  0.25500000000E-02 0. -1.
    8880023    1    1    2    0    0  0.67816793710E+03 -0.43978941571E+03  0.26391523008E+03  0.10755407645E+04  0.65864270000E+03 0.  0.
    8880022    1    1    2    0    0 -0.67816793710E+03  0.43978941571E+03 -0.22889468069E+04  0.24322819777E+04  0.15294330000E+03 0.  0.
<mgrwt>
<rscale>  0 0.98266963E+03</rscale>
<asrwt>0</asrwt>
<pdfrwt beam="1">  1        2 0.42560417E+00 0.10426585E+04</pdfrwt>
<pdfrwt beam="2">  1       -2 0.11406086E+00 0.10426585E+04</pdfrwt>
<totfact> 0.14669458E+00</totfact>
</mgrwt>
</event>
<event>
 4    2  0.3855935E-007  0.7152156E+03  0.7818608E-02  0.9939120E-01
          2   -1    0    0  501    0  0.00000000000E+00  0.00000000000E+00  0.21671194987E+04  0.21671194987E+04  0.25500000000E-02 0. -1.
         -2   -1    0    0    0  501 -0.00000000000E+00 -0.00000000000E+00 -0.22127340395E+03  0.22127340397E+03  0.25500000000E-02 0.  1.
    8880023    1    1    2    0    0  0.23642763360E+02 -0.27778448594E+03  0.41926538652E+03  0.82904575959E+03  0.65864270000E+03 0.  0.
    8880022    1    1    2    0    0 -0.23642763360E+02  0.27778448594E+03  0.15265807082E+04  0.15593471431E+04  0.15294330000E+03 0.  0.
<mgrwt>
<rscale>  0 0.58402256E+03</rscale>
<asrwt>0</asrwt>
<pdfrwt beam="1">  1        2 0.33340300E+00 0.71521564E+03</pdfrwt>
<pdfrwt beam="2">  1       -2 0.34042062E-01 0.71521564E+03</pdfrwt>
<totfact> 0.45195663E+01</totfact>
</mgrwt>
</event>
<event>
 4    2  0.3855935E-007  0.7523470E+03  0.7818608E-02  0.9825339E-01
          2   -1    0    0  501    0  0.00000000000E+00  0.00000000000E+00  0.59127316498E+03  0.59127316498E+03  0.25500000000E-02 0. -1.
         -2   -1    0    0    0  501 -0.00000000000E+00 -0.00000000000E+00 -0.57017170371E+03  0.57017170371E+03  0.25500000000E-02 0.  1.
    8880023    1    1    2    0    0  0.35937993753E+03 -0.55334740840E+02  0.10059862064E+03  0.75904292486E+03  0.65864270000E+03 0. -1.
    8880022    1    1    2    0    0 -0.35937993753E+03  0.55334740840E+02 -0.79497159369E+02  0.40240194384E+03  0.15294330000E+03 0.  1.
<mgrwt>
<rscale>  0 0.64020268E+03</rscale>
<asrwt>0</asrwt>
<pdfrwt beam="1">  1        2 0.90965102E-01 0.75234705E+03</pdfrwt>
<pdfrwt beam="2">  1       -2 0.87718724E-01 0.75234705E+03</pdfrwt>
<totfact> 0.57276718E+01</totfact>
</mgrwt>
</event>
<event>
 4    2  0.3855935E-007  0.7376239E+03  0.7818608E-02  0.9866923E-01
          2   -1    0    0  501    0  0.00000000000E+00  0.00000000000E+00  0.88771759241E+03  0.88771759242E+03  0.25500000000E-02 0. -1.
         -2   -1    0    0    0  501 -0.00000000000E+00 -0.00000000000E+00 -0.85027619371E+03  0.85027619371E+03  0.25500000000E-02 0.  1.
    8880023    1    1    2    0    0  0.15954971676E+03 -0.29124345193E+03 -0.63453365061E+03  0.97299641337E+03  0.65864270000E+03 0.  1.
    8880022    1    1    2    0    0 -0.15954971676E+03  0.29124345193E+03  0.67197504931E+03  0.76499737276E+03  0.15294330000E+03 0.  0.
<mgrwt>
<rscale>  0 0.61891456E+03</rscale>
<asrwt>0</asrwt>
<pdfrwt beam="1">  1        2 0.13657194E+00 0.73762393E+03</pdfrwt>
<pdfrwt beam="2">  1       -2 0.13081172E+00 0.73762393E+03</pdfrwt>
<totfact> 0.13000686E+01</totfact>
</mgrwt>
</event>
<event>
 4    2  0.3855935E-007  0.9010708E+03  0.7818608E-02  0.9524315E-01
         -2   -1    0    0    0  501 -0.00000000000E+00  0.00000000000E+00  0.42134205356E+03  0.42134205357E+03  0.25500000000E-02 0.  1.
          2   -1    0    0  501    0  0.00000000000E+00 -0.00000000000E+00 -0.32837495743E+04  0.32837495743E+04  0.25500000000E-02 0. -1.
    8880023    1    1    2    0    0 -0.46400210212E+03  0.40351002795E+03 -0.14240119820E+03  0.91225358368E+03  0.65864270000E+03 0.  0.
    8880022    1    1    2    0    0  0.46400210212E+03 -0.40351002795E+03 -0.27200063226E+04  0.27928380442E+04  0.15294330000E+03 0.  0.
<mgrwt>
<rscale>  0 0.82514678E+03</rscale>
<asrwt>0</asrwt>
<pdfrwt beam="1">  1        2 0.50519223E+00 0.90107075E+03</pdfrwt>
<pdfrwt beam="2">  1       -2 0.64821857E-01 0.90107075E+03</pdfrwt>
<totfact> 0.26256766E+00</totfact>
</mgrwt>
</event>
<event>
 4    2  0.3855935E-007  0.1038939E+04  0.7818608E-02  0.9332298E-01
          2   -1    0    0  501    0  0.00000000000E+00  0.00000000000E+00  0.19402663965E+04  0.19402663965E+04  0.25500000000E-02 0. -1.
         -2   -1    0    0    0  501 -0.00000000000E+00 -0.00000000000E+00 -0.51832128386E+03  0.51832128386E+03  0.25500000000E-02 0.  1.
    8880023    1    1    2    0    0 -0.12475330661E+03  0.79373870680E+03  0.32164473928E+03  0.10875891075E+04  0.65864270000E+03 0.  0.
    8880022    1    1    2    0    0  0.12475330661E+03 -0.79373870680E+03  0.11003003734E+04  0.13709985729E+04  0.15294330000E+03 0.  0.
<mgrwt>
<rscale>  0 0.97863094E+03</rscale>
<asrwt>0</asrwt>
<pdfrwt beam="1">  1        2 0.29850252E+00 0.10389392E+04</pdfrwt>
<pdfrwt beam="2">  1       -2 0.79741736E-01 0.10389392E+04</pdfrwt>
<totfact> 0.10013900E+01</totfact>
</mgrwt>
</event>
<event>
 4    2  0.3855935E-007  0.6869298E+03  0.7818608E-02  0.1005647E+00
          2   -1    0    0  501    0  0.00000000000E+00  0.00000000000E+00  0.37498494351E+04  0.37498494351E+04  0.25500000000E-02 0. -1.
         -2   -1    0    0    0  501 -0.00000000000E+00 -0.00000000000E+00 -0.18539095544E+03  0.18539095546E+03  0.25500000000E-02 0.  1.
    8880023    1    1    2    0    0  0.39233428252E+02 -0.19111022773E+03  0.47339304914E+03  0.83425030193E+03  0.65864270000E+03 0.  1.
    8880022    1    1    2    0    0 -0.39233428252E+02  0.19111022773E+03  0.30910654306E+04  0.31009900887E+04  0.15294330000E+03 0.  0.
<mgrwt>
<rscale>  0 0.53241843E+03</rscale>
<asrwt>0</asrwt>
<pdfrwt beam="1">  1        2 0.57689990E+00 0.68692983E+03</pdfrwt>
<pdfrwt beam="2">  1       -2 0.28521686E-01 0.68692983E+03</pdfrwt>
<totfact> 0.66795930E+00</totfact>
</mgrwt>
</event>
<event>
 4    2  0.3855935E-007  0.8032550E+03  0.7818608E-02  0.9703802E-01
          2   -1    0    0  501    0  0.00000000000E+00  0.00000000000E+00  0.14708355638E+04  0.14708355638E+04  0.25500000000E-02 0. -1.
         -2   -1    0    0    0  501 -0.00000000000E+00 -0.00000000000E+00 -0.36450742010E+03  0.36450742010E+03  0.25500000000E-02 0.  1.
    8880023    1    1    2    0    0 -0.73175659724E+02 -0.45393139209E+03  0.23261915577E+03  0.83625968682E+03  0.65864270000E+03 0.  1.
    8880022    1    1    2    0    0  0.73175659724E+02  0.45393139209E+03  0.87370898789E+03  0.99908329705E+03  0.15294330000E+03 0.  0.
<mgrwt>
<rscale>  0 0.70790886E+03</rscale>
<asrwt>0</asrwt>
<pdfrwt beam="1">  1        2 0.22628240E+00 0.80325500E+03</pdfrwt>
<pdfrwt beam="2">  1       -2 0.56078063E-01 0.80325500E+03</pdfrwt>
<totfact> 0.40012926E+01</totfact>
</mgrwt>
</event>
<event>
 4    2  0.3855935E-007  0.6652002E+03  0.7818608E-02  0.1019366E+00
         -2   -1    0    0    0  501 -0.00000000000E+00  0.00000000000E+00  0.21920021247E+03  0.21920021248E+03  0.25500000000E-02 0.  1.
          2   -1    0    0  501    0  0.00000000000E+00 -0.00000000000E+00 -0.18589620512E+04  0.18589620512E+04  0.25500000000E-02 0. -1.
    8880023    1    1    2    0    0  0.15869950005E+02  0.91810726417E+02 -0.30561004198E+03  0.73204423966E+03  0.65864270000E+03 0.  1.
    8880022    1    1    2    0    0 -0.15869950005E+02 -0.91810726417E+02 -0.13341517967E+04  0.13461180240E+04  0.15294330000E+03 0.  0.
<mgrwt>
<rscale>  0 0.47916075E+03</rscale>
<asrwt>0</asrwt>
<pdfrwt beam="1">  1        2 0.28599415E+00 0.66520017E+03</pdfrwt>
<pdfrwt beam="2">  1       -2 0.33723111E-01 0.66520017E+03</pdfrwt>
<totfact> 0.68170385E+01</totfact>
</mgrwt>
</event>
<event>
 4    2  0.3855935E-007  0.6759025E+03  0.7818608E-02  0.1011743E+00
         -2   -1    0    0    0  501 -0.00000000000E+00  0.00000000000E+00  0.30010788904E+03  0.30010788905E+03  0.25500000000E-02 0.  1.
          2   -1    0    0  501    0  0.00000000000E+00 -0.00000000000E+00 -0.18716182904E+04  0.18716182904E+04  0.25500000000E-02 0. -1.
    8880023    1    1    2    0    0  0.72579407879E+02 -0.13329020922E+03 -0.17600795529E+04  0.18853976475E+04  0.65864270000E+03 0. -1.
    8880022    1    1    2    0    0 -0.72579407879E+02  0.13329020922E+03  0.18856915152E+03  0.28632853200E+03  0.15294330000E+03 0.  0.
<mgrwt>
<rscale>  0 0.50787622E+03</rscale>
<asrwt>0</asrwt>
<pdfrwt beam="1">  1        2 0.28794127E+00 0.67590255E+03</pdfrwt>
<pdfrwt beam="2">  1       -2 0.46170446E-01 0.67590255E+03</pdfrwt>
<totfact> 0.36394525E+01</totfact>
</mgrwt>
</event>
<event>
 4    2  0.3855935E-007  0.1038428E+04  0.7818608E-02  0.9332924E-01
         -2   -1    0    0    0  501 -0.00000000000E+00  0.00000000000E+00  0.21309069097E+04  0.21309069098E+04  0.25500000000E-02 0.  1.
          2   -1    0    0  501    0  0.00000000000E+00 -0.00000000000E+00 -0.54059683095E+03  0.54059683096E+03  0.25500000000E-02 0. -1.
    8880023    1    1    2    0    0  0.75250986242E+03 -0.27973304725E+03  0.15338405260E+04  0.18522955046E+04  0.65864270000E+03 0. -1.
    8880022    1    1    2    0    0 -0.75250986242E+03  0.27973304725E+03  0.56469552813E+02  0.81920823615E+03  0.15294330000E+03 0.  0.
<mgrwt>
<rscale>  0 0.97807505E+03</rscale>
<asrwt>0</asrwt>
<pdfrwt beam="1">  1        2 0.83168744E-01 0.10384276E+04</pdfrwt>
<pdfrwt beam="2">  1       -2 0.32783183E+00 0.10384276E+04</pdfrwt>
<totfact> 0.12104239E+00</totfact>
</mgrwt>
</event>
<event>
 4    2  0.3855935E-007  0.8386521E+03  0.7818608E-02  0.9632727E-01
          2   -1    0    0  501    0  0.00000000000E+00  0.00000000000E+00  0.15747367625E+04  0.15747367625E+04  0.25500000000E-02 0. -1.
         -2   -1    0    0    0  501 -0.00000000000E+00 -0.00000000000E+00 -0.12924281667E+04  0.12924281667E+04  0.25500000000E-02 0.  1.
    8880023    1    1    2    0    0  0.33367163782E+03 -0.39773157028E+03 -0.10996787962E+04  0.13829789676E+04  0.65864270000E+03 0.  1.
    8880022    1    1    2    0    0 -0.33367163782E+03  0.39773157028E+03  0.13819873920E+04  0.14841859615E+04  0.15294330000E+03 0.  0.
<mgrwt>
<rscale>  0 0.75167446E+03</rscale>
<asrwt>0</asrwt>
<pdfrwt beam="1">  1        2 0.24226719E+00 0.83865212E+03</pdfrwt>
<pdfrwt beam="2">  1       -2 0.19883510E+00 0.83865212E+03</pdfrwt>
<totfact> 0.15878140E+00</totfact>
</mgrwt>
</event>
<event>
 4    2  0.3855935E-007  0.6982276E+03  0.7818608E-02  0.1000463E+00
          2   -1    0    0  501    0  0.00000000000E+00  0.00000000000E+00  0.83363782508E+03  0.83363782509E+03  0.25500000000E-02 0. -1.
         -2   -1    0    0    0  501 -0.00000000000E+00 -0.00000000000E+00 -0.29484974034E+03  0.29484974035E+03  0.25500000000E-02 0.  1.
    8880023    1    1    2    0    0 -0.16304531880E+03 -0.16470538941E+03  0.29139993700E+03  0.75659485250E+03  0.65864270000E+03 0.  0.
    8880022    1    1    2    0    0  0.16304531880E+03  0.16470538941E+03  0.24738814773E+03  0.37189271294E+03  0.15294330000E+03 0.  0.
<mgrwt>
<rscale>  0 0.55447491E+03</rscale>
<asrwt>0</asrwt>
<pdfrwt beam="1">  1        2 0.12825197E+00 0.69822765E+03</pdfrwt>
<pdfrwt beam="2">  1       -2 0.45361499E-01 0.69822765E+03</pdfrwt>
<totfact> 0.15231882E+02</totfact>
</mgrwt>
</event>
<event>
 4    2  0.3855935E-007  0.8353525E+03  0.7818608E-02  0.9639006E-01
         -2   -1    0    0    0  501 -0.00000000000E+00  0.00000000000E+00  0.36855560795E+03  0.36855560796E+03  0.25500000000E-02 0.  1.
          2   -1    0    0  501    0  0.00000000000E+00 -0.00000000000E+00 -0.20329986209E+04  0.20329986209E+04  0.25500000000E-02 0. -1.
    8880023    1    1    2    0    0 -0.28213821194E+02 -0.51303764926E+03 -0.22441017235E+03  0.86497039312E+03  0.65864270000E+03 0.  1.
    8880022    1    1    2    0    0  0.28213821194E+02  0.51303764926E+03 -0.14400328406E+04  0.15365838357E+04  0.15294330000E+03 0.  0.
<mgrwt>
<rscale>  0 0.74767404E+03</rscale>
<asrwt>0</asrwt>
<pdfrwt beam="1">  1        2 0.31276901E+00 0.83535253E+03</pdfrwt>
<pdfrwt beam="2">  1       -2 0.56700864E-01 0.83535253E+03</pdfrwt>
<totfact> 0.19118328E+01</totfact>
</mgrwt>
</event>
<event>
 4    2  0.3855935E-007  0.6855374E+03  0.7818608E-02  0.1006350E+00
         -2   -1    0    0    0  501 -0.00000000000E+00  0.00000000000E+00  0.96496436392E+03  0.96496436393E+03  0.25500000000E-02 0.  1.
          2   -1    0    0  501    0  0.00000000000E+00 -0.00000000000E+00 -0.90326965707E+03  0.90326965707E+03  0.25500000000E-02 0. -1.
    8880023    1    1    2    0    0 -0.14511627664E+03 -0.12285206955E+03  0.82164106095E+03  0.10700727097E+04  0.65864270000E+03 0.  1.
    8880022    1    1    2    0    0  0.14511627664E+03  0.12285206955E+03 -0.75994635410E+03  0.79816131130E+03  0.15294330000E+03 0.  0.
<mgrwt>
<rscale>  0 0.52951374E+03</rscale>
<asrwt>0</asrwt>
<pdfrwt beam="1">  1        2 0.13896456E+00 0.68553743E+03</pdfrwt>
<pdfrwt beam="2">  1       -2 0.14845606E+00 0.68553743E+03</pdfrwt>
<totfact> 0.92112506E+00</totfact>
</mgrwt>
</event>
<event>
 4    2  0.3855935E-007  0.8354788E+03  0.7818608E-02  0.9638765E-01
          2   -1    0    0  501    0  0.00000000000E+00  0.00000000000E+00  0.31165417911E+04  0.31165417911E+04  0.25500000000E-02 0. -1.
         -2   -1    0    0    0  501 -0.00000000000E+00 -0.00000000000E+00 -0.17094831520E+03  0.17094831522E+03  0.25500000000E-02 0.  1.
    8880023    1    1    2    0    0  0.31823760721E+03  0.40365767519E+03  0.23067374294E+04  0.24533777670E+04  0.65864270000E+03 0. -1.
    8880022    1    1    2    0    0 -0.31823760721E+03 -0.40365767519E+03  0.63885604655E+03  0.83411233932E+03  0.15294330000E+03 0.  0.
<mgrwt>
<rscale>  0 0.74782745E+03</rscale>
<asrwt>0</asrwt>
<pdfrwt beam="1">  1        2 0.47946795E+00 0.83547884E+03</pdfrwt>
<pdfrwt beam="2">  1       -2 0.26299742E-01 0.83547884E+03</pdfrwt>
<totfact> 0.20128569E+01</totfact>
</mgrwt>
</event>
<event>
 4    2  0.3855935E-007  0.9840527E+03  0.7818608E-02  0.9402725E-01
          2   -1    0    0  501    0  0.00000000000E+00  0.00000000000E+00  0.12336088607E+04  0.12336088607E+04  0.25500000000E-02 0. -1.
         -2   -1    0    0    0  501 -0.00000000000E+00 -0.00000000000E+00 -0.62818438646E+03  0.62818438647E+03  0.25500000000E-02 0.  1.
    8880023    1    1    2    0    0  0.34663753756E+03 -0.64373280868E+03  0.17436316745E+03  0.99938092430E+03  0.65864270000E+03 0.  1.
    8880022    1    1    2    0    0 -0.34663753756E+03  0.64373280868E+03  0.43106130678E+03  0.86241232287E+03  0.15294330000E+03 0.  0.
<mgrwt>
<rscale>  0 0.91851725E+03</rscale>
<asrwt>0</asrwt>
<pdfrwt beam="1">  1        2 0.18978598E+00 0.98405270E+03</pdfrwt>
<pdfrwt beam="2">  1       -2 0.96643753E-01 0.98405270E+03</pdfrwt>
<totfact> 0.16126529E+01</totfact>
</mgrwt>
</event>
<event>
 4    2  0.3855935E-007  0.7503269E+03  0.7818608E-02  0.9830826E-01
          2   -1    0    0  501    0  0.00000000000E+00  0.00000000000E+00  0.23965133291E+04  0.23965133291E+04  0.25500000000E-02 0. -1.
         -2   -1    0    0    0  501 -0.00000000000E+00 -0.00000000000E+00 -0.25558284675E+03  0.25558284676E+03  0.25500000000E-02 0.  1.
    8880023    1    1    2    0    0 -0.21029642869E+03 -0.29147158479E+03  0.36625843109E+03  0.83494653557E+03  0.65864270000E+03 0.  1.
    8880022    1    1    2    0    0  0.21029642869E+03  0.29147158479E+03  0.17746720512E+04  0.18171496403E+04  0.15294330000E+03 0.  0.
<mgrwt>
<rscale>  0 0.63734154E+03</rscale>
<asrwt>0</asrwt>
<pdfrwt beam="1">  1        2 0.36869435E+00 0.75032691E+03</pdfrwt>
<pdfrwt beam="2">  1       -2 0.39320438E-01 0.75032691E+03</pdfrwt>
<totfact> 0.25450046E+01</totfact>
</mgrwt>
</event>
<event>
 4    2  0.3855935E-007  0.9308996E+03  0.7818608E-02  0.9478145E-01
         -2   -1    0    0    0  501 -0.00000000000E+00  0.00000000000E+00  0.42409272546E+03  0.42409272547E+03  0.25500000000E-02 0.  1.
          2   -1    0    0  501    0  0.00000000000E+00 -0.00000000000E+00 -0.20217593351E+04  0.20217593351E+04  0.25500000000E-02 0. -1.
    8880023    1    1    2    0    0 -0.65760996829E+03  0.17693871060E+02 -0.29162142208E+03  0.97550868964E+03  0.65864270000E+03 0.  0.
    8880022    1    1    2    0    0  0.65760996829E+03 -0.17693871060E+02 -0.13060451875E+04  0.14703433709E+04  0.15294330000E+03 0.  0.
<mgrwt>
<rscale>  0 0.85914462E+03</rscale>
<asrwt>0</asrwt>
<pdfrwt beam="1">  1        2 0.31103989E+00 0.93089965E+03</pdfrwt>
<pdfrwt beam="2">  1       -2 0.65245036E-01 0.93089965E+03</pdfrwt>
<totfact> 0.14230313E+01</totfact>
</mgrwt>
</event>
<event>
 4    2  0.3855935E-007  0.6982370E+03  0.7818608E-02  0.1000459E+00
         -2   -1    0    0    0  501 -0.00000000000E+00  0.00000000000E+00  0.11601619623E+04  0.11601619623E+04  0.25500000000E-02 0.  1.
          2   -1    0    0  501    0  0.00000000000E+00 -0.00000000000E+00 -0.47645596132E+03  0.47645596132E+03  0.25500000000E-02 0. -1.
    8880023    1    1    2    0    0  0.15480802675E+02  0.23126832821E+03  0.99749692671E+03  0.12175939471E+04  0.65864270000E+03 0.  1.
    8880022    1    1    2    0    0 -0.15480802675E+02 -0.23126832821E+03 -0.31379092570E+03  0.41902397658E+03  0.15294330000E+03 0.  0.
<mgrwt>
<rscale>  0 0.55449221E+03</rscale>
<asrwt>0</asrwt>
<pdfrwt beam="1">  1        2 0.73300919E-01 0.69823699E+03</pdfrwt>
<pdfrwt beam="2">  1       -2 0.17848645E+00 0.69823699E+03</pdfrwt>
<totfact> 0.12359056E+01</totfact>
</mgrwt>
</event>
<event>
 4    2  0.3855935E-007  0.7286055E+03  0.7818608E-02  0.9894475E-01
          2   -1    0    0  501    0  0.00000000000E+00  0.00000000000E+00  0.70779991933E+03  0.70779991933E+03  0.25500000000E-02 0. -1.
         -2   -1    0    0    0  501 -0.00000000000E+00 -0.00000000000E+00 -0.14073463288E+04  0.14073463288E+04  0.25500000000E-02 0.  1.
    8880023    1    1    2    0    0 -0.22491136566E+02 -0.31072488050E+03 -0.12602580283E+04  0.14557184847E+04  0.65864270000E+03 0.  1.
    8880022    1    1    2    0    0  0.22491136566E+02  0.31072488050E+03  0.56071161886E+03  0.65942776339E+03  0.15294330000E+03 0.  0.
<mgrwt>
<rscale>  0 0.60529773E+03</rscale>
<asrwt>0</asrwt>
<pdfrwt beam="1">  1        2 0.10889230E+00 0.72860552E+03</pdfrwt>
<pdfrwt beam="2">  1       -2 0.21651482E+00 0.72860552E+03</pdfrwt>
<totfact> 0.43148428E+00</totfact>
</mgrwt>
</event>
<event>
 4    2  0.3855935E-007  0.7479260E+03  0.7818608E-02  0.9837433E-01
          2   -1    0    0  501    0  0.00000000000E+00  0.00000000000E+00  0.23969423135E+04  0.23969423135E+04  0.25500000000E-02 0. -1.
         -2   -1    0    0    0  501 -0.00000000000E+00 -0.00000000000E+00 -0.35622366525E+03  0.35622366526E+03  0.25500000000E-02 0.  1.
    8880023    1    1    2    0    0  0.30404953247E+03  0.18203569561E+03  0.77004802020E+02  0.75187968351E+03  0.65864270000E+03 0.  0.
    8880022    1    1    2    0    0 -0.30404953247E+03 -0.18203569561E+03  0.19637138463E+04  0.20012862953E+04  0.15294330000E+03 0.  0.
<mgrwt>
<rscale>  0 0.63391798E+03</rscale>
<asrwt>0</asrwt>
<pdfrwt beam="1">  1        2 0.36876036E+00 0.74792601E+03</pdfrwt>
<pdfrwt beam="2">  1       -2 0.54803640E-01 0.74792601E+03</pdfrwt>
<totfact> 0.13068384E+01</totfact>
</mgrwt>
</event>
<event>
 4    2  0.3855935E-007  0.6716031E+03  0.7818608E-02  0.1014539E+00
         -2   -1    0    0    0  501 -0.00000000000E+00  0.00000000000E+00  0.16755737086E+03  0.16755737087E+03  0.25500000000E-02 0.  1.
          2   -1    0    0  501    0  0.00000000000E+00 -0.00000000000E+00 -0.11501702827E+04  0.11501702827E+04  0.25500000000E-02 0. -1.
    8880023    1    1    2    0    0  0.12704579855E+03  0.33165434457E+02 -0.81110614234E+03  0.10530640823E+04  0.65864270000E+03 0. -1.
    8880022    1    1    2    0    0 -0.12704579855E+03 -0.33165434457E+02 -0.17150676949E+03  0.26466357129E+03  0.15294330000E+03 0.  1.
<mgrwt>
<rscale>  0 0.49709956E+03</rscale>
<asrwt>0</asrwt>
<pdfrwt beam="1">  1        2 0.17694927E+00 0.67160315E+03</pdfrwt>
<pdfrwt beam="2">  1       -2 0.25778058E-01 0.67160315E+03</pdfrwt>
<totfact> 0.27907369E+02</totfact>
</mgrwt>
</event>
<event>
 4    2  0.3855935E-007  0.6660769E+03  0.7818608E-02  0.1018647E+00
          2   -1    0    0  501    0  0.00000000000E+00  0.00000000000E+00  0.88556614910E+03  0.88556614910E+03  0.25500000000E-02 0. -1.
         -2   -1    0    0    0  501 -0.00000000000E+00 -0.00000000000E+00 -0.11480958396E+04  0.11480958396E+04  0.25500000000E-02 0.  1.
    8880023    1    1    2    0    0 -0.34503542408E+02  0.93046633170E+02 -0.10400480967E+04  0.12350540151E+04  0.65864270000E+03 0.  1.
    8880022    1    1    2    0    0  0.34503542408E+02 -0.93046633170E+02  0.77751840627E+03  0.79860797359E+03  0.15294330000E+03 0.  0.
<mgrwt>
<rscale>  0 0.48178203E+03</rscale>
<asrwt>0</asrwt>
<pdfrwt beam="1">  1        2 0.13624095E+00 0.66607685E+03</pdfrwt>
<pdfrwt beam="2">  1       -2 0.17663013E+00 0.66607685E+03</pdfrwt>
<totfact> 0.59204955E+00</totfact>
</mgrwt>
</event>
<event>
 4    2  0.3855935E-007  0.7335088E+03  0.7818608E-02  0.9879275E-01
         -2   -1    0    0    0  501 -0.00000000000E+00  0.00000000000E+00  0.32682507395E+03  0.32682507396E+03  0.25500000000E-02 0.  1.
          2   -1    0    0  501    0  0.00000000000E+00 -0.00000000000E+00 -0.12328459018E+04  0.12328459018E+04  0.25500000000E-02 0. -1.
    8880023    1    1    2    0    0 -0.32276942250E+03 -0.66971609847E+01 -0.18726832947E+03  0.75703671348E+03  0.65864270000E+03 0.  1.
    8880022    1    1    2    0    0  0.32276942250E+03  0.66971609847E+01 -0.71875249841E+03  0.80263426232E+03  0.15294330000E+03 0.  0.
<mgrwt>
<rscale>  0 0.61276280E+03</rscale>
<asrwt>0</asrwt>
<pdfrwt beam="1">  1        2 0.18966860E+00 0.73350880E+03</pdfrwt>
<pdfrwt beam="2">  1       -2 0.50280781E-01 0.73350880E+03</pdfrwt>
<totfact> 0.68997020E+01</totfact>
</mgrwt>
</event>
<event>
 4    2  0.3855935E-007  0.6907779E+03  0.7818608E-02  0.1003785E+00
         -2   -1    0    0    0  501 -0.00000000000E+00  0.00000000000E+00  0.44548862700E+03  0.44548862701E+03  0.25500000000E-02 0.  1.
          2   -1    0    0  501    0  0.00000000000E+00 -0.00000000000E+00 -0.70921919626E+03  0.70921919626E+03  0.25500000000E-02 0. -1.
    8880023    1    1    2    0    0  0.19992628190E+03 -0.58252476858E+02  0.11089804957E+03  0.69962307918E+03  0.65864270000E+03 0.  1.
    8880022    1    1    2    0    0 -0.19992628190E+03  0.58252476858E+02 -0.37462861882E+03  0.45508474410E+03  0.15294330000E+03 0.  0.
<mgrwt>
<rscale>  0 0.54021261E+03</rscale>
<asrwt>0</asrwt>
<pdfrwt beam="1">  1        2 0.10911065E+00 0.69077788E+03</pdfrwt>
<pdfrwt beam="2">  1       -2 0.68536712E-01 0.69077788E+03</pdfrwt>
<totfact> 0.79739318E+01</totfact>
</mgrwt>
</event>
<event>
 4    2  0.3855935E-007  0.7406864E+03  0.7818608E-02  0.9857952E-01
         -2   -1    0    0    0  501 -0.00000000000E+00  0.00000000000E+00  0.23056995341E+03  0.23056995342E+03  0.25500000000E-02 0.  1.
          2   -1    0    0  501    0  0.00000000000E+00 -0.00000000000E+00 -0.16949541029E+04  0.16949541029E+04  0.25500000000E-02 0. -1.
    8880023    1    1    2    0    0 -0.32965581866E+03  0.78314972913E+02 -0.50453155915E+03  0.89619668276E+03  0.65864270000E+03 0.  0.
    8880022    1    1    2    0    0  0.32965581866E+03 -0.78314972913E+02 -0.95985259032E+03  0.10293273735E+04  0.15294330000E+03 0.  0.
<mgrwt>
<rscale>  0 0.62343109E+03</rscale>
<asrwt>0</asrwt>
<pdfrwt beam="1">  1        2 0.26076216E+00 0.74068644E+03</pdfrwt>
<pdfrwt beam="2">  1       -2 0.35472302E-01 0.74068644E+03</pdfrwt>
<totfact> 0.75424145E+01</totfact>
</mgrwt>
</event>
<event>
 4    2  0.3855935E-007  0.6961227E+03  0.7818608E-02  0.1001368E+00
          2   -1    0    0  501    0  0.00000000000E+00  0.00000000000E+00  0.17154341995E+04  0.17154341995E+04  0.25500000000E-02 0. -1.
         -2   -1    0    0    0  501 -0.00000000000E+00 -0.00000000000E+00 -0.28160659905E+03  0.28160659906E+03  0.25500000000E-02 0.  1.
    8880023    1    1    2    0    0 -0.20166336580E+03  0.10054083808E+03  0.18697940189E+03  0.72079683422E+03  0.65864270000E+03 0.  1.
    8880022    1    1    2    0    0  0.20166336580E+03 -0.10054083808E+03  0.12468481986E+04  0.12762439644E+04  0.15294330000E+03 0.  0.
<mgrwt>
<rscale>  0 0.55054341E+03</rscale>
<asrwt>0</asrwt>
<pdfrwt beam="1">  1        2 0.26391295E+00 0.69612268E+03</pdfrwt>
<pdfrwt beam="2">  1       -2 0.43324093E-01 0.69612268E+03</pdfrwt>
<totfact> 0.50098721E+01</totfact>
</mgrwt>
</event>
<event>
 4    2  0.3855935E-007  0.7155564E+03  0.7818608E-02  0.9937919E-01
          2   -1    0    0  501    0  0.00000000000E+00  0.00000000000E+00  0.63993678300E+03  0.63993678301E+03  0.25500000000E-02 0. -1.
         -2   -1    0    0    0  501 -0.00000000000E+00 -0.00000000000E+00 -0.62791910641E+03  0.62791910642E+03  0.25500000000E-02 0.  1.
    8880023    1    1    2    0    0 -0.25768873852E+03  0.10866111487E+03 -0.34063392624E+03  0.79249757212E+03  0.65864270000E+03 0.  1.
    8880022    1    1    2    0    0  0.25768873852E+03 -0.10866111487E+03  0.35265160283E+03  0.47535831731E+03  0.15294330000E+03 0.  0.
<mgrwt>
<rscale>  0 0.58458259E+03</rscale>
<asrwt>0</asrwt>
<pdfrwt beam="1">  1        2 0.98451813E-01 0.71555638E+03</pdfrwt>
<pdfrwt beam="2">  1       -2 0.96602939E-01 0.71555638E+03</pdfrwt>
<totfact> 0.41712207E+01</totfact>
</mgrwt>
</event>
<event>
 4    2  0.3855935E-007  0.1162601E+04  0.7818608E-02  0.9194363E-01
          2   -1    0    0  501    0  0.00000000000E+00  0.00000000000E+00  0.11727788267E+04  0.11727788267E+04  0.25500000000E-02 0. -1.
         -2   -1    0    0    0  501 -0.00000000000E+00 -0.00000000000E+00 -0.97875558966E+03  0.97875558966E+03  0.25500000000E-02 0.  1.
    8880023    1    1    2    0    0  0.34202167945E+03  0.89490351664E+03  0.20907702098E+03  0.11812512604E+04  0.65864270000E+03 0. -1.
    8880022    1    1    2    0    0 -0.34202167945E+03 -0.89490351664E+03 -0.15053783918E+02  0.97028315596E+03  0.15294330000E+03 0.  1.
<mgrwt>
<rscale>  0 0.11111805E+04</rscale>
<asrwt>0</asrwt>
<pdfrwt beam="1">  1        2 0.18042751E+00 0.11626011E+04</pdfrwt>
<pdfrwt beam="2">  1       -2 0.15057778E+00 0.11626011E+04</pdfrwt>
<totfact> 0.56946787E+00</totfact>
</mgrwt>
</event>
<event>
 4    2  0.3855935E-007  0.7151178E+03  0.7818608E-02  0.9939465E-01
          2   -1    0    0  501    0  0.00000000000E+00  0.00000000000E+00  0.19187469860E+04  0.19187469860E+04  0.25500000000E-02 0. -1.
         -2   -1    0    0    0  501 -0.00000000000E+00 -0.00000000000E+00 -0.20083853059E+03  0.20083853061E+03  0.25500000000E-02 0.  1.
    8880023    1    1    2    0    0  0.10447026318E+03 -0.25820397216E+03  0.53053607549E+03  0.89042802112E+03  0.65864270000E+03 0.  1.
    8880022    1    1    2    0    0 -0.10447026318E+03  0.25820397216E+03  0.11873723799E+04  0.12291574955E+04  0.15294330000E+03 0.  0.
<mgrwt>
<rscale>  0 0.58386163E+03</rscale>
<asrwt>0</asrwt>
<pdfrwt beam="1">  1        2 0.29519185E+00 0.71511785E+03</pdfrwt>
<pdfrwt beam="2">  1       -2 0.30898235E-01 0.71511785E+03</pdfrwt>
<totfact> 0.74095399E+01</totfact>
</mgrwt>
</event>
<event>
 4    2  0.3855935E-007  0.7700249E+03  0.7818608E-02  0.9779813E-01
         -2   -1    0    0    0  501 -0.00000000000E+00  0.00000000000E+00  0.58950717244E+03  0.58950717244E+03  0.25500000000E-02 0.  1.
          2   -1    0    0  501    0  0.00000000000E+00 -0.00000000000E+00 -0.83398813131E+03  0.83398813131E+03  0.25500000000E-02 0. -1.
    8880023    1    1    2    0    0 -0.39848736888E+03  0.18329412927E+02 -0.50710592693E+03  0.92200584484E+03  0.65864270000E+03 0.  0.
    8880022    1    1    2    0    0  0.39848736888E+03 -0.18329412927E+02  0.26262496806E+03  0.50148945891E+03  0.15294330000E+03 0.  0.
<mgrwt>
<rscale>  0 0.66457244E+03</rscale>
<asrwt>0</asrwt>
<pdfrwt beam="1">  1        2 0.12830587E+00 0.77002491E+03</pdfrwt>
<pdfrwt beam="2">  1       -2 0.90693411E-01 0.77002491E+03</pdfrwt>
<totfact> 0.34242252E+01</totfact>
</mgrwt>
</event>
<event>
 4    2  0.3855935E-007  0.8124997E+03  0.7818608E-02  0.9684393E-01
          2   -1    0    0  501    0  0.00000000000E+00  0.00000000000E+00  0.15418167232E+04  0.15418167232E+04  0.25500000000E-02 0. -1.
         -2   -1    0    0    0  501 -0.00000000000E+00 -0.00000000000E+00 -0.48893843630E+03  0.48893843631E+03  0.25500000000E-02 0.  1.
    8880023    1    1    2    0    0 -0.45606992265E+03  0.13544670793E+03 -0.56044115693E+02  0.81443031267E+03  0.65864270000E+03 0.  0.
    8880022    1    1    2    0    0  0.45606992265E+03 -0.13544670793E+03  0.11089224025E+04  0.12163248468E+04  0.15294330000E+03 0.  0.
<mgrwt>
<rscale>  0 0.71953650E+03</rscale>
<asrwt>0</asrwt>
<pdfrwt beam="1">  1        2 0.23720257E+00 0.81249972E+03</pdfrwt>
<pdfrwt beam="2">  1       -2 0.75221297E-01 0.81249972E+03</pdfrwt>
<totfact> 0.19400512E+01</totfact>
</mgrwt>
</event>
<event>
 4    2  0.3855935E-007  0.7226895E+03  0.7818608E-02  0.9913589E-01
          2   -1    0    0  501    0  0.00000000000E+00  0.00000000000E+00  0.11438705626E+04  0.11438705626E+04  0.25500000000E-02 0. -1.
         -2   -1    0    0    0  501 -0.00000000000E+00 -0.00000000000E+00 -0.58826815471E+03  0.58826815471E+03  0.25500000000E-02 0.  1.
    8880023    1    1    2    0    0  0.24780646750E+03  0.16450486512E+03 -0.32333057810E+03  0.79172139353E+03  0.65864270000E+03 0.  0.
    8880022    1    1    2    0    0 -0.24780646750E+03 -0.16450486512E+03  0.87893298603E+03  0.94041732381E+03  0.15294330000E+03 0.  0.
<mgrwt>
<rscale>  0 0.59607226E+03</rscale>
<asrwt>0</asrwt>
<pdfrwt beam="1">  1        2 0.17598008E+00 0.72268949E+03</pdfrwt>
<pdfrwt beam="2">  1       -2 0.90502795E-01 0.72268949E+03</pdfrwt>
<totfact> 0.21819058E+01</totfact>
</mgrwt>
</event>
<event>
 4    2  0.3855935E-007  0.9155579E+03  0.7818608E-02  0.9501504E-01
         -2   -1    0    0    0  501 -0.00000000000E+00  0.00000000000E+00  0.56813819439E+03  0.56813819440E+03  0.25500000000E-02 0.  1.
          2   -1    0    0  501    0  0.00000000000E+00 -0.00000000000E+00 -0.20365571723E+04  0.20365571723E+04  0.25500000000E-02 0. -1.
    8880023    1    1    2    0    0  0.75070404859E+02  0.63150651124E+03  0.84696189836E+02  0.91946706861E+03  0.65864270000E+03 0.  0.
    8880022    1    1    2    0    0 -0.75070404859E+02 -0.63150651124E+03 -0.15531151678E+04  0.16852282981E+04  0.15294330000E+03 0.  0.
<mgrwt>
<rscale>  0 0.84173031E+03</rscale>
<asrwt>0</asrwt>
<pdfrwt beam="1">  1        2 0.31331648E+00 0.91555789E+03</pdfrwt>
<pdfrwt beam="2">  1       -2 0.87405877E-01 0.91555789E+03</pdfrwt>
<totfact> 0.72963635E+00</totfact>
</mgrwt>
</event>
<event>
 4    2  0.3855935E-007  0.1224486E+04  0.7818608E-02  0.9133680E-01
         -2   -1    0    0    0  501 -0.00000000000E+00  0.00000000000E+00  0.58312535859E+03  0.58312535860E+03  0.25500000000E-02 0.  1.
          2   -1    0    0  501    0  0.00000000000E+00 -0.00000000000E+00 -0.22465288073E+04  0.22465288073E+04  0.25500000000E-02 0. -1.
    8880023    1    1    2    0    0 -0.92921483716E+02 -0.10280670098E+04 -0.70579286658E+03  0.14133329245E+04  0.65864270000E+03 0.  0.
    8880022    1    1    2    0    0  0.92921483716E+02  0.10280670098E+04 -0.95761058216E+03  0.14163212414E+04  0.15294330000E+03 0.  0.
<mgrwt>
<rscale>  0 0.11764983E+04</rscale>
<asrwt>0</asrwt>
<pdfrwt beam="1">  1        2 0.34561981E+00 0.12244862E+04</pdfrwt>
<pdfrwt beam="2">  1       -2 0.89711595E-01 0.12244862E+04</pdfrwt>
<totfact> 0.50705057E+00</totfact>
</mgrwt>
</event>
<event>
 4    2  0.3855935E-007  0.8100319E+03  0.7818608E-02  0.9689511E-01
         -2   -1    0    0    0  501 -0.00000000000E+00  0.00000000000E+00  0.24688040597E+03  0.24688040598E+03  0.25500000000E-02 0.  1.
          2   -1    0    0  501    0  0.00000000000E+00 -0.00000000000E+00 -0.23336137960E+04  0.23336137960E+04  0.25500000000E-02 0. -1.
    8880023    1    1    2    0    0  0.17486118583E+03 -0.43790982295E+03 -0.58535349998E+03  0.99939500376E+03  0.65864270000E+03 0.  1.
    8880022    1    1    2    0    0 -0.17486118583E+03  0.43790982295E+03 -0.15013798900E+04  0.15810991982E+04  0.15294330000E+03 0. -1.
<mgrwt>
<rscale>  0 0.71644778E+03</rscale>
<asrwt>0</asrwt>
<pdfrwt beam="1">  1        2 0.35901749E+00 0.81003188E+03</pdfrwt>
<pdfrwt beam="2">  1       -2 0.37981602E-01 0.81003188E+03</pdfrwt>
<totfact> 0.29276288E+01</totfact>
</mgrwt>
</event>
<event>
 4    2  0.3855935E-007  0.7868287E+03  0.7818608E-02  0.9740034E-01
         -2   -1    0    0    0  501 -0.00000000000E+00  0.00000000000E+00  0.96634684030E+03  0.96634684031E+03  0.25500000000E-02 0.  1.
          2   -1    0    0  501    0  0.00000000000E+00 -0.00000000000E+00 -0.87060007461E+03  0.87060007461E+03  0.25500000000E-02 0. -1.
    8880023    1    1    2    0    0  0.10738737775E+03 -0.41684183365E+03  0.71788333652E+03  0.10651083768E+04  0.65864270000E+03 0.  1.
    8880022    1    1    2    0    0 -0.10738737775E+03  0.41684183365E+03 -0.62213657082E+03  0.77183853813E+03  0.15294330000E+03 0.  0.
<mgrwt>
<rscale>  0 0.68682398E+03</rscale>
<asrwt>0</asrwt>
<pdfrwt beam="1">  1        2 0.13393847E+00 0.78682868E+03</pdfrwt>
<pdfrwt beam="2">  1       -2 0.14866874E+00 0.78682868E+03</pdfrwt>
<totfact> 0.95399547E+00</totfact>
</mgrwt>
</event>
<event>
 4    2  0.3855935E-007  0.1026471E+04  0.7818608E-02  0.9347717E-01
         -2   -1    0    0    0  501 -0.00000000000E+00  0.00000000000E+00  0.56190211226E+03  0.56190211227E+03  0.25500000000E-02 0.  1.
          2   -1    0    0  501    0  0.00000000000E+00 -0.00000000000E+00 -0.22958431105E+04  0.22958431105E+04  0.25500000000E-02 0. -1.
    8880023    1    1    2    0    0  0.78490305988E+03 -0.61313798319E+02 -0.92230403973E+02  0.10306060591E+04  0.65864270000E+03 0.  0.
    8880022    1    1    2    0    0 -0.78490305988E+03  0.61313798319E+02 -0.16417105943E+04  0.18271391637E+04  0.15294330000E+03 0.  0.
<mgrwt>
<rscale>  0 0.96506204E+03</rscale>
<asrwt>0</asrwt>
<pdfrwt beam="1">  1        2 0.35320663E+00 0.10264708E+04</pdfrwt>
<pdfrwt beam="2">  1       -2 0.86446480E-01 0.10264708E+04</pdfrwt>
<totfact> 0.52989852E+00</totfact>
</mgrwt>
</event>
<event>
 4    2  0.3855935E-007  0.2094805E+04  0.7818608E-02  0.8574912E-01
          2   -1    0    0  501    0  0.00000000000E+00  0.00000000000E+00  0.22439263430E+04  0.22439263430E+04  0.25500000000E-02 0. -1.
         -2   -1    0    0    0  501 -0.00000000000E+00 -0.00000000000E+00 -0.23013957131E+04  0.23013957131E+04  0.25500000000E-02 0.  1.
    8880023    1    1    2    0    0 -0.19632966122E+04  0.31600980665E+03 -0.10209514884E+04  0.23303536069E+04  0.65864270000E+03 0.  0.
    8880022    1    1    2    0    0  0.19632966122E+04 -0.31600980665E+03  0.96348211827E+03  0.22149684492E+04  0.15294330000E+03 0.  0.
<mgrwt>
<rscale>  0 0.20692493E+04</rscale>
<asrwt>0</asrwt>
<pdfrwt beam="1">  1        2 0.34521944E+00 0.20948045E+04</pdfrwt>
<pdfrwt beam="2">  1       -2 0.35406088E+00 0.20948045E+04</pdfrwt>
<totfact> 0.62785917E-02</totfact>
</mgrwt>
</event>
<event>
 4    2  0.5139380E-007  0.1094008E+04  0.7818608E-02  0.9267757E-01
          2   -1    0    0  501    0  0.00000000000E+00  0.00000000000E+00  0.15508943935E+04  0.15508943935E+04  0.25500000000E-02 0. -1.
         -2   -1    0    0    0  501 -0.00000000000E+00 -0.00000000000E+00 -0.23285171182E+04  0.23285171182E+04  0.25500000000E-02 0.  1.
    8880023    1    1    2    0    0  0.43517150757E+03  0.75740906597E+03 -0.20528375463E+04  0.23261545374E+04  0.65864270000E+03 0.  1.
    8880022    1    1    2    0    0 -0.43517150757E+03 -0.75740906597E+03  0.12752148216E+04  0.15532569744E+04  0.15294330000E+03 0.  0.
<mgrwt>
<rscale>  0 0.10380616E+04</rscale>
<asrwt>0</asrwt>
<pdfrwt beam="1">  1        2 0.23859914E+00 0.10940077E+04</pdfrwt>
<pdfrwt beam="2">  1       -2 0.35823340E+00 0.10940077E+04</pdfrwt>
<totfact> 0.16358074E-01</totfact>
</mgrwt>
</event>
<event>
 4    2  0.3855935E-007  0.7202173E+03  0.7818608E-02  0.9921851E-01
          2   -1    0    0  501    0  0.00000000000E+00  0.00000000000E+00  0.12494851247E+04  0.12494851247E+04  0.25500000000E-02 0. -1.
         -2   -1    0    0    0  501 -0.00000000000E+00 -0.00000000000E+00 -0.41816856017E+03  0.41816856017E+03  0.25500000000E-02 0.  1.
    8880023    1    1    2    0    0  0.26126339195E+03 -0.12901257234E+03 -0.54903443761E+02  0.72230699719E+03  0.65864270000E+03 0.  1.
    8880022    1    1    2    0    0 -0.26126339195E+03  0.12901257234E+03  0.88622000830E+03  0.94534668768E+03  0.15294330000E+03 0. -1.
<mgrwt>
<rscale>  0 0.59213871E+03</rscale>
<asrwt>0</asrwt>
<pdfrwt beam="1">  1        2 0.19222848E+00 0.72021734E+03</pdfrwt>
<pdfrwt beam="2">  1       -2 0.64333626E-01 0.72021734E+03</pdfrwt>
<totfact> 0.40374664E+01</totfact>
</mgrwt>
</event>
<event>
 4    2  0.3855935E-007  0.6660757E+03  0.7818608E-02  0.1018648E+00
          2   -1    0    0  501    0  0.00000000000E+00  0.00000000000E+00  0.15622582996E+04  0.15622582996E+04  0.25500000000E-02 0. -1.
         -2   -1    0    0    0  501 -0.00000000000E+00 -0.00000000000E+00 -0.33005683202E+03  0.33005683203E+03  0.25500000000E-02 0.  1.
    8880023    1    1    2    0    0  0.97857959928E+02  0.16444975195E+02  0.19890962322E+02  0.66637262412E+03  0.65864270000E+03 0.  1.
    8880022    1    1    2    0    0 -0.97857959928E+02 -0.16444975195E+02  0.12123105052E+04  0.12259425075E+04  0.15294330000E+03 0.  0.
<mgrwt>
<rscale>  0 0.48177858E+03</rscale>
<asrwt>0</asrwt>
<pdfrwt beam="1">  1        2 0.24034743E+00 0.66607569E+03</pdfrwt>
<pdfrwt beam="2">  1       -2 0.50777974E-01 0.66607569E+03</pdfrwt>
<totfact> 0.44354660E+01</totfact>
</mgrwt>
</event>
<event>
 4    2  0.3855935E-007  0.7344359E+03  0.7818608E-02  0.9876462E-01
         -2   -1    0    0    0  501 -0.00000000000E+00  0.00000000000E+00  0.20549868736E+03  0.20549868737E+03  0.25500000000E-02 0.  1.
          2   -1    0    0  501    0  0.00000000000E+00 -0.00000000000E+00 -0.22760360603E+04  0.22760360603E+04  0.25500000000E-02 0. -1.
    8880023    1    1    2    0    0  0.32018151532E+03  0.55404644826E+02 -0.54570526232E+03  0.91498104735E+03  0.65864270000E+03 0.  0.
    8880022    1    1    2    0    0 -0.32018151532E+03 -0.55404644826E+02 -0.15248321106E+04  0.15665537003E+04  0.15294330000E+03 0.  0.
<mgrwt>
<rscale>  0 0.61415738E+03</rscale>
<asrwt>0</asrwt>
<pdfrwt beam="1">  1        2 0.35015938E+00 0.73443589E+03</pdfrwt>
<pdfrwt beam="2">  1       -2 0.31615184E-01 0.73443589E+03</pdfrwt>
<totfact> 0.45122690E+01</totfact>
</mgrwt>
</event>
<event>
 4    2  0.3855935E-007  0.6902707E+03  0.7818608E-02  0.1004024E+00
          2   -1    0    0  501    0  0.00000000000E+00  0.00000000000E+00  0.12689372282E+04  0.12689372282E+04  0.25500000000E-02 0. -1.
         -2   -1    0    0    0  501 -0.00000000000E+00 -0.00000000000E+00 -0.42956415931E+03  0.42956415932E+03  0.25500000000E-02 0.  1.
    8880023    1    1    2    0    0 -0.16745111257E+03  0.12092798964E+03 -0.12410004376E+03  0.70133763688E+03  0.65864270000E+03 0.  1.
    8880022    1    1    2    0    0  0.16745111257E+03 -0.12092798964E+03  0.96347311261E+03  0.99716375060E+03  0.15294330000E+03 0.  0.
<mgrwt>
<rscale>  0 0.53920373E+03</rscale>
<asrwt>0</asrwt>
<pdfrwt beam="1">  1        2 0.19522111E+00 0.69027072E+03</pdfrwt>
<pdfrwt beam="2">  1       -2 0.66086795E-01 0.69027072E+03</pdfrwt>
<totfact> 0.37250849E+01</totfact>
</mgrwt>
</event>
<event>
 4    2  0.3855935E-007  0.8719301E+03  0.7818608E-02  0.9572684E-01
          2   -1    0    0  501    0  0.00000000000E+00  0.00000000000E+00  0.17423803191E+04  0.17423803191E+04  0.25500000000E-02 0. -1.
         -2   -1    0    0    0  501 -0.00000000000E+00 -0.00000000000E+00 -0.14476213612E+04  0.14476213612E+04  0.25500000000E-02 0.  1.
    8880023    1    1    2    0    0  0.53803703058E+03 -0.19227085048E+03  0.15634827936E+04  0.17901789236E+04  0.65864270000E+03 0.  0.
    8880022    1    1    2    0    0 -0.53803703058E+03  0.19227085048E+03 -0.12687238357E+04  0.13998227568E+04  0.15294330000E+03 0.  0.
<mgrwt>
<rscale>  0 0.79130789E+03</rscale>
<asrwt>0</asrwt>
<pdfrwt beam="1">  1        2 0.26805851E+00 0.87193012E+03</pdfrwt>
<pdfrwt beam="2">  1       -2 0.22271098E+00 0.87193012E+03</pdfrwt>
<totfact> 0.89843174E-01</totfact>
</mgrwt>
</event>
<event>
 4    2  0.3855935E-007  0.1372209E+04  0.7818608E-02  0.9005584E-01
         -2   -1    0    0    0  501 -0.00000000000E+00  0.00000000000E+00  0.90210085352E+03  0.90210085352E+03  0.25500000000E-02 0.  1.
          2   -1    0    0  501    0  0.00000000000E+00 -0.00000000000E+00 -0.25548889164E+04  0.25548889164E+04  0.25500000000E-02 0. -1.
    8880023    1    1    2    0    0 -0.63193599314E+03  0.10245990938E+04  0.41655498923E+02  0.13728407734E+04  0.65864270000E+03 0.  1.
    8880022    1    1    2    0    0  0.63193599314E+03 -0.10245990938E+04 -0.16944435618E+04  0.20841489965E+04  0.15294330000E+03 0.  0.
<mgrwt>
<rscale>  0 0.13306794E+04</rscale>
<asrwt>0</asrwt>
<pdfrwt beam="1">  1        2 0.39305983E+00 0.13722087E+04</pdfrwt>
<pdfrwt beam="2">  1       -2 0.13878475E+00 0.13722087E+04</pdfrwt>
<totfact> 0.11402218E+00</totfact>
</mgrwt>
</event>
<event>
 4    2  0.3855935E-007  0.6812199E+03  0.7818608E-02  0.1008642E+00
         -2   -1    0    0    0  501 -0.00000000000E+00  0.00000000000E+00  0.27633089602E+03  0.27633089603E+03  0.25500000000E-02 0.  1.
          2   -1    0    0  501    0  0.00000000000E+00 -0.00000000000E+00 -0.77596320747E+03  0.77596320747E+03  0.25500000000E-02 0. -1.
    8880023    1    1    2    0    0  0.46636393868E+02 -0.16755733155E+03 -0.29171563367E+03  0.74105237991E+03  0.65864270000E+03 0.  0.
    8880022    1    1    2    0    0 -0.46636393868E+02  0.16755733155E+03 -0.20791667778E+03  0.31124172359E+03  0.15294330000E+03 0. -1.
<mgrwt>
<rscale>  0 0.52018007E+03</rscale>
<asrwt>0</asrwt>
<pdfrwt beam="1">  1        2 0.11937895E+00 0.68121995E+03</pdfrwt>
<pdfrwt beam="2">  1       -2 0.42512446E-01 0.68121995E+03</pdfrwt>
<totfact> 0.19067063E+02</totfact>
</mgrwt>
</event>
<event>
 4    2  0.3855935E-007  0.7924527E+03  0.7818608E-02  0.9727359E-01
          2   -1    0    0  501    0  0.00000000000E+00  0.00000000000E+00  0.68660914024E+03  0.68660914025E+03  0.25500000000E-02 0. -1.
         -2   -1    0    0    0  501 -0.00000000000E+00 -0.00000000000E+00 -0.89492833184E+03  0.89492833185E+03  0.25500000000E-02 0.  1.
    8880023    1    1    2    0    0  0.23114132982E+03 -0.37515965393E+03  0.33944026341E+03  0.86209105028E+03  0.65864270000E+03 0. -1.
    8880022    1    1    2    0    0 -0.23114132982E+03  0.37515965393E+03 -0.54775945501E+03  0.71944642181E+03  0.15294330000E+03 0.  0.
<mgrwt>
<rscale>  0 0.69410964E+03</rscale>
<asrwt>0</asrwt>
<pdfrwt beam="1">  1        2 0.10563217E+00 0.79245270E+03</pdfrwt>
<pdfrwt beam="2">  1       -2 0.13768128E+00 0.79245270E+03</pdfrwt>
<totfact> 0.15909078E+01</totfact>
</mgrwt>
</event>
<event>
 4    2  0.3855935E-007  0.6966296E+03  0.7818608E-02  0.1001148E+00
          2   -1    0    0  501    0  0.00000000000E+00  0.00000000000E+00  0.48885714678E+04  0.48885714678E+04  0.25500000000E-02 0. -1.
         -2   -1    0    0    0  501 -0.00000000000E+00 -0.00000000000E+00 -0.30988841039E+03  0.30988841040E+03  0.25500000000E-02 0.  1.
    8880023    1    1    2    0    0  0.20780660890E+03  0.91098682147E+02  0.91121676656E+02  0.70256382117E+03  0.65864270000E+03 0.  1.
    8880022    1    1    2    0    0 -0.20780660890E+03 -0.91098682147E+02  0.44875613807E+04  0.44958960570E+04  0.15294330000E+03 0.  0.
<mgrwt>
<rscale>  0 0.55149676E+03</rscale>
<asrwt>0</asrwt>
<pdfrwt beam="1">  1        2 0.75208787E+00 0.69662957E+03</pdfrwt>
<pdfrwt beam="2">  1       -2 0.47675143E-01 0.69662957E+03</pdfrwt>
<totfact> 0.23355015E-01</totfact>
</mgrwt>
</event>
<event>
 4    2  0.3855935E-007  0.6977606E+03  0.7818608E-02  0.1000662E+00
         -2   -1    0    0    0  501 -0.00000000000E+00  0.00000000000E+00  0.61657666172E+03  0.61657666172E+03  0.25500000000E-02 0.  1.
          2   -1    0    0  501    0  0.00000000000E+00 -0.00000000000E+00 -0.55731831028E+03  0.55731831029E+03  0.25500000000E-02 0. -1.
    8880023    1    1    2    0    0  0.22903133032E+03  0.24583046090E+02  0.34317644987E+03  0.77758598137E+03  0.65864270000E+03 0.  1.
    8880022    1    1    2    0    0 -0.22903133032E+03 -0.24583046090E+02 -0.28391809844E+03  0.39630899063E+03  0.15294330000E+03 0.  0.
<mgrwt>
<rscale>  0 0.55360878E+03</rscale>
<asrwt>0</asrwt>
<pdfrwt beam="1">  1        2 0.85741279E-01 0.69776062E+03</pdfrwt>
<pdfrwt beam="2">  1       -2 0.94857948E-01 0.69776062E+03</pdfrwt>
<totfact> 0.51485179E+01</totfact>
</mgrwt>
</event>
<event>
 4    2  0.3855935E-007  0.1167933E+04  0.7818608E-02  0.9188941E-01
          2   -1    0    0  501    0  0.00000000000E+00  0.00000000000E+00  0.28169525582E+04  0.28169525582E+04  0.25500000000E-02 0. -1.
         -2   -1    0    0    0  501 -0.00000000000E+00 -0.00000000000E+00 -0.49795182994E+03  0.49795182995E+03  0.25500000000E-02 0.  1.
    8880023    1    1    2    0    0  0.47139474039E+03 -0.84145436525E+03  0.54269941032E+03  0.12878630775E+04  0.65864270000E+03 0.  1.
    8880022    1    1    2    0    0 -0.47139474039E+03  0.84145436525E+03  0.17763013179E+04  0.20270413106E+04  0.15294330000E+03 0.  0.
<mgrwt>
<rscale>  0 0.11168304E+04</rscale>
<asrwt>0</asrwt>
<pdfrwt beam="1">  1        2 0.43337732E+00 0.11679335E+04</pdfrwt>
<pdfrwt beam="2">  1       -2 0.76607973E-01 0.11679335E+04</pdfrwt>
<totfact> 0.34223768E+00</totfact>
</mgrwt>
</event>
<event>
 4    2  0.3855935E-007  0.7866987E+03  0.7818608E-02  0.9740330E-01
         -2   -1    0    0    0  501 -0.00000000000E+00  0.00000000000E+00  0.52146670041E+03  0.52146670041E+03  0.25500000000E-02 0.  1.
          2   -1    0    0  501    0  0.00000000000E+00 -0.00000000000E+00 -0.12151367770E+04  0.12151367770E+04  0.25500000000E-02 0. -1.
    8880023    1    1    2    0    0  0.36249034629E+03  0.23170114424E+03 -0.93355795199E+03  0.12208297700E+04  0.65864270000E+03 0. -1.
    8880022    1    1    2    0    0 -0.36249034629E+03 -0.23170114424E+03  0.23988787544E+03  0.51577370735E+03  0.15294330000E+03 0.  0.
<mgrwt>
<rscale>  0 0.68665475E+03</rscale>
<asrwt>0</asrwt>
<pdfrwt beam="1">  1        2 0.18694412E+00 0.78669872E+03</pdfrwt>
<pdfrwt beam="2">  1       -2 0.80225647E-01 0.78669872E+03</pdfrwt>
<totfact> 0.25866490E+01</totfact>
</mgrwt>
</event>
<event>
 4    2  0.3855935E-007  0.7915063E+03  0.7818608E-02  0.9729471E-01
         -2   -1    0    0    0  501 -0.00000000000E+00  0.00000000000E+00  0.31510018284E+03  0.31510018285E+03  0.25500000000E-02 0.  1.
          2   -1    0    0  501    0  0.00000000000E+00 -0.00000000000E+00 -0.28871099107E+04  0.28871099107E+04  0.25500000000E-02 0. -1.
    8880023    1    1    2    0    0  0.27606340696E+02  0.43807518401E+03 -0.24401966904E+03  0.82826794097E+03  0.65864270000E+03 0.  1.
    8880022    1    1    2    0    0 -0.27606340696E+02 -0.43807518401E+03 -0.23279900588E+04  0.23739421526E+04  0.15294330000E+03 0.  0.
<mgrwt>
<rscale>  0 0.69288870E+03</rscale>
<asrwt>0</asrwt>
<pdfrwt beam="1">  1        2 0.44417074E+00 0.79150627E+03</pdfrwt>
<pdfrwt beam="2">  1       -2 0.48476953E-01 0.79150627E+03</pdfrwt>
<totfact> 0.86817727E+00</totfact>
</mgrwt>
</event>
<event>
 4    2  0.3855935E-007  0.9605959E+03  0.7818608E-02  0.9435030E-01
          2   -1    0    0  501    0  0.00000000000E+00  0.00000000000E+00  0.47004307244E+04  0.47004307244E+04  0.25500000000E-02 0. -1.
         -2   -1    0    0    0  501 -0.00000000000E+00 -0.00000000000E+00 -0.20913297374E+03  0.20913297375E+03  0.25500000000E-02 0.  1.
    8880023    1    1    2    0    0  0.85363725835E+02 -0.69400819230E+03  0.11788672156E+04  0.15206815758E+04  0.65864270000E+03 0.  0.
    8880022    1    1    2    0    0 -0.85363725835E+02  0.69400819230E+03  0.33124305351E+04  0.33888821224E+04  0.15294330000E+03 0.  0.
<mgrwt>
<rscale>  0 0.89248075E+03</rscale>
<asrwt>0</asrwt>
<pdfrwt beam="1">  1        2 0.72314314E+00 0.96059593E+03</pdfrwt>
<pdfrwt beam="2">  1       -2 0.32174306E-01 0.96059593E+03</pdfrwt>
<totfact> 0.75479906E-01</totfact>
</mgrwt>
</event>
<event>
 4    2  0.3855935E-007  0.7119266E+03  0.7818608E-02  0.9950915E-01
         -2   -1    0    0    0  501 -0.00000000000E+00  0.00000000000E+00  0.60796367457E+03  0.60796367457E+03  0.25500000000E-02 0.  1.
          2   -1    0    0  501    0  0.00000000000E+00 -0.00000000000E+00 -0.71319395452E+03  0.71319395452E+03  0.25500000000E-02 0. -1.
    8880023    1    1    2    0    0 -0.16341865583E+03 -0.21522924224E+03 -0.46160505297E+03  0.84848023842E+03  0.65864270000E+03 0. -1.
    8880022    1    1    2    0    0  0.16341865583E+03  0.21522924224E+03  0.35637477303E+03  0.47267739067E+03  0.15294330000E+03 0.  0.
<mgrwt>
<rscale>  0 0.57855924E+03</rscale>
<asrwt>0</asrwt>
<pdfrwt beam="1">  1        2 0.10972215E+00 0.71192660E+03</pdfrwt>
<pdfrwt beam="2">  1       -2 0.93532873E-01 0.71192660E+03</pdfrwt>
<totfact> 0.39305931E+01</totfact>
</mgrwt>
</event>
<event>
 4    2  0.3855935E-007  0.1394864E+04  0.7818608E-02  0.8987684E-01
          2   -1    0    0  501    0  0.00000000000E+00  0.00000000000E+00  0.38737717944E+04  0.38737717944E+04  0.25500000000E-02 0. -1.
         -2   -1    0    0    0  501 -0.00000000000E+00 -0.00000000000E+00 -0.51115208599E+03  0.51115208599E+03  0.25500000000E-02 0.  1.
    8880023    1    1    2    0    0  0.12028256644E+04 -0.25503833883E+03  0.99727170217E+03  0.17146997368E+04  0.65864270000E+03 0.  0.
    8880022    1    1    2    0    0 -0.12028256644E+04  0.25503833883E+03  0.23653480062E+04  0.26702241435E+04  0.15294330000E+03 0.  0.
<mgrwt>
<rscale>  0 0.13541611E+04</rscale>
<asrwt>0</asrwt>
<pdfrwt beam="1">  1        2 0.59596487E+00 0.13948636E+04</pdfrwt>
<pdfrwt beam="2">  1       -2 0.78638785E-01 0.13948636E+04</pdfrwt>
<totfact> 0.61016560E-01</totfact>
</mgrwt>
</event>
<event>
 4    2  0.3855935E-007  0.6795237E+03  0.7818608E-02  0.1009594E+00
         -2   -1    0    0    0  501 -0.00000000000E+00  0.00000000000E+00  0.78109380569E+03  0.78109380569E+03  0.25500000000E-02 0.  1.
          2   -1    0    0  501    0  0.00000000000E+00 -0.00000000000E+00 -0.37952376781E+03  0.37952376782E+03  0.25500000000E-02 0. -1.
    8880023    1    1    2    0    0  0.16534261611E+03 -0.24578538808E+02  0.56297422185E+03  0.88243553079E+03  0.65864270000E+03 0.  1.
    8880022    1    1    2    0    0 -0.16534261611E+03  0.24578538808E+02 -0.16140418397E+03  0.27818204272E+03  0.15294330000E+03 0.  0.
<mgrwt>
<rscale>  0 0.51636172E+03</rscale>
<asrwt>0</asrwt>
<pdfrwt beam="1">  1        2 0.58388272E-01 0.67952372E+03</pdfrwt>
<pdfrwt beam="2">  1       -2 0.12016828E+00 0.67952372E+03</pdfrwt>
<totfact> 0.45359018E+01</totfact>
</mgrwt>
</event>
<event>
 4    2  0.3855935E-007  0.7815312E+03  0.7818608E-02  0.9752252E-01
          2   -1    0    0  501    0  0.00000000000E+00  0.00000000000E+00  0.54301784273E+03  0.54301784273E+03  0.25500000000E-02 0. -1.
         -2   -1    0    0    0  501 -0.00000000000E+00 -0.00000000000E+00 -0.27264877658E+04  0.27264877658E+04  0.25500000000E-02 0.  1.
    8880023    1    1    2    0    0  0.14129982104E+03  0.39625133593E+03 -0.25649504631E+04  0.26813731268E+04  0.65864270000E+03 0.  1.
    8880022    1    1    2    0    0 -0.14129982104E+03 -0.39625133593E+03  0.38148054002E+03  0.58813248175E+03  0.15294330000E+03 0.  0.
<mgrwt>
<rscale>  0 0.67989128E+03</rscale>
<asrwt>0</asrwt>
<pdfrwt beam="1">  1        2 0.83541208E-01 0.78153117E+03</pdfrwt>
<pdfrwt beam="2">  1       -2 0.41945965E+00 0.78153117E+03</pdfrwt>
<totfact> 0.32742103E-01</totfact>
</mgrwt>
</event>
<event>
 4    2  0.3855935E-007  0.7018735E+03  0.7818608E-02  0.9989516E-01
          2   -1    0    0  501    0  0.00000000000E+00  0.00000000000E+00  0.97689714063E+03  0.97689714064E+03  0.25500000000E-02 0. -1.
         -2   -1    0    0    0  501 -0.00000000000E+00 -0.00000000000E+00 -0.37987687841E+03  0.37987687842E+03  0.25500000000E-02 0.  1.
    8880023    1    1    2    0    0  0.23108789619E+02 -0.24141698296E+03  0.82732659989E+01  0.70192223858E+03  0.65864270000E+03 0.  0.
    8880022    1    1    2    0    0 -0.23108789619E+02  0.24141698296E+03  0.58874699623E+03  0.65485178048E+03  0.15294330000E+03 0.  0.
<mgrwt>
<rscale>  0 0.56112326E+03</rscale>
<asrwt>0</asrwt>
<pdfrwt beam="1">  1        2 0.15029187E+00 0.70187348E+03</pdfrwt>
<pdfrwt beam="2">  1       -2 0.58442596E-01 0.70187348E+03</pdfrwt>
<totfact> 0.72691282E+01</totfact>
</mgrwt>
</event>
<event>
 4    2  0.3855935E-007  0.1288167E+04  0.7818608E-02  0.9075847E-01
         -2   -1    0    0    0  501 -0.00000000000E+00  0.00000000000E+00  0.47763692515E+03  0.47763692515E+03  0.25500000000E-02 0.  1.
          2   -1    0    0  501    0  0.00000000000E+00 -0.00000000000E+00 -0.44011574248E+04  0.44011574248E+04  0.25500000000E-02 0. -1.
    8880023    1    1    2    0    0 -0.10823377357E+04 -0.23261091242E+03 -0.69792663300E+03  0.14650851859E+04  0.65864270000E+03 0.  0.
    8880022    1    1    2    0    0  0.10823377357E+04  0.23261091242E+03 -0.32255938666E+04  0.34137091640E+04  0.15294330000E+03 0.  0.
<mgrwt>
<rscale>  0 0.12432181E+04</rscale>
<asrwt>0</asrwt>
<pdfrwt beam="1">  1        2 0.67710111E+00 0.12881665E+04</pdfrwt>
<pdfrwt beam="2">  1       -2 0.73482607E-01 0.12881665E+04</pdfrwt>
<totfact> 0.25969995E-01</totfact>
</mgrwt>
</event>
<event>
 4    2  0.3855935E-007  0.6595591E+03  0.7818608E-02  0.1024613E+00
          2   -1    0    0  501    0  0.00000000000E+00  0.00000000000E+00  0.45930243160E+03  0.45930243160E+03  0.25500000000E-02 0. -1.
         -2   -1    0    0    0  501 -0.00000000000E+00 -0.00000000000E+00 -0.99027172874E+03  0.99027172874E+03  0.25500000000E-02 0.  1.
    8880023    1    1    2    0    0 -0.13544983041E+02 -0.32008124206E+02 -0.86075172196E+03  0.10843946328E+04  0.65864270000E+03 0.  0.
    8880022    1    1    2    0    0  0.13544983041E+02  0.32008124206E+02  0.32978242482E+03  0.36517952752E+03  0.15294330000E+03 0. -1.
<mgrwt>
<rscale>  0 0.46058138E+03</rscale>
<asrwt>0</asrwt>
<pdfrwt beam="1">  1        2 0.70661913E-01 0.65955909E+03</pdfrwt>
<pdfrwt beam="2">  1       -2 0.15234950E+00 0.65955909E+03</pdfrwt>
<totfact> 0.19958530E+01</totfact>
</mgrwt>
</event>
<event>
 4    2  0.3855935E-007  0.7095016E+03  0.7818608E-02  0.9959856E-01
         -2   -1    0    0    0  501 -0.00000000000E+00  0.00000000000E+00  0.41158897225E+03  0.41158897225E+03  0.25500000000E-02 0.  1.
          2   -1    0    0  501    0  0.00000000000E+00 -0.00000000000E+00 -0.81590933884E+03  0.81590933885E+03  0.25500000000E-02 0. -1.
    8880023    1    1    2    0    0  0.10249970069E+03 -0.24305574829E+03  0.14246859795E+02  0.70964460450E+03  0.65864270000E+03 0.  1.
    8880022    1    1    2    0    0 -0.10249970069E+03  0.24305574829E+03 -0.41856722639E+03  0.51785370660E+03  0.15294330000E+03 0.  0.
<mgrwt>
<rscale>  0 0.57446051E+03</rscale>
<asrwt>0</asrwt>
<pdfrwt beam="1">  1        2 0.12552451E+00 0.70950158E+03</pdfrwt>
<pdfrwt beam="2">  1       -2 0.63321380E-01 0.70950158E+03</pdfrwt>
<totfact> 0.78718687E+01</totfact>
</mgrwt>
</event>
<event>
 4    2  0.3855935E-007  0.6626240E+03  0.7818608E-02  0.1021616E+00
          2   -1    0    0  501    0  0.00000000000E+00  0.00000000000E+00  0.16317007251E+04  0.16317007251E+04  0.25500000000E-02 0. -1.
         -2   -1    0    0    0  501 -0.00000000000E+00 -0.00000000000E+00 -0.11462736460E+03  0.11462736463E+03  0.25500000000E-02 0.  1.
    8880023    1    1    2    0    0  0.32371873524E+02 -0.64902871870E+02  0.97825183001E+03  0.11815444004E+04  0.65864270000E+03 0.  1.
    8880022    1    1    2    0    0 -0.32371873524E+02  0.64902871870E+02  0.53882153045E+03  0.56478368927E+03  0.15294330000E+03 0.  0.
<mgrwt>
<rscale>  0 0.47108001E+03</rscale>
<asrwt>0</asrwt>
<pdfrwt beam="1">  1        2 0.25103088E+00 0.66262397E+03</pdfrwt>
<pdfrwt beam="2">  1       -2 0.17634980E-01 0.66262397E+03</pdfrwt>
<totfact> 0.29076473E+02</totfact>
</mgrwt>
</event>
<event>
 4    2  0.3855935E-007  0.7012256E+03  0.7818608E-02  0.9992155E-01
         -2   -1    0    0    0  501 -0.00000000000E+00  0.00000000000E+00  0.88278122185E+02  0.88278122222E+02  0.25500000000E-02 0.  1.
          2   -1    0    0  501    0  0.00000000000E+00 -0.00000000000E+00 -0.29706390132E+04  0.29706390132E+04  0.25500000000E-02 0. -1.
    8880023    1    1    2    0    0 -0.22544588483E+03 -0.84150179031E+02 -0.16286954456E+04  0.17732360701E+04  0.65864270000E+03 0.  1.
    8880022    1    1    2    0    0  0.22544588483E+03  0.84150179031E+02 -0.12536654454E+04  0.12856810653E+04  0.15294330000E+03 0.  0.
<mgrwt>
<rscale>  0 0.55995586E+03</rscale>
<asrwt>0</asrwt>
<pdfrwt beam="1">  1        2 0.45702131E+00 0.70122557E+03</pdfrwt>
<pdfrwt beam="2">  1       -2 0.13581252E-01 0.70122557E+03</pdfrwt>
<totfact> 0.79820993E+01</totfact>
</mgrwt>
</event>
<event>
 4    2  0.3855935E-007  0.6832807E+03  0.7818608E-02  0.1007526E+00
          2   -1    0    0  501    0  0.00000000000E+00  0.00000000000E+00  0.10269826621E+04  0.10269826621E+04  0.25500000000E-02 0. -1.
         -2   -1    0    0    0  501 -0.00000000000E+00 -0.00000000000E+00 -0.12901241363E+04  0.12901241363E+04  0.25500000000E-02 0.  1.
    8880023    1    1    2    0    0 -0.50421424314E+02 -0.17469988472E+03 -0.11834955902E+04  0.13665776187E+04  0.65864270000E+03 0.  1.
    8880022    1    1    2    0    0  0.50421424314E+02  0.17469988472E+03  0.92035411594E+03  0.95052917971E+03  0.15294330000E+03 0.  0.
<mgrwt>
<rscale>  0 0.52470022E+03</rscale>
<asrwt>0</asrwt>
<pdfrwt beam="1">  1        2 0.15799733E+00 0.68328074E+03</pdfrwt>
<pdfrwt beam="2">  1       -2 0.19848064E+00 0.68328074E+03</pdfrwt>
<totfact> 0.34100191E+00</totfact>
</mgrwt>
</event>
<event>
 4    2  0.3855935E-007  0.7743996E+03  0.7818608E-02  0.9769161E-01
         -2   -1    0    0    0  501 -0.00000000000E+00  0.00000000000E+00  0.12109741177E+04  0.12109741177E+04  0.25500000000E-02 0.  1.
          2   -1    0    0  501    0  0.00000000000E+00 -0.00000000000E+00 -0.72360760538E+03  0.72360760539E+03  0.25500000000E-02 0. -1.
    8880023    1    1    2    0    0  0.18976229853E+03 -0.36038148495E+03  0.99834463520E+03  0.12634819989E+04  0.65864270000E+03 0.  1.
    8880022    1    1    2    0    0 -0.18976229853E+03  0.36038148495E+03 -0.51097812292E+03  0.67109972416E+03  0.15294330000E+03 0.  0.
<mgrwt>
<rscale>  0 0.67044143E+03</rscale>
<asrwt>0</asrwt>
<pdfrwt beam="1">  1        2 0.11132425E+00 0.77439961E+03</pdfrwt>
<pdfrwt beam="2">  1       -2 0.18630371E+00 0.77439961E+03</pdfrwt>
<totfact> 0.65521789E+00</totfact>
</mgrwt>
</event>
<event>
 4    2  0.3855935E-007  0.6597692E+03  0.7818608E-02  0.1024394E+00
          2   -1    0    0  501    0  0.00000000000E+00  0.00000000000E+00  0.85237191873E+03  0.85237191873E+03  0.25500000000E-02 0. -1.
         -2   -1    0    0    0  501 -0.00000000000E+00 -0.00000000000E+00 -0.27571687285E+03  0.27571687286E+03  0.25500000000E-02 0.  1.
    8880023    1    1    2    0    0  0.12134856163E+02 -0.36577007172E+02  0.15476212045E+03  0.67767739550E+03  0.65864270000E+03 0.  1.
    8880022    1    1    2    0    0 -0.12134856163E+02  0.36577007172E+02  0.42189292542E+03  0.45041139609E+03  0.15294330000E+03 0.  0.
<mgrwt>
<rscale>  0 0.46133700E+03</rscale>
<asrwt>0</asrwt>
<pdfrwt beam="1">  1        2 0.13113414E+00 0.65976916E+03</pdfrwt>
<pdfrwt beam="2">  1       -2 0.42417981E-01 0.65976916E+03</pdfrwt>
<totfact> 0.16924604E+02</totfact>
</mgrwt>
</event>
<event>
 4    2  0.3855935E-007  0.9178884E+03  0.7818608E-02  0.9497904E-01
         -2   -1    0    0    0  501 -0.00000000000E+00  0.00000000000E+00  0.42091700600E+03  0.42091700601E+03  0.25500000000E-02 0.  1.
          2   -1    0    0  501    0  0.00000000000E+00 -0.00000000000E+00 -0.21278539223E+04  0.21278539223E+04  0.25500000000E-02 0. -1.
    8880023    1    1    2    0    0  0.15913399930E+03  0.61918117934E+03 -0.25141598414E+03  0.95169804346E+03  0.65864270000E+03 0.  1.
    8880022    1    1    2    0    0 -0.15913399930E+03 -0.61918117934E+03 -0.14555209322E+04  0.15970728849E+04  0.15294330000E+03 0. -1.
<mgrwt>
<rscale>  0 0.84438504E+03</rscale>
<asrwt>0</asrwt>
<pdfrwt beam="1">  1        2 0.32736214E+00 0.91788843E+03</pdfrwt>
<pdfrwt beam="2">  1       -2 0.64756464E-01 0.91788843E+03</pdfrwt>
<totfact> 0.12660579E+01</totfact>
</mgrwt>
</event>
<event>
 4    2  0.3855935E-007  0.7995991E+03  0.7818608E-02  0.9711663E-01
         -2   -1    0    0    0  501 -0.00000000000E+00  0.00000000000E+00  0.46294250315E+03  0.46294250316E+03  0.25500000000E-02 0.  1.
          2   -1    0    0  501    0  0.00000000000E+00 -0.00000000000E+00 -0.11398413011E+04  0.11398413011E+04  0.25500000000E-02 0. -1.
    8880023    1    1    2    0    0  0.36555226308E+03 -0.26817926056E+03 -0.32618147358E+02  0.80026415804E+03  0.65864270000E+03 0.  1.
    8880022    1    1    2    0    0 -0.36555226308E+03  0.26817926056E+03 -0.64428065054E+03  0.80251964619E+03  0.15294330000E+03 0.  0.
<mgrwt>
<rscale>  0 0.70326580E+03</rscale>
<asrwt>0</asrwt>
<pdfrwt beam="1">  1        2 0.17536020E+00 0.79959914E+03</pdfrwt>
<pdfrwt beam="2">  1       -2 0.71221924E-01 0.79959914E+03</pdfrwt>
<totfact> 0.37329377E+01</totfact>
</mgrwt>
</event>
<event>
 4    2  0.3855935E-007  0.8976736E+03  0.7818608E-02  0.9529777E-01
         -2   -1    0    0    0  501 -0.00000000000E+00  0.00000000000E+00  0.56889968679E+03  0.56889968680E+03  0.25500000000E-02 0.  1.
          2   -1    0    0  501    0  0.00000000000E+00 -0.00000000000E+00 -0.14189889189E+04  0.14189889189E+04  0.25500000000E-02 0. -1.
    8880023    1    1    2    0    0  0.25880132267E+03  0.55229479768E+03  0.39450513753E+02  0.89854004778E+03  0.65864270000E+03 0.  1.
    8880022    1    1    2    0    0 -0.25880132267E+03 -0.55229479768E+03 -0.88953974585E+03  0.10893485579E+04  0.15294330000E+03 0.  0.
<mgrwt>
<rscale>  0 0.82123666E+03</rscale>
<asrwt>0</asrwt>
<pdfrwt beam="1">  1        2 0.21830599E+00 0.89767359E+03</pdfrwt>
<pdfrwt beam="2">  1       -2 0.87523029E-01 0.89767359E+03</pdfrwt>
<totfact> 0.15998843E+01</totfact>
</mgrwt>
</event>
<event>
 4    2  0.3855935E-007  0.8995034E+03  0.7818608E-02  0.9526829E-01
         -2   -1    0    0    0  501 -0.00000000000E+00  0.00000000000E+00  0.33046274499E+03  0.33046274500E+03  0.25500000000E-02 0.  1.
          2   -1    0    0  501    0  0.00000000000E+00 -0.00000000000E+00 -0.23381876545E+04  0.23381876545E+04  0.25500000000E-02 0. -1.
    8880023    1    1    2    0    0 -0.57714307986E+03 -0.20543143423E+03 -0.48884885511E+03  0.10237575974E+04  0.65864270000E+03 0.  1.
    8880022    1    1    2    0    0  0.57714307986E+03  0.20543143423E+03 -0.15188760544E+04  0.16448928021E+04  0.15294330000E+03 0.  0.
<mgrwt>
<rscale>  0 0.82334385E+03</rscale>
<asrwt>0</asrwt>
<pdfrwt beam="1">  1        2 0.35972117E+00 0.89950343E+03</pdfrwt>
<pdfrwt beam="2">  1       -2 0.50840424E-01 0.89950343E+03</pdfrwt>
<totfact> 0.16108079E+01</totfact>
</mgrwt>
</event>
<event>
 4    2  0.3855935E-007  0.8643509E+03  0.7818608E-02  0.9585870E-01
         -2   -1    0    0    0  501 -0.00000000000E+00  0.00000000000E+00  0.11794670043E+04  0.11794670043E+04  0.25500000000E-02 0.  1.
          2   -1    0    0  501    0  0.00000000000E+00 -0.00000000000E+00 -0.45434988579E+03  0.45434988579E+03  0.25500000000E-02 0. -1.
    8880023    1    1    2    0    0  0.54863971646E+03  0.11084526336E+03  0.56231893409E+03  0.10311668152E+04  0.65864270000E+03 0.  0.
    8880022    1    1    2    0    0 -0.54863971646E+03 -0.11084526336E+03  0.16279818442E+03  0.60265007488E+03  0.15294330000E+03 0.  0.
<mgrwt>
<rscale>  0 0.78238469E+03</rscale>
<asrwt>0</asrwt>
<pdfrwt beam="1">  1        2 0.69899983E-01 0.86435086E+03</pdfrwt>
<pdfrwt beam="2">  1       -2 0.18145646E+00 0.86435086E+03</pdfrwt>
<totfact> 0.12258506E+01</totfact>
</mgrwt>
</event>
<event>
 4    2  0.3855935E-007  0.6881899E+03  0.7818608E-02  0.1005025E+00
          2   -1    0    0  501    0  0.00000000000E+00  0.00000000000E+00  0.55523330449E+03  0.55523330450E+03  0.25500000000E-02 0. -1.
         -2   -1    0    0    0  501 -0.00000000000E+00 -0.00000000000E+00 -0.52989399361E+03  0.52989399361E+03  0.25500000000E-02 0.  1.
    8880023    1    1    2    0    0 -0.12398288681E+03 -0.15627980711E+03 -0.23117536895E+03  0.72598029712E+03  0.65864270000E+03 0.  1.
    8880022    1    1    2    0    0  0.12398288681E+03  0.15627980711E+03  0.25651467984E+03  0.35914700099E+03  0.15294330000E+03 0.  0.
<mgrwt>
<rscale>  0 0.53500705E+03</rscale>
<asrwt>0</asrwt>
<pdfrwt beam="1">  1        2 0.85420508E-01 0.68818990E+03</pdfrwt>
<pdfrwt beam="2">  1       -2 0.81522153E-01 0.68818990E+03</pdfrwt>
<totfact> 0.73244527E+01</totfact>
</mgrwt>
</event>
<event>
 4    2  0.3855935E-007  0.6594820E+03  0.7818608E-02  0.1024694E+00
         -2   -1    0    0    0  501 -0.00000000000E+00  0.00000000000E+00  0.62387196071E+03  0.62387196071E+03  0.25500000000E-02 0.  1.
          2   -1    0    0  501    0  0.00000000000E+00 -0.00000000000E+00 -0.55121250677E+03  0.55121250678E+03  0.25500000000E-02 0. -1.
    8880023    1    1    2    0    0 -0.32285753286E+02 -0.79944281225E+01  0.42841533619E+03  0.78641985434E+03  0.65864270000E+03 0.  1.
    8880022    1    1    2    0    0  0.32285753286E+02  0.79944281225E+01 -0.35575588225E+03  0.38866461315E+03  0.15294330000E+03 0.  0.
<mgrwt>
<rscale>  0 0.46030255E+03</rscale>
<asrwt>0</asrwt>
<pdfrwt beam="1">  1        2 0.84801925E-01 0.65948198E+03</pdfrwt>
<pdfrwt beam="2">  1       -2 0.95980301E-01 0.65948198E+03</pdfrwt>
<totfact> 0.50893071E+01</totfact>
</mgrwt>
</event>
<event>
 4    2  0.3855935E-007  0.9238383E+03  0.7818608E-02  0.9488799E-01
          2   -1    0    0  501    0  0.00000000000E+00  0.00000000000E+00  0.66699747593E+03  0.66699747594E+03  0.25500000000E-02 0. -1.
         -2   -1    0    0    0  501 -0.00000000000E+00 -0.00000000000E+00 -0.19314235536E+04  0.19314235536E+04  0.25500000000E-02 0.  1.
    8880023    1    1    2    0    0 -0.12636292827E+03  0.63537351294E+03 -0.16041173642E+04  0.18511266340E+04  0.65864270000E+03 0.  0.
    8880022    1    1    2    0    0  0.12636292827E+03 -0.63537351294E+03  0.33969128649E+03  0.74729439561E+03  0.15294330000E+03 0.  0.
<mgrwt>
<rscale>  0 0.85114716E+03</rscale>
<asrwt>0</asrwt>
<pdfrwt beam="1">  1        2 0.10261500E+00 0.92383835E+03</pdfrwt>
<pdfrwt beam="2">  1       -2 0.29714208E+00 0.92383835E+03</pdfrwt>
<totfact> 0.14624739E+00</totfact>
</mgrwt>
</event>
<event>
 4    2  0.3855935E-007  0.8153630E+03  0.7818608E-02  0.9678512E-01
         -2   -1    0    0    0  501 -0.00000000000E+00  0.00000000000E+00  0.42758932024E+03  0.42758932024E+03  0.25500000000E-02 0.  1.
          2   -1    0    0  501    0  0.00000000000E+00 -0.00000000000E+00 -0.11830679013E+04  0.11830679013E+04  0.25500000000E-02 0. -1.
    8880023    1    1    2    0    0  0.60741277007E+02  0.47677791925E+03 -0.16111692883E+03  0.83112908626E+03  0.65864270000E+03 0.  0.
    8880022    1    1    2    0    0 -0.60741277007E+02 -0.47677791925E+03 -0.59436165221E+03  0.77952813525E+03  0.15294330000E+03 0.  0.
<mgrwt>
<rscale>  0 0.72310698E+03</rscale>
<asrwt>0</asrwt>
<pdfrwt beam="1">  1        2 0.18201044E+00 0.81536304E+03</pdfrwt>
<pdfrwt beam="2">  1       -2 0.65782973E-01 0.81536304E+03</pdfrwt>
<totfact> 0.41735137E+01</totfact>
</mgrwt>
</event>
<event>
 4    2  0.3855935E-007  0.8588201E+03  0.7818608E-02  0.9595666E-01
          2   -1    0    0  501    0  0.00000000000E+00  0.00000000000E+00  0.12716481828E+04  0.12716481828E+04  0.25500000000E-02 0. -1.
         -2   -1    0    0    0  501 -0.00000000000E+00 -0.00000000000E+00 -0.70956478077E+03  0.70956478078E+03  0.25500000000E-02 0.  1.
    8880023    1    1    2    0    0 -0.48860202470E+03 -0.25500953627E+03 -0.33122605950E+03  0.92047960916E+03  0.65864270000E+03 0.  0.
    8880022    1    1    2    0    0  0.48860202470E+03  0.25500953627E+03  0.89330946157E+03  0.10607333545E+04  0.15294330000E+03 0.  0.
<mgrwt>
<rscale>  0 0.77583720E+03</rscale>
<asrwt>0</asrwt>
<pdfrwt beam="1">  1        2 0.19563818E+00 0.85882013E+03</pdfrwt>
<pdfrwt beam="2">  1       -2 0.10916381E+00 0.85882013E+03</pdfrwt>
<totfact> 0.11585220E+01</totfact>
</mgrwt>
</event>
<event>
 4    2  0.3855935E-007  0.7208885E+03  0.7818608E-02  0.9919591E-01
         -2   -1    0    0    0  501 -0.00000000000E+00  0.00000000000E+00  0.74061069546E+03  0.74061069547E+03  0.25500000000E-02 0.  1.
          2   -1    0    0  501    0  0.00000000000E+00 -0.00000000000E+00 -0.74054799523E+03  0.74054799523E+03  0.25500000000E-02 0. -1.
    8880023    1    1    2    0    0 -0.23005518923E+03 -0.18150644633E+03  0.50320912894E+03  0.87914709456E+03  0.65864270000E+03 0.  0.
    8880022    1    1    2    0    0  0.23005518923E+03  0.18150644633E+03 -0.50314642871E+03  0.60201159614E+03  0.15294330000E+03 0.  0.
<mgrwt>
<rscale>  0 0.59321144E+03</rscale>
<asrwt>0</asrwt>
<pdfrwt beam="1">  1        2 0.11393046E+00 0.72088847E+03</pdfrwt>
<pdfrwt beam="2">  1       -2 0.11394011E+00 0.72088847E+03</pdfrwt>
<totfact> 0.23376969E+01</totfact>
</mgrwt>
</event>
<event>
 4    2  0.3855935E-007  0.7757260E+03  0.7818608E-02  0.9765974E-01
         -2   -1    0    0    0  501 -0.00000000000E+00  0.00000000000E+00  0.66881889653E+03  0.66881889653E+03  0.25500000000E-02 0.  1.
          2   -1    0    0  501    0  0.00000000000E+00 -0.00000000000E+00 -0.62372673520E+03  0.62372673521E+03  0.25500000000E-02 0. -1.
    8880023    1    1    2    0    0 -0.25866976268E+03  0.31785302093E+03  0.24236049726E+03  0.81270499318E+03  0.65864270000E+03 0.  1.
    8880022    1    1    2    0    0  0.25866976268E+03 -0.31785302093E+03 -0.19726833593E+03  0.47984063856E+03  0.15294330000E+03 0. -1.
<mgrwt>
<rscale>  0 0.67220970E+03</rscale>
<asrwt>0</asrwt>
<pdfrwt beam="1">  1        2 0.95957959E-01 0.77572598E+03</pdfrwt>
<pdfrwt beam="2">  1       -2 0.10289521E+00 0.77572598E+03</pdfrwt>
<totfact> 0.36896016E+01</totfact>
</mgrwt>
</event>
<event>
 4    2  0.3855935E-007  0.7760623E+03  0.7818608E-02  0.9765169E-01
          2   -1    0    0  501    0  0.00000000000E+00  0.00000000000E+00  0.29354182059E+04  0.29354182059E+04  0.25500000000E-02 0. -1.
         -2   -1    0    0    0  501 -0.00000000000E+00 -0.00000000000E+00 -0.59012356478E+03  0.59012356478E+03  0.25500000000E-02 0.  1.
    8880023    1    1    2    0    0 -0.21113065099E+02 -0.40989849328E+03 -0.30902431758E+03  0.83532554817E+03  0.65864270000E+03 0.  1.
    8880022    1    1    2    0    0  0.21113065099E+02  0.40989849328E+03  0.26543189587E+04  0.26902162225E+04  0.15294330000E+03 0.  0.
<mgrwt>
<rscale>  0 0.67265731E+03</rscale>
<asrwt>0</asrwt>
<pdfrwt beam="1">  1        2 0.45160280E+00 0.77606233E+03</pdfrwt>
<pdfrwt beam="2">  1       -2 0.90788241E-01 0.77606233E+03</pdfrwt>
<totfact> 0.20963137E+00</totfact>
</mgrwt>
</event>
<event>
 4    2  0.3855935E-007  0.6950173E+03  0.7818608E-02  0.1001853E+00
         -2   -1    0    0    0  501 -0.00000000000E+00  0.00000000000E+00  0.13343019599E+04  0.13343019599E+04  0.25500000000E-02 0.  1.
          2   -1    0    0  501    0  0.00000000000E+00 -0.00000000000E+00 -0.32477297692E+03  0.32477297693E+03  0.25500000000E-02 0. -1.
    8880023    1    1    2    0    0  0.15424534728E+03  0.15952188361E+03  0.11586138255E+04  0.13510866225E+04  0.65864270000E+03 0.  1.
    8880022    1    1    2    0    0 -0.15424534728E+03 -0.15952188361E+03 -0.14908484252E+03  0.30798831438E+03  0.15294330000E+03 0.  0.
<mgrwt>
<rscale>  0 0.54844945E+03</rscale>
<asrwt>0</asrwt>
<pdfrwt beam="1">  1        2 0.49965074E-01 0.69501731E+03</pdfrwt>
<pdfrwt beam="2">  1       -2 0.20527722E+00 0.69501731E+03</pdfrwt>
<totfact> 0.12642999E+01</totfact>
</mgrwt>
</event>
<event>
 4    2  0.3855935E-007  0.9790724E+03  0.7818608E-02  0.9409464E-01
          2   -1    0    0  501    0  0.00000000000E+00  0.00000000000E+00  0.10385135671E+04  0.10385135671E+04  0.25500000000E-02 0. -1.
         -2   -1    0    0    0  501 -0.00000000000E+00 -0.00000000000E+00 -0.84941327445E+03  0.84941327446E+03  0.25500000000E-02 0.  1.
    8880023    1    1    2    0    0 -0.63156394912E+03 -0.35482338383E+03 -0.27143216899E+03  0.10160011241E+04  0.65864270000E+03 0.  1.
    8880022    1    1    2    0    0  0.63156394912E+03  0.35482338383E+03  0.46053246165E+03  0.87192571747E+03  0.15294330000E+03 0.  0.
<mgrwt>
<rscale>  0 0.91300881E+03</rscale>
<asrwt>0</asrwt>
<pdfrwt beam="1">  1        2 0.15977132E+00 0.97907245E+03</pdfrwt>
<pdfrwt beam="2">  1       -2 0.13067897E+00 0.97907245E+03</pdfrwt>
<totfact> 0.10138991E+01</totfact>
</mgrwt>
</event>
<event>
 4    2  0.3855935E-007  0.8778055E+03  0.7818608E-02  0.9562644E-01
         -2   -1    0    0    0  501 -0.00000000000E+00  0.00000000000E+00  0.12577661587E+04  0.12577661587E+04  0.25500000000E-02 0.  1.
          2   -1    0    0  501    0  0.00000000000E+00 -0.00000000000E+00 -0.55991808712E+03  0.55991808712E+03  0.25500000000E-02 0. -1.
    8880023    1    1    2    0    0  0.79412910299E+02  0.57482685206E+03  0.82456710869E+03  0.12043477252E+04  0.65864270000E+03 0.  1.
    8880022    1    1    2    0    0 -0.79412910299E+02 -0.57482685206E+03 -0.12671903710E+03  0.61333652064E+03  0.15294330000E+03 0.  0.
<mgrwt>
<rscale>  0 0.79818807E+03</rscale>
<asrwt>0</asrwt>
<pdfrwt beam="1">  1        2 0.86141245E-01 0.87780552E+03</pdfrwt>
<pdfrwt beam="2">  1       -2 0.19350248E+00 0.87780552E+03</pdfrwt>
<totfact> 0.79569327E+00</totfact>
</mgrwt>
</event>
<event>
 4    2  0.3855935E-007  0.9172728E+03  0.7818608E-02  0.9498853E-01
          2   -1    0    0  501    0  0.00000000000E+00  0.00000000000E+00  0.26673739561E+04  0.26673739561E+04  0.25500000000E-02 0. -1.
         -2   -1    0    0    0  501 -0.00000000000E+00 -0.00000000000E+00 -0.44896810642E+03  0.44896810643E+03  0.25500000000E-02 0.  1.
    8880023    1    1    2    0    0  0.57302367646E+03  0.28146591130E+03  0.12908416967E+03  0.92631102883E+03  0.65864270000E+03 0.  0.
    8880022    1    1    2    0    0 -0.57302367646E+03 -0.28146591130E+03  0.20893216800E+04  0.21900310337E+04  0.15294330000E+03 0.  0.
<mgrwt>
<rscale>  0 0.84368412E+03</rscale>
<asrwt>0</asrwt>
<pdfrwt beam="1">  1        2 0.41036522E+00 0.91727281E+03</pdfrwt>
<pdfrwt beam="2">  1       -2 0.69072016E-01 0.91727281E+03</pdfrwt>
<totfact> 0.54548332E+00</totfact>
</mgrwt>
</event>
<event>
 4    2  0.3855935E-007  0.7020364E+03  0.7818608E-02  0.9988856E-01
          2   -1    0    0  501    0  0.00000000000E+00  0.00000000000E+00  0.23659049261E+04  0.23659049261E+04  0.25500000000E-02 0. -1.
         -2   -1    0    0    0  501 -0.00000000000E+00 -0.00000000000E+00 -0.16359475790E+03  0.16359475792E+03  0.25500000000E-02 0.  1.
    8880023    1    1    2    0    0  0.24162154117E+03 -0.25765541643E+02  0.66972138356E+03  0.97024830335E+03  0.65864270000E+03 0.  1.
    8880022    1    1    2    0    0 -0.24162154117E+03  0.25765541643E+02  0.15325887847E+04  0.15592513807E+04  0.15294330000E+03 0.  0.
<mgrwt>
<rscale>  0 0.56141580E+03</rscale>
<asrwt>0</asrwt>
<pdfrwt beam="1">  1        2 0.36398532E+00 0.70203635E+03</pdfrwt>
<pdfrwt beam="2">  1       -2 0.25168428E-01 0.70203635E+03</pdfrwt>
<totfact> 0.61413506E+01</totfact>
</mgrwt>
</event>
<event>
 4    2  0.3855935E-007  0.7390324E+03  0.7818608E-02  0.9862775E-01
         -2   -1    0    0    0  501 -0.00000000000E+00  0.00000000000E+00  0.10362990757E+04  0.10362990757E+04  0.25500000000E-02 0.  1.
          2   -1    0    0  501    0  0.00000000000E+00 -0.00000000000E+00 -0.13703830458E+04  0.13703830458E+04  0.25500000000E-02 0. -1.
    8880023    1    1    2    0    0  0.30363828333E+03  0.14199461918E+03  0.87347157619E+03  0.11441684665E+04  0.65864270000E+03 0.  1.
    8880022    1    1    2    0    0 -0.30363828333E+03 -0.14199461918E+03 -0.12075555463E+04  0.12625136551E+04  0.15294330000E+03 0.  0.
<mgrwt>
<rscale>  0 0.62099803E+03</rscale>
<asrwt>0</asrwt>
<pdfrwt beam="1">  1        2 0.21082816E+00 0.73903240E+03</pdfrwt>
<pdfrwt beam="2">  1       -2 0.15943063E+00 0.73903240E+03</pdfrwt>
<totfact> 0.39296677E+00</totfact>
</mgrwt>
</event>
<event>
 4    2  0.3855935E-007  0.9721920E+03  0.7818608E-02  0.9418879E-01
          2   -1    0    0  501    0  0.00000000000E+00  0.00000000000E+00  0.24164611328E+04  0.24164611328E+04  0.25500000000E-02 0. -1.
         -2   -1    0    0    0  501 -0.00000000000E+00 -0.00000000000E+00 -0.47253650756E+03  0.47253650757E+03  0.25500000000E-02 0.  1.
    8880023    1    1    2    0    0 -0.69759866915E+03 -0.15717242127E+03  0.19253099407E+03  0.99107288488E+03  0.65864270000E+03 0.  1.
    8880022    1    1    2    0    0  0.69759866915E+03  0.15717242127E+03  0.17513936312E+04  0.18979247555E+04  0.15294330000E+03 0.  0.
<mgrwt>
<rscale>  0 0.90538175E+03</rscale>
<asrwt>0</asrwt>
<pdfrwt beam="1">  1        2 0.37176325E+00 0.97219200E+03</pdfrwt>
<pdfrwt beam="2">  1       -2 0.72697925E-01 0.97219200E+03</pdfrwt>
<totfact> 0.67409977E+00</totfact>
</mgrwt>
</event>
<event>
 4    2  0.3855935E-007  0.6964106E+03  0.7818608E-02  0.1001243E+00
          2   -1    0    0  501    0  0.00000000000E+00  0.00000000000E+00  0.25039134880E+04  0.25039134881E+04  0.25500000000E-02 0. -1.
         -2   -1    0    0    0  501 -0.00000000000E+00 -0.00000000000E+00 -0.12299531172E+03  0.12299531175E+03  0.25500000000E-02 0.  1.
    8880023    1    1    2    0    0 -0.13565390483E+03  0.18104007070E+03  0.99596867515E+03  0.12152947368E+04  0.65864270000E+03 0.  1.
    8880022    1    1    2    0    0  0.13565390483E+03 -0.18104007070E+03  0.13849495012E+04  0.14116140630E+04  0.15294330000E+03 0.  0.
<mgrwt>
<rscale>  0 0.55108541E+03</rscale>
<asrwt>0</asrwt>
<pdfrwt beam="1">  1        2 0.38521746E+00 0.69641058E+03</pdfrwt>
<pdfrwt beam="2">  1       -2 0.18922356E-01 0.69641058E+03</pdfrwt>
<totfact> 0.85153816E+01</totfact>
</mgrwt>
</event>
<event>
 4    2  0.3855935E-007  0.7876412E+03  0.7818608E-02  0.9738184E-01
         -2   -1    0    0    0  501 -0.00000000000E+00  0.00000000000E+00  0.71117878432E+03  0.71117878432E+03  0.25500000000E-02 0.  1.
          2   -1    0    0  501    0  0.00000000000E+00 -0.00000000000E+00 -0.14369789896E+04  0.14369789896E+04  0.25500000000E-02 0. -1.
    8880023    1    1    2    0    0 -0.42828246876E+03  0.56059288974E+02  0.43529191674E+03  0.89992098318E+03  0.65864270000E+03 0.  1.
    8880022    1    1    2    0    0  0.42828246876E+03 -0.56059288974E+02 -0.11610921221E+04  0.12482367908E+04  0.15294330000E+03 0.  0.
<mgrwt>
<rscale>  0 0.68788122E+03</rscale>
<asrwt>0</asrwt>
<pdfrwt beam="1">  1        2 0.22107369E+00 0.78764124E+03</pdfrwt>
<pdfrwt beam="2">  1       -2 0.10941212E+00 0.78764124E+03</pdfrwt>
<totfact> 0.93447024E+00</totfact>
</mgrwt>
</event>
<event>
 4    2  0.3855935E-007  0.6720270E+03  0.7818608E-02  0.1014250E+00
          2   -1    0    0  501    0  0.00000000000E+00  0.00000000000E+00  0.85749436365E+03  0.85749436365E+03  0.25500000000E-02 0. -1.
         -2   -1    0    0    0  501 -0.00000000000E+00 -0.00000000000E+00 -0.10784404815E+04  0.10784404815E+04  0.25500000000E-02 0.  1.
    8880023    1    1    2    0    0  0.13322112672E+03 -0.78911513881E+01 -0.95869237935E+03  0.11707738566E+04  0.65864270000E+03 0.  1.
    8880022    1    1    2    0    0 -0.13322112672E+03  0.78911513881E+01  0.73774626154E+03  0.76516098849E+03  0.15294330000E+03 0.  0.
<mgrwt>
<rscale>  0 0.49820098E+03</rscale>
<asrwt>0</asrwt>
<pdfrwt beam="1">  1        2 0.13192221E+00 0.67202704E+03</pdfrwt>
<pdfrwt beam="2">  1       -2 0.16591392E+00 0.67202704E+03</pdfrwt>
<totfact> 0.73543791E+00</totfact>
</mgrwt>
</event>
<event>
 4    2  0.3855935E-007  0.8678045E+03  0.7818608E-02  0.9579829E-01
         -2   -1    0    0    0  501 -0.00000000000E+00  0.00000000000E+00  0.73660743049E+03  0.73660743049E+03  0.25500000000E-02 0.  1.
          2   -1    0    0  501    0  0.00000000000E+00 -0.00000000000E+00 -0.10898334358E+04  0.10898334358E+04  0.25500000000E-02 0. -1.
    8880023    1    1    2    0    0  0.46914091935E+03 -0.31493056244E+03  0.32848033280E+03  0.92789223333E+03  0.65864270000E+03 0.  1.
    8880022    1    1    2    0    0 -0.46914091935E+03  0.31493056244E+03 -0.68170633809E+03  0.89854863294E+03  0.15294330000E+03 0.  0.
<mgrwt>
<rscale>  0 0.78645762E+03</rscale>
<asrwt>0</asrwt>
<pdfrwt beam="1">  1        2 0.16766668E+00 0.86780451E+03</pdfrwt>
<pdfrwt beam="2">  1       -2 0.11332422E+00 0.86780451E+03</pdfrwt>
<totfact> 0.13579426E+01</totfact>
</mgrwt>
</event>
<event>
 4    2  0.3855935E-007  0.1376345E+04  0.7818608E-02  0.9002285E-01
          2   -1    0    0  501    0  0.00000000000E+00  0.00000000000E+00  0.75187978361E+03  0.75187978361E+03  0.25500000000E-02 0. -1.
         -2   -1    0    0    0  501 -0.00000000000E+00 -0.00000000000E+00 -0.26307353521E+04  0.26307353521E+04  0.25500000000E-02 0.  1.
    8880023    1    1    2    0    0  0.95012327745E+03 -0.74684701729E+03 -0.33587923577E+03  0.14167356058E+04  0.65864270000E+03 0.  0.
    8880022    1    1    2    0    0 -0.95012327745E+03  0.74684701729E+03 -0.15429763327E+04  0.19658795299E+04  0.15294330000E+03 0.  0.
<mgrwt>
<rscale>  0 0.13349692E+04</rscale>
<asrwt>0</asrwt>
<pdfrwt beam="1">  1        2 0.11567381E+00 0.13763448E+04</pdfrwt>
<pdfrwt beam="2">  1       -2 0.40472851E+00 0.13763448E+04</pdfrwt>
<totfact> 0.25014313E-01</totfact>
</mgrwt>
</event>
<event>
 4    2  0.3855935E-007  0.1437379E+04  0.7818608E-02  0.8955169E-01
          2   -1    0    0  501    0  0.00000000000E+00  0.00000000000E+00  0.22040332031E+04  0.22040332031E+04  0.25500000000E-02 0. -1.
         -2   -1    0    0    0  501 -0.00000000000E+00 -0.00000000000E+00 -0.98438956195E+03  0.98438956195E+03  0.25500000000E-02 0.  1.
    8880023    1    1    2    0    0 -0.38978620210E+03  0.12166818017E+04  0.32535462583E+02  0.14377470753E+04  0.65864270000E+03 0.  0.
    8880022    1    1    2    0    0  0.38978620210E+03 -0.12166818017E+04  0.11871081786E+04  0.17506756898E+04  0.15294330000E+03 0.  0.
<mgrwt>
<rscale>  0 0.13981352E+04</rscale>
<asrwt>0</asrwt>
<pdfrwt beam="1">  1        2 0.33908203E+00 0.14373789E+04</pdfrwt>
<pdfrwt beam="2">  1       -2 0.15144455E+00 0.14373789E+04</pdfrwt>
<totfact> 0.14252530E+00</totfact>
</mgrwt>
</event>
<event>
 4    2  0.3855935E-007  0.1362379E+04  0.7818608E-02  0.9013480E-01
         -2   -1    0    0    0  501 -0.00000000000E+00  0.00000000000E+00  0.25147007931E+04  0.25147007931E+04  0.25500000000E-02 0.  1.
          2   -1    0    0  501    0  0.00000000000E+00 -0.00000000000E+00 -0.14962002773E+04  0.14962002773E+04  0.25500000000E-02 0. -1.
    8880023    1    1    2    0    0 -0.92837800632E+02 -0.11889692357E+04  0.20265227304E+04  0.24418991142E+04  0.65864270000E+03 0.  1.
    8880022    1    1    2    0    0  0.92837800632E+02  0.11889692357E+04 -0.10080222146E+04  0.15690019563E+04  0.15294330000E+03 0.  0.
<mgrwt>
<rscale>  0 0.13204796E+04</rscale>
<asrwt>0</asrwt>
<pdfrwt beam="1">  1        2 0.23018466E+00 0.13623791E+04</pdfrwt>
<pdfrwt beam="2">  1       -2 0.38687704E+00 0.13623791E+04</pdfrwt>
<totfact> 0.11065238E-01</totfact>
</mgrwt>
</event>
<event>
 4    2  0.3855935E-007  0.8566006E+03  0.7818608E-02  0.9599639E-01
         -2   -1    0    0    0  501 -0.00000000000E+00  0.00000000000E+00  0.48067574004E+03  0.48067574004E+03  0.25500000000E-02 0.  1.
          2   -1    0    0  501    0  0.00000000000E+00 -0.00000000000E+00 -0.16834533094E+04  0.16834533094E+04  0.25500000000E-02 0. -1.
    8880023    1    1    2    0    0 -0.49918292080E+03 -0.22532359344E+03 -0.25803106863E+02  0.85698909956E+03  0.65864270000E+03 0.  1.
    8880022    1    1    2    0    0  0.49918292080E+03  0.22532359344E+03 -0.11769744625E+04  0.13071399499E+04  0.15294330000E+03 0.  0.
<mgrwt>
<rscale>  0 0.77320062E+03</rscale>
<asrwt>0</asrwt>
<pdfrwt beam="1">  1        2 0.25899282E+00 0.85660056E+03</pdfrwt>
<pdfrwt beam="2">  1       -2 0.73950114E-01 0.85660056E+03</pdfrwt>
<totfact> 0.16739358E+01</totfact>
</mgrwt>
</event>
<event>
 4    2  0.3855935E-007  0.8172922E+03  0.7818608E-02  0.9674583E-01
         -2   -1    0    0    0  501 -0.00000000000E+00  0.00000000000E+00  0.79685505028E+03  0.79685505028E+03  0.25500000000E-02 0.  1.
          2   -1    0    0  501    0  0.00000000000E+00 -0.00000000000E+00 -0.87785827414E+03  0.87785827415E+03  0.25500000000E-02 0. -1.
    8880023    1    1    2    0    0 -0.48093070625E+03 -0.53498167851E+02  0.45596070779E+03  0.93587754086E+03  0.65864270000E+03 0.  0.
    8880022    1    1    2    0    0  0.48093070625E+03  0.53498167851E+02 -0.53696393165E+03  0.73883578357E+03  0.15294330000E+03 0.  0.
<mgrwt>
<rscale>  0 0.72550484E+03</rscale>
<asrwt>0</asrwt>
<pdfrwt beam="1">  1        2 0.13505512E+00 0.81729224E+03</pdfrwt>
<pdfrwt beam="2">  1       -2 0.12259308E+00 0.81729224E+03</pdfrwt>
<totfact> 0.15416616E+01</totfact>
</mgrwt>
</event>
<event>
 4    2  0.3855935E-007  0.1073920E+04  0.7818608E-02  0.9290663E-01
          2   -1    0    0  501    0  0.00000000000E+00  0.00000000000E+00  0.18322444457E+04  0.18322444457E+04  0.25500000000E-02 0. -1.
         -2   -1    0    0    0  501 -0.00000000000E+00 -0.00000000000E+00 -0.64479089001E+03  0.64479089002E+03  0.25500000000E-02 0.  1.
    8880023    1    1    2    0    0  0.84645810050E+03 -0.54805848970E+02  0.84482621711E+02  0.10772383750E+04  0.65864270000E+03 0.  1.
    8880022    1    1    2    0    0 -0.84645810050E+03  0.54805848970E+02  0.11029709340E+04  0.13997969607E+04  0.15294330000E+03 0.  0.
<mgrwt>
<rscale>  0 0.10164696E+04</rscale>
<asrwt>0</asrwt>
<pdfrwt beam="1">  1        2 0.28188376E+00 0.10739205E+04</pdfrwt>
<pdfrwt beam="2">  1       -2 0.99198600E-01 0.10739205E+04</pdfrwt>
<totfact> 0.69049249E+00</totfact>
</mgrwt>
</event>
<event>
 4    2  0.3855935E-007  0.7439447E+03  0.7818608E-02  0.9848602E-01
         -2   -1    0    0    0  501 -0.00000000000E+00  0.00000000000E+00  0.37342852370E+03  0.37342852370E+03  0.25500000000E-02 0.  1.
          2   -1    0    0  501    0  0.00000000000E+00 -0.00000000000E+00 -0.11837067845E+04  0.11837067845E+04  0.25500000000E-02 0. -1.
    8880023    1    1    2    0    0 -0.24730405186E+02 -0.34501010119E+03 -0.90076623468E+03  0.11682609206E+04  0.65864270000E+03 0.  0.
    8880022    1    1    2    0    0  0.24730405186E+02  0.34501010119E+03  0.90487973898E+02  0.38887438756E+03  0.15294330000E+03 0.  0.
<mgrwt>
<rscale>  0 0.62818256E+03</rscale>
<asrwt>0</asrwt>
<pdfrwt beam="1">  1        2 0.18210873E+00 0.74394474E+03</pdfrwt>
<pdfrwt beam="2">  1       -2 0.57450542E-01 0.74394474E+03</pdfrwt>
<totfact> 0.55958490E+01</totfact>
</mgrwt>
</event>
<event>
 4    2  0.3855935E-007  0.8054292E+03  0.7818608E-02  0.9699178E-01
          2   -1    0    0  501    0  0.00000000000E+00  0.00000000000E+00  0.57169537133E+03  0.57169537134E+03  0.25500000000E-02 0. -1.
         -2   -1    0    0    0  501 -0.00000000000E+00 -0.00000000000E+00 -0.21117630978E+04  0.21117630978E+04  0.25500000000E-02 0.  1.
    8880023    1    1    2    0    0  0.45402559348E+03 -0.93631312633E+02 -0.19087467761E+04  0.20717216328E+04  0.65864270000E+03 0.  0.
    8880022    1    1    2    0    0 -0.45402559348E+03  0.93631312633E+02  0.36867904966E+03  0.61173683632E+03  0.15294330000E+03 0.  0.
<mgrwt>
<rscale>  0 0.71065781E+03</rscale>
<asrwt>0</asrwt>
<pdfrwt beam="1">  1        2 0.87953135E-01 0.80542924E+03</pdfrwt>
<pdfrwt beam="2">  1       -2 0.32488663E+00 0.80542924E+03</pdfrwt>
<totfact> 0.12195859E+00</totfact>
</mgrwt>
</event>
<event>
 4    2  0.3855935E-007  0.6777724E+03  0.7818608E-02  0.1010613E+00
          2   -1    0    0  501    0  0.00000000000E+00  0.00000000000E+00  0.11500734013E+04  0.11500734013E+04  0.25500000000E-02 0. -1.
         -2   -1    0    0    0  501 -0.00000000000E+00 -0.00000000000E+00 -0.25346566975E+03  0.25346566976E+03  0.25500000000E-02 0.  1.
    8880023    1    1    2    0    0  0.15822313202E+03  0.23036450355E+02  0.25382816422E+03  0.72374317321E+03  0.65864270000E+03 0.  1.
    8880022    1    1    2    0    0 -0.15822313202E+03 -0.23036450355E+02  0.64277956736E+03  0.67979589789E+03  0.15294330000E+03 0.  0.
<mgrwt>
<rscale>  0 0.51231803E+03</rscale>
<asrwt>0</asrwt>
<pdfrwt beam="1">  1        2 0.17693437E+00 0.67777241E+03</pdfrwt>
<pdfrwt beam="2">  1       -2 0.38994719E-01 0.67777241E+03</pdfrwt>
<totfact> 0.12860391E+02</totfact>
</mgrwt>
</event>
<event>
 4    2  0.3855935E-007  0.1034146E+04  0.7818608E-02  0.9338187E-01
         -2   -1    0    0    0  501 -0.00000000000E+00  0.00000000000E+00  0.79115731591E+03  0.79115731591E+03  0.25500000000E-02 0.  1.
          2   -1    0    0  501    0  0.00000000000E+00 -0.00000000000E+00 -0.18783088245E+04  0.18783088245E+04  0.25500000000E-02 0. -1.
    8880023    1    1    2    0    0 -0.10147818518E+03  0.79079123270E+03  0.28717474631E+03  0.10732791515E+04  0.65864270000E+03 0.  1.
    8880022    1    1    2    0    0  0.10147818518E+03 -0.79079123270E+03 -0.13743262549E+04  0.15961869889E+04  0.15294330000E+03 0.  0.
<mgrwt>
<rscale>  0 0.97342056E+03</rscale>
<asrwt>0</asrwt>
<pdfrwt beam="1">  1        2 0.28897059E+00 0.10341464E+04</pdfrwt>
<pdfrwt beam="2">  1       -2 0.12171651E+00 0.10341464E+04</pdfrwt>
<totfact> 0.39745047E+00</totfact>
</mgrwt>
</event>
<event>
 4    2  0.3855935E-007  0.8716061E+03  0.7818608E-02  0.9573243E-01
         -2   -1    0    0    0  501 -0.00000000000E+00  0.00000000000E+00  0.44654873422E+03  0.44654873423E+03  0.25500000000E-02 0.  1.
          2   -1    0    0  501    0  0.00000000000E+00 -0.00000000000E+00 -0.19782021527E+04  0.19782021527E+04  0.25500000000E-02 0. -1.
    8880023    1    1    2    0    0 -0.56072574667E+03  0.10711470609E+03 -0.10174781459E+03  0.87752478442E+03  0.65864270000E+03 0.  1.
    8880022    1    1    2    0    0  0.56072574667E+03 -0.10711470609E+03 -0.14299056039E+04  0.15472261025E+04  0.15294330000E+03 0.  0.
<mgrwt>
<rscale>  0 0.79092750E+03</rscale>
<asrwt>0</asrwt>
<pdfrwt beam="1">  1        2 0.30433879E+00 0.87160606E+03</pdfrwt>
<pdfrwt beam="2">  1       -2 0.68699807E-01 0.87160606E+03</pdfrwt>
<totfact> 0.13540095E+01</totfact>
</mgrwt>
</event>
<event>
 4    2  0.3855935E-007  0.6825616E+03  0.7818608E-02  0.1007910E+00
          2   -1    0    0  501    0  0.00000000000E+00  0.00000000000E+00  0.20471530153E+04  0.20471530153E+04  0.25500000000E-02 0. -1.
         -2   -1    0    0    0  501 -0.00000000000E+00 -0.00000000000E+00 -0.14088754769E+03  0.14088754771E+03  0.25500000000E-02 0.  1.
    8880023    1    1    2    0    0 -0.16994582170E+03 -0.56555969206E+02  0.77589653705E+03  0.10333952789E+04  0.65864270000E+03 0.  0.
    8880022    1    1    2    0    0  0.16994582170E+03  0.56555969206E+02  0.11303689306E+04  0.11546452841E+04  0.15294330000E+03 0.  0.
<mgrwt>
<rscale>  0 0.52313701E+03</rscale>
<asrwt>0</asrwt>
<pdfrwt beam="1">  1        2 0.31494661E+00 0.68256162E+03</pdfrwt>
<pdfrwt beam="2">  1       -2 0.21675008E-01 0.68256162E+03</pdfrwt>
<totfact> 0.12039462E+02</totfact>
</mgrwt>
</event>
<event>
 4    2  0.3855935E-007  0.6933485E+03  0.7818608E-02  0.1002600E+00
          2   -1    0    0  501    0  0.00000000000E+00  0.00000000000E+00  0.21076042471E+04  0.21076042471E+04  0.25500000000E-02 0. -1.
         -2   -1    0    0    0  501 -0.00000000000E+00 -0.00000000000E+00 -0.42909292913E+03  0.42909292913E+03  0.25500000000E-02 0.  1.
    8880023    1    1    2    0    0  0.52837447851E+02  0.21007174314E+03 -0.13290813723E+03  0.70597217535E+03  0.65864270000E+03 0.  0.
    8880022    1    1    2    0    0 -0.52837447851E+02 -0.21007174314E+03  0.18114194552E+04  0.18307250009E+04  0.15294330000E+03 0. -1.
<mgrwt>
<rscale>  0 0.54524738E+03</rscale>
<asrwt>0</asrwt>
<pdfrwt beam="1">  1        2 0.32424680E+00 0.69334850E+03</pdfrwt>
<pdfrwt beam="2">  1       -2 0.66014298E-01 0.69334850E+03</pdfrwt>
<totfact> 0.12861752E+01</totfact>
</mgrwt>
</event>
<event>
 4    2  0.3855935E-007  0.7335941E+03  0.7818608E-02  0.9879016E-01
         -2   -1    0    0    0  501 -0.00000000000E+00  0.00000000000E+00  0.19095772890E+04  0.19095772890E+04  0.25500000000E-02 0.  1.
          2   -1    0    0  501    0  0.00000000000E+00 -0.00000000000E+00 -0.47360114277E+03  0.47360114277E+03  0.25500000000E-02 0. -1.
    8880023    1    1    2    0    0  0.31641049917E+03 -0.65072867770E+02  0.17562239981E+04  0.19032821704E+04  0.65864270000E+03 0.  1.
    8880022    1    1    2    0    0 -0.31641049917E+03  0.65072867770E+02 -0.32024785187E+03  0.47989626145E+03  0.15294330000E+03 0.  0.
<mgrwt>
<rscale>  0 0.61289132E+03</rscale>
<asrwt>0</asrwt>
<pdfrwt beam="1">  1        2 0.72861715E-01 0.73359409E+03</pdfrwt>
<pdfrwt beam="2">  1       -2 0.29378112E+00 0.73359409E+03</pdfrwt>
<totfact> 0.23713760E+00</totfact>
</mgrwt>
</event>
<event>
 4    2  0.3855935E-007  0.1130398E+04  0.7818608E-02  0.9227943E-01
          2   -1    0    0  501    0  0.00000000000E+00  0.00000000000E+00  0.17562298237E+04  0.17562298237E+04  0.25500000000E-02 0. -1.
         -2   -1    0    0    0  501 -0.00000000000E+00 -0.00000000000E+00 -0.15607083367E+04  0.15607083367E+04  0.25500000000E-02 0.  1.
    8880023    1    1    2    0    0 -0.50299590225E+03  0.76875547071E+03  0.13968133992E+04  0.17969106071E+04  0.65864270000E+03 0. -1.
    8880022    1    1    2    0    0  0.50299590225E+03 -0.76875547071E+03 -0.12012919122E+04  0.15200275533E+04  0.15294330000E+03 0.  0.
<mgrwt>
<rscale>  0 0.10769607E+04</rscale>
<asrwt>0</asrwt>
<pdfrwt beam="1">  1        2 0.27018920E+00 0.11303982E+04</pdfrwt>
<pdfrwt beam="2">  1       -2 0.24010898E+00 0.11303982E+04</pdfrwt>
<totfact> 0.66171389E-01</totfact>
</mgrwt>
</event>
<event>
 4    2  0.3855935E-007  0.1084493E+04  0.7818608E-02  0.9278521E-01
         -2   -1    0    0    0  501 -0.00000000000E+00  0.00000000000E+00  0.11206527724E+04  0.11206527724E+04  0.25500000000E-02 0.  1.
          2   -1    0    0  501    0  0.00000000000E+00 -0.00000000000E+00 -0.19551986307E+04  0.19551986307E+04  0.25500000000E-02 0. -1.
    8880023    1    1    2    0    0  0.52404211727E+03  0.68388237550E+03  0.71311380021E+03  0.12979432740E+04  0.65864270000E+03 0.  0.
    8880022    1    1    2    0    0 -0.52404211727E+03 -0.68388237550E+03 -0.15476596585E+04  0.17779081291E+04  0.15294330000E+03 0.  0.
<mgrwt>
<rscale>  0 0.10278457E+04</rscale>
<asrwt>0</asrwt>
<pdfrwt beam="1">  1        2 0.30079979E+00 0.10844932E+04</pdfrwt>
<pdfrwt beam="2">  1       -2 0.17240812E+00 0.10844932E+04</pdfrwt>
<totfact> 0.14291574E+00</totfact>
</mgrwt>
</event>
<event>
 4    2  0.3855935E-007  0.9832651E+03  0.7818608E-02  0.9403787E-01
          2   -1    0    0  501    0  0.00000000000E+00  0.00000000000E+00  0.19939452952E+04  0.19939452952E+04  0.25500000000E-02 0. -1.
         -2   -1    0    0    0  501 -0.00000000000E+00 -0.00000000000E+00 -0.85787249629E+03  0.85787249629E+03  0.25500000000E-02 0.  1.
    8880023    1    1    2    0    0  0.30538113802E+03 -0.66313076178E+03 -0.46338045234E+03  0.10869828410E+04  0.65864270000E+03 0.  0.
    8880022    1    1    2    0    0 -0.30538113802E+03  0.66313076178E+03  0.15994532513E+04  0.17648349505E+04  0.15294330000E+03 0.  0.
<mgrwt>
<rscale>  0 0.91764679E+03</rscale>
<asrwt>0</asrwt>
<pdfrwt beam="1">  1        2 0.30676081E+00 0.98326510E+03</pdfrwt>
<pdfrwt beam="2">  1       -2 0.13198039E+00 0.98326510E+03</pdfrwt>
<totfact> 0.28155509E+00</totfact>
</mgrwt>
</event>
<event>
 4    2  0.3855935E-007  0.7818939E+03  0.7818608E-02  0.9751407E-01
          2   -1    0    0  501    0  0.00000000000E+00  0.00000000000E+00  0.17390936720E+04  0.17390936720E+04  0.25500000000E-02 0. -1.
         -2   -1    0    0    0  501 -0.00000000000E+00 -0.00000000000E+00 -0.27241332093E+03  0.27241332094E+03  0.25500000000E-02 0.  1.
    8880023    1    1    2    0    0 -0.15277757098E+03 -0.39269189518E+03  0.45422510332E+03  0.90425580534E+03  0.65864270000E+03 0.  1.
    8880022    1    1    2    0    0  0.15277757098E+03  0.39269189518E+03  0.10124552478E+04  0.11072511876E+04  0.15294330000E+03 0.  0.
<mgrwt>
<rscale>  0 0.68036829E+03</rscale>
<asrwt>0</asrwt>
<pdfrwt beam="1">  1        2 0.26755286E+00 0.78189393E+03</pdfrwt>
<pdfrwt beam="2">  1       -2 0.41909743E-01 0.78189393E+03</pdfrwt>
<totfact> 0.51419073E+01</totfact>
</mgrwt>
</event>
<event>
 4    2  0.3855935E-007  0.7094153E+03  0.7818608E-02  0.9960179E-01
         -2   -1    0    0    0  501 -0.00000000000E+00  0.00000000000E+00  0.10212791534E+04  0.10212791534E+04  0.25500000000E-02 0.  1.
          2   -1    0    0  501    0  0.00000000000E+00 -0.00000000000E+00 -0.48146977986E+03  0.48146977987E+03  0.25500000000E-02 0. -1.
    8880023    1    1    2    0    0 -0.12517949781E+03  0.23192659564E+03  0.82314202042E+03  0.10866613293E+04  0.65864270000E+03 0. -1.
    8880022    1    1    2    0    0  0.12517949781E+03 -0.23192659564E+03 -0.28333264687E+03  0.41608760404E+03  0.15294330000E+03 0.  0.
<mgrwt>
<rscale>  0 0.57431350E+03</rscale>
<asrwt>0</asrwt>
<pdfrwt beam="1">  1        2 0.74072274E-01 0.70941529E+03</pdfrwt>
<pdfrwt beam="2">  1       -2 0.15711987E+00 0.70941529E+03</pdfrwt>
<totfact> 0.17331197E+01</totfact>
</mgrwt>
</event>
<event>
 4    2  0.3855935E-007  0.7752789E+03  0.7818608E-02  0.9767046E-01
         -2   -1    0    0    0  501 -0.00000000000E+00  0.00000000000E+00  0.16429533572E+04  0.16429533572E+04  0.25500000000E-02 0.  1.
          2   -1    0    0  501    0  0.00000000000E+00 -0.00000000000E+00 -0.27151884248E+03  0.27151884249E+03  0.25500000000E-02 0. -1.
    8880023    1    1    2    0    0 -0.26844036623E+03 -0.30852373806E+03  0.45397472408E+03  0.89841548492E+03  0.65864270000E+03 0. -1.
    8880022    1    1    2    0    0  0.26844036623E+03  0.30852373806E+03  0.91745979061E+03  0.10160567147E+04  0.15294330000E+03 0.  1.
<mgrwt>
<rscale>  0 0.67161420E+03</rscale>
<asrwt>0</asrwt>
<pdfrwt beam="1">  1        2 0.41772131E-01 0.77527887E+03</pdfrwt>
<pdfrwt beam="2">  1       -2 0.25276205E+00 0.77527887E+03</pdfrwt>
<totfact> 0.77707209E+00</totfact>
</mgrwt>
</event>
<event>
 4    2  0.3855935E-007  0.7814244E+03  0.7818608E-02  0.9752502E-01
         -2   -1    0    0    0  501 -0.00000000000E+00  0.00000000000E+00  0.24656063826E+03  0.24656063827E+03  0.25500000000E-02 0.  1.
          2   -1    0    0  501    0  0.00000000000E+00 -0.00000000000E+00 -0.15774315612E+04  0.15774315612E+04  0.25500000000E-02 0. -1.
    8880023    1    1    2    0    0 -0.23745334734E+03  0.34702996708E+03 -0.99144436768E+03  0.12623731741E+04  0.65864270000E+03 0. -1.
    8880022    1    1    2    0    0  0.23745334734E+03 -0.34702996708E+03 -0.33942655522E+03  0.56161902533E+03  0.15294330000E+03 0.  0.
<mgrwt>
<rscale>  0 0.67975082E+03</rscale>
<asrwt>0</asrwt>
<pdfrwt beam="1">  1        2 0.24268177E+00 0.78142440E+03</pdfrwt>
<pdfrwt beam="2">  1       -2 0.37932407E-01 0.78142440E+03</pdfrwt>
<totfact> 0.76642438E+01</totfact>
</mgrwt>
</event>
<event>
 4    2  0.3855935E-007  0.7347874E+03  0.7818608E-02  0.9875400E-01
          2   -1    0    0  501    0  0.00000000000E+00  0.00000000000E+00  0.15225571650E+04  0.15225571650E+04  0.25500000000E-02 0. -1.
         -2   -1    0    0    0  501 -0.00000000000E+00 -0.00000000000E+00 -0.40815608950E+03  0.40815608951E+03  0.25500000000E-02 0.  1.
    8880023    1    1    2    0    0 -0.26012174488E+03 -0.19605862781E+03 -0.25632209777E+02  0.73523433281E+03  0.65864270000E+03 0.  0.
    8880022    1    1    2    0    0  0.26012174488E+03  0.19605862781E+03  0.11400332853E+04  0.11954789217E+04  0.15294330000E+03 0.  0.
<mgrwt>
<rscale>  0 0.61468478E+03</rscale>
<asrwt>0</asrwt>
<pdfrwt beam="1">  1        2 0.23423957E+00 0.73478739E+03</pdfrwt>
<pdfrwt beam="2">  1       -2 0.62793244E-01 0.73478739E+03</pdfrwt>
<totfact> 0.29719459E+01</totfact>
</mgrwt>
</event>
<event>
 4    2  0.3855935E-007  0.8930814E+03  0.7818608E-02  0.9537231E-01
          2   -1    0    0  501    0  0.00000000000E+00  0.00000000000E+00  0.71833876902E+03  0.71833876903E+03  0.25500000000E-02 0. -1.
         -2   -1    0    0    0  501 -0.00000000000E+00 -0.00000000000E+00 -0.13055750426E+04  0.13055750426E+04  0.25500000000E-02 0.  1.
    8880023    1    1    2    0    0  0.59148244599E+03 -0.11803699354E+03 -0.94981971841E+03  0.13037453430E+04  0.65864270000E+03 0.  1.
    8880022    1    1    2    0    0 -0.59148244599E+03  0.11803699354E+03  0.36258344478E+03  0.72016846863E+03  0.15294330000E+03 0. -1.
<mgrwt>
<rscale>  0 0.81593737E+03</rscale>
<asrwt>0</asrwt>
<pdfrwt beam="1">  1        2 0.11051366E+00 0.89308142E+03</pdfrwt>
<pdfrwt beam="2">  1       -2 0.20085770E+00 0.89308142E+03</pdfrwt>
<totfact> 0.52269124E+00</totfact>
</mgrwt>
</event>
<event>
 4    2  0.3855935E-007  0.7328447E+03  0.7818608E-02  0.9881303E-01
          2   -1    0    0  501    0  0.00000000000E+00  0.00000000000E+00  0.85485596405E+03  0.85485596406E+03  0.25500000000E-02 0. -1.
         -2   -1    0    0    0  501 -0.00000000000E+00 -0.00000000000E+00 -0.73666034996E+03  0.73666034997E+03  0.25500000000E-02 0.  1.
    8880023    1    1    2    0    0 -0.28578842205E+03  0.14688789882E+03 -0.49372226733E+03  0.88364187345E+03  0.65864270000E+03 0.  1.
    8880022    1    1    2    0    0  0.28578842205E+03 -0.14688789882E+03  0.61191788142E+03  0.70787444057E+03  0.15294330000E+03 0.  0.
<mgrwt>
<rscale>  0 0.61176056E+03</rscale>
<asrwt>0</asrwt>
<pdfrwt beam="1">  1        2 0.13151630E+00 0.73284465E+03</pdfrwt>
<pdfrwt beam="2">  1       -2 0.11333236E+00 0.73284465E+03</pdfrwt>
<totfact> 0.19567053E+01</totfact>
</mgrwt>
</event>
<event>
 4    2  0.3855935E-007  0.8190521E+03  0.7818608E-02  0.9671021E-01
          2   -1    0    0  501    0  0.00000000000E+00  0.00000000000E+00  0.24727055865E+04  0.24727055865E+04  0.25500000000E-02 0. -1.
         -2   -1    0    0    0  501 -0.00000000000E+00 -0.00000000000E+00 -0.36975035097E+03  0.36975035098E+03  0.25500000000E-02 0.  1.
    8880023    1    1    2    0    0 -0.59688396371E+02  0.48319088040E+03  0.16120524079E+03  0.83476551647E+03  0.65864270000E+03 0.  0.
    8880022    1    1    2    0    0  0.59688396371E+02 -0.48319088040E+03  0.19417499948E+04  0.20076904210E+04  0.15294330000E+03 0.  0.
<mgrwt>
<rscale>  0 0.72768690E+03</rscale>
<asrwt>0</asrwt>
<pdfrwt beam="1">  1        2 0.38041622E+00 0.81905210E+03</pdfrwt>
<pdfrwt beam="2">  1       -2 0.56884673E-01 0.81905210E+03</pdfrwt>
<totfact> 0.10840754E+01</totfact>
</mgrwt>
</event>
<event>
 4    2  0.3855935E-007  0.8201706E+03  0.7818608E-02  0.9668769E-01
          2   -1    0    0  501    0  0.00000000000E+00  0.00000000000E+00  0.24644194106E+04  0.24644194106E+04  0.25500000000E-02 0. -1.
         -2   -1    0    0    0  501 -0.00000000000E+00 -0.00000000000E+00 -0.61075197729E+03  0.61075197730E+03  0.25500000000E-02 0.  1.
    8880023    1    1    2    0    0  0.26422121441E+03  0.41116509947E+03 -0.29095723056E+03  0.87025048431E+03  0.65864270000E+03 0.  0.
    8880022    1    1    2    0    0 -0.26422121441E+03 -0.41116509947E+03  0.21446246638E+04  0.22049209036E+04  0.15294330000E+03 0.  0.
<mgrwt>
<rscale>  0 0.72907114E+03</rscale>
<asrwt>0</asrwt>
<pdfrwt beam="1">  1        2 0.37914145E+00 0.82017059E+03</pdfrwt>
<pdfrwt beam="2">  1       -2 0.93961843E-01 0.82017059E+03</pdfrwt>
<totfact> 0.36168698E+00</totfact>
</mgrwt>
</event>
<event>
 4    2  0.3855935E-007  0.7941866E+03  0.7818608E-02  0.9723510E-01
          2   -1    0    0  501    0  0.00000000000E+00  0.00000000000E+00  0.20145997865E+04  0.20145997865E+04  0.25500000000E-02 0. -1.
         -2   -1    0    0    0  501 -0.00000000000E+00 -0.00000000000E+00 -0.44191821418E+03  0.44191821418E+03  0.25500000000E-02 0.  1.
    8880023    1    1    2    0    0  0.94539437723E+02 -0.43357173921E+03 -0.21698139311E+02  0.79448296007E+03  0.65864270000E+03 0.  0.
    8880022    1    1    2    0    0 -0.94539437723E+02  0.43357173921E+03  0.15943797116E+04  0.16620350406E+04  0.15294330000E+03 0.  0.
<mgrwt>
<rscale>  0 0.69634127E+03</rscale>
<asrwt>0</asrwt>
<pdfrwt beam="1">  1        2 0.30993843E+00 0.79418661E+03</pdfrwt>
<pdfrwt beam="2">  1       -2 0.67987416E-01 0.79418661E+03</pdfrwt>
<totfact> 0.13364468E+01</totfact>
</mgrwt>
</event>
<event>
 4    2  0.3855935E-007  0.6900225E+03  0.7818608E-02  0.1004142E+00
          2   -1    0    0  501    0  0.00000000000E+00  0.00000000000E+00  0.11865080392E+04  0.11865080392E+04  0.25500000000E-02 0. -1.
         -2   -1    0    0    0  501 -0.00000000000E+00 -0.00000000000E+00 -0.27169539394E+03  0.27169539396E+03  0.25500000000E-02 0.  1.
    8880023    1    1    2    0    0  0.12121936428E+03 -0.16621295593E+03  0.23058165295E+03  0.72752937118E+03  0.65864270000E+03 0.  1.
    8880022    1    1    2    0    0 -0.12121936428E+03  0.16621295593E+03  0.68423099235E+03  0.73067406201E+03  0.15294330000E+03 0.  0.
<mgrwt>
<rscale>  0 0.53870807E+03</rscale>
<asrwt>0</asrwt>
<pdfrwt beam="1">  1        2 0.18253970E+00 0.69002253E+03</pdfrwt>
<pdfrwt beam="2">  1       -2 0.41799292E-01 0.69002253E+03</pdfrwt>
<totfact> 0.10672293E+02</totfact>
</mgrwt>
</event>
<event>
 4    2  0.3855935E-007  0.7245942E+03  0.7818608E-02  0.9907337E-01
         -2   -1    0    0    0  501 -0.00000000000E+00  0.00000000000E+00  0.20878912700E+03  0.20878912701E+03  0.25500000000E-02 0.  1.
          2   -1    0    0  501    0  0.00000000000E+00 -0.00000000000E+00 -0.15659438526E+04  0.15659438526E+04  0.25500000000E-02 0. -1.
    8880023    1    1    2    0    0  0.16856893474E+03  0.25062142108E+03 -0.58378509448E+03  0.93050621990E+03  0.65864270000E+03 0.  1.
    8880022    1    1    2    0    0 -0.16856893474E+03 -0.25062142108E+03 -0.77336963108E+03  0.84422675968E+03  0.15294330000E+03 0.  0.
<mgrwt>
<rscale>  0 0.59907041E+03</rscale>
<asrwt>0</asrwt>
<pdfrwt beam="1">  1        2 0.24091443E+00 0.72459422E+03</pdfrwt>
<pdfrwt beam="2">  1       -2 0.32121405E-01 0.72459422E+03</pdfrwt>
<totfact> 0.10730588E+02</totfact>
</mgrwt>
</event>
<event>
 4    2  0.3855935E-007  0.6756825E+03  0.7818608E-02  0.1011879E+00
         -2   -1    0    0    0  501 -0.00000000000E+00  0.00000000000E+00  0.22900844763E+03  0.22900844765E+03  0.25500000000E-02 0.  1.
          2   -1    0    0  501    0  0.00000000000E+00 -0.00000000000E+00 -0.21008732320E+04  0.21008732320E+04  0.25500000000E-02 0. -1.
    8880023    1    1    2    0    0 -0.39536495775E+02 -0.14551124896E+03 -0.29299916441E+03  0.73647496541E+03  0.65864270000E+03 0.  1.
    8880022    1    1    2    0    0  0.39536495775E+02  0.14551124896E+03 -0.15788656199E+04  0.15934067142E+04  0.15294330000E+03 0.  0.
<mgrwt>
<rscale>  0 0.50734450E+03</rscale>
<asrwt>0</asrwt>
<pdfrwt beam="1">  1        2 0.32321125E+00 0.67568252E+03</pdfrwt>
<pdfrwt beam="2">  1       -2 0.35232070E-01 0.67568252E+03</pdfrwt>
<totfact> 0.46279937E+01</totfact>
</mgrwt>
</event>
<event>
 4    2  0.3855935E-007  0.7600681E+03  0.7818608E-02  0.9804931E-01
         -2   -1    0    0    0  501 -0.00000000000E+00  0.00000000000E+00  0.22502599849E+03  0.22502599850E+03  0.25500000000E-02 0.  1.
          2   -1    0    0  501    0  0.00000000000E+00 -0.00000000000E+00 -0.17590737619E+04  0.17590737619E+04  0.25500000000E-02 0. -1.
    8880023    1    1    2    0    0  0.29476086371E+03 -0.23876624539E+03 -0.61347599540E+03  0.97675805086E+03  0.65864270000E+03 0.  1.
    8880022    1    1    2    0    0 -0.29476086371E+03  0.23876624539E+03 -0.92057176802E+03  0.10073417096E+04  0.15294330000E+03 0.  0.
<mgrwt>
<rscale>  0 0.65098574E+03</rscale>
<asrwt>0</asrwt>
<pdfrwt beam="1">  1        2 0.27062672E+00 0.76006808E+03</pdfrwt>
<pdfrwt beam="2">  1       -2 0.34619386E-01 0.76006808E+03</pdfrwt>
<totfact> 0.72731552E+01</totfact>
</mgrwt>
</event>
<event>
 4    2  0.3855935E-007  0.6840661E+03  0.7818608E-02  0.1007111E+00
         -2   -1    0    0    0  501 -0.00000000000E+00  0.00000000000E+00  0.15656826864E+03  0.15656826866E+03  0.25500000000E-02 0.  1.
          2   -1    0    0  501    0  0.00000000000E+00 -0.00000000000E+00 -0.16529580501E+04  0.16529580501E+04  0.25500000000E-02 0. -1.
    8880023    1    1    2    0    0  0.18462004780E+03 -0.71921597975E+01 -0.70391872072E+03  0.98155390115E+03  0.65864270000E+03 0.  1.
    8880022    1    1    2    0    0 -0.18462004780E+03  0.71921597975E+01 -0.79247106077E+03  0.82797241765E+03  0.15294330000E+03 0.  0.
<mgrwt>
<rscale>  0 0.52639097E+03</rscale>
<asrwt>0</asrwt>
<pdfrwt beam="1">  1        2 0.25430123E+00 0.68406615E+03</pdfrwt>
<pdfrwt beam="2">  1       -2 0.24087427E-01 0.68406615E+03</pdfrwt>
<totfact> 0.16350889E+02</totfact>
</mgrwt>
</event>
<event>
 4    2  0.3855935E-007  0.6956111E+03  0.7818608E-02  0.1001592E+00
          2   -1    0    0  501    0  0.00000000000E+00  0.00000000000E+00  0.34176616068E+04  0.34176616068E+04  0.25500000000E-02 0. -1.
         -2   -1    0    0    0  501 -0.00000000000E+00 -0.00000000000E+00 -0.16870372285E+03  0.16870372287E+03  0.25500000000E-02 0.  1.
    8880023    1    1    2    0    0 -0.93332220856E+02  0.20335620285E+03  0.58569650826E+03  0.90934880807E+03  0.65864270000E+03 0.  0.
    8880022    1    1    2    0    0  0.93332220856E+02 -0.20335620285E+03  0.26632613757E+04  0.26770165216E+04  0.15294330000E+03 0.  0.
<mgrwt>
<rscale>  0 0.54957697E+03</rscale>
<asrwt>0</asrwt>
<pdfrwt beam="1">  1        2 0.52579411E+00 0.69561114E+03</pdfrwt>
<pdfrwt beam="2">  1       -2 0.25954418E-01 0.69561114E+03</pdfrwt>
<totfact> 0.13489777E+01</totfact>
</mgrwt>
</event>
<event>
 4    2  0.3855935E-007  0.7259539E+03  0.7818608E-02  0.9902932E-01
          2   -1    0    0  501    0  0.00000000000E+00  0.00000000000E+00  0.18138114826E+04  0.18138114826E+04  0.25500000000E-02 0. -1.
         -2   -1    0    0    0  501 -0.00000000000E+00 -0.00000000000E+00 -0.40094769134E+03  0.40094769134E+03  0.25500000000E-02 0.  1.
    8880023    1    1    2    0    0 -0.22830595539E+03  0.20267027286E+03 -0.35372022552E+02  0.72681513125E+03  0.65864270000E+03 0.  1.
    8880022    1    1    2    0    0  0.22830595539E+03 -0.20267027286E+03  0.14482358138E+04  0.14879440427E+04  0.15294330000E+03 0.  0.
<mgrwt>
<rscale>  0 0.60119405E+03</rscale>
<asrwt>0</asrwt>
<pdfrwt beam="1">  1        2 0.27904792E+00 0.72595389E+03</pdfrwt>
<pdfrwt beam="2">  1       -2 0.61684260E-01 0.72595389E+03</pdfrwt>
<totfact> 0.21390681E+01</totfact>
</mgrwt>
</event>
<event>
 4    2  0.3855935E-007  0.6612535E+03  0.7818608E-02  0.1022907E+00
         -2   -1    0    0    0  501 -0.00000000000E+00  0.00000000000E+00  0.16842622572E+03  0.16842622574E+03  0.25500000000E-02 0.  1.
          2   -1    0    0  501    0  0.00000000000E+00 -0.00000000000E+00 -0.10711505201E+04  0.10711505201E+04  0.25500000000E-02 0. -1.
    8880023    1    1    2    0    0  0.42806384691E+02  0.40170011008E+02 -0.58847122904E+03  0.88518620077E+03  0.65864270000E+03 0.  1.
    8880022    1    1    2    0    0 -0.42806384691E+02 -0.40170011008E+02 -0.31425306537E+03  0.35439054511E+03  0.15294330000E+03 0.  0.
<mgrwt>
<rscale>  0 0.46651875E+03</rscale>
<asrwt>0</asrwt>
<pdfrwt beam="1">  1        2 0.16479238E+00 0.66125352E+03</pdfrwt>
<pdfrwt beam="2">  1       -2 0.25911728E-01 0.66125352E+03</pdfrwt>
<totfact> 0.30896356E+02</totfact>
</mgrwt>
</event>
<event>
 4    2  0.3855935E-007  0.8405148E+03  0.7818608E-02  0.9629210E-01
          2   -1    0    0  501    0  0.00000000000E+00  0.00000000000E+00  0.19159846937E+04  0.19159846937E+04  0.25500000000E-02 0. -1.
         -2   -1    0    0    0  501 -0.00000000000E+00 -0.00000000000E+00 -0.56835934351E+03  0.56835934351E+03  0.25500000000E-02 0.  1.
    8880023    1    1    2    0    0  0.48444356929E+03 -0.19485710893E+03 -0.18272396143E+03  0.86014714850E+03  0.65864270000E+03 0.  0.
    8880022    1    1    2    0    0 -0.48444356929E+03  0.19485710893E+03  0.15303493117E+04  0.16241968888E+04  0.15294330000E+03 0.  0.
<mgrwt>
<rscale>  0 0.75392649E+03</rscale>
<asrwt>0</asrwt>
<pdfrwt beam="1">  1        2 0.29476688E+00 0.84051477E+03</pdfrwt>
<pdfrwt beam="2">  1       -2 0.87439899E-01 0.84051477E+03</pdfrwt>
<totfact> 0.85726999E+00</totfact>
</mgrwt>
</event>
<event>
 4    2  0.3855935E-007  0.1055346E+04  0.7818608E-02  0.9312482E-01
          2   -1    0    0  501    0  0.00000000000E+00  0.00000000000E+00  0.13980335310E+04  0.13980335310E+04  0.25500000000E-02 0. -1.
         -2   -1    0    0    0  501 -0.00000000000E+00 -0.00000000000E+00 -0.76868541300E+03  0.76868541300E+03  0.25500000000E-02 0.  1.
    8880023    1    1    2    0    0 -0.58571539315E+03 -0.58041646222E+03  0.78301638242E+03  0.13141045060E+04  0.65864270000E+03 0.  0.
    8880022    1    1    2    0    0  0.58571539315E+03  0.58041646222E+03 -0.15366826439E+03  0.85261443800E+03  0.15294330000E+03 0.  0.
<mgrwt>
<rscale>  0 0.99641840E+03</rscale>
<asrwt>0</asrwt>
<pdfrwt beam="1">  1        2 0.21508208E+00 0.10553464E+04</pdfrwt>
<pdfrwt beam="2">  1       -2 0.11825929E+00 0.10553464E+04</pdfrwt>
<totfact> 0.78932871E+00</totfact>
</mgrwt>
</event>
<event>
 4    2  0.3855935E-007  0.6684343E+03  0.7818608E-02  0.1016811E+00
         -2   -1    0    0    0  501 -0.00000000000E+00  0.00000000000E+00  0.76831285093E+03  0.76831285093E+03  0.25500000000E-02 0.  1.
          2   -1    0    0  501    0  0.00000000000E+00 -0.00000000000E+00 -0.80275207734E+03  0.80275207734E+03  0.25500000000E-02 0. -1.
    8880023    1    1    2    0    0  0.65273363622E+02  0.93453630916E+02  0.60635603171E+03  0.90248104500E+03  0.65864270000E+03 0.  1.
    8880022    1    1    2    0    0 -0.65273363622E+02 -0.93453630916E+02 -0.64079525812E+03  0.66858388328E+03  0.15294330000E+03 0.  0.
<mgrwt>
<rscale>  0 0.48855178E+03</rscale>
<asrwt>0</asrwt>
<pdfrwt beam="1">  1        2 0.12350032E+00 0.66843429E+03</pdfrwt>
<pdfrwt beam="2">  1       -2 0.11820198E+00 0.66843429E+03</pdfrwt>
<totfact> 0.19342751E+01</totfact>
</mgrwt>
</event>
<event>
 4    2  0.3855935E-007  0.8229191E+03  0.7818608E-02  0.9663270E-01
         -2   -1    0    0    0  501 -0.00000000000E+00  0.00000000000E+00  0.47619641055E+03  0.47619641056E+03  0.25500000000E-02 0.  1.
          2   -1    0    0  501    0  0.00000000000E+00 -0.00000000000E+00 -0.13723136337E+04  0.13723136337E+04  0.25500000000E-02 0. -1.
    8880023    1    1    2    0    0  0.25303857473E+03 -0.42350578432E+03 -0.10153940776E+02  0.82298176069E+03  0.65864270000E+03 0.  0.
    8880022    1    1    2    0    0 -0.25303857473E+03  0.42350578432E+03 -0.88596328235E+03  0.10255282835E+04  0.15294330000E+03 0.  0.
<mgrwt>
<rscale>  0 0.73246433E+03</rscale>
<asrwt>0</asrwt>
<pdfrwt beam="1">  1        2 0.21112517E+00 0.82291912E+03</pdfrwt>
<pdfrwt beam="2">  1       -2 0.73260987E-01 0.82291912E+03</pdfrwt>
<totfact> 0.25586205E+01</totfact>
</mgrwt>
</event>
<event>
 4    2  0.3855935E-007  0.8260097E+03  0.7818608E-02  0.9657147E-01
         -2   -1    0    0    0  501 -0.00000000000E+00  0.00000000000E+00  0.94997784887E+03  0.94997784887E+03  0.25500000000E-02 0.  1.
          2   -1    0    0  501    0  0.00000000000E+00 -0.00000000000E+00 -0.14649787743E+04  0.14649787743E+04  0.25500000000E-02 0. -1.
    8880023    1    1    2    0    0  0.38054237850E+03 -0.32197724412E+03  0.70642692903E+03  0.10868905464E+04  0.65864270000E+03 0.  0.
    8880022    1    1    2    0    0 -0.38054237850E+03  0.32197724412E+03 -0.12214278544E+04  0.13280660767E+04  0.15294330000E+03 0.  0.
<mgrwt>
<rscale>  0 0.73626597E+03</rscale>
<asrwt>0</asrwt>
<pdfrwt beam="1">  1        2 0.22538135E+00 0.82600972E+03</pdfrwt>
<pdfrwt beam="2">  1       -2 0.14615044E+00 0.82600972E+03</pdfrwt>
<totfact> 0.43256975E+00</totfact>
</mgrwt>
</event>
<event>
 4    2  0.3855935E-007  0.6900991E+03  0.7818608E-02  0.1004106E+00
         -2   -1    0    0    0  501 -0.00000000000E+00  0.00000000000E+00  0.23661567166E+03  0.23661567167E+03  0.25500000000E-02 0.  1.
          2   -1    0    0  501    0  0.00000000000E+00 -0.00000000000E+00 -0.12033587136E+04  0.12033587136E+04  0.25500000000E-02 0. -1.
    8880023    1    1    2    0    0 -0.16490250637E+03  0.12342508899E+03 -0.35380099873E+03  0.77550753843E+03  0.65864270000E+03 0.  1.
    8880022    1    1    2    0    0  0.16490250637E+03 -0.12342508899E+03 -0.61294204325E+03  0.66446684688E+03  0.15294330000E+03 0. -1.
<mgrwt>
<rscale>  0 0.53886117E+03</rscale>
<asrwt>0</asrwt>
<pdfrwt beam="1">  1        2 0.18513211E+00 0.69009912E+03</pdfrwt>
<pdfrwt beam="2">  1       -2 0.36402412E-01 0.69009912E+03</pdfrwt>
<totfact> 0.13636662E+02</totfact>
</mgrwt>
</event>
<event>
 4    2  0.3855935E-007  0.7199032E+03  0.7818608E-02  0.9922914E-01
         -2   -1    0    0    0  501 -0.00000000000E+00  0.00000000000E+00  0.50005713051E+03  0.50005713052E+03  0.25500000000E-02 0.  1.
          2   -1    0    0  501    0  0.00000000000E+00 -0.00000000000E+00 -0.90030141260E+03  0.90030141261E+03  0.25500000000E-02 0. -1.
    8880023    1    1    2    0    0 -0.21147013378E+03  0.19932591553E+03  0.17237846667E+03  0.74025332159E+03  0.65864270000E+03 0.  1.
    8880022    1    1    2    0    0  0.21147013378E+03 -0.19932591553E+03 -0.57262274876E+03  0.66010522154E+03  0.15294330000E+03 0.  0.
<mgrwt>
<rscale>  0 0.59163536E+03</rscale>
<asrwt>0</asrwt>
<pdfrwt beam="1">  1        2 0.13850791E+00 0.71990322E+03</pdfrwt>
<pdfrwt beam="2">  1       -2 0.76931866E-01 0.71990322E+03</pdfrwt>
<totfact> 0.44988902E+01</totfact>
</mgrwt>
</event>
<event>
 4    2  0.3855935E-007  0.7704455E+03  0.7818608E-02  0.9778779E-01
         -2   -1    0    0    0  501 -0.00000000000E+00  0.00000000000E+00  0.72854430775E+03  0.72854430776E+03  0.25500000000E-02 0.  1.
          2   -1    0    0  501    0  0.00000000000E+00 -0.00000000000E+00 -0.97876151517E+03  0.97876151517E+03  0.25500000000E-02 0. -1.
    8880023    1    1    2    0    0 -0.37884581741E+02  0.39792063770E+03  0.44587939859E+03  0.89016555752E+03  0.65864270000E+03 0.  1.
    8880022    1    1    2    0    0  0.37884581741E+02 -0.39792063770E+03 -0.69609660601E+03  0.81714026541E+03  0.15294330000E+03 0.  0.
<mgrwt>
<rscale>  0 0.66513923E+03</rscale>
<asrwt>0</asrwt>
<pdfrwt beam="1">  1        2 0.15057869E+00 0.77044551E+03</pdfrwt>
<pdfrwt beam="2">  1       -2 0.11208374E+00 0.77044551E+03</pdfrwt>
<totfact> 0.16553386E+01</totfact>
</mgrwt>
</event>
<event>
 4    2  0.3855935E-007  0.7395662E+03  0.7818608E-02  0.9861212E-01
         -2   -1    0    0    0  501 -0.00000000000E+00  0.00000000000E+00  0.98875166320E+02  0.98875166353E+02  0.25500000000E-02 0.  1.
          2   -1    0    0  501    0  0.00000000000E+00 -0.00000000000E+00 -0.41562512141E+04  0.41562512141E+04  0.25500000000E-02 0. -1.
    8880023    1    1    2    0    0 -0.12544385892E+03  0.31210866863E+03 -0.15132394439E+04  0.16842956402E+04  0.65864270000E+03 0.  1.
    8880022    1    1    2    0    0  0.12544385892E+03 -0.31210866863E+03 -0.25441366039E+04  0.25708307403E+04  0.15294330000E+03 0.  0.
<mgrwt>
<rscale>  0 0.62178486E+03</rscale>
<asrwt>0</asrwt>
<pdfrwt beam="1">  1        2 0.63942313E+00 0.73956622E+03</pdfrwt>
<pdfrwt beam="2">  1       -2 0.15211567E-01 0.73956622E+03</pdfrwt>
<totfact> 0.96525189E+00</totfact>
</mgrwt>
</event>
<event>
 4    2  0.3855935E-007  0.9369577E+03  0.7818608E-02  0.9469133E-01
          2   -1    0    0  501    0  0.00000000000E+00  0.00000000000E+00  0.13553918722E+04  0.13553918722E+04  0.25500000000E-02 0. -1.
         -2   -1    0    0    0  501 -0.00000000000E+00 -0.00000000000E+00 -0.72591449742E+03  0.72591449743E+03  0.25500000000E-02 0.  1.
    8880023    1    1    2    0    0  0.26261521287E+03  0.61246447216E+03 -0.24769494288E+03  0.96914522683E+03  0.65864270000E+03 0.  1.
    8880022    1    1    2    0    0 -0.26261521287E+03 -0.61246447216E+03  0.87717231768E+03  0.11121611428E+04  0.15294330000E+03 0.  0.
<mgrwt>
<rscale>  0 0.86598293E+03</rscale>
<asrwt>0</asrwt>
<pdfrwt beam="1">  1        2 0.20852183E+00 0.93695768E+03</pdfrwt>
<pdfrwt beam="2">  1       -2 0.11167915E+00 0.93695768E+03</pdfrwt>
<totfact> 0.97232711E+00</totfact>
</mgrwt>
</event>
<event>
 4    2  0.3855935E-007  0.7273663E+03  0.7818608E-02  0.9898406E-01
          2   -1    0    0  501    0  0.00000000000E+00  0.00000000000E+00  0.10002877928E+04  0.10002877928E+04  0.25500000000E-02 0. -1.
         -2   -1    0    0    0  501 -0.00000000000E+00 -0.00000000000E+00 -0.66018995274E+03  0.66018995275E+03  0.25500000000E-02 0.  1.
    8880023    1    1    2    0    0  0.17690886774E+03 -0.25289287002E+03 -0.41008050865E+03  0.83500166529E+03  0.65864270000E+03 0.  1.
    8880022    1    1    2    0    0 -0.17690886774E+03  0.25289287002E+03  0.75017834871E+03  0.82547608026E+03  0.15294330000E+03 0.  0.
<mgrwt>
<rscale>  0 0.60338602E+03</rscale>
<asrwt>0</asrwt>
<pdfrwt beam="1">  1        2 0.15389043E+00 0.72736632E+03</pdfrwt>
<pdfrwt beam="2">  1       -2 0.10156769E+00 0.72736632E+03</pdfrwt>
<totfact> 0.20420280E+01</totfact>
</mgrwt>
</event>
<event>
 4    2  0.3855935E-007  0.1015864E+04  0.7818608E-02  0.9361090E-01
          2   -1    0    0  501    0  0.00000000000E+00  0.00000000000E+00  0.10341748841E+04  0.10341748841E+04  0.25500000000E-02 0. -1.
         -2   -1    0    0    0  501 -0.00000000000E+00 -0.00000000000E+00 -0.18997593821E+04  0.18997593821E+04  0.25500000000E-02 0.  1.
    8880023    1    1    2    0    0 -0.13180252131E+03  0.76210130647E+03 -0.15744423801E+04  0.18737260526E+04  0.65864270000E+03 0.  0.
    8880022    1    1    2    0    0  0.13180252131E+03 -0.76210130647E+03  0.70885788207E+03  0.10602082135E+04  0.15294330000E+03 0.  0.
<mgrwt>
<rscale>  0 0.95348171E+03</rscale>
<asrwt>0</asrwt>
<pdfrwt beam="1">  1        2 0.15910383E+00 0.10158644E+04</pdfrwt>
<pdfrwt beam="2">  1       -2 0.29227068E+00 0.10158644E+04</pdfrwt>
<totfact> 0.84924849E-01</totfact>
</mgrwt>
</event>
<event>
 4    2  0.3855935E-007  0.8008830E+03  0.7818608E-02  0.9708890E-01
         -2   -1    0    0    0  501 -0.00000000000E+00  0.00000000000E+00  0.74411032890E+03  0.74411032890E+03  0.25500000000E-02 0.  1.
          2   -1    0    0  501    0  0.00000000000E+00 -0.00000000000E+00 -0.10353568603E+04  0.10353568603E+04  0.25500000000E-02 0. -1.
    8880023    1    1    2    0    0  0.43501298646E+03  0.13552519306E+03  0.43285874954E+03  0.91037370330E+03  0.65864270000E+03 0.  1.
    8880022    1    1    2    0    0 -0.43501298646E+03 -0.13552519306E+03 -0.72410528091E+03  0.86909348589E+03  0.15294330000E+03 0.  0.
<mgrwt>
<rscale>  0 0.70489939E+03</rscale>
<asrwt>0</asrwt>
<pdfrwt beam="1">  1        2 0.15928567E+00 0.80088300E+03</pdfrwt>
<pdfrwt beam="2">  1       -2 0.11447851E+00 0.80088300E+03</pdfrwt>
<totfact> 0.14423502E+01</totfact>
</mgrwt>
</event>
<event>
 4    2  0.3855935E-007  0.7168406E+03  0.7818608E-02  0.9933425E-01
         -2   -1    0    0    0  501 -0.00000000000E+00  0.00000000000E+00  0.44641031181E+03  0.44641031182E+03  0.25500000000E-02 0.  1.
          2   -1    0    0  501    0  0.00000000000E+00 -0.00000000000E+00 -0.28104533434E+04  0.28104533434E+04  0.25500000000E-02 0. -1.
    8880023    1    1    2    0    0 -0.13479931862E+03  0.24875557002E+03  0.14157560094E+03  0.73068737977E+03  0.65864270000E+03 0.  1.
    8880022    1    1    2    0    0  0.13479931862E+03 -0.24875557002E+03 -0.25056186326E+04  0.25261762755E+04  0.15294330000E+03 0.  0.
<mgrwt>
<rscale>  0 0.58668362E+03</rscale>
<asrwt>0</asrwt>
<pdfrwt beam="1">  1        2 0.43237743E+00 0.71684057E+03</pdfrwt>
<pdfrwt beam="2">  1       -2 0.68678511E-01 0.71684057E+03</pdfrwt>
<totfact> 0.47101997E+00</totfact>
</mgrwt>
</event>
<event>
 4    2  0.3855935E-007  0.9155619E+03  0.7818608E-02  0.9501498E-01
          2   -1    0    0  501    0  0.00000000000E+00  0.00000000000E+00  0.26606104534E+04  0.26606104534E+04  0.25500000000E-02 0. -1.
         -2   -1    0    0    0  501 -0.00000000000E+00 -0.00000000000E+00 -0.25018470168E+03  0.25018470170E+03  0.25500000000E-02 0.  1.
    8880023    1    1    2    0    0  0.55947448937E+03  0.30237678787E+03  0.99847656401E+03  0.13546988895E+04  0.65864270000E+03 0.  0.
    8880022    1    1    2    0    0 -0.55947448937E+03 -0.30237678787E+03  0.14119491877E+04  0.15560962656E+04  0.15294330000E+03 0.  0.
<mgrwt>
<rscale>  0 0.84173491E+03</rscale>
<asrwt>0</asrwt>
<pdfrwt beam="1">  1        2 0.40932469E+00 0.91556192E+03</pdfrwt>
<pdfrwt beam="2">  1       -2 0.38489954E-01 0.91556192E+03</pdfrwt>
<totfact> 0.18329935E+01</totfact>
</mgrwt>
</event>
<event>
 4    2  0.3855935E-007  0.6913662E+03  0.7818608E-02  0.1003510E+00
          2   -1    0    0  501    0  0.00000000000E+00  0.00000000000E+00  0.28555849992E+03  0.28555849994E+03  0.25500000000E-02 0. -1.
         -2   -1    0    0    0  501 -0.00000000000E+00 -0.00000000000E+00 -0.14181680892E+04  0.14181680892E+04  0.25500000000E-02 0.  1.
    8880023    1    1    2    0    0  0.13848909870E+03 -0.15810668831E+03 -0.12421952476E+04  0.14216315257E+04  0.65864270000E+03 0.  1.
    8880022    1    1    2    0    0 -0.13848909870E+03  0.15810668831E+03  0.10958565828E+03  0.28209506352E+03  0.15294330000E+03 0.  0.
<mgrwt>
<rscale>  0 0.54137626E+03</rscale>
<asrwt>0</asrwt>
<pdfrwt beam="1">  1        2 0.43932078E-01 0.69136616E+03</pdfrwt>
<pdfrwt beam="2">  1       -2 0.21817970E+00 0.69136616E+03</pdfrwt>
<totfact> 0.12086263E+01</totfact>
</mgrwt>
</event>
<event>
 4    2  0.3855935E-007  0.8710531E+03  0.7818608E-02  0.9574197E-01
         -2   -1    0    0    0  501 -0.00000000000E+00  0.00000000000E+00  0.61855876207E+03  0.61855876207E+03  0.25500000000E-02 0.  1.
          2   -1    0    0  501    0  0.00000000000E+00 -0.00000000000E+00 -0.15333746313E+04  0.15333746313E+04  0.25500000000E-02 0. -1.
    8880023    1    1    2    0    0  0.56298630105E+03  0.89273599282E+02  0.19711940766E+03  0.89307872992E+03  0.65864270000E+03 0.  1.
    8880022    1    1    2    0    0 -0.56298630105E+03 -0.89273599282E+02 -0.11119352769E+04  0.12588546634E+04  0.15294330000E+03 0.  0.
<mgrwt>
<rscale>  0 0.79027821E+03</rscale>
<asrwt>0</asrwt>
<pdfrwt beam="1">  1        2 0.23590379E+00 0.87105313E+03</pdfrwt>
<pdfrwt beam="2">  1       -2 0.95162887E-01 0.87105313E+03</pdfrwt>
<totfact> 0.11394786E+01</totfact>
</mgrwt>
</event>
<event>
 4    2  0.3855935E-007  0.7327902E+03  0.7818608E-02  0.9881469E-01
         -2   -1    0    0    0  501 -0.00000000000E+00  0.00000000000E+00  0.25359450081E+03  0.25359450082E+03  0.25500000000E-02 0.  1.
          2   -1    0    0  501    0  0.00000000000E+00 -0.00000000000E+00 -0.15334254158E+04  0.15334254158E+04  0.25500000000E-02 0. -1.
    8880023    1    1    2    0    0  0.31703690029E+03 -0.51563834816E+02 -0.39306608050E+03  0.83155419253E+03  0.65864270000E+03 0.  1.
    8880022    1    1    2    0    0 -0.31703690029E+03  0.51563834816E+02 -0.88676483451E+03  0.95546572411E+03  0.15294330000E+03 0.  0.
<mgrwt>
<rscale>  0 0.61167822E+03</rscale>
<asrwt>0</asrwt>
<pdfrwt beam="1">  1        2 0.23591160E+00 0.73279017E+03</pdfrwt>
<pdfrwt beam="2">  1       -2 0.39014540E-01 0.73279017E+03</pdfrwt>
<totfact> 0.77127505E+01</totfact>
</mgrwt>
</event>
<event>
 4    2  0.3855935E-007  0.6826479E+03  0.7818608E-02  0.1007864E+00
          2   -1    0    0  501    0  0.00000000000E+00  0.00000000000E+00  0.27895241518E+04  0.27895241518E+04  0.25500000000E-02 0. -1.
         -2   -1    0    0    0  501 -0.00000000000E+00 -0.00000000000E+00 -0.11351080033E+03  0.11351080036E+03  0.25500000000E-02 0.  1.
    8880023    1    1    2    0    0  0.16861354415E+03  0.61379123859E+02  0.10016406081E+04  0.12121435716E+04  0.65864270000E+03 0.  0.
    8880022    1    1    2    0    0 -0.16861354415E+03 -0.61379123859E+02  0.16743727433E+04  0.16908913805E+04  0.15294330000E+03 0.  0.
<mgrwt>
<rscale>  0 0.52332530E+03</rscale>
<asrwt>0</asrwt>
<pdfrwt beam="1">  1        2 0.42915757E+00 0.68264788E+03</pdfrwt>
<pdfrwt beam="2">  1       -2 0.17463200E-01 0.68264788E+03</pdfrwt>
<totfact> 0.67070518E+01</totfact>
</mgrwt>
</event>
<event>
 4    2  0.3855935E-007  0.7554865E+03  0.7818608E-02  0.9816936E-01
          2   -1    0    0  501    0  0.00000000000E+00  0.00000000000E+00  0.34548913511E+04  0.34548913511E+04  0.25500000000E-02 0. -1.
         -2   -1    0    0    0  501 -0.00000000000E+00 -0.00000000000E+00 -0.15193899781E+03  0.15193899784E+03  0.25500000000E-02 0.  1.
    8880023    1    1    2    0    0 -0.54570653508E+01  0.37002694626E+03  0.91988984755E+03  0.11903601381E+04  0.65864270000E+03 0.  0.
    8880022    1    1    2    0    0  0.54570653508E+01 -0.37002694626E+03  0.23830625057E+04  0.24164702108E+04  0.15294330000E+03 0.  0.
<mgrwt>
<rscale>  0 0.64461551E+03</rscale>
<asrwt>0</asrwt>
<pdfrwt beam="1">  1        2 0.53152167E+00 0.75548655E+03</pdfrwt>
<pdfrwt beam="2">  1       -2 0.23375234E-01 0.75548655E+03</pdfrwt>
<totfact> 0.15202484E+01</totfact>
</mgrwt>
</event>
<event>
 4    2  0.3855935E-007  0.7191986E+03  0.7818608E-02  0.9925307E-01
         -2   -1    0    0    0  501 -0.00000000000E+00  0.00000000000E+00  0.22352316887E+03  0.22352316888E+03  0.25500000000E-02 0.  1.
          2   -1    0    0  501    0  0.00000000000E+00 -0.00000000000E+00 -0.12773541652E+04  0.12773541652E+04  0.25500000000E-02 0. -1.
    8880023    1    1    2    0    0 -0.28872887649E+03 -0.84923210610E+01 -0.57336872748E+03  0.91978170647E+03  0.65864270000E+03 0.  1.
    8880022    1    1    2    0    0  0.28872887649E+03  0.84923210610E+01 -0.48046226886E+03  0.58109562763E+03  0.15294330000E+03 0.  0.
<mgrwt>
<rscale>  0 0.59050333E+03</rscale>
<asrwt>0</asrwt>
<pdfrwt beam="1">  1        2 0.19651602E+00 0.71919864E+03</pdfrwt>
<pdfrwt beam="2">  1       -2 0.34388181E-01 0.71919864E+03</pdfrwt>
<totfact> 0.13727529E+02</totfact>
</mgrwt>
</event>
<event>
 4    2  0.3855935E-007  0.7399971E+03  0.7818608E-02  0.9859956E-01
          2   -1    0    0  501    0  0.00000000000E+00  0.00000000000E+00  0.96949050925E+03  0.96949050925E+03  0.25500000000E-02 0. -1.
         -2   -1    0    0    0  501 -0.00000000000E+00 -0.00000000000E+00 -0.45531836005E+03  0.45531836006E+03  0.25500000000E-02 0.  1.
    8880023    1    1    2    0    0 -0.55471572430E+02 -0.33272862805E+03 -0.59042260729E+02  0.74234872539E+03  0.65864270000E+03 0.  1.
    8880022    1    1    2    0    0  0.55471572430E+02  0.33272862805E+03  0.57321440993E+03  0.68246014392E+03  0.15294330000E+03 0.  0.
<mgrwt>
<rscale>  0 0.62241878E+03</rscale>
<asrwt>0</asrwt>
<pdfrwt beam="1">  1        2 0.14915238E+00 0.73999706E+03</pdfrwt>
<pdfrwt beam="2">  1       -2 0.70048979E-01 0.73999706E+03</pdfrwt>
<totfact> 0.49715548E+01</totfact>
</mgrwt>
</event>
<event>
 4    2  0.3855935E-007  0.9450999E+03  0.7818608E-02  0.9457200E-01
          2   -1    0    0  501    0  0.00000000000E+00  0.00000000000E+00  0.17583663369E+04  0.17583663369E+04  0.25500000000E-02 0. -1.
         -2   -1    0    0    0  501 -0.00000000000E+00 -0.00000000000E+00 -0.64401398957E+03  0.64401398957E+03  0.25500000000E-02 0.  1.
    8880023    1    1    2    0    0 -0.64335383251E+03  0.21330586488E+03 -0.15265914901E+03  0.95734976254E+03  0.65864270000E+03 0.  1.
    8880022    1    1    2    0    0  0.64335383251E+03 -0.21330586488E+03  0.12670114963E+04  0.14450305639E+04  0.15294330000E+03 0.  0.
<mgrwt>
<rscale>  0 0.87514223E+03</rscale>
<asrwt>0</asrwt>
<pdfrwt beam="1">  1        2 0.27051789E+00 0.94509986E+03</pdfrwt>
<pdfrwt beam="2">  1       -2 0.99079077E-01 0.94509986E+03</pdfrwt>
<totfact> 0.77142881E+00</totfact>
</mgrwt>
</event>
<event>
 4    2  0.3855935E-007  0.8489001E+03  0.7818608E-02  0.9613621E-01
          2   -1    0    0  501    0  0.00000000000E+00  0.00000000000E+00  0.12591209927E+04  0.12591209927E+04  0.25500000000E-02 0. -1.
         -2   -1    0    0    0  501 -0.00000000000E+00 -0.00000000000E+00 -0.78469158061E+03  0.78469158061E+03  0.25500000000E-02 0.  1.
    8880023    1    1    2    0    0  0.51896608401E+03  0.13227038149E+03 -0.45283796933E+03  0.96212976406E+03  0.65864270000E+03 0.  1.
    8880022    1    1    2    0    0 -0.51896608401E+03 -0.13227038149E+03  0.92726738143E+03  0.10816828093E+04  0.15294330000E+03 0.  0.
<mgrwt>
<rscale>  0 0.76401157E+03</rscale>
<asrwt>0</asrwt>
<pdfrwt beam="1">  1        2 0.19371092E+00 0.84890015E+03</pdfrwt>
<pdfrwt beam="2">  1       -2 0.12072178E+00 0.84890015E+03</pdfrwt>
<totfact> 0.92174763E+00</totfact>
</mgrwt>
</event>
<event>
 4    2  0.3855935E-007  0.1375114E+04  0.7818608E-02  0.9003265E-01
          2   -1    0    0  501    0  0.00000000000E+00  0.00000000000E+00  0.26069243995E+04  0.26069243995E+04  0.25500000000E-02 0. -1.
         -2   -1    0    0    0  501 -0.00000000000E+00 -0.00000000000E+00 -0.18549140766E+04  0.18549140766E+04  0.25500000000E-02 0.  1.
    8880023    1    1    2    0    0 -0.55499484380E+03  0.10719646414E+04  0.21851572359E+04  0.25818307111E+04  0.65864270000E+03 0. -1.
    8880022    1    1    2    0    0  0.55499484380E+03 -0.10719646414E+04 -0.14331469130E+04  0.18800077650E+04  0.15294330000E+03 0.  0.
<mgrwt>
<rscale>  0 0.13336925E+04</rscale>
<asrwt>0</asrwt>
<pdfrwt beam="1">  1        2 0.40106529E+00 0.13751137E+04</pdfrwt>
<pdfrwt beam="2">  1       -2 0.28537140E+00 0.13751137E+04</pdfrwt>
<totfact> 0.11242143E-01</totfact>
</mgrwt>
</event>
<event>
 4    2  0.3855935E-007  0.8960029E+03  0.7818608E-02  0.9532479E-01
         -2   -1    0    0    0  501 -0.00000000000E+00  0.00000000000E+00  0.61470592558E+03  0.61470592558E+03  0.25500000000E-02 0.  1.
          2   -1    0    0  501    0  0.00000000000E+00 -0.00000000000E+00 -0.15609944704E+04  0.15609944704E+04  0.25500000000E-02 0. -1.
    8880023    1    1    2    0    0 -0.44811314820E+03  0.41012877830E+03  0.15443158630E+03  0.90921412742E+03  0.65864270000E+03 0.  0.
    8880022    1    1    2    0    0  0.44811314820E+03 -0.41012877830E+03 -0.11007201311E+04  0.12664862686E+04  0.15294330000E+03 0.  0.
<mgrwt>
<rscale>  0 0.81931057E+03</rscale>
<asrwt>0</asrwt>
<pdfrwt beam="1">  1        2 0.24015299E+00 0.89600291E+03</pdfrwt>
<pdfrwt beam="2">  1       -2 0.94570143E-01 0.89600291E+03</pdfrwt>
<totfact> 0.11128968E+01</totfact>
</mgrwt>
</event>
<event>
 4    2  0.3855935E-007  0.7401806E+03  0.7818608E-02  0.9859421E-01
         -2   -1    0    0    0  501 -0.00000000000E+00  0.00000000000E+00  0.35727162939E+03  0.35727162940E+03  0.25500000000E-02 0.  1.
          2   -1    0    0  501    0  0.00000000000E+00 -0.00000000000E+00 -0.29289414571E+04  0.29289414571E+04  0.25500000000E-02 0. -1.
    8880023    1    1    2    0    0  0.24290481391E+03  0.23463673003E+03 -0.54824189948E+02  0.74220821995E+03  0.65864270000E+03 0.  1.
    8880022    1    1    2    0    0 -0.24290481391E+03 -0.23463673003E+03 -0.25168456377E+04  0.25440048665E+04  0.15294330000E+03 0.  0.
<mgrwt>
<rscale>  0 0.62268858E+03</rscale>
<asrwt>0</asrwt>
<pdfrwt beam="1">  1        2 0.45060636E+00 0.74018062E+03</pdfrwt>
<pdfrwt beam="2">  1       -2 0.54964868E-01 0.74018062E+03</pdfrwt>
<totfact> 0.63914608E+00</totfact>
</mgrwt>
</event>
<event>
 4    2  0.3855935E-007  0.1018039E+04  0.7818608E-02  0.9358328E-01
          2   -1    0    0  501    0  0.00000000000E+00  0.00000000000E+00  0.31126145387E+04  0.31126145387E+04  0.25500000000E-02 0. -1.
         -2   -1    0    0    0  501 -0.00000000000E+00 -0.00000000000E+00 -0.28512245458E+03  0.28512245459E+03  0.25500000000E-02 0.  1.
    8880023    1    1    2    0    0  0.49683263431E+03 -0.59644831065E+03  0.11064373153E+04  0.15035315071E+04  0.65864270000E+03 0.  1.
    8880022    1    1    2    0    0 -0.49683263431E+03  0.59644831065E+03  0.17210547688E+04  0.18942054862E+04  0.15294330000E+03 0. -1.
<mgrwt>
<rscale>  0 0.95585893E+03</rscale>
<asrwt>0</asrwt>
<pdfrwt beam="1">  1        2 0.47886377E+00 0.10180390E+04</pdfrwt>
<pdfrwt beam="2">  1       -2 0.43864993E-01 0.10180390E+04</pdfrwt>
<totfact> 0.74507441E+00</totfact>
</mgrwt>
</event>
<event>
 4    2  0.3855935E-007  0.8728629E+03  0.7818608E-02  0.9571080E-01
          2   -1    0    0  501    0  0.00000000000E+00  0.00000000000E+00  0.28504774475E+04  0.28504774475E+04  0.25500000000E-02 0. -1.
         -2   -1    0    0    0  501 -0.00000000000E+00 -0.00000000000E+00 -0.38107324520E+03  0.38107324521E+03  0.25500000000E-02 0.  1.
    8880023    1    1    2    0    0 -0.46996747798E+03  0.32742932917E+03  0.21288027664E+03  0.89844733536E+03  0.65864270000E+03 0.  0.
    8880022    1    1    2    0    0  0.46996747798E+03 -0.32742932917E+03  0.22565239257E+04  0.23331033574E+04  0.15294330000E+03 0. -1.
<mgrwt>
<rscale>  0 0.79240227E+03</rscale>
<asrwt>0</asrwt>
<pdfrwt beam="1">  1        2 0.43853500E+00 0.87286288E+03</pdfrwt>
<pdfrwt beam="2">  1       -2 0.58626652E-01 0.87286288E+03</pdfrwt>
<totfact> 0.60847597E+00</totfact>
</mgrwt>
</event>
<event>
 4    2  0.3855935E-007  0.8603263E+03  0.7818608E-02  0.9592983E-01
         -2   -1    0    0    0  501 -0.00000000000E+00  0.00000000000E+00  0.18885176935E+04  0.18885176935E+04  0.25500000000E-02 0.  1.
          2   -1    0    0  501    0  0.00000000000E+00 -0.00000000000E+00 -0.75555281007E+03  0.75555281007E+03  0.25500000000E-02 0. -1.
    8880023    1    1    2    0    0  0.41211885557E+02 -0.55195361297E+03  0.16567661414E+04  0.18668249688E+04  0.65864270000E+03 0.  0.
    8880022    1    1    2    0    0 -0.41211885557E+02  0.55195361297E+03 -0.52380125803E+03  0.77724553477E+03  0.15294330000E+03 0.  0.
<mgrwt>
<rscale>  0 0.77762344E+03</rscale>
<asrwt>0</asrwt>
<pdfrwt beam="1">  1        2 0.11623890E+00 0.86032634E+03</pdfrwt>
<pdfrwt beam="2">  1       -2 0.29054118E+00 0.86032634E+03</pdfrwt>
<totfact> 0.13795572E+00</totfact>
</mgrwt>
</event>
<event>
 4    2  0.3855935E-007  0.7467497E+03  0.7818608E-02  0.9840705E-01
          2   -1    0    0  501    0  0.00000000000E+00  0.00000000000E+00  0.14952619430E+04  0.14952619430E+04  0.25500000000E-02 0. -1.
         -2   -1    0    0    0  501 -0.00000000000E+00 -0.00000000000E+00 -0.41079219313E+03  0.41079219314E+03  0.25500000000E-02 0.  1.
    8880023    1    1    2    0    0  0.64895944158E+02  0.34585170351E+03 -0.94370220225E+01  0.74680931170E+03  0.65864270000E+03 0.  0.
    8880022    1    1    2    0    0 -0.64895944158E+02 -0.34585170351E+03  0.10939067719E+04  0.11592448245E+04  0.15294330000E+03 0.  0.
<mgrwt>
<rscale>  0 0.63223111E+03</rscale>
<asrwt>0</asrwt>
<pdfrwt beam="1">  1        2 0.23004031E+00 0.74674968E+03</pdfrwt>
<pdfrwt beam="2">  1       -2 0.63198797E-01 0.74674968E+03</pdfrwt>
<totfact> 0.30314793E+01</totfact>
</mgrwt>
</event>
<event>
 4    2  0.3855935E-007  0.7456662E+03  0.7818608E-02  0.9843739E-01
         -2   -1    0    0    0  501 -0.00000000000E+00  0.00000000000E+00  0.27659391490E+03  0.27659391491E+03  0.25500000000E-02 0.  1.
          2   -1    0    0  501    0  0.00000000000E+00 -0.00000000000E+00 -0.16560166483E+04  0.16560166483E+04  0.25500000000E-02 0. -1.
    8880023    1    1    2    0    0  0.33063043570E+03  0.11354025950E+03 -0.32898399117E+03  0.81501444665E+03  0.65864270000E+03 0.  0.
    8880022    1    1    2    0    0 -0.33063043570E+03 -0.11354025950E+03 -0.10504387422E+04  0.11175961165E+04  0.15294330000E+03 0.  0.
<mgrwt>
<rscale>  0 0.63067169E+03</rscale>
<asrwt>0</asrwt>
<pdfrwt beam="1">  1        2 0.25477179E+00 0.74566620E+03</pdfrwt>
<pdfrwt beam="2">  1       -2 0.42552911E-01 0.74566620E+03</pdfrwt>
<totfact> 0.55627052E+01</totfact>
</mgrwt>
</event>
<event>
 4    2  0.3855935E-007  0.6683222E+03  0.7818608E-02  0.1016895E+00
         -2   -1    0    0    0  501 -0.00000000000E+00  0.00000000000E+00  0.75743920265E+03  0.75743920265E+03  0.25500000000E-02 0.  1.
          2   -1    0    0  501    0  0.00000000000E+00 -0.00000000000E+00 -0.13480190406E+04  0.13480190406E+04  0.25500000000E-02 0. -1.
    8880023    1    1    2    0    0  0.81612941448E+02  0.78636520177E+02  0.60097662992E+03  0.89879223989E+03  0.65864270000E+03 0.  1.
    8880022    1    1    2    0    0 -0.81612941448E+02 -0.78636520177E+02 -0.11915564679E+04  0.12066660034E+04  0.15294330000E+03 0.  0.
<mgrwt>
<rscale>  0 0.48823847E+03</rscale>
<asrwt>0</asrwt>
<pdfrwt beam="1">  1        2 0.20738754E+00 0.66832221E+03</pdfrwt>
<pdfrwt beam="2">  1       -2 0.11652911E+00 0.66832221E+03</pdfrwt>
<totfact> 0.91514582E+00</totfact>
</mgrwt>
</event>
<event>
 4    2  0.3855935E-007  0.6704416E+03  0.7818608E-02  0.1015348E+00
          2   -1    0    0  501    0  0.00000000000E+00  0.00000000000E+00  0.74834301578E+03  0.74834301578E+03  0.25500000000E-02 0. -1.
         -2   -1    0    0    0  501 -0.00000000000E+00 -0.00000000000E+00 -0.55704706010E+03  0.55704706011E+03  0.25500000000E-02 0.  1.
    8880023    1    1    2    0    0  0.84550043710E+02  0.92374165705E+02 -0.33044951954E+03  0.74745487329E+03  0.65864270000E+03 0.  1.
    8880022    1    1    2    0    0 -0.84550043710E+02 -0.92374165705E+02  0.52174547521E+03  0.55793520260E+03  0.15294330000E+03 0.  0.
<mgrwt>
<rscale>  0 0.49403280E+03</rscale>
<asrwt>0</asrwt>
<pdfrwt beam="1">  1        2 0.11512970E+00 0.67044157E+03</pdfrwt>
<pdfrwt beam="2">  1       -2 0.85699547E-01 0.67044157E+03</pdfrwt>
<totfact> 0.45369635E+01</totfact>
</mgrwt>
</event>
<event>
 4    2  0.3855935E-007  0.7579244E+03  0.7818608E-02  0.9810511E-01
         -2   -1    0    0    0  501 -0.00000000000E+00  0.00000000000E+00  0.10909525221E+04  0.10909525221E+04  0.25500000000E-02 0.  1.
          2   -1    0    0  501    0  0.00000000000E+00 -0.00000000000E+00 -0.46330438894E+03  0.46330438895E+03  0.25500000000E-02 0. -1.
    8880023    1    1    2    0    0  0.14745948819E+03  0.34481146038E+03  0.81069201277E+03  0.11098067353E+04  0.65864270000E+03 0.  1.
    8880022    1    1    2    0    0 -0.14745948819E+03 -0.34481146038E+03 -0.18304387960E+03  0.44445017577E+03  0.15294330000E+03 0.  0.
<mgrwt>
<rscale>  0 0.64801512E+03</rscale>
<asrwt>0</asrwt>
<pdfrwt beam="1">  1        2 0.71277600E-01 0.75792444E+03</pdfrwt>
<pdfrwt beam="2">  1       -2 0.16783884E+00 0.75792444E+03</pdfrwt>
<totfact> 0.15065374E+01</totfact>
</mgrwt>
</event>
<event>
 4    2  0.3855935E-007  0.9852374E+03  0.7818608E-02  0.9401132E-01
         -2   -1    0    0    0  501 -0.00000000000E+00  0.00000000000E+00  0.68396006474E+03  0.68396006475E+03  0.25500000000E-02 0.  1.
          2   -1    0    0  501    0  0.00000000000E+00 -0.00000000000E+00 -0.12095930289E+04  0.12095930289E+04  0.25500000000E-02 0. -1.
    8880023    1    1    2    0    0 -0.73272140677E+03 -0.13319398572E+01 -0.11193567115E+02  0.98530093688E+03  0.65864270000E+03 0.  1.
    8880022    1    1    2    0    0  0.73272140677E+03  0.13319398572E+01 -0.51443939701E+03  0.90825215674E+03  0.15294330000E+03 0.  0.
<mgrwt>
<rscale>  0 0.91982608E+03</rscale>
<asrwt>0</asrwt>
<pdfrwt beam="1">  1        2 0.18609124E+00 0.98523735E+03</pdfrwt>
<pdfrwt beam="2">  1       -2 0.10522463E+00 0.98523735E+03</pdfrwt>
<totfact> 0.13602932E+01</totfact>
</mgrwt>
</event>
<event>
 4    2  0.3855935E-007  0.6788310E+03  0.7818608E-02  0.1009993E+00
         -2   -1    0    0    0  501 -0.00000000000E+00  0.00000000000E+00  0.83511107887E+03  0.83511107888E+03  0.25500000000E-02 0.  1.
          2   -1    0    0  501    0  0.00000000000E+00 -0.00000000000E+00 -0.96690229518E+03  0.96690229518E+03  0.25500000000E-02 0. -1.
    8880023    1    1    2    0    0 -0.14421304671E+03  0.78764606973E+02  0.67935190729E+03  0.96038038628E+03  0.65864270000E+03 0.  1.
    8880022    1    1    2    0    0  0.14421304671E+03 -0.78764606973E+02 -0.81114312359E+03  0.84163298778E+03  0.15294330000E+03 0.  0.
<mgrwt>
<rscale>  0 0.51477497E+03</rscale>
<asrwt>0</asrwt>
<pdfrwt beam="1">  1        2 0.14875420E+00 0.67883096E+03</pdfrwt>
<pdfrwt beam="2">  1       -2 0.12847863E+00 0.67883096E+03</pdfrwt>
<totfact> 0.12144238E+01</totfact>
</mgrwt>
</event>
<event>
 4    2  0.3855935E-007  0.7241825E+03  0.7818608E-02  0.9908680E-01
         -2   -1    0    0    0  501 -0.00000000000E+00  0.00000000000E+00  0.23266910608E+03  0.23266910609E+03  0.25500000000E-02 0.  1.
          2   -1    0    0  501    0  0.00000000000E+00 -0.00000000000E+00 -0.14024240293E+04  0.14024240293E+04  0.25500000000E-02 0. -1.
    8880023    1    1    2    0    0  0.11592851956E+03 -0.27783197395E+03 -0.48494332430E+03  0.87155622965E+03  0.65864270000E+03 0.  0.
    8880022    1    1    2    0    0 -0.11592851956E+03  0.27783197395E+03 -0.68481159896E+03  0.76353690578E+03  0.15294330000E+03 0.  0.
<mgrwt>
<rscale>  0 0.59842459E+03</rscale>
<asrwt>0</asrwt>
<pdfrwt beam="1">  1        2 0.21575754E+00 0.72418246E+03</pdfrwt>
<pdfrwt beam="2">  1       -2 0.35795248E-01 0.72418246E+03</pdfrwt>
<totfact> 0.10784615E+02</totfact>
</mgrwt>
</event>
<event>
 4    2  0.3855935E-007  0.7975517E+03  0.7818608E-02  0.9716115E-01
          2   -1    0    0  501    0  0.00000000000E+00  0.00000000000E+00  0.14726913988E+04  0.14726913988E+04  0.25500000000E-02 0. -1.
         -2   -1    0    0    0  501 -0.00000000000E+00 -0.00000000000E+00 -0.96840025807E+03  0.96840025808E+03  0.25500000000E-02 0.  1.
    8880023    1    1    2    0    0 -0.71834073868E+02  0.44398019532E+03 -0.75311755080E+03  0.10969388313E+04  0.65864270000E+03 0.  1.
    8880022    1    1    2    0    0  0.71834073868E+02 -0.44398019532E+03  0.12574086915E+04  0.13441528256E+04  0.15294330000E+03 0.  0.
<mgrwt>
<rscale>  0 0.70065370E+03</rscale>
<asrwt>0</asrwt>
<pdfrwt beam="1">  1        2 0.22656791E+00 0.79755173E+03</pdfrwt>
<pdfrwt beam="2">  1       -2 0.14898466E+00 0.79755173E+03</pdfrwt>
<totfact> 0.40879573E+00</totfact>
</mgrwt>
</event>
<event>
 4    2  0.3855935E-007  0.7995026E+03  0.7818608E-02  0.9711873E-01
         -2   -1    0    0    0  501 -0.00000000000E+00  0.00000000000E+00  0.10258593828E+04  0.10258593828E+04  0.25500000000E-02 0.  1.
          2   -1    0    0  501    0  0.00000000000E+00 -0.00000000000E+00 -0.69321354327E+03  0.69321354327E+03  0.25500000000E-02 0. -1.
    8880023    1    1    2    0    0  0.40559413200E+02  0.45138584981E+03  0.74105185760E+03  0.10901203206E+04  0.65864270000E+03 0.  1.
    8880022    1    1    2    0    0 -0.40559413200E+02 -0.45138584981E+03 -0.40840601804E+03  0.62895260553E+03  0.15294330000E+03 0.  0.
<mgrwt>
<rscale>  0 0.70314288E+03</rscale>
<asrwt>0</asrwt>
<pdfrwt beam="1">  1        2 0.10664824E+00 0.79950263E+03</pdfrwt>
<pdfrwt beam="2">  1       -2 0.15782452E+00 0.79950263E+03</pdfrwt>
<totfact> 0.10959983E+01</totfact>
</mgrwt>
</event>
<event>
 4    2  0.3855935E-007  0.8175951E+03  0.7818608E-02  0.9673968E-01
          2   -1    0    0  501    0  0.00000000000E+00  0.00000000000E+00  0.29481884374E+03  0.29481884375E+03  0.25500000000E-02 0. -1.
         -2   -1    0    0    0  501 -0.00000000000E+00 -0.00000000000E+00 -0.33112195408E+04  0.33112195408E+04  0.25500000000E-02 0.  1.
    8880023    1    1    2    0    0 -0.18151955731E+03  0.44911269305E+03 -0.29873686212E+04  0.30972298988E+04  0.65864270000E+03 0.  1.
    8880022    1    1    2    0    0  0.18151955731E+03 -0.44911269305E+03 -0.29032075853E+02  0.50880848577E+03  0.15294330000E+03 0.  0.
<mgrwt>
<rscale>  0 0.72588073E+03</rscale>
<asrwt>0</asrwt>
<pdfrwt beam="1">  1        2 0.45356748E-01 0.81759511E+03</pdfrwt>
<pdfrwt beam="2">  1       -2 0.50941836E+00 0.81759511E+03</pdfrwt>
<totfact> 0.16823944E-01</totfact>
</mgrwt>
</event>
<event>
 4    2  0.3855935E-007  0.1595845E+04  0.7818608E-02  0.8844763E-01
          2   -1    0    0  501    0  0.00000000000E+00  0.00000000000E+00  0.28369224186E+04  0.28369224186E+04  0.25500000000E-02 0. -1.
         -2   -1    0    0    0  501 -0.00000000000E+00 -0.00000000000E+00 -0.93081863635E+03  0.93081863635E+03  0.25500000000E-02 0.  1.
    8880023    1    1    2    0    0  0.11332152421E+02  0.14535412274E+04  0.35180041260E+03  0.16341616364E+04  0.65864270000E+03 0.  0.
    8880022    1    1    2    0    0 -0.11332152421E+02 -0.14535412274E+04  0.15543033697E+04  0.21335794186E+04  0.15294330000E+03 0.  1.
<mgrwt>
<rscale>  0 0.15611723E+04</rscale>
<asrwt>0</asrwt>
<pdfrwt beam="1">  1        2 0.43644960E+00 0.15958448E+04</pdfrwt>
<pdfrwt beam="2">  1       -2 0.14320287E+00 0.15958448E+04</pdfrwt>
<totfact> 0.69749742E-01</totfact>
</mgrwt>
</event>
<event>
 4    2  0.3855935E-007  0.6663570E+03  0.7818608E-02  0.1018421E+00
          2   -1    0    0  501    0  0.00000000000E+00  0.00000000000E+00  0.83559122204E+03  0.83559122204E+03  0.25500000000E-02 0. -1.
         -2   -1    0    0    0  501 -0.00000000000E+00 -0.00000000000E+00 -0.25800237827E+03  0.25800237829E+03  0.25500000000E-02 0.  1.
    8880023    1    1    2    0    0  0.94475503899E+02 -0.35997871190E+02  0.23783464572E+03  0.70752879272E+03  0.65864270000E+03 0.  1.
    8880022    1    1    2    0    0 -0.94475503899E+02  0.35997871190E+02  0.33975419805E+03  0.38606480761E+03  0.15294330000E+03 0.  0.
<mgrwt>
<rscale>  0 0.48260724E+03</rscale>
<asrwt>0</asrwt>
<pdfrwt beam="1">  1        2 0.12855249E+00 0.66635702E+03</pdfrwt>
<pdfrwt beam="2">  1       -2 0.39692674E-01 0.66635702E+03</pdfrwt>
<totfact> 0.19787852E+02</totfact>
</mgrwt>
</event>
<event>
 4    2  0.3855935E-007  0.9473466E+03  0.7818608E-02  0.9453942E-01
         -2   -1    0    0    0  501 -0.00000000000E+00  0.00000000000E+00  0.70219265185E+03  0.70219265185E+03  0.25500000000E-02 0.  1.
          2   -1    0    0  501    0  0.00000000000E+00 -0.00000000000E+00 -0.12309750133E+04  0.12309750133E+04  0.25500000000E-02 0. -1.
    8880023    1    1    2    0    0  0.19305126895E+03 -0.65298283172E+03  0.15055376975E+03  0.95923511967E+03  0.65864270000E+03 0.  1.
    8880022    1    1    2    0    0 -0.19305126895E+03  0.65298283172E+03 -0.67933613117E+03  0.97393254545E+03  0.15294330000E+03 0.  0.
<mgrwt>
<rscale>  0 0.87766350E+03</rscale>
<asrwt>0</asrwt>
<pdfrwt beam="1">  1        2 0.18938077E+00 0.94734660E+03</pdfrwt>
<pdfrwt beam="2">  1       -2 0.10802964E+00 0.94734660E+03</pdfrwt>
<totfact> 0.12441238E+01</totfact>
</mgrwt>
</event>
<event>
 4    2  0.3855935E-007  0.7727369E+03  0.7818608E-02  0.9773183E-01
         -2   -1    0    0    0  501 -0.00000000000E+00  0.00000000000E+00  0.19642752138E+04  0.19642752138E+04  0.25500000000E-02 0.  1.
          2   -1    0    0  501    0  0.00000000000E+00 -0.00000000000E+00 -0.26104452062E+03  0.26104452064E+03  0.25500000000E-02 0. -1.
    8880023    1    1    2    0    0  0.34256765190E+03  0.21438155760E+03  0.16062770903E+04  0.17824837574E+04  0.65864270000E+03 0.  1.
    8880022    1    1    2    0    0 -0.34256765190E+03 -0.21438155760E+03  0.96953602801E+02  0.44283597695E+03  0.15294330000E+03 0.  0.
<mgrwt>
<rscale>  0 0.66821749E+03</rscale>
<asrwt>0</asrwt>
<pdfrwt beam="1">  1        2 0.40160696E-01 0.77273686E+03</pdfrwt>
<pdfrwt beam="2">  1       -2 0.30219618E+00 0.77273686E+03</pdfrwt>
<totfact> 0.40956022E+00</totfact>
</mgrwt>
</event>
<event>
 4    2  0.3855935E-007  0.8319539E+03  0.7818608E-02  0.9645543E-01
          2   -1    0    0  501    0  0.00000000000E+00  0.00000000000E+00  0.18643271018E+04  0.18643271018E+04  0.25500000000E-02 0. -1.
         -2   -1    0    0    0  501 -0.00000000000E+00 -0.00000000000E+00 -0.35354156276E+03  0.35354156277E+03  0.25500000000E-02 0.  1.
    8880023    1    1    2    0    0  0.14153229181E+03  0.48816563717E+03  0.28049814929E+03  0.87796725278E+03  0.65864270000E+03 0.  0.
    8880022    1    1    2    0    0 -0.14153229181E+03 -0.48816563717E+03  0.12302873898E+04  0.13399014118E+04  0.15294330000E+03 0. -1.
<mgrwt>
<rscale>  0 0.74353829E+03</rscale>
<asrwt>0</asrwt>
<pdfrwt beam="1">  1        2 0.28681955E+00 0.83195390E+03</pdfrwt>
<pdfrwt beam="2">  1       -2 0.54391010E-01 0.83195390E+03</pdfrwt>
<totfact> 0.25795919E+01</totfact>
</mgrwt>
</event>
<event>
 4    2  0.3855935E-007  0.7656671E+03  0.7818608E-02  0.9790651E-01
         -2   -1    0    0    0  501 -0.00000000000E+00  0.00000000000E+00  0.14852222767E+04  0.14852222767E+04  0.25500000000E-02 0.  1.
          2   -1    0    0  501    0  0.00000000000E+00 -0.00000000000E+00 -0.69763273912E+03  0.69763273912E+03  0.25500000000E-02 0. -1.
    8880023    1    1    2    0    0  0.39003738967E+03 -0.17515209343E+02  0.13073363855E+04  0.15150493652E+04  0.65864270000E+03 0.  1.
    8880022    1    1    2    0    0 -0.39003738967E+03  0.17515209343E+02 -0.51974684799E+03  0.66780565055E+03  0.15294330000E+03 0.  0.
<mgrwt>
<rscale>  0 0.65866697E+03</rscale>
<asrwt>0</asrwt>
<pdfrwt beam="1">  1        2 0.10732811E+00 0.76566713E+03</pdfrwt>
<pdfrwt beam="2">  1       -2 0.22849573E+00 0.76566713E+03</pdfrwt>
<totfact> 0.36813759E+00</totfact>
</mgrwt>
</event>
<event>
 4    2  0.3855935E-007  0.7196616E+03  0.7818608E-02  0.9923733E-01
          2   -1    0    0  501    0  0.00000000000E+00  0.00000000000E+00  0.26849749077E+04  0.26849749077E+04  0.25500000000E-02 0. -1.
         -2   -1    0    0    0  501 -0.00000000000E+00 -0.00000000000E+00 -0.23239710648E+03  0.23239710649E+03  0.25500000000E-02 0.  1.
    8880023    1    1    2    0    0  0.18077036100E+03 -0.22677020845E+03  0.37011478460E+03  0.80925756771E+03  0.65864270000E+03 0.  0.
    8880022    1    1    2    0    0 -0.18077036100E+03  0.22677020845E+03  0.20824630166E+04  0.21081144465E+04  0.15294330000E+03 0.  0.
<mgrwt>
<rscale>  0 0.59124767E+03</rscale>
<asrwt>0</asrwt>
<pdfrwt beam="1">  1        2 0.41307307E+00 0.71966163E+03</pdfrwt>
<pdfrwt beam="2">  1       -2 0.35753400E-01 0.71966163E+03</pdfrwt>
<totfact> 0.21035428E+01</totfact>
</mgrwt>
</event>
<event>
 4    2  0.3855935E-007  0.7021085E+03  0.7818608E-02  0.9988564E-01
          2   -1    0    0  501    0  0.00000000000E+00  0.00000000000E+00  0.36837685185E+04  0.36837685185E+04  0.25500000000E-02 0. -1.
         -2   -1    0    0    0  501 -0.00000000000E+00 -0.00000000000E+00 -0.63306751050E+03  0.63306751050E+03  0.25500000000E-02 0.  1.
    8880023    1    1    2    0    0  0.10277715321E+03 -0.22041538696E+03 -0.43064402122E+03  0.82365682496E+03  0.65864270000E+03 0.  1.
    8880022    1    1    2    0    0 -0.10277715321E+03  0.22041538696E+03  0.34813450292E+04  0.34931792040E+04  0.15294330000E+03 0.  0.
<mgrwt>
<rscale>  0 0.56154521E+03</rscale>
<asrwt>0</asrwt>
<pdfrwt beam="1">  1        2 0.56673362E+00 0.70210846E+03</pdfrwt>
<pdfrwt beam="2">  1       -2 0.97395001E-01 0.70210846E+03</pdfrwt>
<totfact> 0.58621488E-01</totfact>
</mgrwt>
</event>
<event>
 4    2  0.3855935E-007  0.7080160E+03  0.7818608E-02  0.9965443E-01
          2   -1    0    0  501    0  0.00000000000E+00  0.00000000000E+00  0.75421457250E+03  0.75421457250E+03  0.25500000000E-02 0. -1.
         -2   -1    0    0    0  501 -0.00000000000E+00 -0.00000000000E+00 -0.78079063570E+03  0.78079063571E+03  0.25500000000E-02 0.  1.
    8880023    1    1    2    0    0  0.12869493788E+03  0.22564146411E+03 -0.57307691375E+03  0.91088078951E+03  0.65864270000E+03 0.  1.
    8880022    1    1    2    0    0 -0.12869493788E+03 -0.22564146411E+03  0.54650085054E+03  0.62412441870E+03  0.15294330000E+03 0.  0.
<mgrwt>
<rscale>  0 0.57191797E+03</rscale>
<asrwt>0</asrwt>
<pdfrwt beam="1">  1        2 0.11603301E+00 0.70801601E+03</pdfrwt>
<pdfrwt beam="2">  1       -2 0.12012164E+00 0.70801601E+03</pdfrwt>
<totfact> 0.20081587E+01</totfact>
</mgrwt>
</event>
<event>
 4    2  0.3855935E-007  0.6647224E+03  0.7818608E-02  0.1019767E+00
          2   -1    0    0  501    0  0.00000000000E+00  0.00000000000E+00  0.52788757668E+03  0.52788757669E+03  0.25500000000E-02 0. -1.
         -2   -1    0    0    0  501 -0.00000000000E+00 -0.00000000000E+00 -0.75077439238E+03  0.75077439239E+03  0.25500000000E-02 0.  1.
    8880023    1    1    2    0    0 -0.33736650043E+02  0.83111259681E+02 -0.57856153629E+03  0.88124304285E+03  0.65864270000E+03 0.  1.
    8880022    1    1    2    0    0  0.33736650043E+02 -0.83111259681E+02  0.35567472059E+03  0.39741892622E+03  0.15294330000E+03 0.  0.
<mgrwt>
<rscale>  0 0.47770620E+03</rscale>
<asrwt>0</asrwt>
<pdfrwt beam="1">  1        2 0.81213473E-01 0.66472239E+03</pdfrwt>
<pdfrwt beam="2">  1       -2 0.11550375E+00 0.66472239E+03</pdfrwt>
<totfact> 0.34360040E+01</totfact>
</mgrwt>
</event>
<event>
 4    2  0.3855935E-007  0.7661330E+03  0.7818608E-02  0.9789481E-01
          2   -1    0    0  501    0  0.00000000000E+00  0.00000000000E+00  0.23088362720E+04  0.23088362720E+04  0.25500000000E-02 0. -1.
         -2   -1    0    0    0  501 -0.00000000000E+00 -0.00000000000E+00 -0.19198313912E+03  0.19198313914E+03  0.25500000000E-02 0.  1.
    8880023    1    1    2    0    0 -0.36114498766E+03  0.15074461831E+03  0.75503728278E+03  0.10756584712E+04  0.65864270000E+03 0.  0.
    8880022    1    1    2    0    0  0.36114498766E+03 -0.15074461831E+03  0.13618158501E+04  0.14251609399E+04  0.15294330000E+03 0.  0.
<mgrwt>
<rscale>  0 0.65930131E+03</rscale>
<asrwt>0</asrwt>
<pdfrwt beam="1">  1        2 0.35520562E+00 0.76613305E+03</pdfrwt>
<pdfrwt beam="2">  1       -2 0.29535865E-01 0.76613305E+03</pdfrwt>
<totfact> 0.48913555E+01</totfact>
</mgrwt>
</event>
<event>
 4    2  0.3855935E-007  0.9046878E+03  0.7818608E-02  0.9518548E-01
         -2   -1    0    0    0  501 -0.00000000000E+00  0.00000000000E+00  0.21180007347E+03  0.21180007348E+03  0.25500000000E-02 0.  1.
          2   -1    0    0  501    0  0.00000000000E+00 -0.00000000000E+00 -0.35250989792E+04  0.35250989792E+04  0.25500000000E-02 0. -1.
    8880023    1    1    2    0    0  0.44607257804E+03  0.43089341483E+03 -0.10539332601E+04  0.13889691871E+04  0.65864270000E+03 0.  1.
    8880022    1    1    2    0    0 -0.44607257804E+03 -0.43089341483E+03 -0.22593656457E+04  0.23479298656E+04  0.15294330000E+03 0.  0.
<mgrwt>
<rscale>  0 0.82930085E+03</rscale>
<asrwt>0</asrwt>
<pdfrwt beam="1">  1        2 0.54232288E+00 0.90468784E+03</pdfrwt>
<pdfrwt beam="2">  1       -2 0.32584629E-01 0.90468784E+03</pdfrwt>
<totfact> 0.72133852E+00</totfact>
</mgrwt>
</event>
<event>
 4    2  0.3855935E-007  0.9129317E+03  0.7818608E-02  0.9505583E-01
          2   -1    0    0  501    0  0.00000000000E+00  0.00000000000E+00  0.48898924688E+03  0.48898924689E+03  0.25500000000E-02 0. -1.
         -2   -1    0    0    0  501 -0.00000000000E+00 -0.00000000000E+00 -0.17161326778E+04  0.17161326778E+04  0.25500000000E-02 0.  1.
    8880023    1    1    2    0    0  0.62977594608E+03 -0.54921076553E+02 -0.12575734383E+04  0.15540061859E+04  0.65864270000E+03 0.  0.
    8880022    1    1    2    0    0 -0.62977594608E+03  0.54921076553E+02  0.30430007372E+02  0.65111573877E+03  0.15294330000E+03 0.  0.
<mgrwt>
<rscale>  0 0.83873460E+03</rscale>
<asrwt>0</asrwt>
<pdfrwt beam="1">  1        2 0.75229116E-01 0.91293169E+03</pdfrwt>
<pdfrwt beam="2">  1       -2 0.26402041E+00 0.91293169E+03</pdfrwt>
<totfact> 0.33700038E+00</totfact>
</mgrwt>
</event>
<event>
 4    2  0.3855935E-007  0.8238128E+03  0.7818608E-02  0.9661493E-01
         -2   -1    0    0    0  501 -0.00000000000E+00  0.00000000000E+00  0.68358526062E+03  0.68358526062E+03  0.25500000000E-02 0.  1.
          2   -1    0    0  501    0  0.00000000000E+00 -0.00000000000E+00 -0.12602532970E+04  0.12602532970E+04  0.25500000000E-02 0. -1.
    8880023    1    1    2    0    0  0.27635815602E+03 -0.41046734920E+03  0.33980396709E+03  0.89114208602E+03  0.65864270000E+03 0.  0.
    8880022    1    1    2    0    0 -0.27635815602E+03  0.41046734920E+03 -0.91647200342E+03  0.10526964716E+04  0.15294330000E+03 0.  0.
<mgrwt>
<rscale>  0 0.73356506E+03</rscale>
<asrwt>0</asrwt>
<pdfrwt beam="1">  1        2 0.19388512E+00 0.82381277E+03</pdfrwt>
<pdfrwt beam="2">  1       -2 0.10516696E+00 0.82381277E+03</pdfrwt>
<totfact> 0.12922221E+01</totfact>
</mgrwt>
</event>
<event>
 4    2  0.3855935E-007  0.6902018E+03  0.7818608E-02  0.1004057E+00
         -2   -1    0    0    0  501 -0.00000000000E+00  0.00000000000E+00  0.34235851884E+03  0.34235851885E+03  0.25500000000E-02 0.  1.
          2   -1    0    0  501    0  0.00000000000E+00 -0.00000000000E+00 -0.11612877856E+04  0.11612877856E+04  0.25500000000E-02 0. -1.
    8880023    1    1    2    0    0  0.15857493525E+03 -0.13199371164E+03 -0.48917410067E+02  0.69193313931E+03  0.65864270000E+03 0.  1.
    8880022    1    1    2    0    0 -0.15857493525E+03  0.13199371164E+03 -0.77001185667E+03  0.81171316512E+03  0.15294330000E+03 0.  0.
<mgrwt>
<rscale>  0 0.53906627E+03</rscale>
<asrwt>0</asrwt>
<pdfrwt beam="1">  1        2 0.17865966E+00 0.69020182E+03</pdfrwt>
<pdfrwt beam="2">  1       -2 0.52670542E-01 0.69020182E+03</pdfrwt>
<totfact> 0.69445141E+01</totfact>
</mgrwt>
</event>
<event>
 4    2  0.3855935E-007  0.7202456E+03  0.7818608E-02  0.9921756E-01
         -2   -1    0    0    0  501 -0.00000000000E+00  0.00000000000E+00  0.44827891158E+03  0.44827891159E+03  0.25500000000E-02 0.  1.
          2   -1    0    0  501    0  0.00000000000E+00 -0.00000000000E+00 -0.96820371097E+03  0.96820371097E+03  0.25500000000E-02 0. -1.
    8880023    1    1    2    0    0  0.11417744719E+03 -0.26815497463E+03  0.87572324415E+02  0.72554992808E+03  0.65864270000E+03 0.  1.
    8880022    1    1    2    0    0 -0.11417744719E+03  0.26815497463E+03 -0.60749712380E+03  0.69093269449E+03  0.15294330000E+03 0.  0.
<mgrwt>
<rscale>  0 0.59218404E+03</rscale>
<asrwt>0</asrwt>
<pdfrwt beam="1">  1        2 0.14895442E+00 0.72024564E+03</pdfrwt>
<pdfrwt beam="2">  1       -2 0.68965987E-01 0.72024564E+03</pdfrwt>
<totfact> 0.51620248E+01</totfact>
</mgrwt>
</event>
<event>
 4    2  0.3855935E-007  0.7191149E+03  0.7818608E-02  0.9925592E-01
         -2   -1    0    0    0  501 -0.00000000000E+00  0.00000000000E+00  0.64327599062E+03  0.64327599062E+03  0.25500000000E-02 0.  1.
          2   -1    0    0  501    0  0.00000000000E+00 -0.00000000000E+00 -0.77366832431E+03  0.77366832431E+03  0.25500000000E-02 0. -1.
    8880023    1    1    2    0    0  0.92418740507E+02  0.27344995381E+03  0.37818422238E+03  0.81249591578E+03  0.65864270000E+03 0.  0.
    8880022    1    1    2    0    0 -0.92418740507E+02 -0.27344995381E+03 -0.50857655607E+03  0.60444839915E+03  0.15294330000E+03 0. -1.
<mgrwt>
<rscale>  0 0.59036858E+03</rscale>
<asrwt>0</asrwt>
<pdfrwt beam="1">  1        2 0.11902590E+00 0.71911495E+03</pdfrwt>
<pdfrwt beam="2">  1       -2 0.98965537E-01 0.71911495E+03</pdfrwt>
<totfact> 0.30992600E+01</totfact>
</mgrwt>
</event>
<event>
 4    2  0.3855935E-007  0.7849963E+03  0.7818608E-02  0.9744229E-01
         -2   -1    0    0    0  501 -0.00000000000E+00  0.00000000000E+00  0.63420080152E+03  0.63420080153E+03  0.25500000000E-02 0.  1.
          2   -1    0    0  501    0  0.00000000000E+00 -0.00000000000E+00 -0.63128073430E+03  0.63128073430E+03  0.25500000000E-02 0. -1.
    8880023    1    1    2    0    0 -0.10503420676E+03 -0.41397685093E+03 -0.12324407934E+03  0.79461206072E+03  0.65864270000E+03 0.  0.
    8880022    1    1    2    0    0  0.10503420676E+03  0.41397685093E+03  0.12616414657E+03  0.47086947511E+03  0.15294330000E+03 0.  0.
<mgrwt>
<rscale>  0 0.68443398E+03</rscale>
<asrwt>0</asrwt>
<pdfrwt beam="1">  1        2 0.97120113E-01 0.78499632E+03</pdfrwt>
<pdfrwt beam="2">  1       -2 0.97569354E-01 0.78499632E+03</pdfrwt>
<totfact> 0.41215790E+01</totfact>
</mgrwt>
</event>
<event>
 4    2  0.3855935E-007  0.7341441E+03  0.7818608E-02  0.9877345E-01
          2   -1    0    0  501    0  0.00000000000E+00  0.00000000000E+00  0.13300015155E+04  0.13300015155E+04  0.25500000000E-02 0. -1.
         -2   -1    0    0    0  501 -0.00000000000E+00 -0.00000000000E+00 -0.23873731867E+03  0.23873731868E+03  0.25500000000E-02 0.  1.
    8880023    1    1    2    0    0 -0.57095758851E+02  0.31921386624E+03  0.54089164271E+03  0.91188343196E+03  0.65864270000E+03 0.  1.
    8880022    1    1    2    0    0  0.57095758851E+02 -0.31921386624E+03  0.55037255410E+03  0.65685540220E+03  0.15294330000E+03 0. -1.
<mgrwt>
<rscale>  0 0.61371908E+03</rscale>
<asrwt>0</asrwt>
<pdfrwt beam="1">  1        2 0.20461561E+00 0.73414414E+03</pdfrwt>
<pdfrwt beam="2">  1       -2 0.36728820E-01 0.73414414E+03</pdfrwt>
<totfact> 0.11276540E+02</totfact>
</mgrwt>
</event>
<event>
 4    2  0.3855935E-007  0.7085029E+03  0.7818608E-02  0.9963603E-01
          2   -1    0    0  501    0  0.00000000000E+00  0.00000000000E+00  0.28246485879E+04  0.28246485880E+04  0.25500000000E-02 0. -1.
         -2   -1    0    0    0  501 -0.00000000000E+00 -0.00000000000E+00 -0.16655767893E+03  0.16655767895E+03  0.25500000000E-02 0.  1.
    8880023    1    1    2    0    0 -0.20866528591E+02 -0.26025125629E+03  0.65336977139E+03  0.96377818654E+03  0.65864270000E+03 0.  0.
    8880022    1    1    2    0    0  0.20866528591E+02  0.26025125629E+03  0.20047211376E+04  0.20274280804E+04  0.15294330000E+03 0.  0.
<mgrwt>
<rscale>  0 0.57275399E+03</rscale>
<asrwt>0</asrwt>
<pdfrwt beam="1">  1        2 0.43456130E+00 0.70850288E+03</pdfrwt>
<pdfrwt beam="2">  1       -2 0.25624259E-01 0.70850288E+03</pdfrwt>
<totfact> 0.32410437E+01</totfact>
</mgrwt>
</event>
<event>
 4    2  0.3855935E-007  0.1020543E+04  0.7818608E-02  0.9355162E-01
          2   -1    0    0  501    0  0.00000000000E+00  0.00000000000E+00  0.12865076465E+04  0.12865076465E+04  0.25500000000E-02 0. -1.
         -2   -1    0    0    0  501 -0.00000000000E+00 -0.00000000000E+00 -0.70941988558E+03  0.70941988558E+03  0.25500000000E-02 0.  1.
    8880023    1    1    2    0    0  0.15528862638E+03 -0.76392579286E+03  0.11255911266E+02  0.10206047601E+04  0.65864270000E+03 0.  0.
    8880022    1    1    2    0    0 -0.15528862638E+03  0.76392579286E+03  0.56583184963E+03  0.97532277198E+03  0.15294330000E+03 0.  0.
<mgrwt>
<rscale>  0 0.95859397E+03</rscale>
<asrwt>0</asrwt>
<pdfrwt beam="1">  1        2 0.19792425E+00 0.10205427E+04</pdfrwt>
<pdfrwt beam="2">  1       -2 0.10914152E+00 0.10205427E+04</pdfrwt>
<totfact> 0.11180092E+01</totfact>
</mgrwt>
</event>
<event>
 4    2  0.3855935E-007  0.6930570E+03  0.7818608E-02  0.1002732E+00
         -2   -1    0    0    0  501 -0.00000000000E+00  0.00000000000E+00  0.40504547564E+03  0.40504547565E+03  0.25500000000E-02 0.  1.
          2   -1    0    0  501    0  0.00000000000E+00 -0.00000000000E+00 -0.98555804005E+03  0.98555804005E+03  0.25500000000E-02 0. -1.
    8880023    1    1    2    0    0  0.49893288415E+02  0.20982959210E+03  0.61989895976E+02  0.69582379337E+03  0.65864270000E+03 0.  0.
    8880022    1    1    2    0    0 -0.49893288415E+02 -0.20982959210E+03 -0.64250246038E+03  0.69477972233E+03  0.15294330000E+03 0.  0.
<mgrwt>
<rscale>  0 0.54468285E+03</rscale>
<asrwt>0</asrwt>
<pdfrwt beam="1">  1        2 0.15162431E+00 0.69305700E+03</pdfrwt>
<pdfrwt beam="2">  1       -2 0.62314689E-01 0.69305700E+03</pdfrwt>
<totfact> 0.62719462E+01</totfact>
</mgrwt>
</event>
<event>
 4    2  0.3855935E-007  0.7248859E+03  0.7818608E-02  0.9906388E-01
         -2   -1    0    0    0  501 -0.00000000000E+00  0.00000000000E+00  0.84174522763E+03  0.84174522763E+03  0.25500000000E-02 0.  1.
          2   -1    0    0  501    0  0.00000000000E+00 -0.00000000000E+00 -0.39165176570E+03  0.39165176571E+03  0.25500000000E-02 0. -1.
    8880023    1    1    2    0    0  0.27019346637E+03 -0.13654629790E+03  0.51350999481E+03  0.88834234492E+03  0.65864270000E+03 0.  1.
    8880022    1    1    2    0    0 -0.27019346637E+03  0.13654629790E+03 -0.63416532885E+02  0.34505464842E+03  0.15294330000E+03 0.  0.
<mgrwt>
<rscale>  0 0.59952715E+03</rscale>
<asrwt>0</asrwt>
<pdfrwt beam="1">  1        2 0.60254118E-01 0.72488593E+03</pdfrwt>
<pdfrwt beam="2">  1       -2 0.12949927E+00 0.72488593E+03</pdfrwt>
<totfact> 0.36195003E+01</totfact>
</mgrwt>
</event>
<event>
 4    2  0.3855935E-007  0.7834216E+03  0.7818608E-02  0.9747860E-01
         -2   -1    0    0    0  501 -0.00000000000E+00  0.00000000000E+00  0.20609949711E+03  0.20609949713E+03  0.25500000000E-02 0.  1.
          2   -1    0    0  501    0  0.00000000000E+00 -0.00000000000E+00 -0.18941339297E+04  0.18941339297E+04  0.25500000000E-02 0. -1.
    8880023    1    1    2    0    0  0.18591999113E+02  0.42378485830E+03 -0.12235864691E+04  0.14528982491E+04  0.65864270000E+03 0.  0.
    8880022    1    1    2    0    0 -0.18591999113E+02 -0.42378485830E+03 -0.46444796349E+03  0.64733517776E+03  0.15294330000E+03 0.  0.
<mgrwt>
<rscale>  0 0.68237342E+03</rscale>
<asrwt>0</asrwt>
<pdfrwt beam="1">  1        2 0.29140521E+00 0.78342165E+03</pdfrwt>
<pdfrwt beam="2">  1       -2 0.31707616E-01 0.78342165E+03</pdfrwt>
<totfact> 0.72275072E+01</totfact>
</mgrwt>
</event>
<event>
 4    2  0.3855935E-007  0.7132500E+03  0.7818608E-02  0.9946125E-01
         -2   -1    0    0    0  501 -0.00000000000E+00  0.00000000000E+00  0.45037443787E+03  0.45037443788E+03  0.25500000000E-02 0.  1.
          2   -1    0    0  501    0  0.00000000000E+00 -0.00000000000E+00 -0.12796777598E+04  0.12796777598E+04  0.25500000000E-02 0. -1.
    8880023    1    1    2    0    0 -0.87094117114E+02 -0.25948006211E+03  0.12628241641E+03  0.72434297320E+03  0.65864270000E+03 0.  1.
    8880022    1    1    2    0    0  0.87094117114E+02  0.25948006211E+03 -0.95558573837E+03  0.10057092245E+04  0.15294330000E+03 0.  0.
<mgrwt>
<rscale>  0 0.58077022E+03</rscale>
<asrwt>0</asrwt>
<pdfrwt beam="1">  1        2 0.19687350E+00 0.71324995E+03</pdfrwt>
<pdfrwt beam="2">  1       -2 0.69288376E-01 0.71324995E+03</pdfrwt>
<totfact> 0.33061803E+01</totfact>
</mgrwt>
</event>
<event>
 4    2  0.3855935E-007  0.1841621E+04  0.7818608E-02  0.8699856E-01
          2   -1    0    0  501    0  0.00000000000E+00  0.00000000000E+00  0.33296473842E+04  0.33296473842E+04  0.25500000000E-02 0. -1.
         -2   -1    0    0    0  501 -0.00000000000E+00 -0.00000000000E+00 -0.11223688982E+04  0.11223688982E+04  0.25500000000E-02 0.  1.
    8880023    1    1    2    0    0  0.11886187787E+04  0.12429568420E+04  0.27721983862E+03  0.18623687490E+04  0.65864270000E+03 0.  0.
    8880022    1    1    2    0    0 -0.11886187787E+04 -0.12429568420E+04  0.19300586474E+04  0.25896475334E+04  0.15294330000E+03 0.  0.
<mgrwt>
<rscale>  0 0.18121664E+04</rscale>
<asrwt>0</asrwt>
<pdfrwt beam="1">  1        2 0.51225344E+00 0.18416206E+04</pdfrwt>
<pdfrwt beam="2">  1       -2 0.17267214E+00 0.18416206E+04</pdfrwt>
<totfact> 0.19802191E-01</totfact>
</mgrwt>
</event>
<event>
 4    2  0.3855935E-007  0.7949251E+03  0.7818608E-02  0.9721878E-01
          2   -1    0    0  501    0  0.00000000000E+00  0.00000000000E+00  0.29012386424E+04  0.29012386424E+04  0.25500000000E-02 0. -1.
         -2   -1    0    0    0  501 -0.00000000000E+00 -0.00000000000E+00 -0.14034581884E+03  0.14034581886E+03  0.25500000000E-02 0.  1.
    8880023    1    1    2    0    0 -0.44468974680E+03  0.18621196103E+02  0.15386057675E+04  0.17318237883E+04  0.65864270000E+03 0.  0.
    8880022    1    1    2    0    0  0.44468974680E+03 -0.18621196103E+02  0.12222870561E+04  0.13097606729E+04  0.15294330000E+03 0.  1.
<mgrwt>
<rscale>  0 0.69728975E+03</rscale>
<asrwt>0</asrwt>
<pdfrwt beam="1">  1        2 0.44634435E+00 0.79492511E+03</pdfrwt>
<pdfrwt beam="2">  1       -2 0.21591667E-01 0.79492511E+03</pdfrwt>
<totfact> 0.39121189E+01</totfact>
</mgrwt>
</event>
<event>
 4    2  0.3855935E-007  0.6692594E+03  0.7818608E-02  0.1016199E+00
          2   -1    0    0  501    0  0.00000000000E+00  0.00000000000E+00  0.17457565037E+04  0.17457565037E+04  0.25500000000E-02 0. -1.
         -2   -1    0    0    0  501 -0.00000000000E+00 -0.00000000000E+00 -0.12494994968E+03  0.12494994970E+03  0.25500000000E-02 0.  1.
    8880023    1    1    2    0    0 -0.95293044816E+02  0.70832203043E+02  0.88331187818E+03  0.11082184107E+04  0.65864270000E+03 0.  1.
    8880022    1    1    2    0    0  0.95293044816E+02 -0.70832203043E+02  0.73749467586E+03  0.76248804274E+03  0.15294330000E+03 0.  0.
<mgrwt>
<rscale>  0 0.49083412E+03</rscale>
<asrwt>0</asrwt>
<pdfrwt beam="1">  1        2 0.26857794E+00 0.66925942E+03</pdfrwt>
<pdfrwt beam="2">  1       -2 0.19223068E-01 0.66925942E+03</pdfrwt>
<totfact> 0.21694732E+02</totfact>
</mgrwt>
</event>
<event>
 4    2  0.3855935E-007  0.8099699E+03  0.7818608E-02  0.9689640E-01
          2   -1    0    0  501    0  0.00000000000E+00  0.00000000000E+00  0.18149200422E+04  0.18149200422E+04  0.25500000000E-02 0. -1.
         -2   -1    0    0    0  501 -0.00000000000E+00 -0.00000000000E+00 -0.10783243605E+04  0.10783243605E+04  0.25500000000E-02 0.  1.
    8880023    1    1    2    0    0 -0.10531757987E+03  0.45950972605E+03 -0.88376193486E+03  0.11987853622E+04  0.65864270000E+03 0.  1.
    8880022    1    1    2    0    0  0.10531757987E+03 -0.45950972605E+03  0.16203576166E+04  0.16944590405E+04  0.15294330000E+03 0.  0.
<mgrwt>
<rscale>  0 0.71637002E+03</rscale>
<asrwt>0</asrwt>
<pdfrwt beam="1">  1        2 0.27921847E+00 0.80996987E+03</pdfrwt>
<pdfrwt beam="2">  1       -2 0.16589606E+00 0.80996987E+03</pdfrwt>
<totfact> 0.19773550E+00</totfact>
</mgrwt>
</event>
<event>
 4    2  0.3855935E-007  0.8951371E+03  0.7818608E-02  0.9533884E-01
          2   -1    0    0  501    0  0.00000000000E+00  0.00000000000E+00  0.17233832094E+04  0.17233832094E+04  0.25500000000E-02 0. -1.
         -2   -1    0    0    0  501 -0.00000000000E+00 -0.00000000000E+00 -0.12124615575E+04  0.12124615575E+04  0.25500000000E-02 0.  1.
    8880023    1    1    2    0    0  0.20227455556E+03 -0.57144135229E+03 -0.97510181011E+03  0.13236668619E+04  0.65864270000E+03 0.  1.
    8880022    1    1    2    0    0 -0.20227455556E+03  0.57144135229E+03  0.14860234620E+04  0.16121779050E+04  0.15294330000E+03 0.  0.
<mgrwt>
<rscale>  0 0.81831157E+03</rscale>
<asrwt>0</asrwt>
<pdfrwt beam="1">  1        2 0.26513588E+00 0.89513710E+03</pdfrwt>
<pdfrwt beam="2">  1       -2 0.18653255E+00 0.89513710E+03</pdfrwt>
<totfact> 0.15725284E+00</totfact>
</mgrwt>
</event>
<event>
 4    2  0.3855935E-007  0.7209719E+03  0.7818608E-02  0.9919311E-01
         -2   -1    0    0    0  501 -0.00000000000E+00  0.00000000000E+00  0.98808175630E+03  0.98808175631E+03  0.25500000000E-02 0.  1.
          2   -1    0    0  501    0  0.00000000000E+00 -0.00000000000E+00 -0.54994483890E+03  0.54994483890E+03  0.25500000000E-02 0. -1.
    8880023    1    1    2    0    0  0.25935406376E+03  0.13684206619E+03  0.78013688191E+03  0.10622683476E+04  0.65864270000E+03 0.  0.
    8880022    1    1    2    0    0 -0.25935406376E+03 -0.13684206619E+03 -0.34199996450E+03  0.47575824764E+03  0.15294330000E+03 0.  0.
<mgrwt>
<rscale>  0 0.59334455E+03</rscale>
<asrwt>0</asrwt>
<pdfrwt beam="1">  1        2 0.84606899E-01 0.72097190E+03</pdfrwt>
<pdfrwt beam="2">  1       -2 0.15201258E+00 0.72097190E+03</pdfrwt>
<totfact> 0.16192555E+01</totfact>
</mgrwt>
</event>
<event>
 4    2  0.3855935E-007  0.8255705E+03  0.7818608E-02  0.9658013E-01
         -2   -1    0    0    0  501 -0.00000000000E+00  0.00000000000E+00  0.16718063100E+04  0.16718063100E+04  0.25500000000E-02 0.  1.
          2   -1    0    0  501    0  0.00000000000E+00 -0.00000000000E+00 -0.50457319170E+03  0.50457319171E+03  0.25500000000E-02 0. -1.
    8880023    1    1    2    0    0 -0.60373576515E+02  0.49407642592E+03  0.13846560923E+04  0.16120915556E+04  0.65864270000E+03 0.  1.
    8880022    1    1    2    0    0  0.60373576515E+02 -0.49407642592E+03 -0.21742297408E+03  0.56428794606E+03  0.15294330000E+03 0.  0.
<mgrwt>
<rscale>  0 0.73572661E+03</rscale>
<asrwt>0</asrwt>
<pdfrwt beam="1">  1        2 0.77626643E-01 0.82557052E+03</pdfrwt>
<pdfrwt beam="2">  1       -2 0.25720098E+00 0.82557052E+03</pdfrwt>
<totfact> 0.36096871E+00</totfact>
</mgrwt>
</event>
<event>
 4    2  0.3855935E-007  0.6592766E+03  0.7818608E-02  0.1024910E+00
         -2   -1    0    0    0  501 -0.00000000000E+00  0.00000000000E+00  0.16142749684E+03  0.16142749686E+03  0.25500000000E-02 0.  1.
          2   -1    0    0  501    0  0.00000000000E+00 -0.00000000000E+00 -0.10635580246E+04  0.10635580246E+04  0.25500000000E-02 0. -1.
    8880023    1    1    2    0    0 -0.60312601081E+01  0.28268036806E+02 -0.80895610634E+03  0.10435782895E+04  0.65864270000E+03 0. -1.
    8880022    1    1    2    0    0  0.60312601081E+01 -0.28268036806E+02 -0.93174421458E+02  0.18140723203E+03  0.15294330000E+03 0. -1.
<mgrwt>
<rscale>  0 0.45955602E+03</rscale>
<asrwt>0</asrwt>
<pdfrwt beam="1">  1        2 0.16362431E+00 0.65927662E+03</pdfrwt>
<pdfrwt beam="2">  1       -2 0.24835000E-01 0.65927662E+03</pdfrwt>
<totfact> 0.33720786E+02</totfact>
</mgrwt>
</event>
<event>
 4    2  0.3855935E-007  0.1141441E+04  0.7818608E-02  0.9216261E-01
          2   -1    0    0  501    0  0.00000000000E+00  0.00000000000E+00  0.59606914365E+04  0.59606914365E+04  0.25500000000E-02 0. -1.
         -2   -1    0    0    0  501 -0.00000000000E+00 -0.00000000000E+00 -0.42252787240E+03  0.42252787241E+03  0.25500000000E-02 0.  1.
    8880023    1    1    2    0    0 -0.15325005465E+03 -0.91956072343E+03  0.48112386910E+03  0.12386960430E+04  0.65864270000E+03 0.  1.
    8880022    1    1    2    0    0  0.15325005465E+03  0.91956072343E+03  0.50570396950E+04  0.51445232658E+04  0.15294330000E+03 0.  0.
<mgrwt>
<rscale>  0 0.10887152E+04</rscale>
<asrwt>0</asrwt>
<pdfrwt beam="1">  1        2 0.91702943E+00 0.11414411E+04</pdfrwt>
<pdfrwt beam="2">  1       -2 0.65004290E-01 0.11414411E+04</pdfrwt>
<totfact> 0.11469359E-03</totfact>
</mgrwt>
</event>
<event>
 4    2  0.3855935E-007  0.7219538E+03  0.7818608E-02  0.9916030E-01
          2   -1    0    0  501    0  0.00000000000E+00  0.00000000000E+00  0.17533665509E+04  0.17533665509E+04  0.25500000000E-02 0. -1.
         -2   -1    0    0    0  501 -0.00000000000E+00 -0.00000000000E+00 -0.24556677917E+03  0.24556677918E+03  0.25500000000E-02 0.  1.
    8880023    1    1    2    0    0 -0.23237648662E+03  0.18277910595E+03  0.36565398164E+03  0.80927132265E+03  0.65864270000E+03 0.  1.
    8880022    1    1    2    0    0  0.23237648662E+03 -0.18277910595E+03  0.11421457901E+04  0.11896620074E+04  0.15294330000E+03 0.  0.
<mgrwt>
<rscale>  0 0.59490671E+03</rscale>
<asrwt>0</asrwt>
<pdfrwt beam="1">  1        2 0.26974870E+00 0.72195377E+03</pdfrwt>
<pdfrwt beam="2">  1       -2 0.37779504E-01 0.72195377E+03</pdfrwt>
<totfact> 0.62224940E+01</totfact>
</mgrwt>
</event>
<event>
 4    2  0.4983720E-007  0.8508871E+03  0.7818608E-02  0.9609984E-01
          2   -1    0    0  501    0  0.00000000000E+00  0.00000000000E+00  0.20468372776E+04  0.20468372776E+04  0.25500000000E-02 0. -1.
         -2   -1    0    0    0  501 -0.00000000000E+00 -0.00000000000E+00 -0.12447509361E+04  0.12447509361E+04  0.25500000000E-02 0.  1.
    8880023    1    1    2    0    0  0.44258422381E+03 -0.30711224292E+03 -0.10530037471E+04  0.13538189770E+04  0.65864270000E+03 0.  1.
    8880022    1    1    2    0    0 -0.44258422381E+03  0.30711224292E+03  0.18550900886E+04  0.19377692367E+04  0.15294330000E+03 0.  0.
<mgrwt>
<rscale>  0 0.76638909E+03</rscale>
<asrwt>0</asrwt>
<pdfrwt beam="1">  1        2 0.31489804E+00 0.85088714E+03</pdfrwt>
<pdfrwt beam="2">  1       -2 0.19150014E+00 0.85088714E+03</pdfrwt>
<totfact> 0.97542814E-01</totfact>
</mgrwt>
</event>
<event>
 4    2  0.3855935E-007  0.7730818E+03  0.7818608E-02  0.9772346E-01
         -2   -1    0    0    0  501 -0.00000000000E+00  0.00000000000E+00  0.17134366290E+03  0.17134366292E+03  0.25500000000E-02 0.  1.
          2   -1    0    0  501    0  0.00000000000E+00 -0.00000000000E+00 -0.22697565070E+04  0.22697565070E+04  0.25500000000E-02 0. -1.
    8880023    1    1    2    0    0 -0.40157658360E+03  0.50807809220E+02 -0.16262518618E+04  0.18006528011E+04  0.65864270000E+03 0. -1.
    8880022    1    1    2    0    0  0.40157658360E+03 -0.50807809220E+02 -0.47216098234E+03  0.64044736883E+03  0.15294330000E+03 0.  1.
<mgrwt>
<rscale>  0 0.66867945E+03</rscale>
<asrwt>0</asrwt>
<pdfrwt beam="1">  1        2 0.34919329E+00 0.77308175E+03</pdfrwt>
<pdfrwt beam="2">  1       -2 0.26360565E-01 0.77308175E+03</pdfrwt>
<totfact> 0.63306494E+01</totfact>
</mgrwt>
</event>
<event>
 4    2  0.3855935E-007  0.8212569E+03  0.7818608E-02  0.9666589E-01
          2   -1    0    0  501    0  0.00000000000E+00  0.00000000000E+00  0.34603202439E+04  0.34603202439E+04  0.25500000000E-02 0. -1.
         -2   -1    0    0    0  501 -0.00000000000E+00 -0.00000000000E+00 -0.17143022522E+03  0.17143022524E+03  0.25500000000E-02 0.  1.
    8880023    1    1    2    0    0  0.15103795888E+03  0.46673365671E+03  0.10413876889E+04  0.13262546121E+04  0.65864270000E+03 0.  1.
    8880022    1    1    2    0    0 -0.15103795888E+03 -0.46673365671E+03  0.22475023299E+04  0.23054958571E+04  0.15294330000E+03 0. -1.
<mgrwt>
<rscale>  0 0.73041371E+03</rscale>
<asrwt>0</asrwt>
<pdfrwt beam="1">  1        2 0.53235695E+00 0.82125695E+03</pdfrwt>
<pdfrwt beam="2">  1       -2 0.26373881E-01 0.82125695E+03</pdfrwt>
<totfact> 0.11986620E+01</totfact>
</mgrwt>
</event>
<event>
 4    2  0.3855935E-007  0.7335636E+03  0.7818608E-02  0.9879109E-01
         -2   -1    0    0    0  501 -0.00000000000E+00  0.00000000000E+00  0.31128495759E+03  0.31128495760E+03  0.25500000000E-02 0.  1.
          2   -1    0    0  501    0  0.00000000000E+00 -0.00000000000E+00 -0.96123443889E+03  0.96123443889E+03  0.25500000000E-02 0. -1.
    8880023    1    1    2    0    0  0.30783739410E+03 -0.97680443497E+02 -0.48139570179E+03  0.87741515728E+03  0.65864270000E+03 0.  0.
    8880022    1    1    2    0    0 -0.30783739410E+03  0.97680443497E+02 -0.16855377950E+03  0.39510423922E+03  0.15294330000E+03 0. -1.
<mgrwt>
<rscale>  0 0.61284536E+03</rscale>
<asrwt>0</asrwt>
<pdfrwt beam="1">  1        2 0.14788222E+00 0.73356359E+03</pdfrwt>
<pdfrwt beam="2">  1       -2 0.47889994E-01 0.73356359E+03</pdfrwt>
<totfact> 0.11181635E+02</totfact>
</mgrwt>
</event>
<event>
 4    2  0.3855935E-007  0.6778838E+03  0.7818608E-02  0.1010547E+00
          2   -1    0    0  501    0  0.00000000000E+00  0.00000000000E+00  0.91107099849E+03  0.91107099850E+03  0.25500000000E-02 0. -1.
         -2   -1    0    0    0  501 -0.00000000000E+00 -0.00000000000E+00 -0.74559228212E+03  0.74559228213E+03  0.25500000000E-02 0.  1.
    8880023    1    1    2    0    0  0.89480868187E+02  0.13307669691E+03 -0.57177695215E+03  0.88682316293E+03  0.65864270000E+03 0.  1.
    8880022    1    1    2    0    0 -0.89480868187E+02 -0.13307669691E+03  0.73725566852E+03  0.76984011770E+03  0.15294330000E+03 0.  0.
<mgrwt>
<rscale>  0 0.51257845E+03</rscale>
<asrwt>0</asrwt>
<pdfrwt beam="1">  1        2 0.14016477E+00 0.67788379E+03</pdfrwt>
<pdfrwt beam="2">  1       -2 0.11470651E+00 0.67788379E+03</pdfrwt>
<totfact> 0.17507719E+01</totfact>
</mgrwt>
</event>
<event>
 4    2  0.3855935E-007  0.6937209E+03  0.7818608E-02  0.1002432E+00
          2   -1    0    0  501    0  0.00000000000E+00  0.00000000000E+00  0.65177091500E+03  0.65177091501E+03  0.25500000000E-02 0. -1.
         -2   -1    0    0    0  501 -0.00000000000E+00 -0.00000000000E+00 -0.48848381045E+03  0.48848381046E+03  0.25500000000E-02 0.  1.
    8880023    1    1    2    0    0  0.21243178676E+03 -0.48074899865E+02 -0.16950754376E+03  0.71412987172E+03  0.65864270000E+03 0.  0.
    8880022    1    1    2    0    0 -0.21243178676E+03  0.48074899865E+02  0.33279464831E+03  0.42612485375E+03  0.15294330000E+03 0.  1.
<mgrwt>
<rscale>  0 0.54596628E+03</rscale>
<asrwt>0</asrwt>
<pdfrwt beam="1">  1        2 0.10027245E+00 0.69372089E+03</pdfrwt>
<pdfrwt beam="2">  1       -2 0.75151356E-01 0.69372089E+03</pdfrwt>
<totfact> 0.72382865E+01</totfact>
</mgrwt>
</event>
<event>
 4    2  0.3855935E-007  0.6835192E+03  0.7818608E-02  0.1007399E+00
         -2   -1    0    0    0  501 -0.00000000000E+00  0.00000000000E+00  0.15955411406E+03  0.15955411408E+03  0.25500000000E-02 0.  1.
          2   -1    0    0  501    0  0.00000000000E+00 -0.00000000000E+00 -0.14208746580E+04  0.14208746580E+04  0.25500000000E-02 0. -1.
    8880023    1    1    2    0    0  0.18260747740E+03 -0.65393834410E+01 -0.10913748140E+04  0.12877489838E+04  0.65864270000E+03 0.  1.
    8880022    1    1    2    0    0 -0.18260747740E+03  0.65393834410E+01 -0.16994572994E+03  0.29267978829E+03  0.15294330000E+03 0. -1.
<mgrwt>
<rscale>  0 0.52521529E+03</rscale>
<asrwt>0</asrwt>
<pdfrwt beam="1">  1        2 0.21859609E+00 0.68351917E+03</pdfrwt>
<pdfrwt beam="2">  1       -2 0.24546788E-01 0.68351917E+03</pdfrwt>
<totfact> 0.21244910E+02</totfact>
</mgrwt>
</event>
<event>
 4    2  0.3855935E-007  0.1318714E+04  0.7818608E-02  0.9049565E-01
          2   -1    0    0  501    0  0.00000000000E+00  0.00000000000E+00  0.74695164520E+03  0.74695164520E+03  0.25500000000E-02 0. -1.
         -2   -1    0    0    0  501 -0.00000000000E+00 -0.00000000000E+00 -0.24224420079E+04  0.24224420079E+04  0.25500000000E-02 0.  1.
    8880023    1    1    2    0    0 -0.11395154687E+04  0.81860131953E+02 -0.26023865742E+03  0.13441469227E+04  0.65864270000E+03 0.  0.
    8880022    1    1    2    0    0  0.11395154687E+04 -0.81860131953E+02 -0.14152517053E+04  0.18252467305E+04  0.15294330000E+03 0.  0.
<mgrwt>
<rscale>  0 0.12750781E+04</rscale>
<asrwt>0</asrwt>
<pdfrwt beam="1">  1        2 0.11491564E+00 0.13187141E+04</pdfrwt>
<pdfrwt beam="2">  1       -2 0.37268338E+00 0.13187141E+04</pdfrwt>
<totfact> 0.40971485E-01</totfact>
</mgrwt>
</event>
<event>
 4    2  0.3855935E-007  0.7299625E+03  0.7818608E-02  0.9890214E-01
         -2   -1    0    0    0  501 -0.00000000000E+00  0.00000000000E+00  0.29494675838E+03  0.29494675839E+03  0.25500000000E-02 0.  1.
          2   -1    0    0  501    0  0.00000000000E+00 -0.00000000000E+00 -0.28807213416E+04  0.28807213416E+04  0.25500000000E-02 0. -1.
    8880023    1    1    2    0    0 -0.13674175375E+03  0.28343728662E+03 -0.18973809799E+03  0.75421863857E+03  0.65864270000E+03 0.  1.
    8880022    1    1    2    0    0  0.13674175375E+03 -0.28343728662E+03 -0.23960364852E+04  0.24214494614E+04  0.15294330000E+03 0.  0.
<mgrwt>
<rscale>  0 0.60737918E+03</rscale>
<asrwt>0</asrwt>
<pdfrwt beam="1">  1        2 0.44318788E+00 0.72996247E+03</pdfrwt>
<pdfrwt beam="2">  1       -2 0.45376426E-01 0.72996247E+03</pdfrwt>
<totfact> 0.10111265E+01</totfact>
</mgrwt>
</event>
<event>
 4    2  0.3855935E-007  0.9445193E+03  0.7818608E-02  0.9458044E-01
         -2   -1    0    0    0  501 -0.00000000000E+00  0.00000000000E+00  0.41216276263E+03  0.41216276263E+03  0.25500000000E-02 0.  1.
          2   -1    0    0  501    0  0.00000000000E+00 -0.00000000000E+00 -0.18770628062E+04  0.18770628062E+04  0.25500000000E-02 0. -1.
    8880023    1    1    2    0    0  0.41056118842E+03 -0.53828054926E+03 -0.41734429875E+03  0.10326145985E+04  0.65864270000E+03 0.  0.
    8880022    1    1    2    0    0 -0.41056118842E+03  0.53828054926E+03 -0.10475557448E+04  0.12566109703E+04  0.15294330000E+03 0.  0.
<mgrwt>
<rscale>  0 0.87449027E+03</rscale>
<asrwt>0</asrwt>
<pdfrwt beam="1">  1        2 0.28877889E+00 0.94451927E+03</pdfrwt>
<pdfrwt beam="2">  1       -2 0.63409657E-01 0.94451927E+03</pdfrwt>
<totfact> 0.18141803E+01</totfact>
</mgrwt>
</event>
<event>
 4    2  0.3855935E-007  0.1178385E+04  0.7818608E-02  0.9178425E-01
          2   -1    0    0  501    0  0.00000000000E+00  0.00000000000E+00  0.33062123873E+04  0.33062123873E+04  0.25500000000E-02 0. -1.
         -2   -1    0    0    0  501 -0.00000000000E+00 -0.00000000000E+00 -0.41129214336E+03  0.41129214337E+03  0.25500000000E-02 0.  1.
    8880023    1    1    2    0    0  0.91608347512E+03  0.33995922046E+03  0.87260690933E+03  0.14662995020E+04  0.65864270000E+03 0.  0.
    8880022    1    1    2    0    0 -0.91608347512E+03 -0.33995922046E+03  0.20223133346E+04  0.22512050287E+04  0.15294330000E+03 0.  0.
<mgrwt>
<rscale>  0 0.11278916E+04</rscale>
<asrwt>0</asrwt>
<pdfrwt beam="1">  1        2 0.50864805E+00 0.11783851E+04</pdfrwt>
<pdfrwt beam="2">  1       -2 0.63275715E-01 0.11783851E+04</pdfrwt>
<totfact> 0.25636088E+00</totfact>
</mgrwt>
</event>
<event>
 4    2  0.3855935E-007  0.9660451E+03  0.7818608E-02  0.9427395E-01
          2   -1    0    0  501    0  0.00000000000E+00  0.00000000000E+00  0.94983386086E+03  0.94983386086E+03  0.25500000000E-02 0. -1.
         -2   -1    0    0    0  501 -0.00000000000E+00 -0.00000000000E+00 -0.11291422623E+04  0.11291422623E+04  0.25500000000E-02 0.  1.
    8880023    1    1    2    0    0  0.52168244182E+03 -0.47673933331E+03 -0.69567160502E+03  0.11904629983E+04  0.65864270000E+03 0.  1.
    8880022    1    1    2    0    0 -0.52168244182E+03  0.47673933331E+03  0.51636320359E+03  0.88851312486E+03  0.15294330000E+03 0.  0.
<mgrwt>
<rscale>  0 0.89855065E+03</rscale>
<asrwt>0</asrwt>
<pdfrwt beam="1">  1        2 0.14612829E+00 0.96604512E+03</pdfrwt>
<pdfrwt beam="2">  1       -2 0.17371420E+00 0.96604512E+03</pdfrwt>
<totfact> 0.54192910E+00</totfact>
</mgrwt>
</event>
<event>
 4    2  0.3855935E-007  0.7432418E+03  0.7818608E-02  0.9850602E-01
          2   -1    0    0  501    0  0.00000000000E+00  0.00000000000E+00  0.25150484552E+04  0.25150484552E+04  0.25500000000E-02 0. -1.
         -2   -1    0    0    0  501 -0.00000000000E+00 -0.00000000000E+00 -0.14298455707E+03  0.14298455709E+03  0.25500000000E-02 0.  1.
    8880023    1    1    2    0    0  0.64824460080E+02 -0.33822481117E+03  0.10719248619E+04  0.13043892629E+04  0.65864270000E+03 0.  0.
    8880022    1    1    2    0    0 -0.64824460080E+02  0.33822481117E+03  0.13001390362E+04  0.13536437493E+04  0.15294330000E+03 0.  0.
<mgrwt>
<rscale>  0 0.62716208E+03</rscale>
<asrwt>0</asrwt>
<pdfrwt beam="1">  1        2 0.38693052E+00 0.74324184E+03</pdfrwt>
<pdfrwt beam="2">  1       -2 0.21997625E-01 0.74324184E+03</pdfrwt>
<totfact> 0.64054930E+01</totfact>
</mgrwt>
</event>
<event>
 4    2  0.3855935E-007  0.8976778E+03  0.7818608E-02  0.9529770E-01
         -2   -1    0    0    0  501 -0.00000000000E+00  0.00000000000E+00  0.11899878403E+04  0.11899878403E+04  0.25500000000E-02 0.  1.
          2   -1    0    0  501    0  0.00000000000E+00 -0.00000000000E+00 -0.78299054692E+03  0.78299054692E+03  0.25500000000E-02 0. -1.
    8880023    1    1    2    0    0  0.46330611450E+03 -0.39668958981E+03  0.82394764714E+03  0.12184888665E+04  0.65864270000E+03 0.  0.
    8880022    1    1    2    0    0 -0.46330611450E+03  0.39668958981E+03 -0.41695035372E+03  0.75448952072E+03  0.15294330000E+03 0.  0.
<mgrwt>
<rscale>  0 0.82124148E+03</rscale>
<asrwt>0</asrwt>
<pdfrwt beam="1">  1        2 0.12046008E+00 0.89767778E+03</pdfrwt>
<pdfrwt beam="2">  1       -2 0.18307505E+00 0.89767778E+03</pdfrwt>
<totfact> 0.61349526E+00</totfact>
</mgrwt>
</event>
<event>
 4    2  0.3855935E-007  0.8777141E+03  0.7818608E-02  0.9562799E-01
         -2   -1    0    0    0  501 -0.00000000000E+00  0.00000000000E+00  0.48329252731E+03  0.48329252731E+03  0.25500000000E-02 0.  1.
          2   -1    0    0  501    0  0.00000000000E+00 -0.00000000000E+00 -0.17562237538E+04  0.17562237538E+04  0.25500000000E-02 0. -1.
    8880023    1    1    2    0    0  0.10002391808E+03  0.57146049909E+03 -0.13746705025E+04  0.16309816317E+04  0.65864270000E+03 0.  0.
    8880022    1    1    2    0    0 -0.10002391808E+03 -0.57146049909E+03  0.10173927604E+03  0.60853464939E+03  0.15294330000E+03 0.  0.
<mgrwt>
<rscale>  0 0.79808129E+03</rscale>
<asrwt>0</asrwt>
<pdfrwt beam="1">  1        2 0.27018827E+00 0.87771413E+03</pdfrwt>
<pdfrwt beam="2">  1       -2 0.74352698E-01 0.87771413E+03</pdfrwt>
<totfact> 0.15047663E+01</totfact>
</mgrwt>
</event>
<event>
 4    2  0.3855935E-007  0.7318156E+03  0.7818608E-02  0.9884463E-01
         -2   -1    0    0    0  501 -0.00000000000E+00  0.00000000000E+00  0.33083330974E+03  0.33083330975E+03  0.25500000000E-02 0.  1.
          2   -1    0    0  501    0  0.00000000000E+00 -0.00000000000E+00 -0.98909505563E+03  0.98909505563E+03  0.25500000000E-02 0. -1.
    8880023    1    1    2    0    0  0.27114242635E+03  0.16800478444E+03 -0.23568208461E+03  0.76883032864E+03  0.65864270000E+03 0.  0.
    8880022    1    1    2    0    0 -0.27114242635E+03 -0.16800478444E+03 -0.42257966128E+03  0.55109803675E+03  0.15294330000E+03 0.  1.
<mgrwt>
<rscale>  0 0.61020223E+03</rscale>
<asrwt>0</asrwt>
<pdfrwt beam="1">  1        2 0.15216847E+00 0.73181557E+03</pdfrwt>
<pdfrwt beam="2">  1       -2 0.50897433E-01 0.73181557E+03</pdfrwt>
<totfact> 0.94817998E+01</totfact>
</mgrwt>
</event>
<event>
 4    2  0.3855935E-007  0.7628522E+03  0.7818608E-02  0.9797779E-01
          2   -1    0    0  501    0  0.00000000000E+00  0.00000000000E+00  0.10820128951E+04  0.10820128951E+04  0.25500000000E-02 0. -1.
         -2   -1    0    0    0  501 -0.00000000000E+00 -0.00000000000E+00 -0.46209850682E+03  0.46209850683E+03  0.25500000000E-02 0.  1.
    8880023    1    1    2    0    0  0.34452324446E+03  0.17157221571E+03 -0.41223355164E+02  0.76396522333E+03  0.65864270000E+03 0.  1.
    8880022    1    1    2    0    0 -0.34452324446E+03 -0.17157221571E+03  0.66113774348E+03  0.78014617864E+03  0.15294330000E+03 0.  0.
<mgrwt>
<rscale>  0 0.65481892E+03</rscale>
<asrwt>0</asrwt>
<pdfrwt beam="1">  1        2 0.16646352E+00 0.76285221E+03</pdfrwt>
<pdfrwt beam="2">  1       -2 0.71092079E-01 0.76285221E+03</pdfrwt>
<totfact> 0.40789555E+01</totfact>
</mgrwt>
</event>
<event>
 4    2  0.3855935E-007  0.8628210E+03  0.7818608E-02  0.9588565E-01
         -2   -1    0    0    0  501 -0.00000000000E+00  0.00000000000E+00  0.38090094210E+03  0.38090094211E+03  0.25500000000E-02 0.  1.
          2   -1    0    0  501    0  0.00000000000E+00 -0.00000000000E+00 -0.23646377734E+04  0.23646377734E+04  0.25500000000E-02 0. -1.
    8880023    1    1    2    0    0  0.46587099089E+03  0.30596430270E+03 -0.22129246613E+03  0.89074715633E+03  0.65864270000E+03 0.  1.
    8880022    1    1    2    0    0 -0.46587099089E+03 -0.30596430270E+03 -0.17624443652E+04  0.18547915592E+04  0.15294330000E+03 0.  0.
<mgrwt>
<rscale>  0 0.78057675E+03</rscale>
<asrwt>0</asrwt>
<pdfrwt beam="1">  1        2 0.36379042E+00 0.86282104E+03</pdfrwt>
<pdfrwt beam="2">  1       -2 0.58600146E-01 0.86282104E+03</pdfrwt>
<totfact> 0.11645808E+01</totfact>
</mgrwt>
</event>
<event>
 4    2  0.3855935E-007  0.1011915E+04  0.7818608E-02  0.9366132E-01
         -2   -1    0    0    0  501 -0.00000000000E+00  0.00000000000E+00  0.47097610003E+03  0.47097610003E+03  0.25500000000E-02 0.  1.
          2   -1    0    0  501    0  0.00000000000E+00 -0.00000000000E+00 -0.26454505957E+04  0.26454505957E+04  0.25500000000E-02 0. -1.
    8880023    1    1    2    0    0  0.33695943585E+03 -0.69037715919E+03 -0.25539657581E+03  0.10436474024E+04  0.65864270000E+03 0.  0.
    8880022    1    1    2    0    0 -0.33695943585E+03  0.69037715919E+03 -0.19190779198E+04  0.20727792933E+04  0.15294330000E+03 0.  0.
<mgrwt>
<rscale>  0 0.94916060E+03</rscale>
<asrwt>0</asrwt>
<pdfrwt beam="1">  1        2 0.40699239E+00 0.10119153E+04</pdfrwt>
<pdfrwt beam="2">  1       -2 0.72457863E-01 0.10119153E+04</pdfrwt>
<totfact> 0.49906355E+00</totfact>
</mgrwt>
</event>
<event>
 4    2  0.3855935E-007  0.7488936E+03  0.7818608E-02  0.9834759E-01
         -2   -1    0    0    0  501 -0.00000000000E+00  0.00000000000E+00  0.79635094906E+03  0.79635094906E+03  0.25500000000E-02 0.  1.
          2   -1    0    0  501    0  0.00000000000E+00 -0.00000000000E+00 -0.20084338456E+04  0.20084338456E+04  0.25500000000E-02 0. -1.
    8880023    1    1    2    0    0  0.30292634816E+03 -0.18779522362E+03  0.59503965881E+03  0.95651127554E+03  0.65864270000E+03 0.  0.
    8880022    1    1    2    0    0 -0.30292634816E+03  0.18779522362E+03 -0.18071225553E+04  0.18482735191E+04  0.15294330000E+03 0. -1.
<mgrwt>
<rscale>  0 0.63530079E+03</rscale>
<asrwt>0</asrwt>
<pdfrwt beam="1">  1        2 0.30898982E+00 0.74889360E+03</pdfrwt>
<pdfrwt beam="2">  1       -2 0.12251553E+00 0.74889360E+03</pdfrwt>
<totfact> 0.34557417E+00</totfact>
</mgrwt>
</event>
<event>
 4    2  0.3855935E-007  0.7557109E+03  0.7818608E-02  0.9816341E-01
         -2   -1    0    0    0  501 -0.00000000000E+00  0.00000000000E+00  0.27902173689E+03  0.27902173690E+03  0.25500000000E-02 0.  1.
          2   -1    0    0  501    0  0.00000000000E+00 -0.00000000000E+00 -0.18266458746E+04  0.18266458746E+04  0.25500000000E-02 0. -1.
    8880023    1    1    2    0    0  0.36346353365E+03 -0.71993058856E+02 -0.33156919940E+03  0.82524970831E+03  0.65864270000E+03 0.  0.
    8880022    1    1    2    0    0 -0.36346353365E+03  0.71993058856E+02 -0.12160549383E+04  0.12804179032E+04  0.15294330000E+03 0.  0.
<mgrwt>
<rscale>  0 0.64492932E+03</rscale>
<asrwt>0</asrwt>
<pdfrwt beam="1">  1        2 0.28102243E+00 0.75571089E+03</pdfrwt>
<pdfrwt beam="2">  1       -2 0.42926422E-01 0.75571089E+03</pdfrwt>
<totfact> 0.44060018E+01</totfact>
</mgrwt>
</event>
<event>
 4    2  0.3855935E-007  0.6760936E+03  0.7818608E-02  0.1011626E+00
         -2   -1    0    0    0  501 -0.00000000000E+00  0.00000000000E+00  0.55220724559E+03  0.55220724559E+03  0.25500000000E-02 0.  1.
          2   -1    0    0  501    0  0.00000000000E+00 -0.00000000000E+00 -0.12734583187E+04  0.12734583187E+04  0.25500000000E-02 0. -1.
    8880023    1    1    2    0    0 -0.11522620743E+03 -0.10007633077E+03  0.33007666058E+03  0.75236504370E+03  0.65864270000E+03 0.  1.
    8880022    1    1    2    0    0  0.11522620743E+03  0.10007633077E+03 -0.10513277337E+04  0.10733005206E+04  0.15294330000E+03 0.  0.
<mgrwt>
<rscale>  0 0.50833631E+03</rscale>
<asrwt>0</asrwt>
<pdfrwt beam="1">  1        2 0.19591666E+00 0.67609360E+03</pdfrwt>
<pdfrwt beam="2">  1       -2 0.84954962E-01 0.67609360E+03</pdfrwt>
<totfact> 0.21273289E+01</totfact>
</mgrwt>
</event>
<event>
 4    2  0.3855935E-007  0.1034849E+04  0.7818608E-02  0.9337321E-01
          2   -1    0    0  501    0  0.00000000000E+00  0.00000000000E+00  0.14716086693E+04  0.14716086693E+04  0.25500000000E-02 0. -1.
         -2   -1    0    0    0  501 -0.00000000000E+00 -0.00000000000E+00 -0.62326898216E+03  0.62326898216E+03  0.25500000000E-02 0.  1.
    8880023    1    1    2    0    0 -0.79081168206E+03 -0.10825255813E+03  0.19714204013E+03  0.10534595023E+04  0.65864270000E+03 0.  0.
    8880022    1    1    2    0    0  0.79081168206E+03  0.10825255813E+03  0.65119764701E+03  0.10414181491E+04  0.15294330000E+03 0.  0.
<mgrwt>
<rscale>  0 0.97418451E+03</rscale>
<asrwt>0</asrwt>
<pdfrwt beam="1">  1        2 0.22640133E+00 0.10348488E+04</pdfrwt>
<pdfrwt beam="2">  1       -2 0.95887536E-01 0.10348488E+04</pdfrwt>
<totfact> 0.11919961E+01</totfact>
</mgrwt>
</event>
<event>
 4    2  0.3855935E-007  0.6717864E+03  0.7818608E-02  0.1014413E+00
         -2   -1    0    0    0  501 -0.00000000000E+00  0.00000000000E+00  0.46098071865E+03  0.46098071866E+03  0.25500000000E-02 0.  1.
          2   -1    0    0  501    0  0.00000000000E+00 -0.00000000000E+00 -0.12460134065E+04  0.12460134065E+04  0.25500000000E-02 0. -1.
    8880023    1    1    2    0    0  0.49890581841E+00  0.13223646286E+03  0.20039517400E+03  0.70103863164E+03  0.65864270000E+03 0.  1.
    8880022    1    1    2    0    0 -0.49890581841E+00 -0.13223646286E+03 -0.98542786185E+03  0.10059554935E+04  0.15294330000E+03 0.  0.
<mgrwt>
<rscale>  0 0.49757679E+03</rscale>
<asrwt>0</asrwt>
<pdfrwt beam="1">  1        2 0.19169437E+00 0.67178638E+03</pdfrwt>
<pdfrwt beam="2">  1       -2 0.70920111E-01 0.67178638E+03</pdfrwt>
<totfact> 0.33026393E+01</totfact>
</mgrwt>
</event>
<event>
 4    2  0.3855935E-007  0.6668656E+03  0.7818608E-02  0.1018017E+00
         -2   -1    0    0    0  501 -0.00000000000E+00  0.00000000000E+00  0.35799745759E+03  0.35799745760E+03  0.25500000000E-02 0.  1.
          2   -1    0    0  501    0  0.00000000000E+00 -0.00000000000E+00 -0.54101644391E+03  0.54101644391E+03  0.25500000000E-02 0. -1.
    8880023    1    1    2    0    0  0.58913916428E+02  0.86189916590E+02 -0.45612133850E+02  0.66842368621E+03  0.65864270000E+03 0.  1.
    8880022    1    1    2    0    0 -0.58913916428E+02 -0.86189916590E+02 -0.13740685247E+03  0.23059021530E+03  0.15294330000E+03 0.  0.
<mgrwt>
<rscale>  0 0.48409053E+03</rscale>
<asrwt>0</asrwt>
<pdfrwt beam="1">  1        2 0.83233300E-01 0.66686562E+03</pdfrwt>
<pdfrwt beam="2">  1       -2 0.55076532E-01 0.66686562E+03</pdfrwt>
<totfact> 0.17642552E+02</totfact>
</mgrwt>
</event>
<event>
 4    2  0.3855935E-007  0.7586372E+03  0.7818608E-02  0.9808648E-01
         -2   -1    0    0    0  501 -0.00000000000E+00  0.00000000000E+00  0.29083736263E+03  0.29083736264E+03  0.25500000000E-02 0.  1.
          2   -1    0    0  501    0  0.00000000000E+00 -0.00000000000E+00 -0.19697524632E+04  0.19697524632E+04  0.25500000000E-02 0. -1.
    8880023    1    1    2    0    0 -0.33789340672E+02  0.37493797186E+03 -0.28788141264E+03  0.81142227988E+03  0.65864270000E+03 0.  1.
    8880022    1    1    2    0    0  0.33789340672E+02 -0.37493797186E+03 -0.13910336879E+04  0.14491675460E+04  0.15294330000E+03 0.  0.
<mgrwt>
<rscale>  0 0.64900476E+03</rscale>
<asrwt>0</asrwt>
<pdfrwt beam="1">  1        2 0.30303883E+00 0.75863720E+03</pdfrwt>
<pdfrwt beam="2">  1       -2 0.44744211E-01 0.75863720E+03</pdfrwt>
<totfact> 0.33894425E+01</totfact>
</mgrwt>
</event>
<event>
 4    2  0.3855935E-007  0.1095329E+04  0.7818608E-02  0.9266275E-01
          2   -1    0    0  501    0  0.00000000000E+00  0.00000000000E+00  0.12817235645E+04  0.12817235645E+04  0.25500000000E-02 0. -1.
         -2   -1    0    0    0  501 -0.00000000000E+00 -0.00000000000E+00 -0.88657713355E+03  0.88657713356E+03  0.25500000000E-02 0.  1.
    8880023    1    1    2    0    0  0.38946494808E+03  0.78374228625E+03 -0.17989108701E+03  0.11100026696E+04  0.65864270000E+03 0.  1.
    8880022    1    1    2    0    0 -0.38946494808E+03 -0.78374228625E+03  0.57503751797E+03  0.10582980285E+04  0.15294330000E+03 0. -1.
<mgrwt>
<rscale>  0 0.10394784E+04</rscale>
<asrwt>0</asrwt>
<pdfrwt beam="1">  1        2 0.19718824E+00 0.10953288E+04</pdfrwt>
<pdfrwt beam="2">  1       -2 0.13639648E+00 0.10953288E+04</pdfrwt>
<totfact> 0.63990295E+00</totfact>
</mgrwt>
</event>
<event>
 4    2  0.3855935E-007  0.9158712E+03  0.7818608E-02  0.9501019E-01
         -2   -1    0    0    0  501 -0.00000000000E+00  0.00000000000E+00  0.42388225892E+03  0.42388225893E+03  0.25500000000E-02 0.  1.
          2   -1    0    0  501    0  0.00000000000E+00 -0.00000000000E+00 -0.14686614915E+04  0.14686614915E+04  0.25500000000E-02 0. -1.
    8880023    1    1    2    0    0 -0.10901368680E+03 -0.62699744144E+03 -0.51683846375E+03  0.10516377605E+04  0.65864270000E+03 0.  0.
    8880022    1    1    2    0    0  0.10901368680E+03  0.62699744144E+03 -0.52794076886E+03  0.84090598994E+03  0.15294330000E+03 0.  0.
<mgrwt>
<rscale>  0 0.84208737E+03</rscale>
<asrwt>0</asrwt>
<pdfrwt beam="1">  1        2 0.22594792E+00 0.91587116E+03</pdfrwt>
<pdfrwt beam="2">  1       -2 0.65212656E-01 0.91587116E+03</pdfrwt>
<totfact> 0.28824848E+01</totfact>
</mgrwt>
</event>
<event>
 4    2  0.3855935E-007  0.7272967E+03  0.7818608E-02  0.9898628E-01
          2   -1    0    0  501    0  0.00000000000E+00  0.00000000000E+00  0.49150482006E+03  0.49150482007E+03  0.25500000000E-02 0. -1.
         -2   -1    0    0    0  501 -0.00000000000E+00 -0.00000000000E+00 -0.61201699166E+03  0.61201699167E+03  0.25500000000E-02 0.  1.
    8880023    1    1    2    0    0 -0.13940171533E+03  0.27516805094E+03  0.29651493021E+02  0.72790089421E+03  0.65864270000E+03 0. -1.
    8880022    1    1    2    0    0  0.13940171533E+03 -0.27516805094E+03 -0.15016366462E+03  0.37562091752E+03  0.15294330000E+03 0.  1.
<mgrwt>
<rscale>  0 0.60327833E+03</rscale>
<asrwt>0</asrwt>
<pdfrwt beam="1">  1        2 0.75616127E-01 0.72729671E+03</pdfrwt>
<pdfrwt beam="2">  1       -2 0.94156460E-01 0.72729671E+03</pdfrwt>
<totfact> 0.60556573E+01</totfact>
</mgrwt>
</event>
<event>
 4    2  0.3855935E-007  0.6611528E+03  0.7818608E-02  0.1023005E+00
          2   -1    0    0  501    0  0.00000000000E+00  0.00000000000E+00  0.11341596923E+04  0.11341596923E+04  0.25500000000E-02 0. -1.
         -2   -1    0    0    0  501 -0.00000000000E+00 -0.00000000000E+00 -0.10718604680E+04  0.10718604680E+04  0.25500000000E-02 0.  1.
    8880023    1    1    2    0    0 -0.30493176670E+02 -0.48816456290E+02 -0.96281513961E+03  0.11679623622E+04  0.65864270000E+03 0.  1.
    8880022    1    1    2    0    0  0.30493176670E+02  0.48816456290E+02  0.10251143639E+04  0.10380577982E+04  0.15294330000E+03 0.  0.
<mgrwt>
<rscale>  0 0.46617559E+03</rscale>
<asrwt>0</asrwt>
<pdfrwt beam="1">  1        2 0.17448611E+00 0.66115285E+03</pdfrwt>
<pdfrwt beam="2">  1       -2 0.16490161E+00 0.66115285E+03</pdfrwt>
<totfact> 0.49839314E+00</totfact>
</mgrwt>
</event>
<event>
 4    2  0.3855935E-007  0.6984628E+03  0.7818608E-02  0.1000364E+00
         -2   -1    0    0    0  501 -0.00000000000E+00  0.00000000000E+00  0.24484816804E+03  0.24484816805E+03  0.25500000000E-02 0.  1.
          2   -1    0    0  501    0  0.00000000000E+00 -0.00000000000E+00 -0.17189873206E+04  0.17189873206E+04  0.25500000000E-02 0. -1.
    8880023    1    1    2    0    0  0.22835720766E+03 -0.43509700876E+02 -0.30519937382E+03  0.76223157400E+03  0.65864270000E+03 0.  1.
    8880022    1    1    2    0    0 -0.22835720766E+03  0.43509700876E+02 -0.11689397788E+04  0.12016039147E+04  0.15294330000E+03 0.  0.
<mgrwt>
<rscale>  0 0.55490976E+03</rscale>
<asrwt>0</asrwt>
<pdfrwt beam="1">  1        2 0.26445958E+00 0.69846282E+03</pdfrwt>
<pdfrwt beam="2">  1       -2 0.37668950E-01 0.69846282E+03</pdfrwt>
<totfact> 0.65513743E+01</totfact>
</mgrwt>
</event>
<event>
 4    2  0.3855935E-007  0.8521787E+03  0.7818608E-02  0.9607630E-01
          2   -1    0    0  501    0  0.00000000000E+00  0.00000000000E+00  0.30629468761E+04  0.30629468761E+04  0.25500000000E-02 0. -1.
         -2   -1    0    0    0  501 -0.00000000000E+00 -0.00000000000E+00 -0.58793398382E+03  0.58793398382E+03  0.25500000000E-02 0.  1.
    8880023    1    1    2    0    0 -0.54073174393E+03  0.27459466509E+01 -0.23438160481E+03  0.88382311695E+03  0.65864270000E+03 0.  1.
    8880022    1    1    2    0    0  0.54073174393E+03 -0.27459466509E+01  0.27093944971E+04  0.27670577430E+04  0.15294330000E+03 0.  0.
<mgrwt>
<rscale>  0 0.76793208E+03</rscale>
<asrwt>0</asrwt>
<pdfrwt beam="1">  1        2 0.47122259E+00 0.85217872E+03</pdfrwt>
<pdfrwt beam="2">  1       -2 0.90451384E-01 0.85217872E+03</pdfrwt>
<totfact> 0.17399677E+00</totfact>
</mgrwt>
</event>
<event>
 4    2  0.3855935E-007  0.7358686E+03  0.7818608E-02  0.9872149E-01
          2   -1    0    0  501    0  0.00000000000E+00  0.00000000000E+00  0.22900430360E+04  0.22900430360E+04  0.25500000000E-02 0. -1.
         -2   -1    0    0    0  501 -0.00000000000E+00 -0.00000000000E+00 -0.13789100078E+03  0.13789100081E+03  0.25500000000E-02 0.  1.
    8880023    1    1    2    0    0 -0.26656172136E+03  0.19140838636E+03  0.11810997036E+04  0.13915814880E+04  0.65864270000E+03 0.  0.
    8880022    1    1    2    0    0  0.26656172136E+03 -0.19140838636E+03  0.97105233158E+03  0.10363525488E+04  0.15294330000E+03 0. -1.
<mgrwt>
<rscale>  0 0.61630243E+03</rscale>
<asrwt>0</asrwt>
<pdfrwt beam="1">  1        2 0.35231431E+00 0.73586855E+03</pdfrwt>
<pdfrwt beam="2">  1       -2 0.21214001E-01 0.73586855E+03</pdfrwt>
<totfact> 0.91408931E+01</totfact>
</mgrwt>
</event>
<event>
 4    2  0.3855935E-007  0.1140293E+04  0.7818608E-02  0.9217467E-01
         -2   -1    0    0    0  501 -0.00000000000E+00  0.00000000000E+00  0.15008025059E+04  0.15008025059E+04  0.25500000000E-02 0.  1.
          2   -1    0    0  501    0  0.00000000000E+00 -0.00000000000E+00 -0.98973418290E+03  0.98973418291E+03  0.25500000000E-02 0. -1.
    8880023    1    1    2    0    0 -0.80369521641E+03  0.46960930112E+03  0.91730788420E+03  0.14634626258E+04  0.65864270000E+03 0.  1.
    8880022    1    1    2    0    0  0.80369521641E+03 -0.46960930112E+03 -0.40623956125E+03  0.10270740629E+04  0.15294330000E+03 0.  0.
<mgrwt>
<rscale>  0 0.10874946E+04</rscale>
<asrwt>0</asrwt>
<pdfrwt beam="1">  1        2 0.15226680E+00 0.11402934E+04</pdfrwt>
<pdfrwt beam="2">  1       -2 0.23089269E+00 0.11402934E+04</pdfrwt>
<totfact> 0.21139840E+00</totfact>
</mgrwt>
</event>
<event>
 4    2  0.3855935E-007  0.7107070E+03  0.7818608E-02  0.9955385E-01
         -2   -1    0    0    0  501 -0.00000000000E+00  0.00000000000E+00  0.13248765102E+03  0.13248765104E+03  0.25500000000E-02 0.  1.
          2   -1    0    0  501    0  0.00000000000E+00 -0.00000000000E+00 -0.21464072946E+04  0.21464072946E+04  0.25500000000E-02 0. -1.
    8880023    1    1    2    0    0  0.20858735538E+03  0.16668992368E+03 -0.10569883031E+04  0.12737066753E+04  0.65864270000E+03 0.  0.
    8880022    1    1    2    0    0 -0.20858735538E+03 -0.16668992368E+03 -0.95693134051E+03  0.10051882704E+04  0.15294330000E+03 0.  0.
<mgrwt>
<rscale>  0 0.57650567E+03</rscale>
<asrwt>0</asrwt>
<pdfrwt beam="1">  1        2 0.33021648E+00 0.71070699E+03</pdfrwt>
<pdfrwt beam="2">  1       -2 0.20382717E-01 0.71070699E+03</pdfrwt>
<totfact> 0.11801837E+02</totfact>
</mgrwt>
</event>
<event>
 4    2  0.3855935E-007  0.6773102E+03  0.7818608E-02  0.1010888E+00
          2   -1    0    0  501    0  0.00000000000E+00  0.00000000000E+00  0.23974184740E+03  0.23974184742E+03  0.25500000000E-02 0. -1.
         -2   -1    0    0    0  501 -0.00000000000E+00 -0.00000000000E+00 -0.10034152250E+04  0.10034152250E+04  0.25500000000E-02 0.  1.
    8880023    1    1    2    0    0 -0.66072782016E+02 -0.14343378091E+03 -0.76705373776E+03  0.10232890622E+04  0.65864270000E+03 0.  1.
    8880022    1    1    2    0    0  0.66072782016E+02  0.14343378091E+03  0.33803602133E+01  0.21986801013E+03  0.15294330000E+03 0.  1.
<mgrwt>
<rscale>  0 0.51123241E+03</rscale>
<asrwt>0</asrwt>
<pdfrwt beam="1">  1        2 0.36883362E-01 0.67731017E+03</pdfrwt>
<pdfrwt beam="2">  1       -2 0.15437157E+00 0.67731017E+03</pdfrwt>
<totfact> 0.39775428E+01</totfact>
</mgrwt>
</event>
<event>
 4    2  0.3855935E-007  0.7897271E+03  0.7818608E-02  0.9733465E-01
         -2   -1    0    0    0  501 -0.00000000000E+00  0.00000000000E+00  0.38408922226E+03  0.38408922227E+03  0.25500000000E-02 0.  1.
          2   -1    0    0  501    0  0.00000000000E+00 -0.00000000000E+00 -0.32206006618E+04  0.32206006618E+04  0.25500000000E-02 0. -1.
    8880023    1    1    2    0    0  0.31298360044E+03 -0.30315017373E+03 -0.62161280533E+02  0.79216980064E+03  0.65864270000E+03 0.  0.
    8880022    1    1    2    0    0 -0.31298360044E+03  0.30315017373E+03 -0.27743501590E+04  0.28125200835E+04  0.15294330000E+03 0.  0.
<mgrwt>
<rscale>  0 0.69058801E+03</rscale>
<asrwt>0</asrwt>
<pdfrwt beam="1">  1        2 0.49547701E+00 0.78972715E+03</pdfrwt>
<pdfrwt beam="2">  1       -2 0.59090652E-01 0.78972715E+03</pdfrwt>
<totfact> 0.35857180E+00</totfact>
</mgrwt>
</event>
<event>
 4    2  0.3855935E-007  0.7033764E+03  0.7818608E-02  0.9983473E-01
          2   -1    0    0  501    0  0.00000000000E+00  0.00000000000E+00  0.32645594376E+04  0.32645594376E+04  0.25500000000E-02 0. -1.
         -2   -1    0    0    0  501 -0.00000000000E+00 -0.00000000000E+00 -0.10359767267E+03  0.10359767270E+03  0.25500000000E-02 0.  1.
    8880023    1    1    2    0    0  0.45866530837E+02 -0.24253752205E+03  0.12419283391E+04  0.14272786673E+04  0.65864270000E+03 0.  1.
    8880022    1    1    2    0    0 -0.45866530837E+02  0.24253752205E+03  0.19190334258E+04  0.19408784430E+04  0.15294330000E+03 0.  0.
<mgrwt>
<rscale>  0 0.56380910E+03</rscale>
<asrwt>0</asrwt>
<pdfrwt beam="1">  1        2 0.50223982E+00 0.70337642E+03</pdfrwt>
<pdfrwt beam="2">  1       -2 0.15938107E-01 0.70337642E+03</pdfrwt>
<totfact> 0.39906975E+01</totfact>
</mgrwt>
</event>
<event>
 4    2  0.3855935E-007  0.7982290E+03  0.7818608E-02  0.9714639E-01
          2   -1    0    0  501    0  0.00000000000E+00  0.00000000000E+00  0.22612287378E+04  0.22612287378E+04  0.25500000000E-02 0. -1.
         -2   -1    0    0    0  501 -0.00000000000E+00 -0.00000000000E+00 -0.39922419797E+03  0.39922419798E+03  0.25500000000E-02 0.  1.
    8880023    1    1    2    0    0  0.21805812387E+02 -0.45042625046E+03  0.64372125381E+02  0.80082037770E+03  0.65864270000E+03 0.  1.
    8880022    1    1    2    0    0 -0.21805812387E+02  0.45042625046E+03  0.17976324145E+04  0.18596325581E+04  0.15294330000E+03 0.  0.
<mgrwt>
<rscale>  0 0.70151871E+03</rscale>
<asrwt>0</asrwt>
<pdfrwt beam="1">  1        2 0.34788135E+00 0.79822898E+03</pdfrwt>
<pdfrwt beam="2">  1       -2 0.61419106E-01 0.79822898E+03</pdfrwt>
<totfact> 0.12153731E+01</totfact>
</mgrwt>
</event>
<event>
 4    2  0.3855935E-007  0.6914423E+03  0.7818608E-02  0.1003474E+00
          2   -1    0    0  501    0  0.00000000000E+00  0.00000000000E+00  0.89717263806E+03  0.89717263807E+03  0.25500000000E-02 0. -1.
         -2   -1    0    0    0  501 -0.00000000000E+00 -0.00000000000E+00 -0.27388425297E+03  0.27388425298E+03  0.25500000000E-02 0.  1.
    8880023    1    1    2    0    0 -0.12882460109E+03 -0.16639257890E+03  0.29385410783E+03  0.75129402441E+03  0.65864270000E+03 0. -1.
    8880022    1    1    2    0    0  0.12882460109E+03  0.16639257890E+03  0.32943427726E+03  0.41976286664E+03  0.15294330000E+03 0.  1.
<mgrwt>
<rscale>  0 0.54152640E+03</rscale>
<asrwt>0</asrwt>
<pdfrwt beam="1">  1        2 0.13802656E+00 0.69144231E+03</pdfrwt>
<pdfrwt beam="2">  1       -2 0.42136040E-01 0.69144231E+03</pdfrwt>
<totfact> 0.15951890E+02</totfact>
</mgrwt>
</event>
<event>
 4    2  0.3855935E-007  0.8715003E+03  0.7818608E-02  0.9573425E-01
          2   -1    0    0  501    0  0.00000000000E+00  0.00000000000E+00  0.14457774404E+04  0.14457774404E+04  0.25500000000E-02 0. -1.
         -2   -1    0    0    0  501 -0.00000000000E+00 -0.00000000000E+00 -0.36986928081E+03  0.36986928082E+03  0.25500000000E-02 0.  1.
    8880023    1    1    2    0    0 -0.27500925560E+03 -0.50007254356E+03  0.65545346124E+03  0.10904733310E+04  0.65864270000E+03 0.  0.
    8880022    1    1    2    0    0  0.27500925560E+03  0.50007254356E+03  0.42045469832E+03  0.72517339019E+03  0.15294330000E+03 0.  1.
<mgrwt>
<rscale>  0 0.79080338E+03</rscale>
<asrwt>0</asrwt>
<pdfrwt beam="1">  1        2 0.22242729E+00 0.87150034E+03</pdfrwt>
<pdfrwt beam="2">  1       -2 0.56902967E-01 0.87150034E+03</pdfrwt>
<totfact> 0.39826939E+01</totfact>
</mgrwt>
</event>
<event>
 4    2  0.3855935E-007  0.8935813E+03  0.7818608E-02  0.9536415E-01
         -2   -1    0    0    0  501 -0.00000000000E+00  0.00000000000E+00  0.11600941398E+04  0.11600941398E+04  0.25500000000E-02 0.  1.
          2   -1    0    0  501    0  0.00000000000E+00 -0.00000000000E+00 -0.54678241888E+03  0.54678241889E+03  0.25500000000E-02 0. -1.
    8880023    1    1    2    0    0 -0.38340371400E+03  0.46656075241E+03  0.61351867820E+03  0.10839246830E+04  0.65864270000E+03 0.  0.
    8880022    1    1    2    0    0  0.38340371400E+03 -0.46656075241E+03 -0.20695729235E+00  0.62295187571E+03  0.15294330000E+03 0.  0.
<mgrwt>
<rscale>  0 0.81651501E+03</rscale>
<asrwt>0</asrwt>
<pdfrwt beam="1">  1        2 0.84120373E-01 0.89358131E+03</pdfrwt>
<pdfrwt beam="2">  1       -2 0.17847602E+00 0.89358131E+03</pdfrwt>
<totfact> 0.10328661E+01</totfact>
</mgrwt>
</event>
<event>
 4    2  0.3855935E-007  0.1351940E+04  0.7818608E-02  0.9021956E-01
         -2   -1    0    0    0  501 -0.00000000000E+00  0.00000000000E+00  0.18337022205E+04  0.18337022205E+04  0.25500000000E-02 0.  1.
          2   -1    0    0  501    0  0.00000000000E+00 -0.00000000000E+00 -0.10623330663E+04  0.10623330663E+04  0.25500000000E-02 0. -1.
    8880023    1    1    2    0    0  0.32509374325E+03  0.11350086718E+04  0.10027751484E+04  0.16832405745E+04  0.65864270000E+03 0.  0.
    8880022    1    1    2    0    0 -0.32509374325E+03 -0.11350086718E+04 -0.23140599417E+03  0.12127947123E+04  0.15294330000E+03 0.  0.
<mgrwt>
<rscale>  0 0.13096389E+04</rscale>
<asrwt>0</asrwt>
<pdfrwt beam="1">  1        2 0.16343586E+00 0.13519397E+04</pdfrwt>
<pdfrwt beam="2">  1       -2 0.28210803E+00 0.13519397E+04</pdfrwt>
<totfact> 0.90258897E-01</totfact>
</mgrwt>
</event>
<event>
 4    2  0.3855935E-007  0.9277566E+03  0.7818608E-02  0.9482867E-01
          2   -1    0    0  501    0  0.00000000000E+00  0.00000000000E+00  0.22489971086E+04  0.22489971086E+04  0.25500000000E-02 0. -1.
         -2   -1    0    0    0  501 -0.00000000000E+00 -0.00000000000E+00 -0.80784760215E+03  0.80784760215E+03  0.25500000000E-02 0.  1.
    8880023    1    1    2    0    0 -0.63414192544E+03 -0.15743618880E+03  0.19862842214E+04  0.21922721888E+04  0.65864270000E+03 0.  0.
    8880022    1    1    2    0    0  0.63414192544E+03  0.15743618880E+03 -0.54513471502E+03  0.86457252193E+03  0.15294330000E+03 0.  1.
<mgrwt>
<rscale>  0 0.85558852E+03</rscale>
<asrwt>0</asrwt>
<pdfrwt beam="1">  1        2 0.34599955E+00 0.92775662E+03</pdfrwt>
<pdfrwt beam="2">  1       -2 0.12428425E+00 0.92775662E+03</pdfrwt>
<totfact> 0.23874586E+00</totfact>
</mgrwt>
</event>
<event>
 4    2  0.3855935E-007  0.9669192E+03  0.7818608E-02  0.9426178E-01
         -2   -1    0    0    0  501 -0.00000000000E+00  0.00000000000E+00  0.39825991184E+03  0.39825991185E+03  0.25500000000E-02 0.  1.
          2   -1    0    0  501    0  0.00000000000E+00 -0.00000000000E+00 -0.18037887479E+04  0.18037887479E+04  0.25500000000E-02 0. -1.
    8880023    1    1    2    0    0 -0.70757527484E+03 -0.21440545547E+02 -0.72842249888E+03  0.12105915949E+04  0.65864270000E+03 0. -1.
    8880022    1    1    2    0    0  0.70757527484E+03  0.21440545547E+02 -0.67710633718E+03  0.99145706484E+03  0.15294330000E+03 0. -1.
<mgrwt>
<rscale>  0 0.89952300E+03</rscale>
<asrwt>0</asrwt>
<pdfrwt beam="1">  1        2 0.27750596E+00 0.96691917E+03</pdfrwt>
<pdfrwt beam="2">  1       -2 0.61270757E-01 0.96691917E+03</pdfrwt>
<totfact> 0.21368004E+01</totfact>
</mgrwt>
</event>
<event>
 4    2  0.3855935E-007  0.7196780E+03  0.7818608E-02  0.9923677E-01
         -2   -1    0    0    0  501 -0.00000000000E+00  0.00000000000E+00  0.20182071549E+03  0.20182071551E+03  0.25500000000E-02 0.  1.
          2   -1    0    0  501    0  0.00000000000E+00 -0.00000000000E+00 -0.16439784781E+04  0.16439784781E+04  0.25500000000E-02 0. -1.
    8880023    1    1    2    0    0 -0.20548509825E+03 -0.20469987160E+03 -0.58297552633E+03  0.92617322008E+03  0.65864270000E+03 0.  0.
    8880022    1    1    2    0    0  0.20548509825E+03  0.20469987160E+03 -0.85918223626E+03  0.91962597351E+03  0.15294330000E+03 0.  0.
<mgrwt>
<rscale>  0 0.59127390E+03</rscale>
<asrwt>0</asrwt>
<pdfrwt beam="1">  1        2 0.25291976E+00 0.71967796E+03</pdfrwt>
<pdfrwt beam="2">  1       -2 0.31049342E-01 0.71967796E+03</pdfrwt>
<totfact> 0.10362528E+02</totfact>
</mgrwt>
</event>
<event>
 4    2  0.3855935E-007  0.1037950E+04  0.7818608E-02  0.9333509E-01
         -2   -1    0    0    0  501 -0.00000000000E+00  0.00000000000E+00  0.67631046902E+03  0.67631046903E+03  0.25500000000E-02 0.  1.
          2   -1    0    0  501    0  0.00000000000E+00 -0.00000000000E+00 -0.23040496110E+04  0.23040496110E+04  0.25500000000E-02 0. -1.
    8880023    1    1    2    0    0 -0.53265252180E+02 -0.80043267216E+03  0.12622438352E+03  0.10455966962E+04  0.65864270000E+03 0.  1.
    8880022    1    1    2    0    0  0.53265252180E+02  0.80043267216E+03 -0.17539635255E+04  0.19347633838E+04  0.15294330000E+03 0.  0.
<mgrwt>
<rscale>  0 0.97755589E+03</rscale>
<asrwt>0</asrwt>
<pdfrwt beam="1">  1        2 0.35446917E+00 0.10379498E+04</pdfrwt>
<pdfrwt beam="2">  1       -2 0.10404777E+00 0.10379498E+04</pdfrwt>
<totfact> 0.33874095E+00</totfact>
</mgrwt>
</event>
<event>
 4    2  0.3855935E-007  0.7051524E+03  0.7818608E-02  0.9976463E-01
         -2   -1    0    0    0  501 -0.00000000000E+00  0.00000000000E+00  0.92063309955E+02  0.92063309990E+02  0.25500000000E-02 0.  1.
          2   -1    0    0  501    0  0.00000000000E+00 -0.00000000000E+00 -0.31612696577E+04  0.31612696577E+04  0.25500000000E-02 0. -1.
    8880023    1    1    2    0    0 -0.24383793967E+03 -0.63030048721E+02 -0.15100782447E+04  0.16666062040E+04  0.65864270000E+03 0.  1.
    8880022    1    1    2    0    0  0.24383793967E+03  0.63030048721E+02 -0.15591281031E+04  0.15867267637E+04  0.15294330000E+03 0.  0.
<mgrwt>
<rscale>  0 0.56694455E+03</rscale>
<asrwt>0</asrwt>
<pdfrwt beam="1">  1        2 0.48634909E+00 0.70515242E+03</pdfrwt>
<pdfrwt beam="2">  1       -2 0.14163589E-01 0.70515242E+03</pdfrwt>
<totfact> 0.56674454E+01</totfact>
</mgrwt>
</event>
<event>
 4    2  0.3855935E-007  0.6855316E+03  0.7818608E-02  0.1006353E+00
         -2   -1    0    0    0  501 -0.00000000000E+00  0.00000000000E+00  0.48502413229E+03  0.48502413230E+03  0.25500000000E-02 0.  1.
          2   -1    0    0  501    0  0.00000000000E+00 -0.00000000000E+00 -0.45338673250E+03  0.45338673251E+03  0.25500000000E-02 0. -1.
    8880023    1    1    2    0    0 -0.13168135052E+03 -0.13712567714E+03  0.78307001552E+02  0.68998958120E+03  0.65864270000E+03 0.  1.
    8880022    1    1    2    0    0  0.13168135052E+03  0.13712567714E+03 -0.46669601766E+02  0.24842128361E+03  0.15294330000E+03 0. -1.
<mgrwt>
<rscale>  0 0.52950157E+03</rscale>
<asrwt>0</asrwt>
<pdfrwt beam="1">  1        2 0.69751805E-01 0.68553164E+03</pdfrwt>
<pdfrwt beam="2">  1       -2 0.74619098E-01 0.68553164E+03</pdfrwt>
<totfact> 0.11291154E+02</totfact>
</mgrwt>
</event>
<event>
 4    2  0.3855935E-007  0.6777476E+03  0.7818608E-02  0.1010627E+00
          2   -1    0    0  501    0  0.00000000000E+00  0.00000000000E+00  0.22722834765E+04  0.22722834765E+04  0.25500000000E-02 0. -1.
         -2   -1    0    0    0  501 -0.00000000000E+00 -0.00000000000E+00 -0.17051426659E+03  0.17051426661E+03  0.25500000000E-02 0.  1.
    8880023    1    1    2    0    0 -0.14560905546E+03  0.65800107547E+02  0.54307623719E+03  0.86848929576E+03  0.65864270000E+03 0.  1.
    8880022    1    1    2    0    0  0.14560905546E+03 -0.65800107547E+02  0.15586929727E+04  0.15743084474E+04  0.15294330000E+03 0.  0.
<mgrwt>
<rscale>  0 0.51226004E+03</rscale>
<asrwt>0</asrwt>
<pdfrwt beam="1">  1        2 0.34958208E+00 0.67774764E+03</pdfrwt>
<pdfrwt beam="2">  1       -2 0.26232964E-01 0.67774764E+03</pdfrwt>
<totfact> 0.64433228E+01</totfact>
</mgrwt>
</event>
<event>
 4    2  0.3855935E-007  0.6937725E+03  0.7818608E-02  0.1002409E+00
         -2   -1    0    0    0  501 -0.00000000000E+00  0.00000000000E+00  0.21789003942E+03  0.21789003943E+03  0.25500000000E-02 0.  1.
          2   -1    0    0  501    0  0.00000000000E+00 -0.00000000000E+00 -0.21144194408E+04  0.21144194408E+04  0.25500000000E-02 0. -1.
    8880023    1    1    2    0    0 -0.21789836974E+03 -0.55121848011E+01 -0.37692460585E+03  0.78955205558E+03  0.65864270000E+03 0.  1.
    8880022    1    1    2    0    0  0.21789836974E+03  0.55121848011E+01 -0.15196047955E+04  0.15427574246E+04  0.15294330000E+03 0.  0.
<mgrwt>
<rscale>  0 0.54606573E+03</rscale>
<asrwt>0</asrwt>
<pdfrwt beam="1">  1        2 0.32529528E+00 0.69377251E+03</pdfrwt>
<pdfrwt beam="2">  1       -2 0.33521546E-01 0.69377251E+03</pdfrwt>
<totfact> 0.49875595E+01</totfact>
</mgrwt>
</event>
<event>
 4    2  0.3855935E-007  0.7299544E+03  0.7818608E-02  0.9890239E-01
         -2   -1    0    0    0  501 -0.00000000000E+00  0.00000000000E+00  0.51756615131E+03  0.51756615132E+03  0.25500000000E-02 0.  1.
          2   -1    0    0  501    0  0.00000000000E+00 -0.00000000000E+00 -0.25733446142E+04  0.25733446142E+04  0.25500000000E-02 0. -1.
    8880023    1    1    2    0    0  0.17302065912E+03 -0.26284408477E+03  0.24017514188E+03  0.76845134291E+03  0.65864270000E+03 0.  1.
    8880022    1    1    2    0    0 -0.17302065912E+03  0.26284408477E+03 -0.22959536048E+04  0.23224594226E+04  0.15294330000E+03 0.  0.
<mgrwt>
<rscale>  0 0.60736677E+03</rscale>
<asrwt>0</asrwt>
<pdfrwt beam="1">  1        2 0.39589916E+00 0.72995436E+03</pdfrwt>
<pdfrwt beam="2">  1       -2 0.79625563E-01 0.72995436E+03</pdfrwt>
<totfact> 0.46542434E+00</totfact>
</mgrwt>
</event>
<event>
 4    2  0.3855935E-007  0.7576177E+03  0.7818608E-02  0.9811314E-01
         -2   -1    0    0    0  501 -0.00000000000E+00  0.00000000000E+00  0.11504351561E+04  0.11504351561E+04  0.25500000000E-02 0.  1.
          2   -1    0    0  501    0  0.00000000000E+00 -0.00000000000E+00 -0.66600327646E+03  0.66600327646E+03  0.25500000000E-02 0. -1.
    8880023    1    1    2    0    0 -0.37382992808E+03  0.20628699400E+02  0.93996537945E+03  0.12072777142E+04  0.65864270000E+03 0.  1.
    8880022    1    1    2    0    0  0.37382992808E+03 -0.20628699400E+02 -0.45553349979E+03  0.60916071838E+03  0.15294330000E+03 0.  0.
<mgrwt>
<rscale>  0 0.64758863E+03</rscale>
<asrwt>0</asrwt>
<pdfrwt beam="1">  1        2 0.10246204E+00 0.75761769E+03</pdfrwt>
<pdfrwt beam="2">  1       -2 0.17699002E+00 0.75761769E+03</pdfrwt>
<totfact> 0.84382532E+00</totfact>
</mgrwt>
</event>
<event>
 4    2  0.3855935E-007  0.7891564E+03  0.7818608E-02  0.9734752E-01
          2   -1    0    0  501    0  0.00000000000E+00  0.00000000000E+00  0.55390456014E+03  0.55390456014E+03  0.25500000000E-02 0. -1.
         -2   -1    0    0    0  501 -0.00000000000E+00 -0.00000000000E+00 -0.12763086641E+04  0.12763086641E+04  0.25500000000E-02 0.  1.
    8880023    1    1    2    0    0  0.21315869370E+03  0.37884173452E+03 -0.10139935943E+04  0.12848933434E+04  0.65864270000E+03 0.  1.
    8880022    1    1    2    0    0 -0.21315869370E+03 -0.37884173452E+03  0.29158949032E+03  0.54531988080E+03  0.15294330000E+03 0.  0.
<mgrwt>
<rscale>  0 0.68984845E+03</rscale>
<asrwt>0</asrwt>
<pdfrwt beam="1">  1        2 0.85216086E-01 0.78915645E+03</pdfrwt>
<pdfrwt beam="2">  1       -2 0.19635518E+00 0.78915645E+03</pdfrwt>
<totfact> 0.77878415E+00</totfact>
</mgrwt>
</event>
<event>
 4    2  0.3855935E-007  0.8837116E+03  0.7818608E-02  0.9552702E-01
         -2   -1    0    0    0  501 -0.00000000000E+00  0.00000000000E+00  0.65819629184E+03  0.65819629185E+03  0.25500000000E-02 0.  1.
          2   -1    0    0  501    0  0.00000000000E+00 -0.00000000000E+00 -0.38702054976E+04  0.38702054976E+04  0.25500000000E-02 0. -1.
    8880023    1    1    2    0    0 -0.53951563307E+03 -0.23676763339E+03  0.32335851545E+03  0.94101379709E+03  0.65864270000E+03 0.  1.
    8880022    1    1    2    0    0  0.53951563307E+03  0.23676763339E+03 -0.35353677212E+04  0.35873879924E+04  0.15294330000E+03 0.  0.
<mgrwt>
<rscale>  0 0.80507346E+03</rscale>
<asrwt>0</asrwt>
<pdfrwt beam="1">  1        2 0.59541622E+00 0.88371163E+03</pdfrwt>
<pdfrwt beam="2">  1       -2 0.10126097E+00 0.88371163E+03</pdfrwt>
<totfact> 0.37263431E-01</totfact>
</mgrwt>
</event>
<event>
 4    2  0.3855935E-007  0.6724170E+03  0.7818608E-02  0.1013986E+00
         -2   -1    0    0    0  501 -0.00000000000E+00  0.00000000000E+00  0.33255612642E+03  0.33255612643E+03  0.25500000000E-02 0.  1.
          2   -1    0    0  501    0  0.00000000000E+00 -0.00000000000E+00 -0.84461174177E+03  0.84461174178E+03  0.25500000000E-02 0. -1.
    8880023    1    1    2    0    0  0.64607567509E+02  0.11899719389E+03 -0.52744804651E+02  0.67448253544E+03  0.65864270000E+03 0.  1.
    8880022    1    1    2    0    0 -0.64607567509E+02 -0.11899719389E+03 -0.45931081070E+03  0.50268533277E+03  0.15294330000E+03 0.  0.
<mgrwt>
<rscale>  0 0.49920628E+03</rscale>
<asrwt>0</asrwt>
<pdfrwt beam="1">  1        2 0.12994027E+00 0.67241704E+03</pdfrwt>
<pdfrwt beam="2">  1       -2 0.51162481E-01 0.67241704E+03</pdfrwt>
<totfact> 0.11759389E+02</totfact>
</mgrwt>
</event>
<event>
 4    2  0.3855935E-007  0.7541746E+03  0.7818608E-02  0.9820429E-01
          2   -1    0    0  501    0  0.00000000000E+00  0.00000000000E+00  0.14626080040E+04  0.14626080040E+04  0.25500000000E-02 0. -1.
         -2   -1    0    0    0  501 -0.00000000000E+00 -0.00000000000E+00 -0.37147923965E+03  0.37147923966E+03  0.25500000000E-02 0.  1.
    8880023    1    1    2    0    0 -0.15019629001E+03  0.33527619473E+03  0.93413071435E+02  0.75993766880E+03  0.65864270000E+03 0.  1.
    8880022    1    1    2    0    0  0.15019629001E+03 -0.33527619473E+03  0.99771569294E+03  0.10741495749E+04  0.15294330000E+03 0.  0.
<mgrwt>
<rscale>  0 0.64277627E+03</rscale>
<asrwt>0</asrwt>
<pdfrwt beam="1">  1        2 0.22501662E+00 0.75417455E+03</pdfrwt>
<pdfrwt beam="2">  1       -2 0.57150652E-01 0.75417455E+03</pdfrwt>
<totfact> 0.39069287E+01</totfact>
</mgrwt>
</event>
<event>
 4    2  0.3855935E-007  0.7265447E+03  0.7818608E-02  0.9901033E-01
          2   -1    0    0  501    0  0.00000000000E+00  0.00000000000E+00  0.77185627159E+03  0.77185627159E+03  0.25500000000E-02 0. -1.
         -2   -1    0    0    0  501 -0.00000000000E+00 -0.00000000000E+00 -0.74487280658E+03  0.74487280659E+03  0.25500000000E-02 0.  1.
    8880023    1    1    2    0    0 -0.30518901269E+03  0.30276920158E+02 -0.50436350496E+03  0.88444885480E+03  0.65864270000E+03 0.  1.
    8880022    1    1    2    0    0  0.30518901269E+03 -0.30276920158E+02  0.53134696997E+03  0.63228022337E+03  0.15294330000E+03 0.  0.
<mgrwt>
<rscale>  0 0.60211269E+03</rscale>
<asrwt>0</asrwt>
<pdfrwt beam="1">  1        2 0.11874712E+00 0.72654472E+03</pdfrwt>
<pdfrwt beam="2">  1       -2 0.11459582E+00 0.72654472E+03</pdfrwt>
<totfact> 0.21836556E+01</totfact>
</mgrwt>
</event>
<event>
 4    2  0.3855935E-007  0.6803900E+03  0.7818608E-02  0.1009104E+00
          2   -1    0    0  501    0  0.00000000000E+00  0.00000000000E+00  0.29138555644E+04  0.29138555644E+04  0.25500000000E-02 0. -1.
         -2   -1    0    0    0  501 -0.00000000000E+00 -0.00000000000E+00 -0.20684177773E+03  0.20684177774E+03  0.25500000000E-02 0.  1.
    8880023    1    1    2    0    0  0.88174483571E+01  0.17041889106E+03  0.37390209433E+03  0.77635902019E+03  0.65864270000E+03 0.  1.
    8880022    1    1    2    0    0 -0.88174483571E+01 -0.17041889106E+03  0.23331116924E+04  0.23443383220E+04  0.15294330000E+03 0.  0.
<mgrwt>
<rscale>  0 0.51832333E+03</rscale>
<asrwt>0</asrwt>
<pdfrwt beam="1">  1        2 0.44828547E+00 0.68039000E+03</pdfrwt>
<pdfrwt beam="2">  1       -2 0.31821812E-01 0.68039000E+03</pdfrwt>
<totfact> 0.19342948E+01</totfact>
</mgrwt>
</event>
<event>
 4    2  0.3855935E-007  0.8040558E+03  0.7818608E-02  0.9702094E-01
          2   -1    0    0  501    0  0.00000000000E+00  0.00000000000E+00  0.13997953613E+04  0.13997953613E+04  0.25500000000E-02 0. -1.
         -2   -1    0    0    0  501 -0.00000000000E+00 -0.00000000000E+00 -0.34926543049E+03  0.34926543050E+03  0.25500000000E-02 0.  1.
    8880023    1    1    2    0    0  0.24242137978E+02  0.46055162418E+03  0.30663415009E+03  0.86054063707E+03  0.65864270000E+03 0.  1.
    8880022    1    1    2    0    0 -0.24242137978E+02 -0.46055162418E+03  0.74389578073E+03  0.88852015474E+03  0.15294330000E+03 0.  0.
<mgrwt>
<rscale>  0 0.70892235E+03</rscale>
<asrwt>0</asrwt>
<pdfrwt beam="1">  1        2 0.21535313E+00 0.80405577E+03</pdfrwt>
<pdfrwt beam="2">  1       -2 0.53733143E-01 0.80405577E+03</pdfrwt>
<totfact> 0.47941727E+01</totfact>
</mgrwt>
</event>
<event>
 4    2  0.3855935E-007  0.7114550E+03  0.7818608E-02  0.9952637E-01
          2   -1    0    0  501    0  0.00000000000E+00  0.00000000000E+00  0.37749929177E+04  0.37749929177E+04  0.25500000000E-02 0. -1.
         -2   -1    0    0    0  501 -0.00000000000E+00 -0.00000000000E+00 -0.89265515603E+02  0.89265515640E+02  0.25500000000E-02 0.  1.
    8880023    1    1    2    0    0 -0.13033730932E+03 -0.23530866730E+03  0.15407868145E+04  0.16971129005E+04  0.65864270000E+03 0.  0.
    8880022    1    1    2    0    0  0.13033730932E+03  0.23530866730E+03  0.21449405876E+04  0.21671455328E+04  0.15294330000E+03 0.  0.
<mgrwt>
<rscale>  0 0.57776697E+03</rscale>
<asrwt>0</asrwt>
<pdfrwt beam="1">  1        2 0.58076819E+00 0.71145498E+03</pdfrwt>
<pdfrwt beam="2">  1       -2 0.13733155E-01 0.71145498E+03</pdfrwt>
<totfact> 0.22872753E+01</totfact>
</mgrwt>
</event>
<event>
 4    2  0.3855935E-007  0.9050940E+03  0.7818608E-02  0.9517903E-01
         -2   -1    0    0    0  501 -0.00000000000E+00  0.00000000000E+00  0.84334138110E+03  0.84334138111E+03  0.25500000000E-02 0.  1.
          2   -1    0    0  501    0  0.00000000000E+00 -0.00000000000E+00 -0.14768172970E+04  0.14768172970E+04  0.25500000000E-02 0. -1.
    8880023    1    1    2    0    0  0.40745909819E+03  0.46836103728E+03  0.48871792559E+03  0.10286109055E+04  0.65864270000E+03 0.  1.
    8880022    1    1    2    0    0 -0.40745909819E+03 -0.46836103728E+03 -0.11221938415E+04  0.12915477726E+04  0.15294330000E+03 0.  0.
<mgrwt>
<rscale>  0 0.82976675E+03</rscale>
<asrwt>0</asrwt>
<pdfrwt beam="1">  1        2 0.22720266E+00 0.90509402E+03</pdfrwt>
<pdfrwt beam="2">  1       -2 0.12974483E+00 0.90509402E+03</pdfrwt>
<totfact> 0.57340696E+00</totfact>
</mgrwt>
</event>
<event>
 4    2  0.3855935E-007  0.7142965E+03  0.7818608E-02  0.9942379E-01
          2   -1    0    0  501    0  0.00000000000E+00  0.00000000000E+00  0.16382934911E+04  0.16382934911E+04  0.25500000000E-02 0. -1.
         -2   -1    0    0    0  501 -0.00000000000E+00 -0.00000000000E+00 -0.22246333661E+03  0.22246333662E+03  0.25500000000E-02 0.  1.
    8880023    1    1    2    0    0  0.90701362751E+02  0.26111777443E+03  0.13652504051E+04  0.15408205944E+04  0.65864270000E+03 0. -1.
    8880022    1    1    2    0    0 -0.90701362751E+02 -0.26111777443E+03  0.50579749428E+02  0.31993623333E+03  0.15294330000E+03 0.  0.
<mgrwt>
<rscale>  0 0.58250636E+03</rscale>
<asrwt>0</asrwt>
<pdfrwt beam="1">  1        2 0.25204515E+00 0.71429646E+03</pdfrwt>
<pdfrwt beam="2">  1       -2 0.34225129E-01 0.71429646E+03</pdfrwt>
<totfact> 0.86955224E+01</totfact>
</mgrwt>
</event>
<event>
 4    2  0.3855935E-007  0.7029398E+03  0.7818608E-02  0.9985218E-01
         -2   -1    0    0    0  501 -0.00000000000E+00  0.00000000000E+00  0.98822164904E+03  0.98822164904E+03  0.25500000000E-02 0.  1.
          2   -1    0    0  501    0  0.00000000000E+00 -0.00000000000E+00 -0.15570585677E+04  0.15570585677E+04  0.25500000000E-02 0. -1.
    8880023    1    1    2    0    0  0.12710966042E+03  0.21013630724E+03  0.84670748118E+03  0.11004716708E+04  0.65864270000E+03 0.  1.
    8880022    1    1    2    0    0 -0.12710966042E+03 -0.21013630724E+03 -0.14155443999E+04  0.14448085459E+04  0.15294330000E+03 0.  0.
<mgrwt>
<rscale>  0 0.56303193E+03</rscale>
<asrwt>0</asrwt>
<pdfrwt beam="1">  1        2 0.23954747E+00 0.70293978E+03</pdfrwt>
<pdfrwt beam="2">  1       -2 0.15203410E+00 0.70293978E+03</pdfrwt>
<totfact> 0.35301294E+00</totfact>
</mgrwt>
</event>
<event>
 4    2  0.3855935E-007  0.8647633E+03  0.7818608E-02  0.9585146E-01
         -2   -1    0    0    0  501 -0.00000000000E+00  0.00000000000E+00  0.25540433107E+03  0.25540433109E+03  0.25500000000E-02 0.  1.
          2   -1    0    0  501    0  0.00000000000E+00 -0.00000000000E+00 -0.23843647084E+04  0.23843647084E+04  0.25500000000E-02 0. -1.
    8880023    1    1    2    0    0 -0.42100011719E+03  0.36981642141E+03 -0.17330353722E+04  0.19368084809E+04  0.65864270000E+03 0. -1.
    8880022    1    1    2    0    0  0.42100011719E+03 -0.36981642141E+03 -0.39592500517E+03  0.70296055861E+03  0.15294330000E+03 0.  0.
<mgrwt>
<rscale>  0 0.78287164E+03</rscale>
<asrwt>0</asrwt>
<pdfrwt beam="1">  1        2 0.36682532E+00 0.86476326E+03</pdfrwt>
<pdfrwt beam="2">  1       -2 0.39292976E-01 0.86476326E+03</pdfrwt>
<totfact> 0.25493096E+01</totfact>
</mgrwt>
</event>
<event>
 4    2  0.3855935E-007  0.7382758E+03  0.7818608E-02  0.9864998E-01
          2   -1    0    0  501    0  0.00000000000E+00  0.00000000000E+00  0.14922545165E+04  0.14922545165E+04  0.25500000000E-02 0. -1.
         -2   -1    0    0    0  501 -0.00000000000E+00 -0.00000000000E+00 -0.21208939825E+03  0.21208939827E+03  0.25500000000E-02 0.  1.
    8880023    1    1    2    0    0 -0.11218160942E+03 -0.31409601932E+03  0.69677530760E+03  0.10151586371E+04  0.65864270000E+03 0.  0.
    8880022    1    1    2    0    0  0.11218160942E+03  0.31409601932E+03  0.58338981069E+03  0.68918527776E+03  0.15294330000E+03 0.  0.
<mgrwt>
<rscale>  0 0.61988026E+03</rscale>
<asrwt>0</asrwt>
<pdfrwt beam="1">  1        2 0.22957762E+00 0.73827585E+03</pdfrwt>
<pdfrwt beam="2">  1       -2 0.32629138E-01 0.73827585E+03</pdfrwt>
<totfact> 0.11432911E+02</totfact>
</mgrwt>
</event>
<event>
 4    2  0.3855935E-007  0.6594921E+03  0.7818608E-02  0.1024683E+00
          2   -1    0    0  501    0  0.00000000000E+00  0.00000000000E+00  0.53239887902E+03  0.53239887902E+03  0.25500000000E-02 0. -1.
         -2   -1    0    0    0  501 -0.00000000000E+00 -0.00000000000E+00 -0.31690960383E+03  0.31690960384E+03  0.25500000000E-02 0.  1.
    8880023    1    1    2    0    0 -0.32283418922E+02 -0.88004122981E+01  0.13460684515E+03  0.67308905460E+03  0.65864270000E+03 0.  1.
    8880022    1    1    2    0    0  0.32283418922E+02  0.88004122981E+01  0.80882430041E+02  0.17621942827E+03  0.15294330000E+03 0. -1.
<mgrwt>
<rscale>  0 0.46033930E+03</rscale>
<asrwt>0</asrwt>
<pdfrwt beam="1">  1        2 0.81907520E-01 0.65949213E+03</pdfrwt>
<pdfrwt beam="2">  1       -2 0.48755324E-01 0.65949213E+03</pdfrwt>
<totfact> 0.23080295E+02</totfact>
</mgrwt>
</event>
<event>
 4    2  0.3855935E-007  0.7228146E+03  0.7818608E-02  0.9913175E-01
         -2   -1    0    0    0  501 -0.00000000000E+00  0.00000000000E+00  0.24622393725E+03  0.24622393726E+03  0.25500000000E-02 0.  1.
          2   -1    0    0  501    0  0.00000000000E+00 -0.00000000000E+00 -0.19962636697E+04  0.19962636697E+04  0.25500000000E-02 0. -1.
    8880023    1    1    2    0    0  0.16359468230E+03  0.24877205016E+03 -0.35019512384E+03  0.80317967109E+03  0.65864270000E+03 0.  0.
    8880022    1    1    2    0    0 -0.16359468230E+03 -0.24877205016E+03 -0.13998446086E+04  0.14393079359E+04  0.15294330000E+03 0.  0.
<mgrwt>
<rscale>  0 0.59627005E+03</rscale>
<asrwt>0</asrwt>
<pdfrwt beam="1">  1        2 0.30711748E+00 0.72281461E+03</pdfrwt>
<pdfrwt beam="2">  1       -2 0.37880607E-01 0.72281461E+03</pdfrwt>
<totfact> 0.45645970E+01</totfact>
</mgrwt>
</event>
<event>
 4    2  0.3855935E-007  0.7125450E+03  0.7818608E-02  0.9948669E-01
         -2   -1    0    0    0  501 -0.00000000000E+00  0.00000000000E+00  0.70011066452E+02  0.70011066499E+02  0.25500000000E-02 0.  1.
          2   -1    0    0  501    0  0.00000000000E+00 -0.00000000000E+00 -0.41374400463E+04  0.41374400463E+04  0.25500000000E-02 0. -1.
    8880023    1    1    2    0    0 -0.20575570379E+03  0.17769284282E+03 -0.33532888833E+04  0.34281579160E+04  0.65864270000E+03 0.  0.
    8880022    1    1    2    0    0  0.20575570379E+03 -0.17769284282E+03 -0.71414009654E+03  0.77929319678E+03  0.15294330000E+03 0.  0.
<mgrwt>
<rscale>  0 0.57959460E+03</rscale>
<asrwt>0</asrwt>
<pdfrwt beam="1">  1        2 0.63652904E+00 0.71254499E+03</pdfrwt>
<pdfrwt beam="2">  1       -2 0.10770937E-01 0.71254499E+03</pdfrwt>
<totfact> 0.17869586E+01</totfact>
</mgrwt>
</event>
<event>
 4    2  0.3855935E-007  0.9957174E+03  0.7818608E-02  0.9387182E-01
          2   -1    0    0  501    0  0.00000000000E+00  0.00000000000E+00  0.18309893214E+04  0.18309893214E+04  0.25500000000E-02 0. -1.
         -2   -1    0    0    0  501 -0.00000000000E+00 -0.00000000000E+00 -0.46659552261E+03  0.46659552262E+03  0.25500000000E-02 0.  1.
    8880023    1    1    2    0    0  0.58916852834E+03 -0.45882826132E+03  0.41168906634E+03  0.10774697313E+04  0.65864270000E+03 0.  0.
    8880022    1    1    2    0    0 -0.58916852834E+03  0.45882826132E+03  0.95270473247E+03  0.12201151128E+04  0.15294330000E+03 0.  0.
<mgrwt>
<rscale>  0 0.93138088E+03</rscale>
<asrwt>0</asrwt>
<pdfrwt beam="1">  1        2 0.28169067E+00 0.99571740E+03</pdfrwt>
<pdfrwt beam="2">  1       -2 0.71783926E-01 0.99571740E+03</pdfrwt>
<totfact> 0.14607197E+01</totfact>
</mgrwt>
</event>
<event>
 4    2  0.3855935E-007  0.6686546E+03  0.7818608E-02  0.1016646E+00
          2   -1    0    0  501    0  0.00000000000E+00  0.00000000000E+00  0.72306164446E+03  0.72306164446E+03  0.25500000000E-02 0. -1.
         -2   -1    0    0    0  501 -0.00000000000E+00 -0.00000000000E+00 -0.94024424310E+03  0.94024424310E+03  0.25500000000E-02 0.  1.
    8880023    1    1    2    0    0 -0.89821714727E+02 -0.72255096435E+02 -0.80418194733E+03  0.10458525470E+04  0.65864270000E+03 0.  0.
    8880022    1    1    2    0    0  0.89821714727E+02  0.72255096435E+02  0.58699934869E+03  0.61745334056E+03  0.15294330000E+03 0. -1.
<mgrwt>
<rscale>  0 0.48916527E+03</rscale>
<asrwt>0</asrwt>
<pdfrwt beam="1">  1        2 0.11124025E+00 0.66865458E+03</pdfrwt>
<pdfrwt beam="2">  1       -2 0.14465296E+00 0.66865458E+03</pdfrwt>
<totfact> 0.13277818E+01</totfact>
</mgrwt>
</event>
<event>
 4    2  0.3855935E-007  0.8537365E+03  0.7818608E-02  0.9604804E-01
         -2   -1    0    0    0  501 -0.00000000000E+00  0.00000000000E+00  0.29008825910E+03  0.29008825911E+03  0.25500000000E-02 0.  1.
          2   -1    0    0  501    0  0.00000000000E+00 -0.00000000000E+00 -0.17911573453E+04  0.17911573453E+04  0.25500000000E-02 0. -1.
    8880023    1    1    2    0    0 -0.54064028982E+03  0.52573215614E+02 -0.71500620228E+03  0.11135977467E+04  0.65864270000E+03 0.  1.
    8880022    1    1    2    0    0  0.54064028982E+03 -0.52573215614E+02 -0.78606288388E+03  0.96764785765E+03  0.15294330000E+03 0. -1.
<mgrwt>
<rscale>  0 0.76979065E+03</rscale>
<asrwt>0</asrwt>
<pdfrwt beam="1">  1        2 0.27556266E+00 0.85373654E+03</pdfrwt>
<pdfrwt beam="2">  1       -2 0.44628964E-01 0.85373654E+03</pdfrwt>
<totfact> 0.42193869E+01</totfact>
</mgrwt>
</event>
<event>
 4    2  0.3855935E-007  0.8196905E+03  0.7818608E-02  0.9669735E-01
          2   -1    0    0  501    0  0.00000000000E+00  0.00000000000E+00  0.16828226328E+04  0.16828226328E+04  0.25500000000E-02 0. -1.
         -2   -1    0    0    0  501 -0.00000000000E+00 -0.00000000000E+00 -0.31849878194E+03  0.31849878195E+03  0.25500000000E-02 0.  1.
    8880023    1    1    2    0    0  0.35620705071E+03 -0.33346492006E+03  0.40513460913E+03  0.91434488770E+03  0.65864270000E+03 0.  1.
    8880022    1    1    2    0    0 -0.35620705071E+03  0.33346492006E+03  0.95918924175E+03  0.10869765271E+04  0.15294330000E+03 0.  0.
<mgrwt>
<rscale>  0 0.72847724E+03</rscale>
<asrwt>0</asrwt>
<pdfrwt beam="1">  1        2 0.25889579E+00 0.81969050E+03</pdfrwt>
<pdfrwt beam="2">  1       -2 0.48999812E-01 0.81969050E+03</pdfrwt>
<totfact> 0.40230946E+01</totfact>
</mgrwt>
</event>
<event>
 4    2  0.3855935E-007  0.9139338E+03  0.7818608E-02  0.9504024E-01
         -2   -1    0    0    0  501 -0.00000000000E+00  0.00000000000E+00  0.57567687694E+03  0.57567687695E+03  0.25500000000E-02 0.  1.
          2   -1    0    0  501    0  0.00000000000E+00 -0.00000000000E+00 -0.23879319200E+04  0.23879319200E+04  0.25500000000E-02 0. -1.
    8880023    1    1    2    0    0  0.18949994188E+03 -0.60461110134E+03  0.12240846014E+03  0.92209481574E+03  0.65864270000E+03 0.  1.
    8880022    1    1    2    0    0 -0.18949994188E+03  0.60461110134E+03 -0.19346635032E+04  0.20415139812E+04  0.15294330000E+03 0.  0.
<mgrwt>
<rscale>  0 0.83987826E+03</rscale>
<asrwt>0</asrwt>
<pdfrwt beam="1">  1        2 0.36737413E+00 0.91393381E+03</pdfrwt>
<pdfrwt beam="2">  1       -2 0.88565675E-01 0.91393381E+03</pdfrwt>
<totfact> 0.45161954E+00</totfact>
</mgrwt>
</event>
<event>
 4    2  0.3855935E-007  0.7523498E+03  0.7818608E-02  0.9825331E-01
         -2   -1    0    0    0  501 -0.00000000000E+00  0.00000000000E+00  0.80158745772E+03  0.80158745773E+03  0.25500000000E-02 0.  1.
          2   -1    0    0  501    0  0.00000000000E+00 -0.00000000000E+00 -0.71753483063E+03  0.71753483063E+03  0.25500000000E-02 0. -1.
    8880023    1    1    2    0    0 -0.28316285397E+03 -0.22812025864E+03  0.53260117270E+03  0.92178862528E+03  0.65864270000E+03 0.  0.
    8880022    1    1    2    0    0  0.28316285397E+03  0.22812025864E+03 -0.44854854560E+03  0.59733366308E+03  0.15294330000E+03 0.  0.
<mgrwt>
<rscale>  0 0.64020661E+03</rscale>
<asrwt>0</asrwt>
<pdfrwt beam="1">  1        2 0.11038997E+00 0.75234983E+03</pdfrwt>
<pdfrwt beam="2">  1       -2 0.12332115E+00 0.75234983E+03</pdfrwt>
<totfact> 0.19964600E+01</totfact>
</mgrwt>
</event>
<event>
 4    2  0.3855935E-007  0.8981385E+03  0.7818608E-02  0.9529027E-01
         -2   -1    0    0    0  501 -0.00000000000E+00  0.00000000000E+00  0.43534801983E+03  0.43534801984E+03  0.25500000000E-02 0.  1.
          2   -1    0    0  501    0  0.00000000000E+00 -0.00000000000E+00 -0.14705711748E+04  0.14705711748E+04  0.25500000000E-02 0. -1.
    8880023    1    1    2    0    0 -0.60607251835E+03 -0.74287866879E+02 -0.32071754774E+03  0.95368366682E+03  0.65864270000E+03 0. -1.
    8880022    1    1    2    0    0  0.60607251835E+03  0.74287866879E+02 -0.71450560719E+03  0.95223552779E+03  0.15294330000E+03 0.  0.
<mgrwt>
<rscale>  0 0.82177228E+03</rscale>
<asrwt>0</asrwt>
<pdfrwt beam="1">  1        2 0.22624172E+00 0.89813851E+03</pdfrwt>
<pdfrwt beam="2">  1       -2 0.66976619E-01 0.89813851E+03</pdfrwt>
<totfact> 0.27186777E+01</totfact>
</mgrwt>
</event>
<event>
 4    2  0.3855935E-007  0.7726777E+03  0.7818608E-02  0.9773327E-01
         -2   -1    0    0    0  501 -0.00000000000E+00  0.00000000000E+00  0.37982438885E+03  0.37982438885E+03  0.25500000000E-02 0.  1.
          2   -1    0    0  501    0  0.00000000000E+00 -0.00000000000E+00 -0.10014440491E+04  0.10014440491E+04  0.25500000000E-02 0. -1.
    8880023    1    1    2    0    0 -0.89690284448E+02 -0.39392417211E+03 -0.25199564712E+03  0.81273157495E+03  0.65864270000E+03 0.  0.
    8880022    1    1    2    0    0  0.89690284448E+02  0.39392417211E+03 -0.36962401315E+03  0.56853686302E+03  0.15294330000E+03 0.  0.
<mgrwt>
<rscale>  0 0.66813819E+03</rscale>
<asrwt>0</asrwt>
<pdfrwt beam="1">  1        2 0.15406831E+00 0.77267769E+03</pdfrwt>
<pdfrwt beam="2">  1       -2 0.58434522E-01 0.77267769E+03</pdfrwt>
<totfact> 0.69723564E+01</totfact>
</mgrwt>
</event>
<event>
 4    2  0.3855935E-007  0.8274451E+03  0.7818608E-02  0.9654324E-01
          2   -1    0    0  501    0  0.00000000000E+00  0.00000000000E+00  0.13808886225E+04  0.13808886225E+04  0.25500000000E-02 0. -1.
         -2   -1    0    0    0  501 -0.00000000000E+00 -0.00000000000E+00 -0.14556948707E+04  0.14556948707E+04  0.25500000000E-02 0.  1.
    8880023    1    1    2    0    0  0.28189286973E+03  0.41399461809E+03 -0.12790714077E+04  0.15233807817E+04  0.65864270000E+03 0.  0.
    8880022    1    1    2    0    0 -0.28189286973E+03 -0.41399461809E+03  0.12042651596E+04  0.13132027114E+04  0.15294330000E+03 0.  0.
<mgrwt>
<rscale>  0 0.73802670E+03</rscale>
<asrwt>0</asrwt>
<pdfrwt beam="1">  1        2 0.21244440E+00 0.82744507E+03</pdfrwt>
<pdfrwt beam="2">  1       -2 0.22395306E+00 0.82744507E+03</pdfrwt>
<totfact> 0.14133484E+00</totfact>
</mgrwt>
</event>
<event>
 4    2  0.3855935E-007  0.7263885E+03  0.7818608E-02  0.9901534E-01
          2   -1    0    0  501    0  0.00000000000E+00  0.00000000000E+00  0.24542444517E+03  0.24542444518E+03  0.25500000000E-02 0. -1.
         -2   -1    0    0    0  501 -0.00000000000E+00 -0.00000000000E+00 -0.21513929537E+04  0.21513929537E+04  0.25500000000E-02 0.  1.
    8880023    1    1    2    0    0 -0.30608953879E+03  0.11802505126E+02 -0.19213703367E+04  0.20540945163E+04  0.65864270000E+03 0.  1.
    8880022    1    1    2    0    0  0.30608953879E+03 -0.11802505126E+02  0.15401828220E+02  0.34272288253E+03  0.15294330000E+03 0.  0.
<mgrwt>
<rscale>  0 0.60187010E+03</rscale>
<asrwt>0</asrwt>
<pdfrwt beam="1">  1        2 0.37757608E-01 0.72638854E+03</pdfrwt>
<pdfrwt beam="2">  1       -2 0.33098352E+00 0.72638854E+03</pdfrwt>
<totfact> 0.29536125E+00</totfact>
</mgrwt>
</event>
<event>
 4    2  0.3855935E-007  0.7474812E+03  0.7818608E-02  0.9838667E-01
          2   -1    0    0  501    0  0.00000000000E+00  0.00000000000E+00  0.11180922840E+04  0.11180922840E+04  0.25500000000E-02 0. -1.
         -2   -1    0    0    0  501 -0.00000000000E+00 -0.00000000000E+00 -0.49744569461E+03  0.49744569462E+03  0.25500000000E-02 0.  1.
    8880023    1    1    2    0    0  0.23605489171E+03 -0.26305124141E+03 -0.14229970104E+03  0.76090556489E+03  0.65864270000E+03 0.  1.
    8880022    1    1    2    0    0 -0.23605489171E+03  0.26305124141E+03  0.76294629044E+03  0.85463241374E+03  0.15294330000E+03 0.  0.
<mgrwt>
<rscale>  0 0.63328079E+03</rscale>
<asrwt>0</asrwt>
<pdfrwt beam="1">  1        2 0.17201420E+00 0.74748115E+03</pdfrwt>
<pdfrwt beam="2">  1       -2 0.76530108E-01 0.74748115E+03</pdfrwt>
<totfact> 0.32991635E+01</totfact>
</mgrwt>
</event>
<event>
 4    2  0.3855935E-007  0.7635400E+03  0.7818608E-02  0.9796027E-01
          2   -1    0    0  501    0  0.00000000000E+00  0.00000000000E+00  0.19943123862E+04  0.19943123862E+04  0.25500000000E-02 0. -1.
         -2   -1    0    0    0  501 -0.00000000000E+00 -0.00000000000E+00 -0.55789802116E+03  0.55789802117E+03  0.25500000000E-02 0.  1.
    8880023    1    1    2    0    0 -0.34301322489E+03  0.17755306663E+03 -0.25928728127E+03  0.80636422565E+03  0.65864270000E+03 0.  1.
    8880022    1    1    2    0    0  0.34301322489E+03 -0.17755306663E+03  0.16957016463E+04  0.17458461817E+04  0.15294330000E+03 0.  0.
<mgrwt>
<rscale>  0 0.65576168E+03</rscale>
<asrwt>0</asrwt>
<pdfrwt beam="1">  1        2 0.30681729E+00 0.76354003E+03</pdfrwt>
<pdfrwt beam="2">  1       -2 0.85830465E-01 0.76354003E+03</pdfrwt>
<totfact> 0.81955828E+00</totfact>
</mgrwt>
</event>
<event>
 4    2  0.3855935E-007  0.8321049E+03  0.7818608E-02  0.9645251E-01
         -2   -1    0    0    0  501 -0.00000000000E+00  0.00000000000E+00  0.10118380531E+04  0.10118380531E+04  0.25500000000E-02 0.  1.
          2   -1    0    0  501    0  0.00000000000E+00 -0.00000000000E+00 -0.15427137330E+04  0.15427137330E+04  0.25500000000E-02 0. -1.
    8880023    1    1    2    0    0  0.32765379453E+03  0.38888472444E+03  0.77980137438E+03  0.11403897262E+04  0.65864270000E+03 0.  1.
    8880022    1    1    2    0    0 -0.32765379453E+03 -0.38888472444E+03 -0.13106770543E+04  0.14141620599E+04  0.15294330000E+03 0.  0.
<mgrwt>
<rscale>  0 0.74372236E+03</rscale>
<asrwt>0</asrwt>
<pdfrwt beam="1">  1        2 0.23734057E+00 0.83210489E+03</pdfrwt>
<pdfrwt beam="2">  1       -2 0.15566739E+00 0.83210489E+03</pdfrwt>
<totfact> 0.33078538E+00</totfact>
</mgrwt>
</event>
<event>
 4    2  0.3855935E-007  0.1005969E+04  0.7818608E-02  0.9373790E-01
          2   -1    0    0  501    0  0.00000000000E+00  0.00000000000E+00  0.52892382949E+03  0.52892382949E+03  0.25500000000E-02 0. -1.
         -2   -1    0    0    0  501 -0.00000000000E+00 -0.00000000000E+00 -0.15484729624E+04  0.15484729624E+04  0.25500000000E-02 0.  1.
    8880023    1    1    2    0    0  0.67932092514E+03 -0.34159308417E+03 -0.75552525963E+03  0.12580903698E+04  0.65864270000E+03 0.  0.
    8880022    1    1    2    0    0 -0.67932092514E+03  0.34159308417E+03 -0.26402387324E+03  0.81930642201E+03  0.15294330000E+03 0.  0.
<mgrwt>
<rscale>  0 0.94264399E+03</rscale>
<asrwt>0</asrwt>
<pdfrwt beam="1">  1        2 0.81372898E-01 0.10059687E+04</pdfrwt>
<pdfrwt beam="2">  1       -2 0.23822661E+00 0.10059687E+04</pdfrwt>
<totfact> 0.43705428E+00</totfact>
</mgrwt>
</event>
<event>
 4    2  0.3855935E-007  0.7322917E+03  0.7818608E-02  0.9882998E-01
          2   -1    0    0  501    0  0.00000000000E+00  0.00000000000E+00  0.69855073832E+03  0.69855073833E+03  0.25500000000E-02 0. -1.
         -2   -1    0    0    0  501 -0.00000000000E+00 -0.00000000000E+00 -0.78235995549E+03  0.78235995550E+03  0.25500000000E-02 0.  1.
    8880023    1    1    2    0    0 -0.31344301591E+03  0.64763667494E+02 -0.53504893055E+03  0.90693352634E+03  0.65864270000E+03 0.  1.
    8880022    1    1    2    0    0  0.31344301591E+03 -0.64763667494E+02  0.45123971338E+03  0.57397716749E+03  0.15294330000E+03 0.  0.
<mgrwt>
<rscale>  0 0.61092398E+03</rscale>
<asrwt>0</asrwt>
<pdfrwt beam="1">  1        2 0.10746934E+00 0.73229165E+03</pdfrwt>
<pdfrwt beam="2">  1       -2 0.12036307E+00 0.73229165E+03</pdfrwt>
<totfact> 0.21984228E+01</totfact>
</mgrwt>
</event>
<event>
 4    2  0.3855935E-007  0.6834363E+03  0.7818608E-02  0.1007443E+00
          2   -1    0    0  501    0  0.00000000000E+00  0.00000000000E+00  0.16086445708E+04  0.16086445708E+04  0.25500000000E-02 0. -1.
         -2   -1    0    0    0  501 -0.00000000000E+00 -0.00000000000E+00 -0.69527298531E+03  0.69527298532E+03  0.25500000000E-02 0.  1.
    8880023    1    1    2    0    0  0.14965499317E+03 -0.10429953970E+03 -0.51505947405E+03  0.85578705239E+03  0.65864270000E+03 0.  1.
    8880022    1    1    2    0    0 -0.14965499317E+03  0.10429953970E+03  0.14284310595E+04  0.14481305037E+04  0.15294330000E+03 0.  0.
<mgrwt>
<rscale>  0 0.52503651E+03</rscale>
<asrwt>0</asrwt>
<pdfrwt beam="1">  1        2 0.24748378E+00 0.68343633E+03</pdfrwt>
<pdfrwt beam="2">  1       -2 0.10696508E+00 0.68343633E+03</pdfrwt>
<totfact> 0.80425758E+00</totfact>
</mgrwt>
</event>
<event>
 4    2  0.3855935E-007  0.6810751E+03  0.7818608E-02  0.1008722E+00
          2   -1    0    0  501    0  0.00000000000E+00  0.00000000000E+00  0.14326876251E+04  0.14326876251E+04  0.25500000000E-02 0. -1.
         -2   -1    0    0    0  501 -0.00000000000E+00 -0.00000000000E+00 -0.31877982537E+03  0.31877982538E+03  0.25500000000E-02 0.  1.
    8880023    1    1    2    0    0  0.16156270724E+03 -0.62854029347E+02  0.72746741815E+02  0.68494921862E+03  0.65864270000E+03 0.  1.
    8880022    1    1    2    0    0 -0.16156270724E+03  0.62854029347E+02  0.10411610579E+04  0.10665182318E+04  0.15294330000E+03 0.  0.
<mgrwt>
<rscale>  0 0.51985765E+03</rscale>
<asrwt>0</asrwt>
<pdfrwt beam="1">  1        2 0.22041348E+00 0.68107514E+03</pdfrwt>
<pdfrwt beam="2">  1       -2 0.49043050E-01 0.68107514E+03</pdfrwt>
<totfact> 0.56078111E+01</totfact>
</mgrwt>
</event>
<event>
 4    2  0.3855935E-007  0.6665094E+03  0.7818608E-02  0.1018299E+00
          2   -1    0    0  501    0  0.00000000000E+00  0.00000000000E+00  0.21434012273E+04  0.21434012273E+04  0.25500000000E-02 0. -1.
         -2   -1    0    0    0  501 -0.00000000000E+00 -0.00000000000E+00 -0.16800313374E+03  0.16800313376E+03  0.25500000000E-02 0.  1.
    8880023    1    1    2    0    0  0.10077225641E+03 -0.16417094846E+02  0.52246224509E+03  0.84687754278E+03  0.65864270000E+03 0.  1.
    8880022    1    1    2    0    0 -0.10077225641E+03  0.16417094846E+02  0.14529358485E+04  0.14645268183E+04  0.15294330000E+03 0.  0.
<mgrwt>
<rscale>  0 0.48305362E+03</rscale>
<asrwt>0</asrwt>
<pdfrwt beam="1">  1        2 0.32975402E+00 0.66650940E+03</pdfrwt>
<pdfrwt beam="2">  1       -2 0.25846637E-01 0.66650940E+03</pdfrwt>
<totfact> 0.78031749E+01</totfact>
</mgrwt>
</event>
<event>
 4    2  0.3855935E-007  0.6822063E+03  0.7818608E-02  0.1008102E+00
         -2   -1    0    0    0  501 -0.00000000000E+00  0.00000000000E+00  0.25742547342E+03  0.25742547343E+03  0.25500000000E-02 0.  1.
          2   -1    0    0  501    0  0.00000000000E+00 -0.00000000000E+00 -0.16051981922E+04  0.16051981922E+04  0.25500000000E-02 0. -1.
    8880023    1    1    2    0    0  0.16346616001E+03  0.69814700646E+02 -0.22911371374E+03  0.71965170603E+03  0.65864270000E+03 0.  1.
    8880022    1    1    2    0    0 -0.16346616001E+03 -0.69814700646E+02 -0.11186590050E+04  0.11429719596E+04  0.15294330000E+03 0.  0.
<mgrwt>
<rscale>  0 0.52235920E+03</rscale>
<asrwt>0</asrwt>
<pdfrwt beam="1">  1        2 0.24695356E+00 0.68220634E+03</pdfrwt>
<pdfrwt beam="2">  1       -2 0.39603920E-01 0.68220634E+03</pdfrwt>
<totfact> 0.68752537E+01</totfact>
</mgrwt>
</event>
<event>
 4    2  0.3855935E-007  0.1194387E+04  0.7818608E-02  0.9162598E-01
         -2   -1    0    0    0  501 -0.00000000000E+00  0.00000000000E+00  0.43782621170E+03  0.43782621171E+03  0.25500000000E-02 0.  1.
          2   -1    0    0  501    0  0.00000000000E+00 -0.00000000000E+00 -0.32581390060E+04  0.32581390060E+04  0.25500000000E-02 0. -1.
    8880023    1    1    2    0    0 -0.12258461389E+03  0.98879864039E+03 -0.22248825338E+04  0.25252053846E+04  0.65864270000E+03 0.  0.
    8880022    1    1    2    0    0  0.12258461389E+03 -0.98879864039E+03 -0.59543026052E+03  0.11707598332E+04  0.15294330000E+03 0.  0.
<mgrwt>
<rscale>  0 0.11447958E+04</rscale>
<asrwt>0</asrwt>
<pdfrwt beam="1">  1        2 0.50125214E+00 0.11943868E+04</pdfrwt>
<pdfrwt beam="2">  1       -2 0.67357881E-01 0.11943868E+04</pdfrwt>
<totfact> 0.24028066E+00</totfact>
</mgrwt>
</event>
<event>
 4    2  0.3855935E-007  0.8154549E+03  0.7818608E-02  0.9678325E-01
         -2   -1    0    0    0  501 -0.00000000000E+00  0.00000000000E+00  0.70395294592E+03  0.70395294592E+03  0.25500000000E-02 0.  1.
          2   -1    0    0  501    0  0.00000000000E+00 -0.00000000000E+00 -0.79886546968E+03  0.79886546969E+03  0.25500000000E-02 0. -1.
    8880023    1    1    2    0    0 -0.25817188941E+03  0.40559055786E+03  0.29290197624E+03  0.86646303963E+03  0.65864270000E+03 0. -1.
    8880022    1    1    2    0    0  0.25817188941E+03 -0.40559055786E+03 -0.38781450001E+03  0.63635537598E+03  0.15294330000E+03 0.  0.
<mgrwt>
<rscale>  0 0.72322124E+03</rscale>
<asrwt>0</asrwt>
<pdfrwt beam="1">  1        2 0.12290238E+00 0.81545486E+03</pdfrwt>
<pdfrwt beam="2">  1       -2 0.10830045E+00 0.81545486E+03</pdfrwt>
<totfact> 0.23744417E+01</totfact>
</mgrwt>
</event>
<event>
 4    2  0.3855935E-007  0.6635056E+03  0.7818608E-02  0.1020821E+00
          2   -1    0    0  501    0  0.00000000000E+00  0.00000000000E+00  0.63208056109E+03  0.63208056110E+03  0.25500000000E-02 0. -1.
         -2   -1    0    0    0  501 -0.00000000000E+00 -0.00000000000E+00 -0.11594058503E+04  0.11594058503E+04  0.25500000000E-02 0.  1.
    8880023    1    1    2    0    0  0.53243614643E+02 -0.59954730247E+02 -0.10494162420E+04  0.12415772660E+04  0.65864270000E+03 0.  1.
    8880022    1    1    2    0    0 -0.53243614643E+02  0.59954730247E+02  0.52209095281E+03  0.54990914540E+03  0.15294330000E+03 0.  0.
<mgrwt>
<rscale>  0 0.47391331E+03</rscale>
<asrwt>0</asrwt>
<pdfrwt beam="1">  1        2 0.97243163E-01 0.66350558E+03</pdfrwt>
<pdfrwt beam="2">  1       -2 0.17837013E+00 0.66350558E+03</pdfrwt>
<totfact> 0.89036606E+00</totfact>
</mgrwt>
</event>
<event>
 4    2  0.3855935E-007  0.7533905E+03  0.7818608E-02  0.9822529E-01
         -2   -1    0    0    0  501 -0.00000000000E+00  0.00000000000E+00  0.38906643694E+03  0.38906643695E+03  0.25500000000E-02 0.  1.
          2   -1    0    0  501    0  0.00000000000E+00 -0.00000000000E+00 -0.15903691694E+04  0.15903691694E+04  0.25500000000E-02 0. -1.
    8880023    1    1    2    0    0 -0.16515796616E+03 -0.32635851575E+03 -0.42386013665E+02  0.75458188092E+03  0.65864270000E+03 0.  1.
    8880022    1    1    2    0    0  0.16515796616E+03  0.32635851575E+03 -0.11589167188E+04  0.12248537255E+04  0.15294330000E+03 0.  0.
<mgrwt>
<rscale>  0 0.64167381E+03</rscale>
<asrwt>0</asrwt>
<pdfrwt beam="1">  1        2 0.24467218E+00 0.75339050E+03</pdfrwt>
<pdfrwt beam="2">  1       -2 0.59856376E-01 0.75339050E+03</pdfrwt>
<totfact> 0.30109553E+01</totfact>
</mgrwt>
</event>
<event>
 4    2  0.3855935E-007  0.8491798E+03  0.7818608E-02  0.9613108E-01
          2   -1    0    0  501    0  0.00000000000E+00  0.00000000000E+00  0.19697777438E+04  0.19697777438E+04  0.25500000000E-02 0. -1.
         -2   -1    0    0    0  501 -0.00000000000E+00 -0.00000000000E+00 -0.40506541553E+03  0.40506541554E+03  0.25500000000E-02 0.  1.
    8880023    1    1    2    0    0 -0.48781418290E+03 -0.22211133552E+03  0.16072293547E+03  0.86425585948E+03  0.65864270000E+03 0.  0.
    8880022    1    1    2    0    0  0.48781418290E+03  0.22211133552E+03  0.14039893928E+04  0.15105872998E+04  0.15294330000E+03 0.  0.
<mgrwt>
<rscale>  0 0.76434646E+03</rscale>
<asrwt>0</asrwt>
<pdfrwt beam="1">  1        2 0.30304272E+00 0.84917980E+03</pdfrwt>
<pdfrwt beam="2">  1       -2 0.62317758E-01 0.84917980E+03</pdfrwt>
<totfact> 0.16932546E+01</totfact>
</mgrwt>
</event>
<event>
 4    2  0.3855935E-007  0.6674203E+03  0.7818608E-02  0.1017584E+00
          2   -1    0    0  501    0  0.00000000000E+00  0.00000000000E+00  0.80081255853E+03  0.80081255854E+03  0.25500000000E-02 0. -1.
         -2   -1    0    0    0  501 -0.00000000000E+00 -0.00000000000E+00 -0.11048792022E+04  0.11048792022E+04  0.25500000000E-02 0.  1.
    8880023    1    1    2    0    0  0.14582202801E+02 -0.10689720281E+03 -0.99039987969E+03  0.11942955164E+04  0.65864270000E+03 0.  1.
    8880022    1    1    2    0    0 -0.14582202801E+02  0.10689720281E+03  0.68633323600E+03  0.71139624434E+03  0.15294330000E+03 0.  0.
<mgrwt>
<rscale>  0 0.48568714E+03</rscale>
<asrwt>0</asrwt>
<pdfrwt beam="1">  1        2 0.12320193E+00 0.66742030E+03</pdfrwt>
<pdfrwt beam="2">  1       -2 0.16998142E+00 0.66742030E+03</pdfrwt>
<totfact> 0.75451837E+00</totfact>
</mgrwt>
</event>
<event>
 4    2  0.3855935E-007  0.7108537E+03  0.7818608E-02  0.9954845E-01
         -2   -1    0    0    0  501 -0.00000000000E+00  0.00000000000E+00  0.44161258993E+03  0.44161258993E+03  0.25500000000E-02 0.  1.
          2   -1    0    0  501    0  0.00000000000E+00 -0.00000000000E+00 -0.11895156188E+04  0.11895156188E+04  0.25500000000E-02 0. -1.
    8880023    1    1    2    0    0 -0.19086107831E+03 -0.18728263557E+03  0.11025698947E+03  0.71935356174E+03  0.65864270000E+03 0.  1.
    8880022    1    1    2    0    0  0.19086107831E+03  0.18728263557E+03 -0.85816001833E+03  0.91177464698E+03  0.15294330000E+03 0.  0.
<mgrwt>
<rscale>  0 0.57675348E+03</rscale>
<asrwt>0</asrwt>
<pdfrwt beam="1">  1        2 0.18300240E+00 0.71085367E+03</pdfrwt>
<pdfrwt beam="2">  1       -2 0.67940399E-01 0.71085367E+03</pdfrwt>
<totfact> 0.38970792E+01</totfact>
</mgrwt>
</event>
<event>
 4    2  0.3855935E-007  0.8185447E+03  0.7818608E-02  0.9672046E-01
         -2   -1    0    0    0  501 -0.00000000000E+00  0.00000000000E+00  0.21094117016E+03  0.21094117018E+03  0.25500000000E-02 0.  1.
          2   -1    0    0  501    0  0.00000000000E+00 -0.00000000000E+00 -0.27965103285E+04  0.27965103285E+04  0.25500000000E-02 0. -1.
    8880023    1    1    2    0    0  0.47952031421E+03 -0.79154516651E+02 -0.77743414230E+03  0.11289017766E+04  0.65864270000E+03 0.  0.
    8880022    1    1    2    0    0 -0.47952031421E+03  0.79154516651E+02 -0.18081350160E+04  0.18785497221E+04  0.15294330000E+03 0. -1.
<mgrwt>
<rscale>  0 0.72705826E+03</rscale>
<asrwt>0</asrwt>
<pdfrwt beam="1">  1        2 0.43023233E+00 0.81854467E+03</pdfrwt>
<pdfrwt beam="2">  1       -2 0.32452490E-01 0.81854467E+03</pdfrwt>
<totfact> 0.21418762E+01</totfact>
</mgrwt>
</event>
<event>
 4    2  0.3855935E-007  0.1063810E+04  0.7818608E-02  0.9302461E-01
         -2   -1    0    0    0  501 -0.00000000000E+00  0.00000000000E+00  0.32411508480E+03  0.32411508481E+03  0.25500000000E-02 0.  1.
          2   -1    0    0  501    0  0.00000000000E+00 -0.00000000000E+00 -0.39671690586E+04  0.39671690586E+04  0.25500000000E-02 0. -1.
    8880023    1    1    2    0    0 -0.43506823327E+03  0.71316065755E+03 -0.81975693285E+03  0.13430168005E+04  0.65864270000E+03 0.  0.
    8880022    1    1    2    0    0  0.43506823327E+03 -0.71316065755E+03 -0.28232970409E+04  0.29482673429E+04  0.15294330000E+03 0.  0.
<mgrwt>
<rscale>  0 0.10055664E+04</rscale>
<asrwt>0</asrwt>
<pdfrwt beam="1">  1        2 0.61033367E+00 0.10638105E+04</pdfrwt>
<pdfrwt beam="2">  1       -2 0.49863862E-01 0.10638105E+04</pdfrwt>
<totfact> 0.14417617E+00</totfact>
</mgrwt>
</event>
<event>
 4    2  0.3855935E-007  0.1033884E+04  0.7818608E-02  0.9338511E-01
          2   -1    0    0  501    0  0.00000000000E+00  0.00000000000E+00  0.14096066417E+04  0.14096066417E+04  0.25500000000E-02 0. -1.
         -2   -1    0    0    0  501 -0.00000000000E+00 -0.00000000000E+00 -0.86733889798E+03  0.86733889798E+03  0.25500000000E-02 0.  1.
    8880023    1    1    2    0    0 -0.74988081419E+03  0.26978522918E+03 -0.33029865967E+03  0.10853629422E+04  0.65864270000E+03 0.  0.
    8880022    1    1    2    0    0  0.74988081419E+03 -0.26978522918E+03  0.87256640334E+03  0.11915825975E+04  0.15294330000E+03 0.  0.
<mgrwt>
<rscale>  0 0.97313477E+03</rscale>
<asrwt>0</asrwt>
<pdfrwt beam="1">  1        2 0.21686256E+00 0.10338837E+04</pdfrwt>
<pdfrwt beam="2">  1       -2 0.13343676E+00 0.10338837E+04</pdfrwt>
<totfact> 0.57444443E+00</totfact>
</mgrwt>
</event>
<event>
 4    2  0.3855935E-007  0.8747709E+03  0.7818608E-02  0.9567810E-01
         -2   -1    0    0    0  501 -0.00000000000E+00  0.00000000000E+00  0.27044183578E+03  0.27044183580E+03  0.25500000000E-02 0.  1.
          2   -1    0    0  501    0  0.00000000000E+00 -0.00000000000E+00 -0.35252117971E+04  0.35252117971E+04  0.25500000000E-02 0. -1.
    8880023    1    1    2    0    0 -0.37025842574E+03  0.44082038486E+03 -0.56650124752E+03  0.10421841408E+04  0.65864270000E+03 0.  0.
    8880022    1    1    2    0    0  0.37025842574E+03 -0.44082038486E+03 -0.26882687138E+04  0.27534694921E+04  0.15294330000E+03 0.  0.
<mgrwt>
<rscale>  0 0.79463840E+03</rscale>
<asrwt>0</asrwt>
<pdfrwt beam="1">  1        2 0.54234024E+00 0.87477090E+03</pdfrwt>
<pdfrwt beam="2">  1       -2 0.41606439E-01 0.87477090E+03</pdfrwt>
<totfact> 0.45257353E+00</totfact>
</mgrwt>
</event>
<event>
 4    2  0.3855935E-007  0.7392970E+03  0.7818608E-02  0.9862000E-01
          2   -1    0    0  501    0  0.00000000000E+00  0.00000000000E+00  0.86619849288E+03  0.86619849289E+03  0.25500000000E-02 0. -1.
         -2   -1    0    0    0  501 -0.00000000000E+00 -0.00000000000E+00 -0.80113855904E+03  0.80113855904E+03  0.25500000000E-02 0.  1.
    8880023    1    1    2    0    0 -0.28609580298E+03  0.17578109743E+03 -0.56955884188E+03  0.93325092195E+03  0.65864270000E+03 0.  0.
    8880022    1    1    2    0    0  0.28609580298E+03 -0.17578109743E+03  0.63461877573E+03  0.73408612998E+03  0.15294330000E+03 0. -1.
<mgrwt>
<rscale>  0 0.62138819E+03</rscale>
<asrwt>0</asrwt>
<pdfrwt beam="1">  1        2 0.13326131E+00 0.73929697E+03</pdfrwt>
<pdfrwt beam="2">  1       -2 0.12325209E+00 0.73929697E+03</pdfrwt>
<totfact> 0.15616937E+01</totfact>
</mgrwt>
</event>
<event>
 4    2  0.3855935E-007  0.7352877E+03  0.7818608E-02  0.9873893E-01
          2   -1    0    0  501    0  0.00000000000E+00  0.00000000000E+00  0.19385439303E+04  0.19385439303E+04  0.25500000000E-02 0. -1.
         -2   -1    0    0    0  501 -0.00000000000E+00 -0.00000000000E+00 -0.43081853279E+03  0.43081853280E+03  0.25500000000E-02 0.  1.
    8880023    1    1    2    0    0  0.21098990613E+03 -0.24964180148E+03 -0.81397506728E+02  0.73977937921E+03  0.65864270000E+03 0.  0.
    8880022    1    1    2    0    0 -0.21098990613E+03  0.24964180148E+03  0.15891229042E+04  0.16295830839E+04  0.15294330000E+03 0.  0.
<mgrwt>
<rscale>  0 0.61543417E+03</rscale>
<asrwt>0</asrwt>
<pdfrwt beam="1">  1        2 0.29823753E+00 0.73528768E+03</pdfrwt>
<pdfrwt beam="2">  1       -2 0.66279773E-01 0.73528768E+03</pdfrwt>
<totfact> 0.15666249E+01</totfact>
</mgrwt>
</event>
<event>
 4    2  0.3855935E-007  0.7414247E+03  0.7818608E-02  0.9855816E-01
         -2   -1    0    0    0  501 -0.00000000000E+00  0.00000000000E+00  0.24704143408E+03  0.24704143409E+03  0.25500000000E-02 0.  1.
          2   -1    0    0  501    0  0.00000000000E+00 -0.00000000000E+00 -0.23669121759E+04  0.23669121759E+04  0.25500000000E-02 0. -1.
    8880023    1    1    2    0    0  0.13854504672E+03  0.31097539857E+03 -0.37737900176E+03  0.83194083066E+03  0.65864270000E+03 0.  1.
    8880022    1    1    2    0    0 -0.13854504672E+03 -0.31097539857E+03 -0.17424917401E+04  0.17820127794E+04  0.15294330000E+03 0.  0.
<mgrwt>
<rscale>  0 0.62451246E+03</rscale>
<asrwt>0</asrwt>
<pdfrwt beam="1">  1        2 0.36414032E+00 0.74142473E+03</pdfrwt>
<pdfrwt beam="2">  1       -2 0.38006376E-01 0.74142473E+03</pdfrwt>
<totfact> 0.28275787E+01</totfact>
</mgrwt>
</event>
<event>
 4    2  0.3855935E-007  0.9085471E+03  0.7818608E-02  0.9512448E-01
         -2   -1    0    0    0  501 -0.00000000000E+00  0.00000000000E+00  0.56030477861E+03  0.56030477862E+03  0.25500000000E-02 0.  1.
          2   -1    0    0  501    0  0.00000000000E+00 -0.00000000000E+00 -0.19858290101E+04  0.19858290101E+04  0.25500000000E-02 0. -1.
    8880023    1    1    2    0    0  0.37980147853E+03 -0.49739167262E+03  0.76516712519E+02  0.91176348504E+03  0.65864270000E+03 0. -1.
    8880022    1    1    2    0    0 -0.37980147853E+03  0.49739167262E+03 -0.15020409440E+04  0.16343703037E+04  0.15294330000E+03 0.  0.
<mgrwt>
<rscale>  0 0.83372292E+03</rscale>
<asrwt>0</asrwt>
<pdfrwt beam="1">  1        2 0.30551215E+00 0.90854711E+03</pdfrwt>
<pdfrwt beam="2">  1       -2 0.86200736E-01 0.90854711E+03</pdfrwt>
<totfact> 0.80390130E+00</totfact>
</mgrwt>
</event>
<event>
 4    2  0.3855935E-007  0.7571410E+03  0.7818608E-02  0.9812566E-01
          2   -1    0    0  501    0  0.00000000000E+00  0.00000000000E+00  0.31777317054E+04  0.31777317054E+04  0.25500000000E-02 0. -1.
         -2   -1    0    0    0  501 -0.00000000000E+00 -0.00000000000E+00 -0.18454993101E+03  0.18454993103E+03  0.25500000000E-02 0.  1.
    8880023    1    1    2    0    0  0.36846563132E+03  0.60707438554E+02  0.69118561647E+03  0.10251829482E+04  0.65864270000E+03 0.  0.
    8880022    1    1    2    0    0 -0.36846563132E+03 -0.60707438554E+02  0.23019961579E+04  0.23370986883E+04  0.15294330000E+03 0. -1.
<mgrwt>
<rscale>  0 0.64692516E+03</rscale>
<asrwt>0</asrwt>
<pdfrwt beam="1">  1        2 0.48888180E+00 0.75714102E+03</pdfrwt>
<pdfrwt beam="2">  1       -2 0.28392297E-01 0.75714102E+03</pdfrwt>
<totfact> 0.16211151E+01</totfact>
</mgrwt>
</event>
<event>
 4    2  0.3855935E-007  0.8494047E+03  0.7818608E-02  0.9612696E-01
          2   -1    0    0  501    0  0.00000000000E+00  0.00000000000E+00  0.67126306311E+03  0.67126306311E+03  0.25500000000E-02 0. -1.
         -2   -1    0    0    0  501 -0.00000000000E+00 -0.00000000000E+00 -0.14574729827E+04  0.14574729827E+04  0.25500000000E-02 0.  1.
    8880023    1    1    2    0    0 -0.44646309640E+03  0.29723534800E+03 -0.11742735774E+04  0.14492780235E+04  0.65864270000E+03 0.  1.
    8880022    1    1    2    0    0  0.44646309640E+03 -0.29723534800E+03  0.38806365782E+03  0.67945802231E+03  0.15294330000E+03 0.  0.
<mgrwt>
<rscale>  0 0.76461573E+03</rscale>
<asrwt>0</asrwt>
<pdfrwt beam="1">  1        2 0.10327124E+00 0.84940471E+03</pdfrwt>
<pdfrwt beam="2">  1       -2 0.22422661E+00 0.84940471E+03</pdfrwt>
<totfact> 0.40632951E+00</totfact>
</mgrwt>
</event>
<event>
 4    2  0.3855935E-007  0.9028303E+03  0.7818608E-02  0.9521503E-01
         -2   -1    0    0    0  501 -0.00000000000E+00  0.00000000000E+00  0.41480431260E+03  0.41480431261E+03  0.25500000000E-02 0.  1.
          2   -1    0    0  501    0  0.00000000000E+00 -0.00000000000E+00 -0.15112610587E+04  0.15112610587E+04  0.25500000000E-02 0. -1.
    8880023    1    1    2    0    0  0.53610514469E+03  0.30640439758E+03 -0.86150649401E+03  0.12479166745E+04  0.65864270000E+03 0.  0.
    8880022    1    1    2    0    0 -0.53610514469E+03 -0.30640439758E+03 -0.23495025209E+03  0.67814869681E+03  0.15294330000E+03 0.  0.
<mgrwt>
<rscale>  0 0.82716873E+03</rscale>
<asrwt>0</asrwt>
<pdfrwt beam="1">  1        2 0.23250170E+00 0.90283032E+03</pdfrwt>
<pdfrwt beam="2">  1       -2 0.63816049E-01 0.90283032E+03</pdfrwt>
<totfact> 0.28615704E+01</totfact>
</mgrwt>
</event>
<event>
 4    2  0.3855935E-007  0.6868042E+03  0.7818608E-02  0.1005710E+00
          2   -1    0    0  501    0  0.00000000000E+00  0.00000000000E+00  0.22229491509E+04  0.22229491509E+04  0.25500000000E-02 0. -1.
         -2   -1    0    0    0  501 -0.00000000000E+00 -0.00000000000E+00 -0.11940937628E+03  0.11940937631E+03  0.25500000000E-02 0.  1.
    8880023    1    1    2    0    0  0.15175821348E+02 -0.19406064509E+03  0.10116445293E+04  0.12227529184E+04  0.65864270000E+03 0.  1.
    8880022    1    1    2    0    0 -0.15175821348E+02  0.19406064509E+03  0.10918952454E+04  0.11196056089E+04  0.15294330000E+03 0.  0.
<mgrwt>
<rscale>  0 0.53215836E+03</rscale>
<asrwt>0</asrwt>
<pdfrwt beam="1">  1        2 0.34199215E+00 0.68680423E+03</pdfrwt>
<pdfrwt beam="2">  1       -2 0.18370675E-01 0.68680423E+03</pdfrwt>
<totfact> 0.12872144E+02</totfact>
</mgrwt>
</event>
<event>
 4    2  0.3855935E-007  0.7393425E+03  0.7818608E-02  0.9861867E-01
          2   -1    0    0  501    0  0.00000000000E+00  0.00000000000E+00  0.69922155640E+03  0.69922155640E+03  0.25500000000E-02 0. -1.
         -2   -1    0    0    0  501 -0.00000000000E+00 -0.00000000000E+00 -0.73565114333E+03  0.73565114333E+03  0.25500000000E-02 0.  1.
    8880023    1    1    2    0    0 -0.24540086857E+03  0.22933703121E+03 -0.46179878318E+03  0.87171404863E+03  0.65864270000E+03 0.  1.
    8880022    1    1    2    0    0  0.24540086857E+03 -0.22933703121E+03  0.42536919625E+03  0.56315865110E+03  0.15294330000E+03 0.  0.
<mgrwt>
<rscale>  0 0.62145523E+03</rscale>
<asrwt>0</asrwt>
<pdfrwt beam="1">  1        2 0.10757255E+00 0.73934246E+03</pdfrwt>
<pdfrwt beam="2">  1       -2 0.11317710E+00 0.73934246E+03</pdfrwt>
<totfact> 0.25521505E+01</totfact>
</mgrwt>
</event>
<event>
 4    2  0.3855935E-007  0.1051526E+04  0.7818608E-02  0.9317050E-01
         -2   -1    0    0    0  501 -0.00000000000E+00  0.00000000000E+00  0.50030019200E+03  0.50030019200E+03  0.25500000000E-02 0.  1.
          2   -1    0    0  501    0  0.00000000000E+00 -0.00000000000E+00 -0.35429379798E+04  0.35429379798E+04  0.25500000000E-02 0. -1.
    8880023    1    1    2    0    0  0.72360963125E+02 -0.81649247464E+03 -0.18658371656E+03  0.10679511972E+04  0.65864270000E+03 0.  0.
    8880022    1    1    2    0    0 -0.72360963125E+02  0.81649247464E+03 -0.28560540713E+04  0.29752869746E+04  0.15294330000E+03 0.  0.
<mgrwt>
<rscale>  0 0.99228285E+03</rscale>
<asrwt>0</asrwt>
<pdfrwt beam="1">  1        2 0.54506737E+00 0.10515257E+04</pdfrwt>
<pdfrwt beam="2">  1       -2 0.76969262E-01 0.10515257E+04</pdfrwt>
<totfact> 0.11747205E+00</totfact>
</mgrwt>
</event>
<event>
 4    2  0.3855935E-007  0.6735134E+03  0.7818608E-02  0.1013260E+00
          2   -1    0    0  501    0  0.00000000000E+00  0.00000000000E+00  0.14505379980E+04  0.14505379980E+04  0.25500000000E-02 0. -1.
         -2   -1    0    0    0  501 -0.00000000000E+00 -0.00000000000E+00 -0.17762160654E+03  0.17762160656E+03  0.25500000000E-02 0.  1.
    8880023    1    1    2    0    0  0.51296405312E+02  0.13106781504E+03  0.53094828106E+03  0.85762834419E+03  0.65864270000E+03 0.  1.
    8880022    1    1    2    0    0 -0.51296405312E+02 -0.13106781504E+03  0.74196811041E+03  0.77053126038E+03  0.15294330000E+03 0.  0.
<mgrwt>
<rscale>  0 0.50199263E+03</rscale>
<asrwt>0</asrwt>
<pdfrwt beam="1">  1        2 0.22315969E+00 0.67351340E+03</pdfrwt>
<pdfrwt beam="2">  1       -2 0.27326401E-01 0.67351340E+03</pdfrwt>
<totfact> 0.16851573E+02</totfact>
</mgrwt>
</event>
<event>
 4    2  0.3855935E-007  0.7329013E+03  0.7818608E-02  0.9881129E-01
          2   -1    0    0  501    0  0.00000000000E+00  0.00000000000E+00  0.50897443385E+03  0.50897443386E+03  0.25500000000E-02 0. -1.
         -2   -1    0    0    0  501 -0.00000000000E+00 -0.00000000000E+00 -0.11750380582E+04  0.11750380582E+04  0.25500000000E-02 0.  1.
    8880023    1    1    2    0    0 -0.20936567667E+03 -0.24392633226E+03 -0.97012412957E+03  0.12158474720E+04  0.65864270000E+03 0.  1.
    8880022    1    1    2    0    0  0.20936567667E+03  0.24392633226E+03  0.30406050523E+03  0.46816502004E+03  0.15294330000E+03 0.  0.
<mgrwt>
<rscale>  0 0.61184608E+03</rscale>
<asrwt>0</asrwt>
<pdfrwt beam="1">  1        2 0.78303760E-01 0.73290125E+03</pdfrwt>
<pdfrwt beam="2">  1       -2 0.18077508E+00 0.73290125E+03</pdfrwt>
<totfact> 0.11003033E+01</totfact>
</mgrwt>
</event>
<event>
 4    2  0.3855935E-007  0.9660919E+03  0.7818608E-02  0.9427330E-01
         -2   -1    0    0    0  501 -0.00000000000E+00  0.00000000000E+00  0.59247784176E+03  0.59247784177E+03  0.25500000000E-02 0.  1.
          2   -1    0    0  501    0  0.00000000000E+00 -0.00000000000E+00 -0.15062803302E+04  0.15062803302E+04  0.25500000000E-02 0. -1.
    8880023    1    1    2    0    0  0.23683477900E+03  0.66590741886E+03 -0.43271293940E+02  0.96706050182E+03  0.65864270000E+03 0.  0.
    8880022    1    1    2    0    0 -0.23683477900E+03 -0.66590741886E+03 -0.87053119454E+03  0.11316976702E+04  0.15294330000E+03 0.  0.
<mgrwt>
<rscale>  0 0.89860273E+03</rscale>
<asrwt>0</asrwt>
<pdfrwt beam="1">  1        2 0.23173543E+00 0.96609193E+03</pdfrwt>
<pdfrwt beam="2">  1       -2 0.91150438E-01 0.96609193E+03</pdfrwt>
<totfact> 0.12915173E+01</totfact>
</mgrwt>
</event>
<event>
 4    2  0.3855935E-007  0.9007324E+03  0.7818608E-02  0.9524857E-01
         -2   -1    0    0    0  501 -0.00000000000E+00  0.00000000000E+00  0.22454715876E+04  0.22454715876E+04  0.25500000000E-02 0.  1.
          2   -1    0    0  501    0  0.00000000000E+00 -0.00000000000E+00 -0.27826420739E+03  0.27826420741E+03  0.25500000000E-02 0. -1.
    8880023    1    1    2    0    0 -0.49467911688E+03 -0.36441910029E+03  0.14462112218E+04  0.17037739913E+04  0.65864270000E+03 0. -1.
    8880022    1    1    2    0    0  0.49467911688E+03  0.36441910029E+03  0.52099615838E+03  0.81996180362E+03  0.15294330000E+03 0.  0.
<mgrwt>
<rscale>  0 0.82475775E+03</rscale>
<asrwt>0</asrwt>
<pdfrwt beam="1">  1        2 0.42809878E-01 0.90073243E+03</pdfrwt>
<pdfrwt beam="2">  1       -2 0.34545716E+00 0.90073243E+03</pdfrwt>
<totfact> 0.20415367E+00</totfact>
</mgrwt>
</event>
<event>
 4    2  0.3855935E-007  0.6925762E+03  0.7818608E-02  0.1002951E+00
          2   -1    0    0  501    0  0.00000000000E+00  0.00000000000E+00  0.39285835068E+04  0.39285835068E+04  0.25500000000E-02 0. -1.
         -2   -1    0    0    0  501 -0.00000000000E+00 -0.00000000000E+00 -0.97079843952E+02  0.97079843985E+02  0.25500000000E-02 0.  1.
    8880023    1    1    2    0    0  0.11538389534E+03  0.18038327305E+03  0.12356558354E+04  0.14165123078E+04  0.65864270000E+03 0.  1.
    8880022    1    1    2    0    0 -0.11538389534E+03 -0.18038327305E+03  0.25958478275E+04  0.26091510430E+04  0.15294330000E+03 0.  0.
<mgrwt>
<rscale>  0 0.54374819E+03</rscale>
<asrwt>0</asrwt>
<pdfrwt beam="1">  1        2 0.60439759E+00 0.69257619E+03</pdfrwt>
<pdfrwt beam="2">  1       -2 0.14935357E-01 0.69257619E+03</pdfrwt>
<totfact> 0.15287156E+01</totfact>
</mgrwt>
</event>
<event>
 4    2  0.3855935E-007  0.6731840E+03  0.7818608E-02  0.1013476E+00
          2   -1    0    0  501    0  0.00000000000E+00  0.00000000000E+00  0.13286285038E+04  0.13286285038E+04  0.25500000000E-02 0. -1.
         -2   -1    0    0    0  501 -0.00000000000E+00 -0.00000000000E+00 -0.27848411609E+03  0.27848411610E+03  0.25500000000E-02 0.  1.
    8880023    1    1    2    0    0 -0.90517012598E+02 -0.10570303927E+03  0.15821344647E+03  0.69152596697E+03  0.65864270000E+03 0.  1.
    8880022    1    1    2    0    0  0.90517012598E+02  0.10570303927E+03  0.89193094127E+03  0.91558665297E+03  0.15294330000E+03 0.  0.
<mgrwt>
<rscale>  0 0.50116144E+03</rscale>
<asrwt>0</asrwt>
<pdfrwt beam="1">  1        2 0.20440438E+00 0.67318398E+03</pdfrwt>
<pdfrwt beam="2">  1       -2 0.42843711E-01 0.67318398E+03</pdfrwt>
<totfact> 0.84189412E+01</totfact>
</mgrwt>
</event>
<event>
 4    2  0.3855935E-007  0.8983014E+03  0.7818608E-02  0.9528764E-01
          2   -1    0    0  501    0  0.00000000000E+00  0.00000000000E+00  0.14819335567E+04  0.14819335567E+04  0.25500000000E-02 0. -1.
         -2   -1    0    0    0  501 -0.00000000000E+00 -0.00000000000E+00 -0.48550444335E+03  0.48550444336E+03  0.25500000000E-02 0.  1.
    8880023    1    1    2    0    0 -0.30519076809E+03 -0.52914437139E+03  0.14730173177E+03  0.91029840006E+03  0.65864270000E+03 0.  0.
    8880022    1    1    2    0    0  0.30519076809E+03  0.52914437139E+03  0.84912738154E+03  0.10571396000E+04  0.15294330000E+03 0.  0.
<mgrwt>
<rscale>  0 0.82195989E+03</rscale>
<asrwt>0</asrwt>
<pdfrwt beam="1">  1        2 0.22798977E+00 0.89830138E+03</pdfrwt>
<pdfrwt beam="2">  1       -2 0.74692993E-01 0.89830138E+03</pdfrwt>
<totfact> 0.21089993E+01</totfact>
</mgrwt>
</event>
<event>
 4    2  0.3855935E-007  0.7788775E+03  0.7818608E-02  0.9758480E-01
          2   -1    0    0  501    0  0.00000000000E+00  0.00000000000E+00  0.34379238163E+04  0.34379238163E+04  0.25500000000E-02 0. -1.
         -2   -1    0    0    0  501 -0.00000000000E+00 -0.00000000000E+00 -0.45075511178E+03  0.45075511179E+03  0.25500000000E-02 0.  1.
    8880023    1    1    2    0    0 -0.39429735406E+03  0.13179378904E+03 -0.86124367026E+02  0.78362466724E+03  0.65864270000E+03 0.  0.
    8880022    1    1    2    0    0  0.39429735406E+03 -0.13179378904E+03  0.30732930716E+04  0.31050542609E+04  0.15294330000E+03 0.  0.
<mgrwt>
<rscale>  0 0.67639131E+03</rscale>
<asrwt>0</asrwt>
<pdfrwt beam="1">  1        2 0.52891137E+00 0.77887753E+03</pdfrwt>
<pdfrwt beam="2">  1       -2 0.69346939E-01 0.77887753E+03</pdfrwt>
<totfact> 0.18367815E+00</totfact>
</mgrwt>
</event>
<event>
 4    2  0.1153451E-006  0.8070412E+03  0.7818608E-02  0.9695773E-01
         -2   -1    0    0    0  501 -0.00000000000E+00  0.00000000000E+00  0.19426806457E+04  0.19426806457E+04  0.25500000000E-02 0.  1.
          2   -1    0    0  501    0  0.00000000000E+00 -0.00000000000E+00 -0.16415781414E+04  0.16415781414E+04  0.25500000000E-02 0. -1.
    8880023    1    1    2    0    0 -0.82623972446E+02  0.45899732066E+03  0.18184571951E+04  0.19894979361E+04  0.65864270000E+03 0.  1.
    8880022    1    1    2    0    0  0.82623972446E+02 -0.45899732066E+03 -0.15173546908E+04  0.15947608510E+04  0.15294330000E+03 0.  0.
<mgrwt>
<rscale>  0 0.71269002E+03</rscale>
<asrwt>0</asrwt>
<pdfrwt beam="1">  1        2 0.25255048E+00 0.80704118E+03</pdfrwt>
<pdfrwt beam="2">  1       -2 0.29887394E+00 0.80704118E+03</pdfrwt>
<totfact> 0.35641075E-01</totfact>
</mgrwt>
</event>
<event>
 4    2  0.3855935E-007  0.1082363E+04  0.7818608E-02  0.9280952E-01
         -2   -1    0    0    0  501 -0.00000000000E+00  0.00000000000E+00  0.59836400409E+03  0.59836400409E+03  0.25500000000E-02 0.  1.
          2   -1    0    0  501    0  0.00000000000E+00 -0.00000000000E+00 -0.23868357363E+04  0.23868357363E+04  0.25500000000E-02 0. -1.
    8880023    1    1    2    0    0  0.85740086217E+03 -0.50621049442E+02 -0.10290088504E+03  0.10872430857E+04  0.65864270000E+03 0.  0.
    8880022    1    1    2    0    0 -0.85740086217E+03  0.50621049442E+02 -0.16855708472E+04  0.18979566547E+04  0.15294330000E+03 0.  0.
<mgrwt>
<rscale>  0 0.10255554E+04</rscale>
<asrwt>0</asrwt>
<pdfrwt beam="1">  1        2 0.36720549E+00 0.10823627E+04</pdfrwt>
<pdfrwt beam="2">  1       -2 0.92056002E-01 0.10823627E+04</pdfrwt>
<totfact> 0.40435722E+00</totfact>
</mgrwt>
</event>
<event>
 4    2  0.4861425E-007  0.8541203E+03  0.7818608E-02  0.9604109E-01
         -2   -1    0    0    0  501 -0.00000000000E+00  0.00000000000E+00  0.88878249996E+03  0.88878249996E+03  0.25500000000E-02 0.  1.
          2   -1    0    0  501    0  0.00000000000E+00 -0.00000000000E+00 -0.34852207241E+04  0.34852207241E+04  0.25500000000E-02 0. -1.
    8880023    1    1    2    0    0 -0.15276869892E+03  0.52189367128E+03  0.65343143446E+03  0.10754041683E+04  0.65864270000E+03 0.  0.
    8880022    1    1    2    0    0  0.15276869892E+03 -0.52189367128E+03 -0.32498696586E+04  0.32985990558E+04  0.15294330000E+03 0.  0.
<mgrwt>
<rscale>  0 0.77024809E+03</rscale>
<asrwt>0</asrwt>
<pdfrwt beam="1">  1        2 0.53618780E+00 0.85412030E+03</pdfrwt>
<pdfrwt beam="2">  1       -2 0.13673577E+00 0.85412030E+03</pdfrwt>
<totfact> 0.33764207E-01</totfact>
</mgrwt>
</event>
<event>
 4    2  0.3855935E-007  0.7069002E+03  0.7818608E-02  0.9969697E-01
          2   -1    0    0  501    0  0.00000000000E+00  0.00000000000E+00  0.17896042826E+04  0.17896042826E+04  0.25500000000E-02 0. -1.
         -2   -1    0    0    0  501 -0.00000000000E+00 -0.00000000000E+00 -0.20071723150E+03  0.20071723152E+03  0.25500000000E-02 0.  1.
    8880023    1    1    2    0    0 -0.23707592652E+03 -0.98451278120E+02  0.51225272369E+03  0.87298952358E+03  0.65864270000E+03 0.  1.
    8880022    1    1    2    0    0  0.23707592652E+03  0.98451278120E+02  0.10766343274E+04  0.11173319906E+04  0.15294330000E+03 0.  0.
<mgrwt>
<rscale>  0 0.56999165E+03</rscale>
<asrwt>0</asrwt>
<pdfrwt beam="1">  1        2 0.27532374E+00 0.70690017E+03</pdfrwt>
<pdfrwt beam="2">  1       -2 0.30879573E-01 0.70690017E+03</pdfrwt>
<totfact> 0.87286635E+01</totfact>
</mgrwt>
</event>
<event>
 4    2  0.3855935E-007  0.9017602E+03  0.7818608E-02  0.9523212E-01
          2   -1    0    0  501    0  0.00000000000E+00  0.00000000000E+00  0.15051460293E+04  0.15051460293E+04  0.25500000000E-02 0. -1.
         -2   -1    0    0    0  501 -0.00000000000E+00 -0.00000000000E+00 -0.10232367201E+04  0.10232367201E+04  0.25500000000E-02 0.  1.
    8880023    1    1    2    0    0 -0.60990383918E+03 -0.85899055701E+02 -0.73010565600E+03  0.11602697169E+04  0.65864270000E+03 0.  0.
    8880022    1    1    2    0    0  0.60990383918E+03  0.85899055701E+02  0.12120149652E+04  0.13681130325E+04  0.15294330000E+03 0.  0.
<mgrwt>
<rscale>  0 0.82593936E+03</rscale>
<asrwt>0</asrwt>
<pdfrwt beam="1">  1        2 0.23156093E+00 0.90176025E+03</pdfrwt>
<pdfrwt beam="2">  1       -2 0.15742103E+00 0.90176025E+03</pdfrwt>
<totfact> 0.33357714E+00</totfact>
</mgrwt>
</event>
<event>
 4    2  0.3855935E-007  0.7840221E+03  0.7818608E-02  0.9746472E-01
          2   -1    0    0  501    0  0.00000000000E+00  0.00000000000E+00  0.12214766173E+04  0.12214766173E+04  0.25500000000E-02 0. -1.
         -2   -1    0    0    0  501 -0.00000000000E+00 -0.00000000000E+00 -0.40265882999E+03  0.40265883000E+03  0.25500000000E-02 0.  1.
    8880023    1    1    2    0    0 -0.29421430247E+03  0.30711305644E+03  0.12182538728E+03  0.79343059965E+03  0.65864270000E+03 0.  0.
    8880022    1    1    2    0    0  0.29421430247E+03 -0.30711305644E+03  0.69699240005E+03  0.83070484768E+03  0.15294330000E+03 0.  0.
<mgrwt>
<rscale>  0 0.68315992E+03</rscale>
<asrwt>0</asrwt>
<pdfrwt beam="1">  1        2 0.18791948E+00 0.78402212E+03</pdfrwt>
<pdfrwt beam="2">  1       -2 0.61947513E-01 0.78402212E+03</pdfrwt>
<totfact> 0.45169859E+01</totfact>
</mgrwt>
</event>
<event>
 4    2  0.3855935E-007  0.7036560E+03  0.7818608E-02  0.9982360E-01
          2   -1    0    0  501    0  0.00000000000E+00  0.00000000000E+00  0.15813053752E+04  0.15813053752E+04  0.25500000000E-02 0. -1.
         -2   -1    0    0    0  501 -0.00000000000E+00 -0.00000000000E+00 -0.41681286203E+03  0.41681286204E+03  0.25500000000E-02 0.  1.
    8880023    1    1    2    0    0 -0.24045591606E+03 -0.59182087469E+02 -0.90831536136E+02  0.70949428558E+03  0.65864270000E+03 0.  1.
    8880022    1    1    2    0    0  0.24045591606E+03  0.59182087469E+02  0.12553240493E+04  0.12886239517E+04  0.15294330000E+03 0.  0.
<mgrwt>
<rscale>  0 0.56430539E+03</rscale>
<asrwt>0</asrwt>
<pdfrwt beam="1">  1        2 0.24327775E+00 0.70365600E+03</pdfrwt>
<pdfrwt beam="2">  1       -2 0.64125056E-01 0.70365600E+03</pdfrwt>
<totfact> 0.26469956E+01</totfact>
</mgrwt>
</event>
<event>
 4    2  0.3855935E-007  0.1039424E+04  0.7818608E-02  0.9331704E-01
          2   -1    0    0  501    0  0.00000000000E+00  0.00000000000E+00  0.30363121267E+04  0.30363121267E+04  0.25500000000E-02 0. -1.
         -2   -1    0    0    0  501 -0.00000000000E+00 -0.00000000000E+00 -0.34432301658E+03  0.34432301659E+03  0.25500000000E-02 0.  1.
    8880023    1    1    2    0    0 -0.80213322458E+03  0.56349101619E+02  0.77604332760E+03  0.12971686027E+04  0.65864270000E+03 0.  0.
    8880022    1    1    2    0    0  0.80213322458E+03 -0.56349101619E+02  0.19159457825E+04  0.20834665406E+04  0.15294330000E+03 0.  0.
<mgrwt>
<rscale>  0 0.97915803E+03</rscale>
<asrwt>0</asrwt>
<pdfrwt beam="1">  1        2 0.46712494E+00 0.10394244E+04</pdfrwt>
<pdfrwt beam="2">  1       -2 0.52972772E-01 0.10394244E+04</pdfrwt>
<totfact> 0.56535235E+00</totfact>
</mgrwt>
</event>
<event>
 4    2  0.3855935E-007  0.7518506E+03  0.7818608E-02  0.9826681E-01
          2   -1    0    0  501    0  0.00000000000E+00  0.00000000000E+00  0.79560371936E+03  0.79560371936E+03  0.25500000000E-02 0. -1.
         -2   -1    0    0    0  501 -0.00000000000E+00 -0.00000000000E+00 -0.81335422718E+03  0.81335422718E+03  0.25500000000E-02 0.  1.
    8880023    1    1    2    0    0  0.31618071659E+03  0.17747915881E+03 -0.56104871037E+03  0.93811244476E+03  0.65864270000E+03 0.  0.
    8880022    1    1    2    0    0 -0.31618071659E+03 -0.17747915881E+03  0.54329820255E+03  0.67084550178E+03  0.15294330000E+03 0.  0.
<mgrwt>
<rscale>  0 0.63950115E+03</rscale>
<asrwt>0</asrwt>
<pdfrwt beam="1">  1        2 0.12240057E+00 0.75185059E+03</pdfrwt>
<pdfrwt beam="2">  1       -2 0.12513142E+00 0.75185059E+03</pdfrwt>
<totfact> 0.16836768E+01</totfact>
</mgrwt>
</event>
<event>
 4    2  0.3855935E-007  0.8703106E+03  0.7818608E-02  0.9575480E-01
          2   -1    0    0  501    0  0.00000000000E+00  0.00000000000E+00  0.26842584825E+04  0.26842584825E+04  0.25500000000E-02 0. -1.
         -2   -1    0    0    0  501 -0.00000000000E+00 -0.00000000000E+00 -0.26596011343E+03  0.26596011344E+03  0.25500000000E-02 0.  1.
    8880023    1    1    2    0    0 -0.47344571213E+01 -0.56886543380E+03  0.64963613390E+03  0.10860329689E+04  0.65864270000E+03 0.  0.
    8880022    1    1    2    0    0  0.47344571213E+01  0.56886543380E+03  0.17686622351E+04  0.18641856270E+04  0.15294330000E+03 0.  0.
<mgrwt>
<rscale>  0 0.78940580E+03</rscale>
<asrwt>0</asrwt>
<pdfrwt beam="1">  1        2 0.41296283E+00 0.87031058E+03</pdfrwt>
<pdfrwt beam="2">  1       -2 0.40916942E-01 0.87031058E+03</pdfrwt>
<totfact> 0.15853033E+01</totfact>
</mgrwt>
</event>
<event>
 4    2  0.3855935E-007  0.7009493E+03  0.7818608E-02  0.9993285E-01
          2   -1    0    0  501    0  0.00000000000E+00  0.00000000000E+00  0.13116914882E+04  0.13116914882E+04  0.25500000000E-02 0. -1.
         -2   -1    0    0    0  501 -0.00000000000E+00 -0.00000000000E+00 -0.33730111170E+03  0.33730111171E+03  0.25500000000E-02 0.  1.
    8880023    1    1    2    0    0 -0.12173156862E+03 -0.20664270144E+03  0.74124151572E+02  0.70485769980E+03  0.65864270000E+03 0.  0.
    8880022    1    1    2    0    0  0.12173156862E+03  0.20664270144E+03  0.90026622493E+03  0.94413490012E+03  0.15294330000E+03 0.  0.
<mgrwt>
<rscale>  0 0.55945636E+03</rscale>
<asrwt>0</asrwt>
<pdfrwt beam="1">  1        2 0.20179869E+00 0.70094935E+03</pdfrwt>
<pdfrwt beam="2">  1       -2 0.51892479E-01 0.70094935E+03</pdfrwt>
<totfact> 0.58410919E+01</totfact>
</mgrwt>
</event>
<event>
 4    2  0.3855935E-007  0.9593006E+03  0.7818608E-02  0.9436857E-01
          2   -1    0    0  501    0  0.00000000000E+00  0.00000000000E+00  0.15895868039E+04  0.15895868039E+04  0.25500000000E-02 0. -1.
         -2   -1    0    0    0  501 -0.00000000000E+00 -0.00000000000E+00 -0.56079288096E+03  0.56079288096E+03  0.25500000000E-02 0.  1.
    8880023    1    1    2    0    0  0.35936028188E+03 -0.59775218199E+03  0.79589189382E+02  0.96259655547E+03  0.65864270000E+03 0.  1.
    8880022    1    1    2    0    0 -0.35936028188E+03  0.59775218199E+03  0.94920473360E+03  0.11877831294E+04  0.15294330000E+03 0.  0.
<mgrwt>
<rscale>  0 0.89103588E+03</rscale>
<asrwt>0</asrwt>
<pdfrwt beam="1">  1        2 0.24455181E+00 0.95930063E+03</pdfrwt>
<pdfrwt beam="2">  1       -2 0.86275829E-01 0.95930063E+03</pdfrwt>
<totfact> 0.13181158E+01</totfact>
</mgrwt>
</event>
<event>
 4    2  0.3855935E-007  0.7264542E+03  0.7818608E-02  0.9901323E-01
         -2   -1    0    0    0  501 -0.00000000000E+00  0.00000000000E+00  0.21160258338E+03  0.21160258339E+03  0.25500000000E-02 0.  1.
          2   -1    0    0  501    0  0.00000000000E+00 -0.00000000000E+00 -0.27421462008E+04  0.27421462008E+04  0.25500000000E-02 0. -1.
    8880023    1    1    2    0    0  0.71795598020E+02  0.29794452439E+03 -0.47069031024E+03  0.86561257034E+03  0.65864270000E+03 0.  1.
    8880022    1    1    2    0    0 -0.71795598020E+02 -0.29794452439E+03 -0.20598533072E+04  0.20881362138E+04  0.15294330000E+03 0.  0.
<mgrwt>
<rscale>  0 0.60197216E+03</rscale>
<asrwt>0</asrwt>
<pdfrwt beam="1">  1        2 0.42186862E+00 0.72645423E+03</pdfrwt>
<pdfrwt beam="2">  1       -2 0.32554246E-01 0.72645423E+03</pdfrwt>
<totfact> 0.23244260E+01</totfact>
</mgrwt>
</event>
<event>
 4    2  0.3855935E-007  0.1197106E+04  0.7818608E-02  0.9159941E-01
          2   -1    0    0  501    0  0.00000000000E+00  0.00000000000E+00  0.29144102441E+04  0.29144102441E+04  0.25500000000E-02 0. -1.
         -2   -1    0    0    0  501 -0.00000000000E+00 -0.00000000000E+00 -0.52222024834E+03  0.52222024835E+03  0.25500000000E-02 0.  1.
    8880023    1    1    2    0    0 -0.51633759064E+03 -0.85594883329E+03  0.51253681731E+03  0.13022123898E+04  0.65864270000E+03 0.  0.
    8880022    1    1    2    0    0  0.51633759064E+03  0.85594883329E+03  0.18796531784E+04  0.21344181027E+04  0.15294330000E+03 0.  0.
<mgrwt>
<rscale>  0 0.11476649E+04</rscale>
<asrwt>0</asrwt>
<pdfrwt beam="1">  1        2 0.44837082E+00 0.11971061E+04</pdfrwt>
<pdfrwt beam="2">  1       -2 0.80341575E-01 0.11971061E+04</pdfrwt>
<totfact> 0.26743661E+00</totfact>
</mgrwt>
</event>
<event>
 4    2  0.3855935E-007  0.7309762E+03  0.7818608E-02  0.9887058E-01
         -2   -1    0    0    0  501 -0.00000000000E+00  0.00000000000E+00  0.13763996191E+04  0.13763996191E+04  0.25500000000E-02 0.  1.
          2   -1    0    0  501    0  0.00000000000E+00 -0.00000000000E+00 -0.25679720522E+03  0.25679720523E+03  0.25500000000E-02 0. -1.
    8880023    1    1    2    0    0 -0.28511601574E+03  0.13865374139E+03  0.40275870503E+03  0.83459018876E+03  0.65864270000E+03 0.  0.
    8880022    1    1    2    0    0  0.28511601574E+03 -0.13865374139E+03  0.71684370880E+03  0.79860663552E+03  0.15294330000E+03 0.  0.
<mgrwt>
<rscale>  0 0.60892625E+03</rscale>
<asrwt>0</asrwt>
<pdfrwt beam="1">  1        2 0.39507261E-01 0.73097620E+03</pdfrwt>
<pdfrwt beam="2">  1       -2 0.21175379E+00 0.73097620E+03</pdfrwt>
<totfact> 0.14871638E+01</totfact>
</mgrwt>
</event>
<event>
 4    2  0.3855935E-007  0.9273090E+03  0.7818608E-02  0.9483542E-01
         -2   -1    0    0    0  501 -0.00000000000E+00  0.00000000000E+00  0.85955771513E+03  0.85955771514E+03  0.25500000000E-02 0.  1.
          2   -1    0    0  501    0  0.00000000000E+00 -0.00000000000E+00 -0.12666922928E+04  0.12666922928E+04  0.25500000000E-02 0. -1.
    8880023    1    1    2    0    0  0.59325569748E+03  0.27228566679E+03  0.45596967079E+03  0.10333490958E+04  0.65864270000E+03 0.  0.
    8880022    1    1    2    0    0 -0.59325569748E+03 -0.27228566679E+03 -0.86310424846E+03  0.10929009121E+04  0.15294330000E+03 0.  0.
<mgrwt>
<rscale>  0 0.85508163E+03</rscale>
<asrwt>0</asrwt>
<pdfrwt beam="1">  1        2 0.19487574E+00 0.92730902E+03</pdfrwt>
<pdfrwt beam="2">  1       -2 0.13223965E+00 0.92730902E+03</pdfrwt>
<totfact> 0.71889439E+00</totfact>
</mgrwt>
</event>
<event>
 4    2  0.3855935E-007  0.7450789E+03  0.7818608E-02  0.9845392E-01
         -2   -1    0    0    0  501 -0.00000000000E+00  0.00000000000E+00  0.13015023368E+03  0.13015023371E+03  0.25500000000E-02 0.  1.
          2   -1    0    0  501    0  0.00000000000E+00 -0.00000000000E+00 -0.33625172488E+04  0.33625172488E+04  0.25500000000E-02 0. -1.
    8880023    1    1    2    0    0  0.33892131133E+03  0.80403181766E+02 -0.11126209836E+04  0.13390548855E+04  0.65864270000E+03 0.  1.
    8880022    1    1    2    0    0 -0.33892131133E+03 -0.80403181766E+02 -0.21197460315E+04  0.21536125970E+04  0.15294330000E+03 0.  0.
<mgrwt>
<rscale>  0 0.62982407E+03</rscale>
<asrwt>0</asrwt>
<pdfrwt beam="1">  1        2 0.51731028E+00 0.74507888E+03</pdfrwt>
<pdfrwt beam="2">  1       -2 0.20023115E-01 0.74507888E+03</pdfrwt>
<totfact> 0.23079239E+01</totfact>
</mgrwt>
</event>
<event>
 4    2  0.3855935E-007  0.6929810E+03  0.7818608E-02  0.1002767E+00
          2   -1    0    0  501    0  0.00000000000E+00  0.00000000000E+00  0.90245912295E+03  0.90245912295E+03  0.25500000000E-02 0. -1.
         -2   -1    0    0    0  501 -0.00000000000E+00 -0.00000000000E+00 -0.41740551878E+03  0.41740551879E+03  0.25500000000E-02 0.  1.
    8880023    1    1    2    0    0 -0.18277123767E+03  0.11404897561E+03 -0.78538808925E+02  0.69741741083E+03  0.65864270000E+03 0.  1.
    8880022    1    1    2    0    0  0.18277123767E+03 -0.11404897561E+03  0.56359241310E+03  0.62244723091E+03  0.15294330000E+03 0.  0.
<mgrwt>
<rscale>  0 0.54453545E+03</rscale>
<asrwt>0</asrwt>
<pdfrwt beam="1">  1        2 0.13883986E+00 0.69298102E+03</pdfrwt>
<pdfrwt beam="2">  1       -2 0.64216234E-01 0.69298102E+03</pdfrwt>
<totfact> 0.66677808E+01</totfact>
</mgrwt>
</event>
<event>
 4    2  0.3855935E-007  0.7094576E+03  0.7818608E-02  0.9960021E-01
         -2   -1    0    0    0  501 -0.00000000000E+00  0.00000000000E+00  0.48426751261E+03  0.48426751261E+03  0.25500000000E-02 0.  1.
          2   -1    0    0  501    0  0.00000000000E+00 -0.00000000000E+00 -0.83207808150E+03  0.83207808151E+03  0.25500000000E-02 0. -1.
    8880023    1    1    2    0    0  0.28871552752E+02  0.26208073743E+03  0.15702296221E+03  0.72662665545E+03  0.65864270000E+03 0.  1.
    8880022    1    1    2    0    0 -0.28871552752E+02 -0.26208073743E+03 -0.50483353110E+03  0.58971893867E+03  0.15294330000E+03 0.  0.
<mgrwt>
<rscale>  0 0.57438559E+03</rscale>
<asrwt>0</asrwt>
<pdfrwt beam="1">  1        2 0.12801201E+00 0.70945760E+03</pdfrwt>
<pdfrwt beam="2">  1       -2 0.74502694E-01 0.70945760E+03</pdfrwt>
<totfact> 0.53857289E+01</totfact>
</mgrwt>
</event>
<event>
 4    2  0.3855935E-007  0.8463624E+03  0.7818608E-02  0.9618298E-01
         -2   -1    0    0    0  501 -0.00000000000E+00  0.00000000000E+00  0.22821022617E+03  0.22821022618E+03  0.25500000000E-02 0.  1.
          2   -1    0    0  501    0  0.00000000000E+00 -0.00000000000E+00 -0.25958342423E+04  0.25958342423E+04  0.25500000000E-02 0. -1.
    8880023    1    1    2    0    0 -0.52930200293E+03  0.48564466749E+02 -0.81147814891E+03  0.11725297907E+04  0.65864270000E+03 0.  0.
    8880022    1    1    2    0    0  0.52930200293E+03 -0.48564466749E+02 -0.15561458672E+04  0.16515146777E+04  0.15294330000E+03 0.  0.
<mgrwt>
<rscale>  0 0.76096840E+03</rscale>
<asrwt>0</asrwt>
<pdfrwt beam="1">  1        2 0.39935909E+00 0.84636241E+03</pdfrwt>
<pdfrwt beam="2">  1       -2 0.35109267E-01 0.84636241E+03</pdfrwt>
<totfact> 0.24069351E+01</totfact>
</mgrwt>
</event>
<event>
 4    2  0.3855935E-007  0.7185802E+03  0.7818608E-02  0.9927420E-01
         -2   -1    0    0    0  501 -0.00000000000E+00  0.00000000000E+00  0.18445127002E+03  0.18445127003E+03  0.25500000000E-02 0.  1.
          2   -1    0    0  501    0  0.00000000000E+00 -0.00000000000E+00 -0.20811524087E+04  0.20811524087E+04  0.25500000000E-02 0. -1.
    8880023    1    1    2    0    0 -0.28622517865E+03  0.24949154875E+02 -0.62322905939E+03  0.95119502730E+03  0.65864270000E+03 0.  1.
    8880022    1    1    2    0    0  0.28622517865E+03 -0.24949154875E+02 -0.12734720792E+04  0.13144086514E+04  0.15294330000E+03 0.  0.
<mgrwt>
<rscale>  0 0.58950624E+03</rscale>
<asrwt>0</asrwt>
<pdfrwt beam="1">  1        2 0.32017728E+00 0.71858021E+03</pdfrwt>
<pdfrwt beam="2">  1       -2 0.28377120E-01 0.71858021E+03</pdfrwt>
<totfact> 0.70712701E+01</totfact>
</mgrwt>
</event>
<event>
 4    2  0.3855935E-007  0.7243238E+03  0.7818608E-02  0.9908218E-01
         -2   -1    0    0    0  501 -0.00000000000E+00  0.00000000000E+00  0.92339496237E+03  0.92339496237E+03  0.25500000000E-02 0.  1.
          2   -1    0    0  501    0  0.00000000000E+00 -0.00000000000E+00 -0.47556732617E+03  0.47556732617E+03  0.25500000000E-02 0. -1.
    8880023    1    1    2    0    0 -0.10092361788E+03  0.28398796531E+03  0.67632919012E+03  0.99099249279E+03  0.65864270000E+03 0.  1.
    8880022    1    1    2    0    0  0.10092361788E+03 -0.28398796531E+03 -0.22850155393E+03  0.40796979575E+03  0.15294330000E+03 0.  0.
<mgrwt>
<rscale>  0 0.59864639E+03</rscale>
<asrwt>0</asrwt>
<pdfrwt beam="1">  1        2 0.73164205E-01 0.72432379E+03</pdfrwt>
<pdfrwt beam="2">  1       -2 0.14206076E+00 0.72432379E+03</pdfrwt>
<totfact> 0.22906348E+01</totfact>
</mgrwt>
</event>
<event>
 4    2  0.3855935E-007  0.6745265E+03  0.7818608E-02  0.1012606E+00
          2   -1    0    0  501    0  0.00000000000E+00  0.00000000000E+00  0.26825500139E+03  0.26825500141E+03  0.25500000000E-02 0. -1.
         -2   -1    0    0    0  501 -0.00000000000E+00 -0.00000000000E+00 -0.16601880636E+04  0.16601880636E+04  0.25500000000E-02 0.  1.
    8880023    1    1    2    0    0  0.29154304744E+02 -0.14256874927E+03 -0.15327980568E+04  0.16746509818E+04  0.65864270000E+03 0.  1.
    8880022    1    1    2    0    0 -0.29154304744E+02  0.14256874927E+03  0.14086499461E+03  0.25379208316E+03  0.15294330000E+03 0.  0.
<mgrwt>
<rscale>  0 0.50451784E+03</rscale>
<asrwt>0</asrwt>
<pdfrwt beam="1">  1        2 0.41270001E-01 0.67452652E+03</pdfrwt>
<pdfrwt beam="2">  1       -2 0.25541354E+00 0.67452652E+03</pdfrwt>
<totfact> 0.76798825E+00</totfact>
</mgrwt>
</event>
<event>
 4    2  0.3855935E-007  0.9729056E+03  0.7818608E-02  0.9417897E-01
          2   -1    0    0  501    0  0.00000000000E+00  0.00000000000E+00  0.22351471818E+04  0.22351471818E+04  0.25500000000E-02 0. -1.
         -2   -1    0    0    0  501 -0.00000000000E+00 -0.00000000000E+00 -0.43059524694E+03  0.43059524695E+03  0.25500000000E-02 0.  1.
    8880023    1    1    2    0    0 -0.28448860666E+03 -0.65711594029E+03  0.34399920483E+03  0.10319306108E+04  0.65864270000E+03 0.  0.
    8880022    1    1    2    0    0  0.28448860666E+03  0.65711594029E+03  0.14605527301E+04  0.16338118180E+04  0.15294330000E+03 0.  0.
<mgrwt>
<rscale>  0 0.90617373E+03</rscale>
<asrwt>0</asrwt>
<pdfrwt beam="1">  1        2 0.34386879E+00 0.97290561E+03</pdfrwt>
<pdfrwt beam="2">  1       -2 0.66245423E-01 0.97290561E+03</pdfrwt>
<totfact> 0.10441240E+01</totfact>
</mgrwt>
</event>
<event>
 4    2  0.3855935E-007  0.8143197E+03  0.7818608E-02  0.9680648E-01
          2   -1    0    0  501    0  0.00000000000E+00  0.00000000000E+00  0.23054623858E+04  0.23054623858E+04  0.25500000000E-02 0. -1.
         -2   -1    0    0    0  501 -0.00000000000E+00 -0.00000000000E+00 -0.25640545182E+03  0.25640545184E+03  0.25500000000E-02 0.  1.
    8880023    1    1    2    0    0 -0.25999135947E+02 -0.47815307943E+03  0.55488341009E+03  0.98539947610E+03  0.65864270000E+03 0.  0.
    8880022    1    1    2    0    0  0.25999135947E+02  0.47815307943E+03  0.14941735239E+04  0.15764683615E+04  0.15294330000E+03 0.  0.
<mgrwt>
<rscale>  0 0.72180754E+03</rscale>
<asrwt>0</asrwt>
<pdfrwt beam="1">  1        2 0.35468652E+00 0.81431967E+03</pdfrwt>
<pdfrwt beam="2">  1       -2 0.39446992E-01 0.81431967E+03</pdfrwt>
<totfact> 0.28188354E+01</totfact>
</mgrwt>
</event>
<event>
 4    2  0.3855935E-007  0.1089850E+04  0.7818608E-02  0.9272441E-01
          2   -1    0    0  501    0  0.00000000000E+00  0.00000000000E+00  0.25367477984E+04  0.25367477984E+04  0.25500000000E-02 0. -1.
         -2   -1    0    0    0  501 -0.00000000000E+00 -0.00000000000E+00 -0.41300804646E+03  0.41300804647E+03  0.25500000000E-02 0.  1.
    8880023    1    1    2    0    0  0.83853271578E+03 -0.22544701348E+03  0.77077522215E+03  0.13348663306E+04  0.65864270000E+03 0.  0.
    8880022    1    1    2    0    0 -0.83853271578E+03  0.22544701348E+03  0.13529645298E+04  0.16148895142E+04  0.15294330000E+03 0.  0.
<mgrwt>
<rscale>  0 0.10336002E+04</rscale>
<asrwt>0</asrwt>
<pdfrwt beam="1">  1        2 0.39026890E+00 0.10898503E+04</pdfrwt>
<pdfrwt beam="2">  1       -2 0.63539699E-01 0.10898503E+04</pdfrwt>
<totfact> 0.76065106E+00</totfact>
</mgrwt>
</event>
<event>
 4    2  0.3855935E-007  0.8129837E+03  0.7818608E-02  0.9683395E-01
         -2   -1    0    0    0  501 -0.00000000000E+00  0.00000000000E+00  0.30970156152E+03  0.30970156153E+03  0.25500000000E-02 0.  1.
          2   -1    0    0  501    0  0.00000000000E+00 -0.00000000000E+00 -0.25655383563E+04  0.25655383563E+04  0.25500000000E-02 0. -1.
    8880023    1    1    2    0    0 -0.15982929650E+03 -0.44898428983E+03 -0.31660686192E+03  0.87245768253E+03  0.65864270000E+03 0.  1.
    8880022    1    1    2    0    0  0.15982929650E+03  0.44898428983E+03 -0.19392299329E+04  0.20027822353E+04  0.15294330000E+03 0.  0.
<mgrwt>
<rscale>  0 0.72014100E+03</rscale>
<asrwt>0</asrwt>
<pdfrwt beam="1">  1        2 0.39469820E+00 0.81298370E+03</pdfrwt>
<pdfrwt beam="2">  1       -2 0.47646396E-01 0.81298370E+03</pdfrwt>
<totfact> 0.13826777E+01</totfact>
</mgrwt>
</event>
<event>
 4    2  0.3855935E-007  0.8278926E+03  0.7818608E-02  0.9653447E-01
         -2   -1    0    0    0  501 -0.00000000000E+00  0.00000000000E+00  0.19346448467E+04  0.19346448467E+04  0.25500000000E-02 0.  1.
          2   -1    0    0  501    0  0.00000000000E+00 -0.00000000000E+00 -0.55871435524E+03  0.55871435524E+03  0.25500000000E-02 0. -1.
    8880023    1    1    2    0    0  0.49359334291E+03 -0.89227741138E+02  0.16901555406E+04  0.18820286756E+04  0.65864270000E+03 0.  1.
    8880022    1    1    2    0    0 -0.49359334291E+03  0.89227741138E+02 -0.31422504914E+03  0.61133052638E+03  0.15294330000E+03 0.  0.
<mgrwt>
<rscale>  0 0.73857508E+03</rscale>
<asrwt>0</asrwt>
<pdfrwt beam="1">  1        2 0.85956054E-01 0.82789262E+03</pdfrwt>
<pdfrwt beam="2">  1       -2 0.29763767E+00 0.82789262E+03</pdfrwt>
<totfact> 0.18270603E+00</totfact>
</mgrwt>
</event>
<event>
 4    2  0.3855935E-007  0.8169092E+03  0.7818608E-02  0.9675361E-01
         -2   -1    0    0    0  501 -0.00000000000E+00  0.00000000000E+00  0.54935278744E+03  0.54935278745E+03  0.25500000000E-02 0.  1.
          2   -1    0    0  501    0  0.00000000000E+00 -0.00000000000E+00 -0.97691819995E+03  0.97691819996E+03  0.25500000000E-02 0. -1.
    8880023    1    1    2    0    0 -0.39816458888E+03  0.27385293107E+03  0.64995437159E+02  0.81949074480E+03  0.65864270000E+03 0.  1.
    8880022    1    1    2    0    0  0.39816458888E+03 -0.27385293107E+03 -0.49256084967E+03  0.70678024261E+03  0.15294330000E+03 0.  0.
<mgrwt>
<rscale>  0 0.72502926E+03</rscale>
<asrwt>0</asrwt>
<pdfrwt beam="1">  1        2 0.15029511E+00 0.81690922E+03</pdfrwt>
<pdfrwt beam="2">  1       -2 0.84515814E-01 0.81690922E+03</pdfrwt>
<totfact> 0.32131393E+01</totfact>
</mgrwt>
</event>
<event>
 4    2  0.5717514E-007  0.9604175E+03  0.7818608E-02  0.9435281E-01
          2   -1    0    0  501    0  0.00000000000E+00  0.00000000000E+00  0.24312155285E+04  0.24312155285E+04  0.25500000000E-02 0. -1.
         -2   -1    0    0    0  501 -0.00000000000E+00 -0.00000000000E+00 -0.12548233202E+04  0.12548233202E+04  0.25500000000E-02 0.  1.
    8880023    1    1    2    0    0 -0.42996563705E+03 -0.55110898931E+03 -0.10051040622E+04  0.13901927741E+04  0.65864270000E+03 0.  1.
    8880022    1    1    2    0    0  0.42996563705E+03  0.55110898931E+03  0.21814962705E+04  0.22958460746E+04  0.15294330000E+03 0.  0.
<mgrwt>
<rscale>  0 0.89228176E+03</rscale>
<asrwt>0</asrwt>
<pdfrwt beam="1">  1        2 0.37403315E+00 0.96041750E+03</pdfrwt>
<pdfrwt beam="2">  1       -2 0.19304974E+00 0.96041750E+03</pdfrwt>
<totfact> 0.57083026E-01</totfact>
</mgrwt>
</event>
<event>
 4    2  0.3855935E-007  0.7046499E+03  0.7818608E-02  0.9978432E-01
          2   -1    0    0  501    0  0.00000000000E+00  0.00000000000E+00  0.14476335676E+04  0.14476335676E+04  0.25500000000E-02 0. -1.
         -2   -1    0    0    0  501 -0.00000000000E+00 -0.00000000000E+00 -0.11703885116E+04  0.11703885116E+04  0.25500000000E-02 0.  1.
    8880023    1    1    2    0    0 -0.23924753403E+03  0.74040028685E+02 -0.10467865039E+04  0.12618611253E+04  0.65864270000E+03 0.  1.
    8880022    1    1    2    0    0  0.23924753403E+03 -0.74040028685E+02  0.13240315599E+04  0.13561609539E+04  0.15294330000E+03 0.  0.
<mgrwt>
<rscale>  0 0.56606151E+03</rscale>
<asrwt>0</asrwt>
<pdfrwt beam="1">  1        2 0.22271286E+00 0.70464992E+03</pdfrwt>
<pdfrwt beam="2">  1       -2 0.18005977E+00 0.70464992E+03</pdfrwt>
<totfact> 0.25524019E+00</totfact>
</mgrwt>
</event>
<event>
 4    2  0.3855935E-007  0.6779364E+03  0.7818608E-02  0.1010516E+00
          2   -1    0    0  501    0  0.00000000000E+00  0.00000000000E+00  0.53340241342E+03  0.53340241343E+03  0.25500000000E-02 0. -1.
         -2   -1    0    0    0  501 -0.00000000000E+00 -0.00000000000E+00 -0.84886841490E+03  0.84886841491E+03  0.25500000000E-02 0.  1.
    8880023    1    1    2    0    0  0.12648696579E+03  0.98937682871E+02 -0.67703594025E+03  0.95811037374E+03  0.65864270000E+03 0.  1.
    8880022    1    1    2    0    0 -0.12648696579E+03 -0.98937682871E+02  0.36156993877E+03  0.42416045460E+03  0.15294330000E+03 0.  0.
<mgrwt>
<rscale>  0 0.51270139E+03</rscale>
<asrwt>0</asrwt>
<pdfrwt beam="1">  1        2 0.82061910E-01 0.67793645E+03</pdfrwt>
<pdfrwt beam="2">  1       -2 0.13059514E+00 0.67793645E+03</pdfrwt>
<totfact> 0.24976710E+01</totfact>
</mgrwt>
</event>
<event>
 4    2  0.3855935E-007  0.8675206E+03  0.7818608E-02  0.9580323E-01
          2   -1    0    0  501    0  0.00000000000E+00  0.00000000000E+00  0.68464081892E+03  0.68464081893E+03  0.25500000000E-02 0. -1.
         -2   -1    0    0    0  501 -0.00000000000E+00 -0.00000000000E+00 -0.11665166007E+04  0.11665166007E+04  0.25500000000E-02 0.  1.
    8880023    1    1    2    0    0  0.15064217156E+03 -0.54414028041E+03 -0.80449491251E+03  0.11831331198E+04  0.65864270000E+03 0.  0.
    8880022    1    1    2    0    0 -0.15064217156E+03  0.54414028041E+03  0.32261913075E+03  0.66802429982E+03  0.15294330000E+03 0.  0.
<mgrwt>
<rscale>  0 0.78612319E+03</rscale>
<asrwt>0</asrwt>
<pdfrwt beam="1">  1        2 0.10532936E+00 0.86752056E+03</pdfrwt>
<pdfrwt beam="2">  1       -2 0.17946409E+00 0.86752056E+03</pdfrwt>
<totfact> 0.77456894E+00</totfact>
</mgrwt>
</event>
<event>
 4    2  0.3855935E-007  0.6715934E+03  0.7818608E-02  0.1014545E+00
         -2   -1    0    0    0  501 -0.00000000000E+00  0.00000000000E+00  0.97041841575E+02  0.97041841609E+02  0.25500000000E-02 0.  1.
          2   -1    0    0  501    0  0.00000000000E+00 -0.00000000000E+00 -0.23241661077E+04  0.23241661077E+04  0.25500000000E-02 0. -1.
    8880023    1    1    2    0    0  0.10779187752E+03  0.74889359276E+02 -0.12060437409E+04  0.13804271862E+04  0.65864270000E+03 0.  1.
    8880022    1    1    2    0    0 -0.10779187752E+03 -0.74889359276E+02 -0.10210805252E+04  0.10407807632E+04  0.15294330000E+03 0.  0.
<mgrwt>
<rscale>  0 0.49707416E+03</rscale>
<asrwt>0</asrwt>
<pdfrwt beam="1">  1        2 0.35756398E+00 0.67159341E+03</pdfrwt>
<pdfrwt beam="2">  1       -2 0.14929516E-01 0.67159341E+03</pdfrwt>
<totfact> 0.16154140E+02</totfact>
</mgrwt>
</event>
<event>
 4    2  0.3855935E-007  0.6850744E+03  0.7818608E-02  0.1006588E+00
          2   -1    0    0  501    0  0.00000000000E+00  0.00000000000E+00  0.73109549317E+03  0.73109549317E+03  0.25500000000E-02 0. -1.
         -2   -1    0    0    0  501 -0.00000000000E+00 -0.00000000000E+00 -0.72464876214E+03  0.72464876215E+03  0.25500000000E-02 0.  1.
    8880023    1    1    2    0    0 -0.29203705109E+02 -0.18618239304E+03 -0.53051829486E+03  0.86647366221E+03  0.65864270000E+03 0.  1.
    8880022    1    1    2    0    0  0.29203705109E+02  0.18618239304E+03  0.53696502588E+03  0.58927059311E+03  0.15294330000E+03 0.  0.
<mgrwt>
<rscale>  0 0.52853707E+03</rscale>
<asrwt>0</asrwt>
<pdfrwt beam="1">  1        2 0.11247623E+00 0.68507441E+03</pdfrwt>
<pdfrwt beam="2">  1       -2 0.11148442E+00 0.68507441E+03</pdfrwt>
<totfact> 0.25144592E+01</totfact>
</mgrwt>
</event>
<event>
 4    2  0.3855935E-007  0.6613011E+03  0.7818608E-02  0.1022861E+00
          2   -1    0    0  501    0  0.00000000000E+00  0.00000000000E+00  0.37099865094E+03  0.37099865095E+03  0.25500000000E-02 0. -1.
         -2   -1    0    0    0  501 -0.00000000000E+00 -0.00000000000E+00 -0.47891190328E+03  0.47891190329E+03  0.25500000000E-02 0.  1.
    8880023    1    1    2    0    0  0.19222215147E+02  0.56030695821E+02 -0.15135878826E+02  0.66147428788E+03  0.65864270000E+03 0. -1.
    8880022    1    1    2    0    0 -0.19222215147E+02 -0.56030695821E+02 -0.92777373511E+02  0.18843626636E+03  0.15294330000E+03 0.  1.
<mgrwt>
<rscale>  0 0.46668049E+03</rscale>
<asrwt>0</asrwt>
<pdfrwt beam="1">  1        2 0.57076715E-01 0.66130110E+03</pdfrwt>
<pdfrwt beam="2">  1       -2 0.73678754E-01 0.66130110E+03</pdfrwt>
<totfact> 0.14573427E+02</totfact>
</mgrwt>
</event>
<event>
 4    2  0.3855935E-007  0.7512911E+03  0.7818608E-02  0.9828199E-01
         -2   -1    0    0    0  501 -0.00000000000E+00  0.00000000000E+00  0.49618942955E+03  0.49618942956E+03  0.25500000000E-02 0.  1.
          2   -1    0    0  501    0  0.00000000000E+00 -0.00000000000E+00 -0.70063477459E+03  0.70063477460E+03  0.25500000000E-02 0. -1.
    8880023    1    1    2    0    0  0.24447003168E+03  0.26620014158E+03  0.63998436786E+01  0.75131835864E+03  0.65864270000E+03 0.  0.
    8880022    1    1    2    0    0 -0.24447003168E+03 -0.26620014158E+03 -0.21084518872E+03  0.44550584551E+03  0.15294330000E+03 0.  0.
<mgrwt>
<rscale>  0 0.63870930E+03</rscale>
<asrwt>0</asrwt>
<pdfrwt beam="1">  1        2 0.10778996E+00 0.75129110E+03</pdfrwt>
<pdfrwt beam="2">  1       -2 0.76336836E-01 0.75129110E+03</pdfrwt>
<totfact> 0.63622502E+01</totfact>
</mgrwt>
</event>
<event>
 4    2  0.3855935E-007  0.7719642E+03  0.7818608E-02  0.9775063E-01
         -2   -1    0    0    0  501 -0.00000000000E+00  0.00000000000E+00  0.23525009275E+03  0.23525009276E+03  0.25500000000E-02 0.  1.
          2   -1    0    0  501    0  0.00000000000E+00 -0.00000000000E+00 -0.29113128343E+04  0.29113128343E+04  0.25500000000E-02 0. -1.
    8880023    1    1    2    0    0  0.29243578144E+03  0.27676673468E+03 -0.48080475896E+03  0.90945144686E+03  0.65864270000E+03 0.  1.
    8880022    1    1    2    0    0 -0.29243578144E+03 -0.27676673468E+03 -0.21952579826E+04  0.22371114802E+04  0.15294330000E+03 0.  0.
<mgrwt>
<rscale>  0 0.66718125E+03</rscale>
<asrwt>0</asrwt>
<pdfrwt beam="1">  1        2 0.44789426E+00 0.77196419E+03</pdfrwt>
<pdfrwt beam="2">  1       -2 0.36192324E-01 0.77196419E+03</pdfrwt>
<totfact> 0.14974951E+01</totfact>
</mgrwt>
</event>
<event>
 4    2  0.3855935E-007  0.9434169E+03  0.7818608E-02  0.9459650E-01
         -2   -1    0    0    0  501 -0.00000000000E+00  0.00000000000E+00  0.57708169178E+03  0.57708169179E+03  0.25500000000E-02 0.  1.
          2   -1    0    0  501    0  0.00000000000E+00 -0.00000000000E+00 -0.19841126421E+04  0.19841126421E+04  0.25500000000E-02 0. -1.
    8880023    1    1    2    0    0  0.36133957607E+03  0.57066529038E+03  0.53350022546E+02  0.94492412078E+03  0.65864270000E+03 0.  1.
    8880022    1    1    2    0    0 -0.36133957607E+03 -0.57066529038E+03 -0.14603809729E+04  0.16162702132E+04  0.15294330000E+03 0.  0.
<mgrwt>
<rscale>  0 0.87325187E+03</rscale>
<asrwt>0</asrwt>
<pdfrwt beam="1">  1        2 0.30524810E+00 0.94341686E+03</pdfrwt>
<pdfrwt beam="2">  1       -2 0.88781800E-01 0.94341686E+03</pdfrwt>
<totfact> 0.74955303E+00</totfact>
</mgrwt>
</event>
<event>
 4    2  0.3855935E-007  0.8962009E+03  0.7818608E-02  0.9532158E-01
         -2   -1    0    0    0  501 -0.00000000000E+00  0.00000000000E+00  0.41318412300E+03  0.41318412301E+03  0.25500000000E-02 0.  1.
          2   -1    0    0  501    0  0.00000000000E+00 -0.00000000000E+00 -0.26384752331E+04  0.26384752331E+04  0.25500000000E-02 0. -1.
    8880023    1    1    2    0    0 -0.27467395196E+03  0.54214401494E+03 -0.18209962215E+03  0.91451429266E+03  0.65864270000E+03 0.  1.
    8880022    1    1    2    0    0  0.27467395196E+03 -0.54214401494E+03 -0.20431914880E+04  0.21371450635E+04  0.15294330000E+03 0.  0.
<mgrwt>
<rscale>  0 0.81953898E+03</rscale>
<asrwt>0</asrwt>
<pdfrwt beam="1">  1        2 0.40591926E+00 0.89620094E+03</pdfrwt>
<pdfrwt beam="2">  1       -2 0.63566790E-01 0.89620094E+03</pdfrwt>
<totfact> 0.68068109E+00</totfact>
</mgrwt>
</event>
<event>
 4    2  0.3855935E-007  0.9724920E+03  0.7818608E-02  0.9418466E-01
          2   -1    0    0  501    0  0.00000000000E+00  0.00000000000E+00  0.12017641511E+04  0.12017641511E+04  0.25500000000E-02 0. -1.
         -2   -1    0    0    0  501 -0.00000000000E+00 -0.00000000000E+00 -0.64749074313E+03  0.64749074314E+03  0.25500000000E-02 0.  1.
    8880023    1    1    2    0    0 -0.41012950188E+03  0.58628010069E+03  0.55069440816E+03  0.11175889684E+04  0.65864270000E+03 0.  0.
    8880022    1    1    2    0    0  0.41012950188E+03 -0.58628010069E+03  0.35789997701E+01  0.73166592584E+03  0.15294330000E+03 0.  0.
<mgrwt>
<rscale>  0 0.90571477E+03</rscale>
<asrwt>0</asrwt>
<pdfrwt beam="1">  1        2 0.18488679E+00 0.97249204E+03</pdfrwt>
<pdfrwt beam="2">  1       -2 0.99613961E-01 0.97249204E+03</pdfrwt>
<totfact> 0.15697267E+01</totfact>
</mgrwt>
</event>
<event>
 4    2  0.3855935E-007  0.7053484E+03  0.7818608E-02  0.9975698E-01
         -2   -1    0    0    0  501 -0.00000000000E+00  0.00000000000E+00  0.54235349102E+03  0.54235349103E+03  0.25500000000E-02 0.  1.
          2   -1    0    0  501    0  0.00000000000E+00 -0.00000000000E+00 -0.10888005393E+04  0.10888005393E+04  0.25500000000E-02 0. -1.
    8880023    1    1    2    0    0  0.24848285980E+03  0.44299710622E+02  0.27594989645E+03  0.75740659331E+03  0.65864270000E+03 0.  1.
    8880022    1    1    2    0    0 -0.24848285980E+03 -0.44299710622E+02 -0.82239694475E+03  0.87374743703E+03  0.15294330000E+03 0.  0.
<mgrwt>
<rscale>  0 0.56728814E+03</rscale>
<asrwt>0</asrwt>
<pdfrwt beam="1">  1        2 0.16750777E+00 0.70534843E+03</pdfrwt>
<pdfrwt beam="2">  1       -2 0.83438999E-01 0.70534843E+03</pdfrwt>
<totfact> 0.28433731E+01</totfact>
</mgrwt>
</event>
<event>
 4    2  0.4327668E-007  0.7940274E+03  0.7818608E-02  0.9723862E-01
          2   -1    0    0  501    0  0.00000000000E+00  0.00000000000E+00  0.27609109836E+04  0.27609109836E+04  0.25500000000E-02 0. -1.
         -2   -1    0    0    0  501 -0.00000000000E+00 -0.00000000000E+00 -0.80593764509E+03  0.80593764510E+03  0.25500000000E-02 0.  1.
    8880023    1    1    2    0    0  0.28978705807E+02 -0.44252629575E+03 -0.58351599227E+03  0.98537830671E+03  0.65864270000E+03 0.  1.
    8880022    1    1    2    0    0 -0.28978705807E+02  0.44252629575E+03  0.25384893308E+04  0.25814703220E+04  0.15294330000E+03 0.  0.
<mgrwt>
<rscale>  0 0.69613662E+03</rscale>
<asrwt>0</asrwt>
<pdfrwt beam="1">  1        2 0.42475553E+00 0.79402739E+03</pdfrwt>
<pdfrwt beam="2">  1       -2 0.12399041E+00 0.79402739E+03</pdfrwt>
<totfact> 0.12545767E+00</totfact>
</mgrwt>
</event>
<event>
 4    2  0.3855935E-007  0.7567093E+03  0.7818608E-02  0.9813702E-01
          2   -1    0    0  501    0  0.00000000000E+00  0.00000000000E+00  0.22093603226E+04  0.22093603226E+04  0.25500000000E-02 0. -1.
         -2   -1    0    0    0  501 -0.00000000000E+00 -0.00000000000E+00 -0.26850589353E+03  0.26850589355E+03  0.25500000000E-02 0.  1.
    8880023    1    1    2    0    0 -0.37231150660E+03 -0.13526184869E+02  0.34439735632E+03  0.83139555022E+03  0.65864270000E+03 0.  0.
    8880022    1    1    2    0    0  0.37231150660E+03  0.13526184869E+02  0.15964570727E+04  0.16464706659E+04  0.15294330000E+03 0.  0.
<mgrwt>
<rscale>  0 0.64632356E+03</rscale>
<asrwt>0</asrwt>
<pdfrwt beam="1">  1        2 0.33990159E+00 0.75670934E+03</pdfrwt>
<pdfrwt beam="2">  1       -2 0.41308599E-01 0.75670934E+03</pdfrwt>
<totfact> 0.29342299E+01</totfact>
</mgrwt>
</event>
<event>
 4    2  0.3855935E-007  0.7575717E+03  0.7818608E-02  0.9811435E-01
         -2   -1    0    0    0  501 -0.00000000000E+00  0.00000000000E+00  0.38638942341E+03  0.38638942342E+03  0.25500000000E-02 0.  1.
          2   -1    0    0  501    0  0.00000000000E+00 -0.00000000000E+00 -0.94941854527E+03  0.94941854527E+03  0.25500000000E-02 0. -1.
    8880023    1    1    2    0    0  0.37298568878E+03  0.31405974462E+02 -0.17959979013E+03  0.77856981071E+03  0.65864270000E+03 0.  0.
    8880022    1    1    2    0    0 -0.37298568878E+03 -0.31405974462E+02 -0.38342933172E+03  0.55723815798E+03  0.15294330000E+03 0.  0.
<mgrwt>
<rscale>  0 0.64752464E+03</rscale>
<asrwt>0</asrwt>
<pdfrwt beam="1">  1        2 0.14606439E+00 0.75757169E+03</pdfrwt>
<pdfrwt beam="2">  1       -2 0.59444527E-01 0.75757169E+03</pdfrwt>
<totfact> 0.72752929E+01</totfact>
</mgrwt>
</event>
<event>
 4    2  0.3855935E-007  0.7038284E+03  0.7818608E-02  0.9981675E-01
         -2   -1    0    0    0  501 -0.00000000000E+00  0.00000000000E+00  0.10320626300E+03  0.10320626303E+03  0.25500000000E-02 0.  1.
          2   -1    0    0  501    0  0.00000000000E+00 -0.00000000000E+00 -0.37324898776E+04  0.37324898776E+04  0.25500000000E-02 0. -1.
    8880023    1    1    2    0    0  0.17475675844E+03 -0.17613709966E+03 -0.12170013556E+04  0.14058686668E+04  0.65864270000E+03 0.  1.
    8880022    1    1    2    0    0 -0.17475675844E+03  0.17613709966E+03 -0.24122822589E+04  0.24298274738E+04  0.15294330000E+03 0.  0.
<mgrwt>
<rscale>  0 0.56461089E+03</rscale>
<asrwt>0</asrwt>
<pdfrwt beam="1">  1        2 0.57422911E+00 0.70382839E+03</pdfrwt>
<pdfrwt beam="2">  1       -2 0.15877889E-01 0.70382839E+03</pdfrwt>
<totfact> 0.19259007E+01</totfact>
</mgrwt>
</event>
<event>
 4    2  0.3855935E-007  0.6627550E+03  0.7818608E-02  0.1021496E+00
         -2   -1    0    0    0  501 -0.00000000000E+00  0.00000000000E+00  0.20114397298E+04  0.20114397298E+04  0.25500000000E-02 0.  1.
          2   -1    0    0  501    0  0.00000000000E+00 -0.00000000000E+00 -0.72047880628E+03  0.72047880629E+03  0.25500000000E-02 0. -1.
    8880023    1    1    2    0    0 -0.22321524126E+02  0.70254726269E+02  0.19457239248E+04  0.20555013439E+04  0.65864270000E+03 0.  1.
    8880022    1    1    2    0    0  0.22321524126E+02 -0.70254726269E+02 -0.65476300129E+03  0.67641719218E+03  0.15294330000E+03 0.  0.
<mgrwt>
<rscale>  0 0.47150587E+03</rscale>
<asrwt>0</asrwt>
<pdfrwt beam="1">  1        2 0.11084289E+00 0.66275499E+03</pdfrwt>
<pdfrwt beam="2">  1       -2 0.30945226E+00 0.66275499E+03</pdfrwt>
<totfact> 0.11679043E+00</totfact>
</mgrwt>
</event>
<event>
 4    2  0.3855935E-007  0.1377520E+04  0.7818608E-02  0.9001350E-01
          2   -1    0    0  501    0  0.00000000000E+00  0.00000000000E+00  0.14196580896E+04  0.14196580896E+04  0.25500000000E-02 0. -1.
         -2   -1    0    0    0  501 -0.00000000000E+00 -0.00000000000E+00 -0.13166184131E+04  0.13166184131E+04  0.25500000000E-02 0.  1.
    8880023    1    1    2    0    0  0.11980701673E+04  0.16846094440E+03 -0.37307133588E+03  0.14271452776E+04  0.65864270000E+03 0.  0.
    8880022    1    1    2    0    0 -0.11980701673E+04 -0.16846094440E+03  0.47611101231E+03  0.13091312251E+04  0.15294330000E+03 0.  0.
<mgrwt>
<rscale>  0 0.13361879E+04</rscale>
<asrwt>0</asrwt>
<pdfrwt beam="1">  1        2 0.21840894E+00 0.13775200E+04</pdfrwt>
<pdfrwt beam="2">  1       -2 0.20255668E+00 0.13775200E+04</pdfrwt>
<totfact> 0.17200877E+00</totfact>
</mgrwt>
</event>
<event>
 4    2  0.3855935E-007  0.8886325E+03  0.7818608E-02  0.9544532E-01
         -2   -1    0    0    0  501 -0.00000000000E+00  0.00000000000E+00  0.37753048550E+03  0.37753048550E+03  0.25500000000E-02 0.  1.
          2   -1    0    0  501    0  0.00000000000E+00 -0.00000000000E+00 -0.15328793241E+04  0.15328793241E+04  0.25500000000E-02 0. -1.
    8880023    1    1    2    0    0  0.59252764557E+03 -0.69053872559E+02 -0.82015504054E+03  0.12092650433E+04  0.65864270000E+03 0.  0.
    8880022    1    1    2    0    0 -0.59252764557E+03  0.69053872559E+02 -0.33519379805E+03  0.70114476633E+03  0.15294330000E+03 0.  0.
<mgrwt>
<rscale>  0 0.81078779E+03</rscale>
<asrwt>0</asrwt>
<pdfrwt beam="1">  1        2 0.23582758E+00 0.88863246E+03</pdfrwt>
<pdfrwt beam="2">  1       -2 0.58081614E-01 0.88863246E+03</pdfrwt>
<totfact> 0.34037204E+01</totfact>
</mgrwt>
</event>
<event>
 4    2  0.3855935E-007  0.9797748E+03  0.7818608E-02  0.9408510E-01
          2   -1    0    0  501    0  0.00000000000E+00  0.00000000000E+00  0.55696596279E+03  0.55696596280E+03  0.25500000000E-02 0. -1.
         -2   -1    0    0    0  501 -0.00000000000E+00 -0.00000000000E+00 -0.19713597303E+04  0.19713597303E+04  0.25500000000E-02 0.  1.
    8880023    1    1    2    0    0 -0.70156617607E+03  0.18426460093E+03 -0.14898915807E+04  0.17831813344E+04  0.65864270000E+03 0.  1.
    8880022    1    1    2    0    0  0.70156617607E+03 -0.18426460093E+03  0.75497813222E+02  0.74514435875E+03  0.15294330000E+03 0.  0.
<mgrwt>
<rscale>  0 0.91378631E+03</rscale>
<asrwt>0</asrwt>
<pdfrwt beam="1">  1        2 0.85687073E-01 0.97977485E+03</pdfrwt>
<pdfrwt beam="2">  1       -2 0.30328611E+00 0.97977485E+03</pdfrwt>
<totfact> 0.16612739E+00</totfact>
</mgrwt>
</event>
<event>
 4    2  0.3855935E-007  0.7090343E+03  0.7818608E-02  0.9961605E-01
          2   -1    0    0  501    0  0.00000000000E+00  0.00000000000E+00  0.34453269742E+04  0.34453269742E+04  0.25500000000E-02 0. -1.
         -2   -1    0    0    0  501 -0.00000000000E+00 -0.00000000000E+00 -0.16167839042E+03  0.16167839044E+03  0.25500000000E-02 0.  1.
    8880023    1    1    2    0    0  0.23378744110E+03 -0.11942707732E+03  0.66921236897E+03  0.97497425374E+03  0.65864270000E+03 0.  1.
    8880022    1    1    2    0    0 -0.23378744110E+03  0.11942707732E+03  0.26144362148E+04  0.26320311109E+04  0.15294330000E+03 0.  0.
<mgrwt>
<rscale>  0 0.57366339E+03</rscale>
<asrwt>0</asrwt>
<pdfrwt beam="1">  1        2 0.53005024E+00 0.70903427E+03</pdfrwt>
<pdfrwt beam="2">  1       -2 0.24873602E-01 0.70903427E+03</pdfrwt>
<totfact> 0.13921587E+01</totfact>
</mgrwt>
</event>
<event>
 4    2  0.3855935E-007  0.7111837E+03  0.7818608E-02  0.9953631E-01
          2   -1    0    0  501    0  0.00000000000E+00  0.00000000000E+00  0.19231694827E+04  0.19231694828E+04  0.25500000000E-02 0. -1.
         -2   -1    0    0    0  501 -0.00000000000E+00 -0.00000000000E+00 -0.15192071406E+03  0.15192071408E+03  0.25500000000E-02 0.  1.
    8880023    1    1    2    0    0  0.20038273924E+03  0.17837831926E+03  0.87757874743E+03  0.11295692680E+04  0.65864270000E+03 0. -1.
    8880022    1    1    2    0    0 -0.20038273924E+03 -0.17837831926E+03  0.89367002126E+03  0.94552092885E+03  0.15294330000E+03 0.  0.
<mgrwt>
<rscale>  0 0.57731022E+03</rscale>
<asrwt>0</asrwt>
<pdfrwt beam="1">  1        2 0.29587225E+00 0.71118371E+03</pdfrwt>
<pdfrwt beam="2">  1       -2 0.23372416E-01 0.71118371E+03</pdfrwt>
<totfact> 0.12263299E+02</totfact>
</mgrwt>
</event>
<event>
 4    2  0.3855935E-007  0.9019349E+03  0.7818608E-02  0.9522933E-01
          2   -1    0    0  501    0  0.00000000000E+00  0.00000000000E+00  0.13367291081E+04  0.13367291081E+04  0.25500000000E-02 0. -1.
         -2   -1    0    0    0  501 -0.00000000000E+00 -0.00000000000E+00 -0.55041633925E+03  0.55041633925E+03  0.25500000000E-02 0.  1.
    8880023    1    1    2    0    0  0.57686264346E+03 -0.21657738023E+03  0.86220209938E+03  0.12477495492E+04  0.65864270000E+03 0.  0.
    8880022    1    1    2    0    0 -0.57686264346E+03  0.21657738023E+03 -0.75889330566E+02  0.63939589814E+03  0.15294330000E+03 0.  0.
<mgrwt>
<rscale>  0 0.82614001E+03</rscale>
<asrwt>0</asrwt>
<pdfrwt beam="1">  1        2 0.20565063E+00 0.90193485E+03</pdfrwt>
<pdfrwt beam="2">  1       -2 0.84679437E-01 0.90193485E+03</pdfrwt>
<totfact> 0.19219151E+01</totfact>
</mgrwt>
</event>
<event>
 4    2  0.3855935E-007  0.9557551E+03  0.7818608E-02  0.9441882E-01
          2   -1    0    0  501    0  0.00000000000E+00  0.00000000000E+00  0.10004514078E+04  0.10004514078E+04  0.25500000000E-02 0. -1.
         -2   -1    0    0    0  501 -0.00000000000E+00 -0.00000000000E+00 -0.75467527599E+03  0.75467527599E+03  0.25500000000E-02 0.  1.
    8880023    1    1    2    0    0  0.67683689624E+03 -0.14679745909E+03  0.38841576052E+03  0.10316659767E+04  0.65864270000E+03 0. -1.
    8880022    1    1    2    0    0 -0.67683689624E+03  0.14679745909E+03 -0.14263962868E+03  0.72346070716E+03  0.15294330000E+03 0.  1.
<mgrwt>
<rscale>  0 0.88707697E+03</rscale>
<asrwt>0</asrwt>
<pdfrwt beam="1">  1        2 0.15391560E+00 0.95575514E+03</pdfrwt>
<pdfrwt beam="2">  1       -2 0.11610389E+00 0.95575514E+03</pdfrwt>
<totfact> 0.14450156E+01</totfact>
</mgrwt>
</event>
<event>
 4    2  0.3855935E-007  0.8457578E+03  0.7818608E-02  0.9619418E-01
          2   -1    0    0  501    0  0.00000000000E+00  0.00000000000E+00  0.18283069543E+04  0.18283069543E+04  0.25500000000E-02 0. -1.
         -2   -1    0    0    0  501 -0.00000000000E+00 -0.00000000000E+00 -0.35788872183E+03  0.35788872184E+03  0.25500000000E-02 0.  1.
    8880023    1    1    2    0    0  0.50548588234E+03 -0.16118339522E+03  0.30942052714E+03  0.90058166372E+03  0.65864270000E+03 0.  1.
    8880022    1    1    2    0    0 -0.50548588234E+03  0.16118339522E+03  0.11609977053E+04  0.12856140124E+04  0.15294330000E+03 0.  0.
<mgrwt>
<rscale>  0 0.76024225E+03</rscale>
<asrwt>0</asrwt>
<pdfrwt beam="1">  1        2 0.28127799E+00 0.84575781E+03</pdfrwt>
<pdfrwt beam="2">  1       -2 0.55059803E-01 0.84575781E+03</pdfrwt>
<totfact> 0.26275097E+01</totfact>
</mgrwt>
</event>
<event>
 4    2  0.3855935E-007  0.9103549E+03  0.7818608E-02  0.9509609E-01
         -2   -1    0    0    0  501 -0.00000000000E+00  0.00000000000E+00  0.62106172168E+03  0.62106172169E+03  0.25500000000E-02 0.  1.
          2   -1    0    0  501    0  0.00000000000E+00 -0.00000000000E+00 -0.12478929143E+04  0.12478929143E+04  0.25500000000E-02 0. -1.
    8880023    1    1    2    0    0 -0.13972398483E+02 -0.62828380506E+03 -0.78617053875E+03  0.12028341905E+04  0.65864270000E+03 0.  0.
    8880022    1    1    2    0    0  0.13972398483E+02  0.62828380506E+03  0.15933934614E+03  0.66612044546E+03  0.15294330000E+03 0.  0.
<mgrwt>
<rscale>  0 0.83579078E+03</rscale>
<asrwt>0</asrwt>
<pdfrwt beam="1">  1        2 0.19198352E+00 0.91035486E+03</pdfrwt>
<pdfrwt beam="2">  1       -2 0.95547957E-01 0.91035486E+03</pdfrwt>
<totfact> 0.16357134E+01</totfact>
</mgrwt>
</event>
<event>
 4    2  0.3855935E-007  0.1039415E+04  0.7818608E-02  0.9331715E-01
         -2   -1    0    0    0  501 -0.00000000000E+00  0.00000000000E+00  0.83664877479E+03  0.83664877480E+03  0.25500000000E-02 0.  1.
          2   -1    0    0  501    0  0.00000000000E+00 -0.00000000000E+00 -0.25793068516E+04  0.25793068516E+04  0.25500000000E-02 0. -1.
    8880023    1    1    2    0    0 -0.87033277186E+01 -0.80405129770E+03  0.40660006684E+03  0.11161129234E+04  0.65864270000E+03 0.  1.
    8880022    1    1    2    0    0  0.87033277186E+01  0.80405129770E+03 -0.21492581436E+04  0.22998427029E+04  0.15294330000E+03 0.  0.
<mgrwt>
<rscale>  0 0.97914826E+03</rscale>
<asrwt>0</asrwt>
<pdfrwt beam="1">  1        2 0.39681644E+00 0.10394154E+04</pdfrwt>
<pdfrwt beam="2">  1       -2 0.12871520E+00 0.10394154E+04</pdfrwt>
<totfact> 0.13968368E+00</totfact>
</mgrwt>
</event>
<event>
 4    2  0.3855935E-007  0.8187462E+03  0.7818608E-02  0.9671639E-01
         -2   -1    0    0    0  501 -0.00000000000E+00  0.00000000000E+00  0.41206920351E+03  0.41206920352E+03  0.25500000000E-02 0.  1.
          2   -1    0    0  501    0  0.00000000000E+00 -0.00000000000E+00 -0.22364108960E+04  0.22364108960E+04  0.25500000000E-02 0. -1.
    8880023    1    1    2    0    0  0.47186599020E+03  0.11780310752E+03 -0.70199235285E+02  0.82175009811E+03  0.65864270000E+03 0.  1.
    8880022    1    1    2    0    0 -0.47186599020E+03 -0.11780310752E+03 -0.17541424572E+04  0.18267300014E+04  0.15294330000E+03 0.  0.
<mgrwt>
<rscale>  0 0.72730794E+03</rscale>
<asrwt>0</asrwt>
<pdfrwt beam="1">  1        2 0.34406321E+00 0.81874617E+03</pdfrwt>
<pdfrwt beam="2">  1       -2 0.63395263E-01 0.81874617E+03</pdfrwt>
<totfact> 0.11691414E+01</totfact>
</mgrwt>
</event>
<event>
 4    2  0.3855935E-007  0.9182462E+03  0.7818608E-02  0.9497353E-01
         -2   -1    0    0    0  501 -0.00000000000E+00  0.00000000000E+00  0.64590931366E+03  0.64590931367E+03  0.25500000000E-02 0.  1.
          2   -1    0    0  501    0  0.00000000000E+00 -0.00000000000E+00 -0.15494877089E+04  0.15494877089E+04  0.25500000000E-02 0. -1.
    8880023    1    1    2    0    0  0.58097250500E+03  0.26802408140E+03  0.17236318245E+03  0.93428327219E+03  0.65864270000E+03 0.  0.
    8880022    1    1    2    0    0 -0.58097250500E+03 -0.26802408140E+03 -0.10759415777E+04  0.12611137503E+04  0.15294330000E+03 0.  0.
<mgrwt>
<rscale>  0 0.84479233E+03</rscale>
<asrwt>0</asrwt>
<pdfrwt beam="1">  1        2 0.23838272E+00 0.91824624E+03</pdfrwt>
<pdfrwt beam="2">  1       -2 0.99370664E-01 0.91824624E+03</pdfrwt>
<totfact> 0.10026419E+01</totfact>
</mgrwt>
</event>
<event>
 4    2  0.3855935E-007  0.8699724E+03  0.7818608E-02  0.9576065E-01
         -2   -1    0    0    0  501 -0.00000000000E+00  0.00000000000E+00  0.16355190781E+04  0.16355190781E+04  0.25500000000E-02 0.  1.
          2   -1    0    0  501    0  0.00000000000E+00 -0.00000000000E+00 -0.78100723473E+03  0.78100723474E+03  0.25500000000E-02 0. -1.
    8880023    1    1    2    0    0 -0.41640780021E+03  0.38684135580E+03  0.13774584026E+04  0.16291849336E+04  0.65864270000E+03 0.  0.
    8880022    1    1    2    0    0  0.41640780021E+03 -0.38684135580E+03 -0.52294655925E+03  0.78734137925E+03  0.15294330000E+03 0.  0.
<mgrwt>
<rscale>  0 0.78900826E+03</rscale>
<asrwt>0</asrwt>
<pdfrwt beam="1">  1        2 0.12015496E+00 0.86997235E+03</pdfrwt>
<pdfrwt beam="2">  1       -2 0.25161832E+00 0.86997235E+03</pdfrwt>
<totfact> 0.22649302E+00</totfact>
</mgrwt>
</event>
<event>
 4    2  0.3855935E-007  0.6757981E+03  0.7818608E-02  0.1011808E+00
          2   -1    0    0  501    0  0.00000000000E+00  0.00000000000E+00  0.25387854528E+04  0.25387854528E+04  0.25500000000E-02 0. -1.
         -2   -1    0    0    0  501 -0.00000000000E+00 -0.00000000000E+00 -0.86118449961E+02  0.86118449999E+02  0.25500000000E-02 0.  1.
    8880023    1    1    2    0    0 -0.13125176354E+03  0.75272017556E+02  0.21489684882E+04  0.22527247216E+04  0.65864270000E+03 0.  0.
    8880022    1    1    2    0    0  0.13125176354E+03 -0.75272017556E+02  0.30369851463E+03  0.37217918112E+03  0.15294330000E+03 0.  0.
<mgrwt>
<rscale>  0 0.50762412E+03</rscale>
<asrwt>0</asrwt>
<pdfrwt beam="1">  1        2 0.39058242E+00 0.67579813E+03</pdfrwt>
<pdfrwt beam="2">  1       -2 0.13248991E-01 0.67579813E+03</pdfrwt>
<totfact> 0.14951174E+02</totfact>
</mgrwt>
</event>
<event>
 4    2  0.3855935E-007  0.7131399E+03  0.7818608E-02  0.9946521E-01
          2   -1    0    0  501    0  0.00000000000E+00  0.00000000000E+00  0.33174362210E+04  0.33174362210E+04  0.25500000000E-02 0. -1.
         -2   -1    0    0    0  501 -0.00000000000E+00 -0.00000000000E+00 -0.20122586174E+03  0.20122586176E+03  0.25500000000E-02 0.  1.
    8880023    1    1    2    0    0 -0.46361416684E+02 -0.26946034261E+03  0.47026741450E+03  0.85423644537E+03  0.65864270000E+03 0.  1.
    8880022    1    1    2    0    0  0.46361416684E+02  0.26946034261E+03  0.26459429447E+04  0.26644256374E+04  0.15294330000E+03 0.  0.
<mgrwt>
<rscale>  0 0.58058695E+03</rscale>
<asrwt>0</asrwt>
<pdfrwt beam="1">  1        2 0.51037480E+00 0.71313986E+03</pdfrwt>
<pdfrwt beam="2">  1       -2 0.30957825E-01 0.71313986E+03</pdfrwt>
<totfact> 0.11321306E+01</totfact>
</mgrwt>
</event>
<event>
 4    2  0.3855935E-007  0.8244323E+03  0.7818608E-02  0.9660264E-01
          2   -1    0    0  501    0  0.00000000000E+00  0.00000000000E+00  0.31211251901E+04  0.31211251901E+04  0.25500000000E-02 0. -1.
         -2   -1    0    0    0  501 -0.00000000000E+00 -0.00000000000E+00 -0.64891969925E+03  0.64891969925E+03  0.25500000000E-02 0.  1.
    8880023    1    1    2    0    0  0.34786800246E+03  0.35336431222E+03 -0.35354686048E+03  0.89704184579E+03  0.65864270000E+03 0.  0.
    8880022    1    1    2    0    0 -0.34786800246E+03 -0.35336431222E+03  0.28257523513E+04  0.28730030435E+04  0.15294330000E+03 0.  0.
<mgrwt>
<rscale>  0 0.73432750E+03</rscale>
<asrwt>0</asrwt>
<pdfrwt beam="1">  1        2 0.48017310E+00 0.82443234E+03</pdfrwt>
<pdfrwt beam="2">  1       -2 0.99833800E-01 0.82443234E+03</pdfrwt>
<totfact> 0.12770759E+00</totfact>
</mgrwt>
</event>
<event>
 4    2  0.3855935E-007  0.7167501E+03  0.7818608E-02  0.9933740E-01
          2   -1    0    0  501    0  0.00000000000E+00  0.00000000000E+00  0.10936940647E+04  0.10936940647E+04  0.25500000000E-02 0. -1.
         -2   -1    0    0    0  501 -0.00000000000E+00 -0.00000000000E+00 -0.26106604358E+03  0.26106604359E+03  0.25500000000E-02 0.  1.
    8880023    1    1    2    0    0  0.99246546028E+02  0.26470862898E+03  0.41658860836E+03  0.82902159805E+03  0.65864270000E+03 0.  0.
    8880022    1    1    2    0    0 -0.99246546028E+02 -0.26470862898E+03  0.41603941272E+03  0.52573851020E+03  0.15294330000E+03 0.  0.
<mgrwt>
<rscale>  0 0.58653614E+03</rscale>
<asrwt>0</asrwt>
<pdfrwt beam="1">  1        2 0.16826063E+00 0.71675012E+03</pdfrwt>
<pdfrwt beam="2">  1       -2 0.40164006E-01 0.71675012E+03</pdfrwt>
<totfact> 0.13095753E+02</totfact>
</mgrwt>
</event>
<event>
 4    2  0.3855935E-007  0.6784732E+03  0.7818608E-02  0.1010201E+00
         -2   -1    0    0    0  501 -0.00000000000E+00  0.00000000000E+00  0.58573436499E+02  0.58573436554E+02  0.25500000000E-02 0.  1.
          2   -1    0    0  501    0  0.00000000000E+00 -0.00000000000E+00 -0.38065618534E+04  0.38065618534E+04  0.25500000000E-02 0. -1.
    8880023    1    1    2    0    0 -0.97569830087E+02  0.13036808275E+03 -0.22340515145E+04  0.23348045066E+04  0.65864270000E+03 0.  1.
    8880022    1    1    2    0    0  0.97569830087E+02 -0.13036808275E+03 -0.15139369024E+04  0.15303307833E+04  0.15294330000E+03 0.  0.
<mgrwt>
<rscale>  0 0.51394910E+03</rscale>
<asrwt>0</asrwt>
<pdfrwt beam="1">  1        2 0.58562471E+00 0.67847322E+03</pdfrwt>
<pdfrwt beam="2">  1       -2 0.90113009E-02 0.67847322E+03</pdfrwt>
<totfact> 0.43568358E+01</totfact>
</mgrwt>
</event>
<event>
 4    2  0.3855935E-007  0.7388134E+03  0.7818608E-02  0.9863417E-01
         -2   -1    0    0    0  501 -0.00000000000E+00  0.00000000000E+00  0.65284496049E+03  0.65284496049E+03  0.25500000000E-02 0.  1.
          2   -1    0    0  501    0  0.00000000000E+00 -0.00000000000E+00 -0.11099960353E+04  0.11099960353E+04  0.25500000000E-02 0. -1.
    8880023    1    1    2    0    0  0.15007500694E+03  0.29918633368E+03  0.39272841290E+03  0.83670830194E+03  0.65864270000E+03 0.  0.
    8880022    1    1    2    0    0 -0.15007500694E+03 -0.29918633368E+03 -0.84987948770E+03  0.92613269384E+03  0.15294330000E+03 0.  0.
<mgrwt>
<rscale>  0 0.62067472E+03</rscale>
<asrwt>0</asrwt>
<pdfrwt beam="1">  1        2 0.17076862E+00 0.73881336E+03</pdfrwt>
<pdfrwt beam="2">  1       -2 0.10043769E+00 0.73881336E+03</pdfrwt>
<totfact> 0.17896491E+01</totfact>
</mgrwt>
</event>
<event>
 4    2  0.3855935E-007  0.8039851E+03  0.7818608E-02  0.9702245E-01
         -2   -1    0    0    0  501 -0.00000000000E+00  0.00000000000E+00  0.57409415976E+03  0.57409415976E+03  0.25500000000E-02 0.  1.
          2   -1    0    0  501    0  0.00000000000E+00 -0.00000000000E+00 -0.19711831996E+04  0.19711831996E+04  0.25500000000E-02 0. -1.
    8880023    1    1    2    0    0  0.41197006683E+03  0.20703277306E+03  0.23887070491E+03  0.83872005164E+03  0.65864270000E+03 0.  0.
    8880022    1    1    2    0    0 -0.41197006683E+03 -0.20703277306E+03 -0.16359597447E+04  0.17065573077E+04  0.15294330000E+03 0.  0.
<mgrwt>
<rscale>  0 0.70883301E+03</rscale>
<asrwt>0</asrwt>
<pdfrwt beam="1">  1        2 0.30325895E+00 0.80398514E+03</pdfrwt>
<pdfrwt beam="2">  1       -2 0.88322179E-01 0.80398514E+03</pdfrwt>
<totfact> 0.78548487E+00</totfact>
</mgrwt>
</event>
<event>
 4    2  0.3855935E-007  0.7013192E+03  0.7818608E-02  0.9991772E-01
          2   -1    0    0  501    0  0.00000000000E+00  0.00000000000E+00  0.99858668199E+03  0.99858668199E+03  0.25500000000E-02 0. -1.
         -2   -1    0    0    0  501 -0.00000000000E+00 -0.00000000000E+00 -0.82842754591E+03  0.82842754592E+03  0.25500000000E-02 0.  1.
    8880023    1    1    2    0    0  0.21881809249E+03 -0.10078224394E+03 -0.65148594190E+03  0.95722649204E+03  0.65864270000E+03 0.  1.
    8880022    1    1    2    0    0 -0.21881809249E+03  0.10078224394E+03  0.82164507798E+03  0.86978773587E+03  0.15294330000E+03 0.  0.
<mgrwt>
<rscale>  0 0.56012493E+03</rscale>
<asrwt>0</asrwt>
<pdfrwt beam="1">  1        2 0.15362872E+00 0.70131920E+03</pdfrwt>
<pdfrwt beam="2">  1       -2 0.12745039E+00 0.70131920E+03</pdfrwt>
<totfact> 0.11792187E+01</totfact>
</mgrwt>
</event>
<event>
 4    2  0.3855935E-007  0.7810049E+03  0.7818608E-02  0.9753482E-01
          2   -1    0    0  501    0  0.00000000000E+00  0.00000000000E+00  0.20034538859E+04  0.20034538859E+04  0.25500000000E-02 0. -1.
         -2   -1    0    0    0  501 -0.00000000000E+00 -0.00000000000E+00 -0.23705293993E+03  0.23705293995E+03  0.25500000000E-02 0.  1.
    8880023    1    1    2    0    0 -0.11888121018E+03  0.40252410909E+03  0.58006288392E+03  0.97285227866E+03  0.65864270000E+03 0.  0.
    8880022    1    1    2    0    0  0.11888121018E+03 -0.40252410909E+03  0.11863380621E+04  0.12676545472E+04  0.15294330000E+03 0.  0.
<mgrwt>
<rscale>  0 0.67919861E+03</rscale>
<asrwt>0</asrwt>
<pdfrwt beam="1">  1        2 0.30822367E+00 0.78100487E+03</pdfrwt>
<pdfrwt beam="2">  1       -2 0.36469683E-01 0.78100487E+03</pdfrwt>
<totfact> 0.48324542E+01</totfact>
</mgrwt>
</event>
<event>
 4    2  0.3855935E-007  0.7025050E+03  0.7818608E-02  0.9986964E-01
          2   -1    0    0  501    0  0.00000000000E+00  0.00000000000E+00  0.12577572345E+04  0.12577572345E+04  0.25500000000E-02 0. -1.
         -2   -1    0    0    0  501 -0.00000000000E+00 -0.00000000000E+00 -0.77632702400E+03  0.77632702401E+03  0.25500000000E-02 0.  1.
    8880023    1    1    2    0    0 -0.36085034478E+02 -0.24166283688E+03 -0.59444575769E+03  0.92026030097E+03  0.65864270000E+03 0.  1.
    8880022    1    1    2    0    0  0.36085034478E+02  0.24166283688E+03  0.10758759682E+04  0.11138239575E+04  0.15294330000E+03 0.  0.
<mgrwt>
<rscale>  0 0.56225553E+03</rscale>
<asrwt>0</asrwt>
<pdfrwt beam="1">  1        2 0.19350111E+00 0.70250499E+03</pdfrwt>
<pdfrwt beam="2">  1       -2 0.11943493E+00 0.70250499E+03</pdfrwt>
<totfact> 0.96588694E+00</totfact>
</mgrwt>
</event>
<event>
 4    2  0.3855935E-007  0.6818575E+03  0.7818608E-02  0.1008292E+00
         -2   -1    0    0    0  501 -0.00000000000E+00  0.00000000000E+00  0.30881806359E+03  0.30881806360E+03  0.25500000000E-02 0.  1.
          2   -1    0    0  501    0  0.00000000000E+00 -0.00000000000E+00 -0.13559717308E+04  0.13559717308E+04  0.25500000000E-02 0. -1.
    8880023    1    1    2    0    0  0.16317013250E+03  0.67044334348E+02 -0.99839201022E+02  0.68912807752E+03  0.65864270000E+03 0.  1.
    8880022    1    1    2    0    0 -0.16317013250E+03 -0.67044334348E+02 -0.94731446622E+03  0.97566171690E+03  0.15294330000E+03 0.  0.
<mgrwt>
<rscale>  0 0.52159188E+03</rscale>
<asrwt>0</asrwt>
<pdfrwt beam="1">  1        2 0.20861103E+00 0.68185749E+03</pdfrwt>
<pdfrwt beam="2">  1       -2 0.47510472E-01 0.68185749E+03</pdfrwt>
<totfact> 0.66048147E+01</totfact>
</mgrwt>
</event>
<event>
 4    2  0.3855935E-007  0.6688446E+03  0.7818608E-02  0.1016505E+00
         -2   -1    0    0    0  501 -0.00000000000E+00  0.00000000000E+00  0.27659534971E+03  0.27659534972E+03  0.25500000000E-02 0.  1.
          2   -1    0    0  501    0  0.00000000000E+00 -0.00000000000E+00 -0.12748047309E+04  0.12748047309E+04  0.25500000000E-02 0. -1.
    8880023    1    1    2    0    0  0.10056047820E+03  0.58570596099E+02 -0.15500407028E+03  0.68657074841E+03  0.65864270000E+03 0.  1.
    8880022    1    1    2    0    0 -0.10056047820E+03 -0.58570596099E+02 -0.84320531090E+03  0.86482933221E+03  0.15294330000E+03 0.  0.
<mgrwt>
<rscale>  0 0.48969207E+03</rscale>
<asrwt>0</asrwt>
<pdfrwt beam="1">  1        2 0.19612380E+00 0.66884462E+03</pdfrwt>
<pdfrwt beam="2">  1       -2 0.42553131E-01 0.66884462E+03</pdfrwt>
<totfact> 0.91659275E+01</totfact>
</mgrwt>
</event>
<event>
 4    2  0.3855935E-007  0.7899666E+03  0.7818608E-02  0.9732926E-01
         -2   -1    0    0    0  501 -0.00000000000E+00  0.00000000000E+00  0.40262610389E+03  0.40262610390E+03  0.25500000000E-02 0.  1.
          2   -1    0    0  501    0  0.00000000000E+00 -0.00000000000E+00 -0.12400464615E+04  0.12400464615E+04  0.25500000000E-02 0. -1.
    8880023    1    1    2    0    0  0.28971942587E+03  0.32603632316E+03 -0.13439009021E+03  0.80131637470E+03  0.65864270000E+03 0.  1.
    8880022    1    1    2    0    0 -0.28971942587E+03 -0.32603632316E+03 -0.70303026740E+03  0.84135619071E+03  0.15294330000E+03 0.  0.
<mgrwt>
<rscale>  0 0.69089809E+03</rscale>
<asrwt>0</asrwt>
<pdfrwt beam="1">  1        2 0.19077638E+00 0.78996660E+03</pdfrwt>
<pdfrwt beam="2">  1       -2 0.61942478E-01 0.78996660E+03</pdfrwt>
<totfact> 0.44032131E+01</totfact>
</mgrwt>
</event>
<event>
 4    2  0.3855935E-007  0.9101380E+03  0.7818608E-02  0.9509949E-01
          2   -1    0    0  501    0  0.00000000000E+00  0.00000000000E+00  0.15458191170E+04  0.15458191170E+04  0.25500000000E-02 0. -1.
         -2   -1    0    0    0  501 -0.00000000000E+00 -0.00000000000E+00 -0.46198166162E+03  0.46198166163E+03  0.25500000000E-02 0.  1.
    8880023    1    1    2    0    0  0.51859830910E+03 -0.35439641325E+03  0.23348490927E+03  0.93960972379E+03  0.65864270000E+03 0. -1.
    8880022    1    1    2    0    0 -0.51859830910E+03  0.35439641325E+03  0.85035254607E+03  0.10681910548E+04  0.15294330000E+03 0.  1.
<mgrwt>
<rscale>  0 0.83554287E+03</rscale>
<asrwt>0</asrwt>
<pdfrwt beam="1">  1        2 0.23781833E+00 0.91013803E+03</pdfrwt>
<pdfrwt beam="2">  1       -2 0.71074101E-01 0.91013803E+03</pdfrwt>
<totfact> 0.21649390E+01</totfact>
</mgrwt>
</event>
<event>
 4    2  0.3855935E-007  0.6586961E+03  0.7818608E-02  0.1025534E+00
         -2   -1    0    0    0  501 -0.00000000000E+00  0.00000000000E+00  0.16461978421E+03  0.16461978423E+03  0.25500000000E-02 0.  1.
          2   -1    0    0  501    0  0.00000000000E+00 -0.00000000000E+00 -0.34151881277E+04  0.34151881277E+04  0.25500000000E-02 0. -1.
    8880023    1    1    2    0    0 -0.11005519385E+01 -0.83166277851E+01 -0.50508509340E+03  0.83005513994E+03  0.65864270000E+03 0.  1.
    8880022    1    1    2    0    0  0.11005519385E+01  0.83166277851E+01 -0.27454832501E+04  0.27497527720E+04  0.15294330000E+03 0.  0.
<mgrwt>
<rscale>  0 0.45741408E+03</rscale>
<asrwt>0</asrwt>
<pdfrwt beam="1">  1        2 0.52541350E+00 0.65869612E+03</pdfrwt>
<pdfrwt beam="2">  1       -2 0.25326123E-01 0.65869612E+03</pdfrwt>
<totfact> 0.14262101E+01</totfact>
</mgrwt>
</event>
<event>
 4    2  0.3855935E-007  0.7669341E+03  0.7818608E-02  0.9787476E-01
         -2   -1    0    0    0  501 -0.00000000000E+00  0.00000000000E+00  0.25581815614E+03  0.25581815615E+03  0.25500000000E-02 0.  1.
          2   -1    0    0  501    0  0.00000000000E+00 -0.00000000000E+00 -0.31432617008E+04  0.31432617008E+04  0.25500000000E-02 0. -1.
    8880023    1    1    2    0    0 -0.37728959763E+03 -0.10968252190E+03 -0.37903880119E+03  0.85548718001E+03  0.65864270000E+03 0.  1.
    8880022    1    1    2    0    0  0.37728959763E+03  0.10968252190E+03 -0.25084047434E+04  0.25435926769E+04  0.15294330000E+03 0.  0.
<mgrwt>
<rscale>  0 0.66039024E+03</rscale>
<asrwt>0</asrwt>
<pdfrwt beam="1">  1        2 0.48357870E+00 0.76693409E+03</pdfrwt>
<pdfrwt beam="2">  1       -2 0.39356642E-01 0.76693409E+03</pdfrwt>
<totfact> 0.91764655E+00</totfact>
</mgrwt>
</event>
<event>
 4    2  0.3855935E-007  0.7714179E+03  0.7818608E-02  0.9776397E-01
          2   -1    0    0  501    0  0.00000000000E+00  0.00000000000E+00  0.14351735168E+04  0.14351735168E+04  0.25500000000E-02 0. -1.
         -2   -1    0    0    0  501 -0.00000000000E+00 -0.00000000000E+00 -0.63944989741E+03  0.63944989741E+03  0.25500000000E-02 0.  1.
    8880023    1    1    2    0    0  0.10017764561E+03  0.38889559743E+03 -0.35285475190E+03  0.84828770390E+03  0.65864270000E+03 0.  1.
    8880022    1    1    2    0    0 -0.10017764561E+03 -0.38889559743E+03  0.11485783712E+04  0.12263357103E+04  0.15294330000E+03 0.  0.
<mgrwt>
<rscale>  0 0.66644749E+03</rscale>
<asrwt>0</asrwt>
<pdfrwt beam="1">  1        2 0.22079592E+00 0.77141788E+03</pdfrwt>
<pdfrwt beam="2">  1       -2 0.98376909E-01 0.77141788E+03</pdfrwt>
<totfact> 0.12105948E+01</totfact>
</mgrwt>
</event>
<event>
 4    2  0.3855935E-007  0.8049595E+03  0.7818608E-02  0.9700173E-01
         -2   -1    0    0    0  501 -0.00000000000E+00  0.00000000000E+00  0.19503633854E+04  0.19503633854E+04  0.25500000000E-02 0.  1.
          2   -1    0    0  501    0  0.00000000000E+00 -0.00000000000E+00 -0.77804023823E+03  0.77804023823E+03  0.25500000000E-02 0. -1.
    8880023    1    1    2    0    0  0.93635329837E+02  0.45319095082E+03  0.17775578084E+04  0.19513255959E+04  0.65864270000E+03 0.  0.
    8880022    1    1    2    0    0 -0.93635329837E+02 -0.45319095082E+03 -0.60523466125E+03  0.77707802767E+03  0.15294330000E+03 0.  0.
<mgrwt>
<rscale>  0 0.71006468E+03</rscale>
<asrwt>0</asrwt>
<pdfrwt beam="1">  1        2 0.11969850E+00 0.80495951E+03</pdfrwt>
<pdfrwt beam="2">  1       -2 0.30005591E+00 0.80495951E+03</pdfrwt>
<totfact> 0.11737557E+00</totfact>
</mgrwt>
</event>
<event>
 4    2  0.3855935E-007  0.1020959E+04  0.7818608E-02  0.9354636E-01
          2   -1    0    0  501    0  0.00000000000E+00  0.00000000000E+00  0.19782840150E+04  0.19782840150E+04  0.25500000000E-02 0. -1.
         -2   -1    0    0    0  501 -0.00000000000E+00 -0.00000000000E+00 -0.46418382931E+03  0.46418382932E+03  0.25500000000E-02 0.  1.
    8880023    1    1    2    0    0 -0.74672493058E+03  0.22571957977E+03  0.45382497569E+03  0.11172800748E+04  0.65864270000E+03 0.  0.
    8880022    1    1    2    0    0  0.74672493058E+03 -0.22571957977E+03  0.10602752100E+04  0.13251877696E+04  0.15294330000E+03 0.  0.
<mgrwt>
<rscale>  0 0.95904876E+03</rscale>
<asrwt>0</asrwt>
<pdfrwt beam="1">  1        2 0.30435139E+00 0.10209592E+04</pdfrwt>
<pdfrwt beam="2">  1       -2 0.71412896E-01 0.10209592E+04</pdfrwt>
<totfact> 0.12226793E+01</totfact>
</mgrwt>
</event>
<event>
 4    2  0.3855935E-007  0.7066348E+03  0.7818608E-02  0.9970716E-01
         -2   -1    0    0    0  501 -0.00000000000E+00  0.00000000000E+00  0.78159355691E+03  0.78159355692E+03  0.25500000000E-02 0.  1.
          2   -1    0    0  501    0  0.00000000000E+00 -0.00000000000E+00 -0.11353012111E+04  0.11353012111E+04  0.25500000000E-02 0. -1.
    8880023    1    1    2    0    0  0.25108432466E+03 -0.49791305041E+02  0.59415900119E+03  0.92323216858E+03  0.65864270000E+03 0.  1.
    8880022    1    1    2    0    0 -0.25108432466E+03  0.49791305041E+02 -0.94786665534E+03  0.99366259941E+03  0.15294330000E+03 0.  0.
<mgrwt>
<rscale>  0 0.56953134E+03</rscale>
<asrwt>0</asrwt>
<pdfrwt beam="1">  1        2 0.17466173E+00 0.70663478E+03</pdfrwt>
<pdfrwt beam="2">  1       -2 0.12024516E+00 0.70663478E+03</pdfrwt>
<totfact> 0.11216038E+01</totfact>
</mgrwt>
</event>
<event>
 4    2  0.3855935E-007  0.7902764E+03  0.7818608E-02  0.9732229E-01
         -2   -1    0    0    0  501 -0.00000000000E+00  0.00000000000E+00  0.62531002186E+03  0.62531002187E+03  0.25500000000E-02 0.  1.
          2   -1    0    0  501    0  0.00000000000E+00 -0.00000000000E+00 -0.92494897821E+03  0.92494897821E+03  0.25500000000E-02 0. -1.
    8880023    1    1    2    0    0 -0.23425815018E+03  0.36857791348E+03  0.25271018083E+03  0.82969825900E+03  0.65864270000E+03 0.  0.
    8880022    1    1    2    0    0  0.23425815018E+03 -0.36857791348E+03 -0.55234913718E+03  0.72056074108E+03  0.15294330000E+03 0.  0.
<mgrwt>
<rscale>  0 0.69129904E+03</rscale>
<asrwt>0</asrwt>
<pdfrwt beam="1">  1        2 0.14229984E+00 0.79027639E+03</pdfrwt>
<pdfrwt beam="2">  1       -2 0.96201543E-01 0.79027639E+03</pdfrwt>
<totfact> 0.25825458E+01</totfact>
</mgrwt>
</event>
<event>
 4    2  0.3855935E-007  0.1795196E+04  0.7818608E-02  0.8725198E-01
         -2   -1    0    0    0  501 -0.00000000000E+00  0.00000000000E+00  0.22850359611E+04  0.22850359611E+04  0.25500000000E-02 0.  1.
          2   -1    0    0  501    0  0.00000000000E+00 -0.00000000000E+00 -0.14458014719E+04  0.14458014719E+04  0.25500000000E-02 0. -1.
    8880023    1    1    2    0    0 -0.84668566502E+03 -0.14394591756E+04  0.98473425632E+03  0.20475426968E+04  0.65864270000E+03 0.  0.
    8880022    1    1    2    0    0  0.84668566502E+03  0.14394591756E+04 -0.14549976716E+03  0.16832947361E+04  0.15294330000E+03 0.  0.
<mgrwt>
<rscale>  0 0.17648868E+04</rscale>
<asrwt>0</asrwt>
<pdfrwt beam="1">  1        2 0.22243100E+00 0.17951962E+04</pdfrwt>
<pdfrwt beam="2">  1       -2 0.35154399E+00 0.17951962E+04</pdfrwt>
<totfact> 0.18945146E-01</totfact>
</mgrwt>
</event>
<event>
 4    2  0.3855935E-007  0.9322105E+03  0.7818608E-02  0.9476185E-01
         -2   -1    0    0    0  501 -0.00000000000E+00  0.00000000000E+00  0.42396676247E+03  0.42396676248E+03  0.25500000000E-02 0.  1.
          2   -1    0    0  501    0  0.00000000000E+00 -0.00000000000E+00 -0.24528935353E+04  0.24528935353E+04  0.25500000000E-02 0. -1.
    8880023    1    1    2    0    0 -0.62067715720E+03 -0.22353090429E+03 -0.23790789182E+03  0.96208968912E+03  0.65864270000E+03 0.  0.
    8880022    1    1    2    0    0  0.62067715720E+03  0.22353090429E+03 -0.17910188811E+04  0.19147706087E+04  0.15294330000E+03 0.  0.
<mgrwt>
<rscale>  0 0.86062606E+03</rscale>
<asrwt>0</asrwt>
<pdfrwt beam="1">  1        2 0.37736823E+00 0.93221049E+03</pdfrwt>
<pdfrwt beam="2">  1       -2 0.65225657E-01 0.93221049E+03</pdfrwt>
<totfact> 0.81878612E+00</totfact>
</mgrwt>
</event>
<event>
 4    2  0.3855935E-007  0.7926531E+03  0.7818608E-02  0.9726913E-01
          2   -1    0    0  501    0  0.00000000000E+00  0.00000000000E+00  0.10511008481E+04  0.10511008481E+04  0.25500000000E-02 0. -1.
         -2   -1    0    0    0  501 -0.00000000000E+00 -0.00000000000E+00 -0.69034830879E+03  0.69034830879E+03  0.25500000000E-02 0.  1.
    8880023    1    1    2    0    0 -0.38870529847E+03 -0.20831908995E+03 -0.36967033054E+03  0.87461706583E+03  0.65864270000E+03 0.  0.
    8880022    1    1    2    0    0  0.38870529847E+03  0.20831908995E+03  0.73042286987E+03  0.86683209109E+03  0.15294330000E+03 0.  0.
<mgrwt>
<rscale>  0 0.69436784E+03</rscale>
<asrwt>0</asrwt>
<pdfrwt beam="1">  1        2 0.16170782E+00 0.79265305E+03</pdfrwt>
<pdfrwt beam="2">  1       -2 0.10620743E+00 0.79265305E+03</pdfrwt>
<totfact> 0.16925519E+01</totfact>
</mgrwt>
</event>
<event>
 4    2  0.3855935E-007  0.7687402E+03  0.7818608E-02  0.9782984E-01
         -2   -1    0    0    0  501 -0.00000000000E+00  0.00000000000E+00  0.27532684891E+03  0.27532684892E+03  0.25500000000E-02 0.  1.
          2   -1    0    0  501    0  0.00000000000E+00 -0.00000000000E+00 -0.14292732218E+04  0.14292732218E+04  0.25500000000E-02 0. -1.
    8880023    1    1    2    0    0  0.37678423164E+03 -0.12322717402E+03 -0.97983695584E+03  0.12454083507E+04  0.65864270000E+03 0.  0.
    8880022    1    1    2    0    0 -0.37678423164E+03  0.12322717402E+03 -0.17410941702E+03  0.45919172003E+03  0.15294330000E+03 0.  0.
<mgrwt>
<rscale>  0 0.66283779E+03</rscale>
<asrwt>0</asrwt>
<pdfrwt beam="1">  1        2 0.21988818E+00 0.76874020E+03</pdfrwt>
<pdfrwt beam="2">  1       -2 0.42357978E-01 0.76874020E+03</pdfrwt>
<totfact> 0.74823202E+01</totfact>
</mgrwt>
</event>
<event>
 4    2  0.3855935E-007  0.7060825E+03  0.7818608E-02  0.9972846E-01
          2   -1    0    0  501    0  0.00000000000E+00  0.00000000000E+00  0.37441297538E+04  0.37441297538E+04  0.25500000000E-02 0. -1.
         -2   -1    0    0    0  501 -0.00000000000E+00 -0.00000000000E+00 -0.15539051176E+03  0.15539051178E+03  0.25500000000E-02 0.  1.
    8880023    1    1    2    0    0 -0.33345673483E+01  0.25442332530E+03  0.69552351038E+03  0.99111326676E+03  0.65864270000E+03 0.  1.
    8880022    1    1    2    0    0  0.33345673483E+01 -0.25442332530E+03  0.28932157317E+04  0.29084069988E+04  0.15294330000E+03 0.  0.
<mgrwt>
<rscale>  0 0.56857078E+03</rscale>
<asrwt>0</asrwt>
<pdfrwt beam="1">  1        2 0.57601997E+00 0.70608254E+03</pdfrwt>
<pdfrwt beam="2">  1       -2 0.23906232E-01 0.70608254E+03</pdfrwt>
<totfact> 0.92499878E+00</totfact>
</mgrwt>
</event>
<event>
 4    2  0.3855935E-007  0.6995171E+03  0.7818608E-02  0.9999210E-01
          2   -1    0    0  501    0  0.00000000000E+00  0.00000000000E+00  0.13210340618E+04  0.13210340618E+04  0.25500000000E-02 0. -1.
         -2   -1    0    0    0  501 -0.00000000000E+00 -0.00000000000E+00 -0.75893204655E+03  0.75893204655E+03  0.25500000000E-02 0.  1.
    8880023    1    1    2    0    0  0.89847159082E+02  0.21781050695E+03 -0.57697416329E+03  0.90676530607E+03  0.65864270000E+03 0.  1.
    8880022    1    1    2    0    0 -0.89847159082E+02 -0.21781050695E+03  0.11390761785E+04  0.11732008023E+04  0.15294330000E+03 0.  0.
<mgrwt>
<rscale>  0 0.55684869E+03</rscale>
<asrwt>0</asrwt>
<pdfrwt beam="1">  1        2 0.20323601E+00 0.69951707E+03</pdfrwt>
<pdfrwt beam="2">  1       -2 0.11675878E+00 0.69951707E+03</pdfrwt>
<totfact> 0.93933152E+00</totfact>
</mgrwt>
</event>
<event>
 4    2  0.3855935E-007  0.7056851E+03  0.7818608E-02  0.9974387E-01
          2   -1    0    0  501    0  0.00000000000E+00  0.00000000000E+00  0.11192443717E+04  0.11192443717E+04  0.25500000000E-02 0. -1.
         -2   -1    0    0    0  501 -0.00000000000E+00 -0.00000000000E+00 -0.51848311597E+03  0.51848311597E+03  0.25500000000E-02 0.  1.
    8880023    1    1    2    0    0 -0.22172900071E+03 -0.12254564321E+03 -0.24081127104E+03  0.74564164245E+03  0.65864270000E+03 0.  1.
    8880022    1    1    2    0    0  0.22172900071E+03  0.12254564321E+03  0.84157252679E+03  0.89208584525E+03  0.15294330000E+03 0.  0.
<mgrwt>
<rscale>  0 0.56787711E+03</rscale>
<asrwt>0</asrwt>
<pdfrwt beam="1">  1        2 0.17219144E+00 0.70568505E+03</pdfrwt>
<pdfrwt beam="2">  1       -2 0.79766635E-01 0.70568505E+03</pdfrwt>
<totfact> 0.30155080E+01</totfact>
</mgrwt>
</event>
<event>
 4    2  0.3855935E-007  0.7339382E+03  0.7818608E-02  0.9877970E-01
         -2   -1    0    0    0  501 -0.00000000000E+00  0.00000000000E+00  0.25501688045E+03  0.25501688046E+03  0.25500000000E-02 0.  1.
          2   -1    0    0  501    0  0.00000000000E+00 -0.00000000000E+00 -0.12146596810E+04  0.12146596810E+04  0.25500000000E-02 0. -1.
    8880023    1    1    2    0    0 -0.25083044355E+03 -0.20479056191E+03 -0.50482778031E+03  0.89079536353E+03  0.65864270000E+03 0.  0.
    8880022    1    1    2    0    0  0.25083044355E+03  0.20479056191E+03 -0.45481502025E+03  0.57888119793E+03  0.15294330000E+03 0.  1.
<mgrwt>
<rscale>  0 0.61340938E+03</rscale>
<asrwt>0</asrwt>
<pdfrwt beam="1">  1        2 0.18687072E+00 0.73393821E+03</pdfrwt>
<pdfrwt beam="2">  1       -2 0.39233367E-01 0.73393821E+03</pdfrwt>
<totfact> 0.11582211E+02</totfact>
</mgrwt>
</event>
<event>
 4    2  0.3855935E-007  0.6677487E+03  0.7818608E-02  0.1017331E+00
         -2   -1    0    0    0  501 -0.00000000000E+00  0.00000000000E+00  0.70914355272E+03  0.70914355272E+03  0.25500000000E-02 0.  1.
          2   -1    0    0  501    0  0.00000000000E+00 -0.00000000000E+00 -0.63227969278E+03  0.63227969279E+03  0.25500000000E-02 0. -1.
    8880023    1    1    2    0    0 -0.79889993664E+01  0.10961002418E+03  0.52882706439E+03  0.85179014541E+03  0.65864270000E+03 0.  1.
    8880022    1    1    2    0    0  0.79889993664E+01 -0.10961002418E+03 -0.45196320446E+03  0.48963310010E+03  0.15294330000E+03 0.  0.
<mgrwt>
<rscale>  0 0.48662252E+03</rscale>
<asrwt>0</asrwt>
<pdfrwt beam="1">  1        2 0.97273799E-01 0.66774875E+03</pdfrwt>
<pdfrwt beam="2">  1       -2 0.10909901E+00 0.66774875E+03</pdfrwt>
<totfact> 0.31809701E+01</totfact>
</mgrwt>
</event>
<event>
 4    2  0.3855935E-007  0.8038840E+03  0.7818608E-02  0.9702460E-01
          2   -1    0    0  501    0  0.00000000000E+00  0.00000000000E+00  0.63177789633E+03  0.63177789633E+03  0.25500000000E-02 0. -1.
         -2   -1    0    0    0  501 -0.00000000000E+00 -0.00000000000E+00 -0.67896823111E+03  0.67896823111E+03  0.25500000000E-02 0.  1.
    8880023    1    1    2    0    0  0.21973120333E+03  0.40513891875E+03 -0.14102281981E+03  0.81615990294E+03  0.65864270000E+03 0.  1.
    8880022    1    1    2    0    0 -0.21973120333E+03 -0.40513891875E+03  0.93832485026E+02  0.49458622450E+03  0.15294330000E+03 0.  1.
<mgrwt>
<rscale>  0 0.70870511E+03</rscale>
<asrwt>0</asrwt>
<pdfrwt beam="1">  1        2 0.97196600E-01 0.80388404E+03</pdfrwt>
<pdfrwt beam="2">  1       -2 0.10445665E+00 0.80388404E+03</pdfrwt>
<totfact> 0.34960437E+01</totfact>
</mgrwt>
</event>
<event>
 4    2  0.3855935E-007  0.6897291E+03  0.7818608E-02  0.1004282E+00
         -2   -1    0    0    0  501 -0.00000000000E+00  0.00000000000E+00  0.42035459942E+03  0.42035459943E+03  0.25500000000E-02 0.  1.
          2   -1    0    0  501    0  0.00000000000E+00 -0.00000000000E+00 -0.55930670771E+03  0.55930670771E+03  0.25500000000E-02 0. -1.
    8880023    1    1    2    0    0  0.18921462690E+03  0.78191235204E+02 -0.20168333135E+01  0.68973206260E+03  0.65864270000E+03 0.  1.
    8880022    1    1    2    0    0 -0.18921462690E+03 -0.78191235204E+02 -0.13693527497E+03  0.28992924455E+03  0.15294330000E+03 0. -1.
<mgrwt>
<rscale>  0 0.53812041E+03</rscale>
<asrwt>0</asrwt>
<pdfrwt beam="1">  1        2 0.86047186E-01 0.68972911E+03</pdfrwt>
<pdfrwt beam="2">  1       -2 0.64669938E-01 0.68972911E+03</pdfrwt>
<totfact> 0.12080350E+02</totfact>
</mgrwt>
</event>
<event>
 4    2  0.3855935E-007  0.8916039E+03  0.7818608E-02  0.9539647E-01
          2   -1    0    0  501    0  0.00000000000E+00  0.00000000000E+00  0.43669464068E+04  0.43669464068E+04  0.25500000000E-02 0. -1.
         -2   -1    0    0    0  501 -0.00000000000E+00 -0.00000000000E+00 -0.23957176976E+03  0.23957176977E+03  0.25500000000E-02 0.  1.
    8880023    1    1    2    0    0 -0.31387359043E+03  0.51247511388E+03  0.72804247156E+03  0.11510879288E+04  0.65864270000E+03 0.  1.
    8880022    1    1    2    0    0  0.31387359043E+03 -0.51247511388E+03  0.33993321655E+04  0.34554302478E+04  0.15294330000E+03 0.  0.
<mgrwt>
<rscale>  0 0.81422894E+03</rscale>
<asrwt>0</asrwt>
<pdfrwt beam="1">  1        2 0.67183791E+00 0.89160394E+03</pdfrwt>
<pdfrwt beam="2">  1       -2 0.36857195E-01 0.89160394E+03</pdfrwt>
<totfact> 0.12492272E+00</totfact>
</mgrwt>
</event>
<event>
 4    2  0.3855935E-007  0.9847746E+03  0.7818608E-02  0.9401754E-01
         -2   -1    0    0    0  501 -0.00000000000E+00  0.00000000000E+00  0.68342625459E+03  0.68342625459E+03  0.25500000000E-02 0.  1.
          2   -1    0    0  501    0  0.00000000000E+00 -0.00000000000E+00 -0.18273864056E+04  0.18273864056E+04  0.25500000000E-02 0. -1.
    8880023    1    1    2    0    0 -0.40732393545E+03  0.60832396265E+03  0.16958452358E+03  0.99926970775E+03  0.65864270000E+03 0.  1.
    8880022    1    1    2    0    0  0.40732393545E+03 -0.60832396265E+03 -0.13135446745E+04  0.15115429524E+04  0.15294330000E+03 0.  0.
<mgrwt>
<rscale>  0 0.91931490E+03</rscale>
<asrwt>0</asrwt>
<pdfrwt beam="1">  1        2 0.28113637E+00 0.98477461E+03</pdfrwt>
<pdfrwt beam="2">  1       -2 0.10514250E+00 0.98477461E+03</pdfrwt>
<totfact> 0.61034506E+00</totfact>
</mgrwt>
</event>
<event>
 4    2  0.3855935E-007  0.9835992E+03  0.7818608E-02  0.9403337E-01
          2   -1    0    0  501    0  0.00000000000E+00  0.00000000000E+00  0.21573433023E+04  0.21573433023E+04  0.25500000000E-02 0. -1.
         -2   -1    0    0    0  501 -0.00000000000E+00 -0.00000000000E+00 -0.46862303593E+03  0.46862303594E+03  0.25500000000E-02 0.  1.
    8880023    1    1    2    0    0  0.71908504685E+03 -0.12873940419E+03  0.26531467253E+03  0.10187537585E+04  0.65864270000E+03 0.  0.
    8880022    1    1    2    0    0 -0.71908504685E+03  0.12873940419E+03  0.14234055939E+04  0.16072125797E+04  0.15294330000E+03 0.  0.
<mgrwt>
<rscale>  0 0.91801605E+03</rscale>
<asrwt>0</asrwt>
<pdfrwt beam="1">  1        2 0.33189897E+00 0.98359918E+03</pdfrwt>
<pdfrwt beam="2">  1       -2 0.72095851E-01 0.98359918E+03</pdfrwt>
<totfact> 0.95746113E+00</totfact>
</mgrwt>
</event>
<event>
 4    2  0.3855935E-007  0.7203002E+03  0.7818608E-02  0.9921572E-01
         -2   -1    0    0    0  501 -0.00000000000E+00  0.00000000000E+00  0.44450538674E+03  0.44450538675E+03  0.25500000000E-02 0.  1.
          2   -1    0    0  501    0  0.00000000000E+00 -0.00000000000E+00 -0.25549484144E+04  0.25549484144E+04  0.25500000000E-02 0. -1.
    8880023    1    1    2    0    0 -0.26574736439E+03  0.12000194465E+03  0.13257373578E+03  0.73239888727E+03  0.65864270000E+03 0.  1.
    8880022    1    1    2    0    0  0.26574736439E+03 -0.12000194465E+03 -0.22430167634E+04  0.22670549138E+04  0.15294330000E+03 0.  0.
<mgrwt>
<rscale>  0 0.59227132E+03</rscale>
<asrwt>0</asrwt>
<pdfrwt beam="1">  1        2 0.39306898E+00 0.72030017E+03</pdfrwt>
<pdfrwt beam="2">  1       -2 0.68385446E-01 0.72030017E+03</pdfrwt>
<totfact> 0.66838157E+00</totfact>
</mgrwt>
</event>
<event>
 4    2  0.3855935E-007  0.6664436E+03  0.7818608E-02  0.1018352E+00
          2   -1    0    0  501    0  0.00000000000E+00  0.00000000000E+00  0.96509981859E+03  0.96509981859E+03  0.25500000000E-02 0. -1.
         -2   -1    0    0    0  501 -0.00000000000E+00 -0.00000000000E+00 -0.37051050673E+03  0.37051050674E+03  0.25500000000E-02 0.  1.
    8880023    1    1    2    0    0  0.47134636879E+02  0.90084126003E+02 -0.47149769178E+02  0.66810937035E+03  0.65864270000E+03 0.  0.
    8880022    1    1    2    0    0 -0.47134636879E+02 -0.90084126003E+02  0.64173908104E+03  0.66750095498E+03  0.15294330000E+03 0. -1.
<mgrwt>
<rscale>  0 0.48286100E+03</rscale>
<asrwt>0</asrwt>
<pdfrwt beam="1">  1        2 0.14847689E+00 0.66644357E+03</pdfrwt>
<pdfrwt beam="2">  1       -2 0.57001617E-01 0.66644357E+03</pdfrwt>
<totfact> 0.78179522E+01</totfact>
</mgrwt>
</event>
<event>
 4    2  0.3855935E-007  0.6677815E+03  0.7818608E-02  0.1017306E+00
         -2   -1    0    0    0  501 -0.00000000000E+00  0.00000000000E+00  0.46781867506E+03  0.46781867507E+03  0.25500000000E-02 0.  1.
          2   -1    0    0  501    0  0.00000000000E+00 -0.00000000000E+00 -0.77738830738E+03  0.77738830738E+03  0.25500000000E-02 0. -1.
    8880023    1    1    2    0    0 -0.10841254305E+03  0.19200949789E+02  0.20392455386E+03  0.69822445237E+03  0.65864270000E+03 0.  0.
    8880022    1    1    2    0    0  0.10841254305E+03 -0.19200949789E+02 -0.51349418617E+03  0.54698253008E+03  0.15294330000E+03 0.  0.
<mgrwt>
<rscale>  0 0.48671547E+03</rscale>
<asrwt>0</asrwt>
<pdfrwt beam="1">  1        2 0.11959820E+00 0.66778152E+03</pdfrwt>
<pdfrwt beam="2">  1       -2 0.71972104E-01 0.66778152E+03</pdfrwt>
<totfact> 0.63813024E+01</totfact>
</mgrwt>
</event>
<event>
 4    2  0.3855935E-007  0.1471454E+04  0.7818608E-02  0.8930060E-01
          2   -1    0    0  501    0  0.00000000000E+00  0.00000000000E+00  0.14859654001E+04  0.14859654001E+04  0.25500000000E-02 0. -1.
         -2   -1    0    0    0  501 -0.00000000000E+00 -0.00000000000E+00 -0.21101334950E+04  0.21101334950E+04  0.25500000000E-02 0.  1.
    8880023    1    1    2    0    0 -0.49012924805E+03  0.12211229599E+04 -0.14248364388E+04  0.20482521931E+04  0.65864270000E+03 0.  0.
    8880022    1    1    2    0    0  0.49012924805E+03 -0.12211229599E+04  0.80066834389E+03  0.15478467020E+04  0.15294330000E+03 0.  0.
<mgrwt>
<rscale>  0 0.14333007E+04</rscale>
<asrwt>0</asrwt>
<pdfrwt beam="1">  1        2 0.22861006E+00 0.14714544E+04</pdfrwt>
<pdfrwt beam="2">  1       -2 0.32463592E+00 0.14714544E+04</pdfrwt>
<totfact> 0.27374520E-01</totfact>
</mgrwt>
</event>
<event>
 4    2  0.3855935E-007  0.6728434E+03  0.7818608E-02  0.1013701E+00
         -2   -1    0    0    0  501 -0.00000000000E+00  0.00000000000E+00  0.45794882734E+03  0.45794882734E+03  0.25500000000E-02 0.  1.
          2   -1    0    0  501    0  0.00000000000E+00 -0.00000000000E+00 -0.17784194700E+04  0.17784194700E+04  0.25500000000E-02 0. -1.
    8880023    1    1    2    0    0 -0.13101015103E+03  0.41765822049E+02  0.20008755687E+03  0.70196387388E+03  0.65864270000E+03 0.  1.
    8880022    1    1    2    0    0  0.13101015103E+03 -0.41765822049E+02 -0.15205581996E+04  0.15344044235E+04  0.15294330000E+03 0.  0.
<mgrwt>
<rscale>  0 0.50029672E+03</rscale>
<asrwt>0</asrwt>
<pdfrwt beam="1">  1        2 0.27360299E+00 0.67284341E+03</pdfrwt>
<pdfrwt beam="2">  1       -2 0.70453667E-01 0.67284341E+03</pdfrwt>
<totfact> 0.16925114E+01</totfact>
</mgrwt>
</event>
<event>
 4    2  0.3855935E-007  0.7010825E+03  0.7818608E-02  0.9992740E-01
          2   -1    0    0  501    0  0.00000000000E+00  0.00000000000E+00  0.41539134701E+03  0.41539134702E+03  0.25500000000E-02 0. -1.
         -2   -1    0    0    0  501 -0.00000000000E+00 -0.00000000000E+00 -0.11415435059E+04  0.11415435059E+04  0.25500000000E-02 0.  1.
    8880023    1    1    2    0    0  0.21020879918E+03  0.11627007237E+03 -0.95979309948E+03  0.11885787601E+04  0.65864270000E+03 0.  1.
    8880022    1    1    2    0    0 -0.21020879918E+03 -0.11627007237E+03  0.23364094057E+03  0.36835609280E+03  0.15294330000E+03 0.  0.
<mgrwt>
<rscale>  0 0.55969728E+03</rscale>
<asrwt>0</asrwt>
<pdfrwt beam="1">  1        2 0.63906362E-01 0.70108250E+03</pdfrwt>
<pdfrwt beam="2">  1       -2 0.17562208E+00 0.70108250E+03</pdfrwt>
<totfact> 0.15118187E+01</totfact>
</mgrwt>
</event>
<event>
 4    2  0.3855935E-007  0.6605239E+03  0.7818608E-02  0.1023626E+00
         -2   -1    0    0    0  501 -0.00000000000E+00  0.00000000000E+00  0.20828392141E+03  0.20828392142E+03  0.25500000000E-02 0.  1.
          2   -1    0    0  501    0  0.00000000000E+00 -0.00000000000E+00 -0.20367122823E+04  0.20367122823E+04  0.25500000000E-02 0. -1.
    8880023    1    1    2    0    0  0.30654146672E+02 -0.39268245085E+02 -0.33075329579E+03  0.73870807544E+03  0.65864270000E+03 0.  1.
    8880022    1    1    2    0    0 -0.30654146672E+02  0.39268245085E+02 -0.14976750651E+04  0.15062881282E+04  0.15294330000E+03 0.  0.
<mgrwt>
<rscale>  0 0.46400531E+03</rscale>
<asrwt>0</asrwt>
<pdfrwt beam="1">  1        2 0.31334034E+00 0.66052394E+03</pdfrwt>
<pdfrwt beam="2">  1       -2 0.32043682E-01 0.66052394E+03</pdfrwt>
<totfact> 0.60122158E+01</totfact>
</mgrwt>
</event>
<event>
 4    2  0.3855935E-007  0.7539849E+03  0.7818608E-02  0.9820936E-01
         -2   -1    0    0    0  501 -0.00000000000E+00  0.00000000000E+00  0.39023569060E+03  0.39023569061E+03  0.25500000000E-02 0.  1.
          2   -1    0    0  501    0  0.00000000000E+00 -0.00000000000E+00 -0.22383802991E+04  0.22383802991E+04  0.25500000000E-02 0. -1.
    8880023    1    1    2    0    0 -0.16967459037E+03 -0.32541295621E+03 -0.16341374090E+02  0.75416198887E+03  0.65864270000E+03 0.  1.
    8880022    1    1    2    0    0  0.16967459037E+03  0.32541295621E+03 -0.18318032344E+04  0.18744540008E+04  0.15294330000E+03 0.  0.
<mgrwt>
<rscale>  0 0.64250986E+03</rscale>
<asrwt>0</asrwt>
<pdfrwt beam="1">  1        2 0.34436619E+00 0.75398492E+03</pdfrwt>
<pdfrwt beam="2">  1       -2 0.60036262E-01 0.75398492E+03</pdfrwt>
<totfact> 0.13218158E+01</totfact>
</mgrwt>
</event>
<event>
 4    2  0.7164876E-007  0.7742365E+03  0.7818608E-02  0.9769554E-01
          2   -1    0    0  501    0  0.00000000000E+00  0.00000000000E+00  0.20993010316E+04  0.20993010316E+04  0.25500000000E-02 0. -1.
         -2   -1    0    0    0  501 -0.00000000000E+00 -0.00000000000E+00 -0.16299460911E+04  0.16299460911E+04  0.25500000000E-02 0.  1.
    8880023    1    1    2    0    0  0.29243972813E+03  0.28303870733E+03 -0.15130986310E+04  0.16996792573E+04  0.65864270000E+03 0.  1.
    8880022    1    1    2    0    0 -0.29243972813E+03 -0.28303870733E+03  0.19824535714E+04  0.20295678654E+04  0.15294330000E+03 0.  0.
<mgrwt>
<rscale>  0 0.67022359E+03</rscale>
<asrwt>0</asrwt>
<pdfrwt beam="1">  1        2 0.32296939E+00 0.77423647E+03</pdfrwt>
<pdfrwt beam="2">  1       -2 0.25076094E+00 0.77423647E+03</pdfrwt>
<totfact> 0.39287794E-01</totfact>
</mgrwt>
</event>
<event>
 4    2  0.3855935E-007  0.7996876E+03  0.7818608E-02  0.9711472E-01
         -2   -1    0    0    0  501 -0.00000000000E+00  0.00000000000E+00  0.97150289746E+03  0.97150289747E+03  0.25500000000E-02 0.  1.
          2   -1    0    0  501    0  0.00000000000E+00 -0.00000000000E+00 -0.59916498977E+03  0.59916498978E+03  0.25500000000E-02 0. -1.
    8880023    1    1    2    0    0  0.81016254211E+02  0.44623581992E+03  0.63822550964E+03  0.10231481065E+04  0.65864270000E+03 0.  0.
    8880022    1    1    2    0    0 -0.81016254211E+02 -0.44623581992E+03 -0.26588760195E+03  0.54751978074E+03  0.15294330000E+03 0.  0.
<mgrwt>
<rscale>  0 0.70337846E+03</rscale>
<asrwt>0</asrwt>
<pdfrwt beam="1">  1        2 0.92179231E-01 0.79968759E+03</pdfrwt>
<pdfrwt beam="2">  1       -2 0.14946198E+00 0.79968759E+03</pdfrwt>
<totfact> 0.15173176E+01</totfact>
</mgrwt>
</event>
<event>
 4    2  0.3855935E-007  0.7773172E+03  0.7818608E-02  0.9762177E-01
         -2   -1    0    0    0  501 -0.00000000000E+00  0.00000000000E+00  0.85437971827E+03  0.85437971828E+03  0.25500000000E-02 0.  1.
          2   -1    0    0  501    0  0.00000000000E+00 -0.00000000000E+00 -0.48927465072E+03  0.48927465072E+03  0.25500000000E-02 0. -1.
    8880023    1    1    2    0    0 -0.99391364787E+01  0.41268995574E+03  0.44581247955E+03  0.89608635700E+03  0.65864270000E+03 0.  1.
    8880022    1    1    2    0    0  0.99391364787E+01 -0.41268995574E+03 -0.80707411994E+02  0.44756801201E+03  0.15294330000E+03 0. -1.
<mgrwt>
<rscale>  0 0.67432441E+03</rscale>
<asrwt>0</asrwt>
<pdfrwt beam="1">  1        2 0.75273024E-01 0.77731718E+03</pdfrwt>
<pdfrwt beam="2">  1       -2 0.13144303E+00 0.77731718E+03</pdfrwt>
<totfact> 0.26945931E+01</totfact>
</mgrwt>
</event>
<event>
 4    2  0.3855935E-007  0.6934609E+03  0.7818608E-02  0.1002549E+00
         -2   -1    0    0    0  501 -0.00000000000E+00  0.00000000000E+00  0.23666558001E+03  0.23666558002E+03  0.25500000000E-02 0.  1.
          2   -1    0    0  501    0  0.00000000000E+00 -0.00000000000E+00 -0.13276987163E+04  0.13276987163E+04  0.25500000000E-02 0. -1.
    8880023    1    1    2    0    0 -0.21687264405E+03 -0.66403543563E+01 -0.34911014314E+03  0.77638002058E+03  0.65864270000E+03 0.  1.
    8880022    1    1    2    0    0  0.21687264405E+03  0.66403543563E+01 -0.74192299320E+03  0.78798427579E+03  0.15294330000E+03 0.  0.
<mgrwt>
<rscale>  0 0.54546468E+03</rscale>
<asrwt>0</asrwt>
<pdfrwt beam="1">  1        2 0.20426134E+00 0.69346092E+03</pdfrwt>
<pdfrwt beam="2">  1       -2 0.36410090E-01 0.69346092E+03</pdfrwt>
<totfact> 0.11541895E+02</totfact>
</mgrwt>
</event>
<event>
 4    2  0.3855935E-007  0.6681484E+03  0.7818608E-02  0.1017026E+00
         -2   -1    0    0    0  501 -0.00000000000E+00  0.00000000000E+00  0.96067117301E+02  0.96067117335E+02  0.25500000000E-02 0.  1.
          2   -1    0    0  501    0  0.00000000000E+00 -0.00000000000E+00 -0.21315045159E+04  0.21315045159E+04  0.25500000000E-02 0. -1.
    8880023    1    1    2    0    0 -0.97614001955E+02  0.55530615388E+02 -0.12265523536E+04  0.13967294029E+04  0.65864270000E+03 0.  1.
    8880022    1    1    2    0    0  0.97614001955E+02 -0.55530615388E+02 -0.80888504505E+03  0.83084223035E+03  0.15294330000E+03 0.  0.
<mgrwt>
<rscale>  0 0.48775110E+03</rscale>
<asrwt>0</asrwt>
<pdfrwt beam="1">  1        2 0.32792374E+00 0.66814845E+03</pdfrwt>
<pdfrwt beam="2">  1       -2 0.14779558E-01 0.66814845E+03</pdfrwt>
<totfact> 0.20984388E+02</totfact>
</mgrwt>
</event>
<event>
 4    2  0.3855935E-007  0.7396216E+03  0.7818608E-02  0.9861051E-01
         -2   -1    0    0    0  501 -0.00000000000E+00  0.00000000000E+00  0.16656907191E+04  0.16656907191E+04  0.25500000000E-02 0.  1.
          2   -1    0    0  501    0  0.00000000000E+00 -0.00000000000E+00 -0.30521447984E+03  0.30521447985E+03  0.25500000000E-02 0. -1.
    8880023    1    1    2    0    0  0.32548386111E+03 -0.85382231410E+02  0.14156196363E+04  0.15971909812E+04  0.65864270000E+03 0.  1.
    8880022    1    1    2    0    0 -0.32548386111E+03  0.85382231410E+02 -0.55143397107E+02  0.37371421775E+03  0.15294330000E+03 0.  0.
<mgrwt>
<rscale>  0 0.62186637E+03</rscale>
<asrwt>0</asrwt>
<pdfrwt beam="1">  1        2 0.46956073E-01 0.73962158E+03</pdfrwt>
<pdfrwt beam="2">  1       -2 0.25626011E+00 0.73962158E+03</pdfrwt>
<totfact> 0.65245736E+00</totfact>
</mgrwt>
</event>
<event>
 4    2  0.3855935E-007  0.7402631E+03  0.7818608E-02  0.9859181E-01
          2   -1    0    0  501    0  0.00000000000E+00  0.00000000000E+00  0.33120525097E+04  0.33120525097E+04  0.25500000000E-02 0. -1.
         -2   -1    0    0    0  501 -0.00000000000E+00 -0.00000000000E+00 -0.16343497516E+03  0.16343497518E+03  0.25500000000E-02 0.  1.
    8880023    1    1    2    0    0  0.32131496002E+03  0.10457484214E+03  0.76999570221E+03  0.10681211490E+04  0.65864270000E+03 0.  1.
    8880022    1    1    2    0    0 -0.32131496002E+03 -0.10457484214E+03  0.23786218324E+04  0.24073663360E+04  0.15294330000E+03 0.  0.
<mgrwt>
<rscale>  0 0.62280970E+03</rscale>
<asrwt>0</asrwt>
<pdfrwt beam="1">  1        2 0.50954649E+00 0.74026307E+03</pdfrwt>
<pdfrwt beam="2">  1       -2 0.25143845E-01 0.74026307E+03</pdfrwt>
<totfact> 0.16631150E+01</totfact>
</mgrwt>
</event>
<event>
 4    2  0.3855935E-007  0.8562657E+03  0.7818608E-02  0.9600241E-01
          2   -1    0    0  501    0  0.00000000000E+00  0.00000000000E+00  0.38172970983E+04  0.38172970983E+04  0.25500000000E-02 0. -1.
         -2   -1    0    0    0  501 -0.00000000000E+00 -0.00000000000E+00 -0.13288450031E+03  0.13288450033E+03  0.25500000000E-02 0.  1.
    8880023    1    1    2    0    0  0.48371604463E+03  0.25573323314E+03  0.21991271106E+04  0.23599472352E+04  0.65864270000E+03 0. -1.
    8880022    1    1    2    0    0 -0.48371604463E+03 -0.25573323314E+03  0.14852854874E+04  0.15902343634E+04  0.15294330000E+03 0.  1.
<mgrwt>
<rscale>  0 0.77280236E+03</rscale>
<asrwt>0</asrwt>
<pdfrwt beam="1">  1        2 0.58727647E+00 0.85626567E+03</pdfrwt>
<pdfrwt beam="2">  1       -2 0.20443770E-01 0.85626567E+03</pdfrwt>
<totfact> 0.10480693E+01</totfact>
</mgrwt>
</event>
<event>
 4    2  0.3855935E-007  0.8483214E+03  0.7818608E-02  0.9614685E-01
         -2   -1    0    0    0  501 -0.00000000000E+00  0.00000000000E+00  0.67424179942E+03  0.67424179943E+03  0.25500000000E-02 0.  1.
          2   -1    0    0  501    0  0.00000000000E+00 -0.00000000000E+00 -0.85827997441E+03  0.85827997441E+03  0.25500000000E-02 0. -1.
    8880023    1    1    2    0    0  0.27388075214E+02  0.53393720116E+03  0.18088320324E+03  0.86739148078E+03  0.65864270000E+03 0.  0.
    8880022    1    1    2    0    0 -0.27388075214E+02 -0.53393720116E+03 -0.36492137822E+03  0.66513029306E+03  0.15294330000E+03 0.  0.
<mgrwt>
<rscale>  0 0.76331826E+03</rscale>
<asrwt>0</asrwt>
<pdfrwt beam="1">  1        2 0.13204307E+00 0.84832143E+03</pdfrwt>
<pdfrwt beam="2">  1       -2 0.10372951E+00 0.84832143E+03</pdfrwt>
<totfact> 0.23846283E+01</totfact>
</mgrwt>
</event>
<event>
 4    2  0.3855935E-007  0.6681555E+03  0.7818608E-02  0.1017021E+00
         -2   -1    0    0    0  501 -0.00000000000E+00  0.00000000000E+00  0.12610352716E+03  0.12610352718E+03  0.25500000000E-02 0.  1.
          2   -1    0    0  501    0  0.00000000000E+00 -0.00000000000E+00 -0.21709616543E+04  0.21709616543E+04  0.25500000000E-02 0. -1.
    8880023    1    1    2    0    0 -0.15612094061E+02 -0.11125595003E+03 -0.82072938664E+03  0.10583140159E+04  0.65864270000E+03 0.  1.
    8880022    1    1    2    0    0  0.15612094061E+02  0.11125595003E+03 -0.12241287405E+04  0.12387511656E+04  0.15294330000E+03 0.  0.
<mgrwt>
<rscale>  0 0.48777104E+03</rscale>
<asrwt>0</asrwt>
<pdfrwt beam="1">  1        2 0.33399407E+00 0.66815554E+03</pdfrwt>
<pdfrwt beam="2">  1       -2 0.19400544E-01 0.66815554E+03</pdfrwt>
<totfact> 0.12533432E+02</totfact>
</mgrwt>
</event>
<event>
 4    2  0.3855935E-007  0.6796370E+03  0.7818608E-02  0.1009530E+00
          2   -1    0    0  501    0  0.00000000000E+00  0.00000000000E+00  0.20595601842E+04  0.20595601842E+04  0.25500000000E-02 0. -1.
         -2   -1    0    0    0  501 -0.00000000000E+00 -0.00000000000E+00 -0.17315773044E+03  0.17315773046E+03  0.25500000000E-02 0.  1.
    8880023    1    1    2    0    0 -0.96592858332E+02  0.13698926790E+03  0.54197830452E+03  0.86927954574E+03  0.65864270000E+03 0.  0.
    8880022    1    1    2    0    0  0.96592858332E+02 -0.13698926790E+03  0.13444241493E+04  0.13634383690E+04  0.15294330000E+03 0.  0.
<mgrwt>
<rscale>  0 0.51661962E+03</rscale>
<asrwt>0</asrwt>
<pdfrwt beam="1">  1        2 0.31685542E+00 0.67963700E+03</pdfrwt>
<pdfrwt beam="2">  1       -2 0.26639650E-01 0.67963700E+03</pdfrwt>
<totfact> 0.81946619E+01</totfact>
</mgrwt>
</event>
<event>
 4    2  0.3855935E-007  0.9599673E+03  0.7818608E-02  0.9435916E-01
          2   -1    0    0  501    0  0.00000000000E+00  0.00000000000E+00  0.19954971180E+04  0.19954971180E+04  0.25500000000E-02 0. -1.
         -2   -1    0    0    0  501 -0.00000000000E+00 -0.00000000000E+00 -0.36143660612E+03  0.36143660613E+03  0.25500000000E-02 0.  1.
    8880023    1    1    2    0    0 -0.64016206483E+03  0.27914062486E+03  0.73941685906E+03  0.12117237538E+04  0.65864270000E+03 0.  1.
    8880022    1    1    2    0    0  0.64016206483E+03 -0.27914062486E+03  0.89464365286E+03  0.11452099704E+04  0.15294330000E+03 0.  0.
<mgrwt>
<rscale>  0 0.89177960E+03</rscale>
<asrwt>0</asrwt>
<pdfrwt beam="1">  1        2 0.30699956E+00 0.95996727E+03</pdfrwt>
<pdfrwt beam="2">  1       -2 0.55605631E-01 0.95996727E+03</pdfrwt>
<totfact> 0.20583703E+01</totfact>
</mgrwt>
</event>
<event>
 4    2  0.3855935E-007  0.8203669E+03  0.7818608E-02  0.9668374E-01
          2   -1    0    0  501    0  0.00000000000E+00  0.00000000000E+00  0.91852118687E+03  0.91852118687E+03  0.25500000000E-02 0. -1.
         -2   -1    0    0    0  501 -0.00000000000E+00 -0.00000000000E+00 -0.54781067685E+03  0.54781067685E+03  0.25500000000E-02 0.  1.
    8880023    1    1    2    0    0  0.32517437016E+03  0.36531252754E+03 -0.22103625434E+02  0.82066460281E+03  0.65864270000E+03 0.  1.
    8880022    1    1    2    0    0 -0.32517437016E+03 -0.36531252754E+03  0.39281413545E+03  0.64566726091E+03  0.15294330000E+03 0.  0.
<mgrwt>
<rscale>  0 0.72931387E+03</rscale>
<asrwt>0</asrwt>
<pdfrwt beam="1">  1        2 0.14131095E+00 0.82036688E+03</pdfrwt>
<pdfrwt beam="2">  1       -2 0.84278567E-01 0.82036688E+03</pdfrwt>
<totfact> 0.35314695E+01</totfact>
</mgrwt>
</event>
<event>
 4    2  0.3855935E-007  0.1927635E+04  0.7818608E-02  0.8655036E-01
          2   -1    0    0  501    0  0.00000000000E+00  0.00000000000E+00  0.28384577822E+04  0.28384577822E+04  0.25500000000E-02 0. -1.
         -2   -1    0    0    0  501 -0.00000000000E+00 -0.00000000000E+00 -0.19137987992E+04  0.19137987992E+04  0.25500000000E-02 0.  1.
    8880023    1    1    2    0    0 -0.17525245023E+04  0.45893779864E+03 -0.94290353662E+03  0.21458898667E+04  0.65864270000E+03 0.  0.
    8880022    1    1    2    0    0  0.17525245023E+04 -0.45893779864E+03  0.18675625196E+04  0.26063667148E+04  0.15294330000E+03 0.  0.
<mgrwt>
<rscale>  0 0.18996382E+04</rscale>
<asrwt>0</asrwt>
<pdfrwt beam="1">  1        2 0.43668581E+00 0.19276349E+04</pdfrwt>
<pdfrwt beam="2">  1       -2 0.29443059E+00 0.19276349E+04</pdfrwt>
<totfact> 0.67199667E-02</totfact>
</mgrwt>
</event>
<event>
 4    2  0.3855935E-007  0.1423893E+04  0.7818608E-02  0.8965336E-01
          2   -1    0    0  501    0  0.00000000000E+00  0.00000000000E+00  0.14507334125E+04  0.14507334125E+04  0.25500000000E-02 0. -1.
         -2   -1    0    0    0  501 -0.00000000000E+00 -0.00000000000E+00 -0.16887688875E+04  0.16887688875E+04  0.25500000000E-02 0.  1.
    8880023    1    1    2    0    0  0.45310080492E+03 -0.11782877461E+04 -0.92127340054E+03  0.16959414014E+04  0.65864270000E+03 0.  1.
    8880022    1    1    2    0    0 -0.45310080492E+03  0.11782877461E+04  0.68323792551E+03  0.14435608986E+04  0.15294330000E+03 0.  0.
<mgrwt>
<rscale>  0 0.13841995E+04</rscale>
<asrwt>0</asrwt>
<pdfrwt beam="1">  1        2 0.22318975E+00 0.14238935E+04</pdfrwt>
<pdfrwt beam="2">  1       -2 0.25981060E+00 0.14238935E+04</pdfrwt>
<totfact> 0.71803315E-01</totfact>
</mgrwt>
</event>
<event>
 4    2  0.3855935E-007  0.1562766E+04  0.7818608E-02  0.8866540E-01
          2   -1    0    0  501    0  0.00000000000E+00  0.00000000000E+00  0.16339220629E+04  0.16339220629E+04  0.25500000000E-02 0. -1.
         -2   -1    0    0    0  501 -0.00000000000E+00 -0.00000000000E+00 -0.15367367098E+04  0.15367367098E+04  0.25500000000E-02 0.  1.
    8880023    1    1    2    0    0  0.11655910237E+04  0.80611793730E+03 -0.47699421750E+03  0.16339407129E+04  0.65864270000E+03 0.  0.
    8880022    1    1    2    0    0 -0.11655910237E+04 -0.80611793730E+03  0.57417957057E+03  0.15367180599E+04  0.15294330000E+03 0.  0.
<mgrwt>
<rscale>  0 0.15272362E+04</rscale>
<asrwt>0</asrwt>
<pdfrwt beam="1">  1        2 0.25137263E+00 0.15627664E+04</pdfrwt>
<pdfrwt beam="2">  1       -2 0.23642103E+00 0.15627664E+04</pdfrwt>
<totfact> 0.77730282E-01</totfact>
</mgrwt>
</event>
<event>
 4    2  0.3855935E-007  0.7570503E+03  0.7818608E-02  0.9812805E-01
         -2   -1    0    0    0  501 -0.00000000000E+00  0.00000000000E+00  0.64995296085E+03  0.64995296085E+03  0.25500000000E-02 0.  1.
          2   -1    0    0  501    0  0.00000000000E+00 -0.00000000000E+00 -0.64587314337E+03  0.64587314338E+03  0.25500000000E-02 0. -1.
    8880023    1    1    2    0    0  0.64255814422E+02  0.36767667234E+03 -0.27486145808E+03  0.80540298763E+03  0.65864270000E+03 0. -1.
    8880022    1    1    2    0    0 -0.64255814422E+02 -0.36767667234E+03  0.27894127556E+03  0.49042311660E+03  0.15294330000E+03 0.  0.
<mgrwt>
<rscale>  0 0.64679879E+03</rscale>
<asrwt>0</asrwt>
<pdfrwt beam="1">  1        2 0.99365099E-01 0.75705030E+03</pdfrwt>
<pdfrwt beam="2">  1       -2 0.99992763E-01 0.75705030E+03</pdfrwt>
<totfact> 0.37899304E+01</totfact>
</mgrwt>
</event>
<event>
 4    2  0.3855935E-007  0.6949714E+03  0.7818608E-02  0.1001874E+00
          2   -1    0    0  501    0  0.00000000000E+00  0.00000000000E+00  0.25247604548E+04  0.25247604548E+04  0.25500000000E-02 0. -1.
         -2   -1    0    0    0  501 -0.00000000000E+00 -0.00000000000E+00 -0.25429586152E+03  0.25429586153E+03  0.25500000000E-02 0.  1.
    8880023    1    1    2    0    0  0.12451383964E+03 -0.18349743720E+03  0.24672650987E+03  0.73746808925E+03  0.65864270000E+03 0.  1.
    8880022    1    1    2    0    0 -0.12451383964E+03  0.18349743720E+03  0.20237380834E+04  0.20415882271E+04  0.15294330000E+03 0.  0.
<mgrwt>
<rscale>  0 0.54836197E+03</rscale>
<asrwt>0</asrwt>
<pdfrwt beam="1">  1        2 0.38842467E+00 0.69497137E+03</pdfrwt>
<pdfrwt beam="2">  1       -2 0.39122441E-01 0.69497137E+03</pdfrwt>
<totfact> 0.21945200E+01</totfact>
</mgrwt>
</event>
<event>
 4    2  0.3855935E-007  0.7287222E+03  0.7818608E-02  0.9894107E-01
          2   -1    0    0  501    0  0.00000000000E+00  0.00000000000E+00  0.13951105424E+04  0.13951105424E+04  0.25500000000E-02 0. -1.
         -2   -1    0    0    0  501 -0.00000000000E+00 -0.00000000000E+00 -0.21658954745E+03  0.21658954747E+03  0.25500000000E-02 0.  1.
    8880023    1    1    2    0    0  0.18172001088E+03  0.25338445309E+03  0.94436162543E+03  0.11928348290E+04  0.65864270000E+03 0.  1.
    8880022    1    1    2    0    0 -0.18172001088E+03 -0.25338445309E+03  0.23415936953E+03  0.41886526088E+03  0.15294330000E+03 0.  0.
<mgrwt>
<rscale>  0 0.60547720E+03</rscale>
<asrwt>0</asrwt>
<pdfrwt beam="1">  1        2 0.21463239E+00 0.72872220E+03</pdfrwt>
<pdfrwt beam="2">  1       -2 0.33321470E-01 0.72872220E+03</pdfrwt>
<totfact> 0.12468972E+02</totfact>
</mgrwt>
</event>
<event>
 4    2  0.3855935E-007  0.1689335E+04  0.7818608E-02  0.8786356E-01
         -2   -1    0    0    0  501 -0.00000000000E+00  0.00000000000E+00  0.94515109194E+03  0.94515109195E+03  0.25500000000E-02 0.  1.
          2   -1    0    0  501    0  0.00000000000E+00 -0.00000000000E+00 -0.37290874769E+04  0.37290874769E+04  0.25500000000E-02 0. -1.
    8880023    1    1    2    0    0 -0.23631225234E+03  0.15375953498E+04 -0.26541936044E+03  0.17100586492E+04  0.65864270000E+03 0.  1.
    8880022    1    1    2    0    0  0.23631225234E+03 -0.15375953498E+04 -0.25185170246E+04  0.29641799197E+04  0.15294330000E+03 0.  0.
<mgrwt>
<rscale>  0 0.16568643E+04</rscale>
<asrwt>0</asrwt>
<pdfrwt beam="1">  1        2 0.57370576E+00 0.16893351E+04</pdfrwt>
<pdfrwt beam="2">  1       -2 0.14540786E+00 0.16893351E+04</pdfrwt>
<totfact> 0.16891676E-01</totfact>
</mgrwt>
</event>
<event>
 4    2  0.3855935E-007  0.7395980E+03  0.7818608E-02  0.9861120E-01
          2   -1    0    0  501    0  0.00000000000E+00  0.00000000000E+00  0.25008695899E+04  0.25008695899E+04  0.25500000000E-02 0. -1.
         -2   -1    0    0    0  501 -0.00000000000E+00 -0.00000000000E+00 -0.26315908861E+03  0.26315908862E+03  0.25500000000E-02 0.  1.
    8880023    1    1    2    0    0  0.28914807986E+03 -0.17201266394E+03  0.31122321785E+03  0.80241203022E+03  0.65864270000E+03 0.  1.
    8880022    1    1    2    0    0 -0.28914807986E+03  0.17201266394E+03  0.19264872834E+04  0.19616166483E+04  0.15294330000E+03 0.  0.
<mgrwt>
<rscale>  0 0.62183163E+03</rscale>
<asrwt>0</asrwt>
<pdfrwt beam="1">  1        2 0.38474917E+00 0.73959798E+03</pdfrwt>
<pdfrwt beam="2">  1       -2 0.40486014E-01 0.73959798E+03</pdfrwt>
<totfact> 0.21029679E+01</totfact>
</mgrwt>
</event>
<event>
 4    2  0.3855935E-007  0.7482390E+03  0.7818608E-02  0.9836566E-01
          2   -1    0    0  501    0  0.00000000000E+00  0.00000000000E+00  0.74126191406E+03  0.74126191406E+03  0.25500000000E-02 0. -1.
         -2   -1    0    0    0  501 -0.00000000000E+00 -0.00000000000E+00 -0.57825883866E+03  0.57825883867E+03  0.25500000000E-02 0.  1.
    8880023    1    1    2    0    0 -0.14662175411E+03 -0.32334737179E+03 -0.21533832009E+03  0.77860918309E+03  0.65864270000E+03 0.  1.
    8880022    1    1    2    0    0  0.14662175411E+03  0.32334737179E+03  0.37834139549E+03  0.54091156965E+03  0.15294330000E+03 0.  0.
<mgrwt>
<rscale>  0 0.63436580E+03</rscale>
<asrwt>0</asrwt>
<pdfrwt beam="1">  1        2 0.11404029E+00 0.74823904E+03</pdfrwt>
<pdfrwt beam="2">  1       -2 0.88962899E-01 0.74823904E+03</pdfrwt>
<totfact> 0.41886824E+01</totfact>
</mgrwt>
</event>
<event>
 4    2  0.3855935E-007  0.7585049E+03  0.7818608E-02  0.9808994E-01
         -2   -1    0    0    0  501 -0.00000000000E+00  0.00000000000E+00  0.13259301748E+03  0.13259301750E+03  0.25500000000E-02 0.  1.
          2   -1    0    0  501    0  0.00000000000E+00 -0.00000000000E+00 -0.28414280555E+04  0.28414280555E+04  0.25500000000E-02 0. -1.
    8880023    1    1    2    0    0  0.36792912962E+03 -0.78406441656E+02 -0.12727982791E+04  0.14816696933E+04  0.65864270000E+03 0.  0.
    8880022    1    1    2    0    0 -0.36792912962E+03  0.78406441656E+02 -0.14360367589E+04  0.14923513797E+04  0.15294330000E+03 0.  0.
<mgrwt>
<rscale>  0 0.64882115E+03</rscale>
<asrwt>0</asrwt>
<pdfrwt beam="1">  1        2 0.43714273E+00 0.75850486E+03</pdfrwt>
<pdfrwt beam="2">  1       -2 0.20398928E-01 0.75850486E+03</pdfrwt>
<totfact> 0.47197100E+01</totfact>
</mgrwt>
</event>
<event>
 4    2  0.3855935E-007  0.8973778E+03  0.7818608E-02  0.9530254E-01
          2   -1    0    0  501    0  0.00000000000E+00  0.00000000000E+00  0.16937338380E+04  0.16937338380E+04  0.25500000000E-02 0. -1.
         -2   -1    0    0    0  501 -0.00000000000E+00 -0.00000000000E+00 -0.37574105393E+03  0.37574105393E+03  0.25500000000E-02 0.  1.
    8880023    1    1    2    0    0 -0.63451316980E+02 -0.60617703695E+03  0.46700132283E+03  0.10116210316E+04  0.65864270000E+03 0.  1.
    8880022    1    1    2    0    0  0.63451316980E+02  0.60617703695E+03  0.85099146126E+03  0.10578538604E+04  0.15294330000E+03 0. -1.
<mgrwt>
<rscale>  0 0.82089577E+03</rscale>
<asrwt>0</asrwt>
<pdfrwt beam="1">  1        2 0.26057443E+00 0.89737778E+03</pdfrwt>
<pdfrwt beam="2">  1       -2 0.57806318E-01 0.89737778E+03</pdfrwt>
<totfact> 0.27977710E+01</totfact>
</mgrwt>
</event>
<event>
 4    2  0.3855935E-007  0.8650987E+03  0.7818608E-02  0.9584557E-01
          2   -1    0    0  501    0  0.00000000000E+00  0.00000000000E+00  0.32445599959E+04  0.32445599959E+04  0.25500000000E-02 0. -1.
         -2   -1    0    0    0  501 -0.00000000000E+00 -0.00000000000E+00 -0.31069361804E+03  0.31069361805E+03  0.25500000000E-02 0.  1.
    8880023    1    1    2    0    0 -0.53346473467E+03  0.17320759888E+03  0.39559628005E+03  0.95125817658E+03  0.65864270000E+03 0.  1.
    8880022    1    1    2    0    0  0.53346473467E+03 -0.17320759888E+03  0.25382700978E+04  0.26039954373E+04  0.15294330000E+03 0.  0.
<mgrwt>
<rscale>  0 0.78326758E+03</rscale>
<asrwt>0</asrwt>
<pdfrwt beam="1">  1        2 0.49916307E+00 0.86509867E+03</pdfrwt>
<pdfrwt beam="2">  1       -2 0.47799019E-01 0.86509867E+03</pdfrwt>
<totfact> 0.52874744E+00</totfact>
</mgrwt>
</event>
<event>
 4    2  0.3855935E-007  0.6804802E+03  0.7818608E-02  0.1009053E+00
          2   -1    0    0  501    0  0.00000000000E+00  0.00000000000E+00  0.24916196393E+04  0.24916196393E+04  0.25500000000E-02 0. -1.
         -2   -1    0    0    0  501 -0.00000000000E+00 -0.00000000000E+00 -0.18781349497E+03  0.18781349499E+03  0.25500000000E-02 0.  1.
    8880023    1    1    2    0    0  0.14219842780E+03 -0.94987768637E+02  0.23490199694E+04  0.24455976963E+04  0.65864270000E+03 0. -1.
    8880022    1    1    2    0    0 -0.14219842780E+03  0.94987768637E+02 -0.45213825125E+02  0.23383543798E+03  0.15294330000E+03 0.  0.
<mgrwt>
<rscale>  0 0.51852614E+03</rscale>
<asrwt>0</asrwt>
<pdfrwt beam="1">  1        2 0.38332609E+00 0.68048018E+03</pdfrwt>
<pdfrwt beam="2">  1       -2 0.28894384E-01 0.68048018E+03</pdfrwt>
<totfact> 0.40718124E+01</totfact>
</mgrwt>
</event>
<event>
 4    2  0.3855935E-007  0.6946354E+03  0.7818608E-02  0.1002023E+00
          2   -1    0    0  501    0  0.00000000000E+00  0.00000000000E+00  0.20163980428E+04  0.20163980428E+04  0.25500000000E-02 0. -1.
         -2   -1    0    0    0  501 -0.00000000000E+00 -0.00000000000E+00 -0.14583685294E+03  0.14583685297E+03  0.25500000000E-02 0.  1.
    8880023    1    1    2    0    0 -0.21960325587E+03  0.21967568991E+02  0.80456553947E+03  0.10629412390E+04  0.65864270000E+03 0.  1.
    8880022    1    1    2    0    0  0.21960325587E+03 -0.21967568991E+02  0.10659956504E+04  0.10992936568E+04  0.15294330000E+03 0. -1.
<mgrwt>
<rscale>  0 0.54772109E+03</rscale>
<asrwt>0</asrwt>
<pdfrwt beam="1">  1        2 0.31021505E+00 0.69463542E+03</pdfrwt>
<pdfrwt beam="2">  1       -2 0.22436441E-01 0.69463542E+03</pdfrwt>
<totfact> 0.11755261E+02</totfact>
</mgrwt>
</event>
<event>
 4    2  0.3855935E-007  0.7689132E+03  0.7818608E-02  0.9782555E-01
         -2   -1    0    0    0  501 -0.00000000000E+00  0.00000000000E+00  0.15537576347E+04  0.15537576347E+04  0.25500000000E-02 0.  1.
          2   -1    0    0  501    0  0.00000000000E+00 -0.00000000000E+00 -0.80133640155E+03  0.80133640155E+03  0.25500000000E-02 0. -1.
    8880023    1    1    2    0    0  0.13555350170E+02  0.39652695666E+03  0.13901348810E+04  0.15886165580E+04  0.65864270000E+03 0.  0.
    8880022    1    1    2    0    0 -0.13555350170E+02 -0.39652695666E+03 -0.63771364787E+03  0.76647747819E+03  0.15294330000E+03 0.  0.
<mgrwt>
<rscale>  0 0.66307174E+03</rscale>
<asrwt>0</asrwt>
<pdfrwt beam="1">  1        2 0.12328252E+00 0.76891325E+03</pdfrwt>
<pdfrwt beam="2">  1       -2 0.23903964E+00 0.76891325E+03</pdfrwt>
<totfact> 0.26491898E+00</totfact>
</mgrwt>
</event>
<event>
 4    2  0.3855935E-007  0.7829534E+03  0.7818608E-02  0.9748944E-01
         -2   -1    0    0    0  501 -0.00000000000E+00  0.00000000000E+00  0.44909475776E+03  0.44909475777E+03  0.25500000000E-02 0.  1.
          2   -1    0    0  501    0  0.00000000000E+00 -0.00000000000E+00 -0.21168492715E+04  0.21168492715E+04  0.25500000000E-02 0. -1.
    8880023    1    1    2    0    0 -0.36891902542E+03  0.20761655382E+03  0.55459414400E+02  0.78491517608E+03  0.65864270000E+03 0.  0.
    8880022    1    1    2    0    0  0.36891902542E+03 -0.20761655382E+03 -0.17232139281E+04  0.17810288531E+04  0.15294330000E+03 0. -1.
<mgrwt>
<rscale>  0 0.68175954E+03</rscale>
<asrwt>0</asrwt>
<pdfrwt beam="1">  1        2 0.32566911E+00 0.78295344E+03</pdfrwt>
<pdfrwt beam="2">  1       -2 0.69091502E-01 0.78295344E+03</pdfrwt>
<totfact> 0.11360397E+01</totfact>
</mgrwt>
</event>
<event>
 4    2  0.3855935E-007  0.6641834E+03  0.7818608E-02  0.1020229E+00
          2   -1    0    0  501    0  0.00000000000E+00  0.00000000000E+00  0.47540295027E+03  0.47540295028E+03  0.25500000000E-02 0. -1.
         -2   -1    0    0    0  501 -0.00000000000E+00 -0.00000000000E+00 -0.49237529109E+03  0.49237529110E+03  0.25500000000E-02 0.  1.
    8880023    1    1    2    0    0  0.85443583266E+02  0.53584085094E+01 -0.21989606225E+03  0.69963833723E+03  0.65864270000E+03 0.  1.
    8880022    1    1    2    0    0 -0.85443583266E+02 -0.53584085094E+01  0.20292372143E+03  0.26813990415E+03  0.15294330000E+03 0.  0.
<mgrwt>
<rscale>  0 0.47604209E+03</rscale>
<asrwt>0</asrwt>
<pdfrwt beam="1">  1        2 0.73138915E-01 0.66418335E+03</pdfrwt>
<pdfrwt beam="2">  1       -2 0.75750045E-01 0.66418335E+03</pdfrwt>
<totfact> 0.10356809E+02</totfact>
</mgrwt>
</event>
<event>
 4    2  0.3855935E-007  0.7418236E+03  0.7818608E-02  0.9854667E-01
         -2   -1    0    0    0  501 -0.00000000000E+00  0.00000000000E+00  0.77631673749E+03  0.77631673749E+03  0.25500000000E-02 0.  1.
          2   -1    0    0  501    0  0.00000000000E+00 -0.00000000000E+00 -0.42815062193E+03  0.42815062194E+03  0.25500000000E-02 0. -1.
    8880023    1    1    2    0    0 -0.28423950765E+03  0.18894439047E+03  0.83981844685E+02  0.74656227932E+03  0.65864270000E+03 0. -1.
    8880022    1    1    2    0    0  0.28423950765E+03 -0.18894439047E+03  0.26418427088E+03  0.45790508011E+03  0.15294330000E+03 0.  0.
<mgrwt>
<rscale>  0 0.62509553E+03</rscale>
<asrwt>0</asrwt>
<pdfrwt beam="1">  1        2 0.65869327E-01 0.74182362E+03</pdfrwt>
<pdfrwt beam="2">  1       -2 0.11943334E+00 0.74182362E+03</pdfrwt>
<totfact> 0.40033738E+01</totfact>
</mgrwt>
</event>
<event>
 4    2  0.3855935E-007  0.7979674E+03  0.7818608E-02  0.9715208E-01
          2   -1    0    0  501    0  0.00000000000E+00  0.00000000000E+00  0.12712866938E+04  0.12712866938E+04  0.25500000000E-02 0. -1.
         -2   -1    0    0    0  501 -0.00000000000E+00 -0.00000000000E+00 -0.43628187593E+03  0.43628187593E+03  0.25500000000E-02 0.  1.
    8880023    1    1    2    0    0  0.34627046380E+03 -0.28816403252E+03  0.62615974214E+02  0.80042033347E+03  0.65864270000E+03 0.  1.
    8880022    1    1    2    0    0 -0.34627046380E+03  0.28816403252E+03  0.77238884365E+03  0.90714823626E+03  0.15294330000E+03 0.  0.
<mgrwt>
<rscale>  0 0.70118471E+03</rscale>
<asrwt>0</asrwt>
<pdfrwt beam="1">  1        2 0.19558256E+00 0.79796739E+03</pdfrwt>
<pdfrwt beam="2">  1       -2 0.67120290E-01 0.79796739E+03</pdfrwt>
<totfact> 0.35511157E+01</totfact>
</mgrwt>
</event>
<event>
 4    2  0.3855935E-007  0.9926057E+03  0.7818608E-02  0.9391296E-01
         -2   -1    0    0    0  501 -0.00000000000E+00  0.00000000000E+00  0.11586798343E+04  0.11586798343E+04  0.25500000000E-02 0.  1.
          2   -1    0    0  501    0  0.00000000000E+00 -0.00000000000E+00 -0.78932909888E+03  0.78932909889E+03  0.25500000000E-02 0. -1.
    8880023    1    1    2    0    0  0.72337304361E+03  0.16789047741E+03  0.59459754609E+03  0.11570705340E+04  0.65864270000E+03 0. -1.
    8880022    1    1    2    0    0 -0.72337304361E+03 -0.16789047741E+03 -0.22524681064E+03  0.79093839921E+03  0.15294330000E+03 0.  1.
<mgrwt>
<rscale>  0 0.92795439E+03</rscale>
<asrwt>0</asrwt>
<pdfrwt beam="1">  1        2 0.12143525E+00 0.99260565E+03</pdfrwt>
<pdfrwt beam="2">  1       -2 0.17825844E+00 0.99260565E+03</pdfrwt>
<totfact> 0.64902810E+00</totfact>
</mgrwt>
</event>
<event>
 4    2  0.3855935E-007  0.6700705E+03  0.7818608E-02  0.1015612E+00
          2   -1    0    0  501    0  0.00000000000E+00  0.00000000000E+00  0.51262666448E+03  0.51262666449E+03  0.25500000000E-02 0. -1.
         -2   -1    0    0    0  501 -0.00000000000E+00 -0.00000000000E+00 -0.16095191330E+04  0.16095191330E+04  0.25500000000E-02 0.  1.
    8880023    1    1    2    0    0  0.95144909906E+02  0.78305487747E+02 -0.15169975376E+04  0.16583956219E+04  0.65864270000E+03 0.  1.
    8880022    1    1    2    0    0 -0.95144909906E+02 -0.78305487747E+02  0.42010506909E+03  0.46375017561E+03  0.15294330000E+03 0.  0.
<mgrwt>
<rscale>  0 0.49303752E+03</rscale>
<asrwt>0</asrwt>
<pdfrwt beam="1">  1        2 0.78865641E-01 0.67007053E+03</pdfrwt>
<pdfrwt beam="2">  1       -2 0.24761833E+00 0.67007053E+03</pdfrwt>
<totfact> 0.41365718E+00</totfact>
</mgrwt>
</event>
<event>
 4    2  0.3855935E-007  0.8769902E+03  0.7818608E-02  0.9564028E-01
          2   -1    0    0  501    0  0.00000000000E+00  0.00000000000E+00  0.21371260372E+04  0.21371260372E+04  0.25500000000E-02 0. -1.
         -2   -1    0    0    0  501 -0.00000000000E+00 -0.00000000000E+00 -0.86092467067E+03  0.86092467067E+03  0.25500000000E-02 0.  1.
    8880023    1    1    2    0    0 -0.36854561638E+03  0.44662703644E+03 -0.57746249341E+03  0.10500355797E+04  0.65864270000E+03 0.  1.
    8880022    1    1    2    0    0  0.36854561638E+03 -0.44662703644E+03  0.18536638599E+04  0.19480151282E+04  0.15294330000E+03 0. -1.
<mgrwt>
<rscale>  0 0.79723517E+03</rscale>
<asrwt>0</asrwt>
<pdfrwt beam="1">  1        2 0.32878862E+00 0.87699019E+03</pdfrwt>
<pdfrwt beam="2">  1       -2 0.13244995E+00 0.87699019E+03</pdfrwt>
<totfact> 0.23625141E+00</totfact>
</mgrwt>
</event>
<event>
 4    2  0.3855935E-007  0.1000686E+04  0.7818608E-02  0.9380661E-01
          2   -1    0    0  501    0  0.00000000000E+00  0.00000000000E+00  0.12440399507E+04  0.12440399507E+04  0.25500000000E-02 0. -1.
         -2   -1    0    0    0  501 -0.00000000000E+00 -0.00000000000E+00 -0.66682343513E+03  0.66682343514E+03  0.25500000000E-02 0.  1.
    8880023    1    1    2    0    0 -0.13545280348E+03 -0.74109012697E+03  0.99116472593E+02  0.10055825773E+04  0.65864270000E+03 0.  0.
    8880022    1    1    2    0    0  0.13545280348E+03  0.74109012697E+03  0.47810004293E+03  0.90528080855E+03  0.15294330000E+03 0.  0.
<mgrwt>
<rscale>  0 0.93684450E+03</rscale>
<asrwt>0</asrwt>
<pdfrwt beam="1">  1        2 0.19139076E+00 0.10006859E+04</pdfrwt>
<pdfrwt beam="2">  1       -2 0.10258822E+00 0.10006859E+04</pdfrwt>
<totfact> 0.13775437E+01</totfact>
</mgrwt>
</event>
<event>
 4    2  0.3855935E-007  0.1089468E+04  0.7818608E-02  0.9272874E-01
          2   -1    0    0  501    0  0.00000000000E+00  0.00000000000E+00  0.29033925146E+04  0.29033925146E+04  0.25500000000E-02 0. -1.
         -2   -1    0    0    0  501 -0.00000000000E+00 -0.00000000000E+00 -0.48538284170E+03  0.48538284171E+03  0.25500000000E-02 0.  1.
    8880023    1    1    2    0    0  0.72459069400E+02  0.86480036742E+03  0.22383999647E+04  0.24894526709E+04  0.65864270000E+03 0.  0.
    8880022    1    1    2    0    0 -0.72459069400E+02 -0.86480036742E+03  0.17960970818E+03  0.89932268543E+03  0.15294330000E+03 0.  0.
<mgrwt>
<rscale>  0 0.10331896E+04</rscale>
<asrwt>0</asrwt>
<pdfrwt beam="1">  1        2 0.44667577E+00 0.10894679E+04</pdfrwt>
<pdfrwt beam="2">  1       -2 0.74674283E-01 0.10894679E+04</pdfrwt>
<totfact> 0.32452314E+00</totfact>
</mgrwt>
</event>
<event>
 4    2  0.3855935E-007  0.6762679E+03  0.7818608E-02  0.1011519E+00
         -2   -1    0    0    0  501 -0.00000000000E+00  0.00000000000E+00  0.42004970455E+03  0.42004970456E+03  0.25500000000E-02 0.  1.
          2   -1    0    0  501    0  0.00000000000E+00 -0.00000000000E+00 -0.10972286114E+04  0.10972286114E+04  0.25500000000E-02 0. -1.
    8880023    1    1    2    0    0 -0.15187166481E+03  0.21519835279E+02  0.12381832036E+03  0.68750948256E+03  0.65864270000E+03 0.  1.
    8880022    1    1    2    0    0  0.15187166481E+03 -0.21519835279E+02 -0.80099722725E+03  0.82976883345E+03  0.15294330000E+03 0.  0.
<mgrwt>
<rscale>  0 0.50875485E+03</rscale>
<asrwt>0</asrwt>
<pdfrwt beam="1">  1        2 0.16880440E+00 0.67626793E+03</pdfrwt>
<pdfrwt beam="2">  1       -2 0.64623032E-01 0.67626793E+03</pdfrwt>
<totfact> 0.49499782E+01</totfact>
</mgrwt>
</event>
<event>
 4    2  0.3855935E-007  0.9675539E+03  0.7818608E-02  0.9425295E-01
          2   -1    0    0  501    0  0.00000000000E+00  0.00000000000E+00  0.94862251960E+03  0.94862251961E+03  0.25500000000E-02 0. -1.
         -2   -1    0    0    0  501 -0.00000000000E+00 -0.00000000000E+00 -0.95724758688E+03  0.95724758688E+03  0.25500000000E-02 0.  1.
    8880023    1    1    2    0    0  0.32950883079E+03  0.62751435013E+03 -0.43921064755E+03  0.10625754224E+04  0.65864270000E+03 0.  0.
    8880022    1    1    2    0    0 -0.32950883079E+03 -0.62751435013E+03  0.43058558028E+03  0.84329468405E+03  0.15294330000E+03 0.  0.
<mgrwt>
<rscale>  0 0.90022891E+03</rscale>
<asrwt>0</asrwt>
<pdfrwt beam="1">  1        2 0.14594193E+00 0.96755389E+03</pdfrwt>
<pdfrwt beam="2">  1       -2 0.14726886E+00 0.96755389E+03</pdfrwt>
<totfact> 0.85101524E+00</totfact>
</mgrwt>
</event>
<event>
 4    2  0.3855935E-007  0.6809691E+03  0.7818608E-02  0.1008781E+00
          2   -1    0    0  501    0  0.00000000000E+00  0.00000000000E+00  0.14895758748E+04  0.14895758748E+04  0.25500000000E-02 0. -1.
         -2   -1    0    0    0  501 -0.00000000000E+00 -0.00000000000E+00 -0.51156523333E+03  0.51156523334E+03  0.25500000000E-02 0.  1.
    8880023    1    1    2    0    0  0.15980653641E+03 -0.66110864628E+02 -0.26956580061E+03  0.73238289345E+03  0.65864270000E+03 0.  0.
    8880022    1    1    2    0    0 -0.15980653641E+03  0.66110864628E+02  0.12475764421E+04  0.12687582147E+04  0.15294330000E+03 0.  0.
<mgrwt>
<rscale>  0 0.51962126E+03</rscale>
<asrwt>0</asrwt>
<pdfrwt beam="1">  1        2 0.22916552E+00 0.68096915E+03</pdfrwt>
<pdfrwt beam="2">  1       -2 0.78702344E-01 0.68096915E+03</pdfrwt>
<totfact> 0.19061801E+01</totfact>
</mgrwt>
</event>
<event>
 4    2  0.3855935E-007  0.6597364E+03  0.7818608E-02  0.1024428E+00
          2   -1    0    0  501    0  0.00000000000E+00  0.00000000000E+00  0.22280704255E+04  0.22280704255E+04  0.25500000000E-02 0. -1.
         -2   -1    0    0    0  501 -0.00000000000E+00 -0.00000000000E+00 -0.32012666155E+03  0.32012666156E+03  0.25500000000E-02 0.  1.
    8880023    1    1    2    0    0  0.17608986938E+02 -0.33642610052E+02  0.26607855392E+02  0.66027273597E+03  0.65864270000E+03 0.  1.
    8880022    1    1    2    0    0 -0.17608986938E+02  0.33642610052E+02  0.18813359086E+04  0.18879243511E+04  0.15294330000E+03 0.  0.
<mgrwt>
<rscale>  0 0.46121953E+03</rscale>
<asrwt>0</asrwt>
<pdfrwt beam="1">  1        2 0.34278006E+00 0.65973639E+03</pdfrwt>
<pdfrwt beam="2">  1       -2 0.49250256E-01 0.65973639E+03</pdfrwt>
<totfact> 0.20477389E+01</totfact>
</mgrwt>
</event>
<event>
 4    2  0.3855935E-007  0.7684231E+03  0.7818608E-02  0.9783770E-01
         -2   -1    0    0    0  501 -0.00000000000E+00  0.00000000000E+00  0.39086426713E+03  0.39086426714E+03  0.25500000000E-02 0.  1.
          2   -1    0    0  501    0  0.00000000000E+00 -0.00000000000E+00 -0.11295786356E+04  0.11295786356E+04  0.25500000000E-02 0. -1.
    8880023    1    1    2    0    0  0.84792428818E+02 -0.38661870740E+03 -0.13140368538E+03  0.77957739558E+03  0.65864270000E+03 0.  0.
    8880022    1    1    2    0    0 -0.84792428818E+02  0.38661870740E+03 -0.60731068313E+03  0.74086550720E+03  0.15294330000E+03 0.  0.
<mgrwt>
<rscale>  0 0.66240876E+03</rscale>
<asrwt>0</asrwt>
<pdfrwt beam="1">  1        2 0.17378133E+00 0.76842305E+03</pdfrwt>
<pdfrwt beam="2">  1       -2 0.60132965E-01 0.76842305E+03</pdfrwt>
<totfact> 0.54665861E+01</totfact>
</mgrwt>
</event>
<event>
 4    2  0.3855935E-007  0.7745380E+03  0.7818608E-02  0.9768827E-01
          2   -1    0    0  501    0  0.00000000000E+00  0.00000000000E+00  0.57267721083E+03  0.57267721084E+03  0.25500000000E-02 0. -1.
         -2   -1    0    0    0  501 -0.00000000000E+00 -0.00000000000E+00 -0.16797812527E+04  0.16797812527E+04  0.25500000000E-02 0.  1.
    8880023    1    1    2    0    0 -0.89395730160E+01 -0.40745422065E+03 -0.14857480283E+04  0.16755167166E+04  0.65864270000E+03 0.  1.
    8880022    1    1    2    0    0  0.89395730160E+01  0.40745422065E+03  0.37864398641E+03  0.57694174692E+03  0.15294330000E+03 0.  0.
<mgrwt>
<rscale>  0 0.67062612E+03</rscale>
<asrwt>0</asrwt>
<pdfrwt beam="1">  1        2 0.88104187E-01 0.77453797E+03</pdfrwt>
<pdfrwt beam="2">  1       -2 0.25842788E+00 0.77453797E+03</pdfrwt>
<totfact> 0.30767826E+00</totfact>
</mgrwt>
</event>
<event>
 4    2  0.3855935E-007  0.7356101E+03  0.7818608E-02  0.9872924E-01
          2   -1    0    0  501    0  0.00000000000E+00  0.00000000000E+00  0.69759476510E+03  0.69759476510E+03  0.25500000000E-02 0. -1.
         -2   -1    0    0    0  501 -0.00000000000E+00 -0.00000000000E+00 -0.10741234574E+04  0.10741234574E+04  0.25500000000E-02 0.  1.
    8880023    1    1    2    0    0  0.25215292189E+03  0.20911925236E+03 -0.88311709033E+03  0.11493554538E+04  0.65864270000E+03 0.  1.
    8880022    1    1    2    0    0 -0.25215292189E+03 -0.20911925236E+03  0.50658839807E+03  0.62236276865E+03  0.15294330000E+03 0.  0.
<mgrwt>
<rscale>  0 0.61591630E+03</rscale>
<asrwt>0</asrwt>
<pdfrwt beam="1">  1        2 0.10732227E+00 0.73561006E+03</pdfrwt>
<pdfrwt beam="2">  1       -2 0.16524976E+00 0.73561006E+03</pdfrwt>
<totfact> 0.96601625E+00</totfact>
</mgrwt>
</event>
<event>
 4    2  0.3855935E-007  0.9714175E+03  0.7818608E-02  0.9419946E-01
          2   -1    0    0  501    0  0.00000000000E+00  0.00000000000E+00  0.21368408251E+04  0.21368408251E+04  0.25500000000E-02 0. -1.
         -2   -1    0    0    0  501 -0.00000000000E+00 -0.00000000000E+00 -0.61502195786E+03  0.61502195787E+03  0.25500000000E-02 0.  1.
    8880023    1    1    2    0    0  0.66899335569E+03  0.24957882325E+03 -0.96721041623E+02  0.97622070513E+03  0.65864270000E+03 0.  1.
    8880022    1    1    2    0    0 -0.66899335569E+03 -0.24957882325E+03  0.16185399088E+04  0.17756420778E+04  0.15294330000E+03 0.  0.
<mgrwt>
<rscale>  0 0.90452192E+03</rscale>
<asrwt>0</asrwt>
<pdfrwt beam="1">  1        2 0.32874474E+00 0.97141747E+03</pdfrwt>
<pdfrwt beam="2">  1       -2 0.94618765E-01 0.97141747E+03</pdfrwt>
<totfact> 0.53058795E+00</totfact>
</mgrwt>
</event>
<event>
 4    2  0.3855935E-007  0.6676324E+03  0.7818608E-02  0.1017420E+00
         -2   -1    0    0    0  501 -0.00000000000E+00  0.00000000000E+00  0.13758579507E+03  0.13758579509E+03  0.25500000000E-02 0.  1.
          2   -1    0    0  501    0  0.00000000000E+00 -0.00000000000E+00 -0.25722938134E+04  0.25722938134E+04  0.25500000000E-02 0. -1.
    8880023    1    1    2    0    0 -0.37506702937E+02  0.10254778151E+03 -0.70860790198E+03  0.97358007646E+03  0.65864270000E+03 0.  1.
    8880022    1    1    2    0    0  0.37506702937E+02 -0.10254778151E+03 -0.17261001163E+04  0.17362995320E+04  0.15294330000E+03 0.  0.
<mgrwt>
<rscale>  0 0.48629198E+03</rscale>
<asrwt>0</asrwt>
<pdfrwt beam="1">  1        2 0.39573748E+00 0.66763239E+03</pdfrwt>
<pdfrwt beam="2">  1       -2 0.21167047E-01 0.66763239E+03</pdfrwt>
<totfact> 0.64271894E+01</totfact>
</mgrwt>
</event>
<event>
 4    2  0.3855935E-007  0.7014107E+03  0.7818608E-02  0.9991399E-01
         -2   -1    0    0    0  501 -0.00000000000E+00  0.00000000000E+00  0.25804212237E+03  0.25804212239E+03  0.25500000000E-02 0.  1.
          2   -1    0    0  501    0  0.00000000000E+00 -0.00000000000E+00 -0.13146929930E+04  0.13146929930E+04  0.25500000000E-02 0. -1.
    8880023    1    1    2    0    0 -0.20856689010E+03 -0.12110590499E+03 -0.10782746560E+04  0.12863332491E+04  0.65864270000E+03 0. -1.
    8880022    1    1    2    0    0  0.20856689010E+03  0.12110590499E+03  0.21623785362E+02  0.28640186623E+03  0.15294330000E+03 0.  0.
<mgrwt>
<rscale>  0 0.56029005E+03</rscale>
<asrwt>0</asrwt>
<pdfrwt beam="1">  1        2 0.20226046E+00 0.70141072E+03</pdfrwt>
<pdfrwt beam="2">  1       -2 0.39698789E-01 0.70141072E+03</pdfrwt>
<totfact> 0.99294778E+01</totfact>
</mgrwt>
</event>
<event>
 4    2  0.3855935E-007  0.7521626E+03  0.7818608E-02  0.9825837E-01
          2   -1    0    0  501    0  0.00000000000E+00  0.00000000000E+00  0.12800353768E+04  0.12800353768E+04  0.25500000000E-02 0. -1.
         -2   -1    0    0    0  501 -0.00000000000E+00 -0.00000000000E+00 -0.25931553212E+03  0.25931553213E+03  0.25500000000E-02 0.  1.
    8880023    1    1    2    0    0  0.21497048507E+03  0.29279022058E+03  0.59361656755E+03  0.95819061687E+03  0.65864270000E+03 0.  1.
    8880022    1    1    2    0    0 -0.21497048507E+03 -0.29279022058E+03  0.42710327714E+03  0.58116029207E+03  0.15294330000E+03 0. -1.
<mgrwt>
<rscale>  0 0.63994222E+03</rscale>
<asrwt>0</asrwt>
<pdfrwt beam="1">  1        2 0.19692852E+00 0.75216263E+03</pdfrwt>
<pdfrwt beam="2">  1       -2 0.39894697E-01 0.75216263E+03</pdfrwt>
<totfact> 0.10252738E+02</totfact>
</mgrwt>
</event>
<event>
 4    2  0.3855935E-007  0.8078444E+03  0.7818608E-02  0.9694085E-01
          2   -1    0    0  501    0  0.00000000000E+00  0.00000000000E+00  0.16380477626E+04  0.16380477626E+04  0.25500000000E-02 0. -1.
         -2   -1    0    0    0  501 -0.00000000000E+00 -0.00000000000E+00 -0.27376201199E+03  0.27376201200E+03  0.25500000000E-02 0.  1.
    8880023    1    1    2    0    0  0.37523430608E+03 -0.27928762428E+03  0.61474913209E+03  0.10151497738E+04  0.65864270000E+03 0.  1.
    8880022    1    1    2    0    0 -0.37523430608E+03  0.27928762428E+03  0.74953661849E+03  0.89666000078E+03  0.15294330000E+03 0. -1.
<mgrwt>
<rscale>  0 0.71370085E+03</rscale>
<asrwt>0</asrwt>
<pdfrwt beam="1">  1        2 0.25200735E+00 0.80784440E+03</pdfrwt>
<pdfrwt beam="2">  1       -2 0.42117233E-01 0.80784440E+03</pdfrwt>
<totfact> 0.57703513E+01</totfact>
</mgrwt>
</event>
<event>
 4    2  0.3855935E-007  0.7980511E+03  0.7818608E-02  0.9715026E-01
         -2   -1    0    0    0  501 -0.00000000000E+00  0.00000000000E+00  0.37819541878E+03  0.37819541879E+03  0.25500000000E-02 0.  1.
          2   -1    0    0  501    0  0.00000000000E+00 -0.00000000000E+00 -0.29869334548E+04  0.29869334548E+04  0.25500000000E-02 0. -1.
    8880023    1    1    2    0    0  0.14973792209E+03  0.42503401379E+03 -0.91473416862E+02  0.80327638484E+03  0.65864270000E+03 0.  0.
    8880022    1    1    2    0    0 -0.14973792209E+03 -0.42503401379E+03 -0.25172646192E+04  0.25618524887E+04  0.15294330000E+03 0.  0.
<mgrwt>
<rscale>  0 0.70129161E+03</rscale>
<asrwt>0</asrwt>
<pdfrwt beam="1">  1        2 0.45952821E+00 0.79805110E+03</pdfrwt>
<pdfrwt beam="2">  1       -2 0.58183913E-01 0.79805110E+03</pdfrwt>
<totfact> 0.51778365E+00</totfact>
</mgrwt>
</event>
<event>
 4    2  0.3855935E-007  0.7556780E+03  0.7818608E-02  0.9816428E-01
          2   -1    0    0  501    0  0.00000000000E+00  0.00000000000E+00  0.27815133007E+04  0.27815133007E+04  0.25500000000E-02 0. -1.
         -2   -1    0    0    0  501 -0.00000000000E+00 -0.00000000000E+00 -0.34722452186E+03  0.34722452186E+03  0.25500000000E-02 0.  1.
    8880023    1    1    2    0    0  0.80040611166E+02 -0.36170776818E+03  0.10231410190E+03  0.76257287567E+03  0.65864270000E+03 0.  1.
    8880022    1    1    2    0    0 -0.80040611166E+02  0.36170776818E+03  0.23319746769E+04  0.23661649469E+04  0.15294330000E+03 0.  0.
<mgrwt>
<rscale>  0 0.64488330E+03</rscale>
<asrwt>0</asrwt>
<pdfrwt beam="1">  1        2 0.42792513E+00 0.75567798E+03</pdfrwt>
<pdfrwt beam="2">  1       -2 0.53419157E-01 0.75567798E+03</pdfrwt>
<totfact> 0.82783613E+00</totfact>
</mgrwt>
</event>
<event>
 4    2  0.3855935E-007  0.7350895E+03  0.7818608E-02  0.9874489E-01
          2   -1    0    0  501    0  0.00000000000E+00  0.00000000000E+00  0.90400653421E+03  0.90400653421E+03  0.25500000000E-02 0. -1.
         -2   -1    0    0    0  501 -0.00000000000E+00 -0.00000000000E+00 -0.41065180206E+03  0.41065180207E+03  0.25500000000E-02 0.  1.
    8880023    1    1    2    0    0 -0.33352004854E+02  0.32470592811E+03  0.40982961777E+02  0.73623101361E+03  0.65864270000E+03 0.  1.
    8880022    1    1    2    0    0  0.33352004854E+02 -0.32470592811E+03  0.45237177037E+03  0.57842732268E+03  0.15294330000E+03 0.  0.
<mgrwt>
<rscale>  0 0.61513742E+03</rscale>
<asrwt>0</asrwt>
<pdfrwt beam="1">  1        2 0.13907793E+00 0.73508945E+03</pdfrwt>
<pdfrwt beam="2">  1       -2 0.63177202E-01 0.73508945E+03</pdfrwt>
<totfact> 0.68643263E+01</totfact>
</mgrwt>
</event>
<event>
 4    2  0.3855935E-007  0.6667612E+03  0.7818608E-02  0.1018099E+00
          2   -1    0    0  501    0  0.00000000000E+00  0.00000000000E+00  0.10995709228E+04  0.10995709228E+04  0.25500000000E-02 0. -1.
         -2   -1    0    0    0  501 -0.00000000000E+00 -0.00000000000E+00 -0.49989521124E+03  0.49989521125E+03  0.25500000000E-02 0.  1.
    8880023    1    1    2    0    0 -0.10300414741E+03  0.12265799360E+02 -0.26334350508E+03  0.71688235586E+03  0.65864270000E+03 0.  1.
    8880022    1    1    2    0    0  0.10300414741E+03 -0.12265799360E+02  0.86301921659E+03  0.88258377814E+03  0.15294330000E+03 0.  0.
<mgrwt>
<rscale>  0 0.48378756E+03</rscale>
<asrwt>0</asrwt>
<pdfrwt beam="1">  1        2 0.16916475E+00 0.66676121E+03</pdfrwt>
<pdfrwt beam="2">  1       -2 0.76906957E-01 0.66676121E+03</pdfrwt>
<totfact> 0.33776119E+01</totfact>
</mgrwt>
</event>
<event>
 4    2  0.3855935E-007  0.9608450E+03  0.7818608E-02  0.9434679E-01
         -2   -1    0    0    0  501 -0.00000000000E+00  0.00000000000E+00  0.46989461995E+03  0.46989461996E+03  0.25500000000E-02 0.  1.
          2   -1    0    0  501    0  0.00000000000E+00 -0.00000000000E+00 -0.15486668064E+04  0.15486668064E+04  0.25500000000E-02 0. -1.
    8880023    1    1    2    0    0  0.65133510136E+03  0.25529479574E+03 -0.43152524483E+03  0.10532981962E+04  0.65864270000E+03 0.  0.
    8880022    1    1    2    0    0 -0.65133510136E+03 -0.25529479574E+03 -0.64724694163E+03  0.96526323014E+03  0.15294330000E+03 0.  0.
<mgrwt>
<rscale>  0 0.89275845E+03</rscale>
<asrwt>0</asrwt>
<pdfrwt beam="1">  1        2 0.23825643E+00 0.96084497E+03</pdfrwt>
<pdfrwt beam="2">  1       -2 0.72291481E-01 0.96084497E+03</pdfrwt>
<totfact> 0.20676541E+01</totfact>
</mgrwt>
</event>
<event>
 4    2  0.3855935E-007  0.7980045E+03  0.7818608E-02  0.9715128E-01
          2   -1    0    0  501    0  0.00000000000E+00  0.00000000000E+00  0.49492195185E+03  0.49492195186E+03  0.25500000000E-02 0. -1.
         -2   -1    0    0    0  501 -0.00000000000E+00 -0.00000000000E+00 -0.19331988984E+04  0.19331988984E+04  0.25500000000E-02 0.  1.
    8880023    1    1    2    0    0 -0.24823222855E+03  0.37600756204E+03 -0.17051049316E+04  0.18826029746E+04  0.65864270000E+03 0.  0.
    8880022    1    1    2    0    0  0.24823222855E+03 -0.37600756204E+03  0.26682798507E+03  0.54551787563E+03  0.15294330000E+03 0. -1.
<mgrwt>
<rscale>  0 0.70123206E+03</rscale>
<asrwt>0</asrwt>
<pdfrwt beam="1">  1        2 0.76141839E-01 0.79800447E+03</pdfrwt>
<pdfrwt beam="2">  1       -2 0.29741521E+00 0.79800447E+03</pdfrwt>
<totfact> 0.21226094E+00</totfact>
</mgrwt>
</event>
<event>
 4    2  0.3855935E-007  0.9444904E+03  0.7818608E-02  0.9458086E-01
          2   -1    0    0  501    0  0.00000000000E+00  0.00000000000E+00  0.22573284374E+04  0.22573284374E+04  0.25500000000E-02 0. -1.
         -2   -1    0    0    0  501 -0.00000000000E+00 -0.00000000000E+00 -0.38602304175E+03  0.38602304176E+03  0.25500000000E-02 0.  1.
    8880023    1    1    2    0    0  0.48357235226E+03  0.47371896150E+03  0.41802241755E+03  0.10328624411E+04  0.65864270000E+03 0.  1.
    8880022    1    1    2    0    0 -0.48357235226E+03 -0.47371896150E+03  0.14532829781E+04  0.16104890381E+04  0.15294330000E+03 0. -1.
<mgrwt>
<rscale>  0 0.87445783E+03</rscale>
<asrwt>0</asrwt>
<pdfrwt beam="1">  1        2 0.34728130E+00 0.94449038E+03</pdfrwt>
<pdfrwt beam="2">  1       -2 0.59388159E-01 0.94449038E+03</pdfrwt>
<totfact> 0.12864753E+01</totfact>
</mgrwt>
</event>
